/*--------------------------------*- C++ -*----------------------------------*\
| =========                 |                                                 |
| \\      /  F ield         | OpenFOAM: The Open Source CFD Toolbox           |
|  \\    /   O peration     | Version:  v1706                                 |
|   \\  /    A nd           | Web:      www.OpenFOAM.com                      |
|    \\/     M anipulation  |                                                 |
\*---------------------------------------------------------------------------*/
FoamFile
{
    version     2.0;
    format      ascii;
    class       volScalarField;
    location    "0.0014";
    object      kappave;
}
// * * * * * * * * * * * * * * * * * * * * * * * * * * * * * * * * * * * * * //

dimensions      [1 1 -3 -1 0 0 0];


internalField   nonuniform List<scalar> 
80000
(
0.09890257159
0.09889008762
0.0989093465
0.09892865062
0.09894745798
0.09896563629
0.09898307942
0.09899969052
0.0990153822
0.09903007741
0.09904371024
0.09905622646
0.09906758387
0.09907775241
0.0990867139
0.0990944617
0.09910100002
0.09910634306
0.099110514
0.09911354388
0.09911547035
0.09911633642
0.09911618914
0.09911507836
0.09911305553
0.0991101726
0.09910648098
0.09910203068
0.09909686954
0.09909104265
0.09908459183
0.09907755533
0.09906996758
0.09906185912
0.09905325657
0.09904418271
0.09903465665
0.09902469401
0.09901430718
0.09900350559
0.09899229596
0.09898068263
0.09896866781
0.09895625183
0.09894343345
0.09893021002
0.09891657772
0.09890253174
0.09888806643
0.09887317541
0.09885785174
0.09884208793
0.09882587608
0.0988092079
0.09879207478
0.0987744678
0.09875637777
0.09873779526
0.09871871061
0.09869911397
0.09867899531
0.09865834446
0.09863715114
0.09861540505
0.0985930959
0.09857021353
0.098546748
0.09852268974
0.09849802974
0.09847275979
0.09844687275
0.09842036298
0.09839322687
0.09836546352
0.09833707582
0.0983080718
0.09827846677
0.09824828638
0.09821757129
0.09818638452
0.09815482276
0.0981230344
0.09809124691
0.09805979871
0.09802903195
0.0979967317
0.09791126445
0.09701778598
0.09131875472
0.06330062272
0.0002390610151
1.596347085e-05
1.59164428e-05
1.59164377e-05
1.59164377e-05
1.59164377e-05
1.59164377e-05
1.59164377e-05
1.59164377e-05
1.59164377e-05
1.59164377e-05
1.59164377e-05
1.59164377e-05
1.59164377e-05
1.59164377e-05
1.59164377e-05
1.59164377e-05
1.59164377e-05
1.59164377e-05
1.59164377e-05
1.59164377e-05
1.59164377e-05
1.59164377e-05
1.59164377e-05
1.59164377e-05
1.59164377e-05
1.59164377e-05
1.59164377e-05
1.59164377e-05
1.59164377e-05
1.59164377e-05
1.59164377e-05
1.59164377e-05
1.59164377e-05
1.59164377e-05
1.59164377e-05
1.59164377e-05
1.59164377e-05
1.59164377e-05
1.59164377e-05
1.59164377e-05
1.59164377e-05
1.59164377e-05
1.59164377e-05
1.59164377e-05
1.59164377e-05
1.59164377e-05
1.59164377e-05
1.59164377e-05
1.59164377e-05
1.59164377e-05
1.59164377e-05
1.59164377e-05
1.59164377e-05
1.59164377e-05
1.59164377e-05
1.59164377e-05
1.59164377e-05
1.59164377e-05
1.59164377e-05
1.59164377e-05
1.59164377e-05
1.59164377e-05
1.59164377e-05
1.59164377e-05
1.59164377e-05
1.59164377e-05
1.59164377e-05
1.59164377e-05
1.59164377e-05
1.59164377e-05
1.59164377e-05
1.59164377e-05
1.59164377e-05
1.59164377e-05
1.59164377e-05
1.59164377e-05
1.59164377e-05
1.59164377e-05
1.59164377e-05
1.59164377e-05
1.59164377e-05
1.59164377e-05
1.59164377e-05
1.59164377e-05
1.59164377e-05
1.591643769e-05
1.591643769e-05
1.591643769e-05
1.591643769e-05
1.591643769e-05
1.591643769e-05
1.591643769e-05
1.591643769e-05
1.591643769e-05
1.591643769e-05
1.591643769e-05
1.591643768e-05
1.591643768e-05
1.591643768e-05
1.591643768e-05
1.591643768e-05
1.591643768e-05
1.591643767e-05
1.591643767e-05
1.591643767e-05
1.591643767e-05
1.591643767e-05
1.591643766e-05
1.591643766e-05
0.09894126433
0.098928764
0.09894798289
0.09896724344
0.0989860103
0.09900415502
0.09902157335
0.09903816924
0.0990538555
0.09906855494
0.09908220131
0.09909473993
0.0991061281
0.09911633518
0.09912534244
0.09913314265
0.09913973946
0.0991451465
0.09914938643
0.0991524898
0.09915449378
0.09915544094
0.09915537796
0.09915435433
0.0991524212
0.09914963026
0.09914603268
0.09914167829
0.09913661478
0.09913088711
0.09912453702
0.09911760269
0.09911011851
0.09910211499
0.09909361873
0.09908465254
0.09907523553
0.09906538334
0.09905510839
0.09904442012
0.09903332531
0.09902182831
0.09900993136
0.09899763482
0.09898493745
0.09897183665
0.09895832859
0.09894440848
0.09893007066
0.09891530876
0.09890011583
0.09888448436
0.09886840644
0.09885187377
0.09883487768
0.09881740924
0.0987994592
0.0987810181
0.0987620762
0.09874262359
0.09872265016
0.09870214563
0.09868109961
0.09865950167
0.09863734135
0.09861460828
0.09859129229
0.0985673835
0.09854287255
0.09851775074
0.09849201035
0.09846564495
0.0984386499
0.09841102288
0.09838276474
0.09835388051
0.09832438094
0.09829428439
0.09826361953
0.09823242894
0.09820077381
0.09816874001
0.09813644476
0.09810403451
0.09807152852
0.09803621651
0.09794607634
0.09704980195
0.09136628895
0.06349205097
0.0002406855964
1.596392645e-05
1.591644285e-05
1.59164377e-05
1.59164377e-05
1.59164377e-05
1.59164377e-05
1.59164377e-05
1.59164377e-05
1.59164377e-05
1.59164377e-05
1.59164377e-05
1.59164377e-05
1.59164377e-05
1.59164377e-05
1.59164377e-05
1.59164377e-05
1.59164377e-05
1.59164377e-05
1.59164377e-05
1.59164377e-05
1.59164377e-05
1.59164377e-05
1.59164377e-05
1.59164377e-05
1.59164377e-05
1.59164377e-05
1.59164377e-05
1.59164377e-05
1.59164377e-05
1.59164377e-05
1.59164377e-05
1.59164377e-05
1.59164377e-05
1.59164377e-05
1.59164377e-05
1.59164377e-05
1.59164377e-05
1.59164377e-05
1.59164377e-05
1.59164377e-05
1.59164377e-05
1.59164377e-05
1.59164377e-05
1.59164377e-05
1.59164377e-05
1.59164377e-05
1.59164377e-05
1.59164377e-05
1.59164377e-05
1.59164377e-05
1.59164377e-05
1.591643769e-05
1.591643769e-05
1.591643769e-05
1.591643769e-05
1.591643769e-05
1.591643769e-05
1.591643769e-05
1.591643769e-05
1.591643769e-05
1.591643769e-05
1.591643769e-05
1.591643769e-05
1.591643769e-05
1.591643769e-05
1.591643769e-05
1.591643769e-05
1.591643769e-05
1.591643769e-05
1.591643769e-05
1.591643769e-05
1.591643769e-05
1.591643769e-05
1.591643769e-05
1.591643769e-05
1.591643769e-05
1.591643769e-05
1.591643769e-05
1.591643769e-05
1.591643769e-05
1.591643768e-05
1.591643768e-05
1.591643768e-05
1.591643768e-05
1.591643768e-05
1.591643768e-05
1.591643768e-05
1.591643768e-05
1.591643768e-05
1.591643768e-05
1.591643768e-05
1.591643768e-05
1.591643768e-05
1.591643767e-05
1.591643767e-05
1.591643767e-05
1.591643767e-05
1.591643767e-05
1.591643767e-05
1.591643767e-05
1.591643767e-05
1.591643767e-05
1.591643767e-05
1.591643766e-05
1.591643766e-05
1.591643766e-05
1.591643766e-05
1.591643766e-05
1.591643766e-05
0.09895680154
0.09894429557
0.09896350099
0.0989827491
0.09900150475
0.09901964007
0.0990370514
0.09905364307
0.09906932813
0.09908402951
0.09909768099
0.09911022784
0.09912162725
0.09913184846
0.09914087257
0.0991486922
0.0991553108
0.09916074184
0.09916500779
0.09916813902
0.09917017255
0.0991711508
0.09917112028
0.09917013038
0.09916823213
0.0991654771
0.09916191639
0.09915759974
0.09915257479
0.09914688645
0.09914057641
0.09913368283
0.09912624008
0.09911827866
0.09910982518
0.09910090242
0.09909152951
0.09908172212
0.09907149265
0.09906085059
0.0990498027
0.09903835337
0.09902650485
0.09901425752
0.09900161017
0.09898856018
0.09897510377
0.09896123614
0.09894695166
0.09893224397
0.09891710611
0.0989015306
0.09888550954
0.09886903463
0.09885209721
0.09883468835
0.09881679882
0.09879841915
0.09877953961
0.09876015028
0.09874024104
0.09871980162
0.09869882161
0.09867729055
0.09865519793
0.09863253334
0.09860928652
0.09858544749
0.09856100669
0.0985359552
0.09851028495
0.09848398899
0.09845706193
0.09842950037
0.09840130351
0.09837247396
0.0983430188
0.09831295082
0.09828229033
0.09825106724
0.09821932386
0.09818711831
0.09815452827
0.09812164636
0.09808842518
0.09805210393
0.09796106803
0.09706996183
0.09141769995
0.06374593008
0.0002429194437
1.596455142e-05
1.591644291e-05
1.59164377e-05
1.59164377e-05
1.59164377e-05
1.59164377e-05
1.59164377e-05
1.59164377e-05
1.59164377e-05
1.59164377e-05
1.59164377e-05
1.59164377e-05
1.59164377e-05
1.59164377e-05
1.59164377e-05
1.59164377e-05
1.59164377e-05
1.59164377e-05
1.59164377e-05
1.59164377e-05
1.591643769e-05
1.591643769e-05
1.591643769e-05
1.591643769e-05
1.591643769e-05
1.591643769e-05
1.591643769e-05
1.591643769e-05
1.591643769e-05
1.591643769e-05
1.591643769e-05
1.591643769e-05
1.591643769e-05
1.591643769e-05
1.591643769e-05
1.591643769e-05
1.591643769e-05
1.591643769e-05
1.591643769e-05
1.591643769e-05
1.591643769e-05
1.591643769e-05
1.591643769e-05
1.591643769e-05
1.591643769e-05
1.591643769e-05
1.591643769e-05
1.591643769e-05
1.591643769e-05
1.591643769e-05
1.591643769e-05
1.591643769e-05
1.591643769e-05
1.591643769e-05
1.591643769e-05
1.591643769e-05
1.591643769e-05
1.591643769e-05
1.591643769e-05
1.591643769e-05
1.591643769e-05
1.591643769e-05
1.591643769e-05
1.591643769e-05
1.591643768e-05
1.591643768e-05
1.591643768e-05
1.591643768e-05
1.591643768e-05
1.591643768e-05
1.591643768e-05
1.591643768e-05
1.591643768e-05
1.591643768e-05
1.591643768e-05
1.591643768e-05
1.591643768e-05
1.591643768e-05
1.591643768e-05
1.591643768e-05
1.591643768e-05
1.591643768e-05
1.591643768e-05
1.591643767e-05
1.591643767e-05
1.591643767e-05
1.591643767e-05
1.591643767e-05
1.591643767e-05
1.591643767e-05
1.591643767e-05
1.591643767e-05
1.591643767e-05
1.591643767e-05
1.591643767e-05
1.591643767e-05
1.591643767e-05
1.591643767e-05
1.591643767e-05
1.591643766e-05
1.591643766e-05
1.591643766e-05
1.591643766e-05
1.591643766e-05
1.591643766e-05
1.591643766e-05
1.591643766e-05
1.591643766e-05
1.591643766e-05
0.09896643332
0.09895392983
0.0989731277
0.09899236929
0.09901111937
0.09902925017
0.09904665816
0.09906324785
0.09907893242
0.0990936349
0.0991072891
0.09911984032
0.09913124575
0.09914147459
0.09915050788
0.09915833818
0.09916496885
0.0991704133
0.0991746939
0.09917784094
0.09917989136
0.09918088749
0.09918087579
0.09917990554
0.09917802774
0.09917529388
0.09917175501
0.09916746085
0.09916245899
0.0991567943
0.09915050847
0.09914363963
0.09913622214
0.09912828651
0.09911985933
0.0991109634
0.09910161786
0.09909183837
0.09908163737
0.09907102435
0.09906000609
0.099048587
0.09903676934
0.09902455352
0.09901193834
0.09899892122
0.09898549837
0.09897166503
0.09895741558
0.09894274368
0.0989276424
0.09891210428
0.09889612144
0.09887968559
0.09886278812
0.0988454201
0.09882757234
0.09880923538
0.09879039954
0.09877105491
0.09875119141
0.09873079877
0.09870986663
0.09868838452
0.09866634196
0.09864372852
0.09862053392
0.09859674811
0.09857236144
0.09854736481
0.09852174988
0.09849550934
0.09846863718
0.09844112912
0.09841298309
0.09838419985
0.09835478377
0.09832474383
0.09829409483
0.098262859
0.09823106795
0.09819876517
0.09816600857
0.09813286455
0.09809925209
0.09806239023
0.09797115468
0.09708711791
0.091471523
0.06403032099
0.0002454723917
1.596527191e-05
1.591644299e-05
1.591643769e-05
1.591643769e-05
1.591643769e-05
1.591643769e-05
1.591643769e-05
1.591643769e-05
1.591643769e-05
1.591643769e-05
1.591643769e-05
1.591643769e-05
1.591643769e-05
1.591643769e-05
1.591643769e-05
1.591643769e-05
1.591643769e-05
1.591643769e-05
1.591643769e-05
1.591643769e-05
1.591643769e-05
1.591643769e-05
1.591643769e-05
1.591643769e-05
1.591643769e-05
1.591643769e-05
1.591643769e-05
1.591643769e-05
1.591643769e-05
1.591643769e-05
1.591643769e-05
1.591643769e-05
1.591643769e-05
1.591643769e-05
1.591643769e-05
1.591643769e-05
1.591643769e-05
1.591643769e-05
1.591643769e-05
1.591643769e-05
1.591643769e-05
1.591643769e-05
1.591643769e-05
1.591643769e-05
1.591643769e-05
1.591643769e-05
1.591643769e-05
1.591643769e-05
1.591643769e-05
1.591643768e-05
1.591643768e-05
1.591643768e-05
1.591643768e-05
1.591643768e-05
1.591643768e-05
1.591643768e-05
1.591643768e-05
1.591643768e-05
1.591643768e-05
1.591643768e-05
1.591643768e-05
1.591643768e-05
1.591643768e-05
1.591643768e-05
1.591643768e-05
1.591643768e-05
1.591643768e-05
1.591643768e-05
1.591643768e-05
1.591643768e-05
1.591643768e-05
1.591643768e-05
1.591643768e-05
1.591643767e-05
1.591643767e-05
1.591643767e-05
1.591643767e-05
1.591643767e-05
1.591643767e-05
1.591643767e-05
1.591643767e-05
1.591643767e-05
1.591643767e-05
1.591643767e-05
1.591643767e-05
1.591643767e-05
1.591643767e-05
1.591643767e-05
1.591643767e-05
1.591643767e-05
1.591643767e-05
1.591643767e-05
1.591643767e-05
1.591643767e-05
1.591643767e-05
1.591643766e-05
1.591643766e-05
1.591643766e-05
1.591643766e-05
1.591643766e-05
1.591643766e-05
1.591643766e-05
1.591643766e-05
1.591643766e-05
1.591643766e-05
1.591643766e-05
1.591643766e-05
1.591643766e-05
1.591643766e-05
0.09897325034
0.09896075366
0.09897994648
0.0989991837
0.09901793011
0.09903605795
0.09905346373
0.09907005203
0.09908573609
0.099100439
0.09911409462
0.09912664828
0.09913805716
0.09914829046
0.09915732924
0.09916516601
0.0991718041
0.09917725688
0.09918154669
0.09918470376
0.099186765
0.09918777268
0.09918777321
0.09918681585
0.09918495154
0.09918223175
0.0991787075
0.09917442847
0.09916944223
0.09916379366
0.0991575244
0.0991506726
0.09914327262
0.09913535494
0.09912694619
0.09911806917
0.09910874302
0.09909898343
0.09908880285
0.09907821078
0.09906721404
0.09905581703
0.09904402206
0.09903182955
0.09901923833
0.09900624582
0.09899284828
0.09897904097
0.0989648183
0.09895017395
0.09893510101
0.09891959206
0.09890363925
0.09888723431
0.09887036868
0.09885303346
0.09883521949
0.09881691736
0.09879811742
0.09877880981
0.09875898449
0.09873863123
0.0987177397
0.09869629948
0.0986743001
0.09865173116
0.09862858234
0.09860484359
0.09858050515
0.0985555578
0.09852999296
0.09850380296
0.09847698129
0.09844952289
0.09842142461
0.09839268565
0.0983633082
0.09833329816
0.09830266606
0.09827142817
0.09823960781
0.09820723688
0.09817435692
0.09814101082
0.09810708459
0.09806977649
0.09797851221
0.09710247049
0.09152683602
0.06433338639
0.000248231224
1.596605543e-05
1.591644307e-05
1.591643769e-05
1.591643769e-05
1.591643769e-05
1.591643769e-05
1.591643769e-05
1.591643769e-05
1.591643769e-05
1.591643769e-05
1.591643769e-05
1.591643769e-05
1.591643769e-05
1.591643769e-05
1.591643769e-05
1.591643769e-05
1.591643769e-05
1.591643769e-05
1.591643769e-05
1.591643769e-05
1.591643769e-05
1.591643769e-05
1.591643769e-05
1.591643769e-05
1.591643769e-05
1.591643769e-05
1.591643769e-05
1.591643769e-05
1.591643769e-05
1.591643769e-05
1.591643769e-05
1.591643769e-05
1.591643769e-05
1.591643769e-05
1.591643768e-05
1.591643768e-05
1.591643768e-05
1.591643768e-05
1.591643768e-05
1.591643768e-05
1.591643768e-05
1.591643768e-05
1.591643768e-05
1.591643768e-05
1.591643768e-05
1.591643768e-05
1.591643768e-05
1.591643768e-05
1.591643768e-05
1.591643768e-05
1.591643768e-05
1.591643768e-05
1.591643768e-05
1.591643768e-05
1.591643768e-05
1.591643768e-05
1.591643768e-05
1.591643768e-05
1.591643768e-05
1.591643768e-05
1.591643768e-05
1.591643768e-05
1.591643768e-05
1.591643768e-05
1.591643767e-05
1.591643767e-05
1.591643767e-05
1.591643767e-05
1.591643767e-05
1.591643767e-05
1.591643767e-05
1.591643767e-05
1.591643767e-05
1.591643767e-05
1.591643767e-05
1.591643767e-05
1.591643767e-05
1.591643767e-05
1.591643767e-05
1.591643767e-05
1.591643767e-05
1.591643767e-05
1.591643767e-05
1.591643767e-05
1.591643767e-05
1.591643767e-05
1.591643767e-05
1.591643767e-05
1.591643767e-05
1.591643767e-05
1.591643766e-05
1.591643766e-05
1.591643766e-05
1.591643766e-05
1.591643766e-05
1.591643766e-05
1.591643766e-05
1.591643766e-05
1.591643766e-05
1.591643766e-05
1.591643766e-05
1.591643766e-05
1.591643766e-05
1.591643766e-05
1.591643766e-05
1.591643766e-05
1.591643766e-05
1.591643766e-05
1.591643766e-05
0.09897835644
0.09896586987
0.09898505887
0.09900429265
0.09902303608
0.09904116143
0.09905856524
0.0990751521
0.0990908353
0.09910553797
0.099119194
0.09913174873
0.09914315939
0.09915339518
0.09916243715
0.09917027781
0.09917692048
0.09918237851
0.09918667423
0.09918983784
0.09919190621
0.0991929216
0.09919293038
0.0991919818
0.09919012676
0.09918741672
0.09918390268
0.0991796343
0.09917465914
0.09916902206
0.09916276472
0.09915592526
0.09914853804
0.09914063355
0.09913223844
0.0991233755
0.09911406392
0.09910431937
0.09909415435
0.09908357838
0.09907259828
0.0990612185
0.09904944136
0.09903726731
0.0990246952
0.09901172249
0.09899834547
0.09898455941
0.09897035876
0.09895573722
0.09894068794
0.09892520351
0.09890927612
0.09889289754
0.09887605924
0.09885875237
0.09884096782
0.0988226962
0.09880392792
0.09878465316
0.09876486192
0.09874454403
0.09872368918
0.09870228699
0.09868032701
0.09865779884
0.09863469215
0.09861099682
0.09858670299
0.09856180126
0.0985362828
0.09851013953
0.09848336436
0.09845595143
0.09842789643
0.09839919695
0.09836985296
0.09833986725
0.09830924606
0.09827799967
0.09824614307
0.09821369646
0.09818068486
0.09814712787
0.09811288042
0.09807512909
0.09798392016
0.09711656117
0.09158345995
0.06465042628
0.0002511515148
1.59668896e-05
1.591644316e-05
1.591643769e-05
1.591643769e-05
1.591643769e-05
1.591643769e-05
1.591643769e-05
1.591643769e-05
1.591643769e-05
1.591643769e-05
1.591643769e-05
1.591643769e-05
1.591643769e-05
1.591643769e-05
1.591643769e-05
1.591643769e-05
1.591643769e-05
1.591643769e-05
1.591643769e-05
1.591643768e-05
1.591643768e-05
1.591643768e-05
1.591643768e-05
1.591643768e-05
1.591643768e-05
1.591643768e-05
1.591643768e-05
1.591643768e-05
1.591643768e-05
1.591643768e-05
1.591643768e-05
1.591643768e-05
1.591643768e-05
1.591643768e-05
1.591643768e-05
1.591643768e-05
1.591643768e-05
1.591643768e-05
1.591643768e-05
1.591643768e-05
1.591643768e-05
1.591643768e-05
1.591643768e-05
1.591643768e-05
1.591643768e-05
1.591643768e-05
1.591643768e-05
1.591643768e-05
1.591643768e-05
1.591643768e-05
1.591643768e-05
1.591643768e-05
1.591643768e-05
1.591643768e-05
1.591643767e-05
1.591643767e-05
1.591643767e-05
1.591643767e-05
1.591643767e-05
1.591643767e-05
1.591643767e-05
1.591643767e-05
1.591643767e-05
1.591643767e-05
1.591643767e-05
1.591643767e-05
1.591643767e-05
1.591643767e-05
1.591643767e-05
1.591643767e-05
1.591643767e-05
1.591643767e-05
1.591643767e-05
1.591643767e-05
1.591643767e-05
1.591643767e-05
1.591643767e-05
1.591643767e-05
1.591643767e-05
1.591643767e-05
1.591643767e-05
1.591643767e-05
1.591643767e-05
1.591643767e-05
1.591643767e-05
1.591643767e-05
1.591643766e-05
1.591643766e-05
1.591643766e-05
1.591643766e-05
1.591643766e-05
1.591643766e-05
1.591643766e-05
1.591643766e-05
1.591643766e-05
1.591643766e-05
1.591643766e-05
1.591643766e-05
1.591643766e-05
1.591643766e-05
1.591643766e-05
1.591643766e-05
1.591643766e-05
1.591643766e-05
1.591643766e-05
1.591643766e-05
1.591643766e-05
1.591643766e-05
1.591643766e-05
0.09898227823
0.09896980494
0.09898899081
0.09900822153
0.09902696218
0.09904508506
0.09906248673
0.09907907183
0.09909475367
0.09910945539
0.09912311094
0.09913566568
0.09914707685
0.09915731366
0.09916635718
0.09917419992
0.09918084521
0.09918630637
0.09919060573
0.09919377348
0.09919584648
0.09919686695
0.09919688127
0.09919593866
0.09919409
0.09919138674
0.09918787988
0.09918361905
0.09917865182
0.09917302306
0.09916677442
0.09915994404
0.09915256629
0.0991446717
0.09913628689
0.09912743472
0.09911813435
0.09910840151
0.09909824871
0.09908768549
0.0990767187
0.09906535283
0.09905359021
0.09904143133
0.09902887506
0.09901591889
0.09900255915
0.09898879114
0.09897460932
0.09896000746
0.09894497871
0.09892951572
0.09891361068
0.09889725544
0.09888044148
0.09886316
0.09884540192
0.0988271579
0.09880841838
0.0987891736
0.09876941357
0.09874912815
0.09872830707
0.09870693995
0.09868501633
0.09866252578
0.0986394579
0.09861580245
0.09859154941
0.09856668911
0.09854121235
0.09851511051
0.09848837578
0.09846100127
0.09843298129
0.09840431156
0.09837498948
0.09834501436
0.09831438774
0.09828311353
0.09825119806
0.09821864987
0.09818547836
0.09815168249
0.0981170925
0.09807889862
0.09798783545
0.0971297722
0.09164150428
0.06497962989
0.0002542169226
1.596777019e-05
1.591644325e-05
1.591643769e-05
1.591643769e-05
1.591643769e-05
1.591643768e-05
1.591643768e-05
1.591643768e-05
1.591643768e-05
1.591643768e-05
1.591643768e-05
1.591643768e-05
1.591643768e-05
1.591643768e-05
1.591643768e-05
1.591643768e-05
1.591643768e-05
1.591643768e-05
1.591643768e-05
1.591643768e-05
1.591643768e-05
1.591643768e-05
1.591643768e-05
1.591643768e-05
1.591643768e-05
1.591643768e-05
1.591643768e-05
1.591643768e-05
1.591643768e-05
1.591643768e-05
1.591643768e-05
1.591643768e-05
1.591643768e-05
1.591643768e-05
1.591643768e-05
1.591643768e-05
1.591643768e-05
1.591643768e-05
1.591643768e-05
1.591643768e-05
1.591643768e-05
1.591643768e-05
1.591643768e-05
1.591643768e-05
1.591643767e-05
1.591643767e-05
1.591643767e-05
1.591643767e-05
1.591643767e-05
1.591643767e-05
1.591643767e-05
1.591643767e-05
1.591643767e-05
1.591643767e-05
1.591643767e-05
1.591643767e-05
1.591643767e-05
1.591643767e-05
1.591643767e-05
1.591643767e-05
1.591643767e-05
1.591643767e-05
1.591643767e-05
1.591643767e-05
1.591643767e-05
1.591643767e-05
1.591643767e-05
1.591643767e-05
1.591643767e-05
1.591643767e-05
1.591643767e-05
1.591643767e-05
1.591643767e-05
1.591643767e-05
1.591643767e-05
1.591643767e-05
1.591643767e-05
1.591643767e-05
1.591643767e-05
1.591643767e-05
1.591643767e-05
1.591643766e-05
1.591643766e-05
1.591643766e-05
1.591643766e-05
1.591643766e-05
1.591643766e-05
1.591643766e-05
1.591643766e-05
1.591643766e-05
1.591643766e-05
1.591643766e-05
1.591643766e-05
1.591643766e-05
1.591643766e-05
1.591643766e-05
1.591643766e-05
1.591643766e-05
1.591643766e-05
1.591643766e-05
1.591643766e-05
1.591643766e-05
1.591643766e-05
1.591643766e-05
1.591643766e-05
1.591643766e-05
1.591643766e-05
1.591643766e-05
1.591643766e-05
0.09898530965
0.09897285297
0.0989920361
0.09901126392
0.09903000175
0.09904812198
0.09906552119
0.09908210407
0.09909778396
0.09911248405
0.0991261383
0.0991386921
0.09915010272
0.09916033939
0.09916938319
0.09917722663
0.09918387304
0.09918933576
0.09919363708
0.09919680721
0.09919888297
0.0991999066
0.09919992446
0.09919898574
0.09919714132
0.09919444265
0.0991909407
0.09918668514
0.09918172351
0.09917610067
0.09916985831
0.09916303457
0.09915566384
0.09914777665
0.09913939965
0.09913055572
0.09912126406
0.09911154041
0.0991013973
0.09909084431
0.09907988833
0.09906853386
0.09905678327
0.09904463708
0.09903209419
0.09901915213
0.09900580723
0.09899205485
0.09897788948
0.0989633049
0.09894829431
0.09893285039
0.09891696536
0.0989006311
0.09888383913
0.09886658067
0.09884884667
0.09883062784
0.09881191463
0.09879269729
0.09877296586
0.0987527102
0.09873192002
0.09871058492
0.09868869438
0.09866623787
0.09864320487
0.09861958492
0.09859536773
0.09857054324
0.09854510171
0.09851903383
0.09849233081
0.09846498453
0.09843698763
0.09840833362
0.09837901701
0.09834903333
0.09831837916
0.09828705199
0.09825504986
0.09822237073
0.09818901073
0.09815495274
0.09812001031
0.0980813924
0.09799057943
0.09714238619
0.09170114098
0.06532028238
0.0002574221317
1.596869619e-05
1.591644335e-05
1.591643768e-05
1.591643768e-05
1.591643768e-05
1.591643768e-05
1.591643768e-05
1.591643768e-05
1.591643768e-05
1.591643768e-05
1.591643768e-05
1.591643768e-05
1.591643768e-05
1.591643768e-05
1.591643768e-05
1.591643768e-05
1.591643768e-05
1.591643768e-05
1.591643768e-05
1.591643768e-05
1.591643768e-05
1.591643768e-05
1.591643768e-05
1.591643768e-05
1.591643768e-05
1.591643768e-05
1.591643768e-05
1.591643768e-05
1.591643768e-05
1.591643768e-05
1.591643768e-05
1.591643768e-05
1.591643768e-05
1.591643768e-05
1.591643767e-05
1.591643767e-05
1.591643767e-05
1.591643767e-05
1.591643767e-05
1.591643767e-05
1.591643767e-05
1.591643767e-05
1.591643767e-05
1.591643767e-05
1.591643767e-05
1.591643767e-05
1.591643767e-05
1.591643767e-05
1.591643767e-05
1.591643767e-05
1.591643767e-05
1.591643767e-05
1.591643767e-05
1.591643767e-05
1.591643767e-05
1.591643767e-05
1.591643767e-05
1.591643767e-05
1.591643767e-05
1.591643767e-05
1.591643767e-05
1.591643767e-05
1.591643767e-05
1.591643767e-05
1.591643767e-05
1.591643767e-05
1.591643767e-05
1.591643767e-05
1.591643767e-05
1.591643767e-05
1.591643767e-05
1.591643767e-05
1.591643767e-05
1.591643767e-05
1.591643767e-05
1.591643767e-05
1.591643767e-05
1.591643766e-05
1.591643766e-05
1.591643766e-05
1.591643766e-05
1.591643766e-05
1.591643766e-05
1.591643766e-05
1.591643766e-05
1.591643766e-05
1.591643766e-05
1.591643766e-05
1.591643766e-05
1.591643766e-05
1.591643766e-05
1.591643766e-05
1.591643766e-05
1.591643766e-05
1.591643766e-05
1.591643766e-05
1.591643766e-05
1.591643766e-05
1.591643766e-05
1.591643766e-05
1.591643766e-05
1.591643766e-05
1.591643766e-05
1.591643766e-05
1.591643766e-05
1.591643766e-05
1.591643766e-05
1.591643766e-05
1.591643766e-05
0.09898763213
0.09897519557
0.09899437619
0.09901360111
0.099032336
0.09905045329
0.09906784966
0.09908442981
0.09910010716
0.09911480493
0.09912845711
0.09914100914
0.0991524183
0.09916265385
0.09917169686
0.09917953987
0.09918618622
0.09919164923
0.0991959512
0.09919912231
0.09920119941
0.09920222469
0.09920224452
0.09920130808
0.09919946624
0.09919677044
0.09919327165
0.09918901954
0.09918406165
0.09917844287
0.09917220488
0.09916538583
0.09915802014
0.09915013836
0.09914176718
0.09913292947
0.09912364448
0.09911392798
0.09910379253
0.09909324774
0.09908230052
0.09907095542
0.09905921483
0.0990470793
0.09903454776
0.09902161778
0.09900828571
0.09899454694
0.09898039599
0.09896582668
0.09895083221
0.0989354053
0.0989195382
0.09890322281
0.09888645066
0.09886921301
0.09885150081
0.09883330478
0.09881461539
0.09879542286
0.09877571722
0.09875548831
0.09873472578
0.09871341912
0.09869155773
0.09866913088
0.09864612783
0.09862253784
0.09859835019
0.09857355431
0.09854813975
0.09852209633
0.0984954141
0.09846808345
0.09844009515
0.09841144028
0.09838211033
0.09835209697
0.09832139198
0.09828998689
0.09825787249
0.09822503801
0.09819146944
0.09815713839
0.09812184898
0.09808284072
0.09799238659
0.09715460528
0.09176251761
0.06567201331
0.0002607655678
1.596966775e-05
1.591644345e-05
1.591643768e-05
1.591643768e-05
1.591643768e-05
1.591643768e-05
1.591643768e-05
1.591643768e-05
1.591643768e-05
1.591643768e-05
1.591643768e-05
1.591643768e-05
1.591643768e-05
1.591643768e-05
1.591643768e-05
1.591643768e-05
1.591643768e-05
1.591643768e-05
1.591643768e-05
1.591643768e-05
1.591643768e-05
1.591643768e-05
1.591643768e-05
1.591643767e-05
1.591643767e-05
1.591643767e-05
1.591643767e-05
1.591643767e-05
1.591643767e-05
1.591643767e-05
1.591643767e-05
1.591643767e-05
1.591643767e-05
1.591643767e-05
1.591643767e-05
1.591643767e-05
1.591643767e-05
1.591643767e-05
1.591643767e-05
1.591643767e-05
1.591643767e-05
1.591643767e-05
1.591643767e-05
1.591643767e-05
1.591643767e-05
1.591643767e-05
1.591643767e-05
1.591643767e-05
1.591643767e-05
1.591643767e-05
1.591643767e-05
1.591643767e-05
1.591643767e-05
1.591643767e-05
1.591643767e-05
1.591643767e-05
1.591643767e-05
1.591643767e-05
1.591643767e-05
1.591643767e-05
1.591643767e-05
1.591643767e-05
1.591643767e-05
1.591643767e-05
1.591643767e-05
1.591643767e-05
1.591643767e-05
1.591643767e-05
1.591643767e-05
1.591643767e-05
1.591643767e-05
1.591643767e-05
1.591643766e-05
1.591643766e-05
1.591643766e-05
1.591643766e-05
1.591643766e-05
1.591643766e-05
1.591643766e-05
1.591643766e-05
1.591643766e-05
1.591643766e-05
1.591643766e-05
1.591643766e-05
1.591643766e-05
1.591643766e-05
1.591643766e-05
1.591643766e-05
1.591643766e-05
1.591643766e-05
1.591643766e-05
1.591643766e-05
1.591643766e-05
1.591643766e-05
1.591643766e-05
1.591643766e-05
1.591643766e-05
1.591643766e-05
1.591643766e-05
1.591643766e-05
1.591643766e-05
1.591643766e-05
1.591643766e-05
1.591643766e-05
1.591643766e-05
1.591643766e-05
1.591643766e-05
1.591643766e-05
1.591643766e-05
0.09898936588
0.09897695307
0.09899613135
0.09901535333
0.09903408506
0.09905219911
0.0990695922
0.09908616913
0.09910184335
0.09911653815
0.09913018755
0.09914273704
0.09915414392
0.09916437747
0.09917341879
0.09918126043
0.09918790571
0.09919336797
0.0991976695
0.09920084047
0.09920291772
0.09920394344
0.09920396397
0.09920302849
0.09920118787
0.09919849354
0.09919499647
0.09919074632
0.09918579067
0.09918017438
0.09917393915
0.09916712318
0.09915976088
0.09915188284
0.09914351577
0.09913468258
0.09912540253
0.09911569144
0.0991055619
0.09909502354
0.09908408332
0.09907274581
0.09906101343
0.09904888677
0.09903636479
0.09902344507
0.099010124
0.098996397
0.0989822586
0.09896770264
0.09895272235
0.09893731047
0.09892145925
0.0989051606
0.09888840608
0.09887118692
0.09885349409
0.09883531828
0.09881664993
0.09879747925
0.09877779619
0.09875759052
0.09873685177
0.0987155693
0.0986937323
0.09867132983
0.09864835082
0.09862478409
0.09860061845
0.09857584264
0.09855044541
0.09852441551
0.09849774172
0.09847041282
0.09844241757
0.09841374464
0.09838438249
0.09835431922
0.09832354228
0.09829203812
0.09825979165
0.0982267855
0.09819299855
0.09815839531
0.09812277589
0.09808341861
0.097993427
0.09716656781
0.09182573401
0.06603450423
0.000264246348
1.597068525e-05
1.591644356e-05
1.591643768e-05
1.591643768e-05
1.591643768e-05
1.591643768e-05
1.591643768e-05
1.591643768e-05
1.591643768e-05
1.591643768e-05
1.591643768e-05
1.591643768e-05
1.591643768e-05
1.591643767e-05
1.591643767e-05
1.591643767e-05
1.591643767e-05
1.591643767e-05
1.591643767e-05
1.591643767e-05
1.591643767e-05
1.591643767e-05
1.591643767e-05
1.591643767e-05
1.591643767e-05
1.591643767e-05
1.591643767e-05
1.591643767e-05
1.591643767e-05
1.591643767e-05
1.591643767e-05
1.591643767e-05
1.591643767e-05
1.591643767e-05
1.591643767e-05
1.591643767e-05
1.591643767e-05
1.591643767e-05
1.591643767e-05
1.591643767e-05
1.591643767e-05
1.591643767e-05
1.591643767e-05
1.591643767e-05
1.591643767e-05
1.591643767e-05
1.591643767e-05
1.591643767e-05
1.591643767e-05
1.591643767e-05
1.591643767e-05
1.591643767e-05
1.591643767e-05
1.591643767e-05
1.591643767e-05
1.591643767e-05
1.591643767e-05
1.591643767e-05
1.591643767e-05