/*--------------------------------*- C++ -*----------------------------------*\
| =========                 |                                                 |
| \\      /  F ield         | OpenFOAM: The Open Source CFD Toolbox           |
|  \\    /   O peration     | Version:  v1706                                 |
|   \\  /    A nd           | Web:      www.OpenFOAM.com                      |
|    \\/     M anipulation  |                                                 |
\*---------------------------------------------------------------------------*/
FoamFile
{
    version     2.0;
    format      ascii;
    class       volScalarField;
    location    "0.0014";
    object      rho;
}
// * * * * * * * * * * * * * * * * * * * * * * * * * * * * * * * * * * * * * //

dimensions      [1 -3 0 0 0 0 0];


internalField   nonuniform List<scalar> 
80000
(
0.1466840135
0.1464229806
0.1463747207
0.1463303327
0.1462854711
0.1462400829
0.1461943155
0.1461483194
0.1461022344
0.146056184
0.1460102726
0.1459645831
0.1459191754
0.1458740865
0.1458293295
0.1457848951
0.1457407521
0.1456968491
0.1456531163
0.1456094674
0.1455658024
0.1455220093
0.1454779673
0.1454335483
0.1453886199
0.1453430474
0.1452966954
0.1452494298
0.1452011192
0.145151636
0.1451008574
0.1450486663
0.1449949512
0.144939607
0.1448825345
0.1448236409
0.1447628388
0.1447000465
0.144635187
0.144568188
0.144498981
0.1444275009
0.1443536854
0.1442774747
0.1441988109
0.1441176374
0.1440338991
0.1439475412
0.1438585097
0.1437667509
0.1436722112
0.1435748369
0.1434745745
0.14337137
0.1432651698
0.1431559201
0.1430435672
0.1429280578
0.1428093391
0.1426873591
0.1425620669
0.1424334132
0.1423013506
0.1421658345
0.1420268237
0.1418842812
0.1417381758
0.1415884831
0.1414351877
0.1412782854
0.1411177869
0.140953721
0.1407861412
0.1406151324
0.1404408216
0.1402633917
0.1400831026
0.1399003205
0.1397155624
0.1395295645
0.1393433887
0.1391585909
0.1389774861
0.1388034972
0.1386405332
0.1384736599
0.1379310342
0.1320284667
0.1005191997
0.039635262
0.01820655841
0.01820010919
0.01820005645
0.0182000564
0.0182000564
0.0182000564
0.0182000564
0.0182000564
0.0182000564
0.0182000564
0.0182000564
0.0182000564
0.0182000564
0.0182000564
0.0182000564
0.0182000564
0.0182000564
0.0182000564
0.0182000564
0.0182000564
0.0182000564
0.0182000564
0.0182000564
0.0182000564
0.0182000564
0.0182000564
0.0182000564
0.0182000564
0.0182000564
0.0182000564
0.0182000564
0.0182000564
0.0182000564
0.0182000564
0.0182000564
0.0182000564
0.0182000564
0.0182000564
0.0182000564
0.0182000564
0.0182000564
0.0182000564
0.0182000564
0.01820005641
0.01820005641
0.01820005641
0.01820005641
0.01820005641
0.01820005641
0.01820005641
0.01820005641
0.01820005641
0.01820005641
0.01820005641
0.01820005641
0.01820005641
0.01820005641
0.01820005641
0.01820005641
0.01820005641
0.01820005641
0.01820005641
0.01820005641
0.01820005641
0.01820005641
0.01820005641
0.01820005641
0.01820005641
0.01820005641
0.01820005641
0.01820005641
0.01820005641
0.01820005641
0.01820005641
0.01820005641
0.01820005641
0.01820005641
0.0182000564
0.0182000564
0.0182000564
0.0182000564
0.0182000564
0.0182000564
0.0182000564
0.0182000564
0.01820005639
0.01820005639
0.01820005639
0.01820005639
0.01820005638
0.01820005638
0.01820005638
0.01820005637
0.01820005637
0.01820005637
0.01820005636
0.01820005636
0.01820005635
0.01820005635
0.01820005634
0.01820005634
0.01820005633
0.01820005632
0.01820005632
0.01820005631
0.0182000563
0.01820005629
0.01820005628
0.01820005627
0.01820005627
0.146945541
0.1466839783
0.1466353483
0.1465905627
0.1465453199
0.1464995949
0.1464535489
0.1464073395
0.1463611083
0.1463149786
0.1462690529
0.1462234114
0.1461781109
0.1461331846
0.146088642
0.1460444698
0.1460006328
0.1459570757
0.1459137251
0.1458704911
0.14582727
0.145783947
0.145740398
0.1456964923
0.1456520953
0.1456070698
0.1455612787
0.1455145861
0.1454668593
0.1454179695
0.145367793
0.1453162117
0.1452631137
0.1452083931
0.1451519506
0.1450936929
0.1450335326
0.1449713877
0.1449071812
0.1448408406
0.1447722973
0.1447014863
0.1446283452
0.144552814
0.1444748347
0.1443943506
0.1443113064
0.144225647
0.1441373183
0.1440462661
0.1439524364
0.1438557752
0.1437562284
0.1436537415
0.1435482602
0.14343973
0.1433280964
0.1432133051
0.1430953024
0.1429740348
0.1428494503
0.1427214977
0.1425901281
0.1424552945
0.1423169531
0.1421750642
0.1420295926
0.1418805098
0.141727795
0.1415714375
0.1414114396
0.1412478198
0.1410806179
0.1409099006
0.14073577
0.1405583744
0.1403779228
0.1401947049
0.1400091181
0.1398217046
0.1396332021
0.1394446114
0.1392572817
0.139072945
0.138892567
0.1386962681
0.1381058684
0.1321500776
0.1006444244
0.03977568552
0.01820658383
0.01820010945
0.01820005645
0.0182000564
0.0182000564
0.0182000564
0.0182000564
0.0182000564
0.0182000564
0.0182000564
0.0182000564
0.0182000564
0.0182000564
0.0182000564
0.0182000564
0.0182000564
0.0182000564
0.0182000564
0.0182000564
0.0182000564
0.0182000564
0.0182000564
0.0182000564
0.0182000564
0.0182000564
0.0182000564
0.0182000564
0.0182000564
0.0182000564
0.0182000564
0.0182000564
0.0182000564
0.0182000564
0.0182000564
0.0182000564
0.0182000564
0.0182000564
0.0182000564
0.0182000564
0.0182000564
0.0182000564
0.0182000564
0.0182000564
0.0182000564
0.0182000564
0.0182000564
0.01820005639
0.01820005639
0.01820005639
0.01820005639
0.01820005639
0.01820005639
0.01820005639
0.01820005639
0.01820005639
0.01820005639
0.01820005639
0.01820005639
0.01820005639
0.01820005639
0.01820005639
0.01820005638
0.01820005638
0.01820005638
0.01820005638
0.01820005638
0.01820005638
0.01820005638
0.01820005638
0.01820005638
0.01820005637
0.01820005637
0.01820005637
0.01820005637
0.01820005637
0.01820005637
0.01820005636
0.01820005636
0.01820005636
0.01820005636
0.01820005635
0.01820005635
0.01820005635
0.01820005635
0.01820005634
0.01820005634
0.01820005634
0.01820005634
0.01820005633
0.01820005633
0.01820005633
0.01820005632
0.01820005632
0.01820005632
0.01820005631
0.01820005631
0.01820005631
0.0182000563
0.0182000563
0.0182000563
0.01820005629
0.01820005629
0.01820005628
0.01820005628
0.01820005628
0.01820005627
0.01820005627
0.01820005627
0.01820005626
0.01820005626
0.1470519164
0.1467902243
0.1467415032
0.1466966158
0.14665127
0.1466054493
0.1465593212
0.1465130473
0.146466772
0.1464206198
0.1463746939
0.1463290744
0.1462838176
0.1462389558
0.1461944975
0.1461504283
0.1461067118
0.1460632914
0.1460200921
0.1459770231
0.1459339793
0.1458908447
0.145847494
0.1458037956
0.1457596139
0.1457148107
0.1456692483
0.14562279
0.1455753026
0.1455266566
0.1454767279
0.145425398
0.1453725547
0.1453180919
0.1452619099
0.1452039153
0.1451440204
0.1450821433
0.1450182066
0.1449521379
0.1448838684
0.1448133329
0.1447404689
0.1446652164
0.144587517
0.144507314
0.1444245518
0.1443391751
0.1442511295
0.1441603605
0.1440668138
0.1439704349
0.1438711692
0.1437689619
0.143663758
0.1435555021
0.1434441392
0.1433296141
0.1432118717
0.1430908577
0.1429665184
0.1428388012
0.1427076549
0.1425730304
0.142434881
0.1422931636
0.1421478389
0.1419988732
0.1418462394
0.1416899188
0.1415299034
0.1413661986
0.1411988266
0.1410278312
0.1408532833
0.1406752878
0.1404939935
0.1403096043
0.1401223942
0.1399327253
0.13974107
0.1395480364
0.1393543918
0.1391610087
0.1389676063
0.1387526933
0.1381390094
0.1321917026
0.1008005742
0.03998626668
0.01820663319
0.0182001098
0.01820005645
0.0182000564
0.0182000564
0.01820005639
0.01820005639
0.01820005639
0.01820005639
0.01820005639
0.01820005639
0.01820005639
0.01820005639
0.01820005639
0.01820005639
0.01820005639
0.01820005639
0.01820005639
0.01820005639
0.01820005639
0.01820005639
0.01820005639
0.01820005639
0.01820005639
0.01820005639
0.01820005639
0.01820005639
0.01820005639
0.01820005639
0.01820005639
0.01820005639
0.01820005639
0.01820005639
0.01820005639
0.01820005639
0.01820005639
0.01820005639
0.01820005638
0.01820005638
0.01820005638
0.01820005638
0.01820005638
0.01820005638
0.01820005638
0.01820005638
0.01820005638
0.01820005638
0.01820005638
0.01820005638
0.01820005638
0.01820005637
0.01820005637
0.01820005637
0.01820005637
0.01820005637
0.01820005637
0.01820005637
0.01820005637
0.01820005636
0.01820005636
0.01820005636
0.01820005636
0.01820005636
0.01820005636
0.01820005636
0.01820005635
0.01820005635
0.01820005635
0.01820005635
0.01820005635
0.01820005635
0.01820005634
0.01820005634
0.01820005634
0.01820005634
0.01820005634
0.01820005633
0.01820005633
0.01820005633
0.01820005633
0.01820005632
0.01820005632
0.01820005632
0.01820005632
0.01820005632
0.01820005631
0.01820005631
0.01820005631
0.01820005631
0.0182000563
0.0182000563
0.0182000563
0.0182000563
0.01820005629
0.01820005629
0.01820005629
0.01820005629
0.01820005628
0.01820005628
0.01820005628
0.01820005628
0.01820005628
0.01820005627
0.01820005627
0.01820005627
0.01820005627
0.01820005626
0.01820005626
0.01820005626
0.01820005626
0.1471181384
0.1468564223
0.1468076711
0.1467627479
0.1467173645
0.1466715081
0.1466253493
0.1465790522
0.1465327629
0.1464866073
0.1464406893
0.1463950893
0.1463498637
0.1463050448
0.1462606407
0.1462166366
0.1461729954
0.14612966
0.146086555
0.1460435885
0.1460006551
0.145957638
0.1459144113
0.1458708429
0.1458267964
0.1457821335
0.1457367155
0.1456904057
0.1456430702
0.1455945793
0.1455448086
0.1454936392
0.1454409587
0.1453866607
0.1453306455
0.1452728192
0.1452130943
0.1451513883
0.145087624
0.1450217286
0.1449536333
0.1448832726
0.144810584
0.144735507
0.1446579834
0.144577956
0.1444953688
0.1444101666
0.1443222943
0.1442316973
0.1441383207
0.1440421096
0.1439430089
0.143840963
0.1437359163
0.1436278128
0.1435165962
0.1434022104
0.1432845991
0.1431637065
0.1430394773
0.1429118567
0.1427807912
0.142646229
0.14250812
0.1423664169
0.1422210756
0.1420720562
0.1419193241
0.1417628512
0.1416026177
0.1414386139
0.1412708427
0.1410993226
0.1409240911
0.1407452096
0.1405627678
0.1403768905
0.1401877437
0.1399955425
0.1398005582
0.1396031243
0.1394036345
0.1392024585
0.1389986617
0.1387701232
0.1381426558
0.1322268222
0.1009890402
0.04023444272
0.01820669291
0.01820011021
0.01820005644
0.01820005639
0.01820005639
0.01820005639
0.01820005639
0.01820005639
0.01820005639
0.01820005639
0.01820005639
0.01820005639
0.01820005639
0.01820005638
0.01820005638
0.01820005638
0.01820005638
0.01820005638
0.01820005638
0.01820005638
0.01820005638
0.01820005638
0.01820005638
0.01820005638
0.01820005638
0.01820005638
0.01820005638
0.01820005638
0.01820005638
0.01820005638
0.01820005637
0.01820005637
0.01820005637
0.01820005637
0.01820005637
0.01820005637
0.01820005637
0.01820005637
0.01820005637
0.01820005637
0.01820005637
0.01820005636
0.01820005636
0.01820005636
0.01820005636
0.01820005636
0.01820005636
0.01820005636
0.01820005636
0.01820005636
0.01820005635
0.01820005635
0.01820005635
0.01820005635
0.01820005635
0.01820005635
0.01820005635
0.01820005634
0.01820005634
0.01820005634
0.01820005634
0.01820005634
0.01820005634
0.01820005634
0.01820005633
0.01820005633
0.01820005633
0.01820005633
0.01820005633
0.01820005633
0.01820005632
0.01820005632
0.01820005632
0.01820005632
0.01820005632
0.01820005631
0.01820005631
0.01820005631
0.01820005631
0.01820005631
0.01820005631
0.0182000563
0.0182000563
0.0182000563
0.0182000563
0.0182000563
0.01820005629
0.01820005629
0.01820005629
0.01820005629
0.01820005629
0.01820005629
0.01820005628
0.01820005628
0.01820005628
0.01820005628
0.01820005628
0.01820005628
0.01820005627
0.01820005627
0.01820005627
0.01820005627
0.01820005627
0.01820005627
0.01820005626
0.01820005626
0.01820005626
0.01820005626
0.01820005626
0.01820005626
0.1471654077
0.1469037162
0.1468549577
0.146810024
0.1467646292
0.1467187622
0.1466725956
0.1466262944
0.1465800063
0.1465338578
0.1464879534
0.1464423742
0.1463971766
0.1463523931
0.1463080316
0.1462640772
0.1462204928
0.1461772207
0.1461341853
0.1460912944
0.1460484422
0.1460055114
0.1459623758
0.1459189031
0.1458749562
0.1458303967
0.1457850856
0.1457388856
0.1456916628
0.1456432872
0.145593634
0.1455425842
0.145490025
0.14543585
0.1453799592
0.1453222585
0.1452626602
0.1452010817
0.1451374456
0.1450716788
0.1450037124
0.1449334808
0.1448609209
0.1447859725
0.1447085767
0.1446286762
0.1445462147
0.1444611365
0.1443733864
0.1442829091
0.1441896494
0.1440935517
0.1439945602
0.1438926189
0.1437876712
0.14367966
0.1435685283
0.1434542185
0.1433366731
0.1432158345
0.1430916454
0.1429640489
0.142832989
0.1426984104
0.1425602595
0.1424184845
0.1422730358
0.1421238671
0.1419709357
0.1418142037
0.141653639
0.1414892167
0.1413209206
0.1411487448
0.1409726961
0.1407927961
0.1406090837
0.1404216178
0.1402304795
0.1400357736
0.1398376299
0.1396362002
0.1394316482
0.1392240581
0.1390121632
0.1387736957
0.1381386252
0.1322676366
0.1012035119
0.04050823879
0.01820675893
0.01820011064
0.01820005644
0.01820005638
0.01820005638
0.01820005638
0.01820005638
0.01820005638
0.01820005638
0.01820005638
0.01820005638
0.01820005637
0.01820005637
0.01820005637
0.01820005637
0.01820005637
0.01820005637
0.01820005637
0.01820005637
0.01820005637
0.01820005637
0.01820005637
0.01820005637
0.01820005637
0.01820005636
0.01820005636
0.01820005636
0.01820005636
0.01820005636
0.01820005636
0.01820005636
0.01820005636
0.01820005636
0.01820005636
0.01820005636
0.01820005635
0.01820005635
0.01820005635
0.01820005635
0.01820005635
0.01820005635
0.01820005635
0.01820005635
0.01820005635
0.01820005634
0.01820005634
0.01820005634
0.01820005634
0.01820005634
0.01820005634
0.01820005634
0.01820005633
0.01820005633
0.01820005633
0.01820005633
0.01820005633
0.01820005633
0.01820005633
0.01820005633
0.01820005632
0.01820005632
0.01820005632
0.01820005632
0.01820005632
0.01820005632
0.01820005632
0.01820005631
0.01820005631
0.01820005631
0.01820005631
0.01820005631
0.01820005631
0.01820005631
0.0182000563
0.0182000563
0.0182000563
0.0182000563
0.0182000563
0.0182000563
0.01820005629
0.01820005629
0.01820005629
0.01820005629
0.01820005629
0.01820005629
0.01820005629
0.01820005629
0.01820005628
0.01820005628
0.01820005628
0.01820005628
0.01820005628
0.01820005628
0.01820005628
0.01820005627
0.01820005627
0.01820005627
0.01820005627
0.01820005627
0.01820005627
0.01820005627
0.01820005627
0.01820005626
0.01820005626
0.01820005626
0.01820005626
0.01820005626
0.01820005626
0.01820005626
0.01820005626
0.1472012735
0.1469396395
0.1468908844
0.1468459522
0.1468005589
0.1467546943
0.1467085318
0.1466622375
0.1466159593
0.1465698247
0.1465239385
0.1464783819
0.146433212
0.146388461
0.1463441371
0.1463002253
0.1462566884
0.1462134687
0.1461704902
0.1461276607
0.1460848741
0.1460420129
0.1459989508
0.1459555549
0.1459116884
0.1458672121
0.145821987
0.1457758758
0.145728744
0.1456804615
0.1456309034
0.1455799505
0.1455274897
0.1454734144
0.1454176244
0.1453600256
0.1453005298
0.1452390545
0.1451755219
0.1451098588
0.145041996
0.1449718677
0.1448994106
0.1448245641
0.1447472692
0.1446674681
0.1445851043
0.1445001217
0.1444124645
0.144322077
0.1442289034
0.1441328877
0.1440339733
0.1439321033
0.1438272204
0.1437192664
0.1436081832
0.1434939118
0.1433763932
0.1432555682
0.1431313773
0.1430037613
0.1428726613
0.142738019
0.1425997768
0.1424578783
0.1423122686
0.1421628947
0.1420097062
0.1418526556
0.1416916994
0.1415267985
0.1413579193
0.1411850345
0.1410081246
0.1408271782
0.1406421936
0.1404531792
0.1402601533
0.140063144
0.1398621869
0.1396573206
0.1394485745
0.1392358797
0.1390178157
0.1387722159
0.1381338299
0.1323164276
0.1014391543
0.04080261316
0.01820682967
0.0182001111
0.01820005643
0.01820005637
0.01820005637
0.01820005637
0.01820005637
0.01820005636
0.01820005636
0.01820005636
0.01820005636
0.01820005636
0.01820005636
0.01820005636
0.01820005636
0.01820005636
0.01820005636
0.01820005636
0.01820005636
0.01820005636
0.01820005635
0.01820005635
0.01820005635
0.01820005635
0.01820005635
0.01820005635
0.01820005635
0.01820005635
0.01820005635
0.01820005635
0.01820005634
0.01820005634
0.01820005634
0.01820005634
0.01820005634
0.01820005634
0.01820005634
0.01820005634
0.01820005634
0.01820005633
0.01820005633
0.01820005633
0.01820005633
0.01820005633
0.01820005633
0.01820005633
0.01820005633
0.01820005633
0.01820005632
0.01820005632
0.01820005632
0.01820005632
0.01820005632
0.01820005632
0.01820005632
0.01820005632
0.01820005631
0.01820005631
0.01820005631
0.01820005631
0.01820005631
0.01820005631
0.01820005631
0.01820005631
0.0182000563
0.0182000563
0.0182000563
0.0182000563
0.0182000563
0.0182000563
0.0182000563
0.0182000563
0.01820005629
0.01820005629
0.01820005629
0.01820005629
0.01820005629
0.01820005629
0.01820005629
0.01820005629
0.01820005629
0.01820005628
0.01820005628
0.01820005628
0.01820005628
0.01820005628
0.01820005628
0.01820005628
0.01820005628
0.01820005628
0.01820005627
0.01820005627
0.01820005627
0.01820005627
0.01820005627
0.01820005627
0.01820005627
0.01820005627
0.01820005627
0.01820005627
0.01820005626
0.01820005626
0.01820005626
0.01820005626
0.01820005626
0.01820005626
0.01820005626
0.01820005626
0.01820005626
0.01820005626
0.1472293324
0.1469677846
0.1469190389
0.1468741147
0.1468287301
0.1467828755
0.1467367245
0.1466904436
0.1466441813
0.1465980652
0.1465522006
0.146506669
0.1464615273
0.1464168082
0.1463725199
0.1463286473
0.1462851532
0.14624198
0.1461990515
0.1461562755
0.1461135457
0.1460707446
0.1460277456
0.1459844157
0.1459406179
0.1458962129
0.1458510616
0.1458050264
0.1457579727
0.1457097702
0.1456602938
0.145609424
0.1455570478
0.1455030583
0.145447355
0.1453898437
0.1453304361
0.1452690493
0.1452056054
0.145140031
0.1450722567
0.1450022162
0.1449298463
0.1448550859
0.1447778756
0.1446981574
0.1446158744
0.14453097
0.1444433881
0.1443530723
0.1442599664
0.1441640137
0.1440651568
0.1439633381
0.1438584991
0.1437505811
0.1436395243
0.1435252686
0.1434077535
0.1432869179
0.1431627003
0.1430350392
0.1429038729
0.1427691398
0.1426307788
0.1424887289
0.1423429302
0.1421933236
0.1420398514
0.1418824576
0.1417210885
0.1415556925
0.1413862214
0.1412126303
0.1410348781
0.1408529281
0.1406667477
0.1404763083
0.1402815849
0.1400825541
0.1398791918
0.1396714689
0.1394593401
0.1392426576
0.1390199403
0.1387692469
0.1381305088
0.1323728758
0.1016929128
0.041115638
0.01820690443
0.01820011159
0.01820005641
0.01820005636
0.01820005636
0.01820005635
0.01820005635
0.01820005635
0.01820005635
0.01820005635
0.01820005635
0.01820005635
0.01820005635
0.01820005635
0.01820005635
0.01820005635
0.01820005634
0.01820005634
0.01820005634
0.01820005634
0.01820005634
0.01820005634
0.01820005634
0.01820005634
0.01820005634
0.01820005634
0.01820005634
0.01820005633
0.01820005633
0.01820005633
0.01820005633
0.01820005633
0.01820005633
0.01820005633
0.01820005633
0.01820005633
0.01820005633
0.01820005632
0.01820005632
0.01820005632
0.01820005632
0.01820005632
0.01820005632
0.01820005632
0.01820005632
0.01820005632
0.01820005631
0.01820005631
0.01820005631
0.01820005631
0.01820005631
0.01820005631
0.01820005631
0.01820005631
0.01820005631
0.01820005631
0.0182000563
0.0182000563
0.0182000563
0.0182000563
0.0182000563
0.0182000563
0.0182000563
0.0182000563
0.0182000563
0.01820005629
0.01820005629
0.01820005629
0.01820005629
0.01820005629
0.01820005629
0.01820005629
0.01820005629
0.01820005629
0.01820005629
0.01820005629
0.01820005628
0.01820005628
0.01820005628
0.01820005628
0.01820005628
0.01820005628
0.01820005628
0.01820005628
0.01820005628
0.01820005628
0.01820005628
0.01820005627
0.01820005627
0.01820005627
0.01820005627
0.01820005627
0.01820005627
0.01820005627
0.01820005627
0.01820005627
0.01820005627
0.01820005627
0.01820005626
0.01820005626
0.01820005626
0.01820005626
0.01820005626
0.01820005626
0.01820005626
0.01820005626
0.01820005626
0.01820005626
0.01820005626
0.01820005626
0.1472515907
0.1469901572
0.1469414248
0.1468965128
0.1468511416
0.1468053017
0.146759167
0.1467129042
0.1466666619
0.1466205681
0.146574728
0.1465292234
0.1464841113
0.1464394245
0.1463951713
0.1463513365
0.1463078832
0.1462647535
0.1462218714
0.1461791446
0.1461364667
0.14609372
0.1460507781
0.1460075079
0.145963772
0.1459194313
0.1458743464
0.1458283795
0.1457813961
0.1457332655
0.1456838627
0.1456330679
0.145580768
0.1455268558
0.1454712307
0.1454137984
0.1453544703
0.1452931633
0.1452297993
0.1451643047
0.1450966098
0.1450266481
0.1449543561
0.1448796723
0.1448025372
0.1447228923
0.1446406802
0.1445558441
0.1444683272
0.1443780728
0.1442850239
0.1441891232
0.1440903127
0.1439885339
0.1438837274
0.1437758334
0.1436647911
0.143550539
0.1434330151
0.1433121564
0.1431878997
0.1430601811
0.1429289364
0.142794101
0.1426556102
0.1425133992
0.1423674033
0.142217558
0.1420637995
0.1419060642
0.1417442895
0.1415784141
0.1414083775
0.1412341209
0.1410555868
0.140872719
0.1406854627
0.1404937636
0.1402975668
0.1400968159
0.1398914497
0.1396813994
0.1394665784
0.1392467999
0.1390205666
0.1387662245
0.1381291815
0.132436051
0.1019629563
0.04144676597
0.01820698295
0.01820011209
0.0182000564
0.01820005634
0.01820005634
0.01820005634
0.01820005634
0.01820005634
0.01820005634
0.01820005634
0.01820005634
0.01820005634
0.01820005634
0.01820005634
0.01820005633
0.01820005633
0.01820005633
0.01820005633
0.01820005633
0.01820005633
0.01820005633
0.01820005633
0.01820005633
0.01820005633
0.01820005633
0.01820005632
0.01820005632
0.01820005632
0.01820005632
0.01820005632
0.01820005632
0.01820005632
0.01820005632
0.01820005632
0.01820005632
0.01820005632
0.01820005631
0.01820005631
0.01820005631
0.01820005631
0.01820005631
0.01820005631
0.01820005631
0.01820005631
0.01820005631
0.01820005631
0.01820005631
0.0182000563
0.0182000563
0.0182000563
0.0182000563
0.0182000563
0.0182000563
0.0182000563
0.0182000563
0.0182000563
0.0182000563
0.0182000563
0.01820005629
0.01820005629
0.01820005629
0.01820005629
0.01820005629
0.01820005629
0.01820005629
0.01820005629
0.01820005629
0.01820005629
0.01820005629
0.01820005629
0.01820005628
0.01820005628
0.01820005628
0.01820005628
0.01820005628
0.01820005628
0.01820005628
0.01820005628
0.01820005628
0.01820005628
0.01820005628
0.01820005628
0.01820005628
0.01820005627
0.01820005627
0.01820005627
0.01820005627
0.01820005627
0.01820005627
0.01820005627
0.01820005627
0.01820005627
0.01820005627
0.01820005627
0.01820005627
0.01820005627
0.01820005627
0.01820005626
0.01820005626
0.01820005626
0.01820005626
0.01820005626
0.01820005626
0.01820005626
0.01820005626
0.01820005626
0.01820005626
0.01820005626
0.01820005626
0.01820005626
0.1472692861
0.1470079952
0.1469592791
0.1469143822
0.1468690275
0.1468232059
0.1467770911
0.1467308499
0.146684631
0.1466385624
0.1465927495
0.146547274
0.1465021932
0.1464575398
0.1464133222
0.1463695253
0.1463261121
0.1462830248
0.1462401875
0.1461975078
0.1461548792
0.1461121843
0.1460692963
0.1460260821
0.1459824045
0.145938124
0.1458931013
0.1458471986
0.145800281
0.145752218
0.1457028841
0.1456521598
0.1455999314
0.1455460919
0.1454905404
0.1454331824
0.145373929
0.1453126971
0.1452494084
0.1451839889
0.1451163687
0.1450464811
0.1449742622
0.1448996504
0.1448225856
0.1447430091
0.1446608632
0.1445760905
0.1444886338
0.1443984358
0.1443054391
0.1442095856
0.1441108167
0.1440090731
0.1439042945
0.1437964201
0.1436853879
0.1435711353
0.1434535987
0.1433327138
0.1432084153
0.1430806373
0.1429493133
0.1428143761
0.1426757577
0.1425333898
0.1423872039
0.1422371306
0.1420831008
0.1419250447
0.1417628929
0.1415965754
0.1414260228
0.1412511651
0.1410719326
0.140888255
0.1407000615
0.1405072797
0.1403098351
0.1401076494
0.1399006387
0.1396887101
0.1394717542
0.1392495641
0.1390206466
0.1387636676
0.1381297539
0.1325050255
0.1022481867
0.04179602683
0.01820706512
0.01820011262
0.01820005639
0.01820005633
0.01820005633
0.01820005633
0.01820005633
0.01820005633
0.01820005633
0.01820005633
0.01820005633
0.01820005633
0.01820005633
0.01820005633
0.01820005632
0.01820005632
0.01820005632
0.01820005632
0.01820005632
0.01820005632
0.01820005632
0.01820005632
0.01820005632
0.01820005632
0.01820005632
0.01820005632
0.01820005631
0.01820005631
0.01820005631
0.01820005631
0.01820005631
0.01820005631
0.01820005631
0.01820005631
0.01820005631
0.01820005631
0.01820005631
0.01820005631
0.0182000563
0.0182000563
0.0182000563
0.0182000563
0.0182000563
0.0182000563
0.0182000563
0.0182000563
0.0182000563
0.0182000563
0.0182000563
0.0182000563
0.0182000563
0.01820005629
0.01820005629
0.01820005629
0.01820005629
0.01820005629
0.01820005629
0.01820005629
0.01820005629
0.01820005629
0.01820005629
0.01820005629
0.01820005629
0.01820005629
0.01820005629
0.01820005628
0.01820005628
0.01820005628
0.01820005628
0.01820005628
0.01820005628
0.01820005628
0.01820005628
0.01820005628
0.01820005628
0.01820005628
0.01820005628
0.01820005628
0.01820005628
0.01820005627
0.01820005627
0.01820005627
0.01820005627
0.01820005627
0.01820005627
0.01820005627
0.01820005627
0.01820005627
0.01820005627
0.01820005627
0.01820005627
0.01820005627
0.01820005627
0.01820005627
0.01820005627
0.01820005626
0.01820005626
0.01820005626
0.01820005626
0.01820005626
0.01820005626
0.01820005626
0.01820005626
0.01820005626
0.01820005626
0.01820005626
0.01820005626
0.01820005626
0.01820005626
0.01820005626
0.147283238
0.1470221183
0.1469734211
0.1469285416
0.1468832061
0.1468374055
0.1467913135
0.1467450968
0.1466989042
0.1466528636
0.1466070803
0.1465616362
0.1465165886
0.1464719701
0.1464277893
0.1463840311
0.1463406585
0.1462976139
0.1462548211
0.1462121879
0.146169608
0.1461269637
0.1460841283
0.1460409688
0.1459973478
0.1459531259
0.1459081636
0.1458623231
0.1458154694
0.145767472
0.1457182052
0.1456675492
0.1456153905
0.1455616217
0.145506142
0.1454488564
0.1453896761
0.1453285176
0.1452653024
0.1451999565
0.1451324095
0.1450625946
0.1449904476
0.1449159064
0.1448389109
0.1447594019
0.1446773212
0.1445926111
0.1445052139
0.144415072
0.1443221272
0.1442263209
0.1441275938
0.1440258858
0.143921136
0.1438132824
0.1437022622
0.1435880115
0.1434704655
0.1433495583
0.1432252232
0.1430973923
0.142965997
0.1428309677
0.1426922339
0.1425497243
0.1424033667
0.142253088
0.1420988146
0.1419404719
0.1417779844
0.1416112761
0.1414402699
0.1412648879
0.1410850509
0.1409006784
0.1407116879
0.1405179948
0.1403195107
0.140116143
0.1399077925
0.1396943518
0.139475697
0.1392516104
0.1390206118
0.1387617067
0.1381319539
0.13257903
0.1025479165
0.04216366637
0.0182071509
0.01820011317
0.01820005638
0.01820005632
0.01820005632
0.01820005632
0.01820005632
0.01820005632
0.01820005632
0.01820005632
0.01820005632
0.01820005632
0.01820005632
0.01820005632
0.01820005632
0.01820005632
0.01820005631
0.01820005631
0.01820005631
0.01820005631
0.01820005631
0.01820005631
0.01820005631
0.01820005631
0.01820005631
0.01820005631
0.01820005631
0.01820005631
0.01820005631
0.01820005631
0.0182000563
0.0182000563
0.0182000563
0.0182000563
0.0182000563
0.0182000563
0.0182000563
0.0182000563
0.0182000563
0.0182000563
0.0182000563
0.0182000563
0.0182000563
0.0182000563
0.01820005629
0.01820005629
0.01820005629
0.01820005629
0.01820005629
0.01820005629
0.01820005629
0.01820005629
0.01820005629
0.01820005629
0.01820005629
0.01820005629
0.01820005629
0.01820005629
0.01820005629
0.01820005628
0.01820005628
0.01820005628
0.01820005628
0.01820005628
0.01820005628
0.01820005628
0.01820005628
0.01820005628
0.01820005628
0.01820005628
0.01820005628
0.01820005628
0.01820005628
0.01820005628
0.01820005628
0.01820005628
0.01820005627
0.01820005627
0.01820005627
0.01820005627
0.01820005627
0.01820005627
0.01820005627
0.01820005627
0.01820005627
0.01820005627
0.01820005627
0.01820005627
0.01820005627
0.01820005627
0.01820005627
0.01820005627
0.01820005627
0.01820005626
0.01820005626
0.01820005626
0.01820005626
0.01820005626
0.01820005626
0.01820005626
0.01820005626
0.01820005626
0.01820005626
0.01820005626
0.01820005626
0.01820005626
0.01820005626
0.01820005626
0.01820005626
0.01820005626
0.1472940189
0.147033099
0.146984423
0.146939563
0.1468942489
0.1468484717
0.1468024051
0.1467562157
0.1467100519
0.1466640418
0.1466182907
0.1465728803
0.146527868
0.1464832864
0.1464391441
0.1463954261
0.1463520954
0.1463090943
0.146266347
0.146223761
0.1461812302
0.1461386368
0.1460958543
0.1460527495
0.1460091852
0.1459650218
0.1459201199
0.1458743415
0.1458275517
0.1457796198
0.14573042
0.1456798326
0.1456277437
0.1455740459
0.1455186382
0.1454614255
0.1454023189
0.1453412345
0.1452780937
0.1452128222
0.1451453496
0.1450756086
0.1450035349
0.1449290661
0.1448521416
0.144772702
0.1446906889
0.1446060439
0.1445187091
0.1444286263
0.1443357368
0.1442399815
0.1441413005
0.144039633
0.1439349173
0.1438270906
0.1437160892
0.1436018481
0.1434843013
0.1433633818
0.1432390213
0.1431111503
0.1429796985
0.1428445942
0.1427057647
0.142563136
0.1424166331
0.1422661799
0.1421116989
0.1419531115
0.1417903378
0.1416232966
0.1414519053
0.1412760794
0.141095733
0.1409107777
0.1407211227
0.140526674
0.1403273337
0.1401229988
0.1399135597
0.1396988984
0.1394788817
0.1392532849
0.1390206446
0.1387603203
0.1381354969
0.1326574629
0.1028616787
0.04254999079
0.01820724027
0.01820011375
0.01820005638
0.01820005632
0.01820005632
0.01820005632
0.01820005631
0.01820005631
0.01820005631
0.01820005631
0.01820005631
0.01820005631
0.01820005631
0.01820005631
0.01820005631
0.01820005631
0.01820005631
0.01820005631
0.01820005631
0.01820005631
0.01820005631
0.0182000563
0.0182000563
0.0182000563
0.0182000563
0.0182000563
0.0182000563
0.0182000563
0.0182000563
0.0182000563
0.0182000563
0.0182000563
0.0182000563
0.0182000563
0.0182000563
0.0182000563
0.0182000563
0.01820005629
0.01820005629
0.01820005629
0.01820005629
0.01820005629
0.01820005629
0.01820005629
0.01820005629
0.01820005629
0.01820005629
0.01820005629
0.01820005629
0.01820005629
0.01820005629
0.01820005629
0.01820005629
0.01820005629
0.01820005628
0.01820005628
0.01820005628
0.01820005628
0.01820005628
0.01820005628
0.01820005628
0.01820005628
0.01820005628
0.01820005628
0.01820005628
0.01820005628
0.01820005628
0.01820005628
0.01820005628
0.01820005628
0.01820005628
0.01820005628
0.01820005627
0.01820005627
0.01820005627
0.01820005627
0.01820005627
0.01820005627
0.01820005627
0.01820005627
0.01820005627
0.01820005627
0.01820005627