/*--------------------------------*- C++ -*----------------------------------*\
| =========                 |                                                 |
| \\      /  F ield         | OpenFOAM: The Open Source CFD Toolbox           |
|  \\    /   O peration     | Version:  v1706                                 |
|   \\  /    A nd           | Web:      www.OpenFOAM.com                      |
|    \\/     M anipulation  |                                                 |
\*---------------------------------------------------------------------------*/
FoamFile
{
    version     2.0;
    format      ascii;
    class       volScalarField;
    location    "0.0014";
    object      Tt;
}
// * * * * * * * * * * * * * * * * * * * * * * * * * * * * * * * * * * * * * //

dimensions      [0 0 0 1 0 0 0];


internalField   nonuniform List<scalar> 
80000
(
11855.62437
11853.64884
11856.69167
11859.73972
11862.70943
11865.58
11868.33465
11870.95806
11873.4364
11875.75748
11877.91087
11879.88797
11881.6821
11883.28848
11884.70422
11885.92825
11886.96123
11887.80538
11888.46435
11888.94305
11889.24741
11889.38423
11889.36094
11889.18541
11888.86578
11888.41026
11887.82698
11887.12383
11886.30839
11885.38779
11884.36864
11883.25698
11882.05827
11880.77734
11879.41839
11877.98504
11876.4803
11874.90666
11873.26608
11871.56006
11869.78966
11867.95557
11866.05816
11864.09749
11862.07336
11859.98537
11857.83293
11855.61528
11853.33154
11850.98071
11848.56172
11846.07339
11843.51448
11840.8837
11838.1797
11835.40109
11832.54644
11829.61426
11826.60306
11823.51129
11820.33739
11817.07977
11813.73683
11810.30697
11806.78858
11803.18008
11799.47993
11795.68664
11791.79882
11787.81519
11783.73466
11779.55637
11775.27978
11770.90477
11766.43183
11761.86225
11757.19848
11752.44458
11747.607
11742.69568
11737.72587
11732.72096
11727.71677
11722.7666
11717.92464
11712.84751
11699.47077
11559.61574
10679.73102
6745.674995
257.2342268
250.0015853
250.0000014
250.0000008
250.0000008
250.0000008
250.0000008
250.0000008
250.0000008
250.0000008
250.0000008
250.0000008
250.0000008
250.0000008
250.0000008
250.0000008
250.0000008
250.0000008
250.0000008
250.0000008
250.0000008
250.0000008
250.0000008
250.0000008
250.0000008
250.0000008
250.0000008
250.0000008
250.0000008
250.0000008
250.0000008
250.0000008
250.0000008
250.0000008
250.0000008
250.0000008
250.0000008
250.0000008
250.0000008
250.0000008
250.0000008
250.0000008
250.0000008
250.0000008
250.0000008
250.0000008
250.0000008
250.0000008
250.0000008
250.0000008
250.0000008
250.0000008
250.0000008
250.0000008
250.0000008
250.0000008
250.0000008
250.0000008
250.0000008
250.0000008
250.0000008
250.0000008
250.0000008
250.0000008
250.0000008
250.0000008
250.0000008
250.0000008
250.0000008
250.0000008
250.0000008
250.0000008
250.0000008
250.0000008
250.0000008
250.0000008
250.0000008
250.0000008
250.0000008
250.0000008
250.0000008
250.0000008
250.0000008
250.0000008
250.0000008
250.0000008
250.0000007
250.0000007
250.0000007
250.0000007
250.0000007
250.0000007
250.0000007
250.0000006
250.0000006
250.0000006
250.0000006
250.0000005
250.0000005
250.0000005
250.0000004
250.0000004
250.0000004
250.0000003
250.0000003
250.0000003
250.0000002
250.0000002
250.0000001
250.0000001
11861.73721
11859.75884
11862.79576
11865.83734
11868.80106
11871.66671
11874.41781
11877.03917
11879.51699
11881.83905
11883.99487
11885.97578
11887.77501
11889.3877
11890.81087
11892.04335
11893.08571
11893.94009
11894.61006
11895.10044
11895.4171
11895.56675
11895.55678
11895.395
11895.08951
11894.64846
11894.07996
11893.39187
11892.59175
11891.6867
11890.68332
11889.58765
11888.40514
11887.14061
11885.79826
11884.38172
11882.894
11881.33758
11879.71444
11878.02607
11876.27356
11874.45758
11872.57852
11870.63642
11868.63111
11866.56218
11864.42904
11862.23094
11859.967
11857.63622
11855.2375
11852.76969
11850.23155
11847.62176
11844.93899
11842.18183
11839.34884
11836.43853
11833.4494
11830.37988
11827.22841
11823.99337
11820.67315
11817.26613
11813.77066
11810.18515
11806.508
11802.73768
11798.87274
11794.91184
11790.85378
11786.69758
11782.44253
11778.0883
11773.63504
11769.0836
11764.43568
11759.69421
11754.86374
11749.95101
11744.96567
11739.92127
11734.83629
11729.73382
11724.61722
11719.06504
11704.95011
11564.63449
10686.98934
6769.980862
257.2785034
250.0015948
250.0000014
250.0000008
250.0000008
250.0000008
250.0000008
250.0000008
250.0000008
250.0000008
250.0000008
250.0000008
250.0000008
250.0000008
250.0000008
250.0000008
250.0000008
250.0000008
250.0000008
250.0000008
250.0000008
250.0000008
250.0000008
250.0000008
250.0000008
250.0000008
250.0000008
250.0000008
250.0000008
250.0000008
250.0000008
250.0000008
250.0000008
250.0000008
250.0000008
250.0000008
250.0000008
250.0000008
250.0000008
250.0000008
250.0000008
250.0000008
250.0000008
250.0000008
250.0000008
250.0000008
250.0000008
250.0000008
250.0000008
250.0000008
250.0000008
250.0000008
250.0000007
250.0000007
250.0000007
250.0000007
250.0000007
250.0000007
250.0000007
250.0000007
250.0000007
250.0000007
250.0000007
250.0000007
250.0000007
250.0000007
250.0000007
250.0000007
250.0000007
250.0000007
250.0000007
250.0000006
250.0000006
250.0000006
250.0000006
250.0000006
250.0000006
250.0000006
250.0000006
250.0000006
250.0000005
250.0000005
250.0000005
250.0000005
250.0000005
250.0000005
250.0000005
250.0000004
250.0000004
250.0000004
250.0000004
250.0000004
250.0000004
250.0000003
250.0000003
250.0000003
250.0000003
250.0000003
250.0000002
250.0000002
250.0000002
250.0000002
250.0000002
250.0000001
250.0000001
250.0000001
250.0000001
250.0000001
250
250
11864.19051
11862.21115
11865.24611
11868.28589
11871.24801
11874.11233
11876.86248
11879.48332
11881.96109
11884.28359
11886.44034
11888.42266
11890.22377
11891.83878
11893.26469
11894.50031
11895.54617
11896.40439
11897.07851
11897.57332
11897.89466
11898.04924
11898.04439
11897.88794
11897.58794
11897.15254
11896.58983
11895.90767
11895.1136
11894.21471
11893.2176
11892.12831
11890.95227
11889.69432
11888.35865
11886.94889
11885.46805
11883.91862
11882.30257
11880.6214
11878.87619
11877.06764
11875.19611
11873.26167
11871.26414
11869.20311
11867.078
11864.88805
11862.63239
11860.31003
11857.91986
11855.46074
11852.93141
11850.33058
11847.65691
11844.90898
11842.08536
11839.18457
11836.20508
11833.14536
11830.00381
11826.77884
11823.46883
11820.07213
11816.58712
11813.01218
11809.3457
11805.58613
11801.732
11797.78193
11793.73466
11789.58913
11785.34451
11781.0003
11776.55641
11772.01328
11767.37204
11762.63475
11757.80465
11752.88646
11747.88688
11742.8151
11737.68337
11732.50631
11727.27681
11721.56542
11707.30813
11567.79172
10694.83317
6802.157545
257.3378797
250.0016074
250.0000014
250.0000008
250.0000008
250.0000008
250.0000008
250.0000008
250.0000008
250.0000008
250.0000008
250.0000008
250.0000008
250.0000008
250.0000008
250.0000008
250.0000008
250.0000008
250.0000008
250.0000008
250.0000008
250.0000008
250.0000007
250.0000007
250.0000007
250.0000007
250.0000007
250.0000007
250.0000007
250.0000007
250.0000007
250.0000007
250.0000007
250.0000007
250.0000007
250.0000007
250.0000007
250.0000007
250.0000007
250.0000007
250.0000007
250.0000007
250.0000007
250.0000007
250.0000007
250.0000007
250.0000007
250.0000007
250.0000007
250.0000007
250.0000007
250.0000006
250.0000006
250.0000006
250.0000006
250.0000006
250.0000006
250.0000006
250.0000006
250.0000006
250.0000006
250.0000006
250.0000006
250.0000006
250.0000006
250.0000005
250.0000005
250.0000005
250.0000005
250.0000005
250.0000005
250.0000005
250.0000005
250.0000005
250.0000005
250.0000004
250.0000004
250.0000004
250.0000004
250.0000004
250.0000004
250.0000004
250.0000004
250.0000003
250.0000003
250.0000003
250.0000003
250.0000003
250.0000003
250.0000003
250.0000003
250.0000002
250.0000002
250.0000002
250.0000002
250.0000002
250.0000002
250.0000002
250.0000001
250.0000001
250.0000001
250.0000001
250.0000001
250.0000001
250.0000001
250.0000001
250
250
250
250
11865.71149
11863.73246
11866.76633
11869.80519
11872.76653
11875.63024
11878.37995
11881.00057
11883.47835
11885.8011
11887.95836
11889.94144
11891.74356
11893.35983
11894.78724
11896.02458
11897.07239
11897.93276
11898.60922
11899.10654
11899.43057
11899.58797
11899.5861
11899.43275
11899.13597
11898.7039
11898.14463
11897.466
11896.67554
11895.78036
11894.78704
11893.70162
11892.52953
11891.2756
11889.94405
11888.53847
11887.0619
11885.51683
11883.90521
11882.22857
11880.48798
11878.68414
11876.81741
11874.88788
11872.89536
11870.83944
11868.71955
11866.53494
11864.28472
11861.96792
11859.58345
11857.13013
11854.60674
11852.01198
11849.3445
11846.60292
11843.78578
11840.89162
11837.91891
11834.86612
11831.73167
11828.51396
11825.21136
11821.82225
11818.345
11814.77798
11811.11958
11807.36826
11803.52251
11799.58092
11795.54221
11791.40524
11787.1691
11782.83315
11778.39708
11773.86105
11769.22577
11764.4927
11759.6642
11754.74379
11749.7365
11744.64919
11739.49102
11734.27249
11728.98119
11723.18443
11708.89452
11570.47781
10703.04292
6838.227755
257.4049737
250.0016217
250.0000013
250.0000007
250.0000007
250.0000007
250.0000007
250.0000007
250.0000007
250.0000007
250.0000007
250.0000007
250.0000007
250.0000007
250.0000007
250.0000007
250.0000007
250.0000007
250.0000007
250.0000007
250.0000007
250.0000007
250.0000007
250.0000007
250.0000007
250.0000007
250.0000007
250.0000007
250.0000007
250.0000007
250.0000007
250.0000007
250.0000006
250.0000006
250.0000006
250.0000006
250.0000006
250.0000006
250.0000006
250.0000006
250.0000006
250.0000006
250.0000006
250.0000006
250.0000006
250.0000006
250.0000006
250.0000006
250.0000006
250.0000006
250.0000005
250.0000005
250.0000005
250.0000005
250.0000005
250.0000005
250.0000005
250.0000005
250.0000005
250.0000005
250.0000005
250.0000005
250.0000004
250.0000004
250.0000004
250.0000004
250.0000004
250.0000004
250.0000004
250.0000004
250.0000004
250.0000004
250.0000004
250.0000003
250.0000003
250.0000003
250.0000003
250.0000003
250.0000003
250.0000003
250.0000003
250.0000003
250.0000003
250.0000002
250.0000002
250.0000002
250.0000002
250.0000002
250.0000002
250.0000002
250.0000002
250.0000002
250.0000002
250.0000001
250.0000001
250.0000001
250.0000001
250.0000001
250.0000001
250.0000001
250.0000001
250.0000001
250.0000001
250.0000001
250.0000001
250
250
250
250
250
11866.78803
11864.81002
11867.84317
11870.88142
11873.84224
11876.70556
11879.45499
11882.07545
11884.55321
11886.87609
11889.03362
11891.01713
11892.81984
11894.43686
11895.86517
11897.10357
11898.15258
11899.01429
11899.69222
11900.19114
11900.51688
11900.67611
11900.67618
11900.52486
11900.2302
11899.80035
11899.24337
11898.56711
11897.77911
11896.88645
11895.89572
11894.81297
11893.64362
11892.3925
11891.06382
11889.66119
11888.18765
11886.64568
11885.03725
11883.36387
11881.62663
11879.82623
11877.96305
11876.03715
11874.04835
11871.99627
11869.88032
11867.69976
11865.45372
11863.1412
11860.76114
11858.31236
11855.79364
11853.2037
11850.54117
11847.80469
11844.99281
11842.10406
11839.13694
11836.08991
11832.96139
11829.7498
11826.45352
11823.07092
11819.60038
11816.04027
11812.389
11808.64499
11804.80673
11800.8728
11796.84186
11792.71274
11788.48443
11784.15617
11779.72749
11775.1983
11770.56897
11765.84047
11761.01448
11756.0936
11751.08154
11745.98334
11740.80559
11735.55509
11730.21425
11724.34702
11710.05148
11572.88093
10711.47923
6876.733936
257.4770025
250.0016371
250.0000013
250.0000007
250.0000007
250.0000007
250.0000007
250.0000007
250.0000007
250.0000007
250.0000007
250.0000007
250.0000007
250.0000006
250.0000006
250.0000006
250.0000006
250.0000006
250.0000006
250.0000006
250.0000006
250.0000006
250.0000006
250.0000006
250.0000006
250.0000006
250.0000006
250.0000006
250.0000006
250.0000006
250.0000006
250.0000006
250.0000006
250.0000006
250.0000005
250.0000005
250.0000005
250.0000005
250.0000005
250.0000005
250.0000005
250.0000005
250.0000005
250.0000005
250.0000005
250.0000005
250.0000005
250.0000005
250.0000005
250.0000005
250.0000004
250.0000004
250.0000004
250.0000004
250.0000004
250.0000004
250.0000004
250.0000004
250.0000004
250.0000004
250.0000004
250.0000004
250.0000004
250.0000003
250.0000003
250.0000003
250.0000003
250.0000003
250.0000003
250.0000003
250.0000003
250.0000003
250.0000003
250.0000003
250.0000003
250.0000003
250.0000002
250.0000002
250.0000002
250.0000002
250.0000002
250.0000002
250.0000002
250.0000002
250.0000002
250.0000002
250.0000002
250.0000002
250.0000001
250.0000001
250.0000001
250.0000001
250.0000001
250.0000001
250.0000001
250.0000001
250.0000001
250.0000001
250.0000001
250.0000001
250.0000001
250.0000001
250.0000001
250
250
250
250
250
250
250
11867.5944
11865.61796
11868.65056
11871.68831
11874.64872
11877.5117
11880.26087
11882.88115
11885.35882
11887.68171
11889.83934
11891.82306
11893.62608
11895.24352
11896.67236
11897.9114
11898.96115
11899.8237
11900.50258
11901.00254
11901.32942
11901.48987
11901.49124
11901.34131
11901.04811
11900.61979
11900.06441
11899.38983
11898.60356
11897.7127
11896.72384
11895.64301
11894.47566
11893.2266
11891.90005
11890.49962
11889.02835
11887.48873
11885.88273
11884.21186
11882.47722
11880.6795
11878.8191
11876.89607
11874.91026
11872.86127
11870.74852
11868.57127
11866.32866
11864.0197
11861.64332
11859.19837
11856.68361
11854.09777
11851.43951
11848.70744
11845.90015
11843.01616
11840.05397
11837.01206
11833.88886
11830.68278
11827.39221
11824.01554
11820.55114
11816.99739
11813.35268
11809.61543
11805.78413
11801.8573
11797.83358
11793.71173
11789.49066
11785.16947
11780.74751
11776.22443
11771.60027
11766.87548
11762.0511
11757.12877
11752.11088
11747.00065
11741.80205
11736.51823
11731.1267
11725.18952
11710.90165
11575.08602
10720.11569
6917.105162
257.5528966
250.0016533
250.0000012
250.0000006
250.0000006
250.0000006
250.0000006
250.0000006
250.0000006
250.0000006
250.0000006
250.0000006
250.0000006
250.0000006
250.0000006
250.0000006
250.0000006
250.0000006
250.0000006
250.0000005
250.0000005
250.0000005
250.0000005
250.0000005
250.0000005
250.0000005
250.0000005
250.0000005
250.0000005
250.0000005
250.0000005
250.0000005
250.0000005
250.0000005
250.0000005
250.0000005
250.0000005
250.0000004
250.0000004
250.0000004
250.0000004
250.0000004
250.0000004
250.0000004
250.0000004
250.0000004
250.0000004
250.0000004
250.0000004
250.0000004
250.0000004
250.0000004
250.0000004
250.0000003
250.0000003
250.0000003
250.0000003
250.0000003
250.0000003
250.0000003
250.0000003
250.0000003
250.0000003
250.0000003
250.0000003
250.0000003
250.0000003
250.0000003
250.0000002
250.0000002
250.0000002
250.0000002
250.0000002
250.0000002
250.0000002
250.0000002
250.0000002
250.0000002
250.0000002
250.0000002
250.0000002
250.0000002
250.0000002
250.0000001
250.0000001
250.0000001
250.0000001
250.0000001
250.0000001
250.0000001
250.0000001
250.0000001
250.0000001
250.0000001
250.0000001
250.0000001
250.0000001
250.0000001
250.0000001
250.0000001
250.0000001
250
250
250
250
250
250
250
250
250
11868.21374
11866.23938
11869.27153
11872.30884
11875.26885
11878.13148
11880.88035
11883.50039
11885.97788
11888.30065
11890.45824
11892.44199
11894.24511
11895.86274
11897.29184
11898.53123
11899.58141
11900.44447
11901.12393
11901.62455
11901.95216
11902.11343
11902.11567
11901.96668
11901.67448
11901.24723
11900.69298
11900.01958
11899.23455
11898.34499
11897.35749
11896.27808
11895.11221
11893.86469
11892.53976
11891.14101
11889.67149
11888.13369
11886.5296
11884.86072
11883.12816
11881.33261
11879.47447
11877.55382
11875.57048
11873.52407
11871.41401
11869.23958
11866.99991
11864.69402
11862.32085
11859.87924
11857.36798
11854.78578
11852.13132
11849.40322
11846.60006
11843.72038
11840.76269
11837.72545
11834.60712
11831.40612
11828.12083
11824.74963
11821.29091
11817.74303
11814.10438
11810.37336
11806.54842
11802.62805
11798.61084
11794.49545
11790.28068
11785.96546
11781.54894
11777.03047
11772.40968
11767.68647
11762.86115
11757.93434
11752.90709
11747.78077
11742.5569
11737.23538
11731.78984
11725.78283
11711.51691
11577.15302
10728.9697
6959.129925
257.6322765
250.0016703
250.0000012
250.0000006
250.0000005
250.0000005
250.0000005
250.0000005
250.0000005
250.0000005
250.0000005
250.0000005
250.0000005
250.0000005
250.0000005
250.0000005
250.0000005
250.0000005
250.0000005
250.0000005
250.0000005
250.0000005
250.0000005
250.0000005
250.0000005
250.0000004
250.0000004
250.0000004
250.0000004
250.0000004
250.0000004
250.0000004
250.0000004
250.0000004
250.0000004
250.0000004
250.0000004
250.0000004
250.0000004
250.0000004
250.0000004
250.0000004
250.0000003
250.0000003
250.0000003
250.0000003
250.0000003
250.0000003
250.0000003
250.0000003
250.0000003
250.0000003
250.0000003
250.0000003
250.0000003
250.0000003
250.0000003
250.0000003
250.0000003
250.0000003
250.0000002
250.0000002
250.0000002
250.0000002
250.0000002
250.0000002
250.0000002
250.0000002
250.0000002
250.0000002
250.0000002
250.0000002
250.0000002
250.0000002
250.0000002
250.0000002
250.0000002
250.0000002
250.0000001
250.0000001
250.0000001
250.0000001
250.0000001
250.0000001
250.0000001
250.0000001
250.0000001
250.0000001
250.0000001
250.0000001
250.0000001
250.0000001
250.0000001
250.0000001
250.0000001
250.0000001
250.0000001
250.0000001
250.0000001
250
250
250
250
250
250
250
250
250
250
250
11868.69249
11866.72073
11869.75247
11872.78936
11875.74896
11878.6112
11881.35971
11883.97943
11886.45664
11888.77918
11890.93658
11892.9202
11894.72327
11896.34089
11897.77005
11899.00956
11900.05993
11900.92324
11901.60302
11902.10403
11902.43208
11902.59384
11902.59664
11902.44826
11902.15674
11901.7302
11901.17672
11900.50415
11899.71999
11898.83136
11897.84485
11896.76648
11895.6017
11894.35534
11893.03162
11891.63416
11890.166
11888.62964
11887.02705
11885.35978
11883.6289
11881.83514
11879.97887
11878.0602
11876.07895
11874.03474
11871.92701
11869.75502
11867.51792
11865.21474
11862.84441
11860.40578
11857.89764
11855.31873
11852.66771
11849.94321
11847.14381
11844.26807
11841.31449
11838.28155
11835.1677
11831.97134
11828.69089
11825.3247
11821.87115
11818.3286
11814.6954
11810.96993
11807.15059
11803.23581
11799.2241
11795.11401
11790.90417
11786.59335
11782.1804
11777.66435
11773.04434
11768.31972
11763.48999
11758.55477
11753.51379
11748.36678
11743.11317
11737.75031
11732.24921
11726.17531
11711.94782
11579.12625
10738.06806
7002.732971
257.715028
250.001688
250.0000011
250.0000005
250.0000005
250.0000005
250.0000005
250.0000005
250.0000005
250.0000005
250.0000005
250.0000005
250.0000004
250.0000004
250.0000004
250.0000004
250.0000004
250.0000004
250.0000004
250.0000004
250.0000004
250.0000004
250.0000004
250.0000004
250.0000004
250.0000004
250.0000004
250.0000004
250.0000004
250.0000004
250.0000004
250.0000004
250.0000003
250.0000003
250.0000003
250.0000003
250.0000003
250.0000003
250.0000003
250.0000003
250.0000003
250.0000003
250.0000003
250.0000003
250.0000003
250.0000003
250.0000003
250.0000003
250.0000003
250.0000003
250.0000003
250.0000003
250.0000002
250.0000002
250.0000002
250.0000002
250.0000002
250.0000002
250.0000002
250.0000002
250.0000002
250.0000002
250.0000002
250.0000002
250.0000002
250.0000002
250.0000002
250.0000002
250.0000002
250.0000002
250.0000002
250.0000002
250.0000002
250.0000001
250.0000001
250.0000001
250.0000001
250.0000001
250.0000001
250.0000001
250.0000001
250.0000001
250.0000001
250.0000001
250.0000001
250.0000001
250.0000001
250.0000001
250.0000001
250.0000001
250.0000001
250.0000001
250.0000001
250.0000001
250.0000001
250.0000001
250.0000001
250
250
250
250
250
250
250
250
250
250
250
250
250
11869.05927
11867.09068
11870.12205
11873.1585
11876.11767
11878.97946
11881.72755
11884.34686
11886.82369
11889.14588
11891.30298
11893.28633
11895.08918
11896.70663
11898.13569
11899.37514
11900.42551
11901.28887
11901.96876
11902.46993
11902.79819
11902.96022
11902.96333
11902.81531
11902.52419
11902.09811
11901.54512
11900.87308
11900.08952
11899.20152
11898.21568
11897.13805
11895.97405
11894.72854
11893.40573
11892.00924
11890.54212
11889.00687
11887.40549
11885.73949
11884.00998
11882.21769
11880.36299
11878.44598
11876.46651
11874.42419
11872.31846
11870.14861
11867.91376
11865.61297
11863.24516
11860.8092
11858.30387
11855.72791
11853.07999
11850.35875
11847.56277
11844.6906
11841.74075
11838.7117
11835.60189
11832.40972
11829.13359
11825.77186
11822.32287
11818.78496
11815.15645
11811.43566
11807.62094
11803.71064
11799.70314
11795.59685
11791.39025
11787.08184
11782.6702
11778.15396
11773.5318
11768.80245
11763.96465
11759.01711
11753.9584
11748.78687
11743.50036
11738.09447
11732.53869
11726.40323
11712.23128
11581.03743
10747.43374
7047.881562
257.8011245
250.0017065
250.0000011
250.0000004
250.0000004
250.0000004
250.0000004
250.0000004
250.0000004
250.0000004
250.0000004
250.0000004
250.0000004
250.0000004
250.0000004
250.0000004
250.0000004
250.0000004
250.0000004
250.0000004
250.0000004
250.0000004
250.0000003
250.0000003
250.0000003
250.0000003
250.0000003
250.0000003
250.0000003
250.0000003
250.0000003
250.0000003
250.0000003
250.0000003
250.0000003
250.0000003
250.0000003
250.0000003
250.0000003
250.0000003
250.0000003
250.0000003
250.0000003
250.0000003
250.0000002
250.0000002
250.0000002
250.0000002
250.0000002
250.0000002
250.0000002
250.0000002
250.0000002
250.0000002
250.0000002
250.0000002
250.0000002
250.0000002
250.0000002
250.0000002
250.0000002
250.0000002
250.0000002
250.0000002
250.0000002
250.0000002
250.0000002
250.0000002
250.0000001
250.0000001
250.0000001
250.0000001
250.0000001
250.0000001
250.0000001
250.0000001
250.0000001
250.0000001
250.0000001
250.0000001
250.0000001
250.0000001
250.0000001
250.0000001
250.0000001
250.0000001
250.0000001
250.0000001
250.0000001
250.0000001
250.0000001
250.0000001
250.0000001
250.0000001
250.0000001
250
250
250
250
250
250
250
250
250
250
250
250
250
250
250
11869.33308
11867.36823
11870.39925
11873.43526
11876.39394
11879.25524
11882.00283
11884.62165
11887.098
11889.41973
11891.5764
11893.55937
11895.36187
11896.97902
11898.40781
11899.64706
11900.69726
11901.56051
11902.24034
11902.74148
11903.06977
11903.23187
11903.23509
11903.08722
11902.79629
11902.37044
11901.81772
11901.14599
11900.36277
11899.47516
11898.48976
11897.4126
11896.24914
11895.00421
11893.68203
11892.28625
11890.81991
11889.2855
11887.68504
11886.02005
11884.29164
11882.50053
11880.64711
11878.7315
11876.75352
11874.71281
11872.60881
11870.44079
11868.20792
11865.90922
11863.54363
11861.11002
11858.60719
11856.03385
11853.3887
11850.67036
11847.87741
11845.00842
11842.06187
11839.03624
11835.92997
11832.74144
11829.46904
11826.1111
11822.66594
11819.13184
11815.50709
11811.78995
11807.97866
11804.0715
11800.06669
11795.96251
11791.7572
11787.44903
11783.03626
11778.51713
11773.88986
11769.15261
11764.30344
11759.34025
11754.2607
11749.0621
11743.74117
11738.29239
11732.68463
11726.49412
11712.39405
11582.90823
10757.0824
7094.548913
257.8905526
250.0017257
250.000001
250.0000004
250.0000004
250.0000004
250.0000004
250.0000004
250.0000004
250.0000004
250.0000004
250.0000003
250.0000003
250.0000003
250.0000003
250.0000003
250.0000003
250.0000003
250.0000003
250.0000003
250.0000003
250.0000003
250.0000003
250.0000003
250.0000003
250.0000003
250.0000003
250.0000003
250.0000003
250.0000003
250.0000003
250.0000003
250.0000003
250.0000003
250.0000003
250.0000003
250.0000002
250.0000002
250.0000002
250.0000002
250.0000002
250.0000002
250.0000002
250.0000002
250.0000002
250.0000002
250.0000002
250.0000002
250.0000002
250.0000002
250.0000002
250.0000002
250.0000002
250.0000002
250.0000002
250.0000002
250.0000002
250.0000002
250.0000002
250.0000002
250.0000002
250.0000002
250.0000002
250.0000001
250.0000001
250.0000001
250.0000001
250.0000001
250.0000001
250.0000001
250.0000001
250.0000001
250.0000001
250.0000001
250.0000001
250.0000001
250.0000001
250.0000001
250.0000001
250.0000001
250.0000001
250.0000001
250.0000001
250.0000001
250.0000001
250.0000001
250.0000001
250.0000001
250.0000001
250.0000001
250.0000001
250.0000001
250.0000001
250.0000001
250
250
250
250
250
250
250
250
250
250
250
250
250
250
250
250
11869.52719
11867.56667
11870.59735
11873.63289
11876.59106
11879.45181
11882.19883
11884.81707
11887.29284
11889.61402
11891.77015
11893.75262
11895.55464
11897.17136
11898.59977
11899.83867
11900.88857
11901.75157
11902.43118
11902.93216
11903.26032
11903.42232
11903.42549
11903.27759
11902.98667
11902.56086
11902.00822
11901.33659
11900.55351
11899.66608
11898.68089
11897.60399
11896.44083
11895.19625
11893.87449
11892.47917
11891.01336
11889.47956
11887.87977
11886.21553
11884.48796
11882.69778
11880.8454
11878.9309
11876.95416
11874.91478
11872.81223
11870.64577
11868.41458
11866.11767
11863.754
11861.32243
11858.82174
11856.25068
11853.60792
11850.89208
11848.10175
11845.23547
11842.29174
11839.269
11836.16568
11832.98017
11829.71079
11826.35587
11822.91366
11819.38243
11815.76037
11812.04568
11808.23651
11804.331
11800.32725
11796.22334
11792.01731
11787.70717
11783.29087
11778.76629
11774.13122
11769.38331
11764.52006
11759.53873
11754.4363
11749.20933
11743.85383
11738.36364
11732.70758
11726.46875
11712.45531
11584.75291
10767.02254
7142.70158
257.9832889
250.0017457
250.000001
250.0000003
250.0000003
250.0000003
250.0000003
250.0000003
250.0000003
250.0000003
250.0000003
250.0000003
250.0000003
250.0000003
250.0000003
250.0000003
250.0000003
250.0000003
250.0000003
250.0000003
250.0000003
250.0000003
250.0000003
250.0000003
250.0000003
250.0000003
250.0000003
250.0000003
250.0000002
250.0000002
250.0000002
250.0000002
250.0000002
250.0000002
250.0000002
250.0000002
250.0000002
250.0000002
250.0000002
250.0000002
250.0000002
250.0000002
250.0000002
250.0000002
250.0000002
250.0000002
250.0000002
250.0000002
250.0000002
250.0000002
250.0000002
250.0000002
250.0000002
250.0000002
250.0000002
250.0000002
250.0000002
250.0000002
250.0000001
250.0000001
250.0000001
250.0000001
250.0000001
250.0000001
250.0000001
250.0000001
250.0000001
250.0000001
250.0000001
250.0000001
250.0000001
250.0000001
250.0000001
250.0000001
250.0000001
250.0000001
250.0000001
250.0000001
250.0000001
250.0000001
250.0000001
250.0000001
250.0000001
250.0000001
250.0000001
250.0000001
250.0000001
250.0000001
250.0000001
250.0000001
250.0000001
250.0000001
250
250
250
250
250
250
250
250
250
250
250
250
250
250
250
250
250
250
11869.65129
11867.69568
11870.72603
11873.76109
11876.71869
11879.57884
11882.32522
11884.9428
11887.41791
11889.73844
11891.89394
11893.87579
11895.67724
11897.29341
11898.72131
11899.95975
11901.00923
11901.87185
11902.55111
11903.05179
11903.37967
11903.54144
11903.5444
11903.39633
11903.10526
11902.67933
11902.12659
11901.45489
11900.67177
11899.78433
11898.79916
11897.72232
11896.55925
11895.31482
11893.99324
11892.59817
11891.13266
11889.59923
11887.99988
11886.33616
11884.60919
11882.81969
11880.96808
11879.05445
11877.07866
11875.04035
11872.93896
11870.77378
11868.54395
11866.24852
11863.88644
11861.45655
11858.95765
11856.38847
11853.74769
11851.03391
11848.24572
11845.38164
11842.44015
11839.4197
11836.31868
11833.13544
11829.8683
11826.51551
11823.07531
11819.54588
11815.92536
11812.21183
11808.40337
11804.49797
11800.49358
11796.38811
11792.17939
11787.86518
11783.44315
11778.91084
11774.26567
11769.5049
11764.62556
11759.62444
11754.49801
11749.24239
11743.85313
11738.32377
11732.62341
11726.34259
11712.42865
11586.5803
10777.25681
7192.297251
258.0792929
250.0017663
250.0000009
250.0000003
250.0000003
250.0000003
250.0000003
250.0000003
250.0000003
250.0000003
250.0000003
250.0000003
250.0000003
250.0000003
250.0000003
250.0000003
250.0000003
250.0000003
250.0000003
250.0000002
250.0000002
250.0000002
250.0000002
250.0000002
250.0000002
250.0000002
250.0000002
250.0000002
250.0000002
250.0000002
250.0000002
250.0000002
250.0000002
250.0000002
250.0000002
250.0000002
250.0000002
250.0000002
250.0000002
250.0000002
250.0000002
250.0000002
250.0000002
250.0000002
250.0000002
250.0000002
250.0000002
250.0000002
250.0000002
250.0000002
250.0000002
250.0000002
250.0000002
250.0000001
250.0000001
250.0000001
250.0000001
250.0000001
250.0000001
250.0000001
250.0000001
250.0000001
250.0000001
250.0000001
250.0000001
250.0000001
250.0000001
250.0000001
250.0000001
250.0000001
250.0000001
250.0000001
250.0000001
250.0000001
250.0000001
250.0000001
250.0000001
250.0000001
250.0000001
250.0000001
250.0000001
250.0000001
250.0000001
250.0000001
250.0000001
250.0000001
250.0000001
250.0000001
250.0000001
250.0000001
250.0000001
250
250
250
250
250
250
250
250
250
250
250
250
250
250
250
250
250
250
250
11869.71272
11867.76259
11870.79261
11873.82716
11876.78417
11879.64365
11882.38933
11885.00618
11887.48055
11889.80033
11891.95509
11893.93624
11895.737
11897.35253
11898.77982
11900.01768
11901.06663
11901.92875
11902.60756
11903.1078
11903.4353
11903.5967
11903.59932
11903.45093
11903.15957
11902.73336
11902.18037
11901.50844
11900.72511
11899.83748
11898.85215
11897.77517
11896.61201
11895.36751
11894.04592
11892.65088
11891.18546
11889.65217
11888.05304
11886.3896
11884.66297
11882.87391
11881.0228
11879.10977
11877.13467
11875.09714
11872.99661
11870.83238
11868.6036
11866.30931
11863.94844
11861.51986
11859.02234
11856.45461
11853.81534
11851.10312
11848.31653
11845.45407
11842.51422
11839.49537
11836.39591
11833.21415
11829.94837
11826.59677
11823.15754
11819.62878
11816.00856
11812.29488
11808.48569
11804.57885
11800.57218
11796.4634
11792.25015
11787.92997
11783.50027
11778.95831
11774.30123
11769.52593
11764.62913
11759.60726
11754.45649
11749.17261
11743.75098
11738.18501
11732.44426
11726.12703
11712.32362
11588.39545
10787.78346
7243.285608
258.1785088
250.0017877
250.0000009
250.0000003
250.0000003
250.0000003
250.0000003
250.0000003
250.0000003
250.0000003
250.0000003
250.0000002
250.0000002
250.0000002
250.0000002
250.0000002
250.0000002
250.0000002
250.0000002
250.0000002
250.0000002
250.0000002
250.0000002
250.0000002
250.0000002
250.0000002
250.0000002
250.0000002
250.0000002