/*--------------------------------*- C++ -*----------------------------------*\
| =========                 |                                                 |
| \\      /  F ield         | OpenFOAM: The Open Source CFD Toolbox           |
|  \\    /   O peration     | Version:  v1706                                 |
|   \\  /    A nd           | Web:      www.OpenFOAM.com                      |
|    \\/     M anipulation  |                                                 |
\*---------------------------------------------------------------------------*/
FoamFile
{
    version     2.0;
    format      ascii;
    class       volScalarField;
    location    "0.001";
    object      N2;
}
// * * * * * * * * * * * * * * * * * * * * * * * * * * * * * * * * * * * * * //

dimensions      [0 0 0 0 0 0 0];


internalField   uniform 0.767;

boundaryField
{
    inlet
    {
        type            fixedValue;
        value           uniform 0.767;
    }
    outlet
    {
        type            zeroGradient;
    }
    fire
    {
        type            zeroGradient;
    }
    lWedge
    {
        type            wedge;
    }
    rWedge
    {
        type            wedge;
    }
}


// ************************************************************************* //
