/*--------------------------------*- C++ -*----------------------------------*\
| =========                 |                                                 |
| \\      /  F ield         | OpenFOAM: The Open Source CFD Toolbox           |
|  \\    /   O peration     | Version:  v1706                                 |
|   \\  /    A nd           | Web:      www.OpenFOAM.com                      |
|    \\/     M anipulation  |                                                 |
\*---------------------------------------------------------------------------*/
FoamFile
{
    version     2.0;
    format      ascii;
    class       volScalarField;
    location    "0.001";
    object      p;
}
// * * * * * * * * * * * * * * * * * * * * * * * * * * * * * * * * * * * * * //

dimensions      [1 -1 -2 0 0 0 0];


internalField   nonuniform List<scalar> 
11682
(
5.18655
5.18655
5.18655
5.18655
5.18655
5.18655
5.18655
5.18655
5.18655
5.18655
5.18655
5.18655
5.18655
5.18655
5.18655
5.18655
5.18655
5.18655
5.18655
5.18655
5.18655
5.18655
5.18655
5.18655
5.18655
5.18655
5.18655
5.18655
5.18655
5.18655
5.18655
5.18655
5.18655
5.18655
5.18655
5.18655
5.18655
5.18655
5.18655
5.18655
5.18655
5.18655
5.18655
5.18655
5.18655
5.18655
5.18655
5.18655
5.18655
5.18655
5.18655
5.18655
5.18655
5.18655
5.18655
5.18655
5.18655
5.18655
5.18655
5.18655
5.18655
5.18655
5.18655
5.18655
5.18655
5.18655
5.18655
5.18655
5.18655
5.18655
5.18655
5.18655
5.18655
5.18655
5.18655
5.18655
5.18655
5.18655
5.18655
5.18655
5.18655
5.18655
5.18655
5.18655
5.18655
5.18655
5.18655
5.18655
5.18655
5.18655
5.18655
5.18655
5.18655
5.18655
5.18655
5.18655
5.18655
5.18655
5.18655
5.18655
5.18655
5.18655
5.18655
5.18655
5.18655
5.18655
5.18655
5.18655
5.18655
5.18655
5.18655
5.18655
5.18655
5.18655
5.18655
5.18655
5.18655
5.18655
5.18655
5.18655
5.18655
5.18655
5.18655
5.18655
5.18655
5.18655
5.18655
5.18655
5.18655
5.18655
5.18655
5.18655
5.18655
5.18655
5.18655
5.18655
5.18655
5.18655
5.18655
5.18655
5.18655
5.18655
5.18655
5.18655
5.18655
5.18655
5.18655
5.18655
5.18655
5.18655
5.18655
5.18655
5.18655
5.18655
5.18655
5.18655
5.18655
5.18655
5.18655
5.18655
5.18655
5.18655
5.18655
5.18655
5.18655
5.18655
5.18655
5.18655
5.18655
5.18655
5.18655
5.18655
5.18655
5.18655
5.18655
5.18655
5.18655
5.18655
5.18655
5.18655
5.18655
5.18655
5.18655
5.18655
5.18655
5.18655
5.18655
5.18655
5.18655
5.18655
5.18655
5.18655
5.18655
5.18655
5.18655
5.18655
5.18655
5.18655
5.18655
5.18655
5.18655
5.18655
5.18655
5.18655
5.18655
5.18655
5.18655
5.18655
5.18655
5.18655
5.18655
5.18655
5.18655
5.18655
5.18655
5.18655
5.18655
5.18655
5.18655
5.18655
5.18655
5.18655
5.18655
5.18655
5.18655
5.18655
5.18655
5.18655
5.18655
5.18655
5.18655
5.18655
5.18655
5.18655
5.18655
5.18655
5.18655
5.18655
5.18655
5.18655
5.18655
5.18655
5.18655
5.18655
5.18655
5.18655
5.18655
5.18655
5.18655
5.18655
5.18655
5.18655
5.18655
5.18655
5.18655
5.18655
5.18655
5.18655
5.18655
5.18655
5.18655
5.18655
5.18655
5.18655
5.18655
5.18655
5.18655
5.18655
5.18655
5.18655
5.18655
5.18655
5.18655
5.18655
5.18655
5.18655
5.18655
5.18655
5.18655
5.18655
5.18655
5.18655
5.18655
5.18655
5.18655
5.18655
5.18655
5.18655
5.18655
5.18655
5.18655
5.18655
5.18655
5.18655
5.18655
5.18655
5.18655
5.18655
5.18655
5.18655
5.18655
5.18655
5.18655
5.18655
5.18655
5.18655
5.18655
5.18655
5.18655
5.18655
5.18655
5.18655
5.18655
5.18655
5.18655
5.18655
5.18655
5.18655
5.18655
5.18655
5.18655
5.18655
5.18655
5.18655
5.18655
5.18655
5.18655
5.18655
5.18655
5.18655
5.18655
5.18655
5.18655
5.18655
5.18655
5.18655
5.18655
5.18655
5.18655
5.18655
5.18655
5.18655
5.18655
5.18655
5.18655
5.18655
5.18655
5.18655
5.18655
5.18655
5.18655
5.18655
5.18655
5.18655
5.18655
5.18655
5.18655
5.18655
5.18655
5.18655
5.18655
5.18655
5.18655
5.18655
5.18655
5.18655
5.18655
5.18655
5.18655
5.18655
5.18655
5.18655
5.18655
5.18655
5.18655
5.18655
5.18655
5.18655
5.18655
5.18655
5.18655
5.18655
5.18655
5.18655
5.18655
5.18655
5.18655
5.18655
5.18655
5.18655
5.18655
5.18655
5.18655
5.18655
5.18655
5.18655
5.186550001
5.18655
5.18655
5.18655
5.18655
5.18655
5.18655
5.18655
5.18655
5.18655
5.18655
5.18655
5.18655
5.18655
5.18655
5.18655
5.18655
5.18655
5.18655
5.18655
5.18655
5.18655
5.18655
5.18655
5.18655
5.18655
5.18655
5.18655
5.18655
5.18655
5.18655
5.18655
5.18655
5.18655
5.18655
5.18655
5.18655
5.18655
5.18655
5.18655
5.18655
5.18655
5.18655
5.18655
5.18655
5.18655
5.18655
5.18655
5.18655
5.18655
5.18655
5.18655
5.18655
5.18655
5.18655
5.18655
5.18655
5.18655
5.18655
5.18655
5.18655
5.18655
5.18655
5.18655
5.18655
5.18655
5.18655
5.18655
5.18655
5.18655
5.18655
5.18655
5.18655
5.18655
5.18655
5.18655
5.18655
5.18655
5.18655
5.18655
5.18655
5.18655
5.18655
5.18655
5.18655
5.18655
5.18655
5.18655
5.18655
5.18655
5.18655
5.18655
5.18655
5.18655
5.18655
5.18655
5.18655
5.18655
5.18655
5.186550001
5.18655
5.18655
5.18655
5.18655
5.18655
5.18655
5.18655
5.18655
5.18655
5.18655
5.18655
5.18655
5.18655
5.18655
5.18655
5.18655
5.18655
5.18655
5.18655
5.18655
5.18655
5.18655
5.18655
5.18655
5.18655
5.18655
5.18655
5.18655
5.18655
5.18655
5.18655
5.18655
5.18655
5.18655
5.18655
5.18655
5.18655
5.18655
5.18655
5.18655
5.18655
5.18655
5.18655
5.18655
5.18655
5.18655
5.18655
5.18655
5.18655
5.18655
5.18655
5.18655
5.18655
5.18655
5.18655
5.18655
5.18655
5.18655
5.18655
5.18655
5.18655
5.18655
5.18655
5.18655
5.18655
5.18655
5.18655
5.18655
5.18655
5.18655
5.18655
5.18655
5.18655
5.18655
5.18655
5.18655
5.18655
5.18655
5.18655
5.18655
5.18655
5.18655
5.18655
5.18655
5.18655
5.18655
5.18655
5.18655
5.18655
5.18655
5.18655
5.18655
5.18655
5.18655
5.18655
5.18655
5.18655
5.18655
5.186550001
5.18655
5.18655
5.18655
5.18655
5.18655
5.18655
5.18655
5.18655
5.18655
5.18655
5.18655
5.18655
5.18655
5.18655
5.18655
5.18655
5.18655
5.18655
5.18655
5.18655
5.18655
5.18655
5.18655
5.18655
5.18655
5.18655
5.18655
5.18655
5.18655
5.18655
5.18655
5.18655
5.18655
5.18655
5.18655
5.18655
5.18655
5.18655
5.18655
5.18655
5.18655
5.18655
5.18655
5.18655
5.18655
5.18655
5.18655
5.18655
5.18655
5.18655
5.18655
5.18655
5.18655
5.18655
5.18655
5.18655
5.18655
5.18655
5.18655
5.18655
5.18655
5.18655
5.18655
5.18655
5.18655
5.18655
5.18655
5.18655
5.18655
5.18655
5.18655
5.18655
5.18655
5.18655
5.18655
5.18655
5.18655
5.18655
5.18655
5.18655
5.18655
5.18655
5.18655
5.18655
5.18655
5.18655
5.18655
5.18655
5.18655
5.18655
5.18655
5.18655
5.18655
5.18655
5.18655
5.18655
5.18655
5.18655
5.186550001
5.18655
5.18655
5.18655
5.18655
5.18655
5.18655
5.18655
5.18655
5.18655
5.18655
5.18655
5.18655
5.18655
5.18655
5.18655
5.18655
5.18655
5.18655
5.18655
5.18655
5.18655
5.18655
5.18655
5.18655
5.18655
5.18655
5.18655
5.18655
5.18655
5.18655
5.18655
5.18655
5.18655
5.18655
5.18655
5.18655
5.18655
5.18655
5.18655
5.18655
5.18655
5.18655
5.18655
5.18655
5.18655
5.18655
5.18655
5.18655
5.18655
5.18655
5.18655
5.18655
5.18655
5.18655
5.18655
5.18655
5.18655
5.18655
5.18655
5.18655
5.18655
5.18655
5.18655
5.18655
5.18655
5.18655
5.18655
5.18655
5.18655
5.18655
5.18655
5.18655
5.18655
5.18655
5.18655
5.18655
5.18655
5.18655
5.18655
5.18655
5.18655
5.18655
5.18655
5.18655
5.18655
5.18655
5.18655
5.18655
5.18655
5.18655
5.18655
5.18655
5.18655
5.18655
5.18655
5.18655
5.18655
5.18655
5.186550001
5.18655
5.18655
5.18655
5.18655
5.18655
5.18655
5.18655
5.18655
5.18655
5.18655
5.18655
5.18655
5.18655
5.18655
5.18655
5.18655
5.18655
5.18655
5.18655
5.18655
5.18655
5.18655
5.18655
5.18655
5.18655
5.18655
5.18655
5.18655
5.18655
5.18655
5.18655
5.18655
5.18655
5.18655
5.18655
5.18655
5.18655
5.18655
5.18655
5.18655
5.18655
5.18655
5.18655
5.18655
5.18655
5.18655
5.18655
5.18655
5.18655
5.18655
5.18655
5.18655
5.18655
5.18655
5.18655
5.18655
5.18655
5.18655
5.18655
5.18655
5.18655
5.18655
5.18655
5.18655
5.18655
5.18655
5.18655
5.18655
5.18655
5.18655
5.18655
5.18655
5.18655
5.18655
5.18655
5.18655
5.18655
5.18655
5.18655
5.18655
5.18655
5.18655
5.18655
5.18655
5.18655
5.18655
5.18655
5.18655
5.18655
5.18655
5.18655
5.18655
5.18655
5.18655
5.18655
5.18655
5.18655
5.18655
5.186550001
5.18655
5.18655
5.18655
5.18655
5.18655
5.18655
5.18655
5.18655
5.18655
5.18655
5.18655
5.18655
5.18655
5.18655
5.18655
5.18655
5.18655
5.18655
5.18655
5.18655
5.18655
5.18655
5.18655
5.18655
5.18655
5.18655
5.18655
5.18655
5.18655
5.18655
5.18655
5.18655
5.18655
5.18655
5.18655
5.18655
5.18655
5.18655
5.18655
5.18655
5.18655
5.18655
5.18655
5.18655
5.18655
5.18655
5.18655
5.18655
5.18655
5.18655
5.18655
5.18655
5.18655
5.18655
5.18655
5.18655
5.18655
5.18655
5.18655
5.18655
5.18655
5.18655
5.18655
5.18655
5.18655
5.18655
5.18655
5.18655
5.18655
5.18655
5.18655
5.18655
5.18655
5.18655
5.18655
5.18655
5.18655
5.18655
5.18655
5.18655
5.18655
5.18655
5.18655
5.18655
5.18655
5.18655
5.18655
5.18655
5.18655
5.18655
5.18655
5.18655
5.18655
5.18655
5.18655
5.18655
5.18655
5.18655
5.186550001
5.18655
5.18655
5.18655
5.18655
5.18655
5.18655
5.18655
5.18655
5.18655
5.18655
5.18655
5.18655
5.18655
5.18655
5.18655
5.18655
5.18655
5.18655
5.18655
5.18655
5.18655
5.18655
5.18655
5.18655
5.18655
5.18655
5.18655
5.18655
5.18655
5.18655
5.18655
5.18655
5.18655
5.18655
5.18655
5.18655
5.18655
5.18655
5.18655
5.18655
5.18655
5.18655
5.18655
5.18655
5.18655
5.18655
5.18655
5.18655
5.18655
5.18655
5.18655
5.18655
5.18655
5.18655
5.18655
5.18655
5.18655
5.18655
5.18655
5.18655
5.18655
5.18655
5.18655
5.18655
5.18655
5.18655
5.18655
5.18655
5.18655
5.18655
5.18655
5.18655
5.18655
5.18655
5.18655
5.18655
5.18655
5.18655
5.18655
5.18655
5.18655
5.18655
5.18655
5.18655
5.18655
5.18655
5.18655
5.18655
5.18655
5.18655
5.18655
5.18655
5.18655
5.18655
5.18655
5.18655
5.18655
5.18655
5.186550002
5.186550001
5.18655
5.18655
5.18655
5.18655
5.18655
5.18655
5.18655
5.18655
5.18655
5.18655
5.18655
5.18655
5.18655
5.18655
5.18655
5.18655
5.18655
5.18655
5.18655
5.18655
5.18655
5.18655
5.18655
5.18655
5.18655
5.18655
5.18655
5.18655
5.18655
5.18655
5.18655
5.18655
5.18655
5.18655
5.18655
5.18655
5.18655
5.18655
5.18655
5.18655
5.18655
5.18655
5.18655
5.18655
5.18655
5.18655
5.18655
5.18655
5.18655
5.18655
5.18655
5.18655
5.18655
5.18655
5.18655
5.18655
5.18655
5.18655
5.18655
5.18655
5.18655
5.18655
5.18655
5.18655
5.18655
5.18655
5.18655
5.18655
5.18655
5.18655
5.18655
5.18655
5.18655
5.18655
5.18655
5.18655
5.18655
5.18655
5.18655
5.18655
5.18655
5.18655
5.18655
5.18655
5.18655
5.18655
5.18655
5.18655
5.18655
5.18655
5.18655
5.18655
5.18655
5.18655
5.18655
5.18655
5.18655
5.186550002
5.186550001
5.18655
5.18655
5.18655
5.18655
5.18655
5.18655
5.18655
5.18655
5.18655
5.18655
5.18655
5.18655
5.18655
5.18655
5.18655
5.18655
5.18655
5.18655
5.18655
5.18655
5.18655
5.18655
5.18655
5.18655
5.18655
5.18655
5.18655
5.18655
5.18655
5.18655
5.18655
5.18655
5.18655
5.18655
5.18655
5.18655
5.18655
5.18655
5.18655
5.18655
5.18655
5.18655
5.18655
5.18655
5.18655
5.18655
5.18655
5.18655
5.18655
5.18655
5.18655
5.18655
5.18655
5.18655
5.18655
5.18655
5.18655
5.18655
5.18655
5.18655
5.18655
5.18655
5.18655
5.18655
5.18655
5.18655
5.18655
5.18655
5.18655
5.18655
5.18655
5.18655
5.18655
5.18655
5.18655
5.18655
5.18655
5.18655
5.18655
5.18655
5.18655
5.18655
5.18655
5.18655
5.18655
5.18655
5.18655
5.18655
5.18655
5.18655
5.18655
5.18655
5.18655
5.18655
5.18655
5.18655
5.18655
5.186550002
5.186550001
5.18655
5.18655
5.18655
5.18655
5.18655
5.18655
5.18655
5.18655
5.18655
5.18655
5.18655
5.18655
5.18655
5.18655
5.18655
5.18655
5.18655
5.18655
5.18655
5.18655
5.18655
5.18655
5.18655
5.18655
5.18655
5.18655
5.18655
5.18655
5.18655
5.18655
5.18655
5.18655
5.18655
5.18655
5.18655
5.18655
5.18655
5.18655
5.18655
5.18655
5.18655
5.18655
5.18655
5.18655
5.18655
5.18655
5.18655
5.18655
5.18655
5.18655
5.18655
5.18655
5.18655
5.18655
5.18655
5.18655
5.18655
5.18655
5.18655
5.18655
5.18655
5.18655
5.18655
5.18655
5.18655
5.18655
5.18655
5.18655
5.18655
5.18655
5.18655
5.18655
5.18655
5.18655
5.18655
5.18655
5.18655
5.18655
5.18655
5.18655
5.18655
5.18655
5.18655
5.18655
5.18655
5.18655
5.18655
5.18655
5.18655
5.18655
5.18655
5.18655
5.18655
5.18655
5.18655
5.18655
5.18655
5.186550002
5.186550001
5.18655
5.18655
5.18655
5.18655
5.18655
5.18655
5.18655
5.18655
5.18655
5.18655
5.18655
5.18655
5.18655
5.18655
5.18655
5.18655
5.18655
5.18655
5.18655
5.18655
5.18655
5.18655
5.18655
5.18655
5.18655
5.18655
5.18655
5.18655
5.18655
5.18655
5.18655
5.18655
5.18655
5.18655
5.18655
5.18655
5.18655
5.18655
5.18655
5.18655
5.18655
5.18655
5.18655
5.18655
5.18655
5.18655
5.18655
5.18655
5.18655
5.18655
5.18655
5.18655
5.18655
5.18655
5.18655
5.18655
5.18655
5.18655
5.18655
5.18655
5.18655
5.18655
5.18655
5.18655
5.18655
5.18655
5.18655
5.18655
5.18655
5.18655
5.18655
5.18655
5.18655
5.18655
5.18655
5.18655
5.18655
5.18655
5.18655
5.18655
5.18655
5.18655
5.18655
5.18655
5.18655
5.18655
5.18655
5.18655
5.18655
5.18655
5.18655
5.18655
5.18655
5.18655
5.18655
5.18655
5.18655
5.186550002
5.186550001
5.18655
5.18655
5.18655
5.18655
5.18655
5.18655
5.18655
5.18655
5.18655
5.18655
5.18655
5.18655
5.18655
5.18655
5.18655
5.18655
5.18655
5.18655
5.18655
5.18655
5.18655
5.18655
5.18655
5.18655
5.18655
5.18655
5.18655
5.18655
5.18655
5.18655
5.18655
5.18655
5.18655
5.18655
5.18655
5.18655
5.18655
5.18655
5.18655
5.18655
5.18655
5.18655
5.18655
5.18655
5.18655
5.18655
5.18655
5.18655
5.18655
5.18655
5.18655
5.18655
5.18655
5.18655
5.18655
5.18655
5.18655
5.18655
5.18655
5.18655
5.18655
5.18655
5.18655
5.18655
5.18655
5.18655
5.18655
5.18655
5.18655
5.18655
5.18655
5.18655
5.18655
5.18655
5.18655
5.18655
5.18655
5.18655
5.18655
5.18655
5.18655
5.18655
5.18655
5.18655
5.18655
5.18655
5.18655
5.18655
5.18655
5.18655
5.18655
5.18655
5.18655
5.18655
5.18655
5.18655
5.18655
5.186550002
5.186550001
5.18655
5.18655
5.18655
5.18655
5.18655
5.18655
5.18655
5.18655
5.18655
5.18655
5.18655
5.18655
5.18655
5.18655
5.18655
5.18655
5.18655
5.18655
5.18655
5.18655
5.18655
5.18655
5.18655
5.18655
5.18655
5.18655
5.18655
5.18655
5.18655
5.18655
5.18655
5.18655
5.18655
5.18655
5.18655
5.18655
5.18655
5.18655
5.18655
5.18655
5.18655
5.18655
5.18655
5.18655
5.18655
5.18655
5.18655
5.18655
5.18655
5.18655
5.18655
5.18655
5.18655
5.18655
5.18655
5.18655
5.18655
5.18655
5.18655
5.18655
5.18655
5.18655
5.18655
5.18655
5.18655
5.18655
5.18655
5.18655
5.18655
5.18655
5.18655
5.18655
5.18655
5.18655
5.18655
5.18655
5.18655
5.18655
5.18655
5.18655
5.18655
5.18655
5.18655
5.18655
5.18655
5.18655
5.18655
5.18655
5.18655
5.18655
5.18655
5.18655
5.18655
5.18655
5.18655
5.18655
5.18655
5.186550002
5.186550001
5.186550001
5.18655
5.18655
5.18655
5.18655
5.18655
5.18655
5.18655
5.18655
5.18655
5.18655
5.18655
5.18655
5.18655
5.18655
5.18655
5.18655
5.18655
5.18655
5.18655
5.18655
5.18655
5.18655
5.18655
5.18655
5.18655
5.18655
5.18655
5.18655
5.18655
5.18655
5.18655
5.18655
5.18655
5.18655
5.18655
5.18655
5.18655
5.18655
5.18655
5.18655
5.18655
5.18655
5.18655
5.18655
5.18655
5.18655
5.18655
5.18655
5.18655
5.18655
5.18655
5.18655
5.18655
5.18655
5.18655
5.18655
5.18655
5.18655
5.18655
5.18655
5.18655
5.18655
5.18655
5.18655
5.18655
5.18655
5.18655
5.18655
5.18655
5.18655
5.18655
5.18655
5.18655
5.18655
5.18655
5.18655
5.18655
5.18655
5.18655
5.18655
5.18655
5.18655
5.18655
5.18655
5.18655
5.18655
5.18655
5.18655
5.18655
5.18655
5.18655
5.18655
5.18655
5.18655
5.18655
5.18655
5.186550003
5.186550001
5.186550001
5.18655
5.18655
5.18655
5.18655
5.18655
5.18655
5.18655
5.18655
5.18655
5.18655
5.18655
5.18655
5.18655
5.18655
5.18655
5.18655
5.18655
5.18655
5.18655
5.18655
5.18655
5.18655
5.18655
5.18655
5.18655
5.18655
5.18655
5.18655
5.18655
5.18655
5.18655
5.18655
5.18655
5.18655
5.18655
5.18655
5.18655
5.18655
5.18655
5.18655
5.18655
5.18655
5.18655
5.18655
5.18655
5.18655
5.18655
5.18655
5.18655
5.18655
5.18655
5.18655
5.18655
5.18655
5.18655
5.18655
5.18655
5.18655
5.18655
5.18655
5.18655
5.18655
5.18655
5.18655
5.18655
5.18655
5.18655
5.18655
5.18655
5.18655
5.18655
5.18655
5.18655
5.18655
5.18655
5.18655
5.18655
5.18655
5.18655
5.18655
5.18655
5.186549999
5.186549999
5.186549999
5.186549999
5.186549998
5.186549998
5.186549997
5.186549997
5.186549996
5.186549995
5.186549995
5.186549994
5.186549994
5.186549994
5.186549994
5.186550003
5.186550001
5.186550001
5.18655
5.18655
5.18655
5.18655
5.18655
5.18655
5.18655
5.18655
5.18655
5.18655
5.18655
5.18655
5.18655
5.18655
5.18655
5.18655
5.18655
5.18655
5.18655
5.18655
5.18655
5.18655
5.18655
5.18655
5.18655
5.18655
5.18655
5.18655
5.18655
5.18655
5.18655
5.18655
5.18655
5.18655
5.18655
5.18655
5.18655
5.18655
5.18655
5.18655
5.18655
5.18655
5.18655
5.18655
5.18655
5.18655
5.18655
5.18655
5.18655
5.18655
5.18655
5.18655
5.18655
5.18655
5.18655
5.18655
5.18655
5.18655
5.18655
5.18655
5.18655
5.18655
5.18655
5.18655
5.18655
5.18655
5.18655
5.18655
5.18655
5.18655
5.18655
5.18655
5.18655
5.18655
5.18655
5.18655
5.186549999
5.186549998
5.186549996
5.186549992
5.186549987
5.186549982
5.186549978
5.186549975
5.186549967
5.186549956
5.186549943
5.186549923
5.186549902
5.186549883
5.186549865
5.186549851
5.186549842
5.186549835
5.18654983
5.186549834
5.186550003
5.186550001
5.186550001
5.18655
5.18655
5.18655
5.18655
5.18655
5.18655
5.18655
5.18655
5.18655
5.18655
5.18655
5.18655
5.18655
5.18655
5.18655
5.18655
5.18655
5.18655
5.18655
5.18655
5.18655
5.18655
5.18655
5.18655
5.18655
5.18655
5.18655
5.18655
5.18655
5.18655
5.18655
5.18655
5.18655
5.18655
5.18655
5.18655
5.18655
5.18655
5.18655
5.18655
5.18655
5.18655
5.18655
5.18655
5.18655
5.18655
5.18655
5.18655
5.18655
5.18655
5.18655
5.18655
5.18655
5.18655
5.18655
5.18655
5.18655
5.18655
5.18655
5.18655
5.18655
5.18655
5.18655
5.18655
5.18655
5.18655
5.18655
5.18655
5.18655
5.18655
5.18655
5.18655
5.186549999
5.186549998
5.186549993
5.186549985
5.18654997
5.186549935
5.186549872
5.186549752
5.186549619
5.186549504
5.186549454
5.186549378
5.186549213
5.186548966
5.186548627
5.186547769
5.186547047
5.186546514
5.18654614
5.186545918
5.186545761
5.186545696
5.186545771
5.18654607
5.186550003
5.186550001
5.186550001
5.18655
5.18655
5.18655
5.18655
5.18655
5.18655
5.18655
5.18655
5.18655
5.18655
5.18655
5.18655
5.18655
5.18655
5.18655
5.18655
5.18655
5.18655
5.18655
5.18655
5.18655
5.18655
5.18655
5.18655
5.18655
5.18655
5.18655
5.18655
5.18655
5.18655
5.18655
5.18655
5.18655
5.18655
5.18655
5.18655
5.18655
5.18655
5.18655
5.18655
5.18655
5.18655
5.18655
5.18655
5.18655
5.18655
5.18655
5.18655
5.18655
5.18655
5.18655
5.18655
5.18655
5.18655
5.18655
5.18655
5.18655
5.18655
5.18655
5.18655
5.18655
5.18655
5.18655
5.18655
5.18655
5.18655
5.18655
5.18655
5.18655
5.186549999
5.186549996
5.18654999
5.186549974
5.186549932
5.186549785
5.186549549
5.186549103
5.186548371
5.186546806
5.186543185
5.186540747
5.186540631
5.186543888
5.186543205
5.186544914
5.186547121
5.186548228
5.18655142
5.186555784
5.186562921
5.1865719
5.186582329
5.186592547
5.186603942
5.18661601
5.186622298
5.186550003
5.186550001
5.186550001
5.18655
5.18655
5.18655
5.18655
5.18655
5.18655
5.18655
5.18655
5.18655
5.18655
5.18655
5.18655
5.18655
5.18655
5.18655
5.18655
5.18655
5.18655
5.18655
5.18655
5.18655
5.18655
5.18655
5.18655
5.18655
5.18655
5.18655
5.18655
5.18655
5.18655
5.18655
5.18655
5.18655
5.18655
5.18655
5.18655
5.18655
5.18655
5.18655
5.18655
5.18655
5.18655
5.18655
5.18655
5.18655
5.18655
5.18655
5.18655
5.18655
5.18655
5.18655
5.18655
5.18655
5.18655
5.18655
5.18655
5.18655
5.18655
5.18655
5.18655
5.18655
5.18655
5.18655
5.18655
5.18655
5.186549999
5.186549998
5.186549993
5.186549984
5.18654996
5.186549868
5.186549672
5.186549243
5.186548173
5.186543103
5.186539291
5.186528688
5.186533876
5.186544205
5.186614683
5.186744723
5.186959418
5.187266639
5.187370778
5.187783173
5.188326964
5.188905717
5.189633688
5.19054892
5.191688964
5.192878929
5.19407606
5.195216889
5.19625232
5.197060592
5.197487883
5.186550003
5.186550001
5.186550001
5.186550001
5.18655
5.18655
5.18655
5.18655
5.18655
5.18655
5.18655
5.18655
5.18655
5.18655
5.18655
5.18655
5.18655
5.18655
5.18655
5.18655
5.18655
5.18655
5.18655
5.18655
5.18655
5.18655
5.18655
5.18655
5.18655
5.18655
5.18655
5.18655
5.18655
5.18655
5.18655
5.18655
5.18655
5.18655
5.18655
5.18655
5.18655
5.18655
5.18655
5.18655
5.18655
5.18655
5.18655
5.18655
5.18655
5.18655
5.18655
5.18655
5.18655
5.18655
5.18655
5.18655
5.18655
5.18655
5.18655
5.18655
5.18655
5.18655
5.18655
5.186549999
5.186549999
5.186549997
5.186549994
5.186549986
5.186549971
5.186549928
5.18654978
5.186549527
5.186548834
5.186545643
5.186540168
5.186532566
5.186519486
5.186558149
5.18683166
5.187126546
5.189042571
5.192711612
5.202554827
5.218721844
5.241551251
5.268891394
5.284023838
5.324273883
5.378171756
5.438909558
5.513131312
5.601654779
5.702581915
5.803753476
5.900056368
5.986103827
6.057299269
6.109898879
6.141281988
5.186550003
5.186550001
5.186550001
5.186550001
5.18655
5.18655
5.18655
5.18655
5.18655
5.18655
5.18655
5.18655
5.18655
5.18655
5.18655
5.18655
5.18655
5.18655
5.18655
5.18655
5.18655
5.18655
5.18655
5.18655
5.18655
5.18655
5.18655
5.18655
5.18655
5.18655
5.18655
5.18655
5.18655
5.18655
5.18655
5.18655
5.18655
5.18655
5.18655
5.18655
5.18655
5.18655
5.18655
5.18655
5.18655
5.18655
5.18655
5.18655
5.18655
5.18655
5.18655
5.18655
5.18655
5.18655
5.18655
5.18655
5.18655
5.18655
5.186549999
5.186549999
5.186549998
5.186549995
5.18654999
5.186549984
5.186549967
5.186549909
5.186549798
5.186549587
5.186549204
5.186548043
5.186543559
5.186538872
5.186521923
5.186553219
5.186638666
5.187104552
5.188737848
5.197139932
5.231346357
5.285833025
5.485961034
5.891374681
6.750565392
7.996202919
9.503290985
11.03114067
12.02652261
14.02166541
16.50632041
19.17549993
22.12644233
25.28358781
28.47951137
31.42784049
34.00456595
36.13621899
37.78379289
38.93996786
39.72876624
5.186550003
5.186550001
5.18655
5.18655
5.18655
5.18655
5.18655
5.18655
5.18655
5.18655
5.18655
5.18655
5.18655
5.18655
5.18655
5.18655
5.18655
5.18655
5.18655
5.18655
5.18655
5.18655
5.18655
5.18655
5.18655
5.18655
5.18655
5.18655
5.18655
5.18655
5.18655
5.18655
5.18655
5.18655
5.18655
5.18655
5.18655
5.18655
5.18655
5.18655
5.18655
5.18655
5.18655
5.18655
5.18655
5.18655
5.18655
5.18655
5.18655
5.18655
5.18655
5.186549999
5.186549999
5.186549999
5.186549997
5.186549996
5.186549994
5.18654999
5.186549984
5.186549969
5.186549926
5.186549847
5.186549723
5.186549552
5.186549105
5.186547029
5.186543874
5.186540698
5.186540413
5.186521026
5.186615117
5.186928186
5.18742188
5.193015686
5.210367368
5.274965291
5.485789736
6.357244114
8.982267941
12.92364467
21.83231932
35.99235351
56.52250572
79.11249785
100.8617012
119.2534827
131.2769179
151.8747557
175.8242708
199.3380029
223.0314873
246.0865221
267.4600452
285.9290547
301.2251719
313.3961525
322.6293112
329.291364
334.569963
5.186549987
5.186549985
5.186549987
5.186549988
5.186549989
5.18654999
5.186549992
5.186549993
5.186549994
5.186549994
5.186549995
5.186549997
5.186549997
5.186549998
5.186549998
5.186549998
5.186549999
5.186549999
5.186549999
5.186549999
5.186549999
5.186549999
5.186549999
5.186549999
5.186549999
5.186549999
5.186549999
5.18655
5.18655
5.186549999
5.186549999
5.18655
5.18655
5.186549999
5.186549999
5.186549999
5.186549999
5.186549999
5.186549999
5.186549999
5.186549999
5.186549999
5.186549999
5.186549998
5.186549998
5.186549997
5.186549996
5.186549995
5.186549994
5.186549989
5.186549985
5.186549979
5.18654997
5.186549952
5.186549918
5.186549876
5.186549811
5.186549725
5.186549566
5.186549195
5.186547687
5.186545244
5.186544576
5.186545276
5.186538339
5.186562645
5.186620832
5.186898235
5.187810905
5.189548973
5.203005326
5.244896419
5.33859186
5.908159955
7.589190706
12.12798063
22.60324587
49.08924828
96.6297652
147.7146478
227.6651625
325.9522058
435.7601339
536.6146062
622.4668459
689.4850533
730.0491594
802.5328014
884.0163356
957.134701
1035.466917
1114.753979
1189.948114
1255.694166
1311.26746
1357.319179
1394.542478
1424.362052
1446.326898
5.186549451
5.186549474
5.186549525
5.18654958
5.186549608
5.186549639
5.18654968
5.186549728
5.186549753
5.186549779
5.186549807
5.186549907
5.18654992
5.186549929
5.18654994
5.18654995
5.186549954
5.186549958
5.186549963
5.186549969
5.186549972
5.186549973
5.186549975
5.186549978
5.186549979
5.18654998
5.186549981
5.186549983
5.186549983
5.186549983
5.186549983
5.186549984
5.186549983
5.186549981
5.186549979
5.186549979
5.18654998
5.18654998
5.186549974
5.186549965
5.186549957
5.186549956
5.186549956
5.186549944
5.186549928
5.18654991
5.186549887
5.186549861
5.186549823
5.186549613
5.186549459
5.186549269
5.186549021
5.186548364
5.18654777
5.18654724
5.186546376
5.186548053
5.186548702
5.186545855
5.186571165
5.186602914
5.186852737
5.187333096
5.188029049
5.192137088
5.203490448
5.240973376
5.346992494
5.604906055
6.868331412
10.12045955
16.29611236
36.91207404
75.97815412
140.1271225
238.6856124
407.3573487
624.7576756
810.3711853
1075.169667
1411.312545
1786.036723
2126.936247
2415.916696
2654.898932
2774.229583
3014.361469
3281.410853
3510.062017
3681.567371
3812.383012
3920.87733
4008.220476
4078.427493
4134.940882
4179.53329
4215.64278
4237.759994
5.186557006
5.186556411
5.186555107
5.186553936
5.186553264
5.186552562
5.186551932
5.186551277
5.186550915
5.186550568
5.186550174
5.186549809
5.18654958
5.186549455
5.186549379
5.186549324
5.186549255
5.186549233
5.186549282
5.186549328
5.186549323
5.186549306
5.18654935
5.186549407
5.186549413
5.186549416
5.186549446
5.186549481
5.186549481
5.186549464
5.186549467
5.186549491
5.186549476
5.186549414
5.186549368
5.186549384
5.186549428
5.186549373
5.186549221
5.186549005
5.18654893
5.186549108
5.186549071
5.186548821
5.186548713
5.186548441
5.186548855
5.186549085
5.186548951
5.186551176
5.186551753
5.186554463
5.18656078
5.186562488
5.186601493
5.186671431
5.18677139
5.187090247
5.187490319
5.188292688
5.19222134
5.199748736
5.22916185
5.285824405
5.385544683
5.822238898
6.970485106
9.903419997
16.08363664
28.20967875
61.50511977
115.9619235
187.1055215
341.230065
545.6038452
798.5139001
1129.716205
1717.187571
2472.726154
3075.818169
3831.913756
4353.060755
4788.337196
5114.638316
5347.84067
5527.96235
5588.2244
5724.721233
5869.559064
5981.595609
6060.974959
6115.710277
6156.887196
6187.085771
6207.083696
6219.156142
6224.788054
6227.081745
6223.768949
5.188023221
5.187920385
5.187702718
5.187496288
5.187384774
5.187266183
5.187143678
5.187011002
5.186941687
5.18687387
5.186808523
5.186745997
5.186714271
5.186687515
5.186656789
5.186629271
5.186615064
5.18660409
5.186596078
5.186584371
5.186578133
5.186575262
5.186573234
5.186568644
5.186566372
5.186565054
5.186563642
5.186561977
5.186560858
5.186560705
5.186560743
5.18656039
5.186559627
5.186560939
5.186562898
5.186565035
5.186565245
5.18656274
5.186566794
5.186574071
5.186587523
5.186603107
5.186600318
5.18661244
5.186643604
5.1866715
5.186753055
5.186827923
5.186923395
5.187182143
5.187430816
5.187988987
5.189035489
5.190251434
5.195514977
5.204631953
5.218107778
5.252703809
5.301697586
5.405551074
5.811891225
6.6360997
8.925628708
12.72989112
18.49339689
34.98656304
64.84087067
113.883621
184.9959358
287.7630376
481.9171217
719.3923641
965.8196639
1514.299103
2224.657677
3085.457224
4007.657171
4824.93127
5551.74124
5975.18318
6393.908819
6623.803222
6768.853118
6850.950998
6888.988378
6918.085223
6904.184003
6914.35772
6927.931765
6933.053379
6930.224989
6922.158344
6912.509637
6901.82769
6890.803372
6879.782931
6868.142836
6856.171717
6843.109712
5.349464962
5.338385719
5.315176269
5.292959554
5.280980072
5.268213494
5.254733755
5.240103061
5.232490007
5.224941215
5.21753737
5.210433154
5.206899277
5.203801381
5.200169665
5.19688783
5.195270266
5.193960254
5.192919475
5.191457272
5.190707489
5.190390912
5.190081541
5.189455028
5.189176049
5.189015149
5.188802941
5.188560325
5.188429918
5.188440116
5.18843818
5.188359958
5.188298521
5.188543807
5.188832364
5.189049748
5.189010307
5.188801098
5.189502612
5.19067159
5.192360752
5.193916444
5.193678385
5.19551703
5.199334424
5.203245944
5.212117491
5.221055213
5.232856706
5.260119038
5.290470085
5.350740856
5.459933652
5.615915635
6.119734646
6.963251232
8.123346814
10.52938025
13.72656216
19.35906693
34.69866157
58.07057656
99.4693196
150.5132458
210.581187
335.6983431
503.688356
718.060212
975.4419267
1333.176787
2029.59862
2861.830761
3669.170851
4654.682591
5440.945172
6105.781276
6629.607908
6967.195405
7191.207348
7275.830125
7346.597042
7366.700143
7372.005837
7360.654958
7329.378746
7302.870137
7265.323579
7233.978161
7206.04588
7178.845057
7151.75809
7125.079331
7100.034993
7076.89421
7056.484143
7038.042804
7020.86896
7004.686872
6989.1061
16.20562492
15.61730556
14.34624033
13.06315622
12.34248513
11.54610413
10.66242053
9.653769437
9.107916263
8.542650001
7.96532073
7.388737254
7.096328398
6.828719746
6.507732784
6.207689013
6.060283257
5.936458833
5.834412781
5.692411111
5.618370256
5.588462431
5.555792771
5.492419737
5.464596604
5.448600602
5.426311631
5.401149251
5.38837641
5.390155545
5.389724457
5.38087943
5.37621293
5.402100443
5.432057919
5.451849294
5.446249279
5.429611511
5.503113086
5.627871028
5.793460793
5.930842606
5.91446235
6.098595008
6.449521544
6.823690369
7.542150646
8.279537676
9.199512348
11.01595939
13.03243499
16.34290456
21.47749795
28.38399781
43.9552114
64.58767824
87.12668262
123.0606216
163.0546673
219.6983238
336.687745
473.9482911
665.8964758
866.6195462
1069.401995
1530.929542
2132.148884
2885.787932
3766.793281
4491.559613
5335.005273
6053.181371
6563.823041
7035.781355
7310.943342
7481.165446
7581.974987
7634.76844
7657.803641
7632.738876
7598.291877
7557.175574
7523.380942
7489.789325
7444.931953
7406.331611
7365.004678
7325.220687
7288.36556
7254.27065
7222.382851
7192.274505
7164.295464
7138.58174
7115.031772
7093.690953
7074.218315
7056.338222
7039.732855
189.7040523
183.6266409
170.0913427
155.631632
147.0916117
137.2373042
125.5636624
111.3908649
103.0832455
94.01439191
84.01292325
73.17358783
67.23748173
61.42539959
53.98944863
46.24268299
42.20476884
38.54561155
35.30793126
30.57315213
27.87628423
26.78259961
25.47287054
22.88642884
21.69523249
20.99530607
19.96497392
18.77289671
18.17296484
18.27612202
18.25063693