/*--------------------------------*- C++ -*----------------------------------*\
| =========                 |                                                 |
| \\      /  F ield         | OpenFOAM: The Open Source CFD Toolbox           |
|  \\    /   O peration     | Version:  v1706                                 |
|   \\  /    A nd           | Web:      www.OpenFOAM.com                      |
|    \\/     M anipulation  |                                                 |
\*---------------------------------------------------------------------------*/
FoamFile
{
    version     2.0;
    format      ascii;
    class       volScalarField;
    location    "0.001";
    object      Tov;
}
// * * * * * * * * * * * * * * * * * * * * * * * * * * * * * * * * * * * * * //

dimensions      [0 0 0 1 0 0 0];


internalField   nonuniform List<scalar> 
11682
(
210
210
210
210
210
210
210
210
210
210
210
210
210
210
210
210
210
210
210
210
210
210
210
210
210
210
210
210
210
210
210
210
210
210
210
210
210
210
210
210
210
210
210
210
210
210
210
210
210
210
210
210
210
210
210
210
210
210
210
210
210
210
210
210
210
210
210
210
210
210
210
210
210
210
210
210
210
210
210
210
210
210
210
210
210
210
210
210
210
210
210
210
210
210
210
210
210
210
210
210
210
210
210
210
210
210
210
210
210
210
210
210
210
210
210
210
210
210
210
210
210
210
210
210
210
210
210
210
210
210
210
210
210
210
210
210
210
210
210
210
210
210
210
210
210
210
210
210
210
210
210
210
210
210
210
210
210
210
210
210
210
210
210
210
210
210
210
210
210
210
210
210
210
210
210
210
210
210
210
210
210
210
210
210
210
210
210
210
210
210
210
210
210
210
210
210
210
210
210
210
210
210
210
210
210
210
210
210
210
210
210
210
210
210
210
210
210
210
210
210
210
210
210
210
210
210
210
210
210
210
210
210
210
210
210
210
210
210
210
210
210
210
210
210
210
210
210
210
210
210
210
210
210
210
210
210
210
210
210
210
210
210
210
210
210
210
210
210
210
210
210
210
210
210
210
210
210
210
210
210
210
210
210
210
210
210
210
210
210
210
210
210
210
210
210
210
210
210
210
210
210
210
210
210
210
210
210
210
210
210
210
210
210
210
210
210
210
210
210
210
210
210
210
210
210
210
210
210
210
210
210
210
210
210
210
210
210
210
210
210
210
210
210
210
210
210
210
210
210
210
210
210
210
210
210
210
210
210
210
210
210
210
210
210
210
210
210
210
210
210
210
210
210
210
210
210
210
210
210
210
210
210
210
210
210
210
210
210
210
210
210
210
210
210
210
210
210
210
210
210
210
210
210
210
210
210
210
210
210
210
210
210
210
210
210
210
210
210
210
210
210
210
210
210
210
210
210
210
210
210
210
210
210
210
210
210
210
210
210
210
210
210
210
210
210
210
210
210
210
210
210
210
210
210
210
210
210
210
210
210
210
210
210
210
210
210
210
210
210
210
210
210
210
210
210
210
210
210
210
210
210
210
210
210
210
210
210
210
210
210
210
210
210
210
210
210
210
210
210
210
210
210
210
210
210
210
210
210
210
210
210
210
210
210
210
210
210
210
210
210
210
210
210
210
210
210
210
210
210
210
210
210
210
210
210
210
210
210
210
210
210
210
210
210
210
210
210
210
210
210
210
210
210
210
210
210
210
210
210
210
210
210
210
210
210
210
210
210
210
210
210
210
210
210
210
210
210
210
210
210
210
210
210
210
210
210
210
210
210
210
210
210
210
210
210
210
210
210
210
210
210
210
210
210
210
210
210
210
210
210
210
210
210
210
210
210
210
210
210
210
210
210
210
210
210
210
210
210
210
210
210
210
210
210
210
210
210
210
210
210
210
210
210
210
210
210
210
210
210
210
210
210
210
210
210
210
210
210
210
210
210
210
210
210
210
210
210
210
210
210
210
210
210
210
210
210
210
210
210
210
210
210
210
210
210
210
210
210
210
210
210
210
210
210
210
210
210
210
210
210
210
210
210
210
210
210
210
210
210
210
210
210
210
210
210
210
210
210
210
210
210
210
210
210
210
210
210
210
210
210
210
210
210
210
210
210
210
210
210
210
210
210
210
210
210
210
210
210
210
210
210
210
210
210
210
210
210
210
210
210
210
210
210
210
210
210
210
210
210
210
210
210
210
210
210
210
210
210
210
210
210
210
210
210
210
210
210
210
210
210
210
210
210
210
210
210
210
210
210
210
210
210
210
210
210
210
210
210
210
210
210
210
210
210
210
210
210
210
210
210
210
210
210
210
210
210
210
210
210
210
210
210
210
210
210
210
210
210
210
210
210
210
210
210
210
210
210
210
210
210
210
210
210
210
210
210
210
210
210
210
210
210
210
210
210
210
210
210
210
210
210
210
210
210
210
210
210
210
210
210
210
210
210
210
210
210
210
210
210
210
210
210
210
210
210
210
210
210
210
210
210
210
210
210
210
210
210
210
210
210
210
210
210
210
210
210
210
210
210
210
210
210
210
210
210
210
210
210
210
210
210
210
210
210
210
210
210
210
210
210
210
210
210
210
210
210
210
210
210
210
210
210
210
210
210
210
210
210
210
210
210
210
210
210
210
210
210
210
210
210
210
210
210
210
210
210
210
210
210
210
210
210
210
210
210
210
210
210
210
210
210
210
210
210
210
210
210
210
210
210
210
210
210
210
210
210
210
210
210
210
210
210
210
210
210
210
210
210
210
210
210
210
210
210
210
210
210
210
210
210
210
210
210
210
210
210
210
210
210
210
210
210
210
210
210
210
210
210
210
210
210
210
210
210
210
210
210
210
210
210
210
210
210
210
210
210
210
210
210
210
210
210
210
210
210
210
210
210
210
210
210
210
210
210
210
210
210
210
210
210
210
210
210
210
210
210
210
210
210
210
210
210
210
210
210
210
210
210
210
210
210
210
210
210
210
210
210
210
210
210
210
210
210
210
210
210
210
210
210
210
210
210
210
210
210
210
210
210
210
210
210
210
210
210
210
210
210
210
210
210
210
210
210
210
210
210
210
210
210
210
210
210
210
210
210
210
210
210
210
210
210
210
210
210
210
210
210
210
210
210
210
210
210
210
210
210
210
210
210
210
210
210
210
210
210
210
210
210
210
210
210
210
210
210
210
210
210
210
210
210
210
210
210
210
210
210
210
210
210
210
210
210
210
210
210
210
210
210
210
210
210
210
210
210
210
210
210
210
210
210
210
210
210
210
210
210
210
210
210
210
210
210
210
210
210
210
210
210
210
210
210
210
210
210
210
210
210
210
210
210
210
210
210
210
210
210
210
210
210
210
210
210
210
210
210
210
210
210
210
210
210
210
210
210
210
210
210
210
210
210
210
210
210
210
210
210
210
210
210
210
210
210
210
210
210
210
210
210
210
210
210
210
210
210
210
210
210
210
210
210
210
210
210
210
210
210
210
210
210
210
210
210
210
210
210
210
210
210
210
210
210
210
210
210
210
210
210
210
210
210
210
210
210
210
210
210
210
210
210
210
210
210
210
210
210
210
210
210
210
210
210
210
210
210
210
210
210
210
210
210
210
210
210
210
210
210
210
210
210
210
210
210
210
210
210
210
210
210
210
210
210
210
210
210
210
210
210
210
210
210
210
210
210
210
210
210
210
210
210
210
210
210
210
210
210
210
210
210
210
210
210
210
210
210
210
210
210
210
210
210
210
210
210
210
210
210
210
210
210
210
210
210
210
210
210
210
210
210
210
210
210
210
210
210
210
210
210
210
210
210
210
210
210
210
210
210
210
210
210
210
210
210
210
210
210
210
210
210
210
210
210
210
210
210
210
210
210
210
210
210
210
210
210
210
210
210
210
210
210
210
210
210
210
210
210
210
210
210
210
210
210
210
210
210
210
210
210
210
210
210
210
210
210
210
210
210
210
210
210
210
210
210
210
210
210
210
210
210
210
210
210
210
210
210
210
210
210
210
210
210
210
210
210
210
210
210
210
210
210
210
210
210
210
210
210
210
210
210
210
210
210
210
210
210
210
210
210
210
210
210
210
210
210
210
210
210
210
210
210
210
210
210
210
210
210
210
210
210
210
210
210
210
210
210
210
210
210
210
210
210
210
210
210
210
210
210
210
210
210
210
210
210
210
210
210
210
210
210
210
210
210
210
210
210
210
210
210
210
210
210
210
210
210
210
210
210
210
210
210
210
210
210
210
210
210
210
210
210
210
210
210
210
210
210
210
210
210
210
210
210
210
210
210
210
210
210
210
210
210
210
210
210
210
210
210
210
210
210
210
210
210
210
210
210
210
210
210
210
210
210
210
210
210
210
210
210
210
210
210
210
210
210
210
210
210
210
210
210
210
210
210
210
210
210
210
210
210
210
210
210
210
210
210
210
210
210
210
210
210
210
210
210
210
210
210
210
210
210
210
210
210
210
210
210
210
210
210
210
210
210
210
210
210
210
210
210
210
210
210
210
210
210
210
210
210
210
210
210
210
210
210
210
210
210
210
210
210
210
210
210
210
210
210
210
210
210
210
210
210
210
210
210
210
210
210
210
210
210
210
210
210
210
210
210
210
210
210
210
210
210
210
210
210
210
210
210
210
210
210
210
210
210
210
210
210
210
210
210
210
210
210
210
210
210
210
210
210
210
210
209.9999999
209.9999999
209.9999999
209.9999999
209.9999999
209.9999998
209.9999998
209.9999998
209.9999998
209.9999997
209.9999997
209.9999997
210
210
210
210
210
210
210
210
210
210
210
210
210
210
210
210
210
210
210
210
210
210
210
210
210
210
210
210
210
210
210
210
210
210
210
210
210
210
210
210
210
210
210
210
210
210
210
210
210
210
210
210
210
210
210
210
210
210
210
210
210
210
210
210
210
210
210
210
210
210
210
210
210
210
210
210
210
210
210
210
209.9999999
209.9999998
209.9999996
209.9999994
209.9999992
209.9999991
209.999999
209.9999986
209.9999981
209.9999976
209.9999968
209.9999959
209.9999951
209.9999943
209.9999937
209.9999933
209.999993
209.9999928
209.9999929
210
210
210
210
210
210
210
210
210
210
210
210
210
210
210
210
210
210
210
210
210
210
210
210
210
210
210
210
210
210
210
210
210
210
210
210
210
210
210
210
210
210
210
210
210
210
210
210
210
210
210
210
210
210
210
210
210
210
210
210
210
210
210
210
210
210
210
210
210
210
210
210
210
210
210
210
209.9999999
209.9999997
209.9999994
209.9999987
209.9999973
209.9999946
209.9999895
209.9999839
209.9999789
209.9999765
209.9999732
209.999966
209.9999554
209.999941
209.9999055
209.9998754
209.999853
209.9998371
209.9998274
209.9998199
209.9998159
209.9998181
209.9998301
210
210
210
210
210
210
210
210
210
210
210
210
210
210
210
210
210
210
210
210
210
210
210
210
210
210
210
210
210
210
210
210
210
210
210
210
210
210
210
210
210
210
210
210
210
210
210
210
210
210
210
210
210
210
210
210
210
210
210
210
210
210
210
210
210
210
210
210
210
210
210
210
209.9999999
209.9999998
209.9999996
209.9999989
209.9999972
209.999991
209.9999809
209.9999623
209.9999308
209.9998646
209.9997127
209.9996066
209.9995926
209.9997139
209.9996813
209.9997363
209.9998077
209.9998339
209.9999421
210.0000956
210.0003589
210.0006928
210.0010819
210.0014719
210.0019195
210.002401
210.0026554
210
210
210
210
210
210
210
210
210
210
210
210
210
210
210
210
210
210
210
210
210
210
210
210
210
210
210
210
210
210
210
210
210
210
210
210
210
210
210
210
210
210
210
210
210
210
210
210
210
210
210
210
210
210
210
210
210
210
210
210
210
210
210
210
210
210
210
210
210
209.9999999
209.9999997
209.9999993
209.9999983
209.9999945
209.9999863
209.9999682
209.9999231
209.9997127
209.9995443
209.9990974
209.9992527
209.9995807
210.002261
210.0072875
210.0156944
210.0278302
210.031888
210.0482056
210.0697646
210.0927329
210.121708
210.1582245
210.2037917
210.2513941
210.299407
210.3452837
210.3868793
210.4188815
210.4359576
210
210
210
210
210
210
210
210
210
210
210
210
210
210
210
210
210
210
210
210
210
210
210
210
210
210
210
210
210
210
210
210
210
210
210
210
210
210
210
210
210
210
210
210
210
210
210
210
210
210
210
210
210
210
210
210
210
210
210
210
210
210
210
210
210
209.9999999
209.9999997
209.9999994
209.9999988
209.999997
209.9999908
209.99998
209.9999511
209.9998182
209.9995885
209.9992595
209.9986768
210.00007
210.0106892
210.0220471
210.0981894
210.2446836
210.6400581
211.291152
212.2121946
213.3163884
213.9280644
215.5554105
217.7358976
220.1942291
223.1991471
226.7831068
230.8689304
234.9644766
238.8623464
242.3425438
245.2210976
247.3520102
248.6290762
210
210
210
210
210
210
210
210
210
210
210
210
210
210
210
210
210
210
210
210
210
210
210
210
210
210
210
210
210
210
210
210
210
210
210
210
210
210
210
210
210
210
210
210
210
210
210
210
210
210
210
210
210
210
210
210
210
210
210
210
209.9999999
209.9999998
209.9999996
209.9999993
209.9999986
209.9999962
209.9999915
209.9999825
209.999966
209.9999174
209.9997294
209.9995249
209.9988138
209.9999593
210.0031398
210.0213169
210.0859548
210.4224901
211.8007737
214.0013762
222.0983368
238.5036365
273.2251947
323.411828
383.8770906
444.8783245
484.4877626
563.4553318
661.1405711
765.3285939
879.606513
1000.82172
1122.43443
1233.657874
1330.067844
1409.229555
1470.066458
1512.521107
1540.708956
210
210
210
210
210
210
210
210
210
210
210
210
210
210
210
210
210
210
210
210
210
210
210
210
210
210
210
210
210
210
210
210
210
210
210
210
210
210
210
210
210
210
210
210
210
210
210
210
210
210
210
210
210
209.9999999
209.9999999
209.9999998
209.9999997
209.9999996
209.9999993
209.9999987
209.9999969
209.9999936
209.9999882
209.9999807
209.9999618
209.9998752
209.9997424
209.999601
209.9995607
209.9987231
210.0023089
210.014495
210.0336615
210.2572836
210.9548277
213.5626995
222.0914847
257.3395397
363.0125308
520.1577545
868.8524376
1407.087052
2157.091176
2945.533776
3671.604133
4261.444275
4637.75617
5262.150086
5963.752807
6629.207338
7281.768486
7900.470505
8458.009532
8926.542465
9304.100243
9596.534624
9811.593375
9960.12669
10082.34049
209.9999993
209.9999993
209.9999994
209.9999995
209.9999995
209.9999996
209.9999996
209.9999997
209.9999997
209.9999998
209.9999998
209.9999999
209.9999999
209.9999999
209.9999999
209.9999999
209.9999999
209.9999999
209.9999999
210
210
210
210
210
210
210
210
210
210
210
210
210
210
210
210
210
210
210
210
210
209.9999999
209.9999999
209.9999999
209.9999999
209.9999999
209.9999999
209.9999998
209.9999998
209.9999997
209.9999995
209.9999994
209.9999991
209.9999987
209.999998
209.9999965
209.9999947
209.9999919
209.999988
209.9999812
209.9999654
209.9999021
209.9997997
209.9997624
209.9997745
209.9994705
210.0003673
210.0025383
210.0133402
210.0494257
210.1183375
210.6587492
212.3481223
216.1356011
239.1811851
307.0361417
488.60409
898.9796664
1891.550482
3542.738382
5169.232409
7473.594283
10034.90329
12566.19989
14613.2262
16163.66697
17249.70504
17891.57667
18915.97717
19992.29743
20904.10482
21783.57119
22577.65731
23252.95346
23791.31603
24208.62907
24525.66027
24758.71954
24925.14888
25053.58145
209.9999762
209.9999773
209.9999795
209.9999819
209.9999831
209.9999845
209.9999863
209.9999884
209.9999894
209.9999906
209.9999918
209.9999959
209.9999964
209.9999968
209.9999973
209.9999978
209.999998
209.9999982
209.9999984
209.9999986
209.9999988
209.9999988
209.9999989
209.999999
209.9999991
209.9999991
209.9999992
209.9999992
209.9999993
209.9999992
209.9999992
209.9999993
209.9999993
209.9999992
209.9999991
209.9999991
209.9999991
209.9999991
209.9999989
209.9999985
209.9999981
209.999998
209.9999981
209.9999975
209.9999969
209.9999961
209.999995
209.9999939
209.9999922
209.9999835
209.999977
209.9999689
209.999958
209.9999307
209.9999041
209.999879
209.9998394
209.9998967
209.9999104
209.9997717
210.0007177
210.0018748
210.0116435
210.0305744
210.0580324
210.2222541
210.6783074
212.1899231
216.4755549
226.9109578
277.9751983
408.5995883
653.3912823
1443.133255
2847.972392
4947.787071
7811.1892
12024.8719
16392.10686
19422.59012
22766.8241
25909.43008
28408.2605
30085.21291
31176.76521
31850.95062
32142.62917
32684.68986
33209.21892
33576.79787
33802.2222
33947.01547
34048.86012
34114.55726
34152.47078
34169.70498
34170.42917
34153.76843
34119.85762
210.0002385
210.0002169
210.0001693
210.000127
210.0001026
210.0000773
210.0000552
210.0000326
210.00002
210.0000081
209.9999944
209.9999818
209.9999737
209.9999697
209.9999679
209.9999669
209.9999648
209.9999645
209.9999669
209.9999694
209.9999696
209.9999691
209.999971
209.9999737
209.9999741
209.9999743
209.9999756
209.9999772
209.9999773
209.9999765
209.9999767
209.9999777
209.9999771
209.9999745
209.9999724
209.9999729
209.9999747
209.9999726
209.999966
209.9999567
209.9999528
209.9999593
209.9999579
209.999947
209.999941
209.9999286
209.9999422
209.9999486
209.9999397
210.000022
210.0000379
210.0001333
210.0003656
210.0004069
210.0018963
210.0045978
210.0084787
210.0210474
210.0368436
210.0686311
210.225796
210.5278995
211.7134799
214.0021493
218.0353345
235.7036725
282.0950608
399.9317186
645.0511169
1114.884052
2341.853862
4189.211649
6373.510471
10507.97692
15026.80594
19404.6966
23675.25141
28553.93507
32238.59994
34110.05485
35579.5921
36272.86431
36693.33417
36904.94791
36975.73835
36942.27752
36841.14952
36763.85178
36698.08582
36607.13146
36508.69758
36410.2452
36318.36299
36232.99823
36151.28759
36072.90301
35997.88335
35925.62201
35855.23657
210.0582204
210.0541259
210.0454636
210.037258
210.0328268
210.0281204
210.0232657
210.0180194
210.0152803
210.012606
210.0100341
210.0075787
210.0063332
210.005286
210.0040876
210.0030171
210.0024645
210.0020395
210.0017314
210.0012819
210.0010426
210.0009317
210.0008555
210.0006815
210.0005949
210.0005445
210.0004916
210.0004291
210.0003865
210.0003798
210.0003814
210.0003689
210.0003391
210.0003866
210.0004599
210.0005423
210.0005518
210.0004542
210.0006033
210.000875
210.0013901
210.0019959
210.0018867
210.002347
210.0035532
210.0046296
210.0078235
210.0107543
210.0144996
210.0247279
210.0345536
210.0567325
210.0984623
210.1469554
210.3581011
210.7248264
211.2676428
212.6641486
214.6440975
218.8448777
235.284444
268.596878
360.7591203
512.5755779
739.6652073
1372.032788
2462.536981
4127.187782
6321.031054
9184.555927
13780.66281
18256.887
21957.98247
27419.68611
31749.52035
34792.62599
36692.38455
37751.36157
38342.50973
38502.4143
38463.64824
38297.01882
38095.38341
37894.30751
37691.16925
37484.09721
37296.94053
37089.27089
36884.11487
36688.76255
36507.67407
36343.29625
36196.14679
36066.29887
35951.75149
35849.83396
35757.91561
35674.28525
35599.14282
216.5751478
216.1271678
215.1889098
214.290984
213.8068596
213.2910493
212.7465508
212.1558164
211.8485329
211.5439442
211.2453126
210.9589318
210.8165462
210.6917814
210.5456116
210.4136301
210.3486179
210.2959999
210.2542279
210.195582
210.1655328
210.1528426
210.1404604
210.1153947
210.1042361
210.0978022
210.0893257
210.079639
210.0744313
210.0748294
210.0747521
210.071636
210.0691752
210.0789508
210.0904676
210.0991599
210.0975906
210.0892174
210.1172264
210.1639879
210.2317012
210.2941534
210.2845913
210.3583693
210.5118047
210.6691658
211.0265112
211.3868417
211.8630168
212.9638662
214.1903652
216.627427
221.0444115
227.3550364
247.7307613
281.8066384
328.5300848
424.9698258
552.123503
773.5571591
1361.651261
2222.565897
3655.798281
5293.77807
7075.924918
10440.16384
14309.84442
18332.61672
22179.38027
26185.94507
31117.45108
34623.0086
36709.06204
38248.33276
39099.67154
39490.18409
39507.41517
39329.45121
39058.39143
38767.47927
38376.11745
37991.83546
37636.39483
37327.24032
37055.16909
36811.16734
36614.58572
36385.9571
36160.43833
35954.23437
35767.47437
35598.83995
35446.91339
35312.56496
35194.69137
35090.55948
34997.82974
34914.76345
34842.00819
650.1979344
627.0031061
576.7734911
525.9119955
497.2739907
465.5642314
430.3041209
389.9554167
368.07698
345.3831798
322.1687155
298.9479861
287.1588321
276.3614249
263.4011651
251.2788639
245.3209363
240.3149629
236.1886278
230.445992
227.4516658
226.242052
224.9207102
222.357533
221.2321264
220.5850906
219.6834819
218.6657101
218.1491715
218.2211337
218.2036727
217.8459823
217.6573319
218.7044245
219.916304
220.7169382
220.4903722
219.8175358
222.7904843
227.8372307
234.5349892
240.0903026
239.4282011
246.8730081
261.0547388
276.1649781
305.1359778
334.8141301
371.7570276
444.4061187
524.6444429
655.4342588
856.1379572
1122.41812
1708.141959
2456.524687
3242.25429
4432.587077
5685.833063
7348.490463
10497.52691
13736.67045
17502.56684
20773.04386
23565.41921
28079.86107
32025.06129
35136.94827
37375.47613
38656.13321
39642.38378
40197.88187
40348.50615
40253.33306
40072.32869
39773.97204
39333.96602
38845.15977
38350.72668
37948.59256
37492.37395
37083.85718
36714.08074
36395.85032
36121.09622
35881.91222
35695.88404
35480.14912
35268.75347
35078.13309
34907.30119
34753.23372
34613.39878
34488.55772
34377.54156
34278.9905
34191.25183
34113.14814
34044.83922
6562.378038
6378.806382
5964.638025
5514.403501
5243.734405
4928.577488
4549.854724
4082.120494
3803.351341
3495.370795
3150.878663
2771.052925
2559.995009
2351.36319
2081.45085
1796.349125
1646.095775
1508.995805
1386.942516
1207.089326
1103.86846
1061.831489
1011.379724
911.3221565
865.0417606
837.7906478
797.5997846
750.978712
727.4743064
731.5053157
730.5039057
712.5373273
705.6907554
754.72417
809.7769385
842.2789265
831.1804746
806.8809358
930.6962456
1124.768876
1342.686772
1497.120522
1483.69339
1688.512941
2028.015344
2357.323801
2866.003592
3335.473677
3844.786045
4671.048669
5479.71279
6549.679848
7914.837562
9456.673276
12004.31705
14545.82888
16670.03192
19316.77489
21665.43548
24229.12967
28519.49532
31928.65687
35025.86938
37167.54211
38566.98066
39671.58664
40466.44155
40922.76587
41058.31076
41044.61263
40880.36342
40649.06266
40319.46139
39830.67254
39375.58537
38901.40217
38381.42658
37845.21113
37329.30079
36925.10454
36491.12317
36113.2785
35768.88156
35471.0849
35212.017
34986.72644
34813.24827
34615.15412
34422.0453
34249.02765
34095.14294
33956.81231
33830.87806
33717.95552
33616.81309
33526.47338
33445.74951
33373.67932
33310.94321
23867.86849
23554.56
22835.96083
22017.13298
21498.35613
20879.338
20096.76541
19081.98356
18432.98467
17688.22687
16798.58731
15749.98533
15116.32006
14464.54058
13557.4864
12519.42414
11921.14939
11352.94986
10809.54037
9962.18233
9427.925302
9207.693468
8926.083399
8343.998442
8059.284642
7887.133301
7619.195465
7296.885929
7135.719104
7166.559743
7157.971419
7021.374486
6983.851572
7327.921241
7698.414079
7894.913756
7815.014327
7677.276407
8441.151762
9533.930699
10582.03279
11228.59321
11180.99437
12023.49038
13285.29401
14383.01201
15854.02371
17085.83352
18291.70655
20034.50146
21580.86615
23365.12877
25427.91746
27565.70642
30557.54515
33081.96135
34877.19102
36761.35766
38182.47004
39400.4185
40406.79106
41120.41906
41546.22937
41757.59699
41780.90228
41696.12242
41589.1639
41372.79359
41011.84884
40660.08863
40210.20774
39772.07069
39340.99654
38792.65776
38298.11351
37810.95781
37318.43135
36815.57675
36333.32916
35953.76595
35554.0272
35212.25543
34900.95533
34630.96429
34393.582
34184.80945
34023.58517
33842.04665
33665.79136
33508.40331
33369.28726
33244.57487
33131.21429
33029.39805
32938.05039
32856.1131
32782.60281
32716.74176
32659.35118
40754.25664
40576.09281
40144.75972
39630.88528
39316.79237
38918.89745
38399.64444
37670.14462
37212.17778
36641.81825
35923.43485
35012.56117
34444.63189
33836.81281
32936.17197
31839.5843
31177.50694
30520.46867
29868.58635
28795.5237
28070.21142
27777.64643
27387.54475
26551.13274
26136.47709
25880.25581
25472.56427
24968.79545
24714.21695
24758.86026
24740.91606
24503.29667
24449.58745
24972.71345
25521.63682
25784.40688
25650.56154
25443.49061
26550.48202
28088.99059
29404.69368
30143.62114
30065.49591
31002.85697
32343.17516
33396.9544
34682.67511
35680.7035
36559.65728
37731.97504
38684.70534
39623.32137
40420.66759
40945.36403
41480.58234
41938.25159
42180.01311
42334.77756
42441.90163
42449.64562
42400.91826
42356.30348
42132.17468
41874.10603
41565.14694
41187.27778
40840.41962
40450.98182
40000.19232
39583.37802
39091.73685
38631.4755
38209.52924
37698.16321
37233.30271
36774.76896
36323.67632
35869.10427
35432.97428
35085.78698
34720.60514
34410.77362
34129.22028
33885.65172
33670.46881
33479.12252
33329.81671
33163.48627
33002.30226
32858.82254
32731.69179
32618.28273
32515.56983
32423.38531
32340.65779
32266.35632
32199.55147
32139.54083
32087.20874
45615.22746
45593.41296
45525.48936
45429.00895
45363.86409
45297.73935
45203.68599
45041.11341
44929.9601
44816.68933
44674.37271
44474.13414
44349.76653
44227.38356
44032.85901
43775.05925
43610.33845
43446.75841
43296.02071
43020.56778
42797.12341
42704.32934
42594.2019
42329.4971
42116.55346
41981.30432
41750.50435
41455.92485
41302.9772
41310.6699
41291.89344
41124.78352
41075.28399
41321.2405
41577.64578
41676.39847
41588.75821
41453.50037
41683.2505
42037.01911
42300.4497
42402.10266
42357.81301
42441.40982
42663.41906
42828.35563
42962.951
43087.38196
43151.12563
43219.54216
43293.01373
43291.73747
43279.00308
43267.69555
43149.39501
43053.56679
42900.49878
42650.92462
42428.00777
42143.3604
41830.70849
41580.7396
41207.22048
40848.47892
40484.22947
40057.08205
39666.10121
39259.31003
38829.63527
38436.33208
37972.6002
37538.31077
37145.94813
36684.36652
36265.69021
35847.47139
35437.42229
35027.32116
34635.22636
34321.15043
33989.34616
33707.90219
33452.28597
33232.01305
33037.47767
32863.52153
32725.82513
32573.84921
32426.92388
32295.50634
32179.01984
32075.20937
31981.38676
31897.29442
31821.86302
31754.10524
31693.1247
31638.24589
31590.41931
45665.65971
45682.06331
45708.03564
45714.97043
45716.79621
45735.62437
45749.85908
45744.64108
45726.18244
45736.116
45742.54719
45733.30976
45713.55668
45714.30227
45704.13938
45672.30414
45631.62551
45605.36395
45585.0926
45541.64176
45472.58577
45434.37611
45401.2555
45339.9484
45270.99619
45230.12548
45168.28081
45082.53133
45019.41624
44972.84432
44942.74821
44862.27207
44787.96462
44762.80764
44741.51997
44702.50837
44661.99154
44597.61486
44490.68269
44464.02222
44413.86371
44346.15559
44303.08173
44182.45151
44106.10577
44025.0065
43882.50091
43782.13187
43646.14836
43457.3345
43305.70004
43084.82712
42872.64203
42721.04372
42455.93552
42224.0914
41977.0742
41647.3635
41350.62402
41011.0845
40645.09159
40349.84209
39970.12965
39620.94487
39281.5244
38880.88738
38504.48768
38118.24131
37725.64618
37369.80857
36951.84031
36556.23798
36197.0453
35780.80342
35405.94288
35029.23883
34658.31525
34288.20378
33936.01055
33653.50011
33353.88422
33098.63777
32866.14635
32666.11418
32489.9698
32332.31472
32205.73441
32067.27205
31933.82751
31813.49635
31706.6841
31611.37852
31525.22288
31447.9999
31378.72358
31316.47733
31260.40405
31209.80754
31165.83356
44524.08906
44550.42559
44599.14855
44628.36815
44645.88866
44687.28447
44730.3411
44764.5047
44768.60617
44810.86988
44856.82682
44895.86345
44900.30445
44932.89351
44971.16696
44996.43221
44984.88665
44992.98188
45002.37315
45015.61483
44982.67075
44957.50129
44940.11258
44925.37866
44889.92818
44869.67017
44848.32737
44813.26844
44769.19335
44711.62019
44675.10509
44619.88501
44537.41223
44449.94812
44361.20234
44286.12302
44251.62316
44200.52385
44030.88737
43915.53449
43787.74352
43682.2927
43634.32691
43475.56387
43328.2205
43184.49261
42980.45339
42823.03958
42642.0098
42397.78252
42193.09283
41929.57543
41678.50272
41492.42918
41206.43038
40954.67816
40703.94356
40385.6603
40099.15698
39777.95442
39423.95561
39131.53699
38775.45817
38455.74828
38151.18513
37793.15947
37449.82307
37094.50641
36737.84331
36417.2642
36043.61636
35687.61893
35361.62713
34986.14301
34650.4988
34313.46678
33980.12137
33646.86277
33330.7505
33077.32987
32808.32407
32577.76053
32366.55587
32184.3244
32024.80337
31880.90691
31765.37671
31639.12493
31517.70931
31408.15527
31310.39624
31222.81511
31143.46952
31072.22775
31008.23465
30950.66626
30898.74079
30851.63315
30810.89348
43163.1676
43189.70047
43237.55637
43264.99415
43283.01298
43325.72545
43371.74143
43409.4899
43415.30064
43460.19617
43512.49529
43558.1806
43564.62582
43601.26106
43650.34526
43686.74882
43680.67861
43695.12615
43712.03346
43737.44588
43712.29511
43690.44327
43677.90308
43673.72038
43644.50774
43628.4939
43618.70258
43596.21975
43553.99156
43493.60036
43458.05026
43413.58204
43324.35129
43223.32628
43123.37941
43042.08659
43008.78043
42959.74723
42782.2351
42646.91812
42504.5824
42394.01095
42345.07337
42183.82045
42028.02973
41878.0676
41672.24314
41510.97619
41332.33494
41094.38397
40892.46717
40640.70665
40400.76269
40214.21076
39941.36031
39700.90814
39466.81563
39177.22978
38916.12717
38625.06796
38301.08238
38027.51748
37700.12675
37409.95984
37137.59378
36820.22775
36512.244
36190.21902
35866.76416
35577.44241
35244.10063
34926.00072
34632.68464
34295.16351
33994.77719
33694.4931
33396.97567
33098.45672
32815.47398
32588.53675
32348.16689
32140.83894
31949.59698
31783.47668
31638.77292
31506.66974
31400.95517
31285.65648
31175.33053
31075.67912
30986.29612
30905.79328
30832.59073
30766.65419
30707.27449
30653.72778
30605.3376
30561.51065
30522.81117
41856.72664
41881.46505
41923.93798
41945.63726
41961.00181
42000.66923
42044.19776
42077.90175
42081.05911
42121.6778
42171.35976
42212.96779
42216.64599
42249.6404
42297.6206
42332.45222
42326.16864
42338.65336
42355.13799
42379.80378
42355.55517
42334.09165
42322.01193
42317.81784
42287.58556
42270.70174
42261.61889
42240.64536
42197.03474
42136.65413
42102.84233
42063.86799
41973.56124
41873.71722
41778.54338
41700.91512
41667.48464
41619.27675
41451.44142
41316.19823
41177.96299
41071.71404
41023.15291
40870.6501
40722.12882
40580.42233
40388.24569
40235.57446
40069.53074
39850.00364
39661.81371
39430.64246
39209.56709
39035.0929
38784.29957
38562.10818
38348.04273
38087.37484
37852.90443
37592.96105
37300.28841
37048.98638
36749.86534
36485.90082
36241.17184
35959.86668
35685.86844
35397.68417
35106.15141
34845.26088
34548.34799
34265.55436
34003.80239
33702.57156
33434.6473
33168.18245
32904.40439
32638.88761
32386.79136
32183.94692
31970.01649
31784.25432
31611.71038
31460.97736
31328.39901
31206.92324
31109.34463
31004.06744
30903.79768
30812.91461
30730.99693
30656.83374
30589.11374
30527.86962
30472.51904
30422.44502
30376.98386
30336.25792
30298.89983
40668.46819
40690.7036
40726.75249
40742.46934
40754.77134
40790.25898
40829.89294
40858.20064
40858.26257
40892.98974
40937.83507
40973.33701
40973.36174
41000.83743
41044.49079
41074.77334
41066.51389
41074.96692
41088.58919
41109.00804
41083.47395
41060.64048
41048.00011
41041.72498
41010.01187
40991.40352
40981.40269
40960.85743
40916.31732
40856.40784
40824.33899
40789.34143
40700.9123
40604.31513
40515.47579
40443.28539
40409.88587
40363.40363
40209.01752
40080.81524
39952.70378
39853.2051
39806.29875
39664.69752
39526.58265
39396.61341
39221.26458
39079.84144
38927.93835
38728.01884
38555.61161
38345.99008
38144.08535
37983.16671
37754.62399
37550.4889
37355.3053
37120.51682
36910.1835