/*--------------------------------*- C++ -*----------------------------------*\
| =========                 |                                                 |
| \\      /  F ield         | OpenFOAM: The Open Source CFD Toolbox           |
|  \\    /   O peration     | Version:  v1706                                 |
|   \\  /    A nd           | Web:      www.OpenFOAM.com                      |
|    \\/     M anipulation  |                                                 |
\*---------------------------------------------------------------------------*/
FoamFile
{
    version     2.0;
    format      ascii;
    class       volScalarField;
    location    "0.001";
    object      Tt;
}
// * * * * * * * * * * * * * * * * * * * * * * * * * * * * * * * * * * * * * //

dimensions      [0 0 0 1 0 0 0];


internalField   nonuniform List<scalar> 
11682
(
210
210
210
210
210
210
210
210
210
210
210
210
210
210
210
210
210
210
210
210
210
210
210
210
210
210
210
210
210
210
210
210
210
210
210
210
210
210
210
210
210
210
210
210
210
210
210
210
210
210
210
210
210
210
210
210
210
210
210
210
210
210
210
210
210
210
210
210
210
210
210
210
210
210
210
210
210
210
210
210
210
210
210
210
210
210
210
210
210
210
210
210
210
210
210
210
210
210
210
210
210
210
210
210
210
210
210
210
210
210
210
210
210
210
210
210
210
210
210
210
210
210
210
210
210
210
210
210
210
210
210
210
210
210
210
210
210
210
210
210
210
210
210
210
210
210
210
210
210
210
210
210
210
210
210
210
210
210
210
210
210
210
210
210
210
210
210
210
210
210
210
210
210
210
210
210
210
210
210
210
210
210
210
210
210
210
210
210
210
210
210
210
210
210
210
210
210
210
210
210
210
210
210
210
210
210
210
210
210
210
210
210
210
210
210
210
210
210
210
210
210
210
210
210
210
210
210
210
210
210
210
210
210
210
210
210
210
210
210
210
210
210
210
210
210
210
210
210
210
210
210
210
210
210
210
210
210
210
210
210
210
210
210
210
210
210
210
210
210
210
210
210
210
210
210
210
210
210
210
210
210
210
210
210
210
210
210
210
210
210
210
210
210
210
210
210
210
210
210
210
210
210
210
210
210
210
210
210
210
210
210
210
210
210
210
210
210
210
210
210
210
210
210
210
210
210
210
210
210
210
210
210
210
210
210
210
210
210
210
210
210
210
210
210
210
210
210
210
210
210
210
210
210
210
210
210
210
210
210
210
210
210
210
210
210
210
210
210
210
210
210
210
210
210
210
210
210
210
210
210
210
210
210
210
210
210
210
210
210
210
210
210
210
210
210
210
210
210
210
210
210
210
210
210
210
210
210
210
210
210
210
210
210
210
210
210
210
210
210
210
210
210
210
210
210
210
210
210
210
210
210
210
210
210
210
210
210
210
210
210
210
210
210
210
210
210
210
210
210
210
210
210
210
210
210
210
210
210
210
210
210
210
210
210
210
210
210
210
210
210
210
210
210
210
210
210
210
210
210
210
210
210
210
210
210
210
210
210
210
210
210
210
210
210
210
210
210
210
210
210
210
210
210
210
210
210
210
210
210
210
210
210
210
210
210
210
210
210
210
210
210
210
210
210
210
210
210
210
210
210
210
210
210
210
210
210
210
210
210
210
210
210
210
210
210
210
210
210
210
210
210
210
210
210
210
210
210
210
210
210
210
210
210
210
210
210
210
210
210
210
210
210
210
210
210
210
210
210
210
210
210
210
210
210
210
210
210
210
210
210
210
210
210
210
210
210
210
210
210
210
210
210
210
210
210
210
210
210
210
210
210
210
210
210
210
210
210
210
210
210
210
210
210
210
210
210
210
210
210
210
210
210
210
210
210
210
210
210
210
210
210
210
210
210
210
210
210
210
210
210
210
210
210
210
210
210
210
210
210
210
210
210
210
210
210
210
210
210
210
210
210
210
210
210
210
210
210
210
210
210
210
210
210
210
210
210
210
210
210
210
210
210
210
210
210
210
210
210
210
210
210
210
210
210
210
210
210
210
210
210
210
210
210
210
210
210
210
210
210
210
210
210
210
210
210
210
210
210
210
210
210
210
210
210
210
210
210
210
210
210
210
210
210
210
210
210
210
210
210
210
210
210
210
210
210
210
210
210
210
210
210
210
210
210
210
210
210
210
210
210
210
210
210
210
210
210
210
210
210
210
210
210
210
210
210
210
210
210
210
210
210
210
210
210
210
210
210
210
210
210
210
210
210
210
210
210
210
210
210
210
210
210
210
210
210
210
210
210
210
210
210
210
210
210
210
210
210
210
210
210
210
210
210
210
210
210
210
210
210
210
210
210
210
210
210
210
210
210
210
210
210
210
210
210
210
210
210
210
210
210
210
210
210
210
210
210
210
210
210
210
210
210
210
210
210
210
210
210
210
210
210
210
210
210
210
210
210
210
210
210
210
210
210
210
210
210
210
210
210
210
210
210
210
210
210
210
210
210
210
210
210
210
210
210
210
210
210
210
210
210
210
210
210
210
210
210
210
210
210
210
210
210
210
210
210
210
210
210
210
210
210
210
210
210
210
210
210
210
210
210
210
210
210
210
210
210
210
210
210
210
210
210
210
210
210
210
210
210
210
210
210
210
210
210
210
210
210
210
210
210
210
210
210
210
210
210
210
210
210
210
210
210
210
210
210
210
210
210
210
210
210
210
210
210
210
210
210
210
210
210
210
210
210
210
210
210
210
210
210
210
210
210
210
210
210
210
210
210
210
210
210
210
210
210
210
210
210
210
210
210
210
210
210
210
210
210
210
210
210
210
210
210
210
210
210
210
210
210
210
210
210
210
210
210
210
210
210
210
210
210
210
210
210
210
210
210
210
210
210
210
210
210
210
210
210
210
210
210
210
210
210
210
210
210
210
210
210
210
210
210
210
210
210
210
210
210
210
210
210
210
210
210
210
210
210
210
210
210
210
210
210
210
210
210
210
210
210
210
210
210
210
210
210
210
210
210
210
210
210
210
210
210
210
210
210
210
210
210
210
210
210
210
210
210
210
210
210
210
210
210
210
210
210
210
210
210
210
210
210
210
210
210
210
210
210
210
210
210
210
210
210
210
210
210
210
210
210
210
210
210
210
210
210
210
210
210
210
210
210
210
210
210
210
210
210
210
210
210
210
210
210
210
210
210
210
210
210
210
210
210
210
210
210
210
210
210
210
210
210
210
210
210
210
210
210
210
210
210
210
210
210
210
210
210
210
210
210
210
210
210
210
210
210
210
210
210
210
210
210
210
210
210
210
210
210
210
210
210
210
210
210
210
210
210
210
210
210
210
210
210
210
210
210
210
210
210
210
210
210
210
210
210
210
210
210
210
210
210
210
210
210
210
210
210
210
210
210
210
210
210
210
210
210
210
210
210
210
210
210
210
210
210
210
210
210
210
210
210
210
210
210
210
210
210
210
210
210
210
210
210
210
210
210
210
210
210
210
210
210
210
210
210
210
210
210
210
210
210
210
210
210
210
210
210
210
210
210
210
210
210
210
210
210
210
210
210
210
210
210
210
210
210
210
210
210
210
210
210
210
210
210
210
210
210
210
210
210
210
210
210
210
210
210
210
210
210
210
210
210
210
210
210
210
210
210
210
210
210
210
210
210
210
210
210
210
210
210
210
210
210
210
210
210
210
210
210
210
210
210
210
210
210
210
210
210
210
210
210
210
210
210
210
210
210
210
210
210
210
210
210
210
210
210
210
210
210
210
210
210
210
210
210
210
210
210
210
210
210
210
210
210
210
210
210
210
210
210
210
210
210
210
210
210
210
210
210
210
210
210
210
210
210
210
210
210
210
210
210
210
210
210
210
210
210
210
210
210
210
210
210
210
210
210
210
210
210
210
210
210
210
210
210
210
210
210
210
210
210
210
210
210
210
210
210
210
210
210
210
210
210
210
210
210
210
210
210
210
210
210
210
210
210
210
210
210
210
210
210
210
210
210
210
210
210
210
210
210
210
210
210
210
210
210
210
210
210
210
210
210
210
210
210
210
210
210
210
210
210
210
210
210
210
210
210
210
210
210
210
210
210
210
210
210
210
210
210
210
210
210
210
210
210
210
210
210
210
210
210
210
210
210
210
210
210
210
210
210
210
210
210
210
210
210
210
210
210
210
210
210
210
210
210
210
210
210
210
210
210
210
210
210
210
210
210
210
210
210
210
210
210
210
210
210
210
210
210
210
210
210
210
210
210
210
210
210
210
210
210
210
210
210
210
210
210
210
210
210
210
210
210
210
210
210
210
210
210
210
210
210
210
210
210
210
210
210
210
210
210
210
210
210
210
210
210
210
210
210
210
210
210
210
210
210
210
210
210
210
210
210
210
210
210
210
210
210
210
210
210
210
210
210
210
210
210
210
210
210
210
210
210
210
210
210
210
210
210
210
210
210
210
210
210
210
210
210
210
210
210
210
210
210
210
210
210
210
210
210
210
210
210
210
210
210
210
210
210
210
210
210
210
210
210
210
210
210
210
210
210
210
210
210
210
210
210
210
210
210
210
210
210
210
210
210
210
210
210
210
210
210
210
210
210
210
210
210
210
210
210
210
210
210
210
210
210
210
210
210
210
210
210
210
210
210
210
210
210
210
210
210
210
210
210
210
210
210
210
210
210
210
209.9999999
209.9999999
209.9999999
209.9999999
209.9999999
209.9999998
209.9999998
209.9999998
209.9999998
209.9999997
209.9999997
209.9999997
210
210
210
210
210
210
210
210
210
210
210
210
210
210
210
210
210
210
210
210
210
210
210
210
210
210
210
210
210
210
210
210
210
210
210
210
210
210
210
210
210
210
210
210
210
210
210
210
210
210
210
210
210
210
210
210
210
210
210
210
210
210
210
210
210
210
210
210
210
210
210
210
210
210
210
210
210
210
210
210
209.9999999
209.9999998
209.9999996
209.9999994
209.9999992
209.9999991
209.999999
209.9999986
209.9999981
209.9999976
209.9999968
209.9999959
209.9999951
209.9999943
209.9999937
209.9999933
209.999993
209.9999928
209.9999929
210
210
210
210
210
210
210
210
210
210
210
210
210
210
210
210
210
210
210
210
210
210
210
210
210
210
210
210
210
210
210
210
210
210
210
210
210
210
210
210
210
210
210
210
210
210
210
210
210
210
210
210
210
210
210
210
210
210
210
210
210
210
210
210
210
210
210
210
210
210
210
210
210
210
210
210
209.9999999
209.9999997
209.9999994
209.9999987
209.9999973
209.9999946
209.9999895
209.9999839
209.9999789
209.9999765
209.9999732
209.999966
209.9999553
209.999941
209.9999055
209.9998754
209.9998529
209.999837
209.9998273
209.9998198
209.9998157
209.9998179
209.9998299
210
210
210
210
210
210
210
210
210
210
210
210
210
210
210
210
210
210
210
210
210
210
210
210
210
210
210
210
210
210
210
210
210
210
210
210
210
210
210
210
210
210
210
210
210
210
210
210
210
210
210
210
210
210
210
210
210
210
210
210
210
210
210
210
210
210
210
210
210
210
210
210
209.9999999
209.9999998
209.9999996
209.9999989
209.9999972
209.999991
209.9999809
209.9999623
209.9999307
209.9998645
209.9997125
209.9996062
209.9995919
209.9997128
209.9996801
209.9997345
209.9998052
209.9998306
209.9999378
210.0000902
210.000352
210.0006845
210.0010722
210.0014609
210.0019072
210.0023877
210.002641
210
210
210
210
210
210
210
210
210
210
210
210
210
210
210
210
210
210
210
210
210
210
210
210
210
210
210
210
210
210
210
210
210
210
210
210
210
210
210
210
210
210
210
210
210
210
210
210
210
210
210
210
210
210
210
210
210
210
210
210
210
210
210
210
210
210
210
210
210
209.9999999
209.9999997
209.9999993
209.9999983
209.9999945
209.9999863
209.9999682
209.999923
209.9997125
209.9995437
209.9990964
209.9992493
209.9995732
210.0022435
210.0072539
210.0156372
210.0277428
210.0317857
210.0480521
210.0695379
210.0924222
210.1212887
210.1576671
210.2030628
210.2504815
210.2983047
210.3439971
210.3854235
210.4172845
210.4342374
210
210
210
210
210
210
210
210
210
210
210
210
210
210
210
210
210
210
210
210
210
210
210
210
210
210
210
210
210
210
210
210
210
210
210
210
210
210
210
210
210
210
210
210
210
210
210
210
210
210
210
210
210
210
210
210
210
210
210
210
210
210
210
210
210
209.9999999
209.9999997
209.9999994
209.9999988
209.999997
209.9999908
209.99998
209.9999511
209.9998181
209.9995883
209.9992585
209.9986737
210.0000582
210.0106442
210.0219523
210.0978531
210.2437996
210.6375642
211.2855685
212.2017082
213.2995585
213.9072672
215.5238419
217.689105
220.1297328
223.1129803
226.6714986
230.7288159
234.7960928
238.6671727
242.1232795
244.981203
247.0951863
248.3604633
210
210
210
210
210
210
210
210
210
210
210
210
210
210
210
210
210
210
210
210
210
210
210
210
210
210
210
210
210
210
210
210
210
210
210
210
210
210
210
210
210
210
210
210
210
210
210
210
210
210
210
210
210
210
210
210
210
210
210
210
209.9999999
209.9999998
209.9999996
209.9999993
209.9999986
209.9999962
209.9999915
209.9999825
209.999966
209.9999174
209.9997292
209.9995243
209.9988124
209.999952
210.0031167
210.0212329
210.0856435
210.4209085
211.7926716
213.9802197
222.0255186
238.3286437
272.8663464
322.87243
383.2591295
444.336048
484.0763745
563.5058233
662.120418
767.7224509
884.0315178
1007.920543
1132.732698
1247.327993
1347.008789
1429.110158
1492.383513
1536.663429
1566.127811
210
210
210
210
210
210
210
210
210
210
210
210
210
210
210
210
210
210
210
210
210
210
210
210
210
210
210
210
210
210
210
210
210
210
210
210
210
210
210
210
210
210
210
210
210
210
210
210
210
210
210
210
210
209.9999999
209.9999999
209.9999998
209.9999997
209.9999996
209.9999993
209.9999987
209.9999969
209.9999936
209.9999882
209.9999807
209.9999618
209.9998751
209.9997422
209.9996005
209.9995592
209.9987195
210.0022929
210.0144421
210.0335231
210.2564247
210.9510086
213.5448233
222.0207281
257.0684699
362.4312643
519.9795559
873.024612
1426.022912
2210.750661
3052.015161
3840.71901
4491.006893
4910.213431
5612.14338
6409.938376
7174.888705
7931.447099
8654.578281
9311.522332
9867.818513
10319.3557
10671.61675
10932.76214
11114.94277
11264.60023
209.9999993
209.9999993
209.9999994
209.9999995
209.9999995
209.9999996
209.9999996
209.9999997
209.9999997
209.9999998
209.9999998
209.9999999
209.9999999
209.9999999
209.9999999
209.9999999
209.9999999
209.9999999
209.9999999
210
210
210
210
210
210
210
210
210
210
210
210
210
210
210
210
210
210
210
210
210
209.9999999
209.9999999
209.9999999
209.9999999
209.9999999
209.9999999
209.9999998
209.9999998
209.9999997
209.9999995
209.9999994
209.9999991
209.9999987
209.999998
209.9999965
209.9999947
209.9999919
209.999988
209.9999812
209.9999654
209.999902
209.9997996
209.999762
209.9997736
209.9994688
210.0003617
210.0025233
210.0132931
210.0492781
210.1179422
210.6563876
212.3376288
216.1024972
239.0135061
306.5765429
488.2887272
903.7026211
1930.472384
3696.526956
5496.774503
8130.07697
11146.07229
14218.66987
16773.23874
18750.7302
20159.13634
21000.98896
22348.31581
23772.92593
24989.0144
26158.65694
27215.99579
28119.18079
28843.34703
29408.21766
29840.26475
30160.53139
30391.22155
30568.99914
209.9999762
209.9999773
209.9999795
209.9999819
209.9999831
209.9999845
209.9999863
209.9999884
209.9999894
209.9999906
209.9999918
209.9999959
209.9999964
209.9999968
209.9999973
209.9999978
209.999998
209.9999982
209.9999984
209.9999986
209.9999988
209.9999988
209.9999989
209.999999
209.9999991
209.9999991
209.9999992
209.9999992
209.9999993
209.9999992
209.9999992
209.9999993
209.9999993
209.9999992
209.9999991
209.9999991
209.9999991
209.9999991
209.9999989
209.9999985
209.9999981
209.999998
209.9999981
209.9999975
209.9999969
209.9999961
209.999995
209.9999939
209.9999922
209.9999835
209.999977
209.9999688
209.999958
209.9999307
209.999904
209.9998788
209.9998391
209.9998961
209.9999094
209.9997698
210.0007124
210.0018637
210.0116076
210.0304906
210.0578591
210.2215964
210.6759765
212.1805365
216.4420851
226.8160606
277.627047
408.0694689
654.3701846
1462.856621
2943.910682
5244.226143
8510.33001
13526.16712
18985.60021
22914.92137
27337.91619
31532.23308
34934.54233
37268.38607
38819.36423
39797.74722
40237.21816
41035.40594
41809.84943
42361.62875
42711.15402
42942.62639
43109.03416
43220.46873
43289.60171
43327.11526
43339.45186
43325.96429
43286.85779
210.0002373
210.0002158
210.0001683
210.0001262
210.0001019
210.0000767
210.0000547
210.0000322
210.0000197
210.0000078
209.9999941
209.9999817
209.9999736
209.9999695
209.9999678
209.9999668
209.9999647
209.9999644
209.9999668
209.9999694
209.9999696
209.999969
209.999971
209.9999736
209.999974
209.9999743
209.9999756
209.9999771
209.9999773
209.9999765
209.9999767
209.9999777
209.9999771
209.9999744
209.9999724
209.9999729
209.9999747
209.9999726
209.999966
209.9999566
209.9999527
209.9999592
209.9999579
209.9999469
209.9999409
209.9999284
209.999942
209.9999483
209.9999393
210.0000214
210.000037
210.000132
210.0003633
210.0004037
210.0018888
210.0045829
210.0084543
210.0209934
210.0367494
210.0684429
210.2251732
210.526243
211.706815
213.9837019
217.9933499
235.5631914
281.7413632
399.4068992
645.9505864
1124.410292
2403.899639
4400.352853
6849.541194
11677.55092
17221.10486
22841.40974
28476.59487
35026.6326
40150.02003
42843.63324
45019.54803
46089.12972
46749.73778
47093.92235
47226.56618
47204.98732
47079.79011
46991.11405
46915.09134
46800.78465
46673.50383
46544.42388
46423.19149
46309.93874
46200.95747
46095.94384
45995.05517
45897.51383
45802.04312
210.0581033
210.0540173
210.0453723
210.0371829
210.0327603
210.0280631
210.0232181
210.0179821
210.0152483
210.0125794
210.0100127
210.0075622
210.0063192
210.0052741
210.0040782
210.0030099
210.0024584
210.0020342
210.0017269
210.0012784
210.0010395
210.0009289
210.0008528
210.0006793
210.0005928
210.0005426
210.0004898
210.0004275
210.0003849
210.0003783
210.0003799
210.0003674
210.0003377
210.000385
210.0004581
210.0005403
210.0005498
210.0004524
210.0006009
210.0008717
210.0013856
210.0019904
210.0018814
210.0023403
210.0035437
210.0046173
210.0078043
210.0107285
210.0144646
210.0246707
210.0344729
210.0566002
210.0982306
210.1465893
210.3571441
210.7225415
211.2632876
212.6531513
214.6225964
218.7993218
235.1498679
268.3062644
360.2407598
512.4293182
741.7201758
1389.015972
2531.110202
4330.365553
6786.291177
10097.99572
15646.21264
21315.98883
26161.34065
33419.17722
39352.45325
43686.388
46493.07528
48123.18113
49053.35434
49331.40037
49328.58458
49134.33774
48889.11443
48641.3417
48387.17359
48123.6495
47877.18811
47614.02408
47357.09346
47110.44626
46879.51317
46668.30847
46478.52904
46310.06503
46160.47428
46026.42335
45904.57134
45792.70681
45690.69925
216.5478123
216.1020006
215.168125
214.2743202
213.7923716
213.2788601
212.7367525
212.148519
211.842481
211.5391061
211.2416257
210.9562766
210.8143699
210.6900105
210.5442921
210.4126834
210.3478394
210.2953532
210.2536846
210.1951755
210.1651907
210.1525266
210.140172
210.1151595
210.1040236
210.0976028
210.0891444
210.0794778
210.0742801
210.0746762
210.0745992
210.0714899
210.0690329
210.0787858
210.0902773
210.0989521
210.0973875
210.0890294
210.1169723
210.1636226
210.2311745
210.2934775
210.2839381
210.3575005
210.5104714
210.6673026
211.0233409
211.3822025
211.8562528
212.9518863
214.1721368
216.5961919
220.9892223
227.2665609
247.5405327
281.4649385
328.0682933
424.5047246
552.2325405
776.0976521
1378.163695
2276.551729
3813.379523
5623.2097
7645.258506
11575.28068
16282.68125
21387.59445
26419.0252
31718.84789
38401.36018
43331.47029
46370.1854
48704.4813
50017.80074
50655.60573
50751.2018
50571.91889
50276.24014
49942.87866
49496.22159
49046.13591
48628.88154
48259.7252
47927.34147
47622.80594
47363.72782
47078.3301
46798.97333
46539.55801
46300.3521
46081.23633
45882.0705
45704.13686
45546.58632
45406.11183
45279.84795
45165.57596
45063.74466
651.2291138
627.809814
577.1534786
525.9465996
497.1536196
465.3072583
429.9388047
389.5225798
367.6328147
344.9488304
321.7659691
298.5967098
286.8409793
276.0790036
263.166425
251.0927375
245.159765
240.1756071
236.0678481
230.3515472
227.3707875
226.1667282
224.8516307
222.300653
221.1806883
220.5368018
219.639689
218.6269394
218.1128895
218.1843122
218.1669397
217.8110126
217.623116
218.6646209
219.8701759
220.6666709
220.4413054
219.7717362
222.729235
227.750719
234.416075
239.9452936
239.2862633
246.695253
260.8138881
275.8635938
304.738953
334.3523869
371.2626403
444.0088381
524.5984814
656.4736128
859.99726
1131.924623
1737.099864
2523.750019
3364.039435
4664.201551
6061.668087
7954.677247
11633.59402
15553.18036
20296.7828
24535.2671
28221.56238
34209.10048
39582.73878
43976.89184
47239.59582
49163.45224
50693.92326
51576.23465
51860.64321
51811.87593
51642.65298
51334.11678
50852.52028
50321.33014
49785.20516
49328.75645
48813.08092
48331.70835
47888.75597
47495.86137
47146.30323
46835.30063
46579.77017
46298.70672
46024.76023
45773.73795
45544.63306
45334.83045
45142.44716
44968.71895
44812.62629
44672.78009
44547.19585
44434.39309
44334.14872
7023.388044
6815.99097
6350.555139
5847.491561
5546.577673
5197.437777
4779.987213
4267.934631
3964.737351
3631.176056
3260.255087
2854.290124
2630.13865
2409.499881
2125.602299
1827.694987
1671.532191
1529.514247
1403.48172
1218.466226
1112.681678
1069.67859
1018.128827
916.0989149
869.0006136
841.2970395
800.4790258
753.1931169
729.3791971
733.4618637
732.4474914
714.2538568
707.3226515
756.9907578
812.8502795
845.8748649
834.5950283
809.9109269
935.8773357
1134.211557
1358.156555
1517.651855
1503.757819
1716.245596
2070.830588
2417.578374
2958.640523
3463.329952
4016.413275
4924.840846
5825.538568
7034.468902
8599.51133
10391.2351
13424.77825
16541.45339
19218.23139
22620.93496
25683.59821
29071.09794
34752.18224
39374.68026
43730.54717
46821.46065
48888.54892
50579.39754
51805.43785
52547.24099
52823.87214
52869.75152
52729.78021
52513.21506
52169.35087
51659.8304
51188.36262
50693.23314
50129.59209
49537.43037
48955.95189
48472.52554
47954.2144
47483.14161
47044.27251
46652.32308
46300.48645
45988.13468
45736.06728
45460.57753
45192.8088
44949.45538
44729.6332
44529.41129
44345.43732
44178.78188
44028.12509
43892.47681
43770.38919
43660.59311
43563.8024
28335.05893
27925.23046
26990.17495
25929.45109
25260.7512
24462.06051
23455.86682
22158.1774
21334.31102
20388.40449
19264.21952
17950.58129
17164.26762
16358.24258
15245.89678
13987.13065
13269.8624
12591.70777
11946.94531
10949.05115
10326.39987
10070.51198
9743.812592
9071.367229
8743.607246
8545.787351
8238.194898
7869.783313
7686.299955
7722.39085
7712.671823
7557.351471
7515.873417
7910.008697
8335.708566
8562.745682
8471.036756
8312.642942
9194.938056
10466.46549
11700.73307
12470.96151
12414.02084
13427.34771
14960.5896
16312.5771
18153.61736
19713.52121
21257.41365
23511.31581
25525.65257
27875.77006
30600.40849
33419.19733
37440.88813
40905.22224
43437.36778
46146.09367
48211.14083
50015.38361
51554.21934
52646.96918
53356.44859
53733.33981
53829.5544
53785.59158
53713.97754
53515.24984
53143.78626
52782.57276
52330.50762
51892.5044
51443.43297
50870.25277
50336.3346
49797.3553
49233.49372
48640.21279
48053.80468
47563.08161
47044.20047
46583.42601
46154.87801
45772.21753
45426.06841
45115.87574
44867.47697
44596.26531
44332.97373
44095.05697
43882.22326
43689.47764
43513.01652
43353.28187
43208.97502
43078.75853
42961.32249
42855.57489
42762.64342
51469.21919
51209.47946
50587.27608
49850.659
49400.68383
48828.34991
48083.82072
47047.87376
46400.48956
45591.81392
44577.96706
43306.70683
42522.13698
41681.05978
40444.49092
38954.6466
38066.32921
37184.94214
36313.60393
34888.29226
33937.73761
33554.25668
33042.19194
31946.37129
31402.63088
31066.14747
30528.80408
29868.09369
29536.98492
29601.48112
29578.54819
29269.28324
29207.71807
29904.5731
30634.34157
30987.57292
30812.47534
30540.39796
32007.81962
34037.48832
35789.92484
36786.29264
36682.21632
37960.03393
39791.07994
41247.28835
43054.9203
44468.34818
45730.58644
47429.98634
48813.80695
50201.6148
51396.12943
52189.30392
53041.48624
53765.48243
54175.83717
54472.72703
54679.69241
54750.06397
54752.09168
54754.4526
54542.55365
54291.7227
53970.40415
53588.26195
53250.24345
52869.79305
52413.63758
51977.71039
51466.76062
50977.87053
50511.23953
49942.46931
49400.06858
48845.89416
48282.39223
47697.1364
47116.8781
46628.31776
46108.86828
45653.44377
45231.66325
44858.08176
44520.59071
44215.94736
43972.49694
43705.52184
43446.02
43212.89353
43004.54285
42817.42206
42647.12118
42493.53473
42355.1446
42230.43694
42118.00555
42016.76846
41928.19073
58923.2237
58883.90436
58770.78663
58616.77249
58514.15399
58404.01352
58250.03865
57995.74185
57824.96181
57642.15491
57412.25219
57098.01386
56905.84241
56710.39519
56404.19027
56007.05383
55760.20043
55511.58269
55279.78673
54863.21239
54539.5912
54405.23686
54242.0617
53852.06847
53548.80224
53354.90647
53022.47109
52601.41613
52386.49801
52407.4689
52382.20715
52147.93054
52091.77987
52462.95829
52846.3216
53000.98771
52877.9254
52686.8163
53064.60747
53607.58632
54019.96202
54193.48562
54130.81804
54295.22496
54656.8832
54928.54748
55176.0491
55391.69659
55522.2418
55673.3771
55816.53738
55863.50786
55892.03558
55909.61245
55804.08472
55731.51347
55581.46093
55324.76839
55101.08202
54809.2085
54508.2218
54279.55288
53919.84226
53569.52026
53192.06772
52751.67952
52346.86842
51922.96735
51465.41925
51027.76466
50505.97006
50000.36987
49524.56018
48961.1828
48425.31785
47868.25927
47303.03135
46720.5491
46145.21997
45662.72441
45144.62292
44692.90399
44275.39971
43909.16062
43580.93893
43284.546
43047.77419
42786.27313
42531.89421
42302.94495
42099.07758
41916.79693
41751.61245
41603.32684
41470.20464
41350.5917
41242.95694
41146.14839
41062.03142
59529.86052
59539.90503
59550.47172
59534.7693
59522.25874
59526.71725
59520.40177
59483.42367
59442.10869
59432.84553
59415.01109
59374.76213
59334.20741
59318.09839
59280.75244
59213.02492
59146.30411
59097.53927
59057.06219
58978.33519
58874.88558
58818.90357
58767.57206
58670.29715
58569.32354
58508.3613
58414.3666
58286.80858
58197.07765
58138.12603
58096.8678
57982.65395
57886.4436
57868.66315
57855.50278
57811.16798
57753.34407
57661.5112
57542.73505
57533.22677
57488.88326
57411.89797
57350.98272
57209.95992
57137.37808
57054.1747
56901.81182
56800.44862
56653.07001
56457.28252
56305.73244
56076.49898
55863.65155
55713.6967
55450.82937
55233.29274
54988.02148
54657.9611
54354.27044
54000.89432
53633.57336
53337.14312
52953.95949
52594.82239
52225.11253
51783.39536
51356.9144
50912.73871
50454.02541
50021.14308
49503.49625
48993.70354
48511.35273
47945.7132
47413.95149
46858.41023
46292.19022
45709.7228
45137.45453
44662.74843
44149.07865
43702.22027
43288.56874
42928.34083
42609.08295
42322.16343
42093.71091
41839.13348
41591.44757
41367.59024
41168.88889
40991.69611
40831.4534
40688.11518
40559.88135
40445.01689
40341.88283
40249.15316
40169.4409
58792.06125
58810.95589
58844.60132
58852.10623
58855.91108
58881.27661
58901.4164
58904.54854
58886.80387
58908.42532
58927.68118
58936.93405
58922.21385
58937.66373
58949.03004
58942.26377
58907.79628
58896.16028
58885.61709
58870.26447
58809.73888
58767.83053
58732.15544
58688.41073
58628.25252
58590.72754
58543.81025
58477.29584
58410.58006
58337.88431
58285.06338
58199.14148
58094.7943
58000.33238
57902.66769
57812.7046
57758.82482
57680.02051
57493.13435
57380.86248
57246.09367
57126.33111
57054.01132
56877.70767
56729.52798
56576.45233
56364.17903
56201.2547
56007.63401
55758.88002
55548.36211
55274.03591
55016.14039
54819.10858
54527.73565
54277.95982
54017.97258
53687.30287
53377.55861
53022.41033
52636.13638
52308.70814
51912.84762
51552.07656
51191.08348
50759.53116
50330.53209
49875.81098
49410.96208
48978.35699
48463.3352
47952.7166
47466.50528
46895.23669
46364.40746
45812.16622
45247.75379
44665.63982
44095.75055
43629.46251
43123.07564
42683.57459
42275.16941
41920.75746
41611.15334
41332.42033
41114.9368
40868.0598
40627.54923
40410.99787
40218.8264
40047.54429
39892.70834
39754.52988
39631.24768
39521.10117
39422.42647
39333.43881
39258.15068
57807.52619
57827.46731
57863.3086
57872.7043
57879.31264
57907.02526
57931.37735
57941.68145
57927.69237
57952.51132
57978.8351
57997.34369
57986.42503
58005.74579
58028.14333
58033.8323
58005.93636
58000.33619
57995.6368
57992.60421
57941.62422
57902.43563
57869.70536
57835.9041
57783.10113
57748.38818
57711.9409
57657.80916
57592.44567
57516.78802
57461.36665
57384.41025
57274.52012
57165.6013
57053.35864
56953.76018
56897.39986
56817.54747
56626.88327
56490.25257
56334.78202
56205.67232
56127.71439
55948.23212
55787.31281
55620.90292
55400.01035
55224.25751
55024.63516
54771.77621
54551.02311
54273.91159
54010.92842
53794.11743
53491.92774
53229.82815
52965.39448
52639.10279
52332.1694
51980.97859
51590.92608
51249.36239
50841.69396
50475.35514
50117.69795
49693.32707
49266.20459
48806.49097
48333.80021
47897.61028
47382.72601
46872.77337
46386.05553
45809.88258
45278.51515
44730.15351
44170.51342
43591.19289
43024.802
42567.61781
42071.03643
41641.76724
41241.15198
40893.84363
40594.6889
40323.81709
40118.13392
39879.99561
39648.21357
39440.32671
39256.05739
39091.82041
38943.24079
38810.83387
38692.929
38587.77495
38493.76337
38409.50657
38337.14127
56754.30126
56775.09395
56810.99145
56819.86822
56827.15511
56856.00275
56883.20738
56896.12099
56882.55293
56907.44203
56936.80699
56957.72932
56947.07814
56966.16492
56992.82755
57002.93784
56977.65322
56972.44452
56969.26983
56970.04753
56922.60215
56884.34821
56851.97936
56820.49598
56767.60543
56731.63342
56696.44874
56645.00515
56577.62709
56499.91218
56443.93906
56371.90325
56258.62153
56145.99101
56032.77066
55931.8772
55872.80733
55791.92722
55604.46218
55456.69806
55294.00489
55161.16897
55080.50053
54900.75363
54735.97129
54566.80806
54344.54762
54163.95697
53963.49523
53710.4678
53486.18223
53208.86201
52943.4665
52720.90721
52413.55619
52143.42415
51875.53235
51550.08666
51246.20641
50900.18519
50507.89332
50158.11059
49739.20724
49363.24015
49003.59562
48582.17052
48157.85301
47698.01581
47219.76034
46779.00958
46262.6801
45753.94438
45269.54274
44691.51142
44160.3956
43616.80949
43064.74215
42491.80764
41931.79187
41485.20486
41001.09305
40584.97568
40195.24222
39858.45078
39569.07499
39307.14306
39113.57788
38886.0563
38664.5827
38466.37435
38291.05769
38134.9141
37993.51504
37867.63947
37755.70918
37656.02788
37566.78595
37488.56709
37418.29933
55663.09636
55684.65147
55719.65401
55727.17477
55734.55624
55764.54695
55794.7008
55809.07158
55795.16151
55819.60614
55851.62926
55873.53701
55861.56537
55879.52017
55909.17595
55921.69749
55896.71057
55890.37773
55887.75075
55889.67584
55842.29411
55802.85335
55770.88173
55740.58304
55686.5076
55648.95347
55615.03128
55566.35446
55496.89205
55416.01098
55360.82557
55293.53318
55176.87388
55059.61896
54945.78237
54845.08351
54784.49911
54704.42649
54518.82326
54365.8082
54202.09368
54067.53928
53986.89624
53805.69858
53637.81641
53469.37369
53247.19655
53063.79169
52863.31857
52609.03723
52382.91399
52105.6345
51837.14309
51611.56835
51299.51843
51020.75462
50747.92734
50419.26513
50115.71321
49774.24874