/*--------------------------------*- C++ -*----------------------------------*\
| =========                 |                                                 |
| \\      /  F ield         | OpenFOAM: The Open Source CFD Toolbox           |
|  \\    /   O peration     | Version:  v1706                                 |
|   \\  /    A nd           | Web:      www.OpenFOAM.com                      |
|    \\/     M anipulation  |                                                 |
\*---------------------------------------------------------------------------*/
FoamFile
{
    version     2.0;
    format      ascii;
    class       volScalarField;
    location    "0.001";
    object      Tv;
}
// * * * * * * * * * * * * * * * * * * * * * * * * * * * * * * * * * * * * * //

dimensions      [0 0 0 1 0 0 0];


internalField   nonuniform List<scalar> 
11682
(
210
210
210
210
210
210
210
210
210
210
210
210
210
210
210
210
210
210
210
210
210
210
210
210
210
210
210
210
210
210
210
210
210
210
210
210
210
210
210
210
210
210
210
210
210
210
210
210
210
210
210
210
210
210
210
210
210
210
210
210
210
210
210
210
210
210
210
210
210
210
210
210
210
210
210
210
210
210
210
210
210
210
210
210
210
210
210
210
210
210
210
210
210
210
210
210
210
210
210
210
210
210
210
210
210
210
210
210
210
210
210
210
210
210
210
210
210
210
210
210
210
210
210
210
210
210
210
210
210
210
210
210
210
210
210
210
210
210
210
210
210
210
210
210
210
210
210
210
210
210
210
210
210
210
210
210
210
210
210
210
210
210
210
210
210
210
210
210
210
210
210
210
210
210
210
210
210
210
210
210
210
210
210
210
210
210
210
210
210
210
210
210
210
210
210
210
210
210
210
210
210
210
210
210
210
210
210
210
210
210
210
210
210
210
210
210
210
210
210
210
210
210
210
210
210
210
210
210
210
210
210
210
210
210
210
210
210
210
210
210
210
210
210
210
210
210
210
210
210
210
210
210
210
210
210
210
210
210
210
210
210
210
210
210
210
210
210
210
210
210
210
210
210
210
210
210
210
210
210
210
210
210
210
210
210
210
210
210
210
210
210
210
210
210
210
210
210
210
210
210
210
210
210
210
210
210
210
210
210
210
210
210
210
210
210
210
210
210
210
210
210
210
210
210
210
210
210
210
210
210
210
210
210
210
210
210
210
210
210
210
210
210
210
210
210
210
210
210
210
210
210
210
210
210
210
210
210
210
210
210
210
210
210
210
210
210
210
210
210
210
210
210
210
210
210
210
210
210
210
210
210
210
210
210
210
210
210
210
210
210
210
210
210
210
210
210
210
210
210
210
210
210
210
210
210
210
210
210
210
210
210
210
210
210
210
210
210
210
210
210
210
210
210
210
210
210
210
210
210
210
210
210
210
210
210
210
210
210
210
210
210
210
210
210
210
210
210
210
210
210
210
210
210
210
210
210
210
210
210
210
210
210
210
210
210
210
210
210
210
210
210
210
210
210
210
210
210
210
210
210
210
210
210
210
210
210
210
210
210
210
210
210
210
210
210
210
210
210
210
210
210
210
210
210
210
210
210
210
210
210
210
210
210
210
210
210
210
210
210
210
210
210
210
210
210
210
210
210
210
210
210
210
210
210
210
210
210
210
210
210
210
210
210
210
210
210
210
210
210
210
210
210
210
210
210
210
210
210
210
210
210
210
210
210
210
210
210
210
210
210
210
210
210
210
210
210
210
210
210
210
210
210
210
210
210
210
210
210
210
210
210
210
210
210
210
210
210
210
210
210
210
210
210
210
210
210
210
210
210
210
210
210
210
210
210
210
210
210
210
210
210
210
210
210
210
210
210
210
210
210
210
210
210
210
210
210
210
210
210
210
210
210
210
210
210
210
210
210
210
210
210
210
210
210
210
210
210
210
210
210
210
210
210
210
210
210
210
210
210
210
210
210
210
210
210
210
210
210
210
210
210
210
210
210
210
210
210
210
210
210
210
210
210
210
210
210
210
210
210
210
210
210
210
210
210
210
210
210
210
210
210
210
210
210
210
210
210
210
210
210
210
210
210
210
210
210
210
210
210
210
210
210
210
210
210
210
210
210
210
210
210
210
210
210
210
210
210
210
210
210
210
210
210
210
210
210
210
210
210
210
210
210
210
210
210
210
210
210
210
210
210
210
210
210
210
210
210
210
210
210
210
210
210
210
210
210
210
210
210
210
210
210
210
210
210
210
210
210
210
210
210
210
210
210
210
210
210
210
210
210
210
210
210
210
210
210
210
210
210
210
210
210
210
210
210
210
210
210
210
210
210
210
210
210
210
210
210
210
210
210
210
210
210
210
210
210
210
210
210
210
210
210
210
210
210
210
210
210
210
210
210
210
210
210
210
210
210
210
210
210
210
210
210
210
210
210
210
210
210
210
210
210
210
210
210
210
210
210
210
210
210
210
210
210
210
210
210
210
210
210
210
210
210
210
210
210
210
210
210
210
210
210
210
210
210
210
210
210
210
210
210
210
210
210
210
210
210
210
210
210
210
210
210
210
210
210
210
210
210
210
210
210
210
210
210
210
210
210
210
210
210
210
210
210
210
210
210
210
210
210
210
210
210
210
210
210
210
210
210
210
210
210
210
210
210
210
210
210
210
210
210
210
210
210
210
210
210
210
210
210
210
210
210
210
210
210
210
210
210
210
210
210
210
210
210
210
210
210
210
210
210
210
210
210
210
210
210
210
210
210
210
210
210
210
210
210
210
210
210
210
210
210
210
210
210
210
210
210
210
210
210
210
210
210
210
210
210
210
210
210
210
210
210
210
210
210
210
210
210
210
210
210
210
210
210
210
210
210
210
210
210
210
210
210
210
210
210
210
210
210
210
210
210
210
210
210
210
210
210
210
210
210
210
210
210
210
210
210
210
210
210
210
210
210
210
210
210
210
210
210
210
210
210
210
210
210
210
210
210
210
210
210
210
210
210
210
210
210
210
210
210
210
210
210
210
210
210
210
210
210
210
210
210
210
210
210
210
210
210
210
210
210
210
210
210
210
210
210
210
210
210
210
210
210
210
210
210
210
210
210
210
210
210
210
210
210
210
210
210
210
210
210
210
210
210
210
210
210
210
210
210
210
210
210
210
210
210
210
210
210
210
210
210
210
210
210
210
210
210
210
210
210
210
210
210
210
210
210
210
210
210
210
210
210
210
210
210
210
210
210
210
210
210
210
210
210
210
210
210
210
210
210
210
210
210
210
210
210
210
210
210
210
210
210
210
210
210
210
210
210
210
210
210
210
210
210
210
210
210
210
210
210
210
210
210
210
210
210
210
210
210
210
210
210
210
210
210
210
210
210
210
210
210
210
210
210
210
210
210
210
210
210
210
210
210
210
210
210
210
210
210
210
210
210
210
210
210
210
210
210
210
210
210
210
210
210
210
210
210
210
210
210
210
210
210
210
210
210
210
210
210
210
210
210
210
210
210
210
210
210
210
210
210
210
210
210
210
210
210
210
210
210
210
210
210
210
210
210
210
210
210
210
210
210
210
210
210
210
210
210
210
210
210
210
210
210
210
210
210
210
210
210
210
210
210
210
210
210
210
210
210
210
210
210
210
210
210
210
210
210
210
210
210
210
210
210
210
210
210
210
210
210
210
210
210
210
210
210
210
210
210
210
210
210
210
210
210
210
210
210
210
210
210
210
210
210
210
210
210
210
210
210
210
210
210
210
210
210
210
210
210
210
210
210
210
210
210
210
210
210
210
210
210
210
210
210
210
210
210
210
210
210
210
210
210
210
210
210
210
210
210
210
210
210
210
210
210
210
210
210
210
210
210
210
210
210
210
210
210
210
210
210
210
210
210
210
210
210
210
210
210
210
210
210
210
210
210
210
210
210
210
210
210
210
210
210
210
210
210
210
210
210
210
210
210
210
210
210
210
210
210
210
210
210
210
210
210
210
210
210
210
210
210
210
210
210
210
210
210
210
210
210
210
210
210
210
210
210
210
210
210
210
210
210
210
210
210
210
210
210
210
210
210
210
210
210
210
210
210
210
210
210
210
210
210
210
210
210
210
210
210
210
210
210
210
210
210
210
210
210
210
210
210
210
210
210
210
210
210
210
210
210
210
210
210
210
210
210
210
210
210
210
210
210
210
210
210
210
210
210
210
210
210
210
210
210
210
210
210
210
210
210
210
210
210
210
210
210
210
210
210
210
210
210
210
210
210
210
210
210
210
210
210
210
210
210
210
210
210
210
210
210
210
210
210
210
210
210
210
210
210
210
210
210
210
210
210
210
210
210
210
210
210
210
210
210
210
210
210
210
210
210
210
210
210
210
210
210
210
210
210
210
210
210
210
210
210
210
210
210
210
210
210
210
210
210
210
210
210
210
210
210
210
210
210
210
210
210
210
210
210
210
210
210
210
210
210
210
210
210
210
210
210
210
210
210
210
210
210
210
210
210
210
210
210
210
210
210
210
210
210
210
210
210
210
210
210
210
210
210
210
210
210
210
210
210
210
210
210
210
210
210
210
210
210
210
210
210
210
210
210
210
210
210
210
210
210
210
210
210
210
210
210
210
210
210
210
210
210
210
210
210
210
210
210
210
210
210
210
210
210
210
210
210
210
210
210
210
210
210
210
210
210
210
210
210
210.0000001
210.0000001
210.0000001
210.0000002
210.0000003
210.0000004
210.0000004
210.0000006
210.0000007
210.0000009
210.000001
210.0000012
210.0000014
210.0000015
210.0000017
210
210
210
210
210
210
210
210
210
210
210
210
210
210
210
210
210
210
210
210
210
210
210
210
210
210
210
210
210
210
210
210
210
210
210
210
210
210
210
210
210
210
210
210
210
210
210
210
210
210
210
210
210
210
210
210
210
210
210
210
210
210
210
210
210
210
210
210
210
210
210
210
210
210
210
210
210
210
210
210.0000001
210.0000003
210.0000006
210.0000015
210.000003
210.0000051
210.0000083
210.0000085
210.0000134
210.0000201
210.0000264
210.0000338
210.0000429
210.0000542
210.0000661
210.0000783
210.0000902
210.0001013
210.0001112
210.0001233
210
210
210
210
210
210
210
210
210
210
210
210
210
210
210
210
210
210
210
210
210
210
210
210
210
210
210
210
210
210
210
210
210
210
210
210
210
210
210
210
210
210
210
210
210
210
210
210
210
210
210
210
210
210
210
210
210
210
210
210
210
210
210
210
210
210
210
210
210
210
210
210
210
210
210
210.0000001
210.0000002
210.000001
210.0000038
210.0000062
210.0000239
210.0000513
210.0001225
210.000236
210.0004017
210.0006278
210.000676
210.0010357
210.0015158
210.0019885
210.0025534
210.003241
210.0040839
210.0049533
210.0058306
210.0066793
210.0074628
210.0081405
210.0088744
210
210
210
210
210
210
210
210
210
210
210
210
210
210
210
210
210
210
210
210
210
210
210
210
210
210
210
210
210
210
210
210
210
210
210
210
210
210
210
210
210
210
210
210
210
210
210
210
210
210
210
210
210
210
210
210
210
210
210
210
210
210
210
210
210
210
210
210
210
210
210
210
210.0000001
210.0000006
210.0000017
210.000006
210.00002
210.0000786
210.0003028
210.0005309
210.0019146
210.0041313
210.0097459
210.0186216
210.0313546
210.0477827
210.0534818
210.0795822
210.114292
210.1498255
210.1926978
210.2442945
210.3059148
210.3685284
210.4307843
210.4898246
210.5432988
210.5879438
210.6313967
210
210
210
210
210
210
210
210
210
210
210
210
210
210
210
210
210
210
210
210
210
210
210
210
210
210
210
210
210
210
210
210
210
210
210
210
210
210
210
210
210
210
210
210
210
210
210
210
210
210
210
210
210
210
210
210
210
210
210
210
210
210
210
210
210
210
210
210
210.0000001
210.0000002
210.0000012
210.0000038
210.0000082
210.0000496
210.0001422
210.0005013
210.001657
210.0064312
210.0242567
210.0456627
210.1523974
210.3320522
210.7641406
211.4280998
212.3331488
213.4011612
213.8911592
215.4482834
217.3886918
219.317531
221.4781032
223.8374627
226.3490867
228.6728473
230.7830289
232.6201122
234.1614539
235.3558625
236.3361145
210
210
210
210
210
210
210
210
210
210
210
210
210
210
210
210
210
210
210
210
210
210
210
210
210
210
210
210
210
210
210
210
210
210
210
210
210
210
210
210
210
210
210
210
210
210
210
210
210
210
210
210
210
210
210
210
210
210
210
210
210
210
210
210.0000001
210.0000001
210.0000004
210.000001
210.0000032
210.00001
210.00002
210.0001024
210.0003205
210.0007196
210.0040314
210.0120075
210.0419572
210.136963
210.5211478
211.8712578
213.6394037
219.8552363
228.3304369
241.6359981
255.2591699
268.153953
279.3017955
284.7265034
296.3414223
308.5265883
319.4849103
330.3065395
340.8492563
350.9165389
359.6739383
367.1612293
373.3665559
378.3304012
382.1407607
384.6364694
210
210
210
210
210
210
210
210
210
210
210
210
210
210
210
210
210
210
210
210
210
210
210
210
210
210
210
210
210
210
210
210
210
210
210
210
210
210
210
210
210
210
210
210
210
210
210
210
210
210
210
210
210
210
210
210
210
210
210.0000001
210.0000001
210.0000004
210.0000007
210.0000025
210.0000056
210.0000099
210.0000349
210.0000876
210.0002751
210.0008399
210.0017713
210.0085327
210.0269463
210.0631709
210.325195
210.9966998
213.2811018
219.324658
235.2333717
262.6310204
285.185311
324.1509672
362.4443813
407.1721466
448.1435527
484.0427305
513.1485312
529.8420398
558.9562262
589.9185229
618.6996847
646.4082315
672.6989159
696.9990905
718.0287338
735.7358192
750.2366218
761.7335996
770.478868
776.6798137
210.0000001
210.0000001
210.0000001
210.0000001
210
210
210
210
210
210
210
210
210
210
210
210
210
210
210
210
210
210
210
210
210
210
210
210
210
210
210
210
210
210
210
210
210
210
210
210
210
210
210
210
210
210
210
210
210
210
210.0000001
210.0000001
210.0000002
210.0000002
210.0000005
210.000001
210.0000015
210.0000037
210.0000059
210.0000109
210.0000325
210.000061
210.0002162
210.0004759
210.0008767
210.0029594
210.0076506
210.0236725
210.0703297
210.1567638
210.7011605
212.1717598
215.0014396
228.0366714
248.4719436
280.8480299
323.183338
388.0716767
470.2965113
538.5482831
633.8331968
731.5739644
837.4336468
934.3590997
1017.968272
1084.243337
1126.105076
1193.235699
1266.400121
1334.112247
1397.754659
1456.677558
1509.963338
1555.676405
1593.905822
1625.176054
1650.097178
1669.402054
1684.572116
210.000007
210.0000065
210.0000055
210.0000046
210.0000041
210.0000036
210.000003
210.0000024
210.000002
210.0000017
210.0000014
210.0000011
210.0000009
210.0000008
210.0000006
210.0000005
210.0000004
210.0000003
210.0000003
210.0000002
210.0000002
210.0000002
210.0000002
210.0000001
210.0000001
210.0000001
210.0000001
210.0000001
210.0000001
210.0000001
210.0000001
210.0000001
210.0000001
210.0000001
210.0000001
210.0000001
210.0000001
210.0000001
210.0000002
210.0000002
210.0000003
210.0000004
210.0000003
210.0000004
210.0000006
210.0000008
210.0000013
210.0000017
210.0000022
210.0000037
210.0000049
210.000008
210.0000136
210.000018
210.0000444
210.0000894
210.0001367
210.0003155
210.0005111
210.0009515
210.0027814
210.005503
210.0184316
210.0408418
210.0772463
210.2501228
210.6610523
211.9578261
215.2811053
221.0268617
240.8457834
268.2205067
297.8666798
360.9091643
432.8410262
524.7708367
635.9496053
795.3582889
991.1967937
1158.41086
1373.327018
1593.476559
1822.605855
2030.345193
2206.945266
2344.345725
2432.202556
2570.519029
2719.089471
2851.071889
2969.281657
3073.716235
3165.252536
3242.351204
3306.295112
3358.724189
3401.065596
3434.279736
3459.566412
210.0006157
210.0005744
210.0004889
210.0004068
210.0003626
210.0003151
210.0002642
210.0002087
210.0001796
210.0001507
210.0001217
210.000094
210.0000801
210.0000683
210.0000539
210.0000415
210.0000353
210.0000304
210.0000264
210.0000205
210.0000178
210.0000166
210.0000154
210.0000128
210.0000117
210.0000111
210.0000102
210.0000092
210.0000087
210.0000088
210.0000088
210.0000085
210.0000081
210.0000094
210.0000107
210.0000117
210.0000114
210.0000104
210.000014
210.0000188
210.0000257
210.0000322
210.0000308
210.0000387
210.0000556
210.0000696
210.0001119
210.0001473
210.0001953
210.0003247
210.0004332
210.0006982
210.0011752
210.0016209
210.0038458
210.0077196
210.0121491
210.0270556
210.0446988
210.0834752
210.2373395
210.4922555
211.5231281
213.2817218
216.0042806
225.3759507
240.6653338
265.8015339
298.2924076
334.9558295
407.4566962
490.0013847
575.2333407
727.350707
906.8953049
1125.927052
1383.348609
1738.012937
2166.113312
2515.967885
2928.555644
3306.464415
3666.325213
3976.372025
4236.507292
4443.453358
4570.657852
4782.326976
5010.604812
5211.787083
5382.611852
5527.404798
5652.311901
5756.694882
5843.212256
5914.562229
5972.893155
6019.082513
6051.830469
210.0542979
210.0506595
210.0431476
210.0359236
210.0320325
210.0278381
210.0233493
210.0184506
210.0158828
210.0133238
210.0107592
210.0083146
210.0070946
210.0060422
210.0047752
210.0036695
210.0031232
210.0026864
210.0023316
210.00182
210.0015766
210.0014688
210.0013605
210.0011366
210.0010409
210.0009842
210.0009059
210.0008162
210.0007699
210.0007786
210.0007769
210.0007477
210.0007238
210.0008346
210.0009466
210.0010287
210.0010088
210.0009282
210.0012307
210.0016663
210.0022717
210.0028265
210.0027165
210.003424
210.0048811
210.0062025
210.0097751
210.0129642
210.0172927
210.0282208
210.0383119
210.0611124
210.1017246
210.1454584
210.3317201
210.6589916
211.0573173
212.2187739
213.6313612
216.4111221
224.873536
235.8872335
258.7566879
281.7744306
305.3709217
352.6262735
409.7903191
484.5808498
571.3911009
671.0418853
843.4286544
1044.421866
1249.163088
1588.567265
1989.512283
2457.339638
2953.083258
3540.529294
4182.981481
4690.73135
5306.904846
5822.58132
6293.183368
6683.517623
7002.348688
7256.9567
7402.595574
7655.113674
7921.635987
8150.535561
8340.178675
8497.837842
8632.085977
8742.685768
8833.114856
8906.893292
8966.882937
9014.519191
9047.397043
214.378527
214.1090023
213.5442384
212.9879576
212.682236
212.3480676
211.985049
211.5824793
211.3694014
211.1534996
210.9358216
210.7263232
210.6217544
210.5299833
210.4202339
210.323152
210.2756739
210.2371797
210.2057738
210.1611591
210.1394725
210.130136
210.120439
210.1007671
210.0922376
210.0872224
210.0802273
210.0722631
210.0681856
210.0689792
210.0688353
210.0661687
210.0643405
210.0738415
210.083785
210.0907998
210.0890129
210.0825351
210.1084166
210.1473162
210.2004195
210.247577
210.2393465
210.3014276
210.4261081
210.5472503
210.8409597
211.1178596
211.4868509
212.3407278
213.176431
214.8402948
217.5341203
220.4863217
229.2444946
240.400099
250.8313758
269.3525635
285.8234341
308.0880371
350.8053888
395.3545009
463.2815552
528.8271052
594.2309503
710.4182082
853.0163062
1032.961994
1237.978928
1469.023233
1851.119428
2293.453023
2710.705982
3307.656436
3921.518583
4609.633056
5343.58421
6131.911762
6943.608637
7543.71996
8252.060815
8805.223704
9277.755594
9643.70548
9926.584585
10147.33599
10265.72176
10475.5587
10691.63783
10872.34872
11019.0182
11139.43777
11241.43925
11324.96323
11392.92043
11448.16616
11492.99692
11528.669
11553.05527
292.7679689
290.4165321
285.1625532
279.4202281
275.9540465
271.8473957
266.9180626
260.6943774
256.9839295
252.7844841
248.0185932
242.7217468
239.7490406
236.8521908
233.0338049
229.1597446
227.0872715
225.2634779
223.6762127
221.289905
220.021111
219.4725414
218.869643
217.6275705
217.0618016
216.7259021
216.2447441
215.6890465
215.4026757
215.4605527
215.4505166
215.2546037
215.1441255
215.7960715
216.484968
216.9418841
216.8194032
216.4244944
218.0781315
220.48151
223.394705
225.6771762
225.3502774
228.2154587
233.1421185
237.5227957
245.4850099
251.9789468
259.101097
271.3398122
281.5506369
296.4172464
314.7536388
332.6132944
369.0888124
408.0036374
442.2864338
493.9317604
541.0802837
600.7959198
706.0044422
819.8187036
980.6008633
1139.662682
1295.604598
1556.356889
1876.994727
2273.883773
2697.51906
3114.603619
3720.869914
4373.696709
4995.536462
5833.002489
6621.395365
7454.171863
8298.384701
9125.635284
9887.467457
10394.57645
10960.00038
11382.46446
11735.69501
12003.54351
12206.65579
12365.23431
12447.59726
12597.2227
12752.33933
12882.32162
12987.89918
13074.76334
13148.73976
13209.52443
13259.18547
13299.65671
13332.52016
13358.66823
13376.31346
557.1529774
550.9592562
537.1434227
521.8509397
512.5080985
501.2985952
487.618113
470.0418241
459.4159369
447.0278568
432.6508278
416.1292897
406.6305833
396.9386488
383.7595185
369.4178573
361.4008685
353.8803404
346.9624388
335.9696346
329.5178726
326.6785959
323.3293608
316.152348
312.6145351
310.4488639
307.1872857
303.2487393
301.1577368
301.6056864
301.5305751
300.0032786
299.3212565
304.0284519
308.8290198
311.7272305
310.9062891
308.5793085
318.669367
331.986664
345.811767
355.3665976
354.2958424
365.9535708
384.0437996
399.8803696
424.650687
445.1152734
466.4800054
500.183853
529.7164645
568.8816231
615.7750127
663.9594642
750.9767637
846.1353422
932.6936233
1055.672084
1171.010844
1311.751345
1548.518288
1805.51138
2164.353946
2506.492216
2817.11755
3268.04608
3761.443616
4347.823312
4995.498471
5586.16069
6379.513225
7181.75212
7911.631686
8831.267251
9600.67522
10327.35486
11004.26289
11633.5888
12192.80296
12556.12691
12962.0783
13270.58314
13534.67566
13737.30055
13890.98343
14011.87679
14073.47232
14187.49695
14306.97305
14407.70999
14489.80469
14557.52169
14615.44849
14663.12377
14702.10115
14733.87394
14759.65364
14780.10557
14793.60405
1191.818195
1177.470502
1145.872836
1110.775953
1089.267964
1063.209252
1030.902574
989.767909
964.7069319
935.1299461
900.4481436
860.7307688
838.0191896
814.4447498
782.7938695
747.8906393
728.9387789
710.7318047
693.7886523
667.2824771
651.5473263
644.7906411
636.3836089
618.6455477
609.772957
604.3291622
595.882839
585.7224117
580.4819566
581.7945645
581.5855598
577.4921951
576.3158033
588.3681327
600.8563698
608.0225444
605.7768268
600.6440916
625.9038274
659.7150897
693.4953446
715.978074
714.0455606
742.9583921
786.9902771
827.0380025
886.2129916
937.2164535
990.0080711
1070.454152
1143.184431
1235.472405
1343.869253
1454.509603
1647.947578
1861.802944
2065.321355
2335.424604
2579.261152
2856.091364
3262.34327
3655.741523
4193.331966
4712.977969
5192.279718
5809.851203
6439.099831
7156.453093
7926.16129
8584.263264
9383.6142
10104.85609
10706.83741
11421.41431
11991.64288
12515.76723
13004.12269
13470.71765
13896.01743
14175.50113
14491.18281
14735.34053
14949.23185
15115.50518
15241.72837
15341.3691
15391.12881
15484.89571
15583.8157
15667.45055
15735.66052
15791.94285
15840.20001
15879.86981
15912.22293
15938.51481
15959.76773
15976.53222
15987.22956
2566.031123
2538.089281
2476.669593
2407.852967
2365.466082
2312.299718
2245.185689
2159.131112
2106.208341
2041.573423
1964.433282
1876.279959
1825.687197
1772.61997
1701.222759
1623.543874
1581.992662
1542.024919
1504.309336
1446.381337
1412.556084
1398.384321
1379.815938
1341.039597
1321.455205
1309.366598
1289.76456
1266.529527
1255.182738
1258.974442
1258.455064
1248.773369
1247.995156
1276.359912
1305.631042
1321.757032
1316.217286
1305.903604
1363.719426
1440.389778
1514.975556
1563.71352
1560.045217
1626.764586
1727.616737
1820.230022
1955.448757
2072.121073
2191.317185
2367.721519
2522.58047
2710.685993
2916.257462
3103.760238
3417.361568
3741.044891
4052.105658
4465.293805
4840.544508
5269.843045
5818.131152
6315.224212
6980.814317
7606.911574
8165.909801
8833.058671
9448.574235
10089.28148
10728.17801
11244.16263
11841.5612
12363.3924
12796.18758
13320.66037
13750.75886
14153.17654
14535.27344
14911.28717
15262.8132
15496.60153
15762.02295
15968.9375
16153.29713
16298.02729
16407.90075
16494.67554
16536.87952
16618.15574
16704.26017
16776.99282
16836.16446
16884.87959
16926.67043
16960.89692
16988.6634
17011.085
17029.07723
17043.1359
17051.65911
4704.143909
4661.306389
4568.742447
4466.940266
4405.883969
4326.342979
4227.074318
4102.123392
4027.972222
3933.420115
3820.574136
3693.631788
3622.823602
3545.147074
3438.97425
3323.107439
3262.557511
3201.298392
3142.186411
3050.373883
2998.24395
2976.599342
2946.519113
2881.992861
2848.481157
2826.93422
2790.212849
2746.960868
2727.328339
2736.953319
2735.951807
2717.190698
2720.947269
2777.535867
2834.26482
2864.812045
2854.04206
2836.053426
2942.876284
3073.194088
3194.135999
3271.761875
3264.935456
3375.741266
3534.717452
3675.519665
3882.40758
4057.640689
4238.251307
4512.363864
4752.833402
5051.345513
5364.077028
5609.523953
6019.373884
6430.209116
6819.245061
7327.159843
7773.872994
8269.307301
8853.000136
9338.084012
9946.123661
10478.3713
10929.14005
11443.29027
11897.61994
12358.88021
12819.70707
13198.64632
13645.4139
14043.49117
14379.73633
14798.36415
15151.523
15487.81202
15811.26027
16136.01069
16445.00794
16652.35532
16888.07691
17071.91606
17237.57701
17368.40973
17467.63093
17545.96569
17582.74865
17655.63516
17733.09922
17798.2878
17851.02627
17894.22469
17931.23344
17961.34747
17985.57305
18004.93969
18020.30114
18032.13228
18038.74412
7495.559759
7443.309263
7332.464416
7213.386947
7141.916027
7043.975414
6922.215484
6771.585349
6685.214386
6567.925944
6427.789698
6272.945638
6190.657026
6094.026612
5960.333921
5815.686577
5744.060651
5666.602579
5591.125049
5473.507151
5410.976238
5385.388192
5347.727888
5263.302349
5216.730839
5184.945204
5128.321331
5062.891411
5035.794994
5055.316014
5053.989031
5025.233246
5040.394444
5131.836185
5223.355177
5273.392296
5257.036317
5229.509752
5386.666471
5560.355514
5718.384667
5820.526037
5809.545905
5959.203817
6165.347644
6343.717212
6605.798876
6822.386847
7045.560822
7382.784786
7670.665106
8024.580654
8380.323702
8637.865082
9057.746543
9452.933159
9810.338296
10256.61165
10626.87666
11021.54422
11467.83732
11822.90228
12263.73445
12647.89393
12975.43343
13355.49122
13696.47678
14047.27567
14405.87646
14709.11248
15073.40914
15404.40337
15688.03553
16047.67846
16357.21413
16655.78186
16945.02924
17239.21588
17522.32119
17713.43875
17930.72701
18099.48937
18252.61601
18373.77494
18465.36103
18537.64279
18570.0307
18636.7707
18707.93249
18767.47093
18815.2301
18854.03502
18887.16665
18913.85954
18935.06519
18951.76421
18964.78049
18974.60089
18979.35386
10295.77297
10249.73756
10155.26365
10058.0078
9998.428703
9910.264021
9800.137191
9668.118375
9595.013378
9485.371009
9352.388994
9208.596974
9135.987084
9041.073713
8907.342474
8764.740527
8697.56992
8618.646742
8539.357528
8417.405615
8357.967828
8332.739377
8292.884455
8204.22942
8157.719256
8122.872139
8058.770937
7987.247669
7960.815613
7987.556523
7984.670177
7951.797876
7981.087903
8088.578201
8193.793149
8252.424641
8233.839164
8204.351192
8387.917521
8573.222999
8737.78461
8842.357775
8829.029714
8988.821923
9193.501505
9364.280455
9612.809569
9807.77383
10006.79697
10301.4822
10541.16014
10831.29758
11111.96937
11306.1784
11622.69005
11912.72223
12172.62648
12497.59999
12765.29714
13052.34481
13382.72033
13646.22101
13981.10472
14279.65922
14538.61328
14844.82754
15124.56562
15415.53086
15718.01347
15979.62482
16297.9506
16591.08819
16844.59735
17169.70973
17453.30935
17729.45269
17997.99949
18273.43318
18540.2547
18720.89553
18926.27084
19084.70758
19229.02136
19342.95961
19428.49285
19495.96612
19524.28399
19586.03054
19652.14566
19707.05177
19750.60086
19785.58485
19815.28416
19838.87067
19857.26754
19871.42992
19882.17415
19890.07922
19892.85627
12449.05224
12413.77472
12345.45548
12279.94575
12238.86106
12172.46833
12089.92656
11997.01915
11948.17729
11866.49011
11766.42931
11663.30904
11615.39629
11543.84177
11441.5573
11336.73083
11290.83917
11231.38726
11168.74925
11076.72996
11037.49565
11019.26644
10987.43014
10920.75481
10890.12712
10862.94405
10811.32055
10757.30453
10741.61348
10766.85497
10761.63631
10734.31035
10770.20353
10858.84694
10941.29867
10988.02088
10971.94523
10950.85364
11104.67815
11247.6421
11372.49535
11450.68642
11439.25133
11565.94384
11719.01876
11843.73742
12027.8798
12168.16313
12312.71697
12529.52669
12703.11955
12916.30859
13123.12943
13264.18607
13500.67432
13719.80548
13918.52697
14171.55153
14381.78561
14609.0326
14876.0422
15089.89894
15366.74317
15618.97772
15840.87323
16106.55094
16352.72689
16609.98424
16879.88446
17117.37202
17409.04225
17680.17259
17915.99955
18220.46597
18488.32841
18750.93971
19006.78118
19270.65703
19527.06828
19700.53975
19897.78206
20048.65336
20186.36237
20294.46992
20374.66617
20437.92317
20461.96896
20519.12218
20580.71059
20631.3911
20671.01473
20702.36185
20728.75056
20749.28316
20764.86954
20776.4537
20784.83086
20790.84401
20791.39952
14075.96992
14047.17238
13994.9932
13948.77719
13918.9834
13865.85232
13800.28073
13731.80826
13697.85902
13634.55737
13556.42559
13480.75952
13449.03177
13394.66157
13315.77839
13239.26823
13208.68762
13165.12373
13116.79154
13050.11913
13026.46194
13014.35286
12990.06781
12942.93812
12925.54368
12905.98806
12867.46938
12829.98821
12823.20273
12845.04317
12838.65039
12816.97771
12852.93119
12921.18933
12980.64571
13014.45744
13001.07862
12986.73431
13108.31423
13215.66665
13308.06506
13365.71874
13355.96089
13455.54423
13572.84921
13666.64218
13808.32225
13915.43048
14026.75696
14197.71617
14334.30601
14504.07277
14670.71231
14782.5717
14974.63177
15155.72557
15321.77017
15536.44106
15716.49662
15911.24533
16143.67564
16330.10703
16573.52359
16799.03455
16999.86449
17242.48133
17470.05206
17708.0324
17958.43443
18181.52615
18457.55613
18715.9903
18941.63089
19234.00858
19492.4237
19746.91131
19994.89363
20251.64635
20501.21997
20669.28346
20860.35785
21004.99671
21137.16841
21240.03817
21314.98317
21374.26783
21393.36041
21445.7395
21502.7628
21549.15636
21584.7536
21612.33214
21635.26871
21652.58756
21665.19239
21674.02088
21679.84601
21683.27384
21682.18011
15410.18324
15385.11306
15342.49511
15307.54096
15284.22641
15238.19693
15181.63146
15126.54358
15100.6879
15047.4741
14981.02999
14920.34048
14897.40148
14852.82584
14786.53485
14725.37168
14703.17728
14668.66395
14628.29444
14575.67636
14560.66843
14552.70721
14532.60585
14496.36567
14486.36134
14471.39818
14440.23462
14411.55142
14409.79456
14430.31676
14423.47382
14404.39352
14439.76777
14497.99526
14545.15969
14571.14315
14559.00003
14547.84771
14651.25247
14740.5728
14815.23849
14861.45833
14852.28377
14936.52161
15035.74462
15113.34443
15231.91769
15321.80141
15415.18725
15561.55289
15678.83613
15824.93328
15970.06389
16066.11178
16232.88019
16392.70217
16540.54798
16734.01994
16897.96208
17074.5893
17287.73675
17458.82106
17682.27781
17891.53391
18079.86267
18309.22335
18526.94998
18754.46691
18993.47611
19208.10353
19475.17766
19726.62694
19946.77809
20232.55487
20485.4813
20735.07349
20977.9386
21230.03164
21474.62268
21637.86752
21823.34432
21961.91866
22088.61964
22186.1109
22255.33275
22310.71561
22323.64321
22370.64388
22422.64352
22464.31473
22495.46595
22518.87525
22537.98992
22551.75609
22561.05617
22566.81115
22569.94656
22569.92507
22567.49577
16583.90727
16561.23681
16524.81652
16497.05411
16477.7126
16435.6016
16383.86617
16336.30598
16315.02976
16267.51887
16207.3625
16154.97581
16137.02015
16098.27893
16038.81131
15985.93358
15968.42795
15939.21026
15903.40077
15858.51294
15848.33699
15843.53223
15825.87942
15795.77028
15789.99259
15777.94563
15751.05138
15726.93064
15728.21073
15748.76031
15741.96791
15723.87051