/*--------------------------------*- C++ -*----------------------------------*\
| =========                 |                                                 |
| \\      /  F ield         | OpenFOAM: The Open Source CFD Toolbox           |
|  \\    /   O peration     | Version:  v1706                                 |
|   \\  /    A nd           | Web:      www.OpenFOAM.com                      |
|    \\/     M anipulation  |                                                 |
\*---------------------------------------------------------------------------*/
FoamFile
{
    version     2.0;
    format      ascii;
    class       volScalarField;
    location    "0.001";
    object      wallHeatFlux;
}
// * * * * * * * * * * * * * * * * * * * * * * * * * * * * * * * * * * * * * //

dimensions      [1 0 -3 0 0 0 0];


internalField   uniform 0;

boundaryField
{
    inlet
    {
        type            calculated;
        value           uniform 0;
    }
    outlet
    {
        type            calculated;
        value           uniform 0;
    }
    fire
    {
        type            calculated;
        value           nonuniform List<scalar> 
118
(
1987526.999
1985166.514
1982610.841
1976284.172
1969749.385
1965441.168
1958447.212
1948208.54
1944175.452
1943295.425
1942147.124
1932066.706
1929104.656
1931040.211
1936039.971
1937137.35
1936570.273
1938674.533
1942462.335
1943625.757
1947133.657
1950199.25
1943797.045
1944055.267
1944598.847
1947343.666
1954235.43
1953780.36
1953580.895
1957559.777
1958691.623
1960003.574
1961470.582
1956941.527
1954012.111
1953725.811
1955479.809
1960892.605
1958397.931
1955648.289
1949509.659
1949250.511
1954192.94
1955754.641
1949934.307
1948855.52
1942836.788
1944115.784
1955031.695
1953473.084
1950009.495
1948657.074
1949639.382
1955007.891
1963337.845
1959465.32
1962734.942
1965877.034
1964784.229
1976047.2
1984498.346
1979043.384
1980041.918
1976808.083
1982004.636
2000079.952
2007316.068
2007962.854
2015237.709
2025373.189
2026946.816
2032392.096
2049328.859
2057838.913
2067886.15
2075478.726
2091246.256
2108811.374
2126369.859
2141863.326
2157720.671
2181835.752
2195017.733
2211539.388
2225637.759
2236872.125
2251366.806
2271913.994
2289362.999
2305006.913
2319660.541
2338909.281
2356837.575
2376857.334
2396990.796
2418314.231
2443854.585
2478890.038
2539599.195
2532941.029
2497796.128
2438732.261
2400611.052
2449687.236
2285025.109
2392686.186
2333901.221
2230292.644
2159387.461
2151734.562
2165498.862
2021711.218
1936214.799
1849722.122
1740367.15
1618998.402
1495157.069
1471636.844
)
;
    }
    lWedge
    {
        type            wedge;
    }
    rWedge
    {
        type            wedge;
    }
}


// ************************************************************************* //
