# Probe 0 (5e-06 5e-06 5e-06)
#           Probe                 0
#            Time
            1e-08   1.398030592e-08
            2e-08   1.399101025e-08
            3e-08   1.399710335e-08
            4e-08   1.400215945e-08
            5e-08   1.400575096e-08
            6e-08   1.401278209e-08
            7e-08   1.401591831e-08
            8e-08   1.402200518e-08
            9e-08   1.402134542e-08
            1e-07   1.402614818e-08
          1.1e-07    1.40343973e-08
          1.2e-07   1.404339465e-08
          1.3e-07   1.404936534e-08
          1.4e-07   1.405285588e-08
          1.5e-07   1.405718385e-08
          1.6e-07   1.406481461e-08
          1.7e-07   1.406513281e-08
          1.8e-07   1.407101756e-08
          1.9e-07   1.407083191e-08
            2e-07   1.407352842e-08
          2.1e-07   1.408164826e-08
          2.2e-07   1.408389979e-08
          2.3e-07   1.408759474e-08
          2.4e-07   1.408790607e-08
          2.5e-07    1.40881991e-08
          2.6e-07   1.409171476e-08
          2.7e-07   1.409505511e-08
          2.8e-07   1.409571098e-08
          2.9e-07   1.409510974e-08
            3e-07   1.409766474e-08
          3.1e-07    1.40953086e-08
          3.2e-07   1.409914527e-08
          3.3e-07   1.410411476e-08
          3.4e-07   1.410337176e-08
          3.5e-07   1.410262013e-08
          3.6e-07   1.410763993e-08
          3.7e-07   1.411054568e-08
          3.8e-07   1.411271695e-08
          3.9e-07   1.411871498e-08
            4e-07   1.412142344e-08
          4.1e-07   1.412608508e-08
          4.2e-07   1.412651323e-08
          4.3e-07   1.412840909e-08
          4.4e-07   1.413261118e-08
          4.5e-07   1.413400894e-08
          4.6e-07   1.413392247e-08
          4.7e-07   1.414040687e-08
          4.8e-07   1.414436672e-08
          4.9e-07   1.414471467e-08
            5e-07   1.414991873e-08
          5.1e-07   1.415480346e-08
          5.2e-07   1.415828841e-08
          5.3e-07   1.416378378e-08
          5.4e-07   1.416782783e-08
          5.5e-07   1.416906474e-08
          5.6e-07   1.416882205e-08
          5.7e-07   1.417354081e-08
          5.8e-07   1.417486784e-08
          5.9e-07   1.417584209e-08
            6e-07   1.417245784e-08
          6.1e-07   1.417947186e-08
          6.2e-07   1.418461723e-08
          6.3e-07   1.418925778e-08
          6.4e-07   1.418820894e-08
          6.5e-07   1.419599115e-08
          6.6e-07   1.419714001e-08
          6.7e-07   1.419989426e-08
          6.8e-07   1.420830475e-08
          6.9e-07   1.420875445e-08
            7e-07   1.421390338e-08
          7.1e-07   1.421860515e-08
          7.2e-07   1.422176076e-08
          7.3e-07   1.422471071e-08
          7.4e-07   1.422792168e-08
          7.5e-07   1.422898115e-08
          7.6e-07   1.423263727e-08
          7.7e-07   1.423534311e-08
          7.8e-07   1.423451751e-08
          7.9e-07   1.423807726e-08
            8e-07   1.423523224e-08
          8.1e-07   1.423606512e-08
          8.2e-07   1.423773156e-08
          8.3e-07   1.423880858e-08
          8.4e-07   1.424485166e-08
          8.5e-07   1.424310288e-08
          8.6e-07   1.424494399e-08
          8.7e-07   1.425012563e-08
          8.8e-07   1.425191715e-08
          8.9e-07    1.42556914e-08
            9e-07   1.425819063e-08
          9.1e-07   1.426024603e-08
          9.2e-07   1.426503252e-08
          9.3e-07   1.426408722e-08
          9.4e-07   1.426243551e-08
          9.5e-07   1.426533954e-08
          9.6e-07   1.426421797e-08
          9.7e-07   1.427131026e-08
          9.8e-07   1.427658021e-08
          9.9e-07   1.428301338e-08
            1e-06   1.428851617e-08
         1.01e-06   1.429167795e-08
         1.02e-06   1.429038015e-08
         1.03e-06   1.429044436e-08
         1.04e-06   1.429434192e-08
         1.05e-06   1.429610848e-08
         1.06e-06   1.429652055e-08
         1.07e-06   1.429541867e-08
         1.08e-06   1.429669976e-08
         1.09e-06   1.429891183e-08
          1.1e-06   1.430143954e-08
         1.11e-06   1.430315157e-08
         1.12e-06   1.430587753e-08
         1.13e-06   1.431060739e-08
         1.14e-06   1.430773172e-08
         1.15e-06   1.430603209e-08
         1.16e-06   1.430950647e-08
         1.17e-06   1.431320263e-08
         1.18e-06   1.431298561e-08
         1.19e-06   1.431950113e-08
          1.2e-06   1.432464736e-08
         1.21e-06   1.432839067e-08
         1.22e-06   1.432557664e-08
         1.23e-06    1.43247631e-08
         1.24e-06   1.433076365e-08
         1.25e-06   1.433162082e-08
         1.26e-06   1.433490169e-08
         1.27e-06   1.433631523e-08
         1.28e-06   1.432994761e-08
         1.29e-06   1.433714332e-08
          1.3e-06   1.434274504e-08
         1.31e-06   1.434112076e-08
         1.32e-06   1.434063697e-08
         1.33e-06   1.434081107e-08
         1.34e-06   1.434712441e-08
         1.35e-06   1.435008111e-08
         1.36e-06   1.435248488e-08
         1.37e-06   1.435502194e-08
         1.38e-06   1.435777632e-08
         1.39e-06   1.436046716e-08
          1.4e-06   1.435885993e-08
         1.41e-06   1.436204756e-08
         1.42e-06   1.436369247e-08
         1.43e-06   1.436361744e-08
         1.44e-06   1.436288481e-08
         1.45e-06   1.435948231e-08
         1.46e-06   1.435965338e-08
         1.47e-06   1.436427007e-08
         1.48e-06   1.436739451e-08
         1.49e-06   1.436703661e-08
          1.5e-06   1.437085835e-08
         1.51e-06   1.437496721e-08
         1.52e-06   1.437185721e-08
         1.53e-06   1.437027122e-08
         1.54e-06   1.437191913e-08
         1.55e-06   1.437236455e-08
         1.56e-06   1.437121908e-08
         1.57e-06   1.437579744e-08
         1.58e-06   1.437678215e-08
         1.59e-06   1.438427129e-08
          1.6e-06   1.438851668e-08
         1.61e-06   1.439411447e-08
         1.62e-06   1.440138971e-08
         1.63e-06   1.440570693e-08
         1.64e-06   1.441250428e-08
         1.65e-06   1.441122245e-08
         1.66e-06   1.440970405e-08
         1.67e-06   1.441329876e-08
         1.68e-06   1.441577734e-08
         1.69e-06    1.44183178e-08
          1.7e-06   1.441784142e-08
         1.71e-06    1.44195745e-08
         1.72e-06   1.442345411e-08
         1.73e-06   1.442380984e-08
         1.74e-06   1.442347051e-08
         1.75e-06   1.442189381e-08
         1.76e-06   1.442275681e-08
         1.77e-06   1.442291471e-08
         1.78e-06   1.443156692e-08
         1.79e-06   1.443058743e-08
          1.8e-06   1.442946743e-08
         1.81e-06   1.443315508e-08
         1.82e-06   1.443674922e-08
         1.83e-06   1.443439491e-08
         1.84e-06   1.443250035e-08
         1.85e-06   1.443225212e-08
         1.86e-06   1.443706177e-08
         1.87e-06    1.44369108e-08
         1.88e-06   1.444188634e-08
         1.89e-06   1.444034498e-08
          1.9e-06   1.444270923e-08
         1.91e-06    1.44443349e-08
         1.92e-06   1.444493046e-08
         1.93e-06   1.444433836e-08
         1.94e-06   1.444308029e-08
         1.95e-06   1.444905749e-08
         1.96e-06   1.444941617e-08
         1.97e-06   1.445224146e-08
         1.98e-06    1.44542903e-08
         1.99e-06   1.445216595e-08
            2e-06   1.445283604e-08
         2.01e-06   1.445757748e-08
         2.02e-06   1.445852364e-08
         2.03e-06   1.445369064e-08
         2.04e-06   1.445420079e-08
         2.05e-06   1.445439422e-08
         2.06e-06   1.445665974e-08
         2.07e-06   1.445946023e-08
         2.08e-06   1.446044471e-08
         2.09e-06   1.447145801e-08
          2.1e-06   1.446989617e-08
         2.11e-06   1.447097654e-08
         2.12e-06   1.447126309e-08
         2.13e-06   1.447704106e-08
         2.14e-06    1.44785634e-08
         2.15e-06   1.448250275e-08
         2.16e-06   1.448347761e-08
         2.17e-06   1.447888615e-08
         2.18e-06   1.447775111e-08
         2.19e-06   1.447826425e-08
          2.2e-06   1.448312585e-08
         2.21e-06    1.44820794e-08
         2.22e-06   1.448131547e-08
         2.23e-06   1.447442941e-08
         2.24e-06   1.447632905e-08
         2.25e-06   1.447976919e-08
         2.26e-06   1.448138973e-08
         2.27e-06   1.448041227e-08
         2.28e-06   1.448398626e-08
         2.29e-06    1.44885812e-08
          2.3e-06   1.448465704e-08
         2.31e-06   1.448918997e-08
         2.32e-06   1.449195679e-08
         2.33e-06   1.449355443e-08
         2.34e-06   1.449606479e-08
         2.35e-06   1.449859536e-08
         2.36e-06   1.449861816e-08
         2.37e-06   1.449809806e-08
         2.38e-06   1.449533099e-08
         2.39e-06   1.449677968e-08
          2.4e-06   1.450079728e-08
         2.41e-06   1.450759693e-08
         2.42e-06     1.4510551e-08
         2.43e-06   1.451384983e-08
         2.44e-06   1.451846537e-08
         2.45e-06   1.451885545e-08
         2.46e-06   1.451744409e-08
         2.47e-06   1.451759227e-08
         2.48e-06   1.451878145e-08
         2.49e-06    1.45206794e-08
          2.5e-06   1.452299098e-08
         2.51e-06   1.452592822e-08
         2.52e-06   1.452957114e-08
         2.53e-06   1.452783355e-08
         2.54e-06   1.452588826e-08
         2.55e-06   1.453061191e-08
         2.56e-06    1.45296217e-08
         2.57e-06   1.453131842e-08
         2.58e-06   1.453569975e-08
         2.59e-06   1.453554625e-08
          2.6e-06   1.453249911e-08
         2.61e-06   1.453575117e-08
         2.62e-06   1.453876567e-08
         2.63e-06   1.453436463e-08
         2.64e-06   1.453341309e-08
         2.65e-06    1.45362485e-08
         2.66e-06   1.454129378e-08
         2.67e-06    1.45405415e-08
         2.68e-06   1.454329159e-08
         2.69e-06   1.454905254e-08
          2.7e-06   1.454939765e-08
         2.71e-06   1.455160062e-08
         2.72e-06   1.455127709e-08
         2.73e-06   1.455381202e-08
         2.74e-06    1.45536242e-08
         2.75e-06   1.455257812e-08
         2.76e-06   1.455471356e-08
         2.77e-06   1.455406584e-08
         2.78e-06   1.455567649e-08
         2.79e-06   1.455773087e-08
          2.8e-06   1.455622896e-08
         2.81e-06   1.456295449e-08
         2.82e-06   1.456110517e-08
         2.83e-06   1.456317507e-08
         2.84e-06   1.456295249e-08
         2.85e-06   1.456656412e-08
         2.86e-06   1.456328365e-08
         2.87e-06   1.456170629e-08
         2.88e-06   1.456294608e-08
         2.89e-06   1.456245378e-08
          2.9e-06   1.456751519e-08
         2.91e-06   1.456421326e-08
         2.92e-06   1.456590968e-08
         2.93e-06   1.457737491e-08
         2.94e-06   1.457670935e-08
         2.95e-06    1.45750128e-08
         2.96e-06   1.457736329e-08
         2.97e-06   1.458113123e-08
         2.98e-06   1.458229271e-08
         2.99e-06   1.458632885e-08
            3e-06   1.458075057e-08
         3.01e-06   1.458400824e-08
         3.02e-06   1.458340304e-08
         3.03e-06   1.458257606e-08
         3.04e-06   1.458402916e-08
         3.05e-06   1.458628618e-08
         3.06e-06   1.458989879e-08
         3.07e-06   1.459142883e-08
         3.08e-06   1.459429663e-08
         3.09e-06     1.4594438e-08
          3.1e-06   1.459811822e-08
         3.11e-06   1.459835998e-08
         3.12e-06   1.459976341e-08
         3.13e-06   1.459644692e-08
         3.14e-06   1.459783346e-08
         3.15e-06    1.45982907e-08
         3.16e-06    1.45995593e-08
         3.17e-06   1.460015939e-08
         3.18e-06   1.460333968e-08
         3.19e-06   1.460100478e-08
          3.2e-06   1.460044173e-08
         3.21e-06   1.460226081e-08
         3.22e-06   1.460678164e-08
         3.23e-06   1.460570861e-08
         3.24e-06   1.460816973e-08
         3.25e-06   1.460749866e-08
         3.26e-06   1.460621766e-08
         3.27e-06   1.460605692e-08
         3.28e-06   1.460493563e-08
         3.29e-06   1.460533623e-08
          3.3e-06   1.460465194e-08
         3.31e-06   1.461110325e-08
         3.32e-06   1.461003666e-08
         3.33e-06   1.461047599e-08
         3.34e-06   1.461465259e-08
         3.35e-06   1.461641711e-08
         3.36e-06   1.461675791e-08
         3.37e-06   1.461521473e-08
         3.38e-06   1.461795313e-08
         3.39e-06   1.462366764e-08
          3.4e-06   1.462550207e-08
         3.41e-06   1.462468631e-08
         3.42e-06   1.462117077e-08
         3.43e-06   1.462249178e-08
         3.44e-06    1.46256943e-08
         3.45e-06   1.463072949e-08
         3.46e-06   1.463306832e-08
         3.47e-06   1.463299775e-08
         3.48e-06   1.463090096e-08
         3.49e-06   1.463242284e-08
          3.5e-06   1.463762361e-08
         3.51e-06      1.463171e-08
         3.52e-06   1.463366907e-08
         3.53e-06   1.463352733e-08
         3.54e-06   1.463216364e-08
         3.55e-06   1.463552664e-08
         3.56e-06   1.464127557e-08
         3.57e-06   1.463623888e-08
         3.58e-06   1.463834196e-08
         3.59e-06   1.463742705e-08
          3.6e-06   1.463736418e-08
         3.61e-06   1.463889284e-08
         3.62e-06    1.46424942e-08
         3.63e-06   1.464154284e-08
         3.64e-06   1.463925052e-08
         3.65e-06   1.464451292e-08
         3.66e-06   1.464814388e-08
         3.67e-06   1.465206813e-08
         3.68e-06   1.465260586e-08
         3.69e-06   1.465597356e-08
          3.7e-06   1.465285674e-08
         3.71e-06   1.464892298e-08
         3.72e-06    1.46465532e-08
         3.73e-06   1.464826767e-08
         3.74e-06   1.464977213e-08
         3.75e-06   1.465138622e-08
         3.76e-06   1.465229073e-08
         3.77e-06   1.464964295e-08
         3.78e-06   1.465011022e-08
         3.79e-06   1.464908971e-08
          3.8e-06   1.465034451e-08
         3.81e-06   1.465328704e-08
         3.82e-06   1.465668191e-08
         3.83e-06   1.465884621e-08
         3.84e-06   1.466300303e-08
         3.85e-06   1.466550428e-08
         3.86e-06   1.466440165e-08
         3.87e-06   1.466550681e-08
         3.88e-06   1.466710818e-08
         3.89e-06   1.466669695e-08
          3.9e-06   1.466789131e-08
         3.91e-06   1.466772794e-08
         3.92e-06   1.466649917e-08
         3.93e-06   1.466786091e-08
         3.94e-06   1.466843357e-08
         3.95e-06   1.466668895e-08
         3.96e-06   1.466778198e-08
         3.97e-06   1.466972594e-08
         3.98e-06   1.467398418e-08
         3.99e-06   1.467330206e-08
            4e-06   1.467566055e-08
         4.01e-06   1.467877339e-08
         4.02e-06    1.46816075e-08
         4.03e-06     1.4678589e-08
         4.04e-06   1.468160449e-08
         4.05e-06   1.467879577e-08
         4.06e-06    1.46809558e-08
         4.07e-06   1.468143994e-08
         4.08e-06   1.468339312e-08
         4.09e-06   1.468332881e-08
          4.1e-06   1.468191613e-08
         4.11e-06   1.468493436e-08
         4.12e-06   1.468608359e-08
         4.13e-06   1.468611585e-08
         4.14e-06    1.46865527e-08
         4.15e-06   1.468910171e-08
         4.16e-06   1.469175745e-08
         4.17e-06   1.469362271e-08
         4.18e-06   1.469736481e-08
         4.19e-06   1.469846055e-08
          4.2e-06   1.469891144e-08
         4.21e-06   1.469752473e-08
         4.22e-06   1.469971641e-08
         4.23e-06   1.470355695e-08
         4.24e-06   1.470447906e-08
         4.25e-06   1.470256749e-08
         4.26e-06   1.469728557e-08
         4.27e-06    1.46995472e-08
         4.28e-06   1.470158782e-08
         4.29e-06   1.470441571e-08
          4.3e-06   1.470877224e-08
         4.31e-06   1.470870956e-08
         4.32e-06   1.470987027e-08
         4.33e-06   1.471049411e-08
         4.34e-06    1.47097431e-08
         4.35e-06   1.470775002e-08
         4.36e-06   1.470734706e-08
         4.37e-06   1.471100935e-08
         4.38e-06   1.470881258e-08
         4.39e-06   1.470617842e-08
          4.4e-06   1.470834926e-08
         4.41e-06    1.47090574e-08
         4.42e-06   1.471018782e-08
         4.43e-06   1.470736159e-08
         4.44e-06    1.47090781e-08
         4.45e-06   1.470896637e-08
         4.46e-06   1.470868192e-08
         4.47e-06   1.470695904e-08
         4.48e-06   1.470427956e-08
         4.49e-06    1.47076648e-08
          4.5e-06   1.470785329e-08
         4.51e-06     1.4708248e-08
         4.52e-06   1.470371345e-08
         4.53e-06   1.470780491e-08
         4.54e-06   1.470833134e-08
         4.55e-06   1.471276974e-08
         4.56e-06     1.4713023e-08
         4.57e-06    1.47120981e-08
         4.58e-06   1.471325911e-08
         4.59e-06   1.470917573e-08
          4.6e-06    1.47070609e-08
         4.61e-06   1.471073785e-08
         4.62e-06   1.471361571e-08
         4.63e-06   1.471667963e-08
         4.64e-06   1.471618715e-08
         4.65e-06    1.47206191e-08
         4.66e-06   1.472394937e-08
         4.67e-06   1.472214826e-08
         4.68e-06   1.472288324e-08
         4.69e-06   1.471686668e-08
          4.7e-06   1.471554973e-08
         4.71e-06   1.471616308e-08
         4.72e-06   1.471673997e-08
         4.73e-06   1.471397109e-08
         4.74e-06   1.471658793e-08
         4.75e-06   1.471906912e-08
         4.76e-06   1.471883225e-08
         4.77e-06    1.47237641e-08
         4.78e-06   1.472837815e-08
         4.79e-06   1.473104774e-08
          4.8e-06   1.473119993e-08
         4.81e-06   1.472763792e-08
         4.82e-06   1.472747732e-08
         4.83e-06   1.473199125e-08
         4.84e-06   1.473420446e-08
         4.85e-06   1.473655387e-08
         4.86e-06   1.473559132e-08
         4.87e-06   1.473916539e-08
         4.88e-06   1.473772425e-08
         4.89e-06   1.473931352e-08
          4.9e-06   1.473741395e-08
         4.91e-06   1.473853224e-08
         4.92e-06   1.474085193e-08
         4.93e-06   1.474111461e-08
         4.94e-06   1.474175665e-08
         4.95e-06   1.474135992e-08
         4.96e-06   1.474001704e-08
         4.97e-06   1.474389919e-08
         4.98e-06   1.474491218e-08
         4.99e-06   1.474287947e-08
            5e-06   1.474462703e-08
         5.01e-06   1.474603393e-08
         5.02e-06   1.474313672e-08
         5.03e-06   1.474619062e-08
         5.04e-06   1.474966279e-08
         5.05e-06   1.475022989e-08
         5.06e-06   1.475224634e-08
         5.07e-06   1.475225562e-08
         5.08e-06   1.475129455e-08
         5.09e-06   1.475198113e-08
          5.1e-06   1.475270912e-08
         5.11e-06   1.475965877e-08
         5.12e-06   1.476655712e-08
         5.13e-06    1.47690132e-08
         5.14e-06   1.476556233e-08
         5.15e-06   1.476909082e-08
         5.16e-06   1.476313961e-08
         5.17e-06   1.475767214e-08
         5.18e-06   1.475666689e-08
         5.19e-06    1.47550896e-08
          5.2e-06   1.475101087e-08
         5.21e-06   1.475628809e-08
         5.22e-06   1.475710894e-08
         5.23e-06   1.475584485e-08
         5.24e-06   1.476158078e-08
         5.25e-06   1.476345629e-08
         5.26e-06   1.476345312e-08
         5.27e-06   1.476050025e-08
         5.28e-06   1.475963864e-08
         5.29e-06   1.476281214e-08
          5.3e-06   1.476713807e-08
         5.31e-06   1.477042168e-08
         5.32e-06   1.477094258e-08
         5.33e-06   1.476988244e-08
         5.34e-06   1.476903036e-08
         5.35e-06   1.476893864e-08
         5.36e-06   1.477033588e-08
         5.37e-06   1.476932656e-08
         5.38e-06    1.47686272e-08
         5.39e-06    1.47693383e-08
          5.4e-06   1.476873296e-08
         5.41e-06   1.476669518e-08
         5.42e-06   1.476816284e-08
         5.43e-06   1.476886287e-08
         5.44e-06    1.47635005e-08
         5.45e-06   1.476037606e-08
         5.46e-06   1.475904258e-08
         5.47e-06   1.476746711e-08
         5.48e-06   1.476415833e-08
         5.49e-06   1.476070553e-08
          5.5e-06   1.476174494e-08
         5.51e-06   1.476484598e-08
         5.52e-06    1.47705244e-08
         5.53e-06   1.477189894e-08
         5.54e-06   1.476993015e-08
         5.55e-06   1.477299642e-08
         5.56e-06    1.47752468e-08
         5.57e-06   1.477543969e-08
         5.58e-06   1.477568268e-08
         5.59e-06   1.477341549e-08
          5.6e-06   1.477861359e-08
         5.61e-06   1.477658081e-08
         5.62e-06   1.477839662e-08
         5.63e-06   1.478131721e-08
         5.64e-06   1.478376143e-08
         5.65e-06   1.478605636e-08
         5.66e-06   1.478838814e-08
         5.67e-06   1.478322069e-08
         5.68e-06   1.478602428e-08
         5.69e-06   1.478691186e-08
          5.7e-06   1.478435862e-08
         5.71e-06    1.47868967e-08
         5.72e-06   1.478787654e-08
         5.73e-06   1.478698227e-08
         5.74e-06   1.479030827e-08
         5.75e-06   1.479264425e-08
         5.76e-06   1.479255762e-08
         5.77e-06   1.479134361e-08
         5.78e-06   1.479149911e-08
         5.79e-06    1.47910549e-08
          5.8e-06   1.479038774e-08
         5.81e-06   1.478928974e-08
         5.82e-06   1.479140951e-08
         5.83e-06   1.479305676e-08
         5.84e-06   1.478562213e-08
         5.85e-06   1.478623786e-08
         5.86e-06   1.478313723e-08
         5.87e-06   1.478391381e-08
         5.88e-06   1.478892188e-08
         5.89e-06   1.479069947e-08
          5.9e-06   1.478780629e-08
         5.91e-06   1.478952544e-08
         5.92e-06   1.478611288e-08
         5.93e-06    1.47852389e-08
         5.94e-06   1.478379604e-08
         5.95e-06   1.478469113e-08
         5.96e-06   1.478363305e-08
         5.97e-06   1.479144582e-08
         5.98e-06   1.479485443e-08
         5.99e-06   1.479584472e-08
            6e-06   1.480050467e-08
         6.01e-06   1.479923251e-08
         6.02e-06   1.479515026e-08
         6.03e-06   1.479284172e-08
         6.04e-06   1.479013741e-08
         6.05e-06   1.478910506e-08
         6.06e-06   1.479020773e-08
         6.07e-06   1.479361962e-08
         6.08e-06   1.479637873e-08
         6.09e-06   1.480168544e-08
          6.1e-06   1.480286075e-08
         6.11e-06   1.480547225e-08
         6.12e-06   1.480660784e-08
         6.13e-06   1.480797976e-08
         6.14e-06    1.48051765e-08
         6.15e-06   1.480404212e-08
         6.16e-06   1.480014227e-08
         6.17e-06   1.480193839e-08
         6.18e-06   1.480491123e-08
         6.19e-06    1.48031007e-08
          6.2e-06   1.480807934e-08
         6.21e-06   1.481106934e-08
         6.22e-06   1.481314579e-08
         6.23e-06   1.481449238e-08
         6.24e-06   1.481036249e-08
         6.25e-06   1.481128453e-08
         6.26e-06   1.480877079e-08
         6.27e-06   1.480768809e-08
         6.28e-06   1.480630898e-08
         6.29e-06   1.480333229e-08
          6.3e-06   1.480636654e-08
         6.31e-06    1.48037929e-08
         6.32e-06   1.480238774e-08
         6.33e-06   1.480008266e-08
         6.34e-06    1.48015497e-08
         6.35e-06   1.480044873e-08
         6.36e-06    1.48006744e-08
         6.37e-06    1.48057919e-08
         6.38e-06   1.480485965e-08
         6.39e-06   1.480337617e-08
          6.4e-06   1.480162913e-08
         6.41e-06   1.480693221e-08
         6.42e-06   1.480904902e-08
         6.43e-06   1.481045118e-08
         6.44e-06   1.481040128e-08
         6.45e-06   1.480979404e-08
         6.46e-06   1.481624669e-08
         6.47e-06   1.481288362e-08
         6.48e-06   1.481126747e-08
         6.49e-06   1.480868276e-08
          6.5e-06   1.481251165e-08
         6.51e-06   1.481268664e-08
         6.52e-06   1.481582577e-08
         6.53e-06   1.481293292e-08
         6.54e-06   1.481312003e-08
         6.55e-06   1.481582237e-08
         6.56e-06   1.481428619e-08
         6.57e-06    1.48106151e-08
         6.58e-06   1.481036852e-08
         6.59e-06   1.481337796e-08
          6.6e-06   1.481659673e-08
         6.61e-06   1.481636029e-08
         6.62e-06   1.481367015e-08
         6.63e-06   1.481336435e-08
         6.64e-06   1.481636037e-08
         6.65e-06   1.481848215e-08
         6.66e-06   1.482182786e-08
         6.67e-06   1.482183419e-08
         6.68e-06   1.482537799e-08
         6.69e-06   1.482621966e-08
          6.7e-06   1.482410267e-08
         6.71e-06   1.482144334e-08
         6.72e-06   1.482515168e-08
         6.73e-06   1.482472658e-08
         6.74e-06   1.482663359e-08
         6.75e-06   1.482722535e-08
         6.76e-06   1.482801324e-08
         6.77e-06   1.482621433e-08
         6.78e-06   1.482763281e-08
         6.79e-06   1.483090232e-08
          6.8e-06   1.483142674e-08
         6.81e-06   1.482879509e-08
         6.82e-06    1.48291696e-08
         6.83e-06   1.482805853e-08
         6.84e-06   1.482611501e-08
         6.85e-06   1.482553575e-08
         6.86e-06     1.4827544e-08
         6.87e-06    1.48298896e-08
         6.88e-06   1.482995176e-08
         6.89e-06   1.482883386e-08
          6.9e-06   1.483298117e-08
         6.91e-06   1.482904377e-08
         6.92e-06   1.483248742e-08
         6.93e-06   1.483475789e-08
         6.94e-06       1.48377e-08
         6.95e-06   1.483489824e-08
         6.96e-06   1.482975226e-08
         6.97e-06   1.482735269e-08
         6.98e-06   1.482895107e-08
         6.99e-06   1.482544805e-08
            7e-06   1.481721208e-08
         7.01e-06   1.481642314e-08
         7.02e-06   1.482021244e-08
         7.03e-06    1.48201687e-08
         7.04e-06   1.482424987e-08
         7.05e-06   1.482894864e-08
         7.06e-06   1.482824885e-08
         7.07e-06   1.482709325e-08
         7.08e-06   1.482762028e-08
         7.09e-06   1.483051738e-08
          7.1e-06   1.483078646e-08
         7.11e-06   1.482832968e-08
         7.12e-06    1.48267059e-08
         7.13e-06    1.48227004e-08
         7.14e-06   1.482620157e-08
         7.15e-06   1.482516194e-08
         7.16e-06   1.482640193e-08
         7.17e-06   1.482677206e-08
         7.18e-06   1.482880416e-08
         7.19e-06   1.482982648e-08
          7.2e-06   1.483257955e-08
         7.21e-06   1.483452154e-08
         7.22e-06   1.483667919e-08
         7.23e-06   1.483428772e-08
         7.24e-06    1.48365509e-08
         7.25e-06   1.483216018e-08
         7.26e-06   1.483067295e-08
         7.27e-06   1.482606424e-08
         7.28e-06   1.482638132e-08
         7.29e-06   1.482792543e-08
          7.3e-06   1.482869272e-08
         7.31e-06   1.482993471e-08
         7.32e-06   1.483141268e-08
         7.33e-06   1.483290471e-08
         7.34e-06   1.483307901e-08
         7.35e-06   1.483198658e-08
         7.36e-06   1.482796091e-08
         7.37e-06   1.483597698e-08
         7.38e-06   1.484171081e-08
         7.39e-06   1.484438803e-08
          7.4e-06    1.48444671e-08
         7.41e-06   1.485093189e-08
         7.42e-06   1.484884074e-08
         7.43e-06   1.484430075e-08
         7.44e-06   1.484874283e-08
         7.45e-06   1.484779101e-08
         7.46e-06   1.484648116e-08
         7.47e-06   1.484724877e-08
         7.48e-06   1.484864879e-08
         7.49e-06   1.485632269e-08
          7.5e-06   1.485243975e-08
         7.51e-06   1.485495965e-08
         7.52e-06   1.485350315e-08
         7.53e-06   1.485117362e-08
         7.54e-06   1.485252148e-08
         7.55e-06   1.485195554e-08
         7.56e-06   1.485309413e-08
         7.57e-06   1.484978162e-08
         7.58e-06   1.484635495e-08
         7.59e-06   1.485244611e-08
          7.6e-06   1.485508379e-08
         7.61e-06   1.485677692e-08
         7.62e-06   1.485558267e-08
         7.63e-06   1.485050266e-08
         7.64e-06   1.485018878e-08
         7.65e-06   1.485383561e-08
         7.66e-06   1.484853551e-08
         7.67e-06   1.484669479e-08
         7.68e-06   1.484601395e-08
         7.69e-06   1.484514945e-08
          7.7e-06   1.485087922e-08
         7.71e-06   1.484991333e-08
         7.72e-06   1.485176621e-08
         7.73e-06   1.485499902e-08
         7.74e-06   1.485478442e-08
         7.75e-06   1.485533172e-08
         7.76e-06   1.485546223e-08
         7.77e-06   1.485243205e-08
         7.78e-06   1.485178953e-08
         7.79e-06    1.48525017e-08
          7.8e-06   1.485221656e-08
         7.81e-06   1.485124099e-08
         7.82e-06   1.485190881e-08
         7.83e-06   1.484995683e-08
         7.84e-06    1.48545854e-08
         7.85e-06   1.485227112e-08
         7.86e-06   1.485520445e-08
         7.87e-06   1.485436696e-08
         7.88e-06   1.485319067e-08
         7.89e-06   1.485721577e-08
          7.9e-06   1.485531859e-08
         7.91e-06   1.485209791e-08
         7.92e-06   1.485151383e-08
         7.93e-06   1.484560704e-08
         7.94e-06   1.484821707e-08
         7.95e-06   1.484908808e-08
         7.96e-06   1.484941872e-08
         7.97e-06   1.484687814e-08
         7.98e-06   1.484966966e-08
         7.99e-06   1.485035066e-08
            8e-06   1.484979124e-08
         8.01e-06     1.4852084e-08
         8.02e-06   1.485256101e-08
         8.03e-06   1.485705814e-08
         8.04e-06   1.486384102e-08
         8.05e-06   1.485807648e-08
         8.06e-06   1.485770095e-08
         8.07e-06   1.486152641e-08
         8.08e-06   1.486619754e-08
         8.09e-06   1.486464864e-08
          8.1e-06   1.486557212e-08
         8.11e-06   1.486565593e-08
         8.12e-06    1.48619573e-08
         8.13e-06   1.485916868e-08
         8.14e-06   1.486223842e-08
         8.15e-06   1.485899119e-08
         8.16e-06   1.485878507e-08
         8.17e-06   1.486285419e-08
         8.18e-06   1.486206163e-08
         8.19e-06   1.485848233e-08
          8.2e-06    1.48557988e-08
         8.21e-06   1.486315739e-08
         8.22e-06   1.486144547e-08
         8.23e-06   1.486584498e-08
         8.24e-06   1.486430366e-08
         8.25e-06     1.4864526e-08
         8.26e-06   1.486298302e-08
         8.27e-06   1.485776378e-08
         8.28e-06   1.485751132e-08
         8.29e-06   1.486122657e-08
          8.3e-06   1.485949287e-08
         8.31e-06   1.486185179e-08