# Probe 0 (5e-06 5e-06 5e-06)
#           Probe                 0
#            Time
            1e-08       9469.454403
            2e-08       9325.615533
            3e-08       9218.469927
            4e-08       9133.489729
            5e-08       9060.678909
            6e-08       8983.543969
            7e-08       8923.929664
            8e-08       8871.070431
            9e-08        8822.68126
            1e-07       8780.861402
          1.1e-07       8744.682628
          1.2e-07       8697.158103
          1.3e-07       8663.001861
          1.4e-07       8630.747112
          1.5e-07       8600.285574
          1.6e-07       8570.026961
          1.7e-07       8542.232772
          1.8e-07       8517.200965
          1.9e-07       8495.127537
            2e-07       8474.918678
          2.1e-07       8454.146923
          2.2e-07       8435.040667
          2.3e-07       8414.267051
          2.4e-07       8396.144143
          2.5e-07       8376.874505
          2.6e-07       8357.873904
          2.7e-07       8340.544884
          2.8e-07       8324.433973
          2.9e-07       8309.467738
            3e-07       8295.641929
          3.1e-07       8282.087587
          3.2e-07       8268.118219
          3.3e-07       8255.423406
          3.4e-07       8242.997029
          3.5e-07       8231.495916
          3.6e-07       8218.104754
          3.7e-07       8206.398208
          3.8e-07       8194.778844
          3.9e-07       8183.657693
            4e-07       8174.930755
          4.1e-07       8164.324077
          4.2e-07        8153.54388
          4.3e-07       8144.326338
          4.4e-07       8135.692915
          4.5e-07        8127.08876
          4.6e-07       8116.976127
          4.7e-07       8109.637841
          4.8e-07        8100.04538
          4.9e-07       8091.115916
            5e-07       8082.354022
          5.1e-07       8074.186597
          5.2e-07       8065.873771
          5.3e-07       8058.552542
          5.4e-07       8051.438237
          5.5e-07       8044.554671
          5.6e-07       8036.018677
          5.7e-07       8028.278044
          5.8e-07       8023.172849
          5.9e-07       8016.352631
            6e-07       8009.685255
          6.1e-07       8003.352844
          6.2e-07       7997.505461
          6.3e-07       7992.436789
          6.4e-07       7985.367224
          6.5e-07       7978.771257
          6.6e-07       7973.406292
          6.7e-07       7967.800942
          6.8e-07       7962.082649
          6.9e-07        7957.02073
            7e-07       7951.439057
          7.1e-07       7946.792866
          7.2e-07       7941.180693
          7.3e-07        7936.43455
          7.4e-07       7931.162812
          7.5e-07       7926.210142
          7.6e-07       7921.199016
          7.7e-07       7916.901777
          7.8e-07       7913.332864
          7.9e-07       7909.348733
            8e-07       7905.151803
          8.1e-07       7901.409068
          8.2e-07       7896.912831
          8.3e-07       7892.937763
          8.4e-07       7888.759492
          8.5e-07       7885.384521
          8.6e-07       7880.971626
          8.7e-07       7877.964901
          8.8e-07       7874.301066
          8.9e-07       7870.501049
            9e-07       7866.401445
          9.1e-07       7863.437864
          9.2e-07       7859.833195
          9.3e-07       7856.087274
          9.4e-07       7852.255187
          9.5e-07       7848.352539
          9.6e-07       7845.224174
          9.7e-07       7841.288759
          9.8e-07       7838.543073
          9.9e-07       7834.901256
            1e-06       7831.822462
         1.01e-06       7828.720169
         1.02e-06       7825.733198
         1.03e-06       7822.537492
         1.04e-06       7819.739103
         1.05e-06       7816.221368
         1.06e-06       7814.197059
         1.07e-06       7811.663219
         1.08e-06       7808.348888
         1.09e-06       7805.167632
          1.1e-06       7802.859454
         1.11e-06       7800.175303
         1.12e-06       7797.605743
         1.13e-06       7795.182806
         1.14e-06       7793.042689
         1.15e-06        7790.60218
         1.16e-06       7787.983941
         1.17e-06       7785.786726
         1.18e-06       7783.443104
         1.19e-06       7780.965738
          1.2e-06       7778.637997
         1.21e-06       7776.090951
         1.22e-06       7774.047334
         1.23e-06        7771.91065
         1.24e-06        7769.41203
         1.25e-06       7766.847303
         1.26e-06       7764.827124
         1.27e-06       7762.381245
         1.28e-06       7760.256043
         1.29e-06       7758.139063
          1.3e-06       7755.920509
         1.31e-06       7753.725431
         1.32e-06       7751.718641
         1.33e-06       7749.962271
         1.34e-06       7747.553002
         1.35e-06       7745.306171
         1.36e-06       7743.423663
         1.37e-06       7741.239049
         1.38e-06       7739.233764
         1.39e-06       7737.462016
          1.4e-06       7735.484323
         1.41e-06       7733.377255
         1.42e-06       7731.579505
         1.43e-06       7729.561942
         1.44e-06       7727.643382
         1.45e-06       7726.094537
         1.46e-06       7724.214753
         1.47e-06       7722.184801
         1.48e-06       7720.402712
         1.49e-06       7718.550886
          1.5e-06       7716.769727
         1.51e-06       7714.818459
         1.52e-06       7713.399704
         1.53e-06       7712.199559
         1.54e-06       7711.234868
         1.55e-06       7709.358931
         1.56e-06       7707.770047
         1.57e-06       7706.246811
         1.58e-06       7704.571898
         1.59e-06       7702.997631
          1.6e-06       7701.287604
         1.61e-06       7699.582635
         1.62e-06       7697.704084
         1.63e-06       7696.724906
         1.64e-06       7694.943368
         1.65e-06       7693.808359
         1.66e-06       7692.357332
         1.67e-06        7690.92246
         1.68e-06       7689.461645
         1.69e-06       7688.174918
          1.7e-06        7687.05691
         1.71e-06       7685.728275
         1.72e-06       7684.234116
         1.73e-06       7683.176614
         1.74e-06       7682.108627
         1.75e-06        7680.73564
         1.76e-06       7679.098988
         1.77e-06       7678.159091
         1.78e-06       7676.832322
         1.79e-06        7675.46156
          1.8e-06       7674.284836
         1.81e-06       7673.202914
         1.82e-06       7671.964373
         1.83e-06       7670.884249
         1.84e-06       7669.580929
         1.85e-06       7668.178411
         1.86e-06        7666.94919
         1.87e-06       7666.032374
         1.88e-06       7664.709037
         1.89e-06       7663.545007
          1.9e-06       7662.174587
         1.91e-06       7661.184103
         1.92e-06       7660.450478
         1.93e-06       7659.012371
         1.94e-06       7657.950456
         1.95e-06       7656.805197
         1.96e-06       7655.709772
         1.97e-06       7654.666251
         1.98e-06        7653.59548
         1.99e-06       7652.691926
            2e-06       7651.419015
         2.01e-06       7650.529232
         2.02e-06       7649.595668
         2.03e-06       7648.283272
         2.04e-06        7647.29163
         2.05e-06       7646.399843
         2.06e-06       7645.421205
         2.07e-06       7644.243003
         2.08e-06       7643.255047
         2.09e-06       7642.246524
          2.1e-06        7641.54896
         2.11e-06       7640.600893
         2.12e-06       7639.603057
         2.13e-06       7638.488356
         2.14e-06       7637.590736
         2.15e-06       7636.460191
         2.16e-06       7635.587243
         2.17e-06       7634.812114
         2.18e-06       7633.896633
         2.19e-06        7633.01069
          2.2e-06       7631.944501
         2.21e-06       7631.050347
         2.22e-06       7630.122108
         2.23e-06       7629.279282
         2.24e-06       7628.671585
         2.25e-06       7627.871354
         2.26e-06       7627.050747
         2.27e-06       7626.415129
         2.28e-06        7625.47877
         2.29e-06       7624.339145
          2.3e-06       7623.622354
         2.31e-06       7622.627783
         2.32e-06       7621.697217
         2.33e-06       7620.924501
         2.34e-06       7620.343881
         2.35e-06       7619.556078
         2.36e-06       7618.578994
         2.37e-06       7617.850827
         2.38e-06        7617.08529
         2.39e-06       7616.263623
          2.4e-06       7615.573133
         2.41e-06       7614.635818
         2.42e-06       7614.077892
         2.43e-06       7613.066368
         2.44e-06       7612.022632
         2.45e-06       7611.503053
         2.46e-06       7610.837794
         2.47e-06       7610.262752
         2.48e-06       7609.334556
         2.49e-06       7608.443846
          2.5e-06       7607.490045
         2.51e-06       7606.931515
         2.52e-06       7606.146385
         2.53e-06       7605.487169
         2.54e-06       7604.937597
         2.55e-06       7604.411981
         2.56e-06       7603.832868
         2.57e-06       7603.121186
         2.58e-06       7602.515034
         2.59e-06        7601.94174
          2.6e-06       7601.290193
         2.61e-06       7600.761815
         2.62e-06       7600.009321
         2.63e-06       7599.500256
         2.64e-06        7598.77032
         2.65e-06       7598.460748
         2.66e-06        7597.91484
         2.67e-06       7597.317886
         2.68e-06       7596.815102
         2.69e-06       7595.983785
          2.7e-06       7595.285195
         2.71e-06        7594.46103
         2.72e-06       7594.307231
         2.73e-06       7593.763866
         2.74e-06       7593.004468
         2.75e-06       7592.433373
         2.76e-06       7592.153529
         2.77e-06       7591.384154
         2.78e-06        7590.48941
         2.79e-06       7589.785872
          2.8e-06       7589.167081
         2.81e-06       7588.440155
         2.82e-06       7587.821919
         2.83e-06        7587.33606
         2.84e-06       7586.796676
         2.85e-06       7586.323095
         2.86e-06       7585.830954
         2.87e-06       7585.163764
         2.88e-06       7584.555113
         2.89e-06       7583.924869
          2.9e-06       7583.169693
         2.91e-06       7582.587635
         2.92e-06       7581.827061
         2.93e-06       7581.151232
         2.94e-06        7580.69891
         2.95e-06         7580.3097
         2.96e-06       7579.697462
         2.97e-06       7579.215363
         2.98e-06       7578.750631
         2.99e-06        7578.20814
            3e-06       7577.681268
         3.01e-06       7576.787306
         3.02e-06       7576.506372
         3.03e-06        7575.97841
         3.04e-06       7575.537827
         3.05e-06       7575.016486
         3.06e-06       7574.486961
         3.07e-06       7573.962208
         3.08e-06       7573.582598
         3.09e-06       7573.121855
          3.1e-06       7572.526684
         3.11e-06       7572.024682
         3.12e-06       7571.459231
         3.13e-06        7570.90656
         3.14e-06       7570.195705
         3.15e-06       7569.694921
         3.16e-06       7569.359913
         3.17e-06       7568.694174
         3.18e-06       7568.338139
         3.19e-06       7567.780085
          3.2e-06       7567.258317
         3.21e-06       7566.647501
         3.22e-06       7565.967001
         3.23e-06       7565.487241
         3.24e-06        7565.18246
         3.25e-06       7564.735576
         3.26e-06       7564.410911
         3.27e-06       7563.947472
         3.28e-06       7563.699173
         3.29e-06       7563.286387
          3.3e-06       7562.727116
         3.31e-06       7562.269671
         3.32e-06       7561.971296
         3.33e-06       7561.612396
         3.34e-06       7561.114861
         3.35e-06       7560.773379
         3.36e-06       7560.290054
         3.37e-06       7559.682684
         3.38e-06       7559.337164
         3.39e-06       7558.947987
          3.4e-06       7558.310286
         3.41e-06       7557.769519
         3.42e-06       7557.154871
         3.43e-06       7556.691884
         3.44e-06       7556.312285
         3.45e-06       7555.927988
         3.46e-06       7555.577089
         3.47e-06       7555.146752
         3.48e-06       7554.918178
         3.49e-06       7554.368606
          3.5e-06       7553.879886
         3.51e-06       7553.439722
         3.52e-06       7553.028022
         3.53e-06       7552.528094
         3.54e-06       7552.346501
         3.55e-06       7552.003015
         3.56e-06       7551.535571
         3.57e-06       7551.201021
         3.58e-06       7550.863683
         3.59e-06       7550.512159
          3.6e-06       7549.971463
         3.61e-06       7549.566171
         3.62e-06        7549.14295
         3.63e-06         7548.7922
         3.64e-06       7548.333658
         3.65e-06        7547.74924
         3.66e-06       7547.448671
         3.67e-06       7547.129069
         3.68e-06       7546.630254
         3.69e-06       7546.380511
          3.7e-06       7546.050127
         3.71e-06       7545.729849
         3.72e-06       7545.486905
         3.73e-06       7545.244983
         3.74e-06       7544.976469
         3.75e-06       7544.681731
         3.76e-06       7544.468654
         3.77e-06       7544.226503
         3.78e-06       7543.970092
         3.79e-06       7543.758064
          3.8e-06       7543.228845
         3.81e-06       7542.903635
         3.82e-06       7542.599702
         3.83e-06        7542.30684
         3.84e-06       7542.203709
         3.85e-06       7541.925254
         3.86e-06       7541.645727
         3.87e-06       7541.400398
         3.88e-06       7541.013651
         3.89e-06       7540.645241
          3.9e-06       7540.593021
         3.91e-06       7540.146495
         3.92e-06       7539.690724
         3.93e-06       7539.489694
         3.94e-06        7539.16749
         3.95e-06       7538.711167
         3.96e-06       7538.188435
         3.97e-06       7537.705976
         3.98e-06       7537.446918
         3.99e-06       7536.955414
            4e-06        7536.66086
         4.01e-06       7536.395747
         4.02e-06       7536.034746
         4.03e-06       7535.609961
         4.04e-06        7535.40263
         4.05e-06        7535.06643
         4.06e-06       7534.900035
         4.07e-06          7534.572
         4.08e-06       7534.053253
         4.09e-06       7533.844039
          4.1e-06       7533.619806
         4.11e-06       7533.113563
         4.12e-06       7532.579412
         4.13e-06       7532.243359
         4.14e-06       7531.900607
         4.15e-06       7531.585046
         4.16e-06       7531.258294
         4.17e-06       7530.991608
         4.18e-06       7530.776643
         4.19e-06       7530.573577
          4.2e-06       7530.381381
         4.21e-06       7530.092234
         4.22e-06        7529.76716
         4.23e-06        7529.44941
         4.24e-06       7529.035135
         4.25e-06       7528.583761
         4.26e-06       7528.391193
         4.27e-06       7528.247535
         4.28e-06       7528.039838
         4.29e-06       7527.940546
          4.3e-06       7527.577008
         4.31e-06       7527.314643
         4.32e-06       7526.940701
         4.33e-06       7526.645317
         4.34e-06       7526.506722
         4.35e-06       7526.405556
         4.36e-06       7526.157815
         4.37e-06       7525.695666
         4.38e-06        7525.44114
         4.39e-06       7525.300173
          4.4e-06       7525.125407
         4.41e-06       7524.908213
         4.42e-06       7524.673878
         4.43e-06       7524.436041
         4.44e-06       7524.376181
         4.45e-06       7524.187949
         4.46e-06       7523.708088
         4.47e-06       7523.528546
         4.48e-06       7523.434414
         4.49e-06       7523.260683
          4.5e-06       7522.980859
         4.51e-06       7522.760673
         4.52e-06       7522.555167
         4.53e-06        7522.20611
         4.54e-06        7522.06215
         4.55e-06       7521.826014
         4.56e-06       7521.594075
         4.57e-06       7521.236415
         4.58e-06       7521.139586
         4.59e-06       7521.013754
          4.6e-06        7520.91964
         4.61e-06        7520.56533
         4.62e-06       7520.487884
         4.63e-06       7520.348898
         4.64e-06       7520.100904
         4.65e-06       7519.901917
         4.66e-06       7519.621983
         4.67e-06       7519.410244
         4.68e-06        7519.27045
         4.69e-06       7519.056735
          4.7e-06       7518.777505
         4.71e-06       7518.447227
         4.72e-06       7518.198944
         4.73e-06       7518.041167
         4.74e-06       7517.695026
         4.75e-06       7517.448442
         4.76e-06       7517.176587
         4.77e-06       7517.081499
         4.78e-06       7516.956138
         4.79e-06       7516.510478
          4.8e-06       7516.210224
         4.81e-06       7515.971939
         4.82e-06       7515.643376
         4.83e-06       7515.509601
         4.84e-06       7515.217906
         4.85e-06       7515.126432
         4.86e-06       7515.039549
         4.87e-06       7514.801166
         4.88e-06        7514.66542
         4.89e-06       7514.464709
          4.9e-06       7514.327279
         4.91e-06       7514.084244
         4.92e-06       7513.987801
         4.93e-06       7513.622957
         4.94e-06       7513.507118
         4.95e-06       7513.279269
         4.96e-06       7513.158852
         4.97e-06        7513.01856
         4.98e-06       7512.820912
         4.99e-06       7512.675395
            5e-06       7512.474436
         5.01e-06       7512.368104
         5.02e-06       7512.049308
         5.03e-06        7511.87685
         5.04e-06       7511.729033
         5.05e-06       7511.574147
         5.06e-06       7511.174498
         5.07e-06        7511.09697
         5.08e-06       7510.986521
         5.09e-06       7510.778847
          5.1e-06       7510.750617
         5.11e-06       7510.557056
         5.12e-06       7510.352649
         5.13e-06       7510.181607
         5.14e-06       7509.956945
         5.15e-06       7509.846663
         5.16e-06       7509.480762
         5.17e-06       7509.365108
         5.18e-06       7509.244625
         5.19e-06       7508.971429
          5.2e-06       7508.713478
         5.21e-06       7508.544489
         5.22e-06        7508.31524
         5.23e-06       7508.087936
         5.24e-06       7507.767499
         5.25e-06        7507.44365
         5.26e-06       7507.139474
         5.27e-06       7506.972699
         5.28e-06       7506.873316
         5.29e-06       7506.641899
          5.3e-06       7506.445294
         5.31e-06       7506.180448
         5.32e-06       7506.026688
         5.33e-06       7505.746636
         5.34e-06       7505.626835
         5.35e-06       7505.469699
         5.36e-06       7505.408643
         5.37e-06       7505.286802
         5.38e-06       7505.132855
         5.39e-06       7504.900961
          5.4e-06       7504.684225
         5.41e-06       7504.645866
         5.42e-06       7504.443924
         5.43e-06       7504.339798
         5.44e-06       7504.174614
         5.45e-06       7504.189585
         5.46e-06       7504.023397
         5.47e-06       7503.861497
         5.48e-06       7503.699709
         5.49e-06       7503.650443
          5.5e-06       7503.441407
         5.51e-06       7503.260271
         5.52e-06       7503.253507
         5.53e-06       7503.104369
         5.54e-06        7502.99116
         5.55e-06       7502.801784
         5.56e-06       7502.504588
         5.57e-06       7502.449424
         5.58e-06        7502.33965
         5.59e-06       7502.108363
          5.6e-06       7501.808098
         5.61e-06       7501.726318
         5.62e-06       7501.757412
         5.63e-06       7501.586945
         5.64e-06       7501.513108
         5.65e-06       7501.345555
         5.66e-06       7501.120532
         5.67e-06       7500.965771
         5.68e-06       7500.819972
         5.69e-06       7500.547648
          5.7e-06       7500.583866
         5.71e-06       7500.479578
         5.72e-06        7500.43363
         5.73e-06        7500.51127
         5.74e-06       7500.427732
         5.75e-06       7500.013866
         5.76e-06       7499.967572
         5.77e-06        7499.70008
         5.78e-06       7499.573144
         5.79e-06       7499.431789
          5.8e-06       7499.176414
         5.81e-06       7498.951317
         5.82e-06       7498.855414
         5.83e-06        7498.60107
         5.84e-06        7498.54394
         5.85e-06       7498.296445
         5.86e-06       7498.165838
         5.87e-06       7498.326822
         5.88e-06       7498.193537
         5.89e-06       7498.088341
          5.9e-06       7498.062592
         5.91e-06       7497.933946
         5.92e-06       7497.747171
         5.93e-06       7497.572854
         5.94e-06       7497.502115
         5.95e-06        7497.40311
         5.96e-06       7497.213686
         5.97e-06       7497.041815
         5.98e-06        7497.01476
         5.99e-06       7496.881144
            6e-06       7496.711531
         6.01e-06       7496.550028
         6.02e-06       7496.455702
         6.03e-06       7496.364614
         6.04e-06       7496.186632
         6.05e-06       7496.123057
         6.06e-06       7496.052519
         6.07e-06       7495.950596
         6.08e-06       7495.790857
         6.09e-06       7495.660721
          6.1e-06         7495.5013
         6.11e-06         7495.2782
         6.12e-06       7495.118173
         6.13e-06        7495.02557
         6.14e-06       7494.895394
         6.15e-06       7494.695465
         6.16e-06       7494.647129
         6.17e-06       7494.386022
         6.18e-06       7494.135213
         6.19e-06       7494.064997
          6.2e-06        7493.89107
         6.21e-06       7493.637266
         6.22e-06       7493.513537
         6.23e-06       7493.346987
         6.24e-06       7493.262048
         6.25e-06       7493.223914
         6.26e-06       7493.069106
         6.27e-06       7492.957557
         6.28e-06       7492.900223
         6.29e-06       7492.698805
          6.3e-06       7492.572925
         6.31e-06       7492.341998
         6.32e-06       7492.317789
         6.33e-06        7492.05177
         6.34e-06       7492.115363
         6.35e-06       7492.037651
         6.36e-06       7492.056044
         6.37e-06       7491.886374
         6.38e-06       7491.713028
         6.39e-06       7491.647473
          6.4e-06       7491.597608
         6.41e-06       7491.463102
         6.42e-06       7491.261587
         6.43e-06       7491.290464
         6.44e-06       7491.149653
         6.45e-06       7491.079811
         6.46e-06       7490.887891
         6.47e-06       7490.853994
         6.48e-06       7490.624476
         6.49e-06       7490.525143
          6.5e-06       7490.376048
         6.51e-06       7490.451897
         6.52e-06       7490.277957
         6.53e-06       7490.247026
         6.54e-06       7490.237495
         6.55e-06       7490.157788
         6.56e-06       7490.060891
         6.57e-06       7489.906971
         6.58e-06       7489.801909
         6.59e-06       7489.416315
          6.6e-06       7489.329145
         6.61e-06       7489.264065
         6.62e-06       7489.091196
         6.63e-06       7489.036966
         6.64e-06        7488.94852
         6.65e-06       7488.944816
         6.66e-06        7488.80496
         6.67e-06       7488.711538
         6.68e-06       7488.600315
         6.69e-06       7488.452251
          6.7e-06       7488.310864
         6.71e-06       7488.140277
         6.72e-06        7488.00295
         6.73e-06       7487.890115
         6.74e-06       7487.823932
         6.75e-06       7487.699745
         6.76e-06       7487.668921
         6.77e-06       7487.631626
         6.78e-06       7487.478495
         6.79e-06       7487.328931
          6.8e-06       7487.209609
         6.81e-06       7487.066951
         6.82e-06        7487.08112
         6.83e-06       7486.958022
         6.84e-06       7486.776866
         6.85e-06       7486.631023
         6.86e-06       7486.560432
         6.87e-06       7486.397051
         6.88e-06       7486.319878
         6.89e-06       7486.294696
          6.9e-06       7486.144103
         6.91e-06       7485.912009
         6.92e-06        7485.88957
         6.93e-06       7485.802228
         6.94e-06        7485.78051
         6.95e-06       7485.906445
         6.96e-06       7485.753919
         6.97e-06       7485.626196
         6.98e-06       7485.493957
         6.99e-06       7485.377179
            7e-06       7485.336931
         7.01e-06       7485.103856
         7.02e-06       7485.003697
         7.03e-06       7484.983058
         7.04e-06       7484.907625
         7.05e-06        7484.76119
         7.06e-06       7484.697892
         7.07e-06       7484.493464
         7.08e-06       7484.580351
         7.09e-06       7484.459989
          7.1e-06        7484.39951
         7.11e-06       7484.329452
         7.12e-06        7484.21637
         7.13e-06       7484.177927
         7.14e-06       7484.034622
         7.15e-06       7484.175273
         7.16e-06       7484.015552
         7.17e-06       7483.854894
         7.18e-06       7483.918692
         7.19e-06       7483.790331
          7.2e-06       7483.564018
         7.21e-06       7483.602463
         7.22e-06        7483.47095
         7.23e-06       7483.257158
         7.24e-06       7483.089111
         7.25e-06       7483.228914
         7.26e-06       7483.197544
         7.27e-06        7483.26333
         7.28e-06       7483.288586
         7.29e-06       7483.198214
          7.3e-06       7483.220505
         7.31e-06       7483.145642
         7.32e-06       7483.093695
         7.33e-06       7483.014082
         7.34e-06       7482.937068
         7.35e-06       7482.892413
         7.36e-06       7482.793585
         7.37e-06       7482.595123
         7.38e-06       7482.644472
         7.39e-06       7482.511879
          7.4e-06       7482.528093
         7.41e-06       7482.528253
         7.42e-06       7482.393375
         7.43e-06       7482.382298
         7.44e-06       7482.513655
         7.45e-06        7482.29054
         7.46e-06       7482.263983
         7.47e-06       7482.231609
         7.48e-06       7482.176505
         7.49e-06       7482.059316
          7.5e-06       7481.893836
         7.51e-06       7481.958399
         7.52e-06        7481.97515
         7.53e-06       7481.762905
         7.54e-06       7481.786717
         7.55e-06       7481.718927
         7.56e-06       7481.696946
         7.57e-06       7481.587351
         7.58e-06       7481.639368
         7.59e-06       7481.597104
          7.6e-06       7481.383855
         7.61e-06       7481.355269
         7.62e-06       7481.356973
         7.63e-06       7481.312299
         7.64e-06       7481.233748
         7.65e-06       7481.168323
         7.66e-06       7481.097208
         7.67e-06        7481.12802
         7.68e-06       7481.034012
         7.69e-06       7481.020974
          7.7e-06       7480.959925
         7.71e-06       7480.948869
         7.72e-06       7480.839244
         7.73e-06       7480.803532
         7.74e-06       7480.795073
         7.75e-06       7480.709422
         7.76e-06       7480.656772
         7.77e-06       7480.477044
         7.78e-06       7480.335546
         7.79e-06       7480.348954
          7.8e-06        7480.25928
         7.81e-06       7480.263144
         7.82e-06       7480.193755
         7.83e-06       7480.096544
         7.84e-06       7480.082707
         7.85e-06       7480.235275
         7.86e-06       7480.146558
         7.87e-06       7480.046306
         7.88e-06       7480.042878
         7.89e-06       7479.837664
          7.9e-06       7479.878872
         7.91e-06       7479.806491
         7.92e-06       7479.841912
         7.93e-06       7479.890341
         7.94e-06        7480.03978
         7.95e-06       7479.931035
         7.96e-06        7479.90625
         7.97e-06       7479.936822
         7.98e-06       7479.776062
         7.99e-06       7479.632905
            8e-06       7479.705537
         8.01e-06       7479.657186
         8.02e-06       7479.592611
         8.03e-06       7479.506165
         8.04e-06       7479.252628
         8.05e-06         7479.2666
         8.06e-06       7479.168711
         8.07e-06       7479.127024
         8.08e-06       7479.056738
         8.09e-06       7479.041565
          8.1e-06       7478.939881
         8.11e-06       7478.797269
         8.12e-06       7478.816141
         8.13e-06       7478.722765
         8.14e-06       7478.664216
         8.15e-06       7478.600818
         8.16e-06       7478.686611
         8.17e-06       7478.547136
         8.18e-06       7478.419181
         8.19e-06       7478.308103
          8.2e-06       7478.554998
         8.21e-06       7478.449166
         8.22e-06       7478.439949
         8.23e-06       7478.364989
         8.24e-06       7478.332584
         8.25e-06       7478.450882
         8.26e-06       7478.432026
         8.27e-06       7478.437296
         8.28e-06       7478.328213
         8.29e-06       7478.270154
          8.3e-06       7478.255689
         8.31e-06       7478.131773