# Probe 0 (5e-06 5e-06 5e-06)
#           Probe                 0
#            Time
            1e-08       10009.60637
            2e-08       10012.88485
            3e-08       10000.24053
            4e-08       9986.726132
            5e-08       9968.227881
            6e-08       9959.640573
            7e-08         9938.8076
            8e-08       9933.620575
            9e-08       9897.831798
            1e-07       9889.593883
          1.1e-07       9899.503368
          1.2e-07       9901.645777
          1.3e-07       9899.226131
          1.4e-07       9885.641779
          1.5e-07       9876.046785
          1.6e-07        9880.11957
          1.7e-07       9852.475383
          1.8e-07       9851.257665
          1.9e-07       9825.612552
            2e-07       9813.882257
          2.1e-07       9824.894738
          2.2e-07       9810.706709
          2.3e-07       9800.246085
          2.4e-07       9777.146083
          2.5e-07         9751.6304
          2.6e-07        9739.98267
          2.7e-07       9728.968947
          2.8e-07       9707.168775
          2.9e-07       9680.757392
            3e-07       9669.664531
          3.1e-07       9636.719528
          3.2e-07        9629.86362
          3.3e-07       9629.561387
          3.4e-07       9603.989843
          3.5e-07       9579.488066
          3.6e-07       9576.445734
          3.7e-07       9566.593686
          3.8e-07        9553.16917
          3.9e-07       9557.022066
            4e-07       9550.983549
          4.1e-07       9549.057892
          4.2e-07       9527.683335
          4.3e-07       9515.615489
          4.4e-07       9514.705959
          4.5e-07       9501.124741
          4.6e-07       9477.132261
          4.7e-07       9488.012023
          4.8e-07        9481.93545
          4.9e-07       9461.422696
            5e-07       9461.950573
          5.1e-07       9462.174485
          5.2e-07       9455.509514
          5.3e-07       9459.722019
          5.4e-07       9457.933605
          5.5e-07       9444.299418
          5.6e-07       9419.251808
          5.7e-07       9417.453541
          5.8e-07        9408.32803
          5.9e-07        9392.38953
            6e-07       9357.808974
          6.1e-07       9368.740304
          6.2e-07       9372.775833
          6.3e-07       9376.801017
          6.4e-07       9349.810047
          6.5e-07       9361.787533
          6.6e-07       9349.069746
          6.7e-07        9342.18672
          6.8e-07       9358.699276
          6.9e-07       9343.262848
            7e-07       9345.754887
          7.1e-07       9349.357894
          7.2e-07       9342.720824
          7.3e-07       9338.014661
          7.4e-07       9332.265847
          7.5e-07       9318.359759
          7.6e-07       9314.910516
          7.7e-07       9309.958376
          7.8e-07         9292.7756
          7.9e-07       9292.229991
            8e-07       9263.693343
          8.1e-07       9252.313006
          8.2e-07       9241.218866
          8.3e-07       9229.560287
          8.4e-07       9237.791189
          8.5e-07       9216.352578
          8.6e-07       9205.585838
          8.7e-07       9214.444914
          8.8e-07       9206.307876
          8.9e-07       9205.587255
            9e-07       9198.043965
          9.1e-07       9193.413355
          9.2e-07       9197.240771
          9.3e-07       9176.387364
          9.4e-07       9151.948846
          9.5e-07       9146.034658
          9.6e-07       9126.708072
          9.7e-07       9137.667485
          9.8e-07       9146.374481
          9.9e-07       9155.591259
            1e-06       9163.259999
         1.01e-06        9161.19404
         1.02e-06       9140.961097
         1.03e-06       9125.190248
         1.04e-06       9127.117518
         1.05e-06       9116.768471
         1.06e-06       9107.726086
         1.07e-06       9090.110395
         1.08e-06       9078.059421
         1.09e-06       9070.351339
          1.1e-06       9068.414167
         1.11e-06       9061.208362
         1.12e-06        9058.44057
         1.13e-06       9064.500274
         1.14e-06       9041.019768
         1.15e-06       9020.496096
         1.16e-06       9020.077887
         1.17e-06       9022.910239
         1.18e-06       9008.756889
         1.19e-06       9021.163687
          1.2e-06       9028.773521
         1.21e-06       9029.227629
         1.22e-06       9005.929915
         1.23e-06       8990.094255
         1.24e-06        8999.87279
         1.25e-06       8987.641808
         1.26e-06       8988.924775
         1.27e-06       8979.790993
         1.28e-06       8940.989213
         1.29e-06       8956.965967
          1.3e-06       8966.035138
         1.31e-06       8945.658481
         1.32e-06       8931.060295
         1.33e-06       8920.524924
         1.34e-06       8930.702416
         1.35e-06       8928.158221
         1.36e-06       8925.696487
         1.37e-06       8921.787979
         1.38e-06       8919.756434
         1.39e-06       8918.736541
          1.4e-06       8899.014173
         1.41e-06       8897.711333
         1.42e-06       8892.129662
         1.43e-06       8878.154568
         1.44e-06       8861.992061
         1.45e-06       8837.724857
         1.46e-06       8825.374908
         1.47e-06       8829.732015
         1.48e-06       8829.781307
         1.49e-06       8815.239272
          1.5e-06       8817.788457
         1.51e-06       8820.502797
         1.52e-06       8797.545008
         1.53e-06       8782.537578
         1.54e-06       8782.081199
         1.55e-06       8770.256839
         1.56e-06       8753.852421
         1.57e-06       8760.854059
         1.58e-06       8752.479491
         1.59e-06       8770.826852
          1.6e-06       8774.565376
         1.61e-06       8783.834377
         1.62e-06       8798.621898
         1.63e-06       8807.826078
         1.64e-06       8821.315697
         1.65e-06       8807.155563
         1.66e-06       8790.038751
         1.67e-06       8792.702566
         1.68e-06       8790.933063
         1.69e-06       8791.003938
          1.7e-06       8779.928662
         1.71e-06       8776.603246
         1.72e-06       8779.523843
         1.73e-06        8772.39952
         1.74e-06       8762.524269
         1.75e-06       8745.030348
         1.76e-06       8735.421843
         1.77e-06       8727.797334
         1.78e-06        8751.13323
         1.79e-06       8735.529387
          1.8e-06        8721.57897
         1.81e-06       8726.504334
         1.82e-06       8730.156044
         1.83e-06        8711.94516
         1.84e-06       8693.557833
         1.85e-06       8680.736906
         1.86e-06       8688.509447
         1.87e-06       8679.999104
         1.88e-06       8687.984991
         1.89e-06       8671.831563
          1.9e-06       8669.162839
         1.91e-06       8666.602297
         1.92e-06       8662.416441
         1.93e-06       8647.326259
         1.94e-06       8632.960823
         1.95e-06       8646.179082
         1.96e-06       8637.772726
         1.97e-06        8639.12511
         1.98e-06       8637.635774
         1.99e-06       8621.032403
            2e-06       8611.961434
         2.01e-06       8621.962386
         2.02e-06       8617.144497
         2.03e-06       8586.254791
         2.04e-06       8579.180509
         2.05e-06       8571.396137
         2.06e-06       8570.917175
         2.07e-06       8570.658337
         2.08e-06       8565.185701
         2.09e-06       8598.371909
          2.1e-06       8585.657491
         2.11e-06       8580.591411
         2.12e-06       8571.942393
         2.13e-06        8583.73529
         2.14e-06       8580.723543
         2.15e-06       8584.997383
         2.16e-06       8580.181343
         2.17e-06       8554.802531
         2.18e-06       8541.411288
         2.19e-06       8534.585112
          2.2e-06       8542.848802
         2.21e-06       8529.884364
         2.22e-06       8517.638799
         2.23e-06       8482.804357
         2.24e-06       8484.280695
         2.25e-06       8489.244586
         2.26e-06       8486.816575
         2.27e-06       8476.508809
         2.28e-06       8481.278482
         2.29e-06       8487.042272
          2.3e-06       8464.345315
         2.31e-06       8471.359847
         2.32e-06       8472.613377
         2.33e-06       8470.322413
         2.34e-06       8473.873633
         2.35e-06       8475.568095
         2.36e-06       8465.495531
         2.37e-06       8455.491055
         2.38e-06       8436.732999
         2.39e-06       8433.603275
          2.4e-06       8441.577496
         2.41e-06       8457.932707
         2.42e-06       8462.801354
         2.43e-06       8464.882909
         2.44e-06       8470.787522
         2.45e-06       8466.342807
         2.46e-06        8453.87329
         2.47e-06       8448.477052
         2.48e-06       8442.973108
         2.49e-06       8439.884832
          2.5e-06       8438.564779
         2.51e-06       8443.115112
         2.52e-06       8448.026656
         2.53e-06       8434.124248
         2.54e-06       8420.790115
         2.55e-06       8432.686787
         2.56e-06       8422.415692
         2.57e-06       8421.017662
         2.58e-06       8430.653745
         2.59e-06       8423.498355
          2.6e-06       8404.928315
         2.61e-06       8410.638832
         2.62e-06       8413.508182
         2.63e-06       8391.007941
         2.64e-06       8379.270117
         2.65e-06       8386.055314
         2.66e-06        8398.87927
         2.67e-06        8389.19366
         2.68e-06       8393.580299
         2.69e-06       8405.788337
          2.7e-06       8398.594589
         2.71e-06       8398.054785
         2.72e-06       8394.404751
         2.73e-06       8397.885683
         2.74e-06       8387.900792
         2.75e-06       8377.837429
         2.76e-06       8381.831117
         2.77e-06       8370.251828
         2.78e-06       8365.574021
         2.79e-06       8365.590742
          2.8e-06       8351.944963
         2.81e-06        8368.08352
         2.82e-06       8353.794832
         2.83e-06       8355.532984
         2.84e-06       8348.782167
         2.85e-06       8355.915751
         2.86e-06       8337.502352
         2.87e-06       8323.516192
         2.88e-06       8320.822962
         2.89e-06        8311.09414
          2.9e-06       8320.759395
         2.91e-06       8301.236787
         2.92e-06       8298.522893
         2.93e-06       8332.743767
         2.94e-06       8324.330887
         2.95e-06       8313.008121
         2.96e-06       8314.059833
         2.97e-06       8321.981324
         2.98e-06       8320.219772
         2.99e-06       8328.651246
            3e-06       8301.267748
         3.01e-06       8302.014238
         3.02e-06       8295.852739
         3.03e-06       8286.143838
         3.04e-06       8286.285249
         3.05e-06       8288.407917
         3.06e-06       8294.311115
         3.07e-06       8293.393907
         3.08e-06       8298.573264
         3.09e-06       8293.100944
          3.1e-06       8298.943945
         3.11e-06       8293.511154
         3.12e-06       8291.517909
         3.13e-06       8272.146718
         3.14e-06       8267.628723
         3.15e-06       8262.384432
         3.16e-06         8263.1066
         3.17e-06       8256.056734
         3.18e-06       8263.138407
         3.19e-06       8247.282255
          3.2e-06       8238.005419
         3.21e-06       8236.513282
         3.22e-06       8244.482971
         3.23e-06        8234.80515
         3.24e-06       8238.679031
         3.25e-06       8230.087995
         3.26e-06       8221.618318
         3.27e-06       8214.447387
         3.28e-06       8206.709126
         3.29e-06       8202.615436
          3.3e-06       8192.784171
         3.31e-06       8209.970776
         3.32e-06       8201.925277
         3.33e-06       8198.873929
         3.34e-06       8206.996691
         3.35e-06       8209.170484
         3.36e-06       8203.278527
         3.37e-06       8189.974979
         3.38e-06       8194.486477
         3.39e-06       8209.877389
          3.4e-06       8207.870086
         3.41e-06       8197.303671
         3.42e-06       8175.821826
         3.43e-06       8174.163201
         3.44e-06       8181.311244
         3.45e-06       8193.477612
         3.46e-06       8196.816202
         3.47e-06       8190.951694
         3.48e-06       8179.869741
         3.49e-06       8177.997751
          3.5e-06       8189.268273
         3.51e-06       8161.450492
         3.52e-06       8163.032588
         3.53e-06       8155.361154
         3.54e-06       8147.561232
         3.55e-06        8154.86256
         3.56e-06       8169.399007
         3.57e-06       8146.328306
         3.58e-06       8148.723566
         3.59e-06       8140.530756
          3.6e-06       8132.485272
         3.61e-06       8132.037446
         3.62e-06       8138.968133
         3.63e-06       8129.960871
         3.64e-06        8114.99517
         3.65e-06          8125.842
         3.66e-06       8134.226115
         3.67e-06        8144.02433
         3.68e-06       8138.152096
         3.69e-06       8146.620996
          3.7e-06       8130.811663
         3.71e-06       8111.525248
         3.72e-06       8099.869364
         3.73e-06       8102.515323
         3.74e-06       8103.624962
         3.75e-06       8105.372584
         3.76e-06       8105.843085
         3.77e-06        8091.99744
         3.78e-06       8089.602806
         3.79e-06       8082.732825
          3.8e-06       8079.814781
         3.81e-06       8085.368538
         3.82e-06       8092.575118
         3.83e-06       8096.408714
         3.84e-06        8109.58421
         3.85e-06       8114.145899
         3.86e-06       8106.064754
         3.87e-06       8106.418932
         3.88e-06       8106.424828
         3.89e-06       8099.436082
          3.9e-06       8102.404225
         3.91e-06       8095.072084
         3.92e-06       8084.144706
         3.93e-06       8085.627126
         3.94e-06        8082.58044
         3.95e-06       8069.828029
         3.96e-06       8065.500762
         3.97e-06       8064.549187
         3.98e-06       8076.490511
         3.99e-06       8065.886148
            4e-06       8069.574436
         4.01e-06       8076.706707
         4.02e-06       8081.373906
         4.03e-06        8063.68154
         4.04e-06       8071.192827
         4.05e-06       8056.372587
         4.06e-06       8061.939646
         4.07e-06       8057.506657
         4.08e-06       8056.684991
         4.09e-06         8052.8913
          4.1e-06       8044.356352
         4.11e-06       8047.474968
         4.12e-06       8042.571692
         4.13e-06       8037.730571
         4.14e-06       8033.575791
         4.15e-06       8037.769592
         4.16e-06       8042.045637
         4.17e-06       8044.271773
         4.18e-06       8054.925466
         4.19e-06        8054.86625
          4.2e-06       8053.232038
         4.21e-06       8044.051392
         4.22e-06        8046.05755
         4.23e-06       8054.355051
         4.24e-06       8051.026044
         4.25e-06       8038.013347
         4.26e-06       8015.739292
         4.27e-06       8020.598325
         4.28e-06       8025.692582
         4.29e-06       8032.943327
          4.3e-06       8042.520332
         4.31e-06       8038.585677
         4.32e-06       8036.717089
         4.33e-06       8033.837962
         4.34e-06       8028.778046
         4.35e-06         8019.8974
         4.36e-06       8014.352403
         4.37e-06       8019.606863
         4.38e-06       8007.604636
         4.39e-06       7996.065041
          4.4e-06       8001.237387
         4.41e-06       7999.665182
         4.42e-06       7999.635479
         4.43e-06       7986.140139
         4.44e-06       7990.967021
         4.45e-06       7987.598651
         4.46e-06       7978.566193
         4.47e-06       7969.921042
         4.48e-06       7958.094953
         4.49e-06       7966.954767
          4.5e-06       7963.020019
         4.51e-06       7961.043132
         4.52e-06       7941.191309
         4.53e-06       7950.119991
         4.54e-06        7949.49385
         4.55e-06       7961.137879
         4.56e-06       7957.999763
         4.57e-06        7948.83058
         4.58e-06       7951.340346
         4.59e-06        7934.58683
          4.6e-06       7926.283416
         4.61e-06       7933.176545
         4.62e-06       7941.326022
         4.63e-06       7950.278926
         4.64e-06       7944.413042
         4.65e-06       7956.195661
         4.66e-06       7963.353837
         4.67e-06       7953.767712
         4.68e-06       7953.527043
         4.69e-06       7928.529449
          4.7e-06       7918.808729
         4.71e-06       7915.325925
         4.72e-06       7913.677548
         4.73e-06       7900.596891
         4.74e-06       7904.455133
         4.75e-06       7908.921456
         4.76e-06       7903.264507
         4.77e-06        7919.14752
         4.78e-06       7932.524792
         4.79e-06       7934.942365
          4.8e-06       7930.317641
         4.81e-06       7913.186669
         4.82e-06       7907.676678
         4.83e-06       7920.319797
         4.84e-06         7923.4917
         4.85e-06        7929.71857
         4.86e-06       7924.559792
         4.87e-06       7933.207232
         4.88e-06       7925.555124
         4.89e-06       7927.467566
          4.9e-06       7918.369061
         4.91e-06       7918.382059
         4.92e-06       7924.784036
         4.93e-06       7918.941811
         4.94e-06       7919.079335
         4.95e-06       7914.974307
         4.96e-06       7907.112462
         4.97e-06       7917.977907
         4.98e-06       7919.079339
         4.99e-06       7908.636859
            5e-06       7911.541373
         5.01e-06       7914.374748
         5.02e-06       7898.887543
         5.03e-06       7906.260665
         5.04e-06       7915.124587
         5.05e-06       7914.327493
         5.06e-06       7915.595223
         5.07e-06       7913.037313
         5.08e-06       7907.540963
         5.09e-06       7906.631582
          5.1e-06       7908.171992
         5.11e-06       7928.823649
         5.12e-06       7949.255134
         5.13e-06       7954.486435
         5.14e-06       7939.194887
         5.15e-06        7949.11504
         5.16e-06       7922.016699
         5.17e-06       7900.939112
         5.18e-06       7894.853466
         5.19e-06       7884.536847
          5.2e-06       7865.685979
         5.21e-06       7880.853617
         5.22e-06        7879.68157
         5.23e-06       7871.819944
         5.24e-06       7885.016687
         5.25e-06       7885.887241
         5.26e-06       7880.544552
         5.27e-06       7868.063733
         5.28e-06       7862.045955
         5.29e-06       7868.983118
          5.3e-06       7880.771919
         5.31e-06       7886.893922
         5.32e-06       7885.632817
         5.33e-06       7876.780719
         5.34e-06       7871.750407
         5.35e-06       7868.523618
         5.36e-06       7872.414682
         5.37e-06       7866.296935
         5.38e-06       7861.568807
         5.39e-06       7859.537367
          5.4e-06       7853.795377
         5.41e-06        7845.33465
         5.42e-06       7847.114293
         5.43e-06       7848.301235
         5.44e-06       7825.988095
         5.45e-06       7815.549227
         5.46e-06        7807.25258
         5.47e-06       7833.483099
         5.48e-06       7819.181399
         5.49e-06       7806.094032
          5.5e-06       7805.741653
         5.51e-06       7813.332969
         5.52e-06       7833.305257
         5.53e-06       7834.501135
         5.54e-06       7825.552619
         5.55e-06       7832.684705
         5.56e-06       7834.864797
         5.57e-06       7834.752834
         5.58e-06       7833.406459
         5.59e-06       7820.923939
          5.6e-06       7833.557167
         5.61e-06       7825.137996
         5.62e-06       7831.915296
         5.63e-06       7838.887733
         5.64e-06       7845.591017
         5.65e-06       7851.794922
         5.66e-06       7853.837801
         5.67e-06       7833.687092
         5.68e-06        7840.15208
         5.69e-06       7839.114959
          5.7e-06       7829.969048
         5.71e-06       7837.310211
         5.72e-06       7840.302121
         5.73e-06       7837.673024
         5.74e-06       7847.372014
         5.75e-06       7850.343445
         5.76e-06        7847.32311
         5.77e-06       7837.273774
         5.78e-06        7835.09315
         5.79e-06       7830.805191
          5.8e-06       7824.084711
         5.81e-06       7816.095545
         5.82e-06       7821.563818
         5.83e-06        7822.39672
         5.84e-06       7795.210544
         5.85e-06       7792.753309
         5.86e-06       7781.311613
         5.87e-06       7785.175481
         5.88e-06       7800.125295
         5.89e-06       7804.014055
          5.9e-06       7793.578076
         5.91e-06        7797.09665
         5.92e-06       7781.439563
         5.93e-06       7775.648282
         5.94e-06       7768.897011
         5.95e-06       7770.153294
         5.96e-06       7762.741563
         5.97e-06       7787.923081
         5.98e-06       7797.994801
         5.99e-06        7798.17818
            6e-06       7811.009416
         6.01e-06       7803.780024
         6.02e-06       7787.349564
         6.03e-06       7777.950131
         6.04e-06       7765.660493
         6.05e-06       7760.536835
         6.06e-06       7762.985514
         6.07e-06       7772.279239
         6.08e-06       7778.847862
         6.09e-06        7796.18723
          6.1e-06       7795.463289
         6.11e-06       7800.178973
         6.12e-06       7801.181953
         6.13e-06       7804.600344
         6.14e-06        7791.50512
         6.15e-06       7783.814894
         6.16e-06        7769.68056
         6.17e-06       7770.811905
         6.18e-06       7775.636907
         6.19e-06       7767.790613
          6.2e-06       7781.213167
         6.21e-06       7787.074076
         6.22e-06       7791.184662
         6.23e-06       7792.418109
         6.24e-06       7777.051113
         6.25e-06        7780.04802
         6.26e-06       7767.637694
         6.27e-06       7762.219348
         6.28e-06       7756.569277
         6.29e-06       7742.516899
          6.3e-06       7749.307181
         6.31e-06       7736.382156
         6.32e-06       7730.971951
         6.33e-06       7718.910316
         6.34e-06       7724.085471
         6.35e-06       7719.251438
         6.36e-06        7719.65283
         6.37e-06       7733.872261
         6.38e-06       7727.232877
         6.39e-06       7721.737821
          6.4e-06       7714.469898
         6.41e-06       7729.527024
         6.42e-06       7732.353196
         6.43e-06       7737.588654
         6.44e-06       7735.311508
         6.45e-06       7731.446235
         6.46e-06       7750.299966
         6.47e-06       7737.138615
         6.48e-06       7726.969024
         6.49e-06       7716.317583
          6.5e-06       7726.594403
         6.51e-06       7728.931369
         6.52e-06       7736.006281
         6.53e-06       7725.489384
         6.54e-06       7725.718225
         6.55e-06        7733.31448
         6.56e-06       7725.878632
         6.57e-06       7710.333261
         6.58e-06       7707.502382
         6.59e-06       7710.984677
          6.6e-06       7718.765168
         6.61e-06       7717.008057
         6.62e-06        7704.91711
         6.63e-06       7701.884212
         6.64e-06       7710.730539
         6.65e-06       7718.631518
         6.66e-06       7726.173542
         6.67e-06       7724.505707
         6.68e-06        7734.06447
         6.69e-06       7734.140116
          6.7e-06       7723.695252
         6.71e-06       7711.343026
         6.72e-06       7721.051846
         6.73e-06        7717.34479
         6.74e-06       7722.550883
         6.75e-06       7721.875044
         6.76e-06       7723.780517
         6.77e-06        7717.18183
         6.78e-06       7718.889378
         6.79e-06       7726.702303
          6.8e-06       7725.829364
         6.81e-06       7714.194809
         6.82e-06       7715.737287
         6.83e-06       7709.294337
         6.84e-06       7700.022784
         6.85e-06       7694.489348
         6.86e-06       7699.226143
         6.87e-06       7703.673674
         6.88e-06       7702.623543
         6.89e-06       7698.300028
          6.9e-06       7709.353589
         6.91e-06       7692.036211
         6.92e-06       7702.404693
         6.93e-06       7707.953006
         6.94e-06       7717.420563
         6.95e-06       7710.535982
         6.96e-06       7690.386323
         6.97e-06       7680.127954
         6.98e-06       7681.919808
         6.99e-06       7667.537635
            7e-06        7638.92289
         7.01e-06       7631.179402
         7.02e-06       7642.078539
         7.03e-06       7641.690414
         7.04e-06       7653.663759
         7.05e-06       7666.883475
         7.06e-06       7662.842369
         7.07e-06       7654.983274
         7.08e-06       7658.424497
         7.09e-06       7665.861531
          7.1e-06       7665.773772
         7.11e-06       7656.007815
         7.12e-06       7648.952114
         7.13e-06       7634.630926
         7.14e-06       7643.657674
         7.15e-06       7642.025414
         7.16e-06        7643.34387
         7.17e-06       7641.595408
         7.18e-06        7648.80747
         7.19e-06       7649.279024
          7.2e-06        7655.06799
         7.21e-06       7661.098407
         7.22e-06       7666.373071
         7.23e-06       7653.630334
         7.24e-06       7657.107958
         7.25e-06       7645.734371
         7.26e-06       7639.515224
         7.27e-06       7625.623753
         7.28e-06       7627.143774
         7.29e-06       7630.745372
          7.3e-06       7633.684823
         7.31e-06       7636.197236
         7.32e-06       7639.905571
         7.33e-06       7643.604064
         7.34e-06       7642.701659
         7.35e-06       7638.420656
         7.36e-06       7621.841017
         7.37e-06       7645.426791
         7.38e-06       7665.491885
         7.39e-06       7671.637478
          7.4e-06        7672.24298
         7.41e-06       7693.723864
         7.42e-06       7685.825908
         7.43e-06       7672.030753
         7.44e-06       7686.298123
         7.45e-06       7679.652634
         7.46e-06       7673.541652
         7.47e-06       7675.370119
         7.48e-06       7678.659428
         7.49e-06        7701.86969
          7.5e-06       7686.632136
         7.51e-06       7695.401388
         7.52e-06       7690.569597
         7.53e-06       7679.241743
         7.54e-06       7683.791588
         7.55e-06        7680.73249
         7.56e-06       7683.360425
         7.57e-06       7671.904049
         7.58e-06       7659.412075
         7.59e-06        7679.19611
          7.6e-06       7685.757269
         7.61e-06       7689.285937
         7.62e-06       7685.077448
         7.63e-06       7666.712279
         7.64e-06       7663.796577
         7.65e-06       7674.627224
         7.66e-06       7655.612737
         7.67e-06       7650.056577
         7.68e-06        7645.39565
         7.69e-06       7642.308566
          7.7e-06       7660.481508
         7.71e-06       7657.065385
         7.72e-06        7661.00199
         7.73e-06       7670.611832
         7.74e-06       7669.977722
         7.75e-06       7670.099584
         7.76e-06       7669.542613
         7.77e-06       7655.458399
         7.78e-06       7650.275309
         7.79e-06       7652.883352
          7.8e-06       7650.483029
         7.81e-06       7646.571582
         7.82e-06       7647.535095
         7.83e-06       7639.394141
         7.84e-06       7654.644205
         7.85e-06       7649.328941
         7.86e-06       7657.906329
         7.87e-06       7652.208304
         7.88e-06       7648.477253
         7.89e-06       7659.083565
          7.9e-06       7652.516476
         7.91e-06       7640.606477
         7.92e-06       7638.553604
         7.93e-06       7620.243465
         7.94e-06       7631.430905
         7.95e-06       7632.014489
         7.96e-06       7634.338646
         7.97e-06       7625.286691
         7.98e-06       7630.783349
         7.99e-06       7631.583022
            8e-06       7629.717308
         8.01e-06       7636.896779
         8.02e-06       7636.662557
         8.03e-06       7649.860919
         8.04e-06       7669.150532
         8.05e-06       7647.973282
         8.06e-06       7646.215416
         8.07e-06       7656.772362
         8.08e-06       7670.823825
         8.09e-06       7665.557825
          8.1e-06       7666.149295
         8.11e-06       7663.395989
         8.12e-06         7651.5093
         8.13e-06       7639.856642
         8.14e-06       7648.889072
         8.15e-06       7636.984051
         8.16e-06       7637.954398
         8.17e-06       7648.897464
         8.18e-06       7643.813565
         8.19e-06       7630.673578
          8.2e-06       7625.824215
         8.21e-06       7647.599232
         8.22e-06       7641.839993
         8.23e-06       7654.414099
         8.24e-06       7648.886025
         8.25e-06       7651.933957
         8.26e-06       7646.462358
         8.27e-06       7628.888929
         8.28e-06       7626.341628
         8.29e-06       7637.217993
          8.3e-06       7630.791657
         8.31e-06       7636.003185