# Probe 0 (5e-06 5e-06 5e-06)
#           Probe                 0
#            Time
            1e-08       9949.230669
            2e-08       9916.177277
            3e-08        9897.42302
            4e-08        9881.89368
            5e-08       9870.880917
            6e-08       9849.364801
            7e-08        9839.78619
            8e-08       9821.228389
            9e-08       9823.237817
            1e-07       9808.621747
          1.1e-07       9783.579865
          1.2e-07       9756.356216
          1.3e-07       9738.341862
          1.4e-07       9727.829401
          1.5e-07       9714.814203
          1.6e-07       9691.918934
          1.7e-07       9690.965647
          1.8e-07       9673.356511
          1.9e-07       9673.911456
            2e-07       9665.855159
          2.1e-07       9641.645589
          2.2e-07       9634.945809
          2.3e-07       9623.963262
          2.4e-07       9623.038588
          2.5e-07       9622.168372
          2.6e-07       9611.735451
          2.7e-07        9601.83564
          2.8e-07       9599.893308
          2.9e-07       9601.673833
            3e-07       9594.110177
          3.1e-07       9601.084876
          3.2e-07       9589.730685
          3.3e-07        9575.04858
          3.4e-07       9577.241957
          3.5e-07       9579.461475
          3.6e-07        9564.65041
          3.7e-07       9556.089748
          3.8e-07       9549.699124
          3.9e-07       9532.072617
            4e-07       9524.126332
          4.1e-07       9510.468727
          4.2e-07       9509.215556
          4.3e-07       9503.668873
          4.4e-07       9491.389113
          4.5e-07       9487.308777
          4.6e-07       9487.561127
          4.7e-07       9468.659408
          4.8e-07       9457.139421
          4.9e-07       9456.127973
            5e-07        9441.01652
          5.1e-07       9426.859336
          5.2e-07       9416.775019
          5.3e-07       9400.900163
          5.4e-07       9389.238867
          5.5e-07       9385.675686
          5.6e-07       9386.374673
          5.7e-07       9372.795363
          5.8e-07       9368.980903
          5.9e-07       9366.181678
            6e-07       9375.909735
          6.1e-07       9355.761689
          6.2e-07       9341.015261
          6.3e-07        9327.74014
          6.4e-07       9330.738511
          6.5e-07       9308.519394
          6.6e-07       9305.244788
          6.7e-07       9297.400065
          6.8e-07       9273.495401
          6.9e-07       9272.219381
            7e-07       9257.624645
          7.1e-07       9244.322083
          7.2e-07       9235.407175
          7.3e-07       9227.082867
          7.4e-07       9218.032472
          7.5e-07        9215.04866
          7.6e-07       9204.760968
          7.7e-07       9197.156302
          7.8e-07       9199.475813
          7.9e-07       9189.479895
            8e-07       9197.467744
          8.1e-07       9195.128416
          8.2e-07       9190.450061
          8.3e-07        9187.42799
          8.4e-07        9170.49404
          8.5e-07       9175.390535
          8.6e-07       9170.235622
          8.7e-07       9155.746658
          8.8e-07       9150.743749
          8.9e-07       9140.214972
            9e-07        9133.25121
          9.1e-07       9127.529038
          9.2e-07       9114.220648
          9.3e-07       9116.847073
          9.4e-07        9121.43842
          9.5e-07       9113.367811
          9.6e-07       9116.483727
          9.7e-07        9096.80211
          9.8e-07       9082.211453
          9.9e-07       9064.439227
            1e-06       9049.271207
         1.01e-06       9040.570121
         1.02e-06       9044.140376
         1.03e-06       9043.963699
         1.04e-06       9033.246991
         1.05e-06       9028.394809
         1.06e-06       9027.263431
         1.07e-06       9030.289108
         1.08e-06       9026.771474
         1.09e-06       9020.701463
          1.1e-06       9013.771505
         1.11e-06       9009.081507
         1.12e-06       9001.620128
         1.13e-06       8988.691811
         1.14e-06       8996.549264
         1.15e-06         9001.1973
         1.16e-06       8991.698965
         1.17e-06       8981.607804
         1.18e-06        8982.19994
         1.19e-06       8964.443919
          1.2e-06       8950.450005
         1.21e-06       8940.287855
         1.22e-06       8947.925903
         1.23e-06       8950.135585
         1.24e-06       8933.853149
         1.25e-06       8931.530209
         1.26e-06       8922.645854
         1.27e-06       8918.821453
         1.28e-06       8936.065329
         1.29e-06       8916.581924
          1.3e-06        8901.45064
         1.31e-06       8905.834867
         1.32e-06       8907.141235
         1.33e-06       8906.671092
         1.34e-06       8889.643157
         1.35e-06        8881.68229
         1.36e-06       8875.216665
         1.37e-06       8868.398777
         1.38e-06       8861.004189
         1.39e-06       8853.787486
          1.4e-06       8858.097134
         1.41e-06       8849.552307
         1.42e-06       8845.146904
         1.43e-06        8845.34779
         1.44e-06       8847.309651
         1.45e-06       8856.427965
         1.46e-06       8855.969234
         1.47e-06       8843.600615
         1.48e-06        8835.24194
         1.49e-06       8836.198922
          1.5e-06       8825.986628
         1.51e-06       8815.023321
         1.52e-06       8823.319922
         1.53e-06       8827.554596
         1.54e-06        8823.15465
         1.55e-06       8821.965817
         1.56e-06       8825.023449
         1.57e-06        8812.81012
         1.58e-06       8810.186001
         1.59e-06       8790.259862
          1.6e-06       8778.988903
         1.61e-06       8764.154663
         1.62e-06       8744.921185
         1.63e-06       8733.532338
         1.64e-06       8715.637852
         1.65e-06       8719.008883
         1.66e-06       8723.004178
         1.67e-06       8713.549273
         1.68e-06        8707.03738
         1.69e-06       8700.369114
          1.7e-06       8701.619044
         1.71e-06       8697.072817
         1.72e-06       8686.906399
         1.73e-06       8685.974929
         1.74e-06       8686.863459
         1.75e-06        8690.99336
         1.76e-06       8688.732562
         1.77e-06       8688.319008
         1.78e-06       8665.694156
         1.79e-06       8668.251801
          1.8e-06       8671.177496
         1.81e-06       8661.549128
         1.82e-06       8652.177539
         1.83e-06       8658.314908
         1.84e-06       8663.257644
         1.85e-06       8663.905523
         1.86e-06       8651.363182
         1.87e-06       8651.756527
         1.88e-06       8638.804374
         1.89e-06       8642.814237
          1.9e-06       8636.664533
         1.91e-06       8632.439102
         1.92e-06       8630.891769
         1.93e-06       8632.430133
         1.94e-06       8635.699877
         1.95e-06       8620.178606
         1.96e-06       8619.248299
         1.97e-06        8611.92463
         1.98e-06       8606.618476
         1.99e-06       8612.120275
            2e-06       8610.384359
         2.01e-06       8598.113616
         2.02e-06       8595.667556
         2.03e-06       8608.171083
         2.04e-06       8606.850212
         2.05e-06       8606.349438
         2.06e-06       8600.487027
         2.07e-06       8593.247075
         2.08e-06       8590.703713
         2.09e-06       8562.314541
          2.1e-06       8566.333503
         2.11e-06       8563.553216
         2.12e-06       8562.815973
         2.13e-06       8547.967095
         2.14e-06       8544.060078
         2.15e-06       8533.960108
         2.16e-06       8531.462968
         2.17e-06       8543.232053
         2.18e-06       8546.144498
         2.19e-06       8544.827673
          2.2e-06       8532.363915
         2.21e-06       8535.044838
         2.22e-06        8537.00259
         2.23e-06       8554.674893
         2.24e-06       8549.795173
         2.25e-06       8540.967039
         2.26e-06       8536.812251
         2.27e-06       8539.317999
         2.28e-06       8530.160401
         2.29e-06       8518.404588
          2.3e-06       8528.443027
         2.31e-06       8516.848601
         2.32e-06       8509.781086
         2.33e-06       8505.703402
         2.34e-06       8499.300998
         2.35e-06        8492.85306
         2.36e-06       8492.794983
         2.37e-06       8494.119726
         2.38e-06        8501.17186
         2.39e-06       8497.478841
          2.4e-06       8487.247427
         2.41e-06       8469.965612
         2.42e-06       8462.471104
         2.43e-06       8454.111599
         2.44e-06        8442.43245
         2.45e-06        8441.44631
         2.46e-06       8445.014978
         2.47e-06       8444.640211
         2.48e-06       8441.633357
         2.49e-06       8436.837112
          2.5e-06       8431.000134
         2.51e-06       8423.590449
         2.52e-06       8414.411695
         2.53e-06       8418.788197
         2.54e-06       8423.691197
         2.55e-06       8411.791615
         2.56e-06       8414.284377
         2.57e-06       8410.013581
         2.58e-06       8398.997672
         2.59e-06       8399.383314
          2.6e-06       8407.043246
         2.61e-06       8398.868495
         2.62e-06       8391.299645
         2.63e-06       8402.352667
         2.64e-06       8404.744765
         2.65e-06       8397.619224
         2.66e-06       8384.958491
         2.67e-06       8386.844809
         2.68e-06       8379.951644
         2.69e-06        8365.53431
          2.7e-06       8364.671609
         2.71e-06       8359.167214
         2.72e-06       8359.975333
         2.73e-06       8353.646245
         2.74e-06          8354.115
         2.75e-06       8356.726253
         2.76e-06       8351.396765
         2.77e-06       8353.012858
         2.78e-06       8348.994905
         2.79e-06       8343.873495
          2.8e-06        8347.61727
         2.81e-06       8330.868769
         2.82e-06       8335.469986
         2.83e-06       8330.320154
         2.84e-06       8330.873728
         2.85e-06       8321.896793
         2.86e-06       8330.050112
         2.87e-06       8333.974009
         2.88e-06       8330.889679
         2.89e-06       8332.114255
          2.9e-06       8319.534823
         2.91e-06       8327.738647
         2.92e-06       8323.522561
         2.93e-06       8295.096879
         2.94e-06       8296.743735
         2.95e-06        8300.94346
         2.96e-06       8295.125634
         2.97e-06       8285.809826
         2.98e-06       8282.940796
         2.99e-06       8272.980406
            3e-06       8286.750388
         3.01e-06       8278.705407
         3.02e-06       8280.199262
         3.03e-06       8282.241071
         3.04e-06        8278.65379
         3.05e-06        8273.08565
         3.06e-06       8264.182816
         3.07e-06       8260.415762
         3.08e-06       8253.360768
         3.09e-06       8253.013166
          3.1e-06       8243.970879
         3.11e-06       8243.377299
         3.12e-06       8239.932604
         3.13e-06       8248.075757
         3.14e-06       8244.670114
         3.15e-06       8243.547395
         3.16e-06       8240.433468
         3.17e-06       8238.960988
         3.18e-06       8231.162683
         3.19e-06       8236.887137
          3.2e-06       8238.268313
         3.21e-06       8233.807132
         3.22e-06       8222.732949
         3.23e-06       8225.359771
         3.24e-06       8219.336368
         3.25e-06       8220.978232
         3.26e-06        8224.11346
         3.27e-06       8224.506983
         3.28e-06       8227.252702
         3.29e-06       8226.271618
          3.3e-06       8227.947553
         3.31e-06       8212.163896
         3.32e-06       8214.770823
         3.33e-06         8213.6969
         3.34e-06        8203.49603
         3.35e-06       8199.191081
         3.36e-06       8198.359931
         3.37e-06       8202.124253
         3.38e-06       8195.445855
         3.39e-06       8181.530843
          3.4e-06       8177.070131
         3.41e-06       8179.053403
         3.42e-06       8187.607217
         3.43e-06       8184.391719
         3.44e-06       8176.602856
         3.45e-06       8164.375164
         3.46e-06       8158.703086
         3.47e-06       8158.874161
         3.48e-06       8163.959136
         3.49e-06       8160.267988
          3.5e-06       8147.669607
         3.51e-06       8161.996656
         3.52e-06       8157.246924
         3.53e-06        8157.59047
         3.54e-06       8160.896504
         3.55e-06       8152.746439
         3.56e-06       8138.837348
         3.57e-06       8151.021647
         3.58e-06        8145.93133
         3.59e-06       8148.145315
          3.6e-06       8148.297471
         3.61e-06       8144.598635
         3.62e-06       8135.892726
         3.63e-06       8138.191411
         3.64e-06       8143.733468
         3.65e-06       8131.017667
         3.66e-06        8122.25826
         3.67e-06       8112.804321
         3.68e-06       8111.509929
         3.69e-06       8103.409184
          3.7e-06       8110.906121
         3.71e-06       8120.380233
         3.72e-06       8126.094229
         3.73e-06       8121.959814
         3.74e-06       8118.333988
         3.75e-06       8114.446156
         3.76e-06       8112.268468
         3.77e-06        8118.64524
         3.78e-06       8117.519444
         3.79e-06       8119.978411
          3.8e-06       8116.955046
         3.81e-06       8109.870592
         3.82e-06        8101.70655
         3.83e-06       8096.507094
         3.84e-06       8086.532347
         3.85e-06       8080.537602
         3.86e-06       8083.179586
         3.87e-06       8080.531525
         3.88e-06       8076.696416
         3.89e-06       8077.681059
          3.9e-06       8074.821692
         3.91e-06       8075.212733
         3.92e-06       8078.154673
         3.93e-06       8074.894464
         3.94e-06       8073.523911
         3.95e-06       8077.700204
         3.96e-06       8075.083391
         3.97e-06       8070.431955
         3.98e-06       8060.254468
         3.99e-06       8061.883713
            4e-06       8056.252159
         4.01e-06        8048.82679
         4.02e-06        8042.07363
         4.03e-06       8049.266404
         4.04e-06       8042.080788
         4.05e-06       8048.773427
         4.06e-06       8043.625903
         4.07e-06       8042.472702
         4.08e-06       8037.822408
         4.09e-06       8037.975457
          4.1e-06       8041.338643
         4.11e-06       8034.155204
         4.12e-06       8031.422106
         4.13e-06       8031.345406
         4.14e-06       8030.306804
         4.15e-06       8024.249846
         4.16e-06       8017.945252
         4.17e-06       8013.520852
         4.18e-06       8004.653655
         4.19e-06       8002.059511
          4.2e-06       8000.992316
         4.21e-06       8004.274989
         4.22e-06       7999.087541
         4.23e-06       7990.007393
         4.24e-06       7987.829147
         4.25e-06       7992.345563
         4.26e-06       8004.841313
         4.27e-06        7999.48789
         4.28e-06       7994.661398
         4.29e-06       7987.978764
          4.3e-06       7977.697236
         4.31e-06       7977.845038
         4.32e-06       7975.108431
         4.33e-06       7973.638075
         4.34e-06       7975.408196
         4.35e-06       7980.108253
         4.36e-06       7981.058911
         4.37e-06       7972.423913
         4.38e-06       7977.602107
         4.39e-06       7983.816777
          4.4e-06       7978.694762
         4.41e-06       7977.024821
         4.42e-06       7974.359933
         4.43e-06       7981.024631
         4.44e-06       7976.976009
         4.45e-06       7977.239474
         4.46e-06        7977.91024
         4.47e-06       7981.974466
         4.48e-06       7988.300356
         4.49e-06       7980.309277
          4.5e-06       7979.864639
         4.51e-06       7978.933598
         4.52e-06       7989.637653
         4.53e-06       7979.978753
         4.54e-06       7978.737045
         4.55e-06        7968.27734
         4.56e-06       7967.681011
         4.57e-06        7969.85907
         4.58e-06       7967.125103
         4.59e-06       7976.745813
          4.6e-06       7981.734099
         4.61e-06       7973.063663
         4.62e-06       7966.285619
         4.63e-06       7959.077119
         4.64e-06       7960.235242
         4.65e-06       7949.820499
         4.66e-06       7942.005675
         4.67e-06       7946.230983
         4.68e-06       7944.506418
         4.69e-06       7958.637319
          4.7e-06       7961.734506
         4.71e-06       7960.291851
         4.72e-06       7958.935239
         4.73e-06       7965.449101
         4.74e-06       7959.292747
         4.75e-06       7953.460941
         4.76e-06       7954.017442
         4.77e-06       7942.440167
         4.78e-06       7931.627695
         4.79e-06       7925.380087
          4.8e-06       7925.024081
         4.81e-06       7933.361113
         4.82e-06       7933.737246
         4.83e-06       7923.173442
         4.84e-06       7918.000258
         4.85e-06        7912.51326
         4.86e-06       7914.760707
         4.87e-06       7906.419597
         4.88e-06       7909.781604
         4.89e-06       7906.074136
          4.9e-06       7910.505725
         4.91e-06       7907.896459
         4.92e-06        7902.48733
         4.93e-06       7901.875094
         4.94e-06        7900.37891
         4.95e-06       7901.303389
         4.96e-06       7904.433635
         4.97e-06       7895.388574
         4.98e-06       7893.030486
         4.99e-06       7897.763184
            5e-06       7893.694182
         5.01e-06        7890.42025
         5.02e-06       7897.164053
         5.03e-06       7890.055717
         5.04e-06       7881.983371
         5.05e-06       7880.665889
         5.06e-06       7875.983545
         5.07e-06       7875.961989
         5.08e-06       7878.193233
         5.09e-06       7876.599182
          5.1e-06       7874.909411
         5.11e-06       7858.800658
         5.12e-06       7842.850858
         5.13e-06       7837.181745
         5.14e-06       7845.148484
         5.15e-06       7837.002655
         5.16e-06       7850.747556
         5.17e-06       7863.401362
         5.18e-06       7865.730614
         5.19e-06       7869.387072
          5.2e-06       7878.851979
         5.21e-06       7866.608565
         5.22e-06       7864.706257
         5.23e-06       7867.636008
         5.24e-06       7854.352733
         5.25e-06       7850.015413
         5.26e-06       7850.022749
         5.27e-06       7856.852917
         5.28e-06       7858.847249
         5.29e-06       7851.504755
          5.3e-06       7841.509451
         5.31e-06       7833.932946
         5.32e-06        7832.73187
         5.33e-06       7835.176552
         5.34e-06       7837.142148
         5.35e-06       7837.353769
         5.36e-06       7834.130819
         5.37e-06       7836.458806
         5.38e-06       7838.072356
         5.39e-06       7836.431715
          5.4e-06       7837.828325
         5.41e-06       7842.532055
         5.42e-06        7839.14396
         5.43e-06       7837.528585
         5.44e-06       7849.913194
         5.45e-06        7857.14033
         5.46e-06       7860.227289
         5.47e-06       7840.749835
         5.48e-06       7848.392622
         5.49e-06       7856.377851
          5.5e-06       7853.972965
         5.51e-06         7846.8035
         5.52e-06       7833.696091
         5.53e-06       7830.527315
         5.54e-06       7835.066516
         5.55e-06       7827.998382
         5.56e-06       7822.815952
         5.57e-06       7822.371932
         5.58e-06       7821.812632
         5.59e-06       7827.032971
          5.6e-06       7815.070402
         5.61e-06       7819.745834
         5.62e-06        7815.56926
         5.63e-06       7808.857344
         5.64e-06       7803.245645
         5.65e-06       7797.981218
         5.66e-06       7792.636713
         5.67e-06       7804.486701
         5.68e-06       7798.054764
         5.69e-06        7796.01987
          5.7e-06       7801.875314
         5.71e-06       7796.054621
         5.72e-06       7793.808932
         5.73e-06       7795.858466
         5.74e-06       7788.239127
         5.75e-06        7782.89324
         5.76e-06       7783.091397
         5.77e-06       7785.869194
         5.78e-06       7785.513323
         5.79e-06       7786.529979
          5.8e-06       7788.057176
         5.81e-06       7790.571447
         5.82e-06       7785.718378
         5.83e-06       7781.949663
         5.84e-06       7798.976982
         5.85e-06       7797.565058
         5.86e-06       7804.678278
         5.87e-06       7802.895963
         5.88e-06       7791.414002
         5.89e-06       7787.343557
          5.9e-06       7793.969907
         5.91e-06       7790.031631
         5.92e-06       7797.851619
         5.93e-06       7799.855917
         5.94e-06       7803.166222
         5.95e-06       7801.112451
         5.96e-06       7803.540271
         5.97e-06       7785.635273
         5.98e-06       7777.839391
         5.99e-06       7775.576277
            6e-06       7764.937781
         6.01e-06       7767.840292
         6.02e-06       7777.163246
         6.03e-06       7782.441519
         6.04e-06       7788.630308
         6.05e-06       7790.994441
         6.06e-06       7788.469311
         6.07e-06       7780.662436
         6.08e-06       7774.356252
         6.09e-06       7762.244959
          6.1e-06       7759.565755
         6.11e-06       7753.616665
         6.12e-06       7751.031527
         6.13e-06       7747.909771
         6.14e-06       7754.290122
         6.15e-06       7756.873862
         6.16e-06       7765.764485
         6.17e-06       7761.668246
         6.18e-06       7754.894229
         6.19e-06       7759.018899
          6.2e-06       7747.683239
         6.21e-06       7740.885224
         6.22e-06       7736.168561
         6.23e-06       7733.111681
         6.24e-06       7742.491655
         6.25e-06       7740.396263
         6.26e-06       7746.110527
         6.27e-06        7748.57333
         6.28e-06       7751.711765
         6.29e-06       7758.491139
          6.3e-06       7751.580746
         6.31e-06       7757.441647
         6.32e-06        7760.64387
         6.33e-06       7765.900471
         6.34e-06       7762.554468
         6.35e-06       7765.065376
         6.36e-06       7764.550636
         6.37e-06       7752.888893
         6.38e-06       7755.011699
         6.39e-06       7758.391155
          6.4e-06       7762.373363
         6.41e-06       7750.293289
         6.42e-06       7745.477791
         6.43e-06       7742.290064
         6.44e-06       7742.403494
         6.45e-06       7743.783842
         6.46e-06       7729.131441
         6.47e-06       7736.763884
         6.48e-06       7740.435028
         6.49e-06       7746.310725
          6.5e-06       7737.608651
         6.51e-06       7737.211217
         6.52e-06       7730.086193
         6.53e-06       7736.651936
         6.54e-06       7736.227066
         6.55e-06       7730.093918
         6.56e-06        7733.57965
         6.57e-06       7741.917504
         6.58e-06       7742.477956
         6.59e-06        7735.64142
          6.6e-06       7728.337556
         6.61e-06       7728.873785
         6.62e-06       7734.978028
         6.63e-06       7735.672315
         6.64e-06        7728.87361
         6.65e-06       7724.063199
         6.66e-06       7716.485452
         6.67e-06       7716.471131
         6.68e-06       7708.454714
         6.69e-06       7706.552264
          6.7e-06       7711.338426
         6.71e-06        7717.35589
         6.72e-06       7708.966335
         6.73e-06       7709.927489
         6.74e-06       7705.616878
         6.75e-06       7704.279859
         6.76e-06       7702.500153
         6.77e-06       7706.564313
         6.78e-06       7703.359416
         6.79e-06       7695.978553
          6.8e-06       7694.795487
         6.81e-06       7700.734577
         6.82e-06       7699.889042
         6.83e-06       7702.397863
         6.84e-06       7706.788781
         6.85e-06        7708.09808
         6.86e-06       7703.560016
         6.87e-06       7698.263825
         6.88e-06       7698.123518
         6.89e-06       7700.647061
          6.9e-06       7691.290108
         6.91e-06        7700.17312
         6.92e-06       7692.403345
         6.93e-06       7687.285846
         6.94e-06       7680.660733
         6.95e-06       7686.969646
         6.96e-06       7698.573795
         6.97e-06       7703.992195
         6.98e-06       7700.382411
         6.99e-06       7708.296322
            7e-06       7726.942212
         7.01e-06       7728.731251
         7.02e-06       7720.143106
         7.03e-06       7720.242167
         7.04e-06        7711.00552
         7.05e-06       7700.387901
         7.06e-06       7701.968052
         7.07e-06       7704.578295
         7.08e-06       7703.387705
         7.09e-06       7696.847092
          7.1e-06       7696.239952
         7.11e-06       7701.785504
         7.12e-06       7705.453483
         7.13e-06        7714.51073
         7.14e-06       7706.593158
         7.15e-06       7708.943128
         7.16e-06       7706.140352
         7.17e-06       7705.303985
         7.18e-06       7700.714104
         7.19e-06       7698.406277
          7.2e-06       7692.195612
         7.21e-06       7687.818359
         7.22e-06       7682.958625
         7.23e-06       7688.345232
         7.24e-06       7683.247458
         7.25e-06       7693.141275
         7.26e-06       7696.496075
         7.27e-06       7706.903513
         7.28e-06       7706.186925
         7.29e-06       7702.698478
          7.3e-06       7700.965733
         7.31e-06       7698.162007
         7.32e-06       7694.827195
         7.33e-06       7691.462491
         7.34e-06       7691.069533
         7.35e-06       7693.532774
         7.36e-06       7702.618344
         7.37e-06       7684.539801
         7.38e-06       7671.640386
         7.39e-06       7665.626574
          7.4e-06       7665.449045
         7.41e-06       7650.951509
         7.42e-06       7655.637303
         7.43e-06       7665.822526
         7.44e-06       7655.856775
         7.45e-06       7657.990825
         7.46e-06       7660.928826
         7.47e-06       7659.206899
         7.48e-06       7656.067598
         7.49e-06       7638.888214
          7.5e-06        7647.57494
         7.51e-06        7641.93617
         7.52e-06       7645.194736
         7.53e-06       7650.410086
         7.54e-06       7647.391955
         7.55e-06       7648.659028
         7.56e-06       7646.110141
         7.57e-06       7653.528571
         7.58e-06       7661.211987
         7.59e-06       7647.560686
          7.6e-06       7641.658498
         7.61e-06       7637.872843
         7.62e-06       7640.542817
         7.63e-06       7651.913029
         7.64e-06       7652.616249
         7.65e-06       7644.450784
         7.66e-06       7656.321537
         7.67e-06       7660.449558
         7.68e-06       7661.977097
         7.69e-06       7663.917263
          7.7e-06       7651.069495
         7.71e-06       7653.233432
         7.72e-06       7649.082982
         7.73e-06         7641.8481
         7.74e-06         7642.3281
         7.75e-06       7641.104018
         7.76e-06       7640.812161
         7.77e-06        7647.59216
         7.78e-06       7649.030756
         7.79e-06       7647.436236
          7.8e-06       7648.074604
         7.81e-06       7650.259177
         7.82e-06       7648.763655
         7.83e-06       7653.135964
         7.84e-06       7642.773296
         7.85e-06       7647.952448
         7.86e-06       7641.388645
         7.87e-06       7643.261956
         7.88e-06       7645.894072
         7.89e-06       7636.891985
          7.9e-06       7641.133372
         7.91e-06       7648.340256
         7.92e-06       7649.648152
         7.93e-06       7662.890234
         7.94e-06       7657.035493
         7.95e-06       7655.082888
         7.96e-06       7654.341815
         7.97e-06       7660.038248
         7.98e-06       7653.779454
         7.99e-06       7652.253559
            8e-06       7653.506998
         8.01e-06       7648.371395
         8.02e-06       7647.303468
         8.03e-06       7637.244276
         8.04e-06       7622.103091
         8.05e-06       7634.968719
         8.06e-06       7635.807771
         8.07e-06       7627.265761
         8.08e-06        7616.85134
         8.09e-06       7620.302717
          8.1e-06       7618.244727
         8.11e-06       7618.057992
         8.12e-06       7626.304348
         8.13e-06       7632.529025
         8.14e-06        7625.67719
         8.15e-06        7632.92543
         8.16e-06       7633.385808
         8.17e-06       7624.303647
         8.18e-06       7626.071585
         8.19e-06       7634.062035
          8.2e-06       7640.059533
         8.21e-06       7623.627455
         8.22e-06       7627.446375
         8.23e-06       7617.636772
         8.24e-06       7621.071696
         8.25e-06        7620.57608
         8.26e-06       7624.016337
         8.27e-06       7635.667384
         8.28e-06       7636.231498
         8.29e-06       7627.934866
          8.3e-06       7631.805058
         8.31e-06       7626.539736