# Probe 0 (5e-06 5e-06 5e-06)
#           Probe                 0
#            Time
            1e-08       722.8554423
            2e-08       813.6167189
            3e-08       884.8075385
            4e-08       944.3932171
            5e-08       998.2102634
            6e-08       1058.597651
            7e-08       1107.773828
            8e-08       1153.882596
            9e-08       1198.037929
            1e-07       1237.965279
          1.1e-07        1273.91056
          1.2e-07       1323.283283
          1.3e-07       1360.490023
          1.4e-07       1396.948382
          1.5e-07       1432.682527
          1.6e-07       1469.570686
          1.7e-07       1504.756136
          1.8e-07        1537.33287
          1.9e-07       1567.346575
            2e-07       1595.415561
          2.1e-07       1625.123219
          2.2e-07       1653.085725
          2.3e-07        1684.67183
          2.4e-07       1712.861693
          2.5e-07       1743.770033
          2.6e-07        1775.22599
          2.7e-07       1804.586833
          2.8e-07       1832.702405
          2.9e-07       1859.336943
            3e-07       1884.636537
          3.1e-07        1910.13552
          3.2e-07       1936.894612
          3.3e-07       1961.685435
          3.4e-07       1986.659764
          3.5e-07         2010.1666
          3.6e-07       2038.160769
          3.7e-07       2063.090592
          3.8e-07       2088.458511
          3.9e-07       2113.148121
            4e-07        2133.18273
          4.1e-07       2157.653066
          4.2e-07       2183.133433
          4.3e-07       2205.118599
          4.4e-07       2226.452302
          4.5e-07       2247.849737
          4.6e-07       2273.521578
          4.7e-07       2292.451409
          4.8e-07        2317.26233
          4.9e-07       2341.471713
            5e-07       2365.278161
          5.1e-07       2387.980181
          5.2e-07       2411.499537
          5.3e-07       2432.151848
          5.4e-07        2453.11814
          5.5e-07       2473.624526
          5.6e-07       2499.176656
          5.7e-07        2522.95839
          5.8e-07       2538.860689
          5.9e-07       2560.067747
            6e-07       2581.516747
          6.1e-07       2602.175081
          6.2e-07       2621.397911
          6.3e-07       2638.254719
          6.4e-07       2662.067185
          6.5e-07       2684.802043
          6.6e-07       2703.523506
          6.7e-07         2722.8749
          6.8e-07       2743.618564
          6.9e-07       2762.008262
            7e-07       2782.576374
          7.1e-07        2799.77133
          7.2e-07       2820.761492
          7.3e-07       2839.072761
          7.4e-07       2859.438523
          7.5e-07       2878.673689
          7.6e-07       2898.607524
          7.7e-07       2915.682758
          7.8e-07       2929.857174
          7.9e-07       2946.322364
            8e-07       2963.843866
          8.1e-07       2979.439133
          8.2e-07       2998.479031
          8.3e-07       3015.451665
          8.4e-07       3033.289416
          8.5e-07       3048.190168
          8.6e-07       3067.308275
          8.7e-07       3081.038407
          8.8e-07        3097.12078
          8.9e-07       3114.444767
            9e-07       3133.220665
          9.1e-07       3147.207969
          9.2e-07       3164.037546
          9.3e-07       3181.588786
          9.4e-07       3199.931348
          9.5e-07       3218.617768
          9.6e-07       3233.936402
          9.7e-07       3253.193894
          9.8e-07        3267.06775
          9.9e-07       3284.995948
            1e-06       3300.876204
         1.01e-06       3316.352015
         1.02e-06       3331.939478
         1.03e-06        3348.66934
         1.04e-06       3363.378931
         1.05e-06       3381.127133
         1.06e-06       3392.830628
         1.07e-06       3406.309397
         1.08e-06       3424.275077
         1.09e-06       3441.719634
          1.1e-06       3454.553499
         1.11e-06       3469.043074
         1.12e-06       3483.575133
         1.13e-06       3497.542504
         1.14e-06       3509.544831
         1.15e-06       3523.621807
         1.16e-06       3538.861726
         1.17e-06       3551.507738
         1.18e-06       3565.200303
         1.19e-06        3580.00861
          1.2e-06       3593.810522
         1.21e-06       3609.100496
         1.22e-06       3621.194317
         1.23e-06       3634.054263
         1.24e-06       3648.960711
         1.25e-06       3665.632735
         1.26e-06       3677.900861
         1.27e-06       3693.261525
         1.28e-06       3706.524374
         1.29e-06       3720.412342
          1.3e-06       3734.297153
         1.31e-06       3748.597339
         1.32e-06       3761.615798
         1.33e-06       3773.306875
         1.34e-06       3789.108503
         1.35e-06       3804.046777
         1.36e-06       3816.519821
         1.37e-06       3830.941015
         1.38e-06       3844.384053
         1.39e-06       3856.687072
          1.4e-06       3870.403475
         1.41e-06       3884.906002
         1.42e-06       3897.480142
         1.43e-06           3911.49
         1.44e-06       3925.149267
         1.45e-06       3935.954244
         1.46e-06       3949.353883
         1.47e-06       3963.956226
         1.48e-06       3976.748285
         1.49e-06       3990.210021
          1.5e-06       4003.391384
         1.51e-06       4017.265255
         1.52e-06       4028.288446
         1.53e-06       4037.133654
         1.54e-06        4044.40357
         1.55e-06       4058.270112
         1.56e-06       4070.491026
         1.57e-06        4082.13156
         1.58e-06       4094.626485
         1.59e-06        4106.26355
          1.6e-06       4119.980675
         1.61e-06       4133.325512
         1.62e-06       4147.523747
         1.63e-06       4155.870454
         1.64e-06       4169.255847
         1.65e-06       4178.802355
         1.66e-06       4190.058022
         1.67e-06       4202.051681
         1.68e-06       4213.881972
         1.69e-06       4223.862551
          1.7e-06       4233.495524
         1.71e-06       4243.543209
         1.72e-06       4256.384144
         1.73e-06        4265.09001
         1.74e-06       4273.748872
         1.75e-06       4285.385106
         1.76e-06       4298.404884
         1.77e-06       4307.176058
         1.78e-06        4317.76963
         1.79e-06       4330.046545
          1.8e-06       4339.645447
         1.81e-06        4349.65867
         1.82e-06       4360.270642
         1.83e-06        4369.38218
         1.84e-06       4380.522489
         1.85e-06       4392.537863
         1.86e-06       4404.113696
         1.87e-06       4412.206768
         1.88e-06       4423.872571
         1.89e-06        4434.22313
          1.9e-06       4446.301312
         1.91e-06       4455.497308
         1.92e-06       4462.157563
         1.93e-06       4475.223344
         1.94e-06       4484.877622
         1.95e-06       4495.037865
         1.96e-06       4505.012861
         1.97e-06       4514.963904
         1.98e-06       4524.453404
         1.99e-06       4533.043918
            2e-06       4544.972798
         2.01e-06       4553.676847
         2.02e-06         4562.2651
         2.03e-06       4574.628269
         2.04e-06       4583.767398
         2.05e-06       4592.583546
         2.06e-06       4602.089494
         2.07e-06       4613.435763
         2.08e-06       4622.870965
         2.09e-06       4632.351424
          2.1e-06       4639.185165
         2.11e-06        4648.68732
         2.12e-06       4658.717827
         2.13e-06       4669.253555
         2.14e-06       4678.385307
         2.15e-06       4689.402299
         2.16e-06       4698.141585
         2.17e-06       4706.075398
         2.18e-06       4715.273382
         2.19e-06       4724.263753
          2.2e-06       4734.816841
         2.21e-06       4743.943741
         2.22e-06       4753.437777
         2.23e-06       4761.850785
         2.24e-06        4767.66601
         2.25e-06       4776.192998
         2.26e-06       4785.179052
         2.27e-06       4791.889458
         2.28e-06       4800.736554
         2.29e-06       4812.914696
          2.3e-06       4820.818397
         2.31e-06       4831.432511
         2.32e-06       4840.805311
         2.33e-06       4849.534292
         2.34e-06       4855.690181
         2.35e-06       4863.683231
         2.36e-06       4873.972444
         2.37e-06        4882.28593
         2.38e-06       4890.644842
         2.39e-06       4899.439525
          2.4e-06       4906.947862
         2.41e-06        4916.47621
         2.42e-06        4923.13419
         2.43e-06       4933.579699
         2.44e-06       4945.539438
         2.45e-06       4951.691083
         2.46e-06        4958.87532
         2.47e-06       4964.796882
         2.48e-06       4974.918061
         2.49e-06       4985.589291
          2.5e-06       4995.640191
         2.51e-06       5002.478083
         2.52e-06       5011.541245
         2.53e-06       5018.997863
         2.54e-06       5025.008773
         2.55e-06       5031.088266
         2.56e-06       5037.741015
         2.57e-06       5045.586295
         2.58e-06       5052.605412
         2.59e-06       5059.326029
          2.6e-06       5066.390387
         2.61e-06       5073.270943
         2.62e-06       5081.848274
         2.63e-06       5087.902575
         2.64e-06       5096.089267
         2.65e-06       5100.193917
         2.66e-06       5106.408017
         2.67e-06       5113.355594
         2.68e-06       5119.454535
         2.69e-06        5128.92348
          2.7e-06       5137.681181
         2.71e-06       5146.277935
         2.72e-06       5149.005876
         2.73e-06       5154.965922
         2.74e-06       5164.524462
         2.75e-06       5170.529781
         2.76e-06       5174.861724
         2.77e-06       5184.166995
         2.78e-06       5195.053035
         2.79e-06         5202.5468
          2.8e-06       5210.933916
         2.81e-06       5220.145509
         2.82e-06       5227.615237
         2.83e-06       5233.732836
         2.84e-06       5239.506547
         2.85e-06       5246.150654
         2.86e-06        5252.49668
         2.87e-06       5260.698056
         2.88e-06       5268.074379
         2.89e-06       5276.137576
          2.9e-06       5285.437277
         2.91e-06       5292.766741
         2.92e-06       5301.790723
         2.93e-06       5310.333306
         2.94e-06       5316.470885
         2.95e-06        5321.62354
         2.96e-06       5329.409492
         2.97e-06       5335.546415
         2.98e-06       5341.774719
         2.99e-06       5348.254675
            3e-06       5355.100737
         3.01e-06       5366.571319
         3.02e-06       5370.669416
         3.03e-06       5377.377277
         3.04e-06       5382.551091
         3.05e-06       5388.709114
         3.06e-06       5396.492196
         3.07e-06       5403.084669
         3.08e-06       5408.738444
         3.09e-06       5414.826934
          3.1e-06       5422.654703
         3.11e-06         5428.9945
         3.12e-06       5436.180871
         3.13e-06       5443.412742
         3.14e-06       5453.276022
         3.15e-06       5460.415713
         3.16e-06       5464.260052
         3.17e-06       5473.801921
         3.18e-06       5478.446833
         3.19e-06       5485.768637
          3.2e-06       5493.158804
         3.21e-06       5501.463829
         3.22e-06       5510.065911
         3.23e-06       5515.647912
         3.24e-06       5521.229757
         3.25e-06       5527.474831
         3.26e-06       5531.089108
         3.27e-06       5537.859981
         3.28e-06       5541.611313
         3.29e-06       5547.238179
          3.3e-06       5554.557445
         3.31e-06       5561.213173
         3.32e-06       5565.421494
         3.33e-06       5570.064268
         3.34e-06       5577.451322
         3.35e-06       5581.659308
         3.36e-06       5589.045945
         3.37e-06       5596.569524
         3.38e-06       5602.377814
         3.39e-06       5607.957278
          3.4e-06       5616.714906
         3.41e-06       5624.420402
         3.42e-06       5633.200207
         3.43e-06       5639.761959
         3.44e-06       5644.105864
         3.45e-06       5650.598693
         3.46e-06       5655.902548
         3.47e-06       5661.434877
         3.48e-06       5665.001096
         3.49e-06        5672.38481
          3.5e-06       5680.316878
         3.51e-06        5686.74004
         3.52e-06       5692.248722
         3.53e-06       5699.494369
         3.54e-06       5702.442844
         3.55e-06       5707.425449
         3.56e-06       5713.710684
         3.57e-06       5718.555906
         3.58e-06       5723.972374
         3.59e-06       5728.840225
          3.6e-06       5736.747399
         3.61e-06       5742.848987
         3.62e-06       5749.041814
         3.63e-06       5754.800304
         3.64e-06       5761.518357
         3.65e-06       5769.744272
         3.66e-06       5774.656829
         3.67e-06        5778.99807
         3.68e-06       5787.040573
         3.69e-06       5790.764704
          3.7e-06       5795.288414
         3.71e-06       5800.520271
         3.72e-06       5803.490268
         3.73e-06       5807.077059
         3.74e-06       5811.554759
         3.75e-06       5815.598322
         3.76e-06       5818.316836
         3.77e-06       5822.840007
         3.78e-06        5827.04328
         3.79e-06       5830.264215
          3.8e-06       5837.665345
         3.81e-06       5842.850565
         3.82e-06       5848.081355
         3.83e-06       5851.964399
         3.84e-06       5853.837374
         3.85e-06       5858.382703
         3.86e-06       5862.516821
         3.87e-06       5866.148391
         3.88e-06       5871.926812
         3.89e-06       5877.476706
          3.9e-06       5878.961223
         3.91e-06       5885.767049
         3.92e-06       5892.230121
         3.93e-06       5895.769893
         3.94e-06       5900.976689
         3.95e-06       5907.393684
         3.96e-06       5915.797179
         3.97e-06       5923.949207
         3.98e-06       5927.123173
         3.99e-06       5935.525992
            4e-06        5940.38945
         4.01e-06        5944.40801
         4.02e-06        5949.88776
         4.03e-06        5956.94276
         4.04e-06        5960.25329
         4.05e-06        5964.95645
         4.06e-06       5967.011201
         4.07e-06       5973.517802
         4.08e-06       5981.302672
         4.09e-06       5984.978143
          4.1e-06       5988.493761
         4.11e-06       5996.141204
         4.12e-06       6005.386314
         4.13e-06       6010.294076
         4.14e-06       6016.137614
         4.15e-06        6021.04517
         4.16e-06       6026.272186
         4.17e-06       6030.768704
         4.18e-06       6033.233768
         4.19e-06       6037.410627
          4.2e-06       6040.720113
         4.21e-06       6044.919675
         4.22e-06       6050.899371
         4.23e-06        6056.33119
         4.24e-06       6062.972463
         4.25e-06        6068.99739
         4.26e-06       6072.671615
         4.27e-06        6076.09476
         4.28e-06       6077.943241
         4.29e-06       6081.046833
          4.3e-06        6086.93443
         4.31e-06       6090.539948
         4.32e-06       6096.541431
         4.33e-06       6101.744128
         4.34e-06       6104.208529
         4.35e-06       6106.102451
         4.36e-06       6110.278159
         4.37e-06       6118.081769
         4.38e-06       6122.371377
         4.39e-06       6124.584606
          4.4e-06       6127.025981
         4.41e-06       6131.269816
         4.42e-06       6135.376689
         4.43e-06       6138.799037
         4.44e-06       6140.122333
         4.45e-06       6143.088318
         4.46e-06       6151.210391
         4.47e-06       6153.674343
         4.48e-06       6156.229529
         4.49e-06       6159.446292
          4.5e-06       6164.077453
         4.51e-06       6167.408191
         4.52e-06       6171.332022
         4.53e-06        6176.87548
         4.54e-06        6179.40764
         4.55e-06       6183.513797
         4.56e-06       6187.619893
         4.57e-06       6193.550815
         4.58e-06        6195.14758
         4.59e-06       6197.542711
          4.6e-06       6198.181409
         4.61e-06        6204.38583
         4.62e-06       6206.598403
         4.63e-06       6208.354762
         4.64e-06       6212.506115
         4.65e-06       6216.497743
         4.66e-06       6221.059535
         4.67e-06       6224.252746
         4.68e-06       6227.217838
         4.69e-06        6231.09522
          4.7e-06        6236.29539
         4.71e-06       6241.997223
         4.72e-06       6245.577917
         4.73e-06       6249.067339
         4.74e-06       6254.358409
         4.75e-06       6258.691541
         4.76e-06       6263.594743
         4.77e-06       6265.054285
         4.78e-06       6268.087373
         4.79e-06       6274.928807
          4.8e-06       6280.128189
         4.81e-06       6284.917012
         4.82e-06       6289.728561
         4.83e-06       6293.171848
         4.84e-06       6297.686826
         4.85e-06       6299.807473
         4.86e-06       6301.677279
         4.87e-06       6305.508064
         4.88e-06       6308.198704
         4.89e-06       6311.915396
          4.9e-06       6314.400765
         4.91e-06       6318.254187
         4.92e-06        6319.98707
         4.93e-06       6326.895702
         4.94e-06       6329.038942
         4.95e-06       6331.478568
         4.96e-06       6334.921371
         4.97e-06       6337.702945
         4.98e-06       6339.914506
         4.99e-06       6343.471209
            5e-06       6346.617489
         5.01e-06       6348.760588
         5.02e-06       6354.118269
         5.03e-06        6357.49242
         5.04e-06       6360.912128
         5.05e-06       6363.716261
         5.06e-06       6369.210462
         5.07e-06       6372.105707
         5.08e-06       6374.317017
         5.09e-06       6377.554164
          5.1e-06         6378.6712
         5.11e-06        6382.22745
         5.12e-06        6385.71527
         5.13e-06       6389.066276
         5.14e-06       6392.280472
         5.15e-06          6394.674
         5.16e-06       6401.193421
         5.17e-06       6403.313344
         5.18e-06       6406.025911
         5.19e-06       6410.881119
          5.2e-06       6415.576695
         5.21e-06       6418.836204
         5.22e-06       6422.870653
         5.23e-06       6426.221258
         5.24e-06       6433.218665
         5.25e-06       6438.848387
         5.26e-06       6444.181715
         5.27e-06       6446.255763
         5.28e-06       6449.583328
         5.29e-06       6453.662965
          5.3e-06       6456.808125
         5.31e-06       6462.186733
         5.32e-06       6465.331808
         5.33e-06       6470.573532
         5.34e-06       6472.647408
         5.35e-06       6475.587275
         5.36e-06       6476.498856
         5.37e-06       6479.233584
         5.38e-06       6481.444139
         5.39e-06       6486.024724
          5.4e-06       6489.625338
         5.41e-06       6491.197745
         5.42e-06        6494.43369
         5.43e-06       6495.527523
         5.44e-06       6499.447061
         5.45e-06       6499.014091
         5.46e-06       6502.842437
         5.47e-06       6505.850391
         5.48e-06        6508.67602
         5.49e-06       6509.838166
          5.5e-06       6513.848679
         5.51e-06       6516.993252
         5.52e-06       6516.583092
         5.53e-06       6520.342872
         5.54e-06       6522.507574
         5.55e-06       6525.993854
         5.56e-06       6531.644738
         5.57e-06       6532.373878
         5.58e-06       6534.606857
         5.59e-06       6539.368976
          5.6e-06       6544.655076
         5.61e-06       6546.044942
         5.62e-06        6545.54368
         5.63e-06        6548.64238
         5.64e-06       6550.442348
         5.65e-06       6551.832189
         5.66e-06       6558.234499
         5.67e-06       6560.512871
         5.68e-06       6563.816483
         5.69e-06       6567.712425
          5.7e-06       6568.304786
         5.71e-06       6569.580638
         5.72e-06       6569.854035
         5.73e-06       6569.626204
         5.74e-06       6571.403275
         5.75e-06       6575.891477
         5.76e-06       6579.035461
         5.77e-06       6585.141085
         5.78e-06       6587.943256
         5.79e-06       6590.745403
          5.8e-06       6595.119441
         5.81e-06       6599.356736
         5.82e-06       6601.179212
         5.83e-06       6606.031508
         5.84e-06       6607.808387
         5.85e-06       6612.387227
         5.86e-06       6612.797269
         5.87e-06       6611.999964
         5.88e-06       6614.232413
         5.89e-06       6616.510408
          5.9e-06       6617.011565
         5.91e-06       6619.403439
         5.92e-06       6623.435418
         5.93e-06       6626.123377
         5.94e-06       6628.014048
         5.95e-06       6629.836372
         5.96e-06        6633.66322
         5.97e-06       6635.007162
         5.98e-06       6636.875006
         5.99e-06        6640.24621
            6e-06       6643.366822
         6.01e-06       6646.214072
         6.02e-06       6648.810743
         6.03e-06       6650.245738
         6.04e-06       6653.184041
         6.05e-06        6654.84679
         6.06e-06       6656.190651
         6.07e-06       6658.718916
         6.08e-06       6661.588817
         6.09e-06       6662.067132
          6.1e-06       6667.191889
         6.11e-06       6671.405522
         6.12e-06       6674.252543
         6.13e-06       6675.414121
         6.14e-06        6679.17214
         6.15e-06       6682.998446
         6.16e-06       6683.772813
         6.17e-06       6688.806153
         6.18e-06       6694.272142
         6.19e-06       6696.003021
          6.2e-06        6699.64695
         6.21e-06        6703.88297
         6.22e-06       6706.980243
         6.23e-06       6710.373547
         6.24e-06       6711.603328
         6.25e-06       6711.626101
         6.26e-06       6715.657018
         6.27e-06         6717.2967
         6.28e-06       6718.207631
         6.29e-06       6722.101836
          6.3e-06        6725.92768
         6.31e-06       6730.003981
         6.32e-06       6730.641611
         6.33e-06        6734.62677
         6.34e-06       6734.695086
         6.35e-06        6735.67429
         6.36e-06       6736.198049
         6.37e-06       6739.477218
         6.38e-06       6742.961303
         6.39e-06       6743.211791
          6.4e-06       6744.578089
         6.41e-06       6747.743325
         6.42e-06       6752.252031
         6.43e-06        6751.81938
         6.44e-06       6753.800463
         6.45e-06       6755.690451
         6.46e-06       6758.696196
         6.47e-06         6760.6317
         6.48e-06        6765.34518
         6.49e-06       6767.166798
          6.5e-06       6769.921978
         6.51e-06       6768.123144
         6.52e-06       6771.789114
         6.53e-06       6772.472209
         6.54e-06       6772.927606
         6.55e-06       6774.544259
         6.56e-06       6776.821223
         6.57e-06       6779.872333
         6.58e-06       6781.853264
         6.59e-06        6788.47906
          6.6e-06       6791.962678
         6.61e-06       6792.850653
         6.62e-06       6795.696715
         6.63e-06       6797.882476
         6.64e-06       6799.157497
         6.65e-06       6798.315073
         6.66e-06       6802.367799
         6.67e-06       6804.029859
         6.68e-06       6806.557087
         6.69e-06       6809.311974
          6.7e-06       6812.681559
         6.71e-06        6816.00558
         6.72e-06       6818.919766
         6.73e-06       6821.196458
         6.74e-06       6822.448633
         6.75e-06       6825.180636
         6.76e-06       6825.977466
         6.77e-06       6826.432797
         6.78e-06       6829.551799
         6.79e-06        6832.87567
          6.8e-06       6835.584832
         6.81e-06       6838.293973
         6.82e-06       6838.020784
         6.83e-06       6840.752674
         6.84e-06       6843.256889
         6.85e-06        6846.96765
         6.86e-06       6849.175877
         6.87e-06       6852.727225
         6.88e-06       6853.933766
         6.89e-06       6854.480122
          6.9e-06       6857.462305
         6.91e-06       6861.332278
         6.92e-06       6862.789199
         6.93e-06       6864.997335
         6.94e-06       6865.475383
         6.95e-06       6862.880257
         6.96e-06        6865.56644
         6.97e-06        6867.61521
         6.98e-06       6871.439553
         6.99e-06       6873.989094
            7e-06       6874.603713
         7.01e-06       6879.748262
         7.02e-06       6881.728667
         7.03e-06       6881.933536
         7.04e-06       6883.891167
         7.05e-06        6886.55444
         7.06e-06       6888.307182
         7.07e-06        6892.22237
         7.08e-06       6890.583459
         7.09e-06       6892.950773
          7.1e-06       6893.906799
         7.11e-06       6895.363596
         7.12e-06       6896.774864
         7.13e-06       6897.503258
         7.14e-06       6900.348534
         7.15e-06       6898.641371
         7.16e-06       6901.463876
         7.17e-06       6904.422933
         7.18e-06       6904.286362
         7.19e-06       6907.359205
          7.2e-06       6910.682401
         7.21e-06       6911.479054
         7.22e-06       6913.368252
         7.23e-06       6918.102587
         7.24e-06       6922.427169
         7.25e-06       6918.830941
         7.26e-06       6920.128318
         7.27e-06       6918.330197
         7.28e-06       6917.897737
         7.29e-06        6919.49101
          7.3e-06       6919.172356
         7.31e-06        6920.90219
         7.32e-06       6922.245083
         7.33e-06       6923.542449
         7.34e-06       6925.021896
         7.35e-06       6925.545392
         7.36e-06       6928.686349
         7.37e-06       6932.123166
         7.38e-06       6931.463117
         7.39e-06       6934.376427
          7.4e-06       6934.035024
         7.41e-06       6934.353666
         7.42e-06       6934.854389
         7.43e-06       6933.033576
         7.44e-06       6934.376427
         7.45e-06       6937.608354
         7.46e-06       6939.542945
         7.47e-06       6940.316779
         7.48e-06       6941.796164
         7.49e-06       6944.390763
          7.5e-06        6946.37084
         7.51e-06       6946.257043
         7.52e-06       6946.257043
         7.53e-06       6949.602669
         7.54e-06       6949.670947
         7.55e-06       6950.786149
         7.56e-06        6952.12894
         7.57e-06       6952.083422
         7.58e-06       6953.448967
         7.59e-06       6954.108978
          7.6e-06       6955.997972
         7.61e-06       6958.455925
         7.62e-06       6958.706272
         7.63e-06       6960.094553
         7.64e-06       6962.006276
         7.65e-06       6963.440062
         7.66e-06       6964.600743
         7.67e-06       6963.963507
         7.68e-06       6966.421411
         7.69e-06        6966.58072
          7.7e-06       6967.650358
         7.71e-06       6967.809666
         7.72e-06        6970.10824
         7.73e-06       6971.450965
         7.74e-06       6971.314417
         7.75e-06       6973.021265
         7.76e-06       6973.999855
         7.77e-06       6977.959705
         7.78e-06       6981.009219
         7.79e-06       6980.804401
          7.8e-06       6982.169848
         7.81e-06         6982.9436
         7.82e-06       6984.195253
         7.83e-06       6985.697231
         7.84e-06       6985.993075
         7.85e-06       6983.671835
         7.86e-06       6984.832456
         7.87e-06       6987.881918
         7.88e-06       6987.608833
         7.89e-06       6990.248648
          7.9e-06       6990.658273
         7.91e-06       6991.682333
         7.92e-06       6991.932659
         7.93e-06       6990.271405
         7.94e-06       6987.995703
         7.95e-06       6990.362433
         7.96e-06       6988.814957
         7.97e-06       6989.543182
         7.98e-06       6993.548393
         7.99e-06       6994.754499
            8e-06        6995.02758
         8.01e-06       6995.459957
         8.02e-06       6997.394268
         8.03e-06       6999.305814
         8.04e-06       7002.377922
         8.05e-06       7004.676299
         8.06e-06       7004.881104
         8.07e-06       7007.407027
         8.08e-06       7008.999943
         8.09e-06       7009.045455
          8.1e-06       7011.616863
         8.11e-06       7014.666122
         8.12e-06       7014.165499
         8.13e-06       7016.554831
         8.14e-06       7017.806381
         8.15e-06       7018.784862
         8.16e-06       7017.146473
         8.17e-06       7019.786096
         8.18e-06       7022.175396
         8.19e-06       7023.108356
          8.2e-06       7019.148948
         8.21e-06       7022.152641
         8.22e-06       7022.152641
         8.23e-06       7024.405396
         8.24e-06       7024.723966
         8.25e-06       7022.448458
         8.26e-06       7022.744274
         8.27e-06       7022.880805
         8.28e-06       7024.473661
         8.29e-06        7026.11202
          8.3e-06       7026.794668
         8.31e-06       7029.502493