/*--------------------------------*- C++ -*----------------------------------*\
| =========                 |                                                 |
| \\      /  F ield         | OpenFOAM: The Open Source CFD Toolbox           |
|  \\    /   O peration     | Version:  v1706                                 |
|   \\  /    A nd           | Web:      www.OpenFOAM.com                      |
|    \\/     M anipulation  |                                                 |
\*---------------------------------------------------------------------------*/
FoamFile
{
    version     2.0;
    format      ascii;
    class       scalarField;
    location    "5/lagrangian/dsmc";
    object      ERot;
}
// * * * * * * * * * * * * * * * * * * * * * * * * * * * * * * * * * * * * * //


47583
(
4.614619206e-20
1.606148507e-19
7.828430782e-20
5.093919406e-21
1.020471694e-19
7.876425372e-20
5.306681551e-20
2.214544567e-20
1.666509208e-20
3.579935657e-20
3.581055797e-20
2.966623791e-21
7.502876403e-21
6.194923627e-20
4.247552259e-20
3.962014286e-20
3.807371243e-20
3.366970493e-20
9.083430181e-21
4.723051247e-21
4.842324719e-20
4.400516325e-20
2.470691717e-20
6.328835239e-20
6.04676546e-21
3.306522508e-20
6.505023247e-20
1.930005458e-20
2.263373891e-20
7.94422395e-20
1.323096512e-20
4.104390234e-20
6.258113976e-20
2.729233844e-20
1.458720814e-20
1.053883846e-20
5.803152163e-20
3.081460465e-20
2.322124404e-20
5.283248291e-20
2.663932663e-20
1.239966829e-19
1.295788077e-20
4.741810038e-20
1.53957419e-20
4.813324053e-21
7.42513737e-20
1.44451335e-20
1.140532452e-19
1.205428301e-20
2.57123641e-20
1.951245882e-20
3.620761649e-20
3.465760061e-20
2.444996207e-20
1.64033274e-21
4.362413929e-20
4.882590235e-21
6.347079341e-22
5.800994805e-20
1.044751625e-19
4.338994628e-21
2.323194834e-20
1.36517014e-20
9.859981482e-20
1.096763971e-19
4.040201911e-20
2.295895721e-20
1.467876979e-20
2.065088186e-20
9.050559053e-21
2.479444056e-20
6.969262009e-20
2.702679516e-20
9.371886475e-20
2.701914478e-20
2.698265369e-20
6.2453376e-20
1.98046361e-20
5.161198148e-20
1.232261655e-19
9.499806012e-21
2.583592158e-20
4.644582424e-20
6.4743149e-20
1.310676242e-20
2.391178798e-20
5.439433345e-20
1.273300162e-21
5.470307129e-20
2.86132415e-20
2.303402194e-20
1.235159831e-19
1.246722654e-21
1.472254378e-19
2.533156049e-20
4.704599635e-20
7.533093828e-20
1.383323525e-19
6.806904267e-21
1.223935059e-20
8.174276927e-20
2.621122996e-21
2.619913471e-21
2.130284303e-20
1.129464805e-19
1.079088549e-19
7.110093419e-20
1.094777059e-19
2.874469054e-20
2.698636372e-20
3.233748344e-20
6.919150995e-21
2.826318242e-20
1.218223425e-20
2.289055295e-20
4.380619051e-20
2.312776921e-19
9.888942952e-20
7.29020871e-20
6.682409906e-22
6.634063756e-21
7.357292872e-20
3.771522404e-20
5.205909908e-20
6.632190023e-21
3.988483234e-21
2.267615831e-20
9.477891352e-20
1.041606901e-19
4.494052271e-20
6.632172467e-20
3.692614387e-20
6.706411286e-20
2.218411799e-20
2.12626613e-20
3.589839722e-20
2.905734266e-20
4.621009579e-20
6.441312222e-20
4.517080307e-20
9.58063428e-20
1.381571491e-20
1.859571307e-21
6.416838635e-21
1.379367954e-20
7.174176769e-20
3.553582137e-20
4.511327988e-20
3.835776702e-20
9.600722705e-21
3.165070238e-20
1.766688599e-20
4.5179523e-21
4.607407649e-22
1.740565917e-20
3.766816485e-20
7.535496834e-20
2.616099349e-20
1.485700847e-20
3.703486447e-20
7.779380797e-21
7.406861724e-21
2.385519376e-20
6.520348394e-21
5.229801781e-20
4.782796181e-20
9.209777085e-20
7.181301689e-20
1.604273392e-20
1.386549078e-21
2.368363229e-20
8.931601212e-20
1.847295341e-20
1.484402556e-19
8.587821909e-20
1.201650954e-19
2.750779602e-20
8.50152476e-20
5.504604549e-21
1.797690963e-20
2.134056327e-20
1.50210301e-19
1.165132808e-19
5.723839274e-20
8.237754493e-21
5.919377218e-20
8.338236514e-21
1.826503798e-20
1.646085905e-19
6.65747542e-21
1.289356194e-20
2.190427111e-20
4.81759178e-20
1.324559491e-20
2.416986701e-20
9.186643171e-20
1.566554306e-20
7.037624858e-20
7.851504335e-21
4.82043921e-20
3.428174973e-20
3.198255739e-20
1.17092757e-20
2.272066319e-21
7.275930936e-20
2.01889851e-20
1.444774876e-20
1.01534688e-21
3.427220373e-20
9.736576241e-20
2.173319352e-20
6.387681085e-21
7.442894801e-21
5.502236998e-20
5.151831755e-20
3.584421513e-20
3.614259954e-21
5.53266883e-20
3.549018698e-20
1.504535345e-20
5.87075111e-21
2.678862334e-20
3.760270957e-20
1.379309456e-20
1.276637313e-20
3.263903319e-20
4.850376822e-21
2.156937006e-20
9.051437949e-20
2.024391523e-20
2.128094493e-20
2.245449476e-20
4.034849314e-21
3.376606814e-21
2.108622882e-20
1.055697328e-20
2.622113409e-21
3.275455395e-21
1.03257584e-19
8.594477278e-21
3.806313798e-21
1.583268996e-20
5.227689163e-20
5.838692885e-20
6.225902365e-20
5.165134956e-21
5.821928178e-20
1.210953724e-20
6.646613077e-21
1.273704584e-20
1.230548466e-20
1.575748555e-20
6.17024477e-20
8.773745767e-20
4.042397078e-21
1.477377373e-20
1.681000409e-21
4.935714346e-20
1.222947603e-20
1.769980786e-20
2.839111438e-20
3.776561478e-20
2.141070395e-20
5.83328036e-20
8.998147526e-20
8.215733617e-20
4.00935457e-20
1.167181027e-20
1.472703954e-20
2.123113819e-20
1.311428835e-19
6.840635802e-20
8.998139937e-21
3.906453937e-20
1.273420235e-19
8.835445088e-20
1.348213011e-20
3.502266502e-20
4.85193995e-20
3.511255649e-20
5.64838375e-20
3.076311758e-20
1.413176752e-20
5.15253537e-20
1.861140679e-20
3.747923709e-21
6.288135914e-20
1.132722279e-20
2.000070905e-20
1.53132801e-20
2.346213608e-20
3.425850333e-20
3.451034923e-20
5.094634436e-20
2.453717553e-20
3.147697742e-20
5.262012906e-20
6.141710897e-20
2.61249309e-20
1.560709017e-20
3.433362352e-20
3.996253894e-20
9.113457909e-21
1.244237679e-20
8.120434534e-20
3.14687016e-20
2.550292949e-20
1.742267368e-20
7.681346329e-21
4.873444246e-20
1.412082645e-21
1.134562082e-19
3.816520097e-20
4.734364989e-20
1.039517584e-20
2.094039228e-20
5.809638315e-20
5.391182102e-21
5.497295141e-20
1.019237898e-21
1.446077675e-19
1.53131091e-20
8.221808404e-20
1.512700592e-20
2.313533224e-20
8.926364979e-20
5.493188938e-20
1.695241877e-20
1.953256944e-20
1.01467556e-20
1.362472093e-20
4.626900003e-20
5.123104134e-21
3.883213201e-20
3.767202445e-20
5.293300149e-20
1.164619912e-19
4.113632448e-21
1.990647105e-20
9.740438499e-20
3.11773953e-20
1.166083804e-20
2.678515906e-20
4.894575784e-20
5.781756784e-21
5.652995184e-21
2.857797026e-20
2.850249594e-21
2.617583113e-20
3.019379845e-20
9.488271858e-21
6.525880091e-20
5.296732006e-20
5.225865523e-21
1.309342287e-19
2.166228427e-20
5.727905235e-21
1.215338584e-20
2.829143064e-20
4.386150487e-20
5.431827326e-20
3.808267433e-21
1.031849672e-20
8.261969573e-20
8.245392617e-21
6.552305829e-20
7.677391349e-21
1.935178427e-20
5.992109798e-20
6.426425813e-21
1.065433708e-20
3.010783971e-21
1.130706572e-20
4.642713165e-21
2.766445258e-20
5.396319951e-20
5.772792883e-21
5.813578662e-20
2.784589784e-20
1.109747143e-19
2.563345239e-20
5.940796605e-20
4.851603253e-20
6.077175616e-20
9.967698574e-21
1.283795494e-20
6.987786994e-20
2.868761765e-20
2.21897951e-21
2.919941768e-20
3.326751995e-20
3.256446719e-20
8.680945327e-20
4.876914372e-20
2.010874547e-20
1.060298583e-20
1.56649331e-21
1.158932146e-20
1.268681328e-20
2.938879082e-20
1.574607467e-21
2.761592039e-20
6.087256677e-20
2.598788175e-20
6.895216535e-21
4.772760471e-20
6.228801356e-20
2.078504573e-20
5.734306252e-21
9.470782761e-21
2.865034e-20
5.933669308e-20
1.469578248e-20
1.95966389e-20
6.213798798e-20
2.216632077e-20
8.686129098e-21
4.215111717e-20
5.493280671e-21
5.13732368e-20
7.79159257e-20
1.75376291e-20
1.064194555e-20
3.696801072e-20
3.122957408e-20
1.215964022e-20
3.10277544e-20
1.501362299e-20
1.4055475e-20
9.525412392e-20
1.729791468e-20
1.331242584e-20
1.083393155e-19
6.670094964e-20
2.944254569e-20
1.940163138e-20
8.206196593e-20
1.333052685e-20
3.687461873e-20
6.783272052e-21
1.448304538e-20
3.736264605e-20
6.417919615e-21
6.40436628e-20
3.635179368e-20
2.288525894e-20
8.928597676e-21
6.447861848e-20
6.171560841e-20
3.606207412e-20
2.787127957e-20
3.946205823e-20
5.425009105e-20
8.418116701e-21
2.102318711e-20
1.74133615e-20
4.969951292e-21
3.647526934e-21
4.094324363e-20
6.464550776e-20
1.119829705e-20
1.309328511e-20
1.057256091e-19
4.031498754e-20
2.287289199e-21
1.284954827e-20
2.253626819e-20
4.867813263e-20
2.304069684e-20
5.956046167e-20
1.69989766e-19
8.4600428e-21
2.006822461e-20
1.987865637e-20
2.183559707e-20
7.242552735e-20
2.560323245e-20
8.922002388e-20
1.879129206e-20
4.793644347e-21
1.203263818e-20
5.492530743e-20
1.042356429e-21
7.980032619e-21
3.31478406e-21
9.05274194e-21
1.629552944e-19
5.977973939e-21
9.632788979e-21
1.908706695e-20
2.024323375e-20
1.071118794e-20
3.177138269e-20
5.131506668e-20
9.265244246e-20
3.347390162e-20
8.577889141e-20
4.60554552e-21
9.29244265e-21
2.057165984e-20
2.102043858e-21
1.109910033e-20
3.386202176e-20
7.347526698e-20
4.143167097e-21
4.255952546e-20
5.613795831e-20
3.531736167e-20
1.681444992e-19
5.198107332e-20
1.136408803e-20
1.033279162e-20
2.73719064e-20
1.242110034e-20
1.487876659e-19
5.640514605e-21
6.02249524e-20
5.687659092e-20
2.563019075e-20
1.493674447e-20
7.535275067e-21
1.815177599e-20
1.296082319e-20
2.823404448e-20
7.382986552e-20
4.878199141e-20
1.502294832e-20
7.574100583e-21
5.916563772e-20
2.972241543e-20
1.087517891e-19
2.04376554e-20
2.857762888e-20
1.643388978e-20
3.517652661e-21
5.383875131e-20
1.877660812e-21
7.224800002e-21
2.089459791e-20
6.506685517e-20
1.956497789e-20
9.413041959e-21
7.395840976e-20
3.001095257e-20
6.601246176e-20
1.328727776e-19
1.057606009e-20
9.435738143e-21
1.748979037e-20
3.400283064e-20
2.64354918e-20
1.065375888e-19
9.207747214e-20
2.926179777e-21
9.727709338e-21
2.2752941e-20
1.332780385e-21
4.312257808e-21
5.607730223e-21
2.160524701e-20
1.00094311e-20
4.214148081e-20
1.222546625e-20
1.984350513e-21
6.23626407e-20
2.650530004e-20
9.395533459e-20
4.058525445e-20
7.966934965e-20
1.377935117e-20
5.292357995e-21
6.805045131e-21
4.953957686e-20
8.818676465e-21
8.54834911e-20
6.826567998e-21
7.577402166e-20
1.115455744e-20
4.730846504e-20
1.219329126e-20
4.974106372e-20
4.082269901e-20
7.251751465e-20
8.49449093e-20
3.012533337e-20
3.177407582e-20
3.761825451e-20
3.042755211e-20
5.320197516e-20
5.138290264e-20
1.53684273e-20
7.580783081e-21
6.313218833e-20
5.516253341e-20
2.291535519e-20
2.106046961e-20
7.863671236e-21
7.543882358e-22
2.161084115e-20
1.896652588e-21
4.273394513e-20
4.643674713e-20
7.176506752e-21
1.82911764e-21
7.679109497e-20
3.597301321e-20
5.598676894e-20
2.66482131e-20
1.118778266e-19
9.656737409e-20
4.656297916e-21
3.366956457e-21
1.55306813e-20
1.131532588e-20
6.668213547e-21
8.606208918e-20
5.575142378e-20
5.551299822e-22
7.605942226e-21
5.417442387e-21
1.496286586e-23
4.12430974e-20
5.666018613e-20
1.533660228e-20
5.262759576e-20
2.800853426e-20
4.513490441e-20
2.208254927e-20
5.721059185e-21
6.739295448e-20
4.511773365e-21
2.173964732e-20
4.243126903e-20
8.291382391e-20
7.023037936e-20
3.803577958e-21
5.495605688e-20
1.558369096e-21
9.688752561e-21
8.435369907e-21
3.445354328e-21
2.546749474e-20
2.785361963e-20
1.903689222e-20
1.992852836e-20
3.066192168e-20
6.0933816e-20
1.095791766e-19
4.518597323e-20
3.280994738e-20
7.532244367e-20
2.284145046e-20
2.295870245e-20
1.05699656e-20
3.734189051e-21
2.830605562e-21
1.131703437e-19
3.880036566e-20
8.995457447e-21
5.991735851e-20
2.623703438e-21
2.235473526e-20
1.849200156e-20
2.593067234e-20
8.0151829e-20
2.406876612e-20
7.271789756e-20
2.320245927e-20
5.086692551e-20
2.613790029e-20
1.815316216e-20
3.164406043e-20
6.390393641e-21
9.533612346e-21
2.429447135e-20
3.713055767e-20
2.001033536e-19
2.175544328e-20
8.271743589e-20
6.252245845e-20
2.089903144e-20
4.710302926e-20
8.167398711e-20
2.016594073e-20
4.502627333e-21
9.269555754e-22
6.353769494e-20
2.182605926e-20
1.763742512e-20
4.036418492e-21
1.398740249e-20
5.792564587e-20
1.085982171e-20
4.649274547e-20
2.395834114e-21
3.175849513e-20
3.716157461e-20
3.866481335e-21
2.059970989e-20
4.622460427e-20
3.86162767e-21
1.931425022e-20
7.229108314e-20
6.692879616e-20
1.490467333e-19
1.116835747e-20
3.196495005e-21
7.088682117e-20
3.195190147e-20
5.149988864e-20
2.787418517e-20
6.092937832e-20
4.290872821e-20
1.085152633e-20
8.282109123e-20
5.979500076e-20
2.557147122e-20
6.100767079e-21
3.741743804e-20
3.485269781e-20
1.687604779e-20
3.348755697e-20
2.404005872e-20
2.094923189e-20
2.394235582e-20
2.644330324e-20
8.294103091e-21
2.999875992e-20
1.688642341e-20
4.05727308e-20
2.631831198e-21
1.330889413e-20
2.882460683e-20
5.372660197e-20
6.319114402e-21
7.505568036e-20
1.622633968e-20
9.831997948e-21
5.357371581e-20
5.664541043e-20
7.579538636e-21
1.3775897e-19
2.81443835e-20
5.019907763e-21
9.7808475e-20
3.720568275e-20
3.752643675e-20
2.947044626e-20
2.758223212e-20
5.265907084e-20
4.879869221e-20
3.101024594e-20
6.056474758e-20
1.264673004e-20
2.153243698e-20
1.284956471e-19
1.486861424e-20
3.679022392e-20
9.301984466e-20
1.362005908e-20
2.417203066e-21
7.656765307e-20
6.510734447e-20
2.643144038e-20
1.596733395e-20
3.012040784e-20
1.269539764e-19
3.400199599e-20
3.306555332e-20
1.564707327e-20
6.716383438e-20
3.090367116e-20
8.269567427e-20
4.675594728e-20
4.199746765e-20
2.099964855e-20
7.769250661e-20
2.332229316e-20
1.404508501e-20
2.331068053e-20
8.497001289e-20
1.054077431e-19
3.045899801e-20
5.485957494e-20
9.40185328e-21
6.386665526e-21
2.143093681e-20
3.591021629e-20
9.014682144e-20
3.729880683e-20
7.211008968e-20
5.545250916e-20
1.946451938e-20
2.688798611e-22
5.974039187e-20
5.78500705e-21
2.506781355e-20
9.335431245e-21
2.399822089e-20
9.285516504e-22
2.047493636e-20
2.458413031e-20
1.851851168e-20
2.306818055e-20
4.690101243e-20
7.018704454e-21
1.218930248e-21
9.112853118e-20
2.645986144e-20
1.931236837e-20
5.721994272e-21
8.225215209e-20
4.096506108e-21
3.520296677e-20
1.404423648e-20
6.080906389e-20
5.059475184e-21
3.948442986e-20
1.806714574e-20
7.341435848e-21
4.339559673e-20
4.942406295e-20
4.526816049e-21
3.123488546e-21
1.154585465e-20
5.345738947e-20
1.43119578e-19
6.481194248e-20
1.650595232e-20
2.096953224e-20
3.389558422e-21
4.869777037e-20
6.452758913e-21
4.132825162e-20
1.64909125e-21
1.404735856e-19
7.155467183e-20
1.448032073e-19
4.660941094e-20
2.975918847e-20
6.70899501e-21
2.152123114e-20
2.549981708e-21
5.520375458e-21
3.051202536e-20
6.885545189e-20
7.353060567e-21
1.580754743e-20
2.425655927e-20
1.908174811e-20
7.403283232e-21
2.065461261e-20
6.096547387e-20
1.718294349e-20
9.986866842e-22
4.598270728e-20
9.139201041e-20
3.829180789e-20
2.539177825e-20
3.331875656e-20
9.508953781e-22
7.081838246e-20
3.825067784e-20
1.464971825e-20
2.845166812e-21
3.163010618e-20
7.892471975e-21
2.833820195e-20
7.093324656e-20
7.415116563e-20
5.835771625e-20
6.171419362e-20
1.153314275e-19
7.593306016e-20
1.086265988e-19
5.080409176e-20
1.253818348e-20
1.656595258e-20
3.486317739e-20
1.361586225e-20
4.520492938e-20
1.674405434e-21
3.669586705e-20
7.816130216e-21
4.042691453e-21
1.673413326e-20
2.573076008e-20
3.383731896e-20
3.889962546e-20
2.868704535e-20
1.195003998e-20
2.889772206e-20
4.606341089e-20
6.907003861e-21
8.920479939e-20
3.732464278e-20
1.396589522e-20
6.259193972e-20
1.099155034e-20
3.074031225e-20
7.312875289e-20
5.224197625e-20
8.993125225e-21
2.066145405e-19
4.249500878e-22
1.601586319e-19
1.292760636e-20
4.515269885e-20
1.578028505e-20
1.130120762e-20
6.476689454e-21
1.792225321e-20
2.256259167e-20
4.885007672e-20
2.756815454e-20
3.938712182e-21
2.213474475e-20
3.496755141e-20
9.574995697e-20
1.210043352e-20
1.151786208e-20
1.349963729e-20
6.170083418e-20
3.539978619e-20
7.585437709e-20
2.757481025e-20
5.499468976e-20
1.310119813e-19
3.493446181e-20
3.182478458e-20
7.143423659e-20
3.092647442e-21
1.565095416e-20
4.028050457e-21
2.969294635e-20
3.328699248e-21
2.352824273e-20
1.75219954e-20
1.684578628e-20
1.087776923e-20
9.755011877e-22
1.68826809e-21
5.768814868e-20
5.343747444e-20
2.869939134e-20
1.688728992e-20
4.22131006e-21
1.92349591e-20
4.766219987e-20
6.242057584e-20
2.208514127e-20
3.30848387e-20
3.079038197e-20
1.827999521e-20
2.340235062e-21
8.569939644e-21
5.887901961e-20
2.888867693e-20
4.566179481e-20
4.539540221e-20
7.644649967e-21
3.291351476e-21
9.55718485e-20
1.426440984e-20
1.8039511e-20
2.035773935e-20
4.093613914e-20
4.355149123e-20
2.045125005e-20
5.76459769e-20
4.84122488e-20
5.035671322e-21
1.851468493e-20
3.915649562e-21
2.880698524e-20
6.83054456e-20
1.453157048e-21
2.72974617e-20
6.246626553e-21
2.809355773e-20
3.998068592e-20
4.30114628e-21
7.671268921e-20
2.788311592e-20
1.86412757e-20
5.383886509e-20
9.232914381e-21
7.168633998e-20
1.000629779e-20
6.392598532e-21
5.30255345e-20
7.596662822e-20
6.339625963e-20
5.28761628e-20
2.765892147e-20
4.761424707e-20
6.742686737e-20
6.849554054e-20
3.419046681e-23
2.451072898e-22
3.28763554e-20
4.862809698e-20
7.45347115e-20
1.51862515e-20
8.052428937e-20
1.815456357e-20
1.867740257e-19
2.160554885e-20
3.945904658e-20
5.371790429e-20
2.477370075e-20
3.610628356e-20
9.075806307e-20
6.281410008e-20
4.23100863e-22
4.628003936e-20
2.336634274e-20
2.232431481e-20
8.18966659e-21
2.044653761e-20
3.997448461e-20
2.183579137e-20
1.245826261e-20
3.34168275e-20
3.974555827e-20
3.994160424e-20
4.359684523e-20
1.778742116e-21
3.048074379e-20
3.414481431e-20
4.497328981e-20
1.047017024e-20
6.438420197e-21
1.555177322e-20
1.835030013e-20
1.873598444e-20
4.102116198e-21
3.35918296e-20
9.151501279e-20
5.426216598e-22
6.423847571e-20
8.864186901e-20
1.294449574e-20
8.255259286e-20
2.035431751e-20
3.094227376e-20
2.064314879e-20
1.612719693e-19
2.253053745e-20
1.695758615e-20
3.759503516e-21
3.245587101e-20
1.275971823e-20
1.001479819e-19
9.844676102e-20
5.752631359e-20
3.501024032e-20
1.682317698e-20
1.100838695e-19
7.858094049e-20
4.181418282e-21
2.58766713e-20
5.35472247e-20
6.156925615e-20
1.361732557e-19
5.557574199e-20
2.601930912e-20
1.514639682e-19
7.508980946e-20
2.911536253e-20
4.181341275e-21
6.074904927e-21
1.90561708e-20
4.022409626e-20
8.450229882e-20
4.473921781e-20
3.098500284e-21
4.543096188e-21
1.205700778e-21
3.040060818e-20
4.161161575e-20
2.833013025e-20
3.63101373e-20
3.45392911e-20
1.476391098e-20
4.25297635e-20
1.133045113e-20
1.368493155e-20
2.85127204e-20
4.297058146e-22
4.392441943e-21
3.780184666e-20
7.443957182e-20
2.872829289e-20
1.361147173e-20
4.067547066e-20
4.536879456e-20
3.678594827e-20
2.920088822e-20
4.19070681e-20
4.294583286e-20
3.455972377e-20
3.118000592e-20
4.765670011e-20
4.09904306e-20
1.051295835e-20
6.378621347e-21
2.963562033e-20
4.872176643e-20
7.488781747e-20
9.116781839e-21
5.142859217e-20
4.45687462e-20
3.126159516e-20
5.494021121e-21
1.919106063e-20
3.427289753e-21
1.346364932e-19
5.216063197e-20
3.918289592e-20
7.650354098e-21
6.845208111e-20
1.814641427e-21
2.364764414e-20
4.287613146e-20
2.514833672e-20
3.027746632e-20
3.772763805e-21
1.206253605e-20
6.347119168e-21
1.02925014e-19
1.747630142e-20
2.073169175e-21
3.214040701e-20
3.73384398e-20
4.309614794e-20
3.644107138e-22
4.766151426e-21
2.769917147e-20
1.000426291e-20
2.032210331e-20
2.26330735e-21
7.710777056e-20
9.789910658e-21
3.351819634e-20
5.909751387e-20
7.714912995e-20
7.395160634e-22
1.914229683e-20
1.157356869e-20
5.487695221e-20
4.1412723e-20
5.949782525e-21
3.086322435e-20
7.142412538e-21
6.368282836e-21
3.516622437e-21
4.870517597e-21
8.06451039e-20
3.499501166e-20
5.410437148e-21
5.849787629e-20
5.291751289e-20
1.136309336e-19
6.713377298e-21
2.872054556e-20
2.905108382e-20
1.661936776e-20
2.989758303e-21
1.007173469e-20
2.855021213e-20
1.228451681e-20
2.545241351e-20
8.291268799e-21
7.584745321e-20
6.642489015e-20
1.858218463e-21
1.205839884e-20
8.570465121e-20
6.710147629e-20
6.73345595e-22
4.080722066e-20
9.16112114e-20
2.966182655e-20
7.199114892e-21
6.245773171e-20
5.495854457e-20
2.884566951e-20
4.964839345e-20
9.395474774e-20
2.272158095e-20
7.876913796e-20
8.931532906e-20
8.959038489e-20
1.279446941e-20
4.259239108e-21
8.821741405e-21
5.243494637e-20
7.503961476e-21
4.858624378e-20
1.015920504e-19
2.543618231e-21
1.539865012e-20
2.436193546e-20
2.376098345e-21
3.223074735e-20
8.363102378e-21
3.188383386e-20
5.998681637e-20
1.271826216e-21
1.136175474e-20
3.290652769e-21
1.759437569e-20
3.279844665e-20
1.043184056e-20
5.93948387e-20
1.158629543e-21
6.786813872e-21
8.692433692e-20
8.274542035e-20
2.762103234e-21
1.113053946e-20
2.361349078e-20
2.452014759e-21
4.426241115e-22
1.848201873e-20
6.522302024e-21
2.779001044e-20
1.419250079e-20
2.199616166e-20
2.415431461e-21
5.279639619e-20
8.277946001e-20
1.141776906e-19
3.572162753e-20
1.765583689e-21
1.559453804e-20
4.211620409e-20
1.114271612e-20
1.07684096e-20
1.807697447e-19
9.718863734e-20
6.122450916e-20
2.687014111e-20
1.222221429e-20
1.499121158e-20
6.056808164e-20
1.719308717e-21
1.646015299e-20
1.00282929e-19
2.535166903e-20
1.375900924e-20
2.69145958e-20
3.790689139e-20
4.835774578e-20
5.256037594e-20
5.047684135e-21
6.563823243e-20
4.219936845e-21
5.198173707e-20
4.187255545e-21
2.945733104e-20
2.782044903e-21
5.555711754e-20
3.382219564e-20
2.262316818e-20
2.676892642e-20
8.740590104e-20
1.257359838e-19
1.207149318e-19
1.890298463e-20
7.846479906e-20
7.269562878e-20
8.419447236e-21
9.579748659e-20
2.169830041e-20
3.697275169e-20
1.437157196e-20
9.950036099e-21
9.137877714e-21
2.145223624e-20
5.916973932e-21
5.014379841e-20
2.441595948e-20
2.419485152e-20
1.701700099e-20
5.769597219e-20
8.272838875e-20
9.013465361e-22
1.267407502e-21
1.59524346e-20
2.638353827e-20
5.052332165e-20
3.035053079e-20
3.528051778e-20
1.130649908e-20
4.864075917e-20
1.758114159e-20
1.483240929e-20
3.020166546e-20
5.312970364e-21
2.657448158e-20
2.660185728e-19
4.101123502e-21
1.037258232e-20
1.332236328e-19
6.691581321e-21
8.521426865e-20
2.521452373e-20
5.45779865e-20
1.918863637e-20
1.820148919e-21
2.46923509e-20
4.332135441e-20
4.14389712e-20
1.398644633e-19
5.931723338e-21
4.367401439e-20
1.249186381e-20
3.166566071e-20
9.899814422e-20
5.346699263e-20
3.19416735e-20
9.456953744e-21
1.3480494e-20
6.756833225e-21
4.359853732e-21
2.333137828e-21
5.604230752e-21
2.24945661e-21
1.721232152e-21
1.433704783e-19
3.367933319e-20
2.58290308e-21
6.572100305e-21
1.902580934e-20
1.319753172e-20
2.877610711e-21
1.113961812e-19
1.752656911e-20
2.733557141e-20
1.250747363e-21
2.83265734e-20
5.833257143e-20
9.628080864e-20
8.456384775e-20
2.655421233e-20
1.956424006e-20
1.472635719e-20
2.729783757e-20
6.418905577e-21
1.196095631e-19
5.466265921e-21
2.836200684e-20
4.047145304e-20
4.326298636e-21
1.051276668e-19
5.248923694e-21
1.917295425e-20
1.579378564e-20
3.02616347e-20
2.308906581e-20
1.479521488e-20
1.516701959e-20
3.780031362e-20
4.691146047e-20
7.803367824e-20
1.746092111e-20
6.700244895e-20
5.111212677e-20
1.384658207e-20
4.4048196e-20
3.321502004e-21
4.845724743e-20
2.006898459e-19
4.876993312e-20
3.742118828e-21
1.557647583e-20
1.57627596e-20
6.511094323e-20
4.002001328e-20
1.748185094e-20
1.069028077e-19
6.83763238e-20
4.520793357e-20
1.474779489e-20
2.085178699e-20
1.234709414e-19
3.757916155e-22
1.096883114e-19
2.143656717e-20
9.870158504e-20
2.205606301e-19
9.107005409e-20
3.939693699e-20
7.42145826e-20
5.730728005e-20
1.246506181e-19
4.906271827e-21
1.00660802e-21
1.199196592e-21
3.934121108e-21
7.945035213e-21
5.793227672e-21
1.278987475e-20
5.147831484e-21
9.580007087e-20
1.203636596e-19
2.181252031e-20
1.763805441e-20
4.539641574e-23
6.730954804e-22
5.219460293e-20
3.385332462e-20
6.679218643e-21
7.706707822e-21
3.973717425e-20
1.172970911e-20
9.983434846e-20
8.187397916e-20
7.690325745e-21
3.521621114e-20
1.927362245e-20
1.502573274e-20
2.894763373e-20
3.234333431e-20
1.251236292e-19
2.30454846e-21
2.64018362e-20
1.777142541e-20
6.716083881e-20
2.630065766e-20
9.078774066e-23
1.537467592e-20
2.704987879e-20
3.377280713e-21
1.259740991e-20
8.230598252e-20
7.931779195e-20
3.679461118e-20
8.425001145e-21
1.002302291e-19
4.434624392e-21
3.469032491e-20
2.58774609e-19
1.615606301e-20
1.02214194e-20
1.1701914e-19
3.568994405e-20
4.893666369e-20
3.871900123e-22
7.069261133e-20
5.579056142e-20
9.227403214e-20
9.194666315e-20
3.10607675e-21
2.19913399e-20
5.462019652e-20
1.722732677e-20
9.397265349e-21
4.925286588e-20
2.133444643e-21
1.79242326e-21
1.056426112e-21
8.096133117e-20
6.223664169e-20
1.064245817e-20
7.324210114e-21
4.485700619e-20
7.370452415e-21
5.021995471e-21
1.420815316e-20
4.094532285e-20
4.297735093e-20
4.955470511e-20
9.871250843e-21
4.919782095e-20
6.628208137e-20
1.199208613e-19
1.411955549e-20
9.136206602e-21
1.473045104e-20
3.239078376e-20
1.993400933e-21
3.395347144e-20
4.364940987e-20
4.822643601e-20
1.383839084e-20
4.036967821e-20
3.32246007e-20
2.353911894e-20
4.779689378e-20
1.842377853e-20
7.93621975e-20
2.462926493e-20
7.325986098e-22
6.032777413e-20
1.488124957e-20
1.071023167e-20
2.814586994e-20
8.570406431e-21
1.141544198e-19
3.965037932e-20
7.056207884e-20
2.161468337e-20
2.187156147e-20
4.089630893e-20
8.158995297e-21
1.114416358e-20
2.778895354e-20
3.865069874e-21
1.003242142e-20
1.325173256e-20
5.000760089e-21
1.51773123e-20
5.399310368e-21
9.457614455e-21
3.567478566e-20
2.886642684e-20
4.05043382e-20
4.3745973e-20
1.74733436e-19
5.761957023e-20
3.358588115e-20
2.257206124e-20
2.084951029e-20
1.026294639e-20
5.016290483e-20
1.700180372e-20
8.535945368e-23
5.410496554e-20
4.641730002e-20
2.839781186e-21
4.178425922e-20
2.267724985e-20
7.987231518e-20
1.697047584e-20
1.655341691e-22
1.476305565e-20
2.607253503e-20
1.471050039e-20
2.56262356e-20
2.438733551e-20
2.993898944e-20
1.726170585e-22
1.069481061e-20
7.360612535e-20
4.401898623e-20
6.227602182e-20
1.342555357e-21
6.475385422e-20
1.269876892e-19
1.752772588e-21
8.771820689e-21
3.788324035e-20
2.211489174e-20
1.340928066e-20
2.894282339e-20
2.98387792e-20
1.021172872e-20
6.776711233e-20
1.899774667e-20
2.184689325e-20
1.97016847e-21
1.602906519e-19
4.150991719e-20
3.719767259e-20
9.739468675e-21
4.925860139e-20
3.011406553e-20
9.2055663e-20
2.175656201e-20
5.712854333e-20
3.057427341e-20
2.755818835e-20
2.56608865e-20
9.563320221e-21
7.094460751e-20
1.819539368e-20
1.668023173e-20
5.790109591e-20
2.31017787e-21
3.044567208e-20
1.06382039e-19
2.934966748e-21
1.388147292e-19
8.775597318e-20
4.060406379e-21
1.42465298e-21
4.052188183e-20
1.745155424e-20
2.015621565e-20
2.387528303e-20
7.824128113e-21
9.919261476e-21
7.092878561e-20
1.435534807e-20
2.873472477e-21
1.883716916e-20
4.544846457e-20
4.050969085e-20
1.158581311e-20
2.183512696e-20
3.329635479e-20
4.389857528e-20
1.800293747e-20
3.277206795e-21
3.957714939e-20
2.676109656e-20
3.239936017e-20
3.563461195e-20
8.413746381e-21
7.672291589e-20
8.234289864e-20
4.398794362e-20
2.243480473e-21
1.006343254e-19
2.3016313e-20
7.518975628e-20
3.82548537e-20
2.244744609e-20
5.081534726e-20
2.496761618e-20
3.892522993e-20
4.983937898e-21
3.651461632e-20
1.53462099e-20
3.962477995e-20
5.185615517e-20
2.284612555e-20
3.643253931e-20
3.769520613e-20
7.245190854e-20
1.258514006e-19
1.676459642e-20
2.936399538e-21
1.588456464e-20
2.248419329e-20
5.747656206e-21
3.943586776e-20
6.786570013e-20
4.503618848e-21
1.680253434e-20
1.314567642e-20
3.165394945e-20
1.254613299e-19
3.310465597e-20
1.068913966e-20
1.631790879e-20
4.581714934e-20
1.871886615e-20
4.535680186e-20
2.689207041e-21
4.130570577e-20
3.160237848e-20
1.390870165e-19
8.366466394e-20
1.334455027e-19
2.83145693e-20
1.699692819e-20
8.966296904e-21
3.248740959e-20
1.722051273e-20
3.83419501e-20
2.067702783e-20
4.260753356e-21
6.7296404e-20
1.438172656e-19
1.793013792e-20
1.138488675e-20
1.779180931e-20
2.473410814e-20
1.874597575e-20
7.974395982e-20
2.590779626e-20
1.575278577e-21
1.07599018e-19
1.701618178e-20
1.067248394e-20
7.038432953e-20
2.034460049e-20
5.558007691e-20
7.228694727e-21
1.701548604e-19
7.128156706e-21
3.484282258e-20
6.171873107e-20
1.865584614e-21
2.718665897e-20
7.454187306e-20
4.599944461e-20
2.48323152e-21
4.401493897e-20
5.596848035e-20
4.071775199e-20
2.862305097e-21
5.707201409e-20
5.486462641e-20
1.862706513e-19
2.601745508e-20
1.688558393e-20
5.307204239e-21
7.482509813e-20
1.262386883e-19
2.761893454e-20
5.001904508e-20
3.085520381e-20
7.401676906e-20
3.997579739e-20
2.479622365e-20
2.612307568e-20
4.615296943e-20
5.09675898e-20
8.375841324e-20
1.271556444e-21
5.425002845e-20
3.819079448e-20
1.453546844e-20
5.085453101e-20
1.767119317e-20
2.286733206e-20
5.067513714e-20
7.346476991e-21
2.885482495e-20
3.320417227e-20
4.443934726e-20
9.498031047e-20
6.159544716e-20
6.9243343e-20
3.923698955e-20
1.230222435e-20
4.926139478e-20
2.76964265e-20
5.232705963e-21
2.370975268e-20
7.974018159e-20
3.654120046e-20
1.160463325e-19
2.91632966e-20
5.798263551e-20
5.081163378e-20
7.854563542e-20
1.843148461e-20
1.748354922e-22
7.133133263e-20
1.080747325e-19
5.853681919e-20
3.490266575e-20
9.88934737e-20
1.471194686e-20
8.658970745e-21
2.300789185e-20
2.945011189e-20
2.326470838e-20
4.645217544e-21
4.641281311e-20
5.445110592e-20
4.869781788e-20
2.761726815e-20
3.170326448e-20
7.742770619e-20
1.05074727e-20
8.499716534e-21
9.539191631e-21
1.515831028e-20
9.725638173e-20
4.003335345e-20
2.182666458e-21
9.336546451e-20
5.303401881e-20
3.752893233e-20
1.431365545e-20
3.105408952e-20
1.738471968e-20
1.894237065e-20
4.207839582e-20
3.709529683e-20
2.518874793e-20
8.041986428e-21
5.802529739e-21
1.469784171e-20
2.993667105e-21
1.305343994e-21
1.491246187e-21
4.999692457e-20
1.939805075e-20
1.591259981e-20
1.365368387e-20
8.869807582e-20
2.473533253e-20
2.179984665e-21
1.195329511e-21
6.890334518e-21
5.507227893e-20
3.983317531e-20
6.699249929e-20
1.849933364e-21
2.081291129e-20
5.919377111e-21
1.64823886e-19
6.613833802e-21
2.337777854e-21
7.370550911e-21
1.943179558e-20
7.778225556e-20
2.608889818e-20
2.004031258e-20
2.895638675e-20
8.392485023e-20
1.103951082e-19
2.2182818e-21
2.657728019e-20
1.224703406e-20
3.47601593e-20
6.013931069e-20
8.636615907e-21
1.98209362e-19
5.007488848e-20
7.172024895e-20
9.890029082e-20
7.27691179e-21
6.814460154e-20
1.05035786e-20
2.420061507e-20
1.329206566e-20
5.397041361e-21
1.669801695e-20
2.139310466e-21
2.538135904e-20
1.424512412e-21
6.945364078e-21
7.688809708e-20
2.774765037e-20
1.152339095e-19
4.529920411e-20
1.948166214e-20
6.791929737e-21