/*--------------------------------*- C++ -*----------------------------------*\
| =========                 |                                                 |
| \\      /  F ield         | OpenFOAM: The Open Source CFD Toolbox           |
|  \\    /   O peration     | Version:  v1706                                 |
|   \\  /    A nd           | Web:      www.OpenFOAM.com                      |
|    \\/     M anipulation  |                                                 |
\*---------------------------------------------------------------------------*/
FoamFile
{
    version     2.0;
    format      ascii;
    class       scalarField;
    location    "5/lagrangian/dsmc";
    object      ERot;
}
// * * * * * * * * * * * * * * * * * * * * * * * * * * * * * * * * * * * * * //


47581
(
1.870294586e-20
6.250653063e-21
1.159054262e-19
1.059892919e-20
6.902809259e-20
1.791037973e-20
3.899605488e-21
3.328646483e-20
8.726846299e-21
1.260914766e-19
4.53281023e-20
1.145452724e-20
3.062319298e-20
3.061875945e-21
1.364693141e-20
4.996942601e-20
2.337063079e-20
2.304677904e-21
6.233389745e-20
2.229250253e-21
5.617669712e-21
8.90787183e-20
1.406796008e-19
5.242839118e-20
1.255778248e-21
8.939686259e-22
1.12064365e-21
8.494369341e-20
2.118799084e-19
1.155123489e-19
5.160796484e-20
1.142332018e-19
5.853284409e-20
1.907751193e-20
5.938015721e-21
1.892005947e-20
4.765278055e-20
8.990695665e-20
1.413476238e-20
4.54154909e-20
4.648724316e-20
3.170865987e-20
1.002866619e-19
4.251945172e-21
1.578698145e-20
3.910348552e-20
6.172221531e-20
1.081913443e-19
8.967709798e-22
4.044874818e-20
1.894428228e-20
2.726207783e-20
8.086663349e-21
2.264225406e-20
2.619025398e-20
1.207627959e-20
1.986351148e-19
1.345439596e-20
6.241792252e-20
7.650877154e-20
1.307677467e-20
1.990308622e-21
1.758475892e-20
2.304984928e-20
1.912505635e-20
7.321210806e-20
2.502448464e-20
2.302535557e-21
4.267013748e-20
7.842457255e-21
4.060843199e-20
1.804508515e-20
5.167547425e-20
2.752935183e-21
3.058167292e-21
2.384127765e-20
1.176562208e-20
4.808700428e-20
4.275966367e-20
7.51377262e-20
7.378303382e-20
7.382357644e-21
6.117999088e-20
6.329403049e-20
7.71549983e-21
1.096001212e-20
4.046559709e-20
2.347713266e-20
1.448404909e-21
1.787969236e-20
9.067317711e-20
2.950305177e-20
1.904663756e-20
3.188095177e-21
2.857131608e-20
2.097397635e-20
2.683917575e-20
9.589741596e-21
3.137300467e-20
2.584879078e-21
1.147048798e-19
2.619577567e-20
6.101453779e-20
1.010386733e-20
6.561695366e-20
3.403702397e-20
2.879769318e-20
5.289931833e-20
1.978236305e-20
6.404918519e-20
6.364044449e-20
1.684635345e-21
1.499681131e-20
2.331484213e-20
1.357566093e-20
1.174989443e-19
2.531292918e-20
3.705686827e-20
1.972186179e-20
8.877840981e-20
1.351981457e-20
5.466325635e-20
2.004268656e-20
4.748059948e-20
2.732828169e-20
1.404892053e-20
1.209963575e-20
1.494361334e-19
1.3267614e-20
1.960977838e-20
1.77198837e-20
7.291541683e-20
1.639040553e-20
1.054176912e-20
2.589089673e-20
9.290744244e-20
1.160341868e-20
8.159508166e-21
4.682767855e-20
6.212104382e-20
8.093260483e-20
4.116171069e-21
2.927031484e-20
7.003132807e-21
1.610650886e-19
8.222083791e-21
8.344107072e-22
1.156592014e-20
9.561574792e-21
2.723333401e-21
3.615699461e-20
6.834527144e-20
7.69683555e-20
4.30667362e-20
6.61068111e-21
2.192728384e-20
2.984138527e-21
2.217947393e-20
1.605364756e-19
5.604618185e-20
3.725950418e-20
2.074121322e-20
5.54031911e-20
2.328496644e-20
9.385690015e-22
4.162579689e-21
2.022375819e-20
2.465882528e-20
7.043469303e-20
1.20471714e-19
1.429116832e-20
4.364684063e-20
3.475323527e-21
2.159974298e-20
3.823905625e-21
9.417048106e-21
1.053753235e-19
1.04629194e-21
9.536845138e-21
3.586911602e-21
1.837110461e-20
1.888207736e-20
1.654743086e-21
5.264811386e-20
2.144361018e-20
9.026531284e-21
5.631526801e-21
2.724059185e-20
6.265543384e-21
5.577260293e-21
5.652255206e-20
2.709781889e-21
1.222395628e-19
5.627982056e-20
1.200291064e-20
5.153287959e-20
7.565937785e-21
4.286993225e-20
4.034443269e-20
1.70167234e-20
8.180153341e-21
1.852444182e-19
7.915046868e-20
6.217329671e-20
1.280992251e-21
3.78896547e-20
4.642507036e-20
4.0718723e-20
3.755419793e-20
3.294208834e-20
5.400356042e-20
3.576857797e-21
3.250687057e-20
2.242069359e-20
2.80270906e-20
3.430698074e-20
1.004652481e-20
1.473045774e-20
3.358446781e-20
7.920319877e-21
2.132450976e-20
2.741932099e-20
8.960737188e-20
2.301110164e-20
1.402995947e-19
5.453848687e-21
6.169395378e-20
4.432914373e-20
3.485900462e-20
3.127951132e-20
1.256225015e-19
1.5989329e-20
6.857863269e-21
1.141756395e-20
5.213621692e-21
6.856790324e-20
1.787724987e-20
8.746839721e-23
7.282860834e-20
4.993085682e-22
7.958386771e-21
1.234864676e-20
9.02258297e-21
3.507937741e-21
6.589535414e-20
2.861504361e-20
1.536911023e-20
7.442391611e-20
2.064356991e-20
1.653162867e-20
1.067035367e-20
4.156062534e-20
9.565051348e-22
1.13178926e-19
7.495143844e-21
7.395229251e-20
1.639766636e-20
6.715468781e-20
2.500471322e-20
4.605629883e-20
6.476465084e-20
1.718587305e-20
4.24050356e-21
2.634934248e-20
3.492310777e-21
3.267244714e-20
6.138055115e-20
6.745537733e-20
2.263005442e-20
1.405287468e-20
4.845812303e-20
2.080517832e-20
6.643978856e-20
5.489754237e-20
1.07868161e-20
1.539483997e-20
5.049079938e-20
2.650033231e-20
1.563450572e-20
5.487008971e-20
1.985480331e-20
1.735762752e-20
3.820792832e-20
3.359558937e-20
1.192154846e-19
1.802767475e-20
2.949652391e-20
1.18146343e-19
1.318299453e-19
1.447982746e-20
6.676121323e-21
7.664537719e-22
6.601921768e-20
7.378661688e-20
3.062981014e-21
5.584495689e-20
1.038509921e-20
1.259950222e-19
9.599387047e-20
5.05762764e-20
3.794665141e-20
1.629377831e-19
4.23792116e-20
2.291792996e-20
5.384312964e-21
5.02269247e-20
5.935794298e-20
3.78868129e-20
1.883673865e-20
2.651740423e-20
1.869052648e-19
5.312354262e-21
8.220193147e-20
5.364593944e-20
1.559215721e-20
6.0332177e-20
3.124277569e-21
4.182720676e-21
1.211110278e-19
6.023347577e-21
4.89015892e-20
5.80237344e-20
4.814573465e-20
2.061262669e-20
4.0556377e-20
3.294235243e-20
1.06460696e-20
1.635432732e-20
8.178541667e-20
1.195796811e-20
3.670482498e-20
4.773472771e-20
2.81799608e-21
3.048594872e-20
1.083734092e-20
9.223899793e-20
3.578588277e-20
1.359652522e-20
7.75933118e-21
6.779084418e-22
8.61714264e-20
4.221813604e-20
6.557047224e-21
3.329402894e-20
1.826294404e-20
4.154148279e-21
6.619503083e-20
4.077701233e-20
1.16170066e-19
2.615011704e-20
4.348831166e-21
8.775109217e-21
6.66312475e-20
1.392950334e-21
7.903137246e-20
9.033828194e-20
5.454480401e-20
4.130647746e-21
1.136500531e-20
3.44073342e-20
2.088075995e-20
5.015455236e-20
4.450891195e-20
3.673156415e-21
3.370053112e-20
5.268146669e-20
2.895874538e-20
5.630763895e-20
9.76731287e-21
2.734108923e-20
2.161798346e-20
1.241880925e-21
3.48026811e-21
9.804024597e-21
1.007931151e-20
3.245834509e-22
3.57464587e-20
2.230251179e-20
7.853066923e-21
3.922383418e-20
2.737610259e-20
7.023561216e-20
8.671379762e-21
8.530088588e-21
5.870257499e-20
2.25489193e-21
1.581441025e-19
8.38371424e-22
1.852962584e-21
1.162076021e-20
3.581810531e-20
2.603103602e-20
1.421819741e-20
4.77713932e-20
2.606892373e-20
3.866018454e-20
2.001755765e-20
8.300398138e-21
1.564675638e-20
5.649957815e-20
9.196454318e-20
7.171784975e-21
8.08487225e-20
6.617079896e-21
1.636484456e-19
4.092422294e-20
6.111271344e-20
4.984830705e-20
4.648745811e-20
4.195335186e-20
6.147615156e-20
8.602265291e-20
2.779537733e-20
2.122874201e-21
1.520285602e-20
7.914750449e-20
6.694599333e-20
9.361505114e-21
4.475629914e-20
3.496302396e-20
4.067602208e-20
1.493888132e-19
4.029421534e-20
1.899803832e-20
3.786720203e-21
5.791685673e-20
1.257617884e-20
1.537977596e-20
1.351190128e-19
9.805360082e-21
8.520561542e-21
6.334233735e-20
1.149512127e-19
6.829538084e-20
8.530572345e-20
3.065070469e-20
1.258212584e-19
1.400043437e-20
1.834161391e-20
7.850333367e-20
1.269543582e-20
1.799091767e-20
1.789707961e-20
9.878540805e-21
5.149853787e-20
2.852390353e-20
6.466368513e-21
1.019099824e-19
7.580594335e-22
1.370984456e-20
8.736621112e-20
6.502553798e-20
9.047583672e-21
3.958136845e-20
1.690874565e-20
1.483504867e-20
3.073377889e-20
1.276815474e-19
5.724581693e-20
1.10793999e-19
6.211215586e-20
1.366865154e-20
2.356192354e-22
3.85763901e-20
5.864667315e-21
2.270244656e-20
2.065105937e-20
4.76397194e-20
5.593143633e-21
9.604563816e-20
2.300070027e-20
2.402409349e-20
7.292511069e-20
6.183000752e-21
8.864058406e-21
1.103161732e-19
7.277830066e-20
2.402174359e-20
8.623226441e-20
9.389595542e-20
5.104634674e-21
2.917568867e-20
7.398657965e-20
6.989173597e-20
6.754632361e-20
6.458941331e-20
4.717529779e-20
7.050393637e-20
3.152942116e-20
3.414267908e-20
2.079425739e-20
4.077574526e-20
6.391198846e-20
2.665878529e-20
7.370016398e-20
8.15477023e-20
6.132170797e-20
1.608627112e-19
2.923962821e-20
6.976818694e-20
2.960454691e-20
1.594074193e-21
4.065862942e-20
3.686256019e-20
2.159133991e-20
1.151094221e-19
1.355349784e-20
1.5515808e-20
2.898630419e-20
2.557555057e-20
5.204576907e-20
7.658257556e-22
1.2494448e-19
9.278860442e-20
2.73532596e-20
2.100613962e-20
2.632645174e-20
2.294525654e-20
3.911323023e-21
8.933164422e-20
3.784034382e-20
3.179918102e-20
2.100121532e-20
2.341169736e-20
1.223922418e-20
6.395647843e-20
3.085257855e-21
4.569597668e-21
4.135697515e-20
8.263305327e-21
1.072343937e-19
3.670532538e-20
7.220391877e-20
1.225074117e-20
2.462005301e-20
6.369874147e-21
3.309303158e-20
8.487034313e-20
6.009746094e-21
2.772824417e-20
9.791487659e-21
1.88172844e-20
1.585063397e-20
3.427334715e-20
3.808065717e-20
3.765398989e-21
1.405515577e-20
2.773112454e-20
7.01583579e-20
3.153131377e-20
6.597096512e-20
7.021678675e-21
2.861327047e-20
1.047900442e-19
1.746196844e-20
1.102030365e-20
1.00863755e-19
4.913305108e-20
3.279749732e-20
3.943460653e-20
2.706269109e-20
5.265403557e-20
6.213224018e-20
1.622367634e-20
1.291061667e-19
8.673269237e-20
2.457165549e-20
1.898891071e-19
2.09322024e-21
4.611691823e-20
1.112841132e-19
1.662102642e-20
7.774946979e-21
2.016772188e-20
5.640324967e-20
9.869115057e-20
5.079446395e-20
7.88978913e-22
4.739790265e-21
4.928689292e-20
3.126715597e-20
2.41724297e-20
3.051703246e-20
6.188219897e-20
4.865484851e-20
6.070420571e-21
1.407943883e-20
7.526188838e-20
1.456445775e-20
9.305838444e-21
2.886025422e-20
1.695894038e-20
5.650965205e-21
3.688566516e-20
2.573198449e-20
1.447061049e-20
3.028765404e-20
4.362779074e-20
1.588960123e-20
1.785610751e-19
2.840042826e-20
1.700682582e-20
2.450185884e-20
1.41991208e-20
2.125585312e-20
2.173846101e-20
1.014222767e-19
3.285060646e-20
1.73426086e-22
1.120414006e-20
9.092377219e-21
2.382762605e-20
1.37989148e-20
1.162896125e-19
1.646070918e-21
6.74849962e-21
1.024106636e-20
8.316274191e-20
3.762455143e-20
2.458570219e-20
2.40723332e-20
5.946818539e-21
1.071327322e-20
9.248215867e-21
1.701209722e-20
2.578034168e-21
6.752791364e-21
1.235299127e-20
2.811131176e-20
2.647894314e-20
1.778308844e-20
7.957931637e-20
6.74580985e-20
2.571238184e-20
1.882641269e-20
1.234370004e-21
3.890017457e-20
3.297681494e-20
2.040091695e-20
2.418337258e-20
2.54974957e-20
1.701533353e-20
3.433012546e-21
1.130972465e-19
1.379793795e-20
2.759081125e-20
8.97112259e-20
2.835657607e-20
4.244371318e-20
4.146237997e-20
2.995085923e-20
1.188565644e-20
6.75412331e-20
7.4186127e-21
1.512688805e-20
2.901342095e-20
1.579253094e-20
7.231843673e-21
6.601946763e-21
2.015021997e-20
1.479996594e-20
1.683713011e-20
5.288795695e-20
1.509023067e-20
9.411624676e-20
8.439271807e-20
1.351746142e-20
5.535979577e-21
2.710544472e-20
1.534483601e-19
6.17006626e-20
7.054777236e-20
4.563238851e-20
2.01800487e-20
3.068437921e-20
6.196795692e-20
4.705772506e-20
1.512905143e-20
3.439881698e-20
1.29115991e-20
7.099393471e-20
5.172570274e-20
6.339972197e-22
8.99927488e-21
1.980600595e-19
2.627541076e-20
2.512158664e-21
6.349887929e-21
1.785053081e-20
3.013404864e-20
4.767120313e-20
3.939040519e-20
5.548395754e-20
9.437232237e-20
5.251916906e-20
1.329870464e-20
2.741882106e-20
2.999396132e-20
1.287754104e-19
1.45463888e-20
9.210529578e-20
4.457578514e-20
2.005376578e-20
9.238097528e-22
3.414059995e-20
7.829359216e-21
6.319166392e-20
9.085730739e-20
1.767344801e-20
1.618954167e-19
5.325604798e-20
3.617017652e-20
3.490877766e-20
4.887549928e-21
9.255636981e-21
3.931634789e-20
5.349411124e-22
1.163215166e-19
1.001238428e-20
5.130371407e-20
3.489919196e-20
1.909192558e-20
2.326293801e-20
4.11581113e-20
1.727569968e-20
2.795369027e-20
4.906091305e-20
1.244356211e-20
6.706473139e-20
1.898006627e-21
3.997790201e-20
4.940053536e-20
6.700910229e-20
1.498813612e-20
7.18137247e-20
3.955843731e-20
5.630070821e-20
1.379258069e-21
2.387349775e-20
5.650981195e-20
2.135223334e-20
4.887661179e-21
1.139237131e-19
1.865272752e-20
8.308244206e-20
4.787413022e-20
1.0628775e-19
3.086517061e-20
4.171328748e-20
4.16718538e-20
5.153696273e-20
1.196943233e-19
7.379495392e-20
8.349435078e-22
1.025012089e-19
5.221934107e-20
2.489830873e-20
7.913656362e-20
3.760885719e-20
2.766714587e-20
1.012006382e-20
8.242951634e-22
3.26735843e-20
7.812041506e-20
9.754400111e-21
5.61009858e-20
1.094384702e-19
4.844975062e-20
5.687559254e-20
1.943395893e-21
4.287706649e-20
6.948068806e-21
1.640444716e-20
8.374055418e-20
6.980758475e-20
4.508020878e-20
1.501345711e-20
4.203036398e-20
3.392660194e-20
4.674369255e-21
5.425901244e-20
2.775459889e-20
1.012294589e-21
1.60873365e-20
1.016259396e-19
4.084683663e-21
2.133932411e-20
3.345508269e-20
3.351584681e-20
6.767450667e-20
1.374272579e-20
1.285483838e-19
6.264555596e-21
4.917172958e-21
3.486740997e-20
1.868487467e-21
6.33943828e-20
2.90267144e-20
3.667563915e-20
5.020142149e-20
5.985655863e-20
1.421189115e-20
7.383733942e-20
6.203502313e-20
2.572748312e-20
5.635940557e-20
6.719589508e-20
1.803399953e-20
1.728451626e-19
8.015175588e-20
2.77952603e-21
7.429880305e-20
1.118432035e-20
7.031268603e-20
2.172615807e-20
5.287762856e-20
1.136873333e-21
7.259754235e-20
1.927637191e-20
1.486547761e-20
1.442911699e-19
2.069014596e-21
7.089177257e-21
2.414743401e-20
1.465114747e-20
2.528902269e-20
8.685662844e-20
1.106264939e-20
1.949395676e-23
1.438254366e-20
1.031982849e-21
1.506527947e-20
1.67637455e-20
1.023126882e-19
1.005708047e-19
2.602985461e-20
2.136212546e-20
1.689276227e-20
3.756118804e-21
7.769767672e-20
9.989755657e-20
5.451316354e-20
2.313313118e-20
3.818953809e-20
2.071777594e-20
3.837397882e-20
9.435888438e-21
3.789065888e-20
1.984811826e-21
3.420229517e-20
3.160616611e-20
2.015999481e-20
2.62477626e-20
3.010896386e-20
9.82896386e-20
1.486440668e-19
2.103825692e-21
5.960710037e-20
8.695954374e-21
1.793733408e-20
1.408031893e-20
4.027150108e-22
1.336110711e-20
5.472442476e-20
3.273334781e-20
1.313133598e-20
1.502305117e-20
6.651551647e-21
4.587569333e-21
7.922035297e-20
2.59641894e-20
1.186808793e-20
1.230743402e-20
6.626278927e-20
2.262110493e-20
5.550488024e-20
5.929192274e-20
7.089108554e-20
7.102781881e-20
8.02936804e-21
1.025819619e-20
1.139836668e-21
1.055036163e-19
7.895086922e-20
7.00283749e-20
3.346322011e-20
1.903873765e-20
2.080322783e-20
3.363751927e-20
9.817196928e-21
1.120115795e-20
9.378189492e-21
5.798177202e-21
2.800817778e-21
6.881228483e-21
1.528268041e-20
5.769947123e-21
8.882376523e-20
1.462897151e-19
1.818981351e-21
3.157478992e-20
1.146721129e-20
1.4870051e-20
2.728904261e-20
6.290623912e-20
2.316494552e-20
7.086723735e-20
1.052772369e-20
1.042770748e-19
2.631216482e-20
7.820018363e-20
9.864621645e-20
6.768873645e-20
3.018879183e-20
1.268852678e-20
9.858106759e-21
9.179351026e-21
3.198505956e-20
1.208282775e-19
7.994216733e-21
3.21296173e-20
7.452875406e-22
4.953302522e-20
7.735741153e-21
4.332953814e-20
1.817730045e-20
1.671509417e-20
8.743595972e-20
6.54260646e-21
5.580657052e-20
2.386442811e-20
9.372249002e-21
4.941415455e-20
9.039291781e-21
8.175823711e-21
9.827809324e-20
2.485852103e-20
8.18120493e-20
4.870844943e-20
2.187664755e-19
4.921830958e-20
4.995869818e-20
1.216529469e-19
1.306126919e-20
1.817634917e-20
3.273347966e-20
7.913868478e-20
5.20470861e-20
1.509260753e-20
2.343321e-20
1.436500411e-20
1.689835804e-20
3.670173772e-20
2.549038517e-20
2.25713795e-20
3.967169194e-20
2.115135846e-20
5.083728867e-21
9.902703182e-20
1.432670183e-20
4.337079813e-20
1.13600125e-20
2.994155766e-20
1.835616022e-19
4.547891666e-20
2.520467302e-21
9.166191914e-20
2.175757738e-20
7.221152278e-20
1.802081127e-20
1.24983693e-21
1.632790123e-19
5.30372024e-20
8.061982224e-21
1.204861671e-19
1.466601545e-20
9.977287953e-21
7.487796329e-20
3.141571914e-20
4.8365612e-20
1.321369096e-21
3.180054421e-20
9.632829823e-20
2.427752644e-20
1.28731898e-19
1.015992224e-20
5.416984836e-21
1.605412735e-20
3.315860875e-20
2.218369848e-20
7.942678068e-20
3.97006563e-20
3.598570649e-21
2.824835161e-20
1.818711715e-20
5.431082672e-20
1.546901534e-20
1.30076706e-20
3.943044623e-21
8.691147185e-20
2.867296385e-20
3.686660373e-20
3.2863837e-20
4.643903988e-20
1.191701322e-20
1.750949974e-20
2.077269239e-20
2.843114676e-20
7.886995296e-20
6.208763965e-21
3.833496672e-20
4.783496365e-20
1.381621329e-21
4.99240151e-24
2.485652574e-20
8.087390424e-20
1.802101762e-20
5.145376039e-20
4.135883558e-20
3.851529367e-21
3.01366208e-20
3.343080123e-20
6.138025784e-20
9.367367561e-20
8.801879394e-20
2.897657396e-20
8.096144816e-21
1.593846429e-20
3.627749051e-20
5.254904823e-20
6.905736923e-20
1.593127619e-22
5.568366984e-20
1.611569065e-20
1.514934005e-19
8.920188802e-20
8.925233527e-21
3.724242887e-20
1.827265531e-20
4.899763724e-20
1.283555809e-19
1.988440475e-20
3.493345466e-20
1.438419423e-20
2.658976514e-20
2.179495876e-20
1.252568037e-20
7.23876777e-21
4.896938019e-20
7.758040143e-21
3.542431813e-20
1.327621859e-20
1.874341018e-20
6.955449317e-20
1.078176112e-21
3.604408904e-20
1.271612673e-20
6.312824544e-20
1.922391192e-20
8.242158164e-20
6.353234892e-20
1.579477323e-19
7.606796366e-20
5.103403416e-20
3.736120633e-21
1.180404094e-21
1.361090659e-19
2.219792589e-20
3.285301394e-20
4.098782964e-21
3.231679481e-20
2.632980414e-21
4.511326484e-20
1.135557157e-20
2.291637913e-20
2.93970559e-20
1.595217773e-20
3.218948687e-20
2.029742955e-20
5.500706305e-20
1.452251037e-19
7.620410673e-20
1.57548197e-19
1.596425752e-20
4.859346815e-20
4.663068777e-20
9.577389801e-21
3.459925045e-20
3.809772369e-20
1.003599193e-20
4.032945227e-20
6.83155501e-20
3.820907726e-20
5.441746821e-21
1.153853883e-19
4.030354156e-20
5.253690136e-20
5.198642369e-20
1.371037506e-19
2.731543863e-20
1.48366391e-20
2.121776381e-20
8.783605848e-21
8.321032841e-20
4.407578822e-20
4.897450209e-21
6.00129448e-20
1.012636934e-20
6.134532791e-21
5.38525502e-20
2.605358996e-21
2.573726581e-20
4.929183928e-21
6.759958527e-21
2.189260253e-20
6.733112449e-20
4.755373014e-20
8.024952107e-20
6.196840589e-21
8.175527727e-21
1.325373344e-20
2.622916968e-20
7.525718776e-20
2.58411054e-20
2.870969631e-20
1.83786863e-19
5.531604338e-20
8.879370885e-21
4.747084182e-20
4.790757011e-20
2.427647261e-20
1.625336217e-21
7.877322277e-21
9.74078006e-20
4.651318588e-20
5.436693265e-20
1.20416113e-20
5.749130968e-20
9.909242941e-20
6.495665609e-21
2.119004721e-20
6.593434469e-21
6.378996648e-20
2.056840193e-20
2.517261267e-20
1.730986571e-20
3.366341192e-21
8.247128723e-20
2.405452604e-20
5.097255579e-20
3.072165879e-20
2.96924572e-20
5.665454958e-20
8.686787799e-21
1.05080033e-20
4.025562868e-20
1.502898835e-20
1.788087002e-20
1.427247203e-19
6.171392075e-20
3.575507857e-20
1.089465928e-19
6.820651739e-20
1.020888292e-21
2.885033102e-20
2.909557586e-20
5.071162352e-20
6.721021297e-20
3.910693114e-20
6.106410252e-20
2.888782766e-20
1.52588262e-20
1.923309021e-20
6.453528689e-21
5.472327359e-20
4.003524363e-20
5.358250068e-20
1.132361748e-20
2.005947768e-19
2.226702331e-20
1.66120474e-19
2.703022276e-20
1.071460539e-20
2.465720861e-20
1.394183668e-19
2.195246127e-20
4.396011921e-21
7.478779812e-21
3.783865547e-21
9.370260796e-21
9.086471888e-22
4.6652568e-20
3.746735548e-20
6.646245676e-20
3.369139343e-20
7.716300109e-20
3.515987949e-20
8.621780706e-20
9.331225639e-21
1.587268908e-20
2.129683598e-20
6.513832611e-21
3.617435674e-22
3.583257199e-20
1.209253993e-20
9.051896304e-20
8.040750746e-20
7.948574509e-21
2.306244293e-20
5.672243152e-20
1.397119491e-19
9.130564197e-20
9.38074535e-20
4.72558862e-20
1.88943984e-20
4.246736645e-20
3.42553647e-21
5.979178558e-21
2.41134071e-19
2.484623434e-20
2.930336742e-20
4.56226057e-20
1.917587109e-20
2.609662784e-20
6.86926064e-21
7.486700408e-21
1.029879277e-20
2.283053369e-20
1.201117545e-22
5.320976919e-20
1.580886167e-20
8.001831699e-20
1.019048889e-20
9.825456822e-21
2.686540381e-20
5.384201279e-20
1.368601765e-21
1.051027554e-19
3.248745478e-21
9.337311462e-20
2.069065654e-20
1.066318221e-19
5.919056544e-21
1.142142872e-20
3.255371436e-20
5.520318024e-20
3.748088781e-20
2.170140703e-20
5.983416137e-21
6.462880487e-21
4.398700706e-20
9.984770769e-21
6.839977591e-20
1.721660382e-20
4.689640961e-21
4.758926794e-20
1.490006539e-20
1.688575146e-19
1.08006813e-21
8.750413979e-21
4.970828449e-20
9.50968536e-21
1.02625092e-19
4.050497476e-20
2.471188932e-21
9.056975161e-21
1.229473257e-20
3.045850163e-20
1.996652439e-20
4.928638977e-22
2.091209202e-21
2.419184537e-20
3.436832014e-20
6.591533426e-20
6.953034428e-20
1.390251832e-21
2.624259248e-20
3.196921899e-20
2.856156733e-20
4.112969112e-20
5.874418548e-20
2.878030362e-20
1.146853198e-19
8.979276645e-20
2.947642133e-20
2.255996355e-20
1.268324909e-21
3.520591096e-20
1.599576201e-20
2.13868462e-20
1.38092908e-20
2.805709544e-20
5.73628235e-20
1.012273981e-20
6.003509538e-20
4.259310541e-20
1.453926847e-20
1.03965868e-19
8.112430473e-20
2.514391103e-20
2.303536392e-20
6.660059038e-20
1.513846482e-19
8.33636607e-20
1.960363461e-20
6.462930371e-21
6.057735601e-21
1.051234174e-19
1.243604562e-20
5.060619757e-20
3.07438188e-20
7.555479788e-21
1.580363102e-20
3.346312309e-20
6.227797285e-20
2.044919911e-20
8.549054398e-20
1.479435905e-19
2.315646746e-20
1.180285752e-19
4.296807061e-20
2.551997396e-20
2.282706668e-20
1.557055973e-20
2.102734438e-20
4.505092006e-20
8.518654018e-21
3.220688827e-20
7.566007465e-20
2.587907032e-20
9.404610255e-20
2.774883616e-20
2.581468209e-20
5.329939295e-20
5.250429491e-21
5.876730603e-21
2.83562505e-20
4.344402777e-21
5.328435565e-20
3.332154693e-20
1.66952782e-19
3.282235684e-20
1.289018178e-19
2.616065163e-19
2.941035029e-20
1.63571159e-20
1.703396867e-20
3.944379276e-22
4.034797524e-20
2.49632716e-20
6.302036549e-21
1.535379323e-20
5.245961278e-20
3.199576526e-20
6.202156307e-20
2.531013925e-20
5.482237603e-20
6.547801901e-20
5.735035591e-20
5.187316464e-21
8.461759201e-21
9.355858928e-20
2.408497999e-20
2.191605504e-20
3.545962751e-21
1.103365709e-19
2.229999352e-20
6.43708004e-20
7.705145056e-20
1.306261993e-20
1.110937049e-21
1.727995774e-20
3.203254314e-20
4.7905553e-20
9.689305398e-21
1.627680238e-20
2.922450263e-20
7.4509122e-20
1.300334727e-20
2.157849116e-21
7.125159239e-20
6.400806085e-21
1.030381501e-19
3.173072019e-20
3.987317332e-20
3.674367218e-21
4.629705721e-20
1.331345061e-21
3.686197148e-20
8.018132221e-20
9.77239743e-21
4.465822105e-20
8.338873186e-20
1.68668675e-22
1.414906373e-20
2.966766526e-20
3.032396347e-20
2.050239452e-20
6.161898615e-20
1.516929133e-20
9.488268815e-21
1.266151334e-19
2.726123863e-20
2.066531372e-20
4.905262341e-20
1.584786942e-20
1.286905202e-20
4.833965667e-21
1.178025858e-20
4.956337249e-21
3.281212578e-20
4.041381585e-20
3.687130429e-20
3.597808033e-20
4.828494283e-21
3.053589134e-20
1.052776812e-20
5.53792938e-22
1.082013441e-21
6.226663293e-21
6.997796382e-21
8.765418932e-20
8.063866235e-20
1.284402167e-20
1.393536502e-20
1.524098689e-20
3.403000043e-20
3.117698055e-20
3.633050956e-20
3.246660396e-20
4.9363632e-20
8.93721516e-21
1.436298976e-19
3.280618573e-21
3.588754889e-20
3.942747846e-20
1.097258405e-20
1.729551094e-20
1.7690095e-20
9.300472071e-20
2.130386803e-20
4.209621505e-20
1.07797019e-21
1.495460949e-20
1.352000043e-20
4.108020027e-21
5.147816111e-20
5.005760073e-21
3.667492261e-21
6.839060352e-21
6.204018334e-20
4.100611724e-20
1.40940428e-21
1.00921263e-19
1.947576875e-20
6.427613469e-21
3.304102823e-20
3.075745508e-20
7.790288407e-20
1.274167964e-20
5.231663592e-20
1.820687321e-20
3.057883649e-20
5.793468823e-21
9.819439676e-20
1.623132823e-20
2.176790938e-20
5.19810853e-20
2.470859321e-20
1.26246865e-20
9.156262446e-20
6.704873442e-20
6.84874351e-20
6.681781351e-20
6.844462012e-22
4.682832882e-21
7.707241639e-20
3.633389805e-20
2.592874381e-20
7.188704665e-20
8.480776762e-20
6.389780999e-20
2.314607335e-21
5.068938551e-20
1.184453168e-19
6.955591485e-20
5.773252046e-20
4.024847596e-20
2.214178205e-21
4.599490287e-20
1.357950231e-19
2.392759554e-20
2.631057192e-20
6.428199659e-20
7.534913163e-20
5.021858154e-21
8.112477521e-20
2.022297903e-19
3.851128765e-20
1.007149104e-20
5.207328446e-20
4.010744256e-21
4.99421314e-20
1.691623433e-20
4.13707665e-20
7.411995525e-20
6.467881507e-21
3.323183791e-20
1.12831389e-19
1.27674017e-20
6.949064955e-21
1.10133078e-20
2.55765892e-20
5.160032634e-21
1.115093042e-20
1.710434874e-21
9.270381263e-20
2.382715979e-20
2.633570631e-20
4.273388219e-20
4.59541506e-20
4.245460319e-20
1.404042963e-20
9.213878858e-23
5.938058139e-20
6.359024608e-21
4.086340314e-20
6.005459263e-22
3.726360879e-21
1.793882403e-20
6.130498612e-21
3.490366077e-21
4.660612532e-22
2.261543947e-20
2.221608111e-20
1.46789129e-20
1.526037869e-20
2.153318609e-20
4.631708612e-20
1.732023325e-20
5.391252943e-20
7.533184756e-20
4.478712868e-20
1.062772735e-19
1.592792185e-21
5.420545521e-20
6.372804603e-21
1.557851671e-20
8.464984935e-21
1.098653273e-19
5.988440144e-20
7.466417075e-20
3.537656372e-20
5.113213904e-20
3.604004732e-21
1.482260197e-20
1.047716033e-20
1.40139637e-19
4.651542937e-22
4.894378286e-20
1.338794088e-20
1.136021695e-19
1.697287118e-19
1.933588865e-20
6.411501057e-21
1.889887335e-20
2.770324908e-20
8.473503463e-21
9.791595004e-20
1.121771302e-21
6.367517212e-20
8.209823021e-21
8.267724932e-20
1.674346493e-20
1.277026289e-20
7.381796092e-20
2.847903884e-20
4.523507228e-20
3.751763459e-20
3.473556246e-20
1.042414397e-19
3.577785772e-20
5.588633825e-21
3.356382352e-20
8.134751602e-22
8.283630435e-21
7.124632768e-20
5.371214022e-21
4.299824392e-20
2.591150279e-20
3.99347751e-20
2.200189511e-20
9.830643517e-21
1.397855396e-20
3.877990212e-20
2.188204685e-21
2.244702342e-20
6.804382882e-21
1.561711399e-20
7.778250593e-20
2.032692064e-20
1.512855609e-20
5.058290384e-20
1.014199128e-19
1.856010925e-20
4.794228416e-20
3.06820834e-20
1.613038302e-20
1.177401118e-20
2.746459421e-20
4.364882995e-20
8.507518095e-20
7.500007742e-20
5.395022136e-21
2.713756331e-21
5.971017978e-20
6.813029363e-20
1.605743317e-20
2.217185236e-20
6.850397009e-20
8.797049769e-20
1.925948149e-20
6.389212826e-20
3.559392594e-20
1.217001213e-19
1.723789721e-20
6.093698918e-20
3.805602602e-20
2.559869783e-20
7.767307364e-21
1.030828118e-19
2.694337477e-20
7.257210531e-20
1.286367253e-19
1.773108773e-20
1.279236755e-20
2.196404193e-20
6.253446583e-20
1.503882194e-20
1.800043563e-20
3.99247707e-21
1.037765803e-20
1.246534602e-20
9.433659514e-21
8.997125975e-22
7.284228307e-20
2.390533577e-20
3.570682943e-20
5.342885689e-22
1.793364794e-20
2.318084162e-21
5.187504175e-20
7.458146868e-20
8.152430659e-21
4.795099045e-20
1.005481532e-20
4.025932991e-20
1.932984813e-19
1.143856472e-19
2.960226877e-20
1.499669785e-20
7.688557151e-21
3.184331157e-20
1.757685629e-20
5.169111745e-21
1.743206787e-21
1.770974334e-20
1.166971829e-21
1.890740463e-20
1.897360033e-20
2.43877787e-20
3.84277645e-20
5.371880561e-21
2.033120943e-20
4.462228939e-20
3.526551265e-20
1.386913267e-20
1.916093282e-20
1.056110897e-21
1.129271869e-19
6.005365305e-20
1.622254934e-20
7.084799024e-21
5.237995574e-20
3.36120082e-21
2.000821558e-20
2.602054155e-22
1.199836283e-20
5.113892472e-20
6.030848281e-20
7.108078126e-20
2.219577602e-20
3.461169481e-20
2.547604776e-20
4.89103665e-20
1.275336407e-19
1.673489709e-20
4.415131327e-20
2.688265251e-20
1.331821341e-19
6.665034649e-20
1.678075335e-20
6.217537161e-20
2.538805401e-20
2.622891839e-20
4.879686963e-21
6.020038129e-21
3.522100381e-21
3.948349083e-21
1.164852771e-20
2.447693382e-20
3.384761513e-20
2.983433197e-21
3.290719126e-20
4.899474028e-21
3.961453766e-20
1.711714664e-20
2.07610658e-20
1.649704228e-20
6.286836865e-20
1.976510294e-20
9.124692586e-20
5.795886227e-20
7.255328252e-20
8.286608417e-21
2.176849392e-20
7.18883445e-20
1.574034839e-20
6.244817484e-20
2.898795324e-20
4.572595061e-20
2.323959833e-20
4.038530644e-21
5.088873774e-21
1.922351286e-20
7.622004963e-20
1.108828457e-19
7.709397929e-20
1.82922641e-20
4.852855569e-21
2.586745337e-20
4.341863562e-20
1.321785279e-21
7.815314019e-21
3.531195289e-20
5.458011156e-20
1.497976005e-20
2.973646028e-20
2.310184037e-20
1.324598158e-20
2.774746255e-20
4.302638695e-20
1.063378163e-19
7.155733208e-20
7.282542731e-20
2.196987951e-20
6.100177383e-21
2.165089535e-20
1.166498274e-19
4.738166552e-20
1.312016392e-20
2.336809055e-20
1.301416752e-20
2.367548273e-20
2.91099742e-21
5.899085264e-20
2.934379995e-20
8.96562369e-21
2.400637245e-20
4.384720958e-20
4.147078929e-20
2.548227812e-20
2.722377821e-21
2.71107107e-20
6.206283426e-20
3.311229453e-20
5.22614537e-20
1.019467303e-20
1.968231849e-19
1.708829488e-20
5.093529179e-21
2.499916331e-20
4.441353118e-20
2.719682853e-20
1.378922768e-19
6.151337861e-20
4.721419538e-20
4.711786491e-20
6.52968456e-20
8.200525401e-20
3.482124577e-20
2.321944127e-20
4.47851569e-20
4.886999804e-21
4.404607174e-20
1.300152182e-20
1.600331184e-20
7.532792431e-21
6.396176854e-20
2.867767422e-20
6.919055049e-20
8.863732206e-21
3.631532426e-21
4.332520375e-21
8.527695996e-20
7.849292682e-21
5.075584461e-20
3.35208703e-21
1.652796999e-20
1.078551293e-19
1.324174098e-20
7.775484298e-20
1.276333006e-20
8.496722732e-21
3.065082162e-20
4.083417937e-21
1.878700885e-21
1.365362038e-20
2.885108279e-20
4.135962244e-20
5.333002742e-20
6.014852258e-21
2.534345108e-20
9.06116593e-20
1.992907863e-20
6.929099455e-20
8.082008633e-20
4.534197998e-20
1.757456944e-20
2.281191853e-20
3.279893893e-20
2.042895664e-20
3.568733893e-20
5.385802849e-20
2.994986363e-21
6.543511738e-21
4.334014735e-20
1.420455395e-21