/*--------------------------------*- C++ -*----------------------------------*\
| =========                 |                                                 |
| \\      /  F ield         | OpenFOAM: The Open Source CFD Toolbox           |
|  \\    /   O peration     | Version:  v1706                                 |
|   \\  /    A nd           | Web:      www.OpenFOAM.com                      |
|    \\/     M anipulation  |                                                 |
\*---------------------------------------------------------------------------*/
FoamFile
{
    version     2.0;
    format      ascii;
    class       labelField;
    location    "5/lagrangian/dsmc";
    object      origId;
}
// * * * * * * * * * * * * * * * * * * * * * * * * * * * * * * * * * * * * * //


47581
(
32000
44463
3481
33140
10896
13300
15350
1600
43712
27397
16896
47093
14802
44192
45297
6971
29694
19464
36726
1457
32439
10255
13810
36051
4905
37480
14685
20827
36744
27212
9131
40074
6937
4729
7965
37622
12982
22796
7979
14307
6494
28902
35732
8038
13527
1274
8439
45932
15668
32974
2714
11233
16697
26000
1976
28279
30527
14837
36525
11532
36597
18888
35061
5646
18543
39318
34218
26126
29456
21721
2420
32058
19278
39119
18475
36780
42670
25079
13244
24523
24995
19169
39043
40512
4701
44060
41693
20649
28999
7890
44688
22880
3956
16070
37976
19682
23151
1637
21545
45651
17368
29413
2503
25579
32118
31056
43571
10158
47012
34522
11994
36898
16955
28302
14201
47063
35605
30746
28909
46778
34272
34894
39675
44435
23624
39654
44679
18769
41337
46268
33642
4259
13085
43704
26781
15394
36323
11325
41769
8150
7345
23885
15522
18996
46423
11810
14862
44806
11438
23634
15778
35992
9201
35164
37862
10114
16329
26729
22916
39472
46130
16895
29838
1304
19754
30038
44761
38321
40169
38199
22951
13964
41287
21427
42426
26737
16113
13624
23492
620
15536
26746
13530
34594
29504
18656
33946
24539
13915
4010
33556
12041
24775
41645
132
40375
45687
8911
37202
2669
18978
32394
17665
42902
2828
14343
39902
47474
38454
37325
30379
19040
22723
23633
10384
17735
6847
20162
46982
42836
25298
25967
13475
38134
19316
8069
30804
1614
38763
16363
37959
8125
45837
15343
34614
4524
35386
9388
19178
2771
36188
44392
30373
24144
6916
15341
14872
27957
18171
44797
32437
12526
46787
34779
32933
2935
13184
88
18994
42130
46197
31656
4550
4235
21404
24463
4215
27027
6132
37095
41045
24053
16063
36267
16986
13040
21516
6509
12377
1150
32515
2619
30481
7020
26714
20197
27784
44272
36639
6926
29321
10074
45829
405
28718
27448
25663
21610
47460
24654
45666
1058
45356
22073
10097
37757
18530
20947
26274
18159
10349
29756
20191
28456
25512
44708
33210
14927
781
45742
3799
46617
25331
37534
9446
45846
25590
1621
35803
26886
6968
2623
40192
18917
20550
17395
38552
18907
19189
39622
38074
10188
13239
42588
11628
12561
45792
14839
45060
22442
15196
932
38154
8164
20523
7714
13777
22616
46912
22399
47152
12158
4078
38696
17749
12802
27826
43767
46451
31214
9885
540
25186
8924
23567
11473
30213
6328
43843
35432
2011
27942
15216
2981
15180
21425
4137
36064
15788
12995
20226
13514
18868
16322
18114
32492
33060
4909
16857
25803
46152
42964
7724
41982
32169
13528
28654
24756
22491
21866
35484
17590
21480
30376
24089
27377
34269
20543
24989
31316
24141
6711
35913
9648
14945
34618
19386
33312
21095
23527
9559
11393
33264
39841
23950
13983
5848
44770
9864
35536
36462
18983
24940
10787
2079
23499
17869
42422
7928
21898
43617
33784
10757
14430
34288
35161
3727
7293
8458
24176
25989
10361
9118
42869
32030
16091
22851
35683
44598
32725
43874
32953
6663
6462
26717
3976
11592
20584
30530
40086
36569
25733
10987
34632
27525
35438
38551
3073
19922
13130
14121
18615
7333
31906
13249
16305
11984
44199
35335
20542
5961
35450
43769
16756
6084
42031
29946
1821
25506
5182
2736
40413
30281
4733
12461
41206
43482
20578
36797
25665
45870
7529
37928
39609
13995
12972
31918
30241
3097
11914
28976
12133
5381
45392
35766
12155
46689
14997
29100
12492
9497
43723
8372
10306
2048
15880
28969
14136
33337
522
45944
19249
6227
21949
33487
23696
39719
45736
25402
42348
9100
38041
10781
36508
40969
28984
29436
213
34891
25467
11553
4123
28752
44612
34487
28579
1299
4438
34748
46091
12083
43122
35904
42487
16021
16102
13814
19356
18588
32550
21387
23836
27881
5268
8317
8197
27476
38555
35002
7976
47153
43014
34463
43771
6982
15611
46510
23411
20352
16576
38624
7487
7276
23488
8206
5992
12934
39696
9360
17621
10347
17777
22337
1619
25237
6401
6745
3264
47092
40626
9640
29150
41710
14203
17565
31229
39212
9194
8833
34295
12655
42342
8194
26642
33219
20814
20487
11215
31753
18397
29557
43791
43114
7849
10786
11570
35763
32684
46218
3717
31750
28913
18707
19045
25207
37256
46286
32201
27343
6590
41925
9284
35985
8596
18678
44715
32482
33319
10634
42338
10007
9209
14976
9381
16404
21486
12768
12273
35086
25130
34081
87
42044
32927
30580
21821
35063
17438
8515
24370
29400
45508
36171
40902
21097
24241
39284
519
9396
5816
14311
53
31894
27132
32463
9707
34862
18338
29191
11182
3898
25822
15369
4382
38675
33973
38336
7533
2268
986
31914
15075
31133
6466
37196
41760
45586
1177
3632
16732
6522
14114
41949
25618
23582
33622
37860
713
20021
13703
30239
19630
42203
45237
7875
2396
26804
16358
317
22982
31139
6811
36197
934
4865
999
5392
14263
18037
44957
45672
3172
37953
9304
32906
35018
19493
55
40541
25071
41035
38442
10167
27712
4496
27913
4827
21864
2398
41711
20333
1210
3808
3088
27889
29139
37264
1187
512
10248
44531
12435
1464
13862
15401
41331
14747
41874
38596
40569
42816
38207
16085
7459
5632
28341
3859
24557
30245
46663
10724
42011
20070
17691
8696
24438
5079
8107
6888
45387
14540
15299
36100
32745
23259
35006
963
39887
25532
41713
15259
43594
43146
1404
10659
36699
6538
20711
17743
2518
37990
46590
43410
46843
28299
9312
43126
24190
28423
33428
28440
39011
20102
42454
21255
44852
2888
31063
14801
15017
45475
45311
32362
29180
22091
44116
22886
46524
35612
44225
14020
10439
30550
17788
7483
16861
38121
20944
34499
36511
28136
28233
32817
42965
24120
32485
9830
33665
23498
45473
9695
2095
17807
15701
721
26266
947
4672
18294
1630
10067
26092
21476
43692
27398
896
46523
11175
11071
40730
20722
29796
39113
4384
2191
1159
5310
46758
23648
37676
21272
7590
37723
40183
27762
354
7837
35837
35040
1118
36086
28218
12135
20501
45558
1986
17514
46102
12876
696
7853
45891
34928
36889
28836
27815
6769
20657
27123
18640
43616
24542
18487
4237
27170
35529
47059
17283
10257
30356
28670
12322
34108
40733
37991
34320
19151
35241
17633
46900
20762
14321
14557
20963
6115
41306
40596
40653
20086
39529
39784
4336
8185
39315
31697
26345
45969
16444
43484
22695
26504
3625
31324
13910
43964
35213
32606
47064
38731
7470
47090
19416
43364
17249
31256
41416
7317
46308
26553
18020
33871
4586
20553
5364
2029
19385
22839
13960
41398
31184
39377
25515
19900
9173
1252
35193
33150
14661
14421
7180
19507
44607
29529
16484
7835
34961
36232
30202
18935
4963
47195
16958
34880
41818
5669
14481
9169
25149
14353
13361
4813
19869
47056
35101
35404
35429
36212
38188
42772
20202
35511
8137
14845
13541
35609
41386
27770
30528
5098
42070
34663
7744
2947
31739
23310
31030
17226
8980
4994
31748
23977
16296
11528
27816
39773
2806
21473
603
8122
44958
33416
16303
39952
35900
33898
2659
46277
25413
26392
46985
22814
41891
25491
10654
39583
4983
47326
11397
41040
38847
19373
31026
18948
3988
41491
16079
34515
37261
33502
40955
39730
20393
40560
2549
14308
24927
14332
47214
25826
2575
34059
23217
36206
7349
7504
11053
31774
2533
11222
39420
43758
44335
12974
21562
1562
11611
24028
40025
17155
40872
29009
22948
47163
14646
39770
19965
601
409
9183
46805
16855
21929
23703
18538
17494
41098
14081
45416
38585
28992
3611
14131
32979
30050
25858
23586
35478
8291
32189
8086
41342
404
10458
8116
33124
11301
9870
37490
23834
3193
21155
4823
7924
18235
39213
9747
34031
757
37412
43815
43894
38355
11488
36610
24997
1120
34339
11004
44352
9028
9563
14112
22117
3406
30901
16574
11208
3352
35558
1793
11120
34109
19698
92
1985
11783
30754
41916
42962
31092
42932
34871
40126
41618
42394
4254
31611
34049
35678
7876
41002
35092
5571
29356
10322
36631
10112
3171
42284
10150
36149
11112
36843
37643
30361
31504
26132
10183
26273
18960
20253
14598
24635
33728
11437
23964
24874
18866
34682
12929
28714
37315
29936
43507
44355
24286
23435
15095
33250
29818
39187
15006
45322
7062
5908
16853
2523
31087
4977
31490
47215
33811
31681
2762
33779
2617
4981
19752
22455
16467
7850
20652
8706
43933
40812
34997
33057
30414
6595
6845
22144
21283
25112
13008
33393
45747
19338
46896
6774
21358
45895
25739
4058
3279
22047
7049
34584
8690
3312
38372
18447
7421
47443
43942
20694
19407
47418
47033
31972
12584
24353
35956
33351
45191
26851
27261
22865
25655
2241
11788
34439
40424
40347
10143
26934
47537
10950
46110
3773
17782
6839
40250
24423
26145
14820
43224
40783
7391
9397
17153
28884
33580
8393
41348
5889
20489
19864
22646
38846
15919
20231
13515
18908
9310
26597
16758
37756
40749
39973
18736
35071
23539
5718
2363
2969
12717
11874
11561
37636
9517
27156
1867
4940
11959
15935
18157
43433
7038
30231
23164
24637
19596
27970
1375
14618
23459
38449
1332
5764
30915
8316
16359
3984
28967
46263
16110
28918
39782
38209
19654
15234
9104
20707
13413
17554
44872
16078
2247
7968
7072
7623
23261
32398
19160
38668
7130
46825
22844
5890
30517
22988
47139
46908
34802
12505
14869
22215
28655
35430
34198
2450
19703
12034
10245
8722
17273
44108
10062
30408
15927
16
7686
37595
45004
24181
21859
9725
15726
9829
12593
35091
27058
11856
2704
34454
38810
41069
33885
1960
251
43560
41708
10464
38980
37989
39455
13583
44137
30716
24715
27296
33873
44420
36712
42210
42317
10489
17452
46974
1820
7281
4831
31175
18200
6008
11514
12883
10754
29748
3521
34567
39714
17778
30480
33254
14720
26337
2859
40391
45019
22084
38512
36479
33225
27812
20725
23637
38455
46568
17606
44212
37064
19620
42006
15674
27703
47379
36626
8493
26206
25723
40908
37627
14723
38733
38433
28773
36013
13030
24614
19933
5874
37790
28905
32977
16577
33614
8520
9073
35032
21980
14071
21346
3892
15930
17908
40479
23850
4284
16193
14059
45306
1693
40873
29534
21392
17019
42724
4680
12851
42626
19645
2215
46380
2275
2918
45572
21123
29814
20954
17838
18590
21372
9652
40764
24433
42864
4779
36391
44010
5907
23084
12836
45804
31352
10435
32093
24439
32395
41931
46458
40178
18587
41771
27609
3449
21169
34920
44955
3826
34377
39148
9348
21755
44328
7568
31420
42734
11828
25871
22863
16775
28244
3137
39434
46497
18468
20959
14704
19413
17853
41319
42233
46770
6846
1245
39129
12188
17813
24570
9338
1748
9621
12715
36802
22656
13233
5802
45965
26667
7150
7308
36636
22188
41291
31878
14823
20815
43050
9622
17958
41464
44705
3839
39998
18670
6537
22142
22063
9170
19816
11522
2577
3496
46298
17165
2476
46371
13646
21077
36450
39843
27370
11225
39252
10199
46142
2807
19505
45773
40814
35965
25508
31551
15464
40023
13516
22630
40080
43948
43489
45585
42501
22171
10883
13900
8561
22920
40646
20632
5025
10644
35571
6812
45983
40950
4906
17528
7844
25003
2760
16796
14220
11688
18119
36518
44403
3881
11045
28978
4417
3320
10431
22531
17167
2236
32384
1366
41619
2706
8622
45324
16553
45267
32281
29567
12606
44127
43020
175
41551
20869
15375
13243
15229
16004
96
41604
14771
13542
19466
44906
13742
4872
10915
20455
6140
33720
37155
12848
3136
22960
35180
41859
29993
20935
40322
1316
43317
24206
34290
14098
38710
26516
20066
20276
14907
16349
27183
37840
1059
22130
46701
23065
39801
28445
36187
12446
41364
20230
29835
22503
4678
12176
27493
2176
25036
10980
24832
2528
31530
10824
39367
46239
15276
8882
10526
25672
26641
9931
3666
4023
27768
18455
22450
30424
13108
22062
15931
15087
20373
40999
7894
15211
40317
16638
28624
1940
2732
3336
23981
43772
12417
37669
35311
14948
20560
1169
36122
41177
26895
33391
22915
42582
34263
45952
21746
1686
15088
35838
8175
16520
19798
29517
1035
25165
18115
25999
4694
42667
22454
30023
2854
9288
35290
19489
14404
43853
17654
37847
37813
39932
1066
29843
17237
3514
23077
7871
20650
44690
18199
17666
32828
47156
33167
10005
27995
6671
43806
44210
8709
5525
28482
19286
24908
2152
27086
21149
9021
25100
8820
12335
10672
42790
10294
30856
4985
37471
3550
26227
14355
38420
40838
36926
15533
37242
25470
44971
27005
7241
44973
29646
5039
36875
5778
41655
14278
36993
13966
21499
15308
37002
26001
10475
2904
5561
23393
35334
37012
43699
38768
25570
43033
16122
46094
38040
30419
29817
21405
35359
41358
1004
36743
42585
16201
5207
20481
18299
10564
47547
21984
16000
26428
9896
27759
25246
13858
28534
1714
8109
30324
20570
32959
33823
45210
43264
37797
45878
37564
22696
7940
8990
6249
35397
9395
45660
31371
20273
18096
19580
11167
10289
18632
18547
29062
34889
9383
44583
23584
2139
24541
37781
43072
45399
38662
37946
39342
15461
31675
26081
4299
17876
15340
25005
45800
32443
444
16753
37589
5673
22362
14781
18122
3016
32999
45086
46154
29581
29711
46698
42610
26761
41461
25123
10822
37280
23853
16181
11036
12105
27157
4206
18424
41840
33777
32506
34010
4890
15393
28597
30236
19909
41014
4128
42166
27060
4676
15477
1033
33925
20442
7461
37908
3854
760
43034
15975
26261
35228
2789
28673
11145
11223
8169
17821
21325
17599
9572
40520
31208
1371
28409
38218
29061
45284
37031
44619
5455
20730
27715
16706
42019
36487
45223
44012
32447
19988
17280
12903
24777
24442
4919
38934
6729
41981
24758
8889
24164
25208
18936
37884
21352
7955
6492
38174
42751
26238
21483
44390
7473
39138
10589
37026
26864
31506
17968
8700
17301
44759
29172
26899
13754
39614
40762
42346
47142
16220
26269
25835
2701
37694
10325
39734
21285
7862
887
32280
7773
10334
26878
26926
28748
33344
33981
636
35166
19736
46014
6602
23246
38263
9342
4220
20194
28664
32511
6349
18719
36481
3444
35613
24778
46675
23628
26439
3698
37496
35885
906
31974
7018
25382
26119
43303
21880
1741
42673
41826
24505
1133
41791
15422
21044
36650
32409
33908
39026
27189
49
5804
32505
28795
29635
9586
26676
12736
16863
34539
27134
23316
14113
19987
7235
27990
19757
41440
20609
34314
41104
35149
41149
38044
35330
28896
33714
39316
31688
35117
7766
2303
5005
18876
20868
148
7450
2800
7680
9068
32353
4179
31127
26454
3714
10734
9932
37265
18068
41192
46570
4545
20089
14830
16451
24361
47025
41523
45789
44728
41824
21268
23553
20432
31721
32368
13793
34448
20023
39630
37876
25129
23439
16715
21794
9240
29144
14369
4731
12615
35024
17409
5440
5619
163
27958
15706
8641
33797
27674
32140
9187
13059
21357
5178
348
40987
36063
37073
37981
43152
37764
47047
38601
15128
39084
43903
27046
2547
38525
31311
20719
4077
33577
10678
18762
41955
43182
9522
11898
2122
36539
1665
2915
43266
10310
6993
4627
17894
24283
37742
45107
41675
21428
43940
14289
14647
38257
42024
38356
24128
23424
37084
32699
44094
43361
9706
33328
18300
3290
29905
31503
29543
21983
32382
3851
7522
31945
23627
23698
14969
39444
4450
41226
9938
24890
8110
16584
23102
11128
30884
1390
747
16910
7926
2308
27554
16837
23206
40422
24867
15683
6066
13291
39895
42379
22044
37893
27009
15535
1522
33113
3436
44605
21235
6928
21056
25648
9461
17643
42012
16794
45005
24503
22414
11757
10509
34878
46833
13813
25787
4760
1405
32150
11318
40037
24185
37964
46558
9504
13913
29441
27114
44236
16593
2910
23380
44237
38090
3528
16157
3249
35240
41486
36992
12702
42160
47520
19343
25305
17450
3981
27245
28678
11480
29282
28941
27048
30601
23649
42862
17022
1750
46739
41134
35420
35436
37868
40599
43939
42336
21187
35593
1043
20614
18957
4643
35097
38697
7642
30154
25251
4632
25182
11458
36044
14050
46813
21284
28480
32754
20993
43451
35504
40276
12632
22809
27333
33921
40492
22685
29737
27459
23139
7962
27350
11885
21945
32407
2272
16213
32021
32863
6218
19598
3252
5813
17299
37656
37533
22153
19136
29279
40063
7711
35813
26073
29116
10081
7095
21370
23017
1056
40840
13571
39030
30089
9776
11779
32982
42895
11154
3861
10107
39405
8403
11263
25573
37013
8063
7602
5888
38956
16252
25335
3891
31735
34973
47030
4300
4544
46621
8031
26636
32882
20447
33571
34762
6785
14218
11169
5303
16922
43577
11795
47401
1490
7428
16719
43729
31333
19567
42040
20280
21628
8431
33236
23497
11525
13194
10118
10652
11491
29929
27255
28513
22018
43457
6322
37400
18829
33378
39844
41783
11117
1879
36379
37691
39872
6661
13972
500
4822
33104
35254
37842
25226
18862
13284
15497
34443
30374
36564
5490
44707
5152
3932
45579
34492
18055
21182
15904
6330
26352
33070
26525
23493
21879
17006
37310
22307
12583
45173
21922
39824
41043
39106
8440
38822
31622
45999
14149
5113
25041
22233
1798
41676
25712
9237
23575
13885
44386
39248
187
21833
12953
39671
9998
23999
21064
21593
40595
38042
8102
17851
6231
41628
47019
24924
17591
31767
42793
3679
16380
19985
21547
13005
27414
11668
28733
26166
17236
20791
21609
39018
43530
38692
33209
14554
28031
25267
44306
27989
21973
5407
44947
22266
18414
31067
31885
33952
27107
24662
33168
32183
42271
43474
7745
25323
5601
42592
32063
24374
23787
15147
7085
22701
35696
15346
34364
19298
46309
16679
13741
38891
8126
45937
46116
27439
3420
4080
30223
38440
27539
47070
12057
37136
3
34479
39108
4464
38008
21515
27682
45478
13465
25942
20615
19846
37226
16391
20045
30454
19258
26764
21127
8579
37290
15220
44579
28981
24760
12519
34583
25018
38462
2520
42101
44303
18638
12630
7942
14632
37082
36753
42889
44634
8795
32313
12919
41516
33316
36384
22125
17398
18170
34021
10253
5273
32736
38021
32067
34310
19429
31172
18379
20733
2086
43349
3425
12195
26106
40681
5994
44900
41216
17948
13054
22176
19840
3563
8105
40982
27750
39626
4794
25033
13764
14965
43943
2452
26417
38002
37696
26254
2680
4380
45366
28432
44204
17061
13018
32477
26435
38126
17790
37808
2532
5514
36260
22379
44159
6519
19050
45283
44776
326
44055
1087
30375
6267
10446
38416
40566
35535
11851
3768
17348
1440
3378
22875
37052
1103
39415
34563
23416
33246
17538
20214
46195
1047
36571
35155
2072
34664
5517
1850
34267
9822
40896
14192
4093
7804
44
43887
45869
3143
19430
47486
22385
21729
508
13074
13111
45910
22958
42319
22767
11009
19197
10049
29807
28033
4641
43760
42661
10741
26888
7524
33042
43183
3600
14848
47194
26213
45661
12412
47105
28599
18605
21720
12428
21106
22436
1593
35515
44294
26859
29157
20263
24942
45076
23606
33080
30685
25069
14575
14790
3086
3589
19483
26062
119
9122
30984
47253
32605
22166
15554
7059
47291
462
16464
19088
36899
42641
25909
26317
3652
47124
39715
47532
38805
40352
4751
18013
7937
18828
8279
26669
43388
21718
8120
3473
4444
22481
33469
4516
25334
20188
10865
14925
41062
41077
28009
5611
12955
10033
1089
6339
16263
38219
13538
11108
31322
11997
14690
20408
22750
8232
637
6077
39602
43881
4218
41819
11696
36328
12110
13075
29977
28719
36131
6999
10043
6983
18541
28446
35401
4091
46038
18831
30039
577
35025
30141
6822
2143
25929
36235
21403
8309
42266
8353
27489
1080
23565
40286
42219
29203
18387
14528
21185
24802
44169
44448
7181
45813
20514
30941
37107
21706
13114
27267
35320
22644
40291
36393
38527
14856
44231
14826
6040
39598
24122
45589
5717
29769
41677
16728
615
16765
42502
33287
18666
23516
44520
25346
8885
26621
6346
45204
33375
34753
13456
42196
30383
33370
38495
21605
21277
22157
43018
41563
488
32543
26403
36523
44756
21835
4925
17207
15157
29693
20014
34602
38602
20017
29286
32227
31356
33313
26803
40932
40679
22183
18740
9437
27349
4512
22867
8012
36242
24695
17855
28845
26620
6470
31817
11200
45544
9426
27196
35252
38524
43393
28249
10601
29765
14497
9928
5019
21600
33491
33191
9133
37591
27119
44760
44503
31403
10962
17920
31728
20828
13998
43752
12653
35116
15969
16681
9296
40495
17781
18183
4334
18709
2156
3562
4555
8471
7779
8935
9942
13728
16168
19819
42655
34874
23735
14705
43763
7584
27418
130
18782
30809
33796
23307
4085
7291
14891
46385
13637
4256
20145
19227
47380
15933
392
4636
15159
5104
40087
32159
17113
35236
11398
35192
5297
36409
38287
39497
9188
1891
22581
33244
23295
21524
18896
39570
32404
32131
46960
23273
5629
30171
13526
39717
45064
39101
32069
37805
42103
18109
40942
44243
9351
13110
36097
15597
45920
39501
28555
6614
15328
45203
3634
27111
40478
45658
1539
41083
8203
20986
24826
16769
16376
810
32575
25540
27442
306
2966
39202
42912
9680
15228
40612
205
26547
30257
14433
7306
47314
34285
10089
43116
32308
19110
44646
8428
448
43202
15099
21912
338
1018
25887
47178
40781
10995
30542
2014
19252
18212
11731
15934
681
25767
20785
28344
39144
14785
6997
37303
40936
6842
3081
6630
47342
43344
24036
5242
37986
42312
16663
11176
11917
34919
37021
10274
31901
11297
3239
1636
39999
35122
44316
16904
32952
8394
26103
29209
43147
21389
36946
38940
45016
35720
38261
25021
44380
28315
13016
3440
33374
21342
10701
2092
47180
5731
30189
16348
9205
13313
32191
6021
7480
12949
8558
6279
44383
24493
5575
25778
43809
13168
9952
4455
23515
26534
26093
42590
23463
13315
3597
22075
22505
25410
32767
5405
12832
5916
33347
1083
29312
29669
40387
3416
31704
36977
10838
38060
41089
32677
829
160
14117
32101
22860
44110
11312
28895
21394
28059
33261
258
47419
40292
40398
10814
47439
26921
22889
20067
23331
12812
43677
610
36979
1447
26232
42218
28196
34841
39087
30131
37729
27581
42229
34783
11047
5779
7251
19850
18577
19117
24034
44902
42280
8285
32732
5795
43975
17974
95
19419
45135
9280
39111
23394
29670
11298
13921
26414
42133
19755
25923
18250
3515
46651
9845
32696
17232
40067
44699
21448
4520
37912
21994
19133
4061
1008
31928
9230
27857
4548
25908
14559
34232
11888
2951
12291
19524
31401
31926
32904
31257
30758
44368
23375
34464
42841
21957
42017
42448
47378
8942
41804
9189
40647
40314
5138
2560
17802
3736
7929
44428
837
9468
8255
21667
34034
33418
14576
32771
28200
39586
32563
20030
24961
35586
7805
37727
39393
28223
28101
34382
47313
42607
14405
19093
46871
4016
31176
41855
17689
19245
44752
19746
2342
25539
26400
7503
24583
23096
26713
17628
10947
46026
45003
7553
21246
3005
36203
37700
3809
37743
36296
24002
44064
15932
13992
45940
27285
30686
4722
35451
19708
31554
44090
38962
18410
2864
40582
35501
21601
23196
33409
25925
18659
43936
28518
21150
47384
45867
20107
35281
22976
2909
6091
23118
38645
12408
24435
17177
39201
45873
32114
24205
17186
25308
21287
36654
31716
47076
40166
10071
8509
30001
33241
19867
1226
9977
3745
25818
11495
8789
43445
39827
15255
5558
44710
42477
5957
12989
8238
24888
30431
6574
38031
18916
16511
12103
6739
46922
14541
10443
6609
28853
41511
9611
28965
4917
37248
4791
3949
26296
738
40164
10599
17265
15466
19020
2105
33535
6655
42177
16016
15948
28558
46903
46653
30079
46656
39385
26526
32761
2745
27172
13431
41189
5471
7454
15808
25631
26557
36053
34070
31877
40282
23600
35212
13767
40007
41548
18842
42479
36349
8218
41026
37814
29619
22293
33880
10750
20384
39930
45128
15591
19835
13488
13981
33073
30815
21697
30992
12662
11026
30221
34094
41800
46310
29018
47193
5208
41882
1211
41142
1270
37736
24491
10450
37820
7093
13649
42306
5464
1716
42599
21451
33984
19447
33703
20929
35431
11722
15598
39984
1399
1426
7337
16727
16028
579
16950
19242
17823
24846
24260
10541
18214
18430
33101
21766
46132
35945
6722
29804
40173
18089
22246
35089
32371
30825
10878
13660
46467
9060
29540
31522
1026
23003
39888
21885
30132
6933
2025
4204
17698
25209
16980
4518
47405
6408
2870
34013
17875
45955
18446
27352
21165
37340
30824
4951
27366
29330
2445
19761
18929
5712
4826
24373
25608
13895
4752
34734
32291
26767
17031
11101
12708
35220
4272
45578
20467
17330
40959
37686
44206
8627
36444
13701
23266
31008
14852
46241
22299
29268
24781
10201
20081
20724
36333
18059
2224
39167
6239
42107
33560
40716
42302
18326
46494
9732
39275
3007
27252
45480
11055
39735
24859
45218
22329
11980
31589
40416
12671
12205
30506
18373
12029
8878
20004
11094
35932
44983
43870
22222
9958
6422
39752
26098
15467
22285
27469
32155
43326
41184
26475
17568
35328
16015
15819
38394
30447
23928
5429
4445
17353
9763
26249
3687
44277
15752
17217
12897
23984
20840
14476
44391
2876
44827
46141
22368
823
32807
24226
24410
3504
15417
43121
13632
33772
7338
32834
40263
23781
7557
9436
21282
5928
9692
36570
19920
17699
36024
31335
26445
17405
16832
42085
15709
2595
13445
2227
16645
39194
12875
42611
230
7887
25953
5190
21236
27772
10583
27540
41129
671
875
38852
6639
15391
30061
25239
9856
29171
39931
25229
1634
16976
45305
36500
16800
14984
38508
29443
24727
37103
47196
13883
34299
27257
41349
983
38779
2584
1635
2385
11967
22079
33589
1725
33040
13901
7011
12488
38391
31154
15669
40302
19658
18630
7330
20980
31960
14362
26102
46962
10250
16680
35366
30812
29591
36049
28365
20441
14572
25675
43558
19560
22286
34884
31580
20420
2786
38053
14920
28144
30142
24918
10163
10767
39659
17021
46865
10937
20811
24098
28669
24116
25806
24340
30757
21844
25364
31375
40147
14996
7611
29010
4025
6958
6647
45814
47284
28493
26815
23178
15256
37724
1937
8741
38071
42868
22405
39159
11440
20140
43925
9213
28479
10242
17657
18970
9682
3486
24973
43901
47392
30858
14123
4180
9765
29101
26925
44790
7796
43701
42353
27627
32218
9636
29910
18205
33794
14756
1825
19804
47344
22574
9933
15451
18772
8494
840
12359
46820
45923
42100
20729
27001
10413
21419
38769
43051
45336
23088
44197
1783
13323
676
32181
22234
31946
8132
3126
38537
682
33087
2640
30791
24108
14736
42192
7961
24061
1013
36176
31523
5620
33734
45189
582
30623
32577
4819
28786
38183
30547
39480
35836
23998
852
37390
16530
35094
1785
8538
35156
2251
20458
11269
22783
4810
23847
18239
17795
28716
42472
13454
11029
28361
45777
19112
9301
21055
44329
667
43632
10830
38285
42556
45809
16580
1416
13086
28459
44208
27055
4723
2962
8903
31243
26715
46292
38790
663
30188
16029
8663
35226
18460
36809
38317
6186
26485
37789
44924
45903
34709
32349
14724
35280
13812
47005
33547
12628
19712
9520
42763
7717
2755
1917
34798
23659
33107
39418
46164
17281
16256
21151
38189
8430
27429
43826
27302
24590
15296
10285
11291
30579
1511
46313
621
26682
32047
1760
12235
26353
26347
5257
15987
14546
41518
15181
21728
35940
11146
17242
45571
38613
15321
16556
31756
2939
38587
35761
14774
6301
587
20739
20945
20127
24209
10623
42733
19018
41889
37172
39345
21396
33726
4938
2034
7809
46945
20732
19223
13942
12215
32091
30197
8815
26314
23016
22870
3950
45797
25095
33449
27167
26747
12472
46285
16132
1806
26190
21711
9414
11734
14045
46583
39726
18378
16889
26027
42745
21008
41536
22328
3134
20381
45637
41219
34039
44850
37526
41967
36034
42148
37521
22780
37610
13736
27939
42370
26270
10491
19187
29434
25250
44499
16907
42830
30109
11624
18035
28602
1705
46125
43113
5616
16665
2289
16588
38078
33181
15775
17871
40845
12463
29299
1160
33001
19643
41524
5862
35102
22970
2076
29884
3004
11824
23327
24001
29410
15419
26295
33081
45985
12288
24186
23407
6670
1804
13003
19758
25716
30277
42460
46471
41433
752
1462
25996
8573
23591
34058
32682
8540
46597
37690
17473
5029
41741
17003
42128
29683
45433
7866
612
23623
19309
2171
16639
24387
11706
45402
20425
26037
20567
18897
15902
41613
15943
16406
30923
16147
29959
11123
6597
24079
2463
11875
29791
6268
40790
4367
32134
32694
39489
37786
34455
3296
46878
26495
2886
2514
3925
37587
38754
41956
18648
17767
34903
40224
33220
28848
38800
16203
8118
4860
26189
39268
5849
17105
19719
23561
37053
18223
6532
22210
38558
23414
20096
39394
39239
24058
42069
45636
21569
42020
36020
26616
23111
10377
108
4984
44542
17185
34092
5081
20760
26800
43389
43949
39519
43291
42274
12161
38745
38688
26935
20186
2166
5355
12541
34391
19935
11844
32006
14769
13212
27162
12818
14269
9717
28360
32182
23752
22753
29808
29841
23771
18958
34148
29121
32328
32639
34723
44743
21332
14709
46858
45443
23804
374
22093
7889
42157
8705
9567
42509
9150
8861
35272
40125
2210
19140
31279
17307
19441
12225
4113
10827
8808
28178
10126
11812
3592
22341
26319
42780
28088
41789
24976
42690
28366
40836
8618
3756
32940
36567
5317
41000
32871
22779
11076
29772
41884
30563
20924
43486
20879
13735
37430
39421
13049
10867
30151
29423
43847
39445
2567
20149
23587
7268
22463
25854
47329
18327
17648
39125
5487
20178
40369
17269
46054
29041
28044
38092
22129
8408
40287
12168
44595
23168
30652
19677
32616
3778
5710
27438
30625
22722
23107
21781
43757
25461
45799
20322
42498
21290
22983
8797
4448
37683
3953
4245
13809
7106
2823
35276
35355
28425
26265
41514
22161
19704
44156
27916
12473
41310
17159
22094
16183
33061
13705
1138
25046
4075
36980
28840
22815
47364
37520
22255
28567
18435
26423
36299
1697
27763
44035
13497
7913
9795
13100
27640
9974
13063
16678
30043
23448
40851
25416
24932
35347
41651
42563
29417
43112
33419
26903
24526
36623
20599
22069
16338
1243
39160
43622
3435
44498
20795
34625
42703
24648
9650
10887
19262
39795
7422
7133
33773
7250
19511
22498
34512
24825
38458
9583
7845
15742
20169
41714
17810
30616
35214
27444
8361
24663
38228
45304
6137
31189
1484
46995
46852
2213
46736
19577
3852
35304
15455
41332
42788
45160
25851
5542
28882
3012
44804
14588
32836
17304
45581
4832
22219
44577
9661
44780
41521
35211
23012
19659
33902
30252
43197
23094
22321
18483
43158
22145
45063
35499
42489
22725
42367
10215
31411
22515
15716
15344
43252
47004
2044
47561
47144
62
42083
5696
38595
17937
42629
9031
19848
19497
20766
22365
1990
13396
24962
34420
26028
36111
22987
1869
40578
38755
37203
45604
14242
38858
46935
24325
8949
32078
2307
32757
43331
42335
24788
32618
1280
6884
37558
36828
19030
26361
37168
37114
29076
27691
7859
25218
37444
35003
13152
23828
24785
46784
21560
34757
18464
44361
28098
2564
28462
3928
7030
5150
12999
37077
31995
1927
16526
45106
30077
35745
40493
32713
41723
23766
21809
30042
34322
31169
20507
29135
15289
25896
4993
7295
13176
14505
3849
9318
16538
30261
11774
17533
25203
27502
44869
15182
34980
9022
31578
560
42794
32241
21660
45591
32098
33619
17626
14316
1651
28439
3049
6450
11686
29975
25200
25029
41273
47213
18476
25311
19120
2415
35661
26354
18968
1315
27745
36681
35159
19092
28036
21662
6551
25388
7364
18567
33291
21530
43955
20323
40711
10683
27392
14544
39028
46876
10860
38806
10993
7067
35143
25266
14198
33506
42405
18973
25400
45852
25629
42358
1309
46301
11653
46470
26726
46246
3464
22264
33570
31323
5840
47131
34791
19873
33733
37213
36730
43956
46989
45343
6474
22763
468
29050
29218
11554
37926
15563
16489
28455
13035
43711
22724
22124
21049
39343
42361
4294
10029
989
41122
24482
5418
44742
18664
32838
12128
26018
17716
38943
15570
1433
47249
23092
34722
29486
19239
25158
33084
21114
34208
18919
16180
3847
18995
1824
23546
10125
27971
8461
27976
20215
47046
2358
40935
3641
45979