/*--------------------------------*- C++ -*----------------------------------*\
| =========                 |                                                 |
| \\      /  F ield         | OpenFOAM: The Open Source CFD Toolbox           |
|  \\    /   O peration     | Version:  v1706                                 |
|   \\  /    A nd           | Web:      www.OpenFOAM.com                      |
|    \\/     M anipulation  |                                                 |
\*---------------------------------------------------------------------------*/
FoamFile
{
    version     2.0;
    format      ascii;
    class       Cloud<passiveParticle>;
    location    "5/lagrangian/dsmc";
    object      positions;
}
// * * * * * * * * * * * * * * * * * * * * * * * * * * * * * * * * * * * * * //

47581
(
(0.03457750228 0.9525455788 0.005) 478
(0.02221035029 0.6250675386 0.005) 312
(0.04238008095 0.6629959221 0.005) 334
(0.02289830766 0.7466184093 0.005) 372
(0.01289381545 0.6830396953 0.005) 341
(0.04249928853 0.8858624121 0.005) 444
(0.02023457003 0.9363438597 0.005) 467
(0.03888307488 0.8243927764 0.005) 413
(0.01669497308 0.9647488472 0.005) 481
(0.04773811985 0.6032225388 0.005) 304
(0.01382534415 0.9952671252 0.005) 496
(0.01483315417 0.5109567928 0.005) 256
(0.02810036785 0.5685802824 0.005) 282
(0.02965457322 0.9390900432 0.005) 467
(0.03801032639 0.57716812 0.005) 288
(0.02398382583 0.7471022207 0.005) 372
(0.02696653733 0.8753094294 0.005) 437
(0.000868808654 0.9323406885 0.005) 465
(0.02356109898 0.8211412425 0.005) 412
(0.03688141525 0.9108013093 0.005) 458
(0.04407384764 0.5911142437 0.005) 299
(0.03011306813 0.7124809445 0.005) 358
(0.03342435479 0.5680219276 0.005) 283
(0.01519042386 0.6313059516 0.005) 316
(0.04916296644 0.9853373121 0.005) 494
(0.002615356565 0.5513355364 0.005) 275
(0.04234034262 0.8330768381 0.005) 419
(0.0123762791 0.885498414 0.005) 441
(0.001835683824 0.5967252413 0.005) 295
(0.04893055532 0.5271809112 0.005) 264
(0.02366148607 0.9232880937 0.005) 462
(0.02096397133 0.9710694694 0.005) 487
(0.002890874455 0.6887040098 0.005) 340
(0.02334288103 0.9755924824 0.005) 487
(0.01170769985 0.5184662609 0.005) 256
(0.01355852311 0.6050593158 0.005) 301
(0.0289490531 0.5141676372 0.005) 257
(0.03864225275 0.9107812308 0.005) 458
(0.03712789268 0.8614275645 0.005) 433
(0.01607877908 0.8796365807 0.005) 436
(0.01949481432 0.8316943464 0.005) 416
(0.009195978761 0.9230235717 0.005) 460
(0.04749110979 0.5393240514 0.005) 269
(0.04245888224 0.5695244988 0.005) 284
(0.03174399333 0.9329815684 0.005) 468
(0.04695209172 0.7340816007 0.005) 369
(0.02615949253 0.5707743369 0.005) 287
(0.04967579867 0.868358895 0.005) 434
(0.0341023799 0.6525639631 0.005) 328
(0.004449563118 0.7396012171 0.005) 365
(0.0352753657 0.8702800538 0.005) 438
(0.009626037183 0.6823551747 0.005) 340
(0.03134719638 0.8037595241 0.005) 403
(0.04068646669 0.7103514284 0.005) 359
(0.01574597338 0.756204152 0.005) 376
(0.01292635097 0.7469853797 0.005) 371
(0.03069840224 0.5053705262 0.005) 253
(0.0300090678 0.5236398974 0.005) 263
(0.04473974189 0.8991490608 0.005) 449
(0.03048588077 0.8017348173 0.005) 403
(0.01534856547 0.6773197748 0.005) 336
(0.03979760974 0.9053177761 0.005) 453
(0.04461584741 0.914640292 0.005) 459
(0.04040343547 0.676906027 0.005) 339
(0.04769490778 0.5253017267 0.005) 264
(0.03465617022 0.9761941554 0.005) 488
(0.04653509166 0.9437977495 0.005) 474
(0.005786340156 0.6074991886 0.005) 300
(0.03937935557 0.9970494844 0.005) 498
(0.01971426208 0.9620740611 0.005) 481
(0.01694407115 0.9297667601 0.005) 461
(0.04301693409 0.638499399 0.005) 319
(0.04989139525 0.8584563346 0.005) 429
(0.02638321749 0.7257005615 0.005) 362
(0.04521349337 0.928760457 0.005) 464
(0.04988068719 0.8468627841 0.005) 424
(0.03059051493 0.803695977 0.005) 403
(0.03102472972 0.8336548244 0.005) 418
(0.006499075267 0.9782717651 0.005) 485
(0.009286115697 0.8866787322 0.005) 440
(0.02248438295 0.5868911395 0.005) 292
(0.04548172808 0.8225932975 0.005) 414
(0.02886250302 0.7736979372 0.005) 387
(0.03156809373 0.7902065053 0.005) 398
(0.03500322606 0.610001328 0.005) 308
(0.02165818433 0.7254611866 0.005) 362
(0.008518516589 0.8480751818 0.005) 420
(0.04338727615 0.9449383285 0.005) 474
(0.01094263475 0.5278713956 0.005) 261
(0.03548770211 0.9377325397 0.005) 468
(0.01855628612 0.9950404752 0.005) 496
(0.04450710343 0.6122699589 0.005) 309
(0.004934072504 0.8595493268 0.005) 425
(0.001239391109 0.6281436271 0.005) 310
(0.01882027061 0.8840496245 0.005) 441
(0.03925990847 0.5757153802 0.005) 288
(0.01801305462 0.8946529383 0.005) 446
(0.0315986562 0.9808323601 0.005) 493
(0.03511349425 0.695494652 0.005) 348
(0.019555107 0.6146642432 0.005) 306
(0.03099587719 0.9580361135 0.005) 478
(0.02682114676 0.7721176696 0.005) 387
(0.04662381102 0.9663873797 0.005) 484
(0.04293743362 0.5755255095 0.005) 289
(0.02987865475 0.9531100591 0.005) 477
(0.006086336295 0.9516224964 0.005) 475
(0.02404017617 0.6477701164 0.005) 322
(0.02878147086 0.6923901138 0.005) 347
(0.01269688961 0.8212315761 0.005) 411
(0.02754547857 0.6379441658 0.005) 317
(0.03690777831 0.9497633448 0.005) 473
(0.01182026932 0.9086637265 0.005) 451
(0.01517402223 0.9765279272 0.005) 486
(0.03360002632 0.7909014655 0.005) 398
(0.03390456673 0.8851904428 0.005) 443
(0.005825778541 0.6769521283 0.005) 335
(0.04887590835 0.6931905924 0.005) 349
(0.04811692864 0.9493123888 0.005) 474
(0.03150825711 0.9594336615 0.005) 478
(0.006830806148 0.9141469849 0.005) 455
(0.02934383617 0.6603888866 0.005) 332
(0.02968815951 0.9483034508 0.005) 472
(0.03707499322 0.6637702113 0.005) 333
(0.004009782451 0.5852900781 0.005) 290
(0.03376698683 0.6030486333 0.005) 303
(0.02013906807 0.9785129026 0.005) 487
(0.008181722617 0.8409181925 0.005) 420
(0.04936661801 0.960097208 0.005) 484
(0.03452868652 0.9802764946 0.005) 493
(0.01852522861 0.8098086458 0.005) 401
(0.004816059427 0.665532757 0.005) 330
(0.009574138347 0.5894392188 0.005) 290
(0.03726731325 0.7890802177 0.005) 393
(0.02813668536 0.8008455548 0.005) 402
(0.01376120889 0.9655765262 0.005) 481
(0.01739937751 0.6793807145 0.005) 336
(0.007965526302 0.6561914325 0.005) 325
(0.04828194491 0.8954899083 0.005) 449
(0.04121727603 0.5701456077 0.005) 289
(0.02980597667 0.8757750635 0.005) 437
(0.007319205684 0.9111328835 0.005) 455
(0.002759788076 0.6819261073 0.005) 340
(0.01557931209 0.7467096851 0.005) 371
(0.03573279636 0.8027171847 0.005) 403
(0.02287470666 0.9917122168 0.005) 497
(0.007052343566 0.8805959503 0.005) 440
(0.02465376256 0.9718742152 0.005) 487
(0.02062570357 0.9996517508 0.005) 497
(0.03245573286 0.8172901864 0.005) 408
(0.02541962844 0.5913206463 0.005) 297
(0.008768458499 0.8453759837 0.005) 420
(0.03850580774 0.7236964526 0.005) 363
(0.04989542084 0.7228320371 0.005) 364
(0.01350164759 0.9936439515 0.005) 496
(0.01141273224 0.5844900272 0.005) 291
(0.04287700119 0.8972010271 0.005) 449
(0.01442131309 0.65752487 0.005) 326
(0.02454024578 0.9023862026 0.005) 452
(0.007976247764 0.9145046839 0.005) 455
(0.03672139229 0.5916689731 0.005) 298
(0.006426396778 0.5559994614 0.005) 275
(0.02369651473 0.9023586695 0.005) 452
(0.04382377927 0.6984030978 0.005) 349
(0.02786112578 0.6747788193 0.005) 337
(0.002960552502 0.9262343631 0.005) 460
(0.04047306241 0.5168582461 0.005) 259
(0.009963119759 0.6770807467 0.005) 335
(0.02100380541 0.5299275746 0.005) 262
(0.046780054 0.9269054369 0.005) 464
(0.021305151 0.9382452044 0.005) 467
(0.03380187948 0.8880131728 0.005) 443
(0.01448954824 0.8060117265 0.005) 401
(0.01236512948 0.8331789809 0.005) 416
(0.00556732954 0.7713117 0.005) 385
(0.02796686614 0.8198437574 0.005) 407
(0.03108868556 0.8145292311 0.005) 408
(0.0271665886 0.6204592816 0.005) 312
(0.02611745652 0.6599860439 0.005) 327
(0.04623978361 0.9252955509 0.005) 464
(0.01373216053 0.6680487701 0.005) 331
(0.02093938911 0.7379446 0.005) 367
(0.01680700791 0.9185015445 0.005) 456
(0.01334002611 0.7200795219 0.005) 361
(0.02632527328 0.650961627 0.005) 327
(0.03678374289 0.6947302951 0.005) 348
(0.02877923526 0.6194352857 0.005) 307
(0.03460977783 0.8712467634 0.005) 438
(0.02682812208 0.757418872 0.005) 377
(0.03310904022 0.9572357298 0.005) 478
(0.04725203568 0.8559026373 0.005) 429
(0.002021859261 0.9689705209 0.005) 480
(0.005465520478 0.6827427972 0.005) 340
(0.003840957171 0.6181078977 0.005) 305
(0.02556749729 0.841903407 0.005) 422
(0.04281511268 0.7222843146 0.005) 364
(0.04803741375 0.6353438565 0.005) 319
(0.00540185756 0.9895971332 0.005) 490
(0.03661216426 0.8184848332 0.005) 408
(0.0122028049 0.645467465 0.005) 321
(0.0005402890539 0.6565649113 0.005) 325
(0.02910491837 0.7440467201 0.005) 372
(0.04977381742 0.5457390354 0.005) 274
(0.0176657362 0.5212044483 0.005) 261
(0.0249296564 0.9558453007 0.005) 477
(0.0183236362 0.7035305015 0.005) 351
(0.02929215888 0.6727024991 0.005) 337
(0.04835031948 0.8208642169 0.005) 414
(0.006335373753 0.7430232348 0.005) 370
(0.03957259358 0.5998961238 0.005) 298
(0.03661915349 0.8662477793 0.005) 433
(0.009855637609 0.930996242 0.005) 465
(0.03126118617 0.7439093088 0.005) 373
(0.03278892098 0.8156372675 0.005) 408
(0.04124373374 0.9616760325 0.005) 484
(0.03700988592 0.592293995 0.005) 298
(0.04565507383 0.8752286558 0.005) 439
(8.846733941e-05 0.5709151147 0.005) 285
(0.04031528089 0.9034608158 0.005) 454
(0.0305445652 0.8639873061 0.005) 433
(0.04638239032 0.5473834 0.005) 274
(0.0250750647 0.9308195791 0.005) 467
(0.03398317688 0.6814910486 0.005) 343
(0.04320900324 0.9655918816 0.005) 484
(0.03791200561 0.7508834821 0.005) 378
(0.02760204403 0.7534060974 0.005) 377
(0.03301894728 0.7324801416 0.005) 368
(0.02644077649 0.8663842357 0.005) 432
(0.0262237731 0.926366602 0.005) 462
(0.01518469295 0.7931296045 0.005) 396
(0.02786453916 0.8863190835 0.005) 442
(0.0489181215 0.7160734891 0.005) 359
(0.03241485637 0.8953398439 0.005) 448
(0.01622262201 0.9984129994 0.005) 496
(0.006153519236 0.9628648002 0.005) 480
(0.03986656122 0.5650787532 0.005) 283
(0.04001577047 0.9798258374 0.005) 489
(0.04394139586 0.9569904449 0.005) 479
(0.022951665 0.9385914774 0.005) 467
(0.008850077704 0.9649046625 0.005) 480
(0.03889536259 0.6531145835 0.005) 328
(0.04206683092 0.7328831156 0.005) 369
(0.01348658023 0.663117737 0.005) 331
(0.01187137171 0.7425685244 0.005) 371
(0.0140703113 0.6098862496 0.005) 301
(0.0453172338 0.6702684963 0.005) 339
(0.04604233279 0.694611973 0.005) 349
(0.01872616807 0.6898046919 0.005) 341
(0.03693897451 0.8061913302 0.005) 403
(0.04051831912 0.5941517513 0.005) 299
(0.01003718184 0.9696415025 0.005) 481
(0.02118031051 0.8181359188 0.005) 407
(0.03489638764 0.6192548703 0.005) 308
(0.008727583354 0.9782617832 0.005) 485
(0.0165321129 0.8785237721 0.005) 436
(0.04452060747 0.8246791983 0.005) 414
(0.008154689102 0.692868477 0.005) 345
(0.03606619396 0.9222433767 0.005) 463
(0.0370826485 0.9995583212 0.005) 498
(0.01301627314 0.8079612139 0.005) 401
(0.04247570849 0.6213220924 0.005) 314
(0.02918057643 0.9128227309 0.005) 457
(0.02849987808 0.5757889254 0.005) 287
(0.04158254868 0.708891896 0.005) 354
(0.01024746185 0.8536765998 0.005) 426
(0.03672950553 0.5644047731 0.005) 283
(0.03601174165 0.7242562678 0.005) 363
(0.004432013237 0.839737876 0.005) 415
(0.001441371732 0.6249576023 0.005) 310
(0.01272079799 0.6341294513 0.005) 316
(0.03928937009 0.8754200675 0.005) 438
(0.007997792062 0.5476273353 0.005) 270
(0.01594628136 0.9739286978 0.005) 486
(0.007333606394 0.8701832576 0.005) 435
(0.02392925828 0.7875524091 0.005) 392
(0.04183212843 0.5971658478 0.005) 299
(0.03982443091 0.9984660471 0.005) 498
(0.02884593072 0.979201432 0.005) 487
(0.002561803579 0.7436497013 0.005) 370
(0.0007126060918 0.6707703304 0.005) 335
(7.063957386e-05 0.8035699539 0.005) 400
(0.04052548077 0.9040237167 0.005) 454
(0.01154231463 0.9180216816 0.005) 456
(0.03579541769 0.9576240917 0.005) 478
(0.03798485749 0.6523799715 0.005) 328
(0.04448513489 0.7961980761 0.005) 399
(0.0329856896 0.7801083946 0.005) 393
(0.005217261287 0.6155990087 0.005) 305
(0.007319165926 0.9756615919 0.005) 485
(0.003850032647 0.7312790625 0.005) 365
(0.04441840975 0.7715140007 0.005) 389
(0.002827335875 0.6736962684 0.005) 335
(0.02388966452 0.7822149044 0.005) 392
(0.01742015889 0.9503058067 0.005) 476
(0.03989972082 0.7183309867 0.005) 358
(0.02102408546 0.8672174515 0.005) 432
(0.03714606026 0.9248318846 0.005) 463
(0.0250588292 0.5258121362 0.005) 262
(0.01432819933 0.7811020884 0.005) 391
(0.02453064473 0.7179118482 0.005) 357
(0.01275590928 0.735049466 0.005) 366
(0.0008775351541 0.8180539971 0.005) 405
(0.002825053939 0.879016954 0.005) 435
(0.02569764666 0.9252690796 0.005) 462
(0.03663921811 0.8942022814 0.005) 448
(0.04181103523 0.9511203452 0.005) 479
(0.004536954005 0.7070954711 0.005) 350
(0.04326771035 0.6222342272 0.005) 314
(0.04839210809 0.8244930485 0.005) 414
(0.008461191012 0.5413338566 0.005) 270
(0.01833536553 0.840403237 0.005) 421
(0.01967082709 0.8279678046 0.005) 411
(0.04900804803 0.5601570832 0.005) 284
(0.003449758988 0.9683174274 0.005) 480
(0.02535774287 0.9216355602 0.005) 462
(0.03347301006 0.5921161745 0.005) 298
(0.01182748138 0.7679724012 0.005) 381
(0.007575693535 0.8698254541 0.005) 430
(0.01707757879 0.6396969429 0.005) 316
(0.01105864988 0.6381303223 0.005) 316
(0.0499072909 0.7278331951 0.005) 364
(0.03388885752 0.7469154252 0.005) 373
(0.04323659463 0.6939594376 0.005) 349
(0.006027931316 0.8397587337 0.005) 415
(0.04360800977 0.8154236383 0.005) 409
(0.001580110912 0.9929778589 0.005) 495
(0.03090730425 0.7696076695 0.005) 383
(0.01239844936 0.7048491232 0.005) 351
(0.04764033786 0.7856466131 0.005) 394
(0.04010693728 0.9960543499 0.005) 499
(0.04727289566 0.7880677493 0.005) 394
(0.007614894136 0.843382729 0.005) 420
(0.0367223985 0.8622099086 0.005) 433
(0.04689702582 0.7790618042 0.005) 389
(0.02256111878 0.6087968785 0.005) 302
(0.04141900213 0.5221080823 0.005) 264
(0.002239967061 0.6452670899 0.005) 320
(0.01455631174 0.9233358675 0.005) 461
(0.03882195708 0.7114021561 0.005) 358
(0.03050505029 0.8365804748 0.005) 418
(0.03331806788 0.7840761556 0.005) 393
(0.005798074662 0.9690121329 0.005) 480
(0.04953508844 0.5533518882 0.005) 279
(0.04207378944 0.7519416709 0.005) 379
(0.03806904083 0.6869704071 0.005) 343
(0.0398079091 0.8545335888 0.005) 428
(0.01969366919 0.6461634475 0.005) 321
(0.0002211864096 0.527981316 0.005) 260
(0.03938754582 0.6851797534 0.005) 343
(0.0200362446 0.6667166595 0.005) 332
(0.0461877989 0.9093014978 0.005) 454
(0.01455117039 0.5438372994 0.005) 271
(0.02102701875 0.6727140911 0.005) 337
(0.01397782447 0.8087829782 0.005) 401
(0.04401230345 0.7604346064 0.005) 384
(0.03584318338 0.6070422755 0.005) 303
(0.007085226636 0.9596526759 0.005) 475
(0.01454923352 0.8209974958 0.005) 411
(0.01753188838 0.6126010216 0.005) 306
(0.04780945381 0.9977453101 0.005) 499
(0.03192748459 0.8424869132 0.005) 423
(0.03193443829 0.5896966368 0.005) 293
(0.04020214384 0.8564575559 0.005) 429
(0.01641025626 0.8720650476 0.005) 436
(0.04134483892 0.6153394471 0.005) 309
(0.0477881049 0.9810967211 0.005) 494
(0.0415938078 0.8522378265 0.005) 429
(0.04252521538 0.7821145436 0.005) 394
(0.04823444917 0.6860329349 0.005) 344
(0.02912535458 0.9656581762 0.005) 482
(0.003130794764 0.8125920497 0.005) 405
(0.01120351784 0.6315367955 0.005) 316
(0.01359478554 0.6299286661 0.005) 311
(0.01761764646 0.7956398836 0.005) 396
(0.04805408794 0.6543339292 0.005) 329
(0.03154296763 0.6589407961 0.005) 328
(0.002093689572 0.9015270424 0.005) 450
(0.02500437922 0.8869078331 0.005) 442
(0.03916148895 0.7244758695 0.005) 363
(0.04959590897 0.8323118036 0.005) 419
(0.0264807541 0.9249682105 0.005) 462
(0.03896704365 0.974768596 0.005) 488
(0.01132539631 0.6101114949 0.005) 306
(0.01134112347 0.5415237858 0.005) 271
(0.006892862403 0.7415210776 0.005) 370
(0.04056837286 0.9774737054 0.005) 489
(0.01881675868 0.6658213097 0.005) 331
(0.01250646868 0.990982565 0.005) 496
(0.02044238591 0.7705270528 0.005) 387
(0.02156277861 0.8256302814 0.005) 412
(0.02842352004 0.6491752369 0.005) 322
(0.03340999719 0.8511237027 0.005) 428
(0.008652791669 0.5428169665 0.005) 270
(0.0322858728 0.8573674046 0.005) 428
(0.03950971973 0.7504096929 0.005) 378
(0.0214125809 0.9909713732 0.005) 497
(0.02011247308 0.9610711814 0.005) 482
(0.03499691742 0.6474420867 0.005) 323
(0.03579434954 0.6566199637 0.005) 328
(0.03948914004 0.8787422078 0.005) 438
(0.02620204733 0.8357832238 0.005) 417
(0.04177633637 0.9983299468 0.005) 499
(0.04037975523 0.6574349742 0.005) 329
(0.01836596022 0.691729407 0.005) 346
(0.04535433437 0.7131890161 0.005) 359
(0.0420800985 0.7684766047 0.005) 384
(0.0486631778 0.5974113892 0.005) 299
(0.007938336921 0.7808148009 0.005) 390
(0.04965709324 0.6666333131 0.005) 334
(0.009569386731 0.8333546257 0.005) 415
(0.008738775467 0.7454503961 0.005) 370
(0.02385940309 0.9324111896 0.005) 467
(0.03014885917 0.7382361263 0.005) 368
(0.03825680267 0.7932381991 0.005) 398
(0.003121580319 0.6356205597 0.005) 315
(0.02460352383 0.6213451788 0.005) 312
(0.01186535517 0.8365446142 0.005) 416
(0.01074367541 0.6727970041 0.005) 336
(0.04018005221 0.8534148605 0.005) 429
(0.03224893528 0.6349741807 0.005) 318
(0.02502224632 0.8579478995 0.005) 427
(0.02082555025 0.8463990913 0.005) 422
(0.01703273888 0.9065510454 0.005) 451
(0.02524723187 0.7540718805 0.005) 377
(0.01739185039 0.7328320055 0.005) 366
(0.01432713373 0.6733324913 0.005) 336
(0.02504074726 0.7377895253 0.005) 367
(0.01372953825 0.7908006034 0.005) 396
(0.04782788647 0.8450009968 0.005) 424
(0.004712284815 0.7387604644 0.005) 365
(0.04303413196 0.953512286 0.005) 479
(0.006041788868 0.8256238755 0.005) 410
(0.001333081612 0.7883175715 0.005) 390
(0.04972985349 0.5933987072 0.005) 299
(0.02781292842 0.9389534709 0.005) 467
(0.02125815961 0.7407679681 0.005) 372
(0.001006192537 0.9653225908 0.005) 480
(0.04763604799 0.9095746977 0.005) 454
(0.04766850795 0.5157932445 0.005) 259
(0.02097617309 0.9584506368 0.005) 477
(0.006088061107 0.6166359448 0.005) 305
(0.023094153 0.6727216712 0.005) 337
(0.01457852746 0.6474355261 0.005) 321
(0.01184436358 0.5504532363 0.005) 276
(0.01080308913 0.8591865693 0.005) 426
(0.0195610987 0.6431817677 0.005) 321
(0.007173578005 0.8700549571 0.005) 435
(0.004722624776 0.9852690441 0.005) 490
(0.01197894119 0.7849258297 0.005) 391
(0.01625661884 0.8283052533 0.005) 411
(0.03879123725 0.6853703452 0.005) 343
(0.02553536706 0.9266045343 0.005) 462
(0.01637305577 0.8637034007 0.005) 431
(0.01570273219 0.5645852349 0.005) 281
(0.004241829766 0.8355268398 0.005) 415
(0.0136728286 0.8820596687 0.005) 441
(0.03431006183 0.911082952 0.005) 458
(0.02079535123 0.8362861895 0.005) 417
(0.007132500159 0.5221064956 0.005) 260
(0.0170233522 0.9047014325 0.005) 451
(0.04281726095 0.8261375577 0.005) 414
(0.003892803247 0.7084448087 0.005) 350
(0.04261815147 0.8484903966 0.005) 424
(0.0374178537 0.6235089762 0.005) 313
(0.02749493618 0.9439198579 0.005) 472
(0.0007409037184 0.7730083894 0.005) 385
(0.03332955751 0.5974706611 0.005) 298
(0.02143759279 0.9089644799 0.005) 452
(0.01582148352 0.895821565 0.005) 446
(0.03473609694 0.625877598 0.005) 313
(0.02825187389 0.9561056602 0.005) 477
(0.004184838559 0.6169839204 0.005) 305
(0.04745010741 0.8282304141 0.005) 414
(0.01266973889 0.9485688144 0.005) 471
(0.002532626795 0.8830527494 0.005) 440
(0.0110863503 0.8468669898 0.005) 421
(0.03968175586 0.8888517857 0.005) 443
(0.04860060097 0.598603975 0.005) 299
(0.03863016525 0.6050066983 0.005) 303
(0.01944797489 0.9244295394 0.005) 461
(0.01917595282 0.9972728644 0.005) 496
(0.04746170357 0.9134845617 0.005) 459
(0.04220605424 0.5807458022 0.005) 294
(0.04270984556 0.7590387749 0.005) 379
(0.04708465459 0.8957155739 0.005) 449
(0.0107556736 0.6683598604 0.005) 331
(0.01989087824 0.9711119196 0.005) 486
(0.03823242953 0.8770594094 0.005) 438
(0.04061032427 0.9229919834 0.005) 464
(0.03168520766 0.8213843558 0.005) 413
(0.04074515512 0.756776448 0.005) 379
(0.03991014388 0.8218232797 0.005) 413
(0.0360020051 0.9812063212 0.005) 493
(0.0348642418 0.5998780124 0.005) 298
(0.02769713654 0.7027668996 0.005) 352
(0.01454269425 0.77453084 0.005) 386
(0.002381150195 0.6957068293 0.005) 345
(0.002992181321 0.9529677436 0.005) 475
(0.04492072444 0.9986088652 0.005) 499
(0.04333943465 0.9508598054 0.005) 479
(0.02440214875 0.7880383057 0.005) 392
(0.02562679006 0.9774777645 0.005) 487
(0.03699032279 0.8680355861 0.005) 433
(0.03896230293 0.7322119932 0.005) 368
(0.02299983183 0.7615634969 0.005) 382
(0.04666093254 0.6188544594 0.005) 309
(0.03666410403 0.7861047986 0.005) 393
(0.01012765812 0.973966346 0.005) 486
(0.001517280072 0.8175336371 0.005) 405
(0.02383505188 0.5788366973 0.005) 287
(0.02225663132 0.9417511348 0.005) 472
(0.02820088652 0.6272663823 0.005) 312
(0.006085654008 0.7391619636 0.005) 365
(0.04986032297 0.9350831958 0.005) 469
(0.04612131093 0.9317200636 0.005) 469
(0.002925349019 0.7122187387 0.005) 355
(0.002222590903 0.9214146951 0.005) 460
(0.01359960997 0.9665458313 0.005) 481
(0.03322407719 0.868481227 0.005) 433
(0.02609139574 0.7789575582 0.005) 387
(0.04619309835 0.7635520888 0.005) 384
(0.02079093365 0.8568405871 0.005) 427
(0.04971210275 0.7645357218 0.005) 384
(0.03806518462 0.5900572664 0.005) 298
(0.003942195395 0.5457137492 0.005) 270
(0.033022365 0.6983462227 0.005) 348
(0.04714940256 0.589085639 0.005) 294
(0.03130231774 0.9185682172 0.005) 458
(0.004285527564 0.7255400254 0.005) 360
(0.006815886263 0.8302378074 0.005) 415
(0.04470142765 0.9016672234 0.005) 454
(0.007257294543 0.9826922495 0.005) 490
(0.02558884362 0.7909136122 0.005) 397
(0.04583846843 0.566940349 0.005) 284
(0.01960839138 0.9285249572 0.005) 461
(0.02381732816 0.7493156196 0.005) 372
(0.009420435025 0.9048013026 0.005) 450
(0.02831668446 0.9585142582 0.005) 477
(0.0202865288 0.6543265941 0.005) 327
(0.04072941849 0.8439003133 0.005) 424
(0.03550331576 0.8806851234 0.005) 443
(0.01201038238 0.9119940008 0.005) 456
(0.009427845143 0.8051208752 0.005) 400
(0.04172918397 0.9514632477 0.005) 479
(0.01078431656 0.6783416625 0.005) 336
(0.03880568529 0.7737238487 0.005) 388
(0.0321268431 0.9957530248 0.005) 498
(0.02961276244 0.9635199555 0.005) 482
(0.01643192692 0.8050683522 0.005) 401
(0.03247097026 0.627272226 0.005) 313
(0.02369376975 0.787163607 0.005) 392
(0.02157773049 0.6776584972 0.005) 337
(0.03348490179 0.5932759121 0.005) 298
(0.01148186565 0.7155336755 0.005) 356
(0.02155124442 0.7053975427 0.005) 352
(0.03054547504 0.8946548632 0.005) 448
(0.04482822888 0.6613753861 0.005) 334
(0.02152251678 0.9272565047 0.005) 462
(0.04140853844 0.9724078007 0.005) 489
(0.04538917283 0.9357393068 0.005) 469
(0.03213619559 0.9089043114 0.005) 453
(0.01727630112 0.7458115747 0.005) 371
(0.04994318527 0.9219199352 0.005) 464
(0.01411382229 0.8761512805 0.005) 436
(0.005259566761 0.6600429057 0.005) 330
(0.01529226996 0.9376016312 0.005) 466
(0.01866252436 0.6460486407 0.005) 321
(0.03098994273 0.7489621926 0.005) 373
(0.0070294936 0.7657182377 0.005) 380
(0.03787862106 0.6556924845 0.005) 328
(0.004111742236 0.929283342 0.005) 460
(0.02796101503 0.7459775302 0.005) 372
(4.67647516e-05 0.7909466886 0.005) 395
(0.00965635927 0.7905737228 0.005) 395
(0.0451507129 0.7596263242 0.005) 379
(0.03103271833 0.932959818 0.005) 468
(0.02755390488 0.6413444691 0.005) 322
(0.04241871392 0.7983662839 0.005) 399
(0.01215021239 0.9818723889 0.005) 491
(0.01612283556 0.7461303732 0.005) 371
(0.007160097272 0.7417443979 0.005) 370
(0.0328655445 0.6898846554 0.005) 343
(0.004084784189 0.7446304588 0.005) 370
(0.03947519688 0.78739867 0.005) 393
(0.02986426817 0.6680487986 0.005) 332
(0.04659814938 0.7575681647 0.005) 379
(0.04884312044 0.6214593793 0.005) 314
(0.00390002191 0.9275779636 0.005) 460
(0.02467976812 0.9279267578 0.005) 462
(0.02867036619 0.6235757651 0.005) 312
(0.0007467525417 0.7275863707 0.005) 360
(0.01346968113 0.9137396779 0.005) 456
(0.002721609493 0.6466375963 0.005) 320
(0.03494493751 0.6673777797 0.005) 333
(0.03514139924 0.9524760929 0.005) 478
(0.02484450419 0.8270051735 0.005) 412
(0.001300273106 0.9156155846 0.005) 455
(0.04770793898 0.8585961239 0.005) 429
(0.02773024772 0.6560459705 0.005) 327
(0.04314505171 0.8844898845 0.005) 444
(0.04430031468 0.5442261919 0.005) 274
(0.005228063765 0.9200443581 0.005) 460
(0.02989330936 0.8726541054 0.005) 437
(0.007772060647 0.9644259156 0.005) 480
(0.04210232107 0.9685150762 0.005) 484
(0.02549785952 0.7667940697 0.005) 382
(0.003221582293 0.9645151164 0.005) 480
(0.01113147984 0.7109597302 0.005) 356
(0.01187297611 0.9559659819 0.005) 476
(0.03301887023 0.9118736804 0.005) 458
(0.04630657253 0.5842820849 0.005) 294
(0.04934851074 0.8380385172 0.005) 419
(0.04804509642 0.8291157158 0.005) 414
(0.02332720991 0.7397063894 0.005) 367
(0.0002585180924 0.5987536623 0.005) 295
(0.01656192019 0.6326023844 0.005) 316
(0.03887543873 0.5674280537 0.005) 283
(0.04824054668 0.977411191 0.005) 489
(0.04385250372 0.9247608853 0.005) 464
(0.04661519706 0.9679149948 0.005) 484
(0.006869293346 0.8223543358 0.005) 410
(0.01432953628 0.8294962628 0.005) 411
(0.03246090158 0.7717155972 0.005) 388
(0.04025320877 0.8189075605 0.005) 409
(0.04744739941 0.9112187988 0.005) 459
(0.006432333758 0.9919998605 0.005) 495
(0.01963172339 0.7103718183 0.005) 356
(0.04122059232 0.8428899265 0.005) 424
(0.044634444 0.8292961692 0.005) 414
(0.03009942133 0.6819288851 0.005) 343
(0.01702403575 0.6759636837 0.005) 336
(0.04545822746 0.9362728935 0.005) 469
(0.01402054387 0.7749730856 0.005) 386
(0.0008438727611 0.6886571497 0.005) 340
(0.01504648913 0.8740723277 0.005) 436
(0.02140237881 0.7816708182 0.005) 392
(0.04170147909 0.6409141929 0.005) 324
(0.0284707911 0.9087578293 0.005) 452
(0.04647614315 0.6966165893 0.005) 349
(0.01142832282 0.9475308198 0.005) 471
(0.02479479875 0.9913607818 0.005) 497
(0.02584228387 0.9060026167 0.005) 452
(0.01893306555 0.8730793558 0.005) 436
(0.007350066387 0.9558056471 0.005) 475
(0.02208410223 0.6452908525 0.005) 322
(0.001411722045 0.9369848772 0.005) 465
(0.03370375839 0.879431668 0.005) 438
(0.04534719228 0.8424731445 0.005) 424
(0.04076956825 0.6690728463 0.005) 334
(0.02416287502 0.7411103251 0.005) 372
(0.02061580838 0.8960242702 0.005) 447
(0.02235040594 0.617248029 0.005) 307
(0.01126012687 0.9214728985 0.005) 461
(0.01762614231 0.8697172194 0.005) 431
(0.04672772785 0.8659061457 0.005) 434
(0.0359708793 0.7596030693 0.005) 378
(0.01879925515 0.875167015 0.005) 436
(0.02470870148 0.7987512467 0.005) 397
(0.03195505878 0.5508748155 0.005) 278
(0.03451803174 0.5305296747 0.005) 268
(0.03088241412 0.9577104242 0.005) 478
(0.01692007118 0.5175216391 0.005) 256
(0.02817086063 0.8432279024 0.005) 422
(0.02498565112 0.6282187214 0.005) 312
(0.04716341088 0.8636783608 0.005) 434
(0.04288553995 0.6628370251 0.005) 334
(0.02063688222 0.7686818234 0.005) 382
(0.01498234309 0.6238420525 0.005) 311
(0.04795601892 0.6331391735 0.005) 319
(0.009436574556 0.936132518 0.005) 465
(0.03801352087 0.6948164971 0.005) 348
(0.008407241894 0.7359729939 0.005) 365
(0.02660727642 0.880589724 0.005) 442
(0.02291336695 0.79052952 0.005) 397
(0.01373663032 0.792337452 0.005) 396
(0.0003398237787 0.709714926 0.005) 350
(0.02868506137 0.9686922938 0.005) 482
(0.03268130076 0.6601083353 0.005) 333
(0.02384966347 0.6934271832 0.005) 347
(0.04853600815 0.6708261085 0.005) 339
(0.01884123742 0.690480077 0.005) 346
(0.03079661401 0.741590492 0.005) 373
(0.005939748065 0.9486220959 0.005) 470
(0.0332703979 0.8517822158 0.005) 428
(0.01486144375 0.7004560458 0.005) 351
(0.003898825155 0.7314860446 0.005) 365
(0.03852696909 0.851147921 0.005) 428
(0.02966211051 0.877567768 0.005) 437
(0.02035263275 0.7466458769 0.005) 372
(0.0337685591 0.9966177237 0.005) 498
(0.0112265758 0.8880459616 0.005) 441
(0.0189941919 0.836558079 0.005) 416
(0.02256633578 0.869369305 0.005) 432
(0.03290211721 0.9368121417 0.005) 468
(0.01648119014 0.9356346683 0.005) 466
(0.03089890759 0.7400566464 0.005) 373
(0.02179304085 0.8120451393 0.005) 407
(0.0480502134 0.7911142935 0.005) 399
(0.01488883578 0.9977460722 0.005) 496
(0.04861093219 0.9970228298 0.005) 499
(0.004367410703 0.9951953704 0.005) 495
(0.02551936296 0.6769593374 0.005) 337
(0.04163075527 0.6118713766 0.005) 309
(0.04438351813 0.7792954091 0.005) 389
(0.0008627246953 0.7272027653 0.005) 360
(0.0197835269 0.8190075172 0.005) 406
(0.03331806394 0.838532356 0.005) 418
(0.04666806791 0.9193436481 0.005) 459
(0.01594111313 0.6751098664 0.005) 336
(0.005781875451 0.6607891753 0.005) 330
(0.006088992848 0.9240053392 0.005) 460
(0.009642425499 0.9447697819 0.005) 470
(0.006137304001 0.5160956582 0.005) 255
(0.0102243228 0.8552768186 0.005) 426
(0.01634696721 0.8237439779 0.005) 411
(0.01143258924 0.8949473997 0.005) 446
(0.03918604029 0.8739814745 0.005) 438
(0.02457514879 0.8669324657 0.005) 432
(0.01071235994 0.7148092682 0.005) 356
(0.04062953029 0.5073662322 0.005) 254
(0.03561947531 0.5532844379 0.005) 278
(0.0216757781 0.6640598824 0.005) 332
(0.003387622173 0.587924023 0.005) 290
(0.04479415574 0.7827213613 0.005) 394
(0.02555175266 0.8062935144 0.005) 402
(0.01111288014 0.8165982631 0.005) 406
(0.002809731692 0.7725918847 0.005) 385
(0.02207739572 0.9993759498 0.005) 497
(0.011720193 0.6043293413 0.005) 301
(0.03334693651 0.7997230981 0.005) 398
(0.01255159763 0.509281256 0.005) 251
(0.03713656512 0.8497569935 0.005) 423
(0.01625740265 0.83577585 0.005) 416
(0.003922858933 0.9236489599 0.005) 460
(0.01132865922 0.7005127596 0.005) 351
(0.04094602184 0.9827025684 0.005) 494
(0.022414749 0.9802115694 0.005) 492
(0.02780352482 0.6832219501 0.005) 342
(0.04343206562 0.7489504332 0.005) 374
(0.03560475589 0.770211394 0.005) 388
(0.03895767581 0.6120969294 0.005) 308
(0.007480174077 0.5111849799 0.005) 255
(0.002070177328 0.8866945177 0.005) 440
(0.04627213996 0.8323875643 0.005) 419
(0.01501985807 0.7200881633 0.005) 361
(0.03960100637 0.942998133 0.005) 473
(0.00605071989 0.9226167662 0.005) 460
(0.01009979234 0.8580625001 0.005) 426
(0.008007018113 0.764600753 0.005) 380