/*--------------------------------*- C++ -*----------------------------------*\
| =========                 |                                                 |
| \\      /  F ield         | OpenFOAM: The Open Source CFD Toolbox           |
|  \\    /   O peration     | Version:  v1706                                 |
|   \\  /    A nd           | Web:      www.OpenFOAM.com                      |
|    \\/     M anipulation  |                                                 |
\*---------------------------------------------------------------------------*/
FoamFile
{
    version     2.0;
    format      ascii;
    class       Cloud<passiveParticle>;
    location    "5/lagrangian/dsmc";
    object      positions;
}
// * * * * * * * * * * * * * * * * * * * * * * * * * * * * * * * * * * * * * //

47583
(
(0.01939104556 0.8791148497 0.005) 436
(0.0008143972917 0.9918084738 0.005) 495
(0.004595537846 0.7677407904 0.005) 380
(0.02318592145 0.7198237599 0.005) 357
(0.01956072183 0.7775300349 0.005) 386
(0.01672153584 0.7153072332 0.005) 356
(0.03928683139 0.9091306152 0.005) 453
(0.03229234867 0.9941156952 0.005) 498
(0.0389393339 0.916678035 0.005) 458
(0.02500788965 0.9271056187 0.005) 462
(0.0491387603 0.5835337467 0.005) 294
(0.03747760047 0.8405694356 0.005) 423
(0.01151115248 0.9796040126 0.005) 486
(0.0006118056269 0.9428605531 0.005) 470
(0.03127059223 0.9629832604 0.005) 483
(0.01482084181 0.7937639134 0.005) 396
(0.001520640801 0.9775268558 0.005) 485
(0.01357751801 0.9750508306 0.005) 486
(0.04150220488 0.7646454659 0.005) 384
(0.004220997205 0.6488194011 0.005) 320
(0.03956201413 0.8465688563 0.005) 423
(0.04887525712 0.7019873805 0.005) 354
(0.04204364886 0.9017276796 0.005) 454
(0.04230759238 0.8874660696 0.005) 444
(0.03880346284 0.8013034975 0.005) 403
(0.03359549741 0.9173350215 0.005) 458
(0.02860602134 0.6701989543 0.005) 337
(0.0358723639 0.7547356033 0.005) 378
(0.01218845367 0.9138601434 0.005) 456
(0.04425755686 0.9855455066 0.005) 494
(0.01513391659 0.9234627682 0.005) 461
(0.03729424606 0.8574794069 0.005) 428
(0.01817426171 0.7021030084 0.005) 351
(0.04526130184 0.9647746113 0.005) 484
(0.02782589626 0.5836001438 0.005) 292
(0.04710718864 0.6997702357 0.005) 349
(0.01977215905 0.8562482744 0.005) 426
(0.04540530677 0.8269676901 0.005) 414
(0.001122790476 0.6950215831 0.005) 345
(0.002522085908 0.7009374656 0.005) 350
(0.02607532282 0.9525462207 0.005) 477
(0.04240808057 0.7665175302 0.005) 384
(0.0317753339 0.8636170777 0.005) 433
(0.03446410233 0.9271101112 0.005) 463
(0.04291588146 0.9919139073 0.005) 499
(0.01696137829 0.8970382817 0.005) 446
(0.007872195185 0.6847455151 0.005) 340
(0.04782510835 0.6730561735 0.005) 339
(0.04010013847 0.9240051088 0.005) 464
(0.01696067151 0.6740918419 0.005) 336
(0.01271528335 0.9304716103 0.005) 466
(0.02483956905 0.860807079 0.005) 432
(0.03182276517 0.5314520996 0.005) 268
(0.007444571486 0.8451071679 0.005) 420
(0.02156553153 0.5275770139 0.005) 262
(0.03284274482 0.6478463364 0.005) 323
(0.03588549612 0.6111744069 0.005) 308
(0.001285310985 0.6318315428 0.005) 315
(0.02868815337 0.732960896 0.005) 367
(0.01775188804 0.7711206222 0.005) 386
(0.0004981487981 0.902157241 0.005) 450
(0.01693307803 0.9381347505 0.005) 466
(0.02373833878 0.7254608572 0.005) 362
(0.001794078125 0.7954901259 0.005) 395
(0.0451997555 0.8536495293 0.005) 429
(0.04452646728 0.703968288 0.005) 354
(0.04162063005 0.8114348856 0.005) 409
(0.008896123788 0.8822215571 0.005) 440
(0.04999956725 0.6119210251 0.005) 309
(0.04008341578 0.7612700251 0.005) 384
(0.04245233109 0.5513146149 0.005) 279
(0.002796774583 0.9308337322 0.005) 465
(0.01707838592 0.9048339142 0.005) 451
(0.005496377177 0.6847296985 0.005) 340
(0.001716853878 0.9114206293 0.005) 455
(0.002499679701 0.6547446823 0.005) 325
(0.0365624537 0.8063569663 0.005) 403
(0.02590585693 0.6468455514 0.005) 322
(0.04832780058 0.5540545458 0.005) 279
(0.0173928619 0.5825398483 0.005) 291
(0.04844172674 0.7407651505 0.005) 374
(0.02686523918 0.6018680116 0.005) 302
(0.02054071823 0.524369689 0.005) 262
(0.04722372597 0.748728478 0.005) 374
(0.03958114748 0.7848041965 0.005) 393
(0.049827575 0.6348106339 0.005) 319
(0.005076729733 0.7727073303 0.005) 385
(0.02020186232 0.9043429498 0.005) 452
(0.01972941768 0.9847092206 0.005) 491
(0.01125752768 0.998032942 0.005) 496
(0.03027736045 0.9754620394 0.005) 488
(0.03845339376 0.641617434 0.005) 323
(0.01997958266 0.7076746459 0.005) 351
(0.0218019044 0.8016770713 0.005) 402
(0.02375948384 0.5799095864 0.005) 287
(0.03996329328 0.7335956066 0.005) 368
(0.04368288912 0.8860810953 0.005) 444
(0.03172163531 0.6604751864 0.005) 333
(0.03686459199 0.9607319293 0.005) 483
(0.007385528069 0.6908755646 0.005) 345
(0.0369544563 0.6866460567 0.005) 343
(0.04665606659 0.9684063625 0.005) 484
(0.04014230653 0.7259215476 0.005) 364
(0.04329030864 0.8732575025 0.005) 439
(0.02419671703 0.9954107269 0.005) 497
(0.02003813665 0.5868775889 0.005) 292
(0.02010498009 0.9127414483 0.005) 457
(0.03815206724 0.6156130622 0.005) 308
(0.006767102884 0.6769245236 0.005) 335
(0.01737962452 0.8869272757 0.005) 441
(0.0422843396 0.9392510636 0.005) 469
(0.02497187762 0.7087677731 0.005) 352
(0.01544757801 0.8765235098 0.005) 436
(0.02874912599 0.7440828606 0.005) 372
(0.04298113498 0.9658001984 0.005) 484
(0.04036807364 0.630750865 0.005) 319
(0.009053415589 0.8081630261 0.005) 400
(0.03730668095 0.5667534261 0.005) 283
(0.00409067022 0.7889182736 0.005) 390
(0.01185283069 0.6738078822 0.005) 336
(0.008813912121 0.8282208898 0.005) 410
(0.02910594547 0.6574324579 0.005) 327
(0.03795713029 0.7146208627 0.005) 358
(0.04248959489 0.8289952345 0.005) 414
(0.0130305077 0.9722740965 0.005) 486
(0.02771888974 0.9021169895 0.005) 452
(0.04069754596 0.5591343343 0.005) 279
(0.03000730022 0.8394696825 0.005) 418
(0.03503086282 0.908647543 0.005) 453
(0.0131042967 0.8278560947 0.005) 411
(0.03381664938 0.6080661895 0.005) 303
(0.01528193443 0.8884554501 0.005) 441
(0.02556754197 0.5321444996 0.005) 267
(0.03899070751 0.571216784 0.005) 288
(0.02621366664 0.847295829 0.005) 422
(0.04972161139 0.7955021081 0.005) 399
(0.03274001255 0.8705574191 0.005) 438
(0.03979356099 0.8896591269 0.005) 443
(0.02498432602 0.8117039033 0.005) 407
(0.04981204687 0.7706936792 0.005) 389
(0.01786708484 0.6706701921 0.005) 336
(0.02530937938 0.6774677448 0.005) 337
(0.0401329842 0.9595726549 0.005) 479
(0.0086138423 0.8944015814 0.005) 445
(0.03778760735 0.5721149802 0.005) 288
(0.04470351541 0.8421184385 0.005) 424
(0.01419237166 0.7154383807 0.005) 356
(0.02313144238 0.5355802644 0.005) 267
(0.004345983298 0.8832874664 0.005) 440
(0.03992081398 0.6819062174 0.005) 343
(0.02347151044 0.8135674345 0.005) 407
(0.00229376434 0.6511864083 0.005) 325
(0.01710985865 0.8219576037 0.005) 411
(0.04979460696 0.8417552022 0.005) 424
(0.01336392305 0.6670783676 0.005) 331
(0.01167886767 0.8388523107 0.005) 416
(0.008215861832 0.7625433557 0.005) 380
(0.03195996925 0.9472792679 0.005) 473
(0.02303749961 0.9005355608 0.005) 452
(0.02365876568 0.6581602989 0.005) 327
(0.008052046606 0.8421607691 0.005) 420
(0.01069101383 0.7877372931 0.005) 391
(0.01390088753 0.8257358858 0.005) 411
(0.02217488655 0.7747670072 0.005) 387
(0.04780706972 0.6026178398 0.005) 304
(0.04395476944 0.6316900468 0.005) 319
(0.01123907917 0.9333588844 0.005) 466
(0.01153057577 0.8953140997 0.005) 446
(0.02976414925 0.8651540682 0.005) 432
(0.04893672464 0.8042820031 0.005) 404
(0.02244599176 0.6963373084 0.005) 347
(0.0305289089 0.7422437069 0.005) 373
(0.03381113205 0.9265712636 0.005) 463
(0.01419106829 0.6663044408 0.005) 331
(0.04149038243 0.8262010982 0.005) 414
(0.04885489178 0.7537943772 0.005) 379
(0.04273627632 0.8639654571 0.005) 434
(0.02837666952 0.82466057 0.005) 412
(0.0176135415 0.7453783598 0.005) 371
(0.004396095026 0.816988385 0.005) 405
(0.01852344931 0.8104927781 0.005) 406
(0.036744117 0.7335652148 0.005) 368
(0.00683423909 0.6099041217 0.005) 300
(0.01096240641 0.8378108775 0.005) 416
(0.01072900151 0.9793870291 0.005) 486
(0.04679316099 0.5848515183 0.005) 294
(0.002333015079 0.9502526113 0.005) 475
(0.03826788329 0.9477182242 0.005) 473
(0.0186581632 0.9233135678 0.005) 461
(0.04070914383 0.5848294341 0.005) 294
(0.005475705673 0.9399487812 0.005) 465
(0.007846970416 0.9037667325 0.005) 450
(0.0361443432 0.7549920305 0.005) 378
(0.02959061515 0.9848792802 0.005) 492
(0.03888701872 0.5633002913 0.005) 283
(0.02303748935 0.7462613481 0.005) 372
(0.0243501036 0.8659791145 0.005) 432
(0.0113384848 0.8334000737 0.005) 416
(0.02827261726 0.8698297829 0.005) 432
(0.04173954413 0.8799792598 0.005) 439
(0.02363726647 0.980844359 0.005) 492
(0.04635539497 0.5454074072 0.005) 274
(0.005404450857 0.9293877402 0.005) 460
(0.006514522439 0.9771575112 0.005) 485
(0.02955966995 0.5243812966 0.005) 262
(0.01076316568 0.7866415871 0.005) 391
(0.0174249611 0.6724958323 0.005) 336
(0.01638213707 0.6744700722 0.005) 336
(0.02084471232 0.9257034064 0.005) 462
(0.01750006999 0.7041460278 0.005) 351
(0.03332252023 0.6866632516 0.005) 343
(0.008226931496 0.8313411166 0.005) 415
(0.01261853758 0.9658135703 0.005) 481
(0.01532404815 0.9682935695 0.005) 481
(0.03290172379 0.8763767798 0.005) 438
(0.003201051795 0.7452073191 0.005) 370
(0.03203333191 0.6717571614 0.005) 338
(0.01682059796 0.6415334951 0.005) 321
(0.001371126084 0.7406292089 0.005) 370
(0.03473660889 0.7467730176 0.005) 373
(0.002647465136 0.8202651437 0.005) 410
(0.02427828485 0.628040334 0.005) 312
(0.01250553681 0.8057952801 0.005) 401
(0.01481820308 0.9426045984 0.005) 471
(0.02798958327 0.6251791937 0.005) 312
(0.01176415143 0.8348171136 0.005) 416
(0.01263747066 0.8219720596 0.005) 411
(0.0457224312 0.7445711607 0.005) 374
(0.02920373721 0.6630488005 0.005) 332
(0.04780070488 0.7313293018 0.005) 369
(0.01200223649 0.6611310038 0.005) 331
(0.01251848853 0.9596362192 0.005) 476
(0.0367663714 0.8085756573 0.005) 403
(0.02405103045 0.6405949337 0.005) 322
(0.01514078167 0.7564133995 0.005) 376
(0.04999652679 0.967599523 0.005) 484
(0.02025029257 0.8174715181 0.005) 407
(0.009836539705 0.5532180363 0.005) 275
(0.04181526443 0.8953582534 0.005) 449
(0.006480286332 0.8325377488 0.005) 415
(0.03094213379 0.6716456166 0.005) 338
(0.04720313328 0.8749675652 0.005) 439
(0.04420705472 0.7872326533 0.005) 394
(0.003952309576 0.8792169866 0.005) 435
(0.02162853629 0.6484807494 0.005) 322
(0.03587730255 0.5735067975 0.005) 288
(0.04007239898 0.9902455816 0.005) 499
(0.03613888774 0.8817153433 0.005) 443
(0.03570497243 0.6593093645 0.005) 328
(0.01467582411 0.7993808691 0.005) 396
(0.006615620297 0.689840226 0.005) 340
(0.02038546189 0.9246774085 0.005) 462
(0.03182910261 0.9238677359 0.005) 463
(0.04446630192 0.8834352881 0.005) 444
(0.00662710762 0.9035365791 0.005) 450
(0.04365365386 0.9911119482 0.005) 499
(0.01723500608 0.5773846609 0.005) 286
(0.03240112864 0.5375378405 0.005) 268
(0.03652231585 0.5225123005 0.005) 263
(0.03515415292 0.8428386171 0.005) 423
(0.03371445369 0.570234938 0.005) 288
(0.01722888812 0.8973300342 0.005) 446
(0.02939985996 0.8378965252 0.005) 417
(0.02156507251 0.8526860308 0.005) 427
(0.002544652015 0.9340884968 0.005) 465
(0.02314283845 0.5049980603 0.005) 252
(0.04576461157 0.8033111369 0.005) 404
(0.03809972406 0.5896915125 0.005) 293
(0.04501794686 0.776882334 0.005) 389
(0.04652146699 0.7798861133 0.005) 389
(0.01429317384 0.8969821064 0.005) 446
(0.0446592512 0.8243233417 0.005) 414
(0.0400172376 0.9353827166 0.005) 469
(0.03735344238 0.6076790984 0.005) 303
(0.02251924882 0.5022955738 0.005) 252
(0.0479352908 0.7162100042 0.005) 359
(0.01253923888 0.9905627506 0.005) 496
(0.01033498591 0.7960598481 0.005) 396
(0.0478303839 0.8946230558 0.005) 449
(0.01355158328 0.717621919 0.005) 356
(0.04087081373 0.9840410127 0.005) 494
(0.01616752108 0.8760687885 0.005) 436
(0.003334642071 0.6604013529 0.005) 330
(0.02233202239 0.9111858618 0.005) 457
(0.03767616107 0.6976980482 0.005) 348
(0.03574281181 0.8451479485 0.005) 423
(0.007075892735 0.7054176787 0.005) 350
(0.0004804056319 0.6460032498 0.005) 320
(0.009861694767 0.9040903334 0.005) 450
(0.008331706014 0.8772666899 0.005) 435
(0.01240697036 0.934267328 0.005) 466
(0.007364848806 0.527363877 0.005) 260
(0.01735596098 0.9778777616 0.005) 486
(0.005820843896 0.869486469 0.005) 430
(0.03813203521 0.8871439244 0.005) 443
(0.01834792038 0.5528882435 0.005) 276
(0.04090018594 0.7063471633 0.005) 354
(0.005681392447 0.5161085185 0.005) 255
(0.01953888911 0.6719121569 0.005) 336
(0.009015690469 0.741129531 0.005) 370
(0.04711055294 0.8507072184 0.005) 429
(0.0115853638 0.7636387671 0.005) 381
(0.009521621289 0.9949375411 0.005) 495
(0.03333352467 0.8284804962 0.005) 413
(0.01681129497 0.7603607828 0.005) 381
(0.0151337781 0.7152845461 0.005) 356
(0.0163553233 0.9820013176 0.005) 491
(0.0400475244 0.5540631102 0.005) 279
(0.01851388691 0.8757778107 0.005) 436
(0.01947573684 0.8545474837 0.005) 426
(0.01467660433 0.8978046087 0.005) 446
(0.03480754267 0.9168149397 0.005) 458
(0.02137063103 0.6526012527 0.005) 327
(0.04325188988 0.9770088503 0.005) 489
(0.04053033787 0.9661340668 0.005) 484
(0.01556420977 0.5556650406 0.005) 276
(0.03855857572 0.9198198993 0.005) 458
(0.008734763817 0.7800848294 0.005) 390
(0.02228127413 0.6183648487 0.005) 307
(0.04574344544 0.6403434736 0.005) 324
(0.04457066088 0.8406387804 0.005) 424
(0.04469946405 0.6667421437 0.005) 334
(0.03873294958 0.7479853676 0.005) 373
(0.03005944541 0.8678846075 0.005) 433
(0.01586760498 0.5382263715 0.005) 266
(0.04626644321 0.9958170044 0.005) 499
(0.03450501714 0.8737758923 0.005) 438
(0.04543953391 0.9797385608 0.005) 489
(0.04418111591 0.9582342948 0.005) 479
(0.0005838452064 0.9392199862 0.005) 465
(0.02391070995 0.8194661718 0.005) 407
(0.02137719812 0.8651472815 0.005) 432
(0.03771491998 0.8131223123 0.005) 408
(0.03953085047 0.6543516665 0.005) 328
(0.02470595943 0.9340296847 0.005) 467
(0.008406818486 0.9392047436 0.005) 465
(0.02333450281 0.8683432383 0.005) 432
(0.01955781637 0.8967981933 0.005) 446
(0.04113153087 0.8395057342 0.005) 419
(0.01667696639 0.874718172 0.005) 436
(0.04810717212 0.8080756798 0.005) 404
(0.0002183362177 0.6169994343 0.005) 305
(0.01697692819 0.9967602001 0.005) 496
(0.003902710569 0.9319102279 0.005) 465
(0.002028346465 0.7083194143 0.005) 350
(0.04196704261 0.8985529808 0.005) 449
(0.007858398062 0.612261199 0.005) 305
(0.001581994972 0.9356573924 0.005) 465
(0.02778618213 0.6793646436 0.005) 337
(0.01504624529 0.5540074451 0.005) 276
(0.01782415963 0.7525123606 0.005) 376
(0.0254177949 0.9090780209 0.005) 452
(0.008915580958 0.8163362985 0.005) 405
(0.01576657139 0.8579953575 0.005) 426
(0.03798879039 0.6821460035 0.005) 343
(0.01507556926 0.8000605876 0.005) 401
(0.0414140425 0.6969235595 0.005) 349
(0.02992575323 0.7308494947 0.005) 367
(0.006990229286 0.764905821 0.005) 380
(0.01572530669 0.9698092254 0.005) 481
(0.04723005731 0.7662666321 0.005) 384
(0.04773596964 0.7195144475 0.005) 359
(0.02616594359 0.8041215309 0.005) 402
(0.03657335464 0.8075231643 0.005) 403
(0.01760823045 0.9699851788 0.005) 481
(0.009925099406 0.8409671314 0.005) 420
(0.04639726931 0.62859439 0.005) 314
(0.02831807434 0.5923603073 0.005) 297
(0.0477239973 0.8193565761 0.005) 409
(0.01333507924 0.6207038413 0.005) 311
(0.000843928715 0.7569516522 0.005) 375
(0.008216312027 0.6371607756 0.005) 315
(0.001765418524 0.7982398523 0.005) 395
(0.01993931164 0.8080488972 0.005) 401
(0.03278032813 0.9967361116 0.005) 498
(0.03673005214 0.8248554157 0.005) 413
(0.008606030352 0.5103403012 0.005) 255
(0.04133378719 0.7700536941 0.005) 389
(0.005741909601 0.7287546267 0.005) 360
(1.468858367e-05 0.6418857918 0.005) 320
(0.009257455924 0.6999826378 0.005) 345
(0.02006975584 0.8736442107 0.005) 437
(0.03124862979 0.8242269262 0.005) 413
(0.02549298829 0.9567282698 0.005) 477
(0.01819056864 0.7416920226 0.005) 371
(0.04126337925 0.5674564635 0.005) 284
(0.02550774891 0.8379614391 0.005) 417
(0.03278246835 0.7548807599 0.005) 378
(0.007175506094 0.6914507088 0.005) 345
(0.02446888428 0.8102585741 0.005) 407
(0.02068219461 0.9896574536 0.005) 492
(0.008193214578 0.9320030523 0.005) 465
(0.03748772084 0.6408997508 0.005) 323
(0.003385340166 0.6590406992 0.005) 325
(0.04870250436 0.6329554879 0.005) 319
(0.02575716118 0.7012605891 0.005) 352
(0.006934696982 0.6544973841 0.005) 325
(0.03344255008 0.8006207226 0.005) 403
(0.01555643783 0.6728658269 0.005) 336
(0.009536869552 0.9497317282 0.005) 470
(0.04466176513 0.7567862228 0.005) 379
(0.01274456614 0.5410369125 0.005) 271
(0.01905903277 0.7604997481 0.005) 381
(0.005413818862 0.6214235166 0.005) 310
(0.03724963475 0.7501387397 0.005) 378
(0.01869631328 0.8156351401 0.005) 406
(0.01121489543 0.8277411913 0.005) 411
(0.001442800945 0.9779081862 0.005) 485
(0.004259404598 0.9824021271 0.005) 490
(0.01033299592 0.6643294891 0.005) 331
(0.02059201953 0.6981047395 0.005) 347
(0.02404609306 0.671996503 0.005) 337
(0.03133387972 0.7993607853 0.005) 398
(0.03341946952 0.8685898309 0.005) 433
(0.002448639165 0.7867781247 0.005) 390
(0.01710918046 0.8264313713 0.005) 411
(0.01391182161 0.8967939429 0.005) 446
(0.04549693969 0.8025795678 0.005) 404
(0.001643802582 0.8934065764 0.005) 445
(0.03482346776 0.6209559762 0.005) 313
(4.315599903e-05 0.9248107737 0.005) 460
(0.02207841401 0.9799954702 0.005) 487
(0.008885611012 0.6154639937 0.005) 305
(0.04100601738 0.7311646757 0.005) 369
(0.03064204841 0.5247091082 0.005) 263
(0.0352141026 0.9323652183 0.005) 468
(0.01355989168 0.8035032095 0.005) 401
(0.0427045002 0.759612184 0.005) 379
(0.03490357103 0.6214791358 0.005) 313
(0.01031352078 0.8782053368 0.005) 436
(0.01483877786 0.6710008609 0.005) 336
(0.04849094128 0.838943445 0.005) 419
(0.02107368222 0.625522003 0.005) 312
(0.002178060029 0.9965652451 0.005) 495
(0.02900428202 0.8352496389 0.005) 417
(0.01916354739 0.832249228 0.005) 416
(0.02033596504 0.5526117749 0.005) 277
(0.01702717783 0.5184426224 0.005) 256
(0.04251227438 0.9725704866 0.005) 489
(0.02134464468 0.7283795287 0.005) 362
(0.03640507275 0.9484966798 0.005) 473
(0.02197684199 0.973315681 0.005) 487
(0.01884922229 0.8723076827 0.005) 436
(0.04956120385 0.8083261836 0.005) 404
(0.02572291182 0.9630530622 0.005) 482
(0.04405143966 0.5080193223 0.005) 254
(0.008399622609 0.8550070166 0.005) 425
(0.01653532549 0.8359606212 0.005) 416
(0.01619376719 0.8601764327 0.005) 431
(0.008191702292 0.8313933158 0.005) 415
(0.0465262675 0.9401952913 0.005) 474
(0.01591472009 0.8980235416 0.005) 446
(0.001858189328 0.9376462514 0.005) 465
(0.04694559241 0.7224046797 0.005) 364
(0.03425341261 0.5533226197 0.005) 278
(0.03797450241 0.9268910295 0.005) 463
(0.04159343796 0.8105836758 0.005) 409
(0.0146318489 0.6801675534 0.005) 341
(0.004339191009 0.7621668909 0.005) 380
(0.04374011426 0.9213876314 0.005) 464
(0.04793604769 0.5103070129 0.005) 259
(0.01620667333 0.8174721365 0.005) 406
(0.02186146149 0.7403098425 0.005) 372
(0.01895268148 0.578055451 0.005) 286
(0.005669221354 0.7859415428 0.005) 390
(0.01216857086 0.7409925918 0.005) 371
(0.006491149328 0.5054657337 0.005) 250
(0.03022820995 0.7562610003 0.005) 378
(0.04608029518 0.5438330433 0.005) 274
(0.03613586204 0.8123881644 0.005) 408
(0.02507140408 0.7853276164 0.005) 392
(0.0121779688 0.8132584676 0.005) 406
(0.01986174883 0.7655906483 0.005) 381
(0.00862147934 0.6147901301 0.005) 305
(0.004195909973 0.7832076791 0.005) 390
(0.03375204806 0.7418208402 0.005) 373
(0.007763066995 0.7417604688 0.005) 370
(0.01121452609 0.8565771637 0.005) 426
(0.02002820209 0.9994188188 0.005) 497
(0.04015785737 0.9260322113 0.005) 464
(0.0294182959 0.8662003995 0.005) 432
(0.01379553944 0.8949822636 0.005) 446
(0.02829591976 0.7940819838 0.005) 397
(0.01144460592 0.8061700192 0.005) 401
(0.005858523542 0.929782886 0.005) 460
(0.02869587262 0.6432735037 0.005) 322
(0.01985591695 0.8446399672 0.005) 421
(0.006956582224 0.5143290238 0.005) 255
(0.04945802974 0.5092179517 0.005) 254
(0.0201669417 0.979860597 0.005) 487
(0.03067621045 0.9638975169 0.005) 483
(0.0446589748 0.5123883907 0.005) 259
(0.003725866058 0.9162079081 0.005) 455
(0.005330228434 0.9938381792 0.005) 495
(0.03039274162 0.9083919232 0.005) 453
(0.04128181243 0.7378380401 0.005) 369
(0.04634922439 0.7235194032 0.005) 364
(0.02398296193 0.9048120571 0.005) 452
(0.03102412276 0.9749496465 0.005) 488
(0.03043008014 0.5316617025 0.005) 268
(0.02039300355 0.5003972799 0.005) 252
(0.02987686099 0.9569796219 0.005) 477
(0.006059873427 0.7736890265 0.005) 385
(0.007859345323 0.7201398024 0.005) 360
(0.04449552292 0.9037124426 0.005) 454
(0.01947501385 0.7922270651 0.005) 396
(0.02153806085 0.969415096 0.005) 482
(0.04391642831 0.9564362535 0.005) 479
(0.03915205973 0.6925098353 0.005) 348
(0.04851559813 0.8711885397 0.005) 439
(0.03634682316 0.7981039086 0.005) 398
(0.03374613417 0.9733550686 0.005) 488
(0.001182162295 0.7861898152 0.005) 390
(0.03383201659 0.6376834679 0.005) 318
(0.0006787116089 0.666105171 0.005) 330
(0.007873270988 0.957722768 0.005) 475
(0.02711649663 0.6200577543 0.005) 312
(0.003705319322 0.9666057858 0.005) 480
(0.01708580383 0.6988927703 0.005) 346
(0.03861434704 0.7302258272 0.005) 368
(0.003360822672 0.94014474 0.005) 470
(0.0414092047 0.6417433616 0.005) 324
(0.004284622152 0.6241117003 0.005) 310
(0.02387202122 0.7237827722 0.005) 362
(0.04373175327 0.8189754914 0.005) 409
(0.04514541558 0.9559337586 0.005) 479
(0.01386298892 0.9126911117 0.005) 456
(0.04309123608 0.8815634694 0.005) 444
(0.02710895253 0.9456823251 0.005) 472
(0.03239949086 0.7506188514 0.005) 378
(0.02400869938 0.7086959679 0.005) 352
(0.0192710771 0.9251096139 0.005) 461
(0.0347292477 0.7884894125 0.005) 393
(0.02772758489 0.9280756132 0.005) 462
(0.005712085039 0.8535302412 0.005) 425
(0.04241825393 0.6190240785 0.005) 309
(0.02621975719 0.9299544452 0.005) 462
(0.006248929354 0.7403411427 0.005) 370
(0.03736657076 0.8564537034 0.005) 428
(0.03453906566 0.8484693584 0.005) 423
(0.01506034857 0.6495540247 0.005) 321
(0.01153416422 0.8509586859 0.005) 426
(0.04537992728 0.6093221991 0.005) 304
(0.0226892621 0.644981601 0.005) 322
(0.03370310537 0.6841103175 0.005) 343
(9.262625698e-05 0.5962175011 0.005) 295
(0.03683071091 0.8903087772 0.005) 448
(0.01179812596 0.5725347504 0.005) 286
(0.004200189027 0.7159981368 0.005) 355
(0.03797799235 0.6725081603 0.005) 338
(0.03392576654 0.6787142137 0.005) 338
(0.01655031662 0.8033431623 0.005) 401
(0.01806880685 0.8948047473 0.005) 446
(0.0311172027 0.6473448164 0.005) 323
(0.04789072767 0.8455460511 0.005) 424
(0.005945441908 0.5882896538 0.005) 290
(0.04000585596 0.9765529156 0.005) 489
(0.00416249341 0.979397177 0.005) 485
(0.04325308 0.5906949526 0.005) 299
(0.03739160316 0.7831761142 0.005) 393
(0.0005035248687 0.7586510541 0.005) 375
(0.04108344416 0.5291054318 0.005) 264
(0.008330292301 0.8479338925 0.005) 420
(0.04204995382 0.8595447563 0.005) 429
(0.02956355681 0.9266818796 0.005) 462
(0.03116016311 0.8183296488 0.005) 408
(0.0334647525 0.7809673086 0.005) 393
(0.01310748688 0.7820666255 0.005) 391
(0.04314164412 0.550805428 0.005) 279
(0.03234281315 0.9965783787 0.005) 498
(0.01049425235 0.8056523227 0.005) 401
(0.04848701972 0.9449926493 0.005) 474
(0.004235183974 0.5384380487 0.005) 265
(0.0244115618 0.9846748982 0.005) 492
(0.009797804149 0.7626568563 0.005) 380
(0.01417309217 0.6360401714 0.005) 316
(0.03238976877 0.8077369128 0.005) 403
(0.01174170469 0.7844995681 0.005) 391
(0.04583998277 0.591187383 0.005) 299
(0.04070290402 0.6253858865 0.005) 314
(0.03370301932 0.8655294352 0.005) 433
(0.04316509024 0.985780294 0.005) 494
(0.001424421356 0.6174611286 0.005) 305
(0.0223203833 0.8631914847 0.005) 432
(0.04587032355 0.9221443917 0.005) 464
(0.04816342339 0.9372751486 0.005) 469
(0.04767635678 0.9711484023 0.005) 489
(0.02731390902 0.6124501517 0.005) 307
(0.04276609448 0.732560401 0.005) 369
(0.02610137797 0.6924126044 0.005) 347
(0.03874201198 0.9349092907 0.005) 468
(0.0493099263 0.87120537 0.005) 439
(0.01455026294 0.8081892175 0.005) 401
(0.02949316504 0.6483483877 0.005) 322
(0.0117934155 0.7735389385 0.005) 386
(0.001774378974 0.7256896444 0.005) 360
(0.02286267961 0.9884595592 0.005) 492
(0.03763054411 0.8969710339 0.005) 448
(0.04549445895 0.8886200359 0.005) 444
(0.03654790078 0.9433287036 0.005) 473
(0.02316075093 0.8309022854 0.005) 417
(0.002638815606 0.8829232451 0.005) 440
(0.04809958143 0.6048400458 0.005) 304
(0.02028176231 0.7523248458 0.005) 377
(0.02303366693 0.9369935302 0.005) 467
(0.02713095442 0.8113748444 0.005) 407
(0.01198076243 0.8470948363 0.005) 421
(0.0460890814 0.8809964783 0.005) 444
(0.02207044088 0.5916038164 0.005) 297
(0.01830111977 0.9572404432 0.005) 476
(0.01353108914 0.8297644415 0.005) 411
(0.03940653066 0.7443738601 0.005) 373
(0.04474837283 0.7960571316 0.005) 399
(0.02892518871 0.6923524822 0.005) 347
(0.03188011678 0.9675673079 0.005) 483
(0.0008302279515 0.9186146797 0.005) 455
(0.01217983895 0.715697375 0.005) 356
(0.03926984257 0.947977455 0.005) 473
(0.03604470904 0.5529588637 0.005) 278
(0.03851551862 0.6511957197 0.005) 328
(0.04073955411 0.8596752748 0.005) 429
(0.03405127919 0.8872563193 0.005) 443
(0.01483528424 0.9496077703 0.005) 471
(0.02027478101 0.5112477498 0.005) 257
(0.02168792359 0.9751806787 0.005) 487
(0.03537741294 0.8455669332 0.005) 423
(0.03966188427 0.6970575929 0.005) 348
(0.01638244806 0.7676248586 0.005) 381
(0.04817667488 0.7816797552 0.005) 394
(0.02819723845 0.6561818034 0.005) 327
(0.04599459358 0.9498832468 0.005) 474
(0.01014867781 0.6011138364 0.005) 301
(0.02820378038 0.9781230035 0.005) 487
(0.04104877785 0.9003476924 0.005) 454
(0.01796471005 0.8277654729 0.005) 411
(0.01966912747 0.9786305576 0.005) 486
(0.0005411126995 0.581173356 0.005) 290
(0.02679998068 0.8792845496 0.005) 437
(0.04587849393 0.6192556107 0.005) 309
(0.02179306465 0.6631299338 0.005) 332
(0.03679308712 0.7381540905 0.005) 368
(0.0007357209177 0.8593473101 0.005) 425
(0.002149176573 0.9360711272 0.005) 465
(0.02115919837 0.7068870358 0.005) 352
(0.0457905722 0.8569196973 0.005) 429
(0.004376327502 0.601592975 0.005) 300
(0.04979617496 0.7072291156 0.005) 354
(0.04738156296 0.5374731687 0.005) 269
(0.04088391571 0.7213918941 0.005) 364
(0.03169149323 0.6330673503 0.005) 318
(0.0494249621 0.80504523 0.005) 404
(0.04829387103 0.8338489802 0.005) 419
(0.01971829531 0.8024138506 0.005) 401
(0.03397136953 0.6371114433 0.005) 318
(0.0238874722 0.6032137464 0.005) 302
(0.04490588514 0.6693761372 0.005) 334
(0.005203384528 0.8948230533 0.005) 445
(0.02707823634 0.9205016224 0.005) 462
(0.04464309822 0.6821691476 0.005) 344
(0.02503815233 0.8984951627 0.005) 447
(0.01084136821 0.9581504465 0.005) 476
(0.02153197707 0.7751770854 0.005) 387
(0.04256924024 0.5286829856 0.005) 264
(0.01881641236 0.5929205543 0.005) 296
(0.02612375353 0.6951291091 0.005) 347
(0.003688066236 0.7749502747 0.005) 385
(0.02526948431 0.879828434 0.005) 437
(0.04473550031 0.9966560966 0.005) 499
(0.02104916715 0.6514522053 0.005) 327
(0.03095767027 0.9339288358 0.005) 468
(0.03829044586 0.9042602981 0.005) 453
(0.01273602401 0.6771356555 0.005) 336
(0.03275781219 0.6874194104 0.005) 343
(0.006895082056 0.6168741318 0.005) 305
(0.01156869577 0.7227844483 0.005) 361
(0.03985594341 0.9242643992 0.005) 463
(0.01353964907 0.8903080032 0.005) 446
(0.006853021083 0.6459774443 0.005) 320
(0.03716146196 0.7711103427 0.005) 388
(0.01498473768 0.9916065345 0.005) 496
(0.03323857478 0.8330392151 0.005) 418
(0.00873618499 0.9702191816 0.005) 485
(0.01194901957 0.9068506112 0.005) 451
(0.0476092282 0.7804537188 0.005) 394
(0.01582779263 0.9342971961 0.005) 466
(0.00872258753 0.6601351376 0.005) 330
(0.01984966886 0.9783943775 0.005) 486
(0.0005802422495 0.7122975257 0.005) 355
(0.03867660211 0.7156863003 0.005) 358
(0.04729797146 0.7254569549 0.005) 364
(0.0329041435 0.7607014829 0.005) 383
(0.0333155566 0.6043639941 0.005) 303
(0.04036888198 0.9700597516 0.005) 489
(0.04687748424 0.8467164225 0.005) 424
(0.01302664528 0.8929927392 0.005) 446
(0.01470643261 0.886638962 0.005) 441
(0.005705726365 0.9722498562 0.005) 485
(0.04647855424 0.6560284802 0.005) 329
(0.01883852189 0.8832087827 0.005) 441
(0.02877873086 0.776557095 0.005) 387
(0.009096255064 0.6078931151 0.005) 300
(0.03901952611 0.8144739301 0.005) 408
(0.03639677945 0.6795542371 0.005) 338
(0.04964578759 0.8182167295 0.005) 409
(0.03162499992 0.7152009052 0.005) 358
(0.04382894797 0.7132656234 0.005) 359
(0.01329592736 0.5988609607 0.005) 296
(0.02689733881 0.6809281082 0.005) 342
(0.009289208471 0.9782063876 0.005) 485
(0.04423384751 0.5268164288 0.005) 264
(0.01900519412 0.9351773098 0.005) 466
(0.04146676579 0.7132879854 0.005) 359
(0.0290796219 0.8094080192 0.005) 402
(0.002696652775 0.7309962039 0.005) 365
(0.03559449065 0.820150133 0.005) 413
(0.0001104623173 0.6997795431 0.005) 345
(0.02261783 0.7615101094 0.005) 382
(0.01620172728 0.9194392527 0.005) 456
(0.03495869897 0.6822199099 0.005) 343
(0.02038880608 0.9010196164 0.005) 452
(0.01441117152 0.8149056856 0.005) 406
(0.002161166047 0.713334564 0.005) 355
(0.03711367267 0.5442178425 0.005) 273
(0.04193186536 0.6071596635 0.005) 304
(0.01755669751 0.914027876 0.005) 456
(0.04459915063 0.5157231213 0.005) 259
(0.04323188563 0.9356392166 0.005) 469
(0.04022946724 0.5774439221 0.005) 289
(0.03924111975 0.9180611719 0.005) 458
(0.01621653569 0.8522115958 0.005) 426
(0.0201613799 0.8497809024 0.005) 422
(0.01117624776 0.6575261978 0.005) 326
(0.0171393946 0.5340169809 0.005) 266
(0.009905263875 0.7659058487 0.005) 380
(0.009352095789 0.8578460255 0.005) 425
(0.02640549036 0.6238763368 0.005) 312
(0.02557985879 0.8678241682 0.005) 432
(0.04003612724 0.6134921666 0.005) 309
(0.04764087596 0.8489340366 0.005) 424
(0.02232025698 0.8267965729 0.005) 412
(0.04859008987 0.9867634745 0.005) 494
(0.02470682888 0.8174418432 0.005) 407
(0.007854862956 0.9437877437 0.005) 470
(0.03749767216 0.906454008 0.005) 453
(0.002912662405 0.8223133921 0.005) 410
(0.003813284377 0.6486019599 0.005) 320
(0.0003296711438 0.8525576863 0.005) 425
(0.006085886256 0.8740695025 0.005) 435