/*--------------------------------*- C++ -*----------------------------------*\
| =========                 |                                                 |
| \\      /  F ield         | OpenFOAM: The Open Source CFD Toolbox           |
|  \\    /   O peration     | Version:  v1706                                 |
|   \\  /    A nd           | Web:      www.OpenFOAM.com                      |
|    \\/     M anipulation  |                                                 |
\*---------------------------------------------------------------------------*/
FoamFile
{
    version     2.0;
    format      ascii;
    class       vectorField;
    location    "5/lagrangian/dsmc";
    object      U;
}
// * * * * * * * * * * * * * * * * * * * * * * * * * * * * * * * * * * * * * //


47583
(
(142.0114283 1576.057065 1490.167343)
(-1314.361392 695.9321668 -2759.092418)
(-780.9493934 -495.254431 -382.9641061)
(347.7029914 -171.3565032 407.8172842)
(-1375.615466 911.2680956 362.3190906)
(1011.948496 -584.8640136 51.36652729)
(-912.5485889 270.6098453 1289.126806)
(993.9709322 -72.26268415 -615.4522691)
(3.827507001 -2524.006886 -114.7908114)
(561.7572061 145.8676019 39.29160591)
(574.958332 -1108.80508 1225.321227)
(-392.5497039 -867.8108022 -859.3587709)
(183.135221 -353.3301997 1094.885671)
(-498.4755523 243.12257 -612.013489)
(-625.1789278 1341.283929 -1027.081665)
(931.2751946 -225.1779734 1483.877041)
(-267.4494368 -536.0914814 943.6284529)
(221.5842833 755.330796 1320.204835)
(759.7652606 1047.41046 1249.271631)
(-1545.299153 -720.3326254 -397.8895443)
(-764.4732362 1462.155562 -767.1296695)
(485.2564352 1117.528332 129.3461968)
(-1974.318641 1362.976522 1134.889436)
(936.4736575 -1137.528342 -249.8985167)
(-140.9689549 -431.9368852 905.4827146)
(915.6623392 -1088.453021 -31.78428618)
(196.9810715 -1129.818891 -1042.804134)
(-904.1780415 -437.8566917 361.6336789)
(1402.814909 35.93206817 -552.2672487)
(1796.381059 304.2373046 1834.360285)
(68.49718153 -746.943332 1680.213712)
(-452.1720987 328.8744079 -994.5929316)
(-710.3051905 2130.004946 -196.4380182)
(-464.735724 -1189.704106 707.8775448)
(-597.1417999 -92.50260129 247.5115709)
(113.6962285 -386.1971444 -1835.279125)
(49.90514944 -655.738776 99.69758713)
(1085.647834 -493.8570613 64.41301213)
(1461.487965 1144.432063 244.1230868)
(-1417.386652 -478.3724319 510.8578896)
(1786.66785 -1506.455294 477.9146612)
(1372.395331 1357.299273 726.0114596)
(1207.000687 19.39664996 -220.9980582)
(314.9020393 -1375.961152 1520.321461)
(657.8823604 329.0788119 484.3168744)
(230.7514478 -1166.690804 1881.12444)
(1344.873173 84.01354609 1428.046619)
(-698.8704694 -1223.422667 386.4521096)
(879.9507538 -50.83570684 -150.2830459)
(-129.5955249 -185.3932008 -1037.283506)
(740.5303125 -1034.044879 1095.857058)
(-677.2791151 541.4259694 -450.5051614)
(-95.70773444 -1640.788293 423.1668941)
(505.2328911 -443.270167 54.42456535)
(-885.660477 -529.3137222 -745.0754967)
(386.156811 16.99834694 54.70660808)
(565.1582127 204.7867243 -745.9975862)
(808.2483193 -218.3877722 -2018.873901)
(-1459.248212 1621.289407 786.3405758)
(372.5669024 -1831.540526 -101.3712314)
(-1516.128482 -52.75098091 -1501.492412)
(1100.694378 -1436.622335 -1245.454394)
(1957.402243 1406.933945 -154.4046479)
(-555.0851305 -426.5863373 -91.63778698)
(343.670742 116.5704824 -410.4546773)
(-506.8743488 305.4509469 659.6674393)
(1159.773479 289.7271098 789.8009643)
(1287.506264 1562.528488 -315.1637028)
(-316.0244766 89.12204507 -35.1543083)
(-580.0305934 -377.0822391 904.3687726)
(-1196.6494 -969.0492512 -370.7410141)
(-505.8955882 2.153243264 -1042.700432)
(-1105.435011 11.56055706 336.6534981)
(956.5858566 -817.2636256 -170.5511117)
(-54.53574641 604.1821329 -515.883693)
(852.4631168 7.537076275 321.5943192)
(-166.2714841 -669.6548159 976.0204297)
(-687.5744399 1546.240556 375.4150838)
(110.0215294 -794.7604945 -422.3444559)
(-587.518192 -716.2118467 358.4719326)
(-280.2897507 -611.2938676 1411.200367)
(822.0062227 303.4489757 -919.0537654)
(915.1774774 -1392.794862 -1541.293075)
(-50.49305085 -128.1395613 151.6544962)
(486.3649089 474.4059454 -417.9582866)
(-320.6955291 -508.1480063 -36.22512427)
(715.1556921 2297.295875 376.7647315)
(904.6109171 -949.9735632 1693.6091)
(505.8537946 837.5764522 -1326.093463)
(52.36509459 -1248.610982 70.96251635)
(398.5955609 1240.998352 -1060.198626)
(573.8221587 -134.0437051 914.5704583)
(844.6405746 602.2921216 -206.7494997)
(-354.4120814 -914.3057262 943.7410546)
(135.9050125 -312.3745633 957.7389698)
(-49.88508553 -962.9189068 -239.9058184)
(-311.4936815 -2062.995537 -304.2156645)
(-995.4427394 762.2731088 183.5160088)
(862.1171224 619.4431702 -440.2079781)
(-493.5568433 321.9306998 15.36114669)
(1698.620167 1354.014987 178.6879261)
(-177.0846228 964.705469 -1457.789718)
(-77.40980245 1672.961117 -1135.10406)
(74.57086135 141.4551098 424.4175939)
(910.2189309 -1043.512539 -1323.699265)
(-316.4911721 1086.317037 -1878.220971)
(-271.2638403 480.764979 199.2256367)
(-472.742148 86.36731877 -1387.77232)
(946.7990789 -1394.72838 -1000.132841)
(717.6492839 81.36781759 -526.3478266)
(-409.9234254 -101.3737449 156.9956515)
(-243.8519997 -517.8932894 -1696.62136)
(-397.5967134 -1787.229332 881.7273757)
(1761.761465 -737.1234795 -940.3442763)
(146.8019189 118.6421991 -858.7545293)
(1070.367049 -1203.576447 549.8337103)
(411.5936719 -828.0456414 1565.649066)
(2740.130122 -1039.090787 1003.019095)
(187.6618337 1811.979658 -631.5900002)
(837.2321245 611.2180789 -749.2036991)
(928.447286 1194.471592 321.4136732)
(-513.5580506 -520.8179854 -695.9978722)
(2291.991045 78.68762849 -712.8843489)
(-855.5794059 -734.4356187 -433.9764309)
(123.7941244 174.817324 -154.6538882)
(-344.9191245 -16.78769316 -837.2041756)
(-1582.264885 -486.3037857 -900.4991762)
(-828.172223 671.5100758 -161.1295421)
(59.93947092 518.7376822 430.5334313)
(1406.373772 160.7526604 1116.590568)
(-793.905678 -465.6771166 635.5064057)
(1838.476032 123.551296 -1005.54949)
(-722.1664291 239.4286808 -1059.385436)
(-317.6403685 -2222.345872 1812.80151)
(265.3386533 -708.0262322 2039.297703)
(-278.6232106 18.3990912 -1639.749281)
(535.6267197 -822.7583847 238.9025133)
(1596.053862 354.1179482 -1019.124724)
(-85.09954307 -1525.023849 474.627607)
(-1555.55573 -505.2323009 1353.809846)
(-1298.090581 -1229.447813 189.4042392)
(-13.12338134 -602.6690867 -217.7081625)
(-495.6634428 -1082.450947 1006.128663)
(-157.1171193 578.8349067 -634.4912511)
(8.596641934 -349.2175542 -378.2907922)
(1449.331623 -422.0982479 594.9578603)
(-2445.165569 1346.504723 1277.979869)
(5.48628715 -768.7533301 565.8357976)
(638.628075 -803.987106 595.8426927)
(-38.09767766 -2221.6857 -354.480742)
(-780.8842299 -53.17737866 916.6335706)
(-307.6005444 48.78832026 485.708047)
(291.6957253 -248.6143098 -117.00586)
(528.2571641 183.2764572 217.8673106)
(781.7320033 328.0927773 940.2276487)
(1.3481087 120.7190102 481.7390618)
(159.258495 -590.8542832 -184.9167606)
(-1615.476648 772.2395738 1876.742695)
(1933.931694 -95.35811096 1025.737213)
(-387.0448229 -2132.258952 395.3787694)
(1040.698061 -141.743347 63.80495239)
(932.9251324 2113.063406 -461.0664349)
(49.45692356 -120.5256951 -480.9967435)
(193.6476383 444.6164471 -342.5964781)
(-288.9309035 512.9930272 -78.96023793)
(-113.3993906 -1323.300608 -1356.550314)
(696.0133427 1074.737239 -1775.264884)
(-651.4529269 -290.5107457 1177.47782)
(77.59706486 -584.9750434 -2013.874948)
(453.0755944 -429.9760973 -465.0318393)
(1743.856503 -1428.931216 -886.7141583)
(1987.685535 -157.2027232 -776.3345333)
(-1318.795802 -673.7364691 -6.694872223)
(-725.9479618 -1048.968034 -517.6825971)
(2370.990355 -203.4548331 -1235.863385)
(-5.517747439 797.4653033 545.2527287)
(441.0535732 1078.399395 -2191.446525)
(308.0077637 1378.230663 528.1361936)
(-50.55935757 451.5149918 -357.5185102)
(678.0994544 253.3782996 1715.791498)
(996.4294956 -486.1774971 2362.176063)
(-712.7443619 1232.973674 -324.212659)
(750.4634347 496.8835781 270.7461792)
(-12.19017842 -38.5482565 -2165.800183)
(703.1983688 691.1050382 301.2189965)
(74.88879037 264.8561803 -1669.203359)
(1685.882083 -1670.38498 569.2515503)
(1427.668087 -621.4832622 -319.4103449)
(1291.269857 50.48249933 -664.6128412)
(860.337513 -236.6211885 413.3734713)
(755.4063026 -1282.651829 126.8723369)
(1162.837116 -1599.864397 1262.962382)
(-849.2086078 593.7147834 -506.1278343)
(303.4800143 1010.334586 -328.9151846)
(1178.521239 642.8774244 -40.13490154)
(1333.887557 401.4517948 1124.783509)
(-323.1148165 89.47487777 -55.21490656)
(-45.59366513 158.468729 -1039.450767)
(278.1580645 -129.7960976 -614.3269405)
(1322.720876 103.2492811 -857.1583561)
(961.5939894 504.053291 1210.014623)
(246.3357748 199.4075322 -276.3309542)
(-118.8355591 -925.5188406 -759.5336789)
(-1420.817746 363.8947012 1287.82172)
(193.8112316 753.282296 701.5829124)
(752.4828346 -119.1486627 -563.3941076)
(1203.352821 147.5766887 -294.5652623)
(265.1893498 -16.33674439 -76.17255476)
(345.7760008 -422.2583412 -14.30870021)
(861.536331 419.7074597 -378.6703391)
(-195.9653856 -562.7441647 60.61418231)
(-621.1471534 -399.6110551 1194.900332)
(308.1071273 165.6468529 53.4515804)
(731.5373759 -1540.697304 -226.8949368)
(592.4180249 -1982.620517 565.6984322)
(246.1869063 -857.5644157 -108.2062029)
(766.7880131 843.1623142 -169.3395927)
(-730.959439 -258.7153549 516.4622126)
(-279.1744438 487.8757679 140.9208829)
(490.8476863 980.913779 699.0122642)
(899.5308798 -133.341051 727.1307799)
(954.3955289 -215.0088841 1143.847179)
(1292.356529 45.59884569 -526.0757985)
(835.9881681 -2694.460241 506.3395073)
(543.8317435 206.343239 472.0626408)
(826.5672026 329.188278 -256.4782038)
(-37.00427262 413.4166804 924.0172363)
(-116.790224 61.59455558 456.6773852)
(765.5343808 -668.0816454 -688.4914696)
(172.3305959 -675.0414733 1910.531337)
(-1315.184666 113.3890224 1048.195829)
(181.981783 368.9075722 -83.29543774)
(439.6754483 -1862.527118 -46.95897513)
(1005.008702 364.3615373 -340.2595036)
(829.8326299 1477.121293 1560.612035)
(-794.208633 129.8293499 549.5082002)
(-790.5678926 833.3416529 -901.7348116)
(938.5449856 -286.2610755 345.7109351)
(292.5251178 -628.0853994 272.4122284)
(-982.6154534 752.0293861 1230.834738)
(-405.9075565 348.4056339 -402.3377193)
(-1044.363787 567.0212583 -775.760898)
(-1243.258379 526.4227415 787.6161467)
(383.4065672 -631.4075607 721.3077528)
(564.778388 173.8106362 1578.543211)
(699.8512081 -1170.082759 37.21351047)
(117.5653983 551.6314831 993.2355762)
(1035.350378 219.3379791 866.5672182)
(395.9502546 275.8309604 -269.6879618)
(-533.0759725 320.8424211 698.0034956)
(1833.354719 -595.2136085 -731.0589738)
(1718.130345 -21.41940128 -1160.024436)
(1575.201526 626.4923761 214.1593293)
(-968.8548199 -502.5786142 -1050.230147)
(681.5770989 509.5148204 1413.868309)
(520.5956212 875.748973 1296.454628)
(801.6200675 -834.2609178 -872.2353977)
(-319.7544882 -373.8952906 -937.3398879)
(1412.908302 1545.615592 -1332.263257)
(-215.9047357 942.5134388 -493.2051568)
(1573.5122 -664.8637518 -124.8271751)
(-371.8214387 627.8995614 -1039.714528)
(-571.4886236 161.9353609 -1398.747629)
(-512.9198798 1948.182768 -1770.443961)
(-413.6613964 926.065241 368.6591153)
(-771.0483693 -15.88263141 187.0092281)
(1692.596112 -1495.009081 1271.435859)
(577.2574694 -1012.436432 -696.1350445)
(-308.1378748 -1187.917102 18.92136252)
(266.0208689 -1440.013271 -1062.264634)
(879.9626114 -865.3915724 969.9354755)
(318.8485457 11.05064522 -958.1608845)
(-7.235259879 147.9718116 -938.9323965)
(697.2913804 -645.2685984 345.6698653)
(656.9839063 -740.1058137 1287.312095)
(-708.1121835 1320.893091 -644.1682146)
(593.7579477 229.9415486 19.00329175)
(1982.628835 59.91631324 -293.0008136)
(-627.8885439 -1117.056023 -1356.513353)
(-1034.674042 367.2978765 -615.3913867)
(-70.19184001 112.5243912 1107.8812)
(-1048.952663 637.5220645 -1717.126969)
(344.0562831 -434.6158295 -1215.148962)
(776.1621716 -933.5033625 2058.728387)
(580.9548198 -138.2367401 804.5408764)
(84.50659932 1274.81644 815.4502277)
(390.8217118 565.3123245 871.0435389)
(-249.72291 -787.0911712 717.0132428)
(208.329529 371.3108294 1265.253402)
(1170.125711 -1296.147453 -1180.593216)
(1054.966256 -334.6534043 870.4476963)
(-420.2422927 -1044.660409 92.22795491)
(759.4322564 158.9152896 -418.5277128)
(1647.170352 -711.1355259 -224.9146045)
(-534.5556474 -958.606888 -836.6784975)
(-434.4371152 -736.8816144 -1315.940024)
(-1377.121659 -49.34449956 -65.18320828)
(836.5743769 266.8729742 212.0414496)
(650.6013276 547.715174 -661.4783958)
(576.9561926 -1087.8711 304.8217939)
(660.0803233 -1642.529073 -568.5811554)
(-364.7152991 -731.5612419 1213.617816)
(-2.161081941 -381.2672324 -134.3270812)
(-1175.747309 -1718.304687 -466.7503955)
(547.2145241 -654.501414 56.65465876)
(327.9151683 -615.789872 -1301.043582)
(-2176.031709 1094.495327 -1044.980076)
(912.5828715 477.1024937 341.3784708)
(-1516.63125 -667.0475392 926.5539201)
(-842.7117029 -1118.041528 457.4244209)
(-147.5191266 1040.010221 -832.2295205)
(-153.6873828 425.9618738 -1165.115603)
(184.5766598 -1381.171825 -629.3832149)
(478.7149523 827.5903001 317.0915123)
(104.7531688 517.9663911 2053.998403)
(-203.5672085 58.01418663 496.891469)
(-521.3921119 -581.2455986 256.8346931)
(1594.821544 -1085.437194 -288.2207222)
(-1104.938158 -105.3254906 800.6408489)
(159.5973152 32.95019807 -917.3365971)
(250.6524713 2601.04401 1168.481722)
(-48.40140186 -571.7908077 -49.58503981)
(775.6713598 -1288.990662 -1644.345961)
(-556.1182341 -49.64858224 -573.8290626)
(294.4543305 -19.79412348 408.7650095)
(384.4023916 -250.2606815 1443.117617)
(886.5067654 1163.956532 770.7940282)
(363.6497261 44.50380147 637.8039456)
(-354.1674246 428.0875403 109.0848544)
(881.0036779 1164.850338 130.3658612)
(587.2273887 -1187.127294 569.3497681)
(-921.1872316 1054.362224 392.6658368)
(-2147.80787 599.7684066 895.6489365)
(232.0096617 -46.02696554 1019.793182)
(1300.526662 -172.0403457 1886.701908)
(719.8326254 648.6378246 -143.3352066)
(-539.4826208 -448.0516327 659.0761319)
(141.6040926 1172.440946 -1120.789301)
(-1822.942728 1744.097297 -300.178061)
(1011.89168 54.01324719 143.2763665)
(2028.539692 133.9529793 -1442.470066)
(541.5842462 195.030808 645.7526302)
(-1608.276673 -129.7332297 448.5168243)
(960.0215013 191.8427529 927.0953432)
(380.3965186 -397.6799215 -1419.155452)
(1194.614443 -1094.984394 -309.1942734)
(953.9424736 44.1771556 543.9106777)
(-697.4474657 301.0599772 -2242.069587)
(270.2175138 -1617.118637 -880.5450362)
(1231.987339 -369.0734866 202.6641289)
(-58.03376733 672.957989 341.0248953)
(221.452531 -308.3744674 845.9032242)
(603.3971978 -902.987052 720.5683143)
(369.3594756 549.2849466 -438.905981)
(-747.1555701 642.6397733 976.2176642)
(-71.93167879 -680.143146 1409.324199)
(1476.289967 -64.89952243 -1287.967696)
(1739.476613 857.4654898 -790.2380028)
(687.9074599 410.1299019 593.2187381)
(1.36379291 -1903.644282 987.8864481)
(1478.703425 883.8161152 -849.9469127)
(1639.840962 -356.5441337 1031.586808)
(-863.345813 -827.9941626 -58.91101721)
(217.5033261 183.4817167 -658.2745998)
(-580.7307883 1428.77267 -888.4080056)
(-12.27057807 -926.0473339 87.89133517)
(-215.5971772 1879.279514 -716.8163263)
(1003.741553 -864.8093557 -495.0247772)
(750.6286055 1317.069634 -1243.883973)
(-499.9302934 -199.8004058 734.845855)
(1443.401457 -335.8433783 865.4225867)
(2718.620594 -587.1740609 -767.548629)
(-59.85095803 -1528.640018 -634.5185121)
(-387.4104437 627.1558903 88.56410656)
(2395.06636 -397.2977026 882.3767096)
(-730.044829 -633.0514084 -8.961676828)
(-284.2924049 -214.9200431 663.0083672)
(-1495.331228 536.1085406 148.1861371)
(988.5327738 438.3822028 539.5658533)
(952.5858013 -873.2985298 -822.6789816)
(414.2142557 -586.2734469 -492.4120942)
(356.413832 871.3511522 507.7136453)
(2615.027505 -332.3194926 -2571.444332)
(1018.120361 873.3177463 142.985162)
(668.8344817 -189.3247573 -1197.814977)
(375.6005195 73.02224201 1829.31984)
(32.81297313 664.9879469 -195.9690166)
(981.000053 369.672905 -725.0072646)
(349.7728594 -1025.215436 -1462.104417)
(445.1137723 599.5107367 565.7187059)
(-1031.794016 656.744452 -123.3637183)
(700.1478656 -342.6173038 184.7720811)
(2483.111959 -1177.496895 -651.5301097)
(505.1828674 -507.0488129 -157.3743687)
(1327.972603 -1355.230194 -5.195981651)
(-408.1864234 442.19604 1056.28214)
(-786.485445 -1284.313387 135.4972689)
(1110.029545 -483.0871275 -708.1058848)
(641.6793461 -943.1785224 -1978.231168)
(761.6032891 -733.5441 1445.647257)
(302.2925437 602.2180568 -2314.900916)
(636.954208 142.6657143 -604.9038075)
(458.5265941 515.2654868 655.4500328)
(1149.916013 -350.9193233 -105.6104264)
(984.2276268 502.1200805 -765.6120166)
(-402.399732 250.3532423 -176.0539756)
(-970.2721706 -2457.564605 645.7833228)
(214.335781 449.9700388 -1231.514053)
(-559.5517113 758.6143435 453.0090784)
(-1669.98015 -364.2722166 -432.761088)
(-523.7146491 -247.9803394 181.9181748)
(1618.799981 -1075.04395 -165.3371383)
(1438.179227 2382.598676 -257.8459975)
(-516.2921771 -1164.844864 -647.8130504)
(438.9158975 -67.46986349 -963.2253312)
(762.8553735 -899.9927218 1467.129251)
(-553.3601731 1749.73988 -618.5477807)
(-78.7982992 670.827327 673.5788993)
(162.9890536 -666.5444626 -1029.994175)
(-418.5348971 -370.9379915 1318.828797)
(-296.335389 1917.899936 293.7497536)
(-374.0178884 246.6733462 627.4408723)
(-182.8362921 -502.1243111 63.36768977)
(422.5956294 -172.1030612 -276.9463904)
(488.853454 55.88407928 -520.0156441)
(229.7700644 -91.68462264 -633.109533)
(-89.61901863 -104.8875874 284.6076061)
(348.3051275 -763.1730375 -1664.018246)
(-65.49595202 -2108.518859 -27.15731713)
(2567.144868 -1049.058397 1509.72938)
(-759.6508939 -2558.771342 1333.481189)
(577.9058161 -2152.54975 130.0531124)
(581.7325835 -1087.231508 494.1590923)
(680.5301839 82.1471025 -345.3221803)
(1820.603322 32.54266416 598.6145962)
(1108.324346 585.6544743 -790.3385169)
(339.9978169 -1321.041773 883.8395276)
(2229.209393 -580.8994435 -1197.210936)
(537.708168 966.4905358 -265.4380426)
(1451.263034 -390.3980608 -1149.648362)
(675.5163444 980.7478138 284.1925317)
(-1061.480286 702.7082524 -114.5773354)
(-553.8000048 787.4358452 910.2753475)
(-791.2340275 -18.65435349 604.1862874)
(877.6391315 747.4048257 985.5579952)
(-6.856254097 -20.34871489 227.5962557)
(-159.1554043 177.0188195 -2244.110727)
(1095.571403 -147.6639661 243.458455)
(-1415.062713 92.30757685 -208.0955853)
(1116.217007 -546.8301952 -1160.762307)
(1254.352346 -623.6158461 1189.005083)
(-952.7088155 -1268.109251 -694.9887989)
(-322.8166219 -617.8307693 606.9047841)
(2238.850757 377.51076 702.6624091)
(83.77705882 -1241.584593 491.0114422)
(415.1745212 355.2539339 -1341.219642)
(-544.5610217 -1459.2458 -1028.322721)
(119.7699694 -447.8838544 961.1613535)
(1369.340914 765.8641151 -625.3292328)
(873.3032273 -538.8144322 955.7110757)
(620.810049 -439.0138047 106.9697175)
(-108.1821407 -19.65112366 1524.54296)
(-1397.425442 -444.6762259 1330.34052)
(1280.814799 -925.8693147 568.2633305)
(401.7219707 -149.9988425 -71.96011434)
(1696.310273 -685.5142286 -0.2058494927)
(649.2172591 1020.82542 -227.5453927)
(712.0740568 91.49866572 712.2882666)
(298.1239398 -1563.856491 -1059.072531)
(785.421299 -836.9024783 -80.59140202)
(188.6950534 1142.662974 909.9165629)
(395.0268183 176.3463828 -200.0179005)
(4.03156032 -148.0686144 -1487.28007)
(-1235.511015 -270.9510559 -54.10148371)
(733.0026006 165.9439388 491.5430949)
(-434.8338747 -600.3953492 -1658.687612)
(442.5307922 -260.9395395 16.1601351)
(-1445.66755 -1477.789205 -1125.547257)
(742.9005415 486.0392962 808.4621874)
(909.6243968 -895.108509 589.5937772)
(-427.8700549 -577.6789587 -587.7131259)
(-254.8387777 388.2732119 -661.6042831)
(-978.0638901 -730.4522201 -102.2924624)
(674.0380654 386.4143975 -200.9268291)
(-410.5158423 1155.829307 3127.360657)
(-1230.39305 652.8827856 1055.037119)
(1019.226643 -150.1557515 693.3083217)
(-439.4557585 -1923.379706 1484.462909)
(1068.075547 368.8832351 -725.6551328)
(-128.879092 -289.6855095 49.2558578)
(-675.495127 -102.3152077 44.36028258)
(-413.8269126 -1402.315096 -648.4353994)
(-98.15255312 -513.5451152 -1082.713853)
(954.8421092 226.1081358 476.6618417)
(994.7055785 967.4262066 1176.875263)
(1312.909656 157.2078024 284.6668769)
(-940.9701843 371.4590789 -291.1766377)
(-233.5357097 -935.8067232 -2556.880696)
(1324.517717 -1108.817664 310.3254804)
(129.1589351 64.84828625 -757.2718132)
(89.8666666 -1062.218434 -88.39170791)
(-1355.908347 908.451878 -520.9678217)
(-172.5954355 -87.75901084 594.9281836)
(1227.374588 1057.26825 572.6695192)
(695.1643659 619.7389611 527.3423975)
(199.0924154 -618.4936795 1093.84322)
(264.7156197 699.0989677 58.05745175)
(-585.124705 92.58041613 268.1368295)
(-1008.956827 311.3755108 1466.744656)
(560.8148649 912.2014217 -1085.76298)
(649.6165505 -553.3965226 -1253.850736)
(295.5161141 -1060.05665 431.7448074)
(-778.3296324 -353.6118421 -209.9803054)
(-840.07875 396.8654338 -356.4838749)
(485.3792118 544.4167207 -350.5287445)
(261.9575539 -285.8286501 637.5154778)
(971.3922702 -883.3755659 -1188.291104)
(-1953.259619 -715.3555491 -12.19009079)
(871.3772307 -992.3826217 182.6769073)
(-148.6247784 -459.9167058 12.64992715)
(-483.7044738 -667.5908074 608.9397627)
(-309.2563578 -1915.279431 -38.74383131)
(-451.8530147 -699.0185799 77.42092557)
(424.3752511 -247.2371553 50.838382)
(-621.5860368 -1677.910434 -1021.787463)
(834.3356357 805.1328404 -314.9300568)
(-288.4393006 -878.3309334 284.7747273)
(312.2055152 -960.311786 882.9978306)
(-169.4912252 -282.9072983 -169.7211471)
(-1156.43704 -747.3290972 934.7139548)
(-247.5427541 1827.090051 -301.5234132)
(-732.2379368 457.1442039 153.1067346)
(-1421.122002 469.4800186 -879.0179125)
(-238.6398983 1411.590704 814.3902028)
(95.16883106 638.7163251 -486.3126468)
(263.305462 -424.6972014 777.8010473)
(590.3317601 951.9452048 422.4167898)
(749.6315283 -670.5215991 -701.6113713)
(-266.6660991 694.7739985 800.2609758)
(1765.253973 -393.1406631 367.9562731)
(258.5629597 836.4924418 -779.5547574)
(390.6703585 628.3029565 -1783.67871)
(204.1984293 435.3769445 898.4379601)
(691.8148913 -745.9088335 289.2197511)
(-532.5110133 -855.2716603 -509.0119256)
(2074.621884 -939.9455762 475.2482365)
(650.2740304 1469.987041 -1225.663442)
(179.1018046 -1012.343764 -729.5042251)
(647.7759895 -1480.208732 1721.338102)
(-215.4711241 -801.707328 -169.9706882)
(-476.2827112 171.9905938 -876.174905)
(-400.6160951 372.6615495 -482.3224287)
(-1128.992764 190.4919062 -1298.719558)
(-837.0892703 -1534.307683 516.3333859)
(1615.557198 251.576714 1599.364476)
(1383.817323 -655.5466783 449.06966)
(-1412.137226 29.60004038 1094.916544)
(1180.611785 -1380.798007 165.4221477)
(-533.5539543 -915.1550495 -460.2750412)
(757.4585136 782.3898854 666.3357222)
(798.7463831 -596.0392777 -1296.511466)
(-132.4638049 -916.5439611 911.6936753)
(-495.2685265 -1010.411843 642.8860335)
(-89.54871211 1527.958791 -792.9233646)
(-577.8254259 -5.391387614 -861.099905)
(599.3599866 575.5865831 360.7678606)
(2008.541952 -582.2631207 285.2392523)
(637.2713582 -531.6273493 -191.1118558)
(103.5470823 -283.6029569 1346.966099)
(1632.124957 -795.7613291 491.1624108)
(1197.138237 -29.63105318 556.9423975)
(269.8804604 572.4238394 526.6800023)
(500.6835109 -894.8614638 -1180.304723)
(1493.484995 282.6966221 369.2689736)
(-537.0758168 13.27986019 51.17418481)
(468.8794262 -894.4510753 -749.9210495)
(495.2552805 703.6723766 1237.763557)
(-706.9116928 -31.43875601 -369.2926195)
(584.0778602 56.04338853 830.9119673)
(713.1291311 -1682.783088 925.3141987)
(-1208.874484 974.5893094 636.5357747)
(1575.472656 -1288.145073 -464.8922375)
(-1217.76373 -413.472007 797.7694681)
(793.7583261 -1311.022849 269.780446)
(772.6592878 -1242.472958 839.1782623)
(-695.3497682 -695.5454877 1877.476952)
(546.6788872 1059.192027 -98.8735534)
(-349.2034997 -875.4997261 -102.6700239)
(-1715.6288 -243.2695227 238.0953738)
(-1094.371529 421.6203715 -723.9297002)
(241.95863 -478.5975175 283.5621705)
(1006.575258 -259.5235275 -192.8266834)
(-335.0048967 -1.685151465 -1086.995087)
(690.1378496 -791.1687681 244.2673108)
(41.12318036 -710.5888202 -1188.70852)
(792.232516 -1349.822447 -709.5221299)
(1309.583582 151.784988 -804.4018117)
(1293.250483 653.6287421 812.5974049)
(-938.8239641 -402.3185288 807.9993135)
(-574.9207361 -140.9727039 563.8576136)
(-577.7700356 379.7132387 487.0596013)
(228.8539095 -294.8816094 336.3850536)
(679.3125284 245.674174 -343.7479419)
(-881.0793094 -947.7594017 1078.068948)
(1666.927532 337.6806158 649.0063503)
(-692.3050237 -768.8632466 1398.688674)
(127.6700722 1293.193093 -1813.894817)
(69.20978808 -475.0196774 517.1985059)
(108.1700065 -1357.247547 237.7443023)
(664.6411446 970.1043817 491.9244757)
(-385.4467776 -1547.346491 477.3508005)
(460.808858 350.0573302 -2142.556353)
(265.6577583 -226.2638349 -2268.52065)
(259.687596 -106.1445296 147.3464217)
(1243.62145 -362.5175426 273.3173619)
(681.8524411 340.7770667 508.0187682)
(938.0492452 -590.6638576 529.8155101)
(1117.86381 -694.8310734 1270.631644)
(-103.3588492 -1883.749078 -579.1450047)
(-657.9412224 905.2580908 -526.6377615)
(670.4361566 348.0211144 -1220.032737)
(787.0488845 2352.362746 -1067.968882)
(2299.057818 -941.366005 -33.10974473)
(1502.923927 93.74080808 -1206.788867)
(-19.73892191 -505.5444235 -509.6761827)
(-654.8981955 1503.349993 797.8041139)
(210.4029615 843.7006459 985.9271299)
(1303.946309 528.7106781 -1608.831885)
(-495.057636 -221.7987769 -641.7222726)
(-754.9735108 863.5959316 203.6828366)
(1584.479576 -489.1074415 438.7464845)
(-163.3342268 396.8219634 38.61815248)
(1159.609272 1098.860929 -461.5654308)
(-773.484966 1184.254608 -896.9779906)
(-524.9671326 163.0653054 -1089.54088)
(63.37036543 1141.823593 -591.6552979)
(260.46932 -309.0095089 -491.1944322)
(85.84734645 -343.8463345 282.4654116)
(-27.7663929 252.218874 210.3824491)
(1839.87572 351.8266402 20.6426009)
(-694.912603 -946.5411187 1372.465185)
(137.103175 -495.6410538 142.0443876)
(699.9165868 -1732.983684 978.8332616)
(-254.0189896 253.8716132 -293.070178)
(594.86326 -1009.104201 -737.7118519)
(-10.05661876 -1662.643276 -265.2959851)
(676.3312193 -277.044007 -664.6928041)
(1568.162867 -293.4038663 -150.8678016)
(761.6932694 806.7272558 1525.291319)
(-79.88594885 -929.1576068 -611.493457)
(-80.40993345 737.6617305 -1382.183188)
(48.86002074 -246.4135577 -1068.897287)
(-405.4943218 -1053.047032 -371.2371847)
(508.0201243 -261.2676078 668.8511885)
(177.5878909 -576.9922775 -400.1390315)
(-1099.715479 990.8607224 -2040.6617)
(-560.1053296 -54.11715498 -636.5516307)
(-413.5551655 134.4826041 770.5911323)
(1457.234846 -741.1791474 -184.0869037)
(1645.896132 54.51771866 -443.4430292)
(2277.22406 -1319.468666 -577.7991421)
(-592.372383 1174.601229 -745.9752494)
(1184.26387 -1190.885763 -828.9786879)
(1444.153517 410.9860501 -914.6041795)
(-2104.993882 -160.6658681 831.9840669)
(-381.9890276 -688.7697231 -307.7907429)
(1139.474698 962.1860358 -54.59850121)
(-241.6323966 -741.2992002 -349.6045964)
(466.5188966 336.3133835 1098.7028)
(826.7353001 -1065.198618 -118.5463768)
(737.6050794 83.5749591 -553.9982353)
(-189.7474497 1252.055554 -541.1630052)
(1207.882629 144.2861369 377.0052915)
(-760.8134433 -28.54913575 1407.328298)
(983.71202 -136.1328979 -382.7426082)
(748.1036913 -104.093797 -760.384497)
(-181.710453 -1350.104779 1381.545131)
(-832.3675801 1156.525851 -361.2768387)
(517.5564075 1032.543203 -1354.006943)
(314.9425823 -1071.164944 -399.6103895)
(10.83282264 -1025.79718 -849.5427738)
(412.4777496 1099.255183 12.1243426)
(-938.2511922 -1295.63952 -281.6914363)
(560.3715201 -865.6274156 821.498357)
(409.3194388 -1547.380792 -901.7809038)
(1089.693407 1582.490109 -810.7057991)
(-962.6561039 -980.5053146 -442.9255528)
(-430.3443735 -1525.564073 779.3174817)
(415.4328456 -271.8267526 -569.157528)
(946.5837582 323.9790183 -11.81106664)
(779.5264295 -1305.000904 -8.526984445)
(715.5090297 -2259.110221 1542.256356)
(236.342827 -606.0559871 652.2341759)
(-937.378012 775.012717 1365.572846)
(-240.4930064 356.682984 -148.6475786)
(449.3667963 -303.8979202 -637.2422187)
(1584.070529 423.2856164 -1035.936767)
(-52.20833019 337.7559638 -44.64446442)
(748.5871698 -430.9469991 -1012.052981)
(-2213.944358 -1339.970832 245.3413298)
(1612.530568 526.2223844 1144.93527)
(978.6884506 -575.8969695 443.6494076)
(260.999385 -1268.809866 -277.9964581)
(993.6958232 158.4544176 -315.8527882)
(1669.076131 -362.7737752 885.6154164)
(-1400.923275 468.913078 -74.34643424)
(-398.6774247 922.0047939 -2128.477486)
(-106.4246746 -424.7978376 440.1445075)
(-1176.257746 -95.9639941 129.7308557)
(-815.4805237 -866.5326338 2139.523666)
(967.2733206 604.4407716 765.8699871)
(-713.9238346 -1194.935855 -231.5157798)
(704.3369747 1569.977834 1765.500895)
(-805.1177262 -570.6006394 97.55413121)
(1948.867933 97.54138634 -1725.419928)
(-937.216905 658.1540065 -145.2038477)
(-114.0572432 156.9478838 206.7449594)
(-313.5925996 146.3020064 -884.0532887)
(2077.37478 -496.639803 -514.4448153)
(-420.8977628 -756.112763 -2092.222895)
(170.2596903 -1230.276386 413.5317041)
(861.1801276 -328.8447748 118.489005)
(-188.9880316 262.8553109 569.1299998)
(785.9497404 -952.3925199 -210.1993094)
(744.5945315 -1058.480664 -618.8033414)
(93.6947759 -1477.177694 -285.1627057)
(-287.5157116 -400.7631886 573.3380054)
(-738.7326564 -70.29407072 -2418.654882)
(134.2359595 -2469.909614 452.6478063)
(362.3583197 -357.4756599 -42.66665071)
(215.5352687 -1323.281705 1241.571139)
(-496.6137875 -1137.551202 -60.05680386)
(1510.315068 555.1982164 -373.9014551)
(524.2799348 -915.2059923 1250.961735)
(-237.0285282 333.640276 671.0284358)
(694.7769398 658.6908375 -552.1601718)
(1331.026636 733.6863885 1355.707287)
(1496.738062 1852.80147 -619.3764901)
(591.0377868 936.5100993 -1243.471376)
(510.7120345 -514.3109736 -175.9326636)
(-788.0634818 818.228512 501.4106142)
(1141.620218 -573.1540795 159.069562)
(10.92999302 -202.1966101 -310.9732371)
(-249.8776009 -1132.840746 -703.2413577)
(-140.6855982 -158.7664747 -81.65307953)
(-649.2874437 455.7107072 -1489.868068)