/*--------------------------------*- C++ -*----------------------------------*\
| =========                 |                                                 |
| \\      /  F ield         | OpenFOAM: The Open Source CFD Toolbox           |
|  \\    /   O peration     | Version:  v1706                                 |
|   \\  /    A nd           | Web:      www.OpenFOAM.com                      |
|    \\/     M anipulation  |                                                 |
\*---------------------------------------------------------------------------*/
FoamFile
{
    version     2.0;
    format      ascii;
    class       vectorField;
    location    "5/lagrangian/dsmc";
    object      U;
}
// * * * * * * * * * * * * * * * * * * * * * * * * * * * * * * * * * * * * * //


47581
(
(-854.7018946 966.2801257 499.4038454)
(1030.599561 204.0251301 -90.07429308)
(-347.3605535 145.9247594 -373.4589323)
(346.5322007 -230.2489114 -282.5955384)
(-175.1534746 -119.0360023 749.4532674)
(-583.0866343 -775.8452145 603.6323955)
(-356.6947177 641.131886 74.48583846)
(2560.852413 -1172.184757 -774.6957318)
(299.5607288 1521.369363 1331.727383)
(-384.4963292 78.00618883 1389.118411)
(120.1555248 -340.517437 384.4328856)
(743.5845338 24.10669604 71.26734114)
(52.09102306 -454.6954701 -387.3482066)
(-1366.781306 657.6667202 811.4124212)
(-171.0421758 -1753.306241 277.8114383)
(-546.5213897 203.9059377 691.0584655)
(1017.242073 -613.1848065 118.0593479)
(817.9369436 -356.4161104 388.5443818)
(-182.3696817 -110.2522148 -482.749583)
(472.6921715 214.7899689 666.701459)
(-955.1988829 -663.2942441 633.406952)
(-280.0689173 761.195702 393.3162243)
(91.27950715 -18.76653824 1682.830117)
(-256.074069 -1121.860161 861.7933339)
(130.5576791 -220.4761429 -901.0186829)
(24.99517394 -1216.328893 171.7731728)
(-592.6283427 633.1263949 -658.3028033)
(677.6842559 275.5962169 864.0836146)
(1474.646278 781.926103 -83.31081313)
(1014.370432 1386.266553 -87.02051373)
(-337.1051351 1913.491652 170.853689)
(-547.4745428 942.3417284 -760.5790663)
(1669.895467 -584.1930876 -546.8592119)
(917.3938426 216.5358515 -792.503851)
(211.5800732 -1432.814041 -178.8762186)
(111.378967 365.5533947 -1495.517326)
(1078.639213 -427.7958607 -514.8712894)
(1041.372199 -279.8466094 -614.2134317)
(-691.8728546 -1343.039533 448.2872687)
(895.6234792 -407.4590054 216.7046455)
(801.4326129 2199.034235 1189.304335)
(1159.657576 -678.3453435 422.250765)
(909.4914627 -985.289375 139.977167)
(523.6977487 595.0701898 90.55323615)
(882.581029 -2170.813407 75.16382427)
(665.3588619 407.8392693 2921.606755)
(-704.9719334 -1079.760991 -1149.384408)
(55.66838066 1286.87003 -64.58577558)
(-1278.162944 576.3106918 157.2964596)
(553.0935591 358.0658633 -90.90929808)
(-1128.577701 1271.652355 1377.079151)
(-338.0838859 -678.4383932 -1463.751029)
(-1579.872926 -318.1031436 -1242.173975)
(428.6869468 -79.68273907 -23.05865064)
(1712.391675 1055.798834 -230.1212385)
(933.1917421 -779.5969069 37.55989174)
(-593.9580232 -1255.839208 796.9967982)
(85.31392127 -373.1267759 58.20164434)
(1150.849034 -631.3624792 -406.9359959)
(800.1388044 -126.0293487 -435.9001276)
(-131.8413397 1235.108349 -318.403337)
(106.5140301 1492.667219 1.036787091)
(7.871238614 -1248.518955 -1129.810537)
(635.6877422 -1126.188597 -1284.659128)
(-297.266562 600.4787659 -1645.543429)
(-1267.788355 -391.7693076 704.2740592)
(987.9239772 107.1732874 810.5151475)
(270.8607947 1898.335862 352.6213996)
(-350.1572329 400.0896473 -228.4275753)
(-1702.902812 -501.6740397 465.9532882)
(-1550.208778 -1323.033798 -361.0014571)
(-290.0158024 379.1693722 1045.056191)
(52.71219001 636.638768 1810.338065)
(-578.9670375 -1729.539622 -407.695647)
(1165.648522 -1070.522344 -796.3264588)
(-329.9176461 -575.2840507 -270.3751597)
(1420.103563 234.2743783 -121.4539565)
(1007.073717 -478.6764124 -1383.238565)
(505.2343546 262.4945126 891.4801064)
(533.4631073 1355.29185 742.565303)
(214.6834699 210.2481807 224.4573202)
(94.82209306 815.2338322 -565.3037697)
(-701.8809374 -66.8493917 1455.74869)
(-1261.480611 735.9435203 179.6955901)
(179.8319927 -629.9205093 -428.3472945)
(-446.0552571 230.6565162 -1032.058857)
(-273.1422748 928.5370797 101.1666557)
(132.7821152 484.3363966 -1377.922225)
(-1100.742001 -377.213867 146.8363049)
(-127.4191523 471.0094804 -498.7807433)
(-600.8530174 433.317748 362.4471983)
(231.241443 1050.653965 -2698.397844)
(833.5906427 983.4540517 176.26017)
(732.453675 -934.0136494 173.6700772)
(-792.3597726 -1008.085111 -549.0778714)
(225.6594961 153.4430683 -48.36571975)
(635.8854899 -424.0506546 -1383.424438)
(185.5825674 -1283.522521 153.4836938)
(-1452.37057 774.1917071 -273.4104112)
(1625.903568 -590.6532689 70.97773784)
(63.26865792 272.2634088 547.2286689)
(874.7129219 108.8443342 965.6177823)
(506.6915319 -70.58393066 -1219.620863)
(1191.167808 1997.312227 746.22307)
(-452.1790461 901.7403661 -504.6740893)
(175.0024389 -1262.148511 -151.3115675)
(851.4178184 -776.3285823 71.73630998)
(-260.8088645 -227.2087072 -1267.321307)
(1306.557544 -447.9121308 -411.0670032)
(-836.3191283 775.4486017 1033.914298)
(1343.179497 1683.624613 -1035.280892)
(1266.93507 31.2449589 2102.353457)
(-1275.794283 -324.6775552 93.08091219)
(904.5559872 -2462.528542 -559.386885)
(525.0410448 646.5984873 -257.868919)
(221.5077215 -1289.2064 289.1473507)
(517.2435025 707.6900035 -729.9988974)
(604.300499 -1088.00184 -2202.001705)
(-820.2888083 -55.34579168 -66.91740563)
(-112.8343612 -510.2960666 75.40175101)
(612.9857773 133.0551991 -222.2672376)
(-2541.871601 -719.3663342 -307.2731043)
(-176.4049925 391.6428193 -1152.89188)
(11.72153925 -1367.444536 -1234.918468)
(-679.4155396 409.402218 50.78239328)
(1001.775346 177.6986301 -1891.634365)
(1439.918765 1167.673083 -1008.873243)
(165.7896551 -1247.875508 1003.667944)
(293.2405621 1460.096512 -988.1975526)
(277.3849377 991.3865651 1354.325175)
(232.2306719 438.1001558 236.2538306)
(-330.6071826 199.0559903 383.5931632)
(1361.649057 -1024.593421 566.9422814)
(1854.970862 1494.022595 227.4705005)
(846.7814996 -398.5459379 -324.9512439)
(713.4686835 -800.097403 231.2306568)
(-892.2859968 -1278.61967 -460.138295)
(-30.4640691 88.4577513 667.4114428)
(2995.189902 -665.5294876 13.38299951)
(49.59167679 -403.7145371 2246.405454)
(-991.5583772 -248.7119062 -596.6506111)
(-1289.414413 -409.402709 -463.5842882)
(1390.635453 26.92856874 775.7574249)
(269.1664597 862.4695245 -139.2275446)
(-490.7479386 1275.062237 947.6073685)
(-738.9693426 95.41514743 -604.4702323)
(1556.755803 822.3690782 496.1210611)
(426.085216 94.34179013 -802.5815798)
(527.9183155 -2638.898314 433.4782237)
(-921.0425912 775.4956401 -1101.428271)
(-713.2267497 -1051.850012 140.7526147)
(-305.1126974 -301.1517409 -1049.998965)
(98.70567427 -129.4839429 350.3677483)
(343.7573654 -958.0856403 -456.6456216)
(-496.8736665 -1046.015149 -115.9872905)
(-1081.180647 523.1459682 925.614998)
(-194.8819353 115.8088741 294.2451959)
(861.9584531 -660.9604159 -227.7924205)
(699.0004369 -204.255411 -1647.13976)
(535.4260491 -887.8376366 -1049.393665)
(-905.8863558 -1331.848291 24.09263906)
(633.5935969 -737.4460482 1001.633922)
(-187.7258774 -1661.787546 -405.1093763)
(-603.2244621 495.5347275 -1192.713461)
(-1043.23723 -1374.445368 -55.27584314)
(-117.1655764 -617.3056959 -691.0885612)
(1128.258178 -261.0216002 87.49279072)
(81.34362965 -1308.472981 -1253.798937)
(547.8589564 247.2733605 1936.574937)
(1070.259358 463.9705664 -513.3522858)
(-695.5078966 -765.6906967 129.6303945)
(-1474.066574 -545.938164 864.0072655)
(-1226.671791 -532.9811121 -212.9282545)
(-14.24279206 957.0080854 1066.569479)
(255.4698635 2026.345725 -24.30945892)
(989.8425871 1183.204514 1756.718944)
(826.593817 245.5104521 -409.8511399)
(244.3396198 -266.4089715 117.6202915)
(-74.34489935 959.9308653 396.9154526)
(-474.4113381 -422.4238938 567.9759522)
(-2221.379322 -1229.374976 1364.898076)
(755.7260624 -1409.946579 659.2885153)
(-102.3915147 821.543238 -1800.352554)
(1811.261568 -565.2574509 1458.575285)
(-1014.439508 1101.92812 -129.1592198)
(-13.3646964 1381.326953 -330.7791416)
(-1105.650782 -91.73969537 477.1487446)
(87.051443 75.03154756 271.2430008)
(415.0084936 837.8081738 -838.870837)
(667.2618754 -827.5500853 1810.174584)
(790.5364184 -255.5384055 -1539.802777)
(58.5051387 587.3806487 15.06687844)
(1259.661499 -468.0539155 -391.5791649)
(-162.1419477 50.06963194 33.17035066)
(994.4352758 38.42936089 572.4720052)
(593.8504244 -476.5218957 -244.1364996)
(-312.9902154 674.2582953 -1876.463252)
(-552.3918758 -426.9597015 -975.6636065)
(-194.1927067 581.2389061 -287.8998163)
(519.4116966 936.3032778 699.3858476)
(358.5242384 958.6070849 950.3701073)
(703.2733763 -119.5388137 -99.39539731)
(-432.1753676 -183.5084166 728.3689788)
(912.6516981 -171.0343251 454.8585574)
(-195.1742611 814.6809851 48.94643164)
(-233.4701075 -1021.043826 -648.7815859)
(489.7737724 -173.9287377 113.5416233)
(-129.8262036 -505.5449547 24.52085627)
(-665.9736111 361.5245679 -251.1744106)
(-511.4695843 152.1750401 271.6812856)
(1820.284445 1181.340979 -561.9885376)
(1126.048358 693.1595383 39.83705596)
(1716.188736 -603.3364581 -221.4497962)
(526.9442388 -174.835109 1241.253881)
(1958.052512 -838.7796685 994.6198278)
(711.2883678 190.6851323 -375.9373119)
(-419.1222168 1190.323583 -881.4814439)
(-722.822874 -1093.39634 -1614.969638)
(226.8124346 437.5023963 -363.4724357)
(784.7099169 -411.2733344 -1048.433234)
(-1036.237139 -222.6692717 884.5295373)
(-286.6243022 -784.6093216 -118.0693393)
(-1830.426968 68.55296263 -583.2687554)
(-584.7027155 -250.6234062 61.38231537)
(1385.66803 -1575.082401 1129.080965)
(-756.0086919 -842.1039508 851.9936678)
(669.9735638 885.5551104 -541.1717785)
(-224.9679413 -139.2939301 1282.369332)
(-601.0476271 112.3180767 1307.830565)
(-555.3076973 -263.9143574 1962.25763)
(29.24571509 -403.2777484 -1130.295862)
(-694.502154 237.9316183 -574.5598338)
(332.4412359 226.553093 -86.5350347)
(263.7739273 1052.556706 -183.1906468)
(984.1041638 236.1007718 417.6608082)
(816.6694517 -1865.636354 489.0016464)
(-136.3929279 398.4646757 20.29463504)
(1178.28023 855.4839976 -412.1296932)
(659.5611288 1415.136052 194.8988303)
(-411.019725 345.9312531 -698.9185296)
(-835.1024836 727.148551 1081.489496)
(-300.7197547 -553.8694538 435.7634188)
(449.7275794 1304.097437 -162.134796)
(583.9495875 489.1621417 975.0268039)
(923.5107528 164.0553083 -901.9873803)
(-506.5816933 992.8420797 -349.652714)
(-1024.737807 -507.9078072 -258.0294428)
(-584.4989221 566.4428542 -1281.122826)
(1304.740196 332.0619712 -24.5689852)
(2360.262676 80.79034437 -386.1486974)
(675.7541383 -498.2098226 -165.8734396)
(175.9830662 -898.8012594 264.4527563)
(-257.1391126 -1727.874214 -1158.730037)
(11.40593241 528.1884882 535.7619286)
(-869.1323996 -841.1953623 -304.2529579)
(1071.475216 -1045.375542 1593.053113)
(1865.120642 669.4832111 -507.6097252)
(823.035799 520.8249844 208.2662494)
(772.8383801 -632.3302521 81.6331359)
(719.1186208 514.6278711 -1150.801492)
(540.3529607 -245.5526351 -667.7702057)
(-648.9722837 -46.74904672 442.01499)
(104.7262362 800.0193322 -429.8120136)
(1485.838892 -1421.557375 171.5758064)
(-424.6476195 -2235.06747 -222.8849014)
(245.0863093 269.4599348 1809.690819)
(-383.2934903 248.1411002 911.6953492)
(756.2658687 131.562944 -258.4849547)
(676.5097699 -1457.448517 155.4324434)
(-756.2034532 515.5163904 1499.545857)
(1031.072156 -167.2719184 929.0327376)
(636.9453022 -492.0441015 363.4793462)
(446.0521002 -645.8840838 -434.5764106)
(693.7900952 -767.6962952 735.0419936)
(-944.4751098 -16.9166248 1354.631154)
(-34.82764528 -1787.208655 -347.2754362)
(2340.389354 964.2824348 -48.00582336)
(-449.0983187 -291.8425213 71.47950262)
(1261.52421 -398.3304855 113.6750284)
(1594.305594 36.1788301 450.2052103)
(-876.0839654 531.9333553 -1308.989394)
(2072.783131 413.4823338 -155.9560677)
(-728.4222329 -24.34565005 -928.1281469)
(-456.6821964 -566.1128076 494.1693018)
(-980.0393837 1599.25192 147.3588706)
(-470.013331 -863.9597789 442.3900181)
(188.222712 -850.2682476 390.0005137)
(399.9454431 172.3269198 312.4635031)
(1176.020417 -371.3524326 -149.1682986)
(-345.918328 682.1271582 2259.822573)
(-467.8717661 -1015.561185 -299.3531657)
(-13.28330282 962.2027072 1062.626533)
(1571.511172 51.16877633 -558.7162728)
(2026.935357 675.915422 -1290.069885)
(92.43403836 890.779625 -812.3626416)
(-1718.924231 117.2669584 -521.534017)
(-116.4726034 -913.6346658 486.6091356)
(-341.8058841 -1264.651857 -1049.5374)
(1664.091617 -130.5251738 -150.8475475)
(470.8401622 745.9725513 982.333413)
(374.1594469 379.7460092 178.9311618)
(726.3513307 -1409.902563 297.6673124)
(-500.3124427 -1195.419367 1228.59128)
(51.72356856 -270.1451796 1449.400396)
(-304.0162401 526.1320741 53.83719272)
(113.2072334 774.1255161 -540.5833637)
(-280.6984707 -1087.623782 1859.443119)
(-328.1313815 -369.7435112 -102.2121448)
(-88.62852699 -513.2114413 660.1380515)
(-297.2954198 -1451.55941 469.2739498)
(-964.9244797 943.5485302 2853.595591)
(-58.88980486 723.8243086 -438.4931062)
(361.7241933 1259.171814 -553.8847365)
(299.6324235 -1160.649866 486.4603806)
(564.3038462 64.00308852 244.0869418)
(-553.4819139 1.665733595 -965.5059951)
(670.5363314 -447.9847603 -667.0244232)
(-100.9011312 -513.7091966 780.0817749)
(-37.78430781 -1072.352367 1858.121685)
(-720.1810264 162.4963807 -298.7418401)
(-603.3970787 -828.1066272 1531.501715)
(978.6928685 1211.085911 754.3145842)
(1631.947321 117.1493783 1191.748608)
(719.2651381 -688.4402263 2002.550736)
(-234.7155328 -394.8265468 -1414.404921)
(-504.0305201 1291.657781 -1941.13391)
(106.1507651 396.7837264 176.3468898)
(503.9337573 -247.2049838 -213.5028065)
(561.8056711 -73.83897006 -450.1377943)
(339.8730409 -317.0328858 2072.583432)
(78.00973487 -996.5245149 -420.0329328)
(1297.063558 -94.25018997 -60.36285019)
(491.8281319 -654.9815796 420.8031243)
(-805.6104582 724.0594691 -582.4583019)
(5.50907811 -386.6713688 610.7576306)
(203.3933897 -441.4483163 12.63168381)
(542.9920714 -686.7185908 967.5814352)
(162.4389497 1197.023377 -215.4264194)
(620.8730663 834.2425572 1512.374482)
(-831.4995063 -993.1718735 914.3119364)
(816.0251249 -1061.377405 680.482281)
(-684.4945571 1267.918907 -1264.941604)
(2433.646371 -340.8564668 575.4199715)
(626.04945 -754.6385333 135.8200371)
(2033.655657 949.5130167 875.2231529)
(1467.379395 90.82181945 -34.31025976)
(-1089.552274 187.0613974 1183.500809)
(-814.4543812 645.711729 -769.0164226)
(364.4622942 1414.349771 924.4206849)
(-872.2921315 2175.652611 -475.3008856)
(464.9814906 -781.1327586 -23.47273189)
(-502.9996812 -396.9297246 -40.94630188)
(-430.0654934 1353.404816 -128.7201624)
(812.1242119 -1069.542452 -1501.24359)
(12.0237343 -504.419369 -862.9667687)
(-437.8364693 -103.3960177 249.2956887)
(-1193.852786 -654.3052689 121.2083693)
(-351.3554141 -233.3409881 -594.8727172)
(14.26939975 404.4969045 -60.63272375)
(971.7397465 -1654.753199 -809.8818033)
(758.2372344 -1713.596976 -377.465769)
(232.2846443 1094.563173 -40.60021455)
(-392.0457734 -281.7052946 919.8751015)
(-283.4929026 -158.6766469 360.2570401)
(-1910.212744 -132.5397823 -47.46163893)
(1737.388841 -589.1127846 219.7257824)
(-1763.752012 -800.5057155 3.667252244)
(825.4545452 -1057.052533 -999.501222)
(-263.6733662 -872.9990835 -599.4346771)
(105.6828752 -366.6948979 -1353.516766)
(537.3037475 -368.4975558 451.1275876)
(-485.2321084 -1210.008429 266.3979122)
(480.8975239 -2276.252212 907.0460502)
(-282.4119572 364.6270998 388.3320101)
(-109.8042053 -377.6048644 1078.586791)
(-50.2719308 -494.7083944 -281.1545199)
(1379.771166 -38.80679074 196.433642)
(2162.600721 -1401.213418 -984.6450597)
(-621.1774523 1751.162238 75.36505713)
(584.3369049 -151.6716529 2023.368841)
(512.8918187 522.7792926 2239.633776)
(189.2141663 -41.77367453 114.3225999)
(2083.544529 -1096.567663 1144.573041)
(499.9904833 -18.54781062 -850.8230208)
(682.8888759 45.73967218 931.2023134)
(35.83603818 -171.3491061 106.5558875)
(-83.71190811 -413.2458245 1403.101981)
(654.9294625 -638.5379263 313.7740069)
(594.6783317 312.4557472 -620.7500347)
(-34.8189956 466.9059842 10.65556786)
(403.6452054 1038.993362 -173.9745184)
(-254.2713565 -260.2298636 -1468.633936)
(927.1220347 276.4630341 -182.8058225)
(500.3124689 -504.6078552 -125.915316)
(-353.243575 -293.0347565 692.0936822)
(1813.871857 2.511825138 -1262.615134)
(1174.051344 -1012.882388 -303.4299647)
(449.466463 944.1206298 -574.7038544)
(-1003.769887 -846.0695606 936.1878642)
(183.3226396 369.0073169 -277.7745345)
(1414.691414 616.1296317 6.42115756)
(333.4102781 -250.5388181 1033.501675)
(-121.0143456 -277.2926339 1177.69752)
(1775.984212 699.7303185 -365.3765536)
(-348.5775438 -696.6745247 34.08789796)
(538.3920433 331.9431777 -200.6287933)
(553.2842055 -214.6498468 -38.10000459)
(1250.234942 -4.510010239 -412.5377814)
(1336.944844 147.5493536 1422.139337)
(338.0212137 -1252.998538 -1795.820504)
(-886.0429982 190.0889698 616.6361646)
(811.1597541 -38.81752946 275.9845711)
(2470.111042 -642.882301 794.847282)
(233.5495911 -215.2795118 -470.0676927)
(981.2424025 612.1372898 807.3122009)
(1205.78338 313.2772575 -894.019537)
(1126.346463 321.6254291 1079.566628)
(-1458.670815 -2617.004006 667.8345798)
(1305.166031 -610.3424936 1485.486703)
(-1091.10602 -1162.777198 369.2284871)
(-351.4208753 370.3065863 2591.382915)
(-327.9695267 198.2718572 90.93353297)
(774.1131792 -37.68848686 500.2923589)
(998.6753122 508.976876 -610.6774985)
(-607.7253438 1063.856917 -432.9928608)
(675.3512565 537.0662735 348.0911831)
(-249.6955682 -10.48546792 39.93661951)
(-318.1146529 -134.2897049 -1124.163994)
(-1725.691306 909.0014519 896.6890212)
(849.2392609 -283.2158297 1379.402953)
(367.1646432 849.5047125 337.3118833)
(-335.054143 710.505563 524.442633)
(959.4586696 -999.8948367 71.29340998)
(-190.0531872 -790.6870742 -421.9391766)
(375.9190158 -100.0659439 740.7455009)
(1192.393665 -525.7025557 -1835.392537)
(-64.65745025 -365.2535542 -6.768580631)
(635.3619763 -183.5005879 -669.5677149)
(182.7261357 -1371.078026 1624.039258)
(-427.5450272 1092.603905 -1130.899543)
(297.6558647 986.3473715 1770.754861)
(380.007794 1980.885007 -236.2983644)
(-620.3605934 -1263.454845 1666.864928)
(-177.4031438 338.3722859 -103.0927178)
(1075.594006 -1447.209354 144.2330694)
(362.3091486 395.1014463 655.1885037)
(1100.445945 -1076.952368 -2910.525014)
(-479.4449108 -601.0763823 404.3840428)
(-957.8508174 -993.6743403 648.5385699)
(201.6407027 813.5063103 713.8106696)
(933.1637418 546.4971891 3.391928028)
(-1085.258172 -17.89095526 42.51121235)
(-953.0417303 -1301.67254 1377.606182)
(1640.961748 -764.9005701 -1144.744022)
(185.6026695 60.98261389 -221.9528166)
(109.1634328 290.0853381 -374.5995526)
(-1273.81951 1029.875637 232.5255485)
(491.5557652 -1162.118984 22.97407878)
(-1841.720745 457.216928 -102.8450714)
(1094.835716 -1311.88012 -67.62023762)
(-682.5832933 -2191.942494 -1066.234038)
(-381.3291321 -672.5312068 659.2970105)
(-1381.974306 -39.2747642 -265.2196708)
(-330.5162942 542.5732854 -618.7163809)
(643.8245447 -2183.768492 -1088.244538)
(35.84734483 -1054.4702 -923.3977436)
(-142.202327 562.3492546 30.69767797)
(188.9664902 1002.807632 970.3327226)
(331.7840458 1626.958988 65.57420516)
(-554.6262591 504.709707 -125.2039037)
(-166.8246241 308.6917708 -1940.545296)
(547.3119122 1059.945284 -164.6553623)
(-893.4435973 -169.2133047 -457.6214544)
(1110.41156 -151.5972819 -82.10650169)
(91.52361211 -2268.21185 -24.9649375)
(1198.439106 -1213.764947 111.9934482)
(556.4764168 261.6110906 177.3037805)
(-826.9300039 -844.6644484 902.9009349)
(278.3117568 980.1347218 796.853151)
(-1295.139891 -127.1180196 177.4760159)
(239.6585571 231.6776944 467.831182)
(-278.6781507 -957.6238411 1132.81556)
(-58.64871064 -352.108121 -1784.959289)
(383.7561108 -1945.305796 896.5274967)
(189.4402559 -968.0387959 -364.9830616)
(661.4260155 2083.145787 1024.612281)
(-228.97261 160.1753803 110.4017434)
(224.4694714 1652.168265 -1950.951154)
(-499.3747755 1647.487692 -667.8650869)
(-975.199442 -1406.460308 -908.7467068)
(1772.627218 824.8803907 -402.111377)
(461.7362196 -1632.732426 -14.3192316)
(-268.8372517 -713.0728573 -105.9111385)
(789.0455164 294.7360038 -1309.974655)
(665.7460267 -1648.882265 -159.6139654)
(883.2978566 -451.588975 191.0036257)
(453.5635634 517.4481875 1571.774414)
(358.2813735 -578.2566604 1090.033039)
(1114.963121 304.2313682 594.9721483)
(-316.5511981 -840.8308557 -451.9304795)
(-406.2075605 -291.0405162 1158.584623)
(469.1074493 -208.1845346 183.8553487)
(167.1250933 -1225.300406 -1040.528769)
(504.5889272 -2771.96941 442.6498985)
(715.6929268 -1459.790857 1511.021907)
(-38.9023935 -229.462521 -540.5894046)
(1041.282566 -327.5086533 534.7431685)
(1276.258987 283.3347373 -1686.341293)
(-115.1039192 -236.6119661 676.5807624)
(-148.9463557 316.6962976 -425.2449152)
(703.2736751 -458.0390671 1760.665971)
(-557.470246 -1083.50125 640.5990385)
(-564.0874837 986.0285354 -152.6306862)
(1423.964417 217.9245052 953.6681666)
(-709.8932616 -1800.388545 541.6396497)
(1121.64039 2042.689437 73.26302823)
(142.7060568 -121.2312398 -547.004772)
(-832.8572482 254.6657497 -726.8855484)
(-167.3593214 -46.15489867 -1614.091935)
(-511.5140118 -1515.546385 110.2244564)
(499.2534823 33.93315052 -710.3506808)
(1129.292298 423.3196522 1027.695989)
(-308.5388653 273.9314407 -114.9029351)
(19.98174451 -380.9141989 -587.2767952)
(1560.022584 111.6397145 1349.272455)
(-280.6945292 22.39470664 -1581.993242)
(1214.987727 474.3462789 125.9594905)
(-857.9835555 936.7641096 1473.029551)
(-825.3793887 -406.2925937 891.6355255)
(-336.9311533 -1411.802748 -100.0569752)
(1940.57791 -1497.052041 -1897.970537)
(801.2479629 1143.274366 752.4850784)
(315.0257046 -755.416217 -1120.342885)
(918.817046 -658.6399085 781.1646329)
(409.0330042 -722.6610928 -147.3745664)
(1536.26216 749.8365445 1562.512448)
(-2218.144412 193.8283032 462.3294123)
(-1010.971425 -2015.462854 -552.018922)
(62.07288778 1221.837251 121.0503897)
(762.0986556 127.1112426 528.6001318)
(203.7408175 492.080414 421.463535)
(576.0934768 -553.222842 -1591.104855)
(509.121555 1113.220697 939.9796403)
(459.7026156 -179.7191725 627.9882304)
(313.3733838 523.7784242 -1727.12604)
(473.0540184 825.6195846 -331.1539172)
(778.0319986 -1158.788934 82.5224708)
(632.2112739 -279.2990634 -527.7695053)
(383.3420751 -861.7875917 -1145.195756)
(-541.1296041 1180.973955 1387.263873)
(-540.8403235 -812.3679893 -314.2305381)
(1585.785309 -256.2915064 -528.3330946)
(-685.1417489 -190.0273566 -1321.46211)
(-682.6568899 -434.8334041 2080.425997)
(-773.1787635 746.8098598 -588.5534313)
(226.4494458 -565.3791318 -776.1120892)
(834.5588185 908.8726944 -485.3843918)
(-1041.56318 648.2212224 815.2411085)
(309.3290186 319.7415351 -391.7308168)
(-1333.47075 -486.103867 165.6247686)
(752.8968888 417.7652315 -45.14158562)
(-51.85044975 -669.8899613 1218.950278)
(386.6796685 -390.5193177 29.01043369)
(-246.042393 -207.6418701 -1546.872661)
(1980.138712 -136.6826661 -173.4487198)
(18.15198213 -117.8878607 -717.2939848)
(554.5382926 -325.2621707 -300.0317305)
(-749.6120747 516.3094994 1038.569381)
(71.37275675 -898.0276646 914.1262088)
(1421.812497 1439.651955 497.4384352)
(683.100429 -520.6034269 798.9276099)
(336.1142241 -1032.537948 1450.866028)
(1222.293297 23.95869384 1967.254038)
(640.8439439 1064.585121 -104.8685534)
(583.4395239 -147.3335709 826.0810257)
(264.3547075 136.8642892 190.3417961)
(876.5476955 -861.5607392 1868.329709)
(-975.5567196 216.1378972 -822.2759579)
(573.8532735 -3013.818402 -280.3802776)
(-819.4859224 -630.5242189 -336.3829915)
(784.2902587 -384.3712517 276.1281678)
(452.6442436 543.9024529 -1453.209541)
(287.1952878 81.90804753 -1176.381808)
(257.7546937 -759.8232634 -357.6720131)
(523.6942203 -872.9988457 994.9149754)
(1333.72914 -2464.504816 530.1334264)
(-173.4476342 1542.917202 378.6635537)
(-599.0945681 -745.6630906 89.02329336)
(-385.3621912 -607.1242014 -410.4711644)
(461.9260131 -485.6637443 -609.5630962)
(2.376203322 388.6229311 265.9313172)
(187.8107459 -467.1570817 -263.6470239)
(-288.9772709 -65.07220522 -522.8544526)
(794.6672112 224.0983782 -1456.554057)
(804.7427584 -819.5791484 -623.9747162)
(-80.54937046 -415.5096729 -1127.716595)
(692.971692 41.57490512 121.1314293)
(200.5729908 -1207.034076 1463.713911)
(2184.336626 2034.287585 -888.0259185)
(2105.669516 -1068.788327 -896.9495347)
(-1056.258399 364.9928712 -874.2090163)
(-1658.403154 959.789367 -206.5906002)
(-187.8025006 348.2317613 -790.8231708)
(1554.239681 -844.5258922 -173.8014147)
(405.5545268 -48.22904463 911.5063952)
(369.8203768 -531.6055376 -576.3990359)
(-1411.133107 -2193.867662 382.344511)
(1090.036588 -1947.721682 -581.8271989)
(641.0290268 1061.060787 -77.40121391)
(324.9016707 -1064.697316 553.6465904)
(1530.646333 69.99041816 -1034.527419)
(982.6387624 -838.6455353 -169.4736475)
(1811.635535 -41.98614589 -2467.967998)
(-411.5278665 292.6230731 1094.08657)
(-1125.241315 1326.196159 1167.887465)
(1739.842051 219.2523427 -1481.540402)
(-1070.734526 123.5958067 520.5236986)
(218.2536236 705.7938184 -74.71638926)
(-61.34603565 370.389347 -140.0697629)
(1482.48076 -45.65498979 396.3614843)
(723.4016313 -1066.279013 -138.6748565)
(1540.034053 94.06441308 1377.836833)
(-219.8810242 -225.7482551 761.7194695)
(232.8387435 -1767.742332 -610.2462453)
(145.1073672 679.4509343 716.0122858)
(282.1419894 -539.0496018 -1037.818935)
(24.11989804 -2256.346155 1400.276263)
(-739.9347886 948.4267942 450.0245832)
(-1662.059057 1644.881465 -479.0520404)
(-784.7138167 -211.9152825 -624.8840186)
(-197.5990404 40.47704242 1527.909311)
(309.209107 -1425.880356 582.3885277)
(-317.8510633 30.92254473 1514.236073)
(-418.4081764 -737.1206205 -571.0996955)
(28.17040965 238.7810215 2488.504714)
(1029.368346 471.2204344 1060.947872)
(-317.4603713 901.3379 972.2899917)
(-442.2046966 1492.363884 -60.55508159)
(197.6012776 691.8985367 -665.1955458)
(-164.6706658 -925.5924396 213.20686)
(273.740725 480.6207825 -125.0830949)
(2358.819928 -1754.279013 916.4774781)
(338.4384339 -44.17073372 2368.568216)
(-23.37150899 1346.853386 -1816.287469)
(-542.735797 -388.7866004 44.84912378)
(2257.604101 -712.1312063 1078.792484)
(420.0094157 356.3168688 430.6285585)
(77.56259848 131.3616541 -369.4294952)
(1404.257477 138.5675677 1713.771863)
(134.6774264 -331.8398324 -1512.058905)
(-456.7761734 -66.68581344 -841.9898868)
(356.1025578 1348.188749 -129.2613912)
(132.0960402 1134.528456 -767.8164416)
(1105.099916 -617.3556361 48.40737212)
(561.1862262 166.8982811 -30.93427123)
(1044.861355 793.1244761 -235.0672314)
(-899.3406058 179.1252371 1517.584433)
(358.6876185 -691.5799489 1548.574099)
(-595.8417909 -2279.590164 -7.529786728)
(631.2480594 81.91613411 -1036.270495)
(1370.070928 -741.3701731 520.5844533)
(1625.222153 1794.439408 800.6215899)
(1615.611971 205.9902231 1028.319561)
(-122.4087778 987.4881933 169.3444867)
(-487.3645084 -981.5759607 -1442.476959)
(1107.583501 -1667.336482 -3178.545428)
(-1078.979383 -57.94729328 -177.4046994)
(-816.0111588 963.7105558 844.1914431)
(182.2827654 324.6976821 -1823.982164)
(-993.8184037 -1243.47161 -1769.6754)
(195.2581583 212.0097069 -340.460196)
(1131.243423 837.8091259 1546.934579)
(2071.289194 -5.986370495 426.5038269)
(713.8470202 1398.046639 -137.514462)
(298.4084354 -212.8240327 -168.1034551)
(162.3839399 613.9898096 616.3264731)
(805.0968744 -1133.944725 1526.112404)
(458.6609087 2276.262907 -105.0431816)
(1468.778179 -542.1699496 725.645615)
(-40.51294256 571.0824592 -258.7394243)
(-1133.51821 35.03366197 -6.541283447)
(166.8612435 -232.5856149 -2595.366149)
(647.2195432 -69.25240884 -674.6852959)
(435.8377459 -531.7493872 -228.5341179)
(-575.4206133 -1162.915928 85.92429108)
(1386.208399 -332.265609 -625.7171672)
(1345.840719 -1336.102604 -310.6224896)
(-322.3158657 -126.0552057 1257.894274)
(419.9517139 -441.0064267 -713.2948655)
(1619.512183 1111.608599 292.1048868)
(1328.338149 364.8676556 -1083.46343)
(-1323.460788 -701.2048751 415.3086199)
(1237.346857 -1103.306148 -910.4120628)
(627.0459534 -665.2911789 464.8910065)
(-1306.357379 -957.9384717 -41.3824411)
(602.1507517 196.1562411 -181.1061254)
(-22.92772025 -400.0352658 -2664.450772)
(7.08120789 961.1112045 1191.686052)
(-1597.444591 -858.6424722 95.54266196)
(-75.45826926 1133.256797 -724.6389004)
(1005.468612 138.6148631 752.8079296)
(-227.1169309 -657.4346592 -289.3362265)
(-161.0627083 106.9809744 885.7552448)
(254.1792052 -641.5593311 1143.29864)
(-582.5274681 -324.8816012 820.4564653)
(775.8000731 1279.64416 155.3799172)
(895.5925175 -1334.126461 1283.647356)
(-40.43827954 -477.8144458 311.2103479)
(-507.5596717 -346.0395183 -779.8065194)
(-946.4747405 88.06432463 325.3455475)
(-792.6476684 -1176.00117 712.6115403)
(400.6100221 -1604.424598 937.0520174)
(-490.3917267 1072.598194 -608.5229769)
(587.8411145 426.0166457 1411.019536)
(-67.20635119 636.187611 -1284.025247)
(605.8651828 1093.255269 1743.791476)
(767.185125 1695.774175 -831.9838853)
(482.584597 429.9144967 517.2743598)
(-94.73789054 -1781.328148 -1222.603661)
(333.8154495 -125.2728047 408.2880026)
(-935.5541611 542.9071624 -960.8919648)
(426.2225341 -148.4346013 -993.7590937)
(860.5337078 -1456.391362 -568.3187363)
(148.8294159 177.0883518 1462.61195)
(-107.8221119 1291.383018 -583.2537731)
(-132.0363968 830.6739469 144.9361049)
(654.0599721 1709.778322 -38.19344499)
(-468.4453257 126.8797524 -1288.328006)
(-427.8170555 1057.322356 -998.891575)
(-1067.770881 -908.89242 -339.655638)
(-1619.670703 686.2327208 -1002.248302)
(-125.8014734 1146.083105 -280.3589697)
(308.1225548 2030.11578 -1459.674211)
(2026.65338 -164.7032518 -121.7700699)
(-192.8627162 -1366.193447 -188.6201253)
(1439.918137 -270.4073589 1737.581924)
(-116.2161736 983.3325363 789.155548)
(-50.81722894 224.4552764 -407.2421519)
(939.7918309 1187.276178 171.1580434)
(459.3123828 -644.0831528 469.842692)
(-161.7005395 -969.7864758 -794.9273088)
(-940.6740677 400.4329042 -1769.660938)
(1100.779466 162.5280329 209.1753375)
(-37.74678207 -258.8312561 67.36948624)
(253.3001619 828.6804579 959.9866453)
(549.1303276 -419.9177299 275.3243039)