/*--------------------------------*- C++ -*----------------------------------*\
| =========                 |                                                 |
| \\      /  F ield         | OpenFOAM: The Open Source CFD Toolbox           |
|  \\    /   O peration     | Version:  v1706                                 |
|   \\  /    A nd           | Web:      www.OpenFOAM.com                      |
|    \\/     M anipulation  |                                                 |
\*---------------------------------------------------------------------------*/
FoamFile
{
    version     2.0;
    format      ascii;
    class       volScalarField;
    location    "0.0014";
    object      kappatr;
}
// * * * * * * * * * * * * * * * * * * * * * * * * * * * * * * * * * * * * * //

dimensions      [1 1 -3 -1 0 0 0];


internalField   nonuniform List<scalar> 
80000
(
0.3937160878
0.3936670198
0.393742597
0.3938182986
0.3938920502
0.3939633353
0.3940317377
0.3940968775
0.3941584122
0.3942160394
0.3942695006
0.3943185832
0.3943631217
0.3944029981
0.394438141
0.3944685245
0.394494165
0.3945151181
0.3945314748
0.3945433567
0.3945509116
0.394554308
0.3945537305
0.3945493745
0.394541442
0.3945301364
0.3945156595
0.3944982074
0.3944779678
0.3944551174
0.3944298203
0.3944022264
0.3943724709
0.3943406735
0.3943069385
0.3942713554
0.394233999
0.3941949307
0.3941541991
0.3941118411
0.3940678831
0.3940223421
0.3939752269
0.3939265387
0.3938762727
0.3938244184
0.3937709611
0.3937158817
0.3936591582
0.3936007655
0.3935406765
0.3934788618
0.3934152905
0.39334993
0.3932827466
0.3932137055
0.3931427705
0.3930699047
0.3929950703
0.3929182286
0.3928393404
0.3927583658
0.3926752646
0.3925899964
0.3925025208
0.3924127981
0.3923207894
0.3922264571
0.3921297661
0.392030684
0.3919291831
0.3918252411
0.391718844
0.3916099885
0.3914986857
0.3913849672
0.3912688932
0.3911505642
0.3910301398
0.3909078669
0.3907841249
0.3906594955
0.3905348707
0.390411578
0.3902909678
0.3901644863
0.3898311813
0.3863406699
0.3641289248
0.2582381648
0.02243007769
0.02195659771
0.02195649364
0.0219564936
0.0219564936
0.0219564936
0.0219564936
0.0219564936
0.0219564936
0.0219564936
0.0219564936
0.0219564936
0.0219564936
0.0219564936
0.0219564936
0.0219564936
0.0219564936
0.0219564936
0.0219564936
0.0219564936
0.0219564936
0.0219564936
0.0219564936
0.0219564936
0.0219564936
0.0219564936
0.0219564936
0.0219564936
0.0219564936
0.0219564936
0.0219564936
0.0219564936
0.0219564936
0.0219564936
0.0219564936
0.0219564936
0.0219564936
0.0219564936
0.0219564936
0.0219564936
0.0219564936
0.0219564936
0.0219564936
0.0219564936
0.0219564936
0.0219564936
0.0219564936
0.0219564936
0.0219564936
0.0219564936
0.0219564936
0.0219564936
0.0219564936
0.0219564936
0.0219564936
0.0219564936
0.0219564936
0.0219564936
0.0219564936
0.0219564936
0.0219564936
0.0219564936
0.0219564936
0.0219564936
0.0219564936
0.0219564936
0.0219564936
0.0219564936
0.0219564936
0.0219564936
0.0219564936
0.0219564936
0.0219564936
0.0219564936
0.0219564936
0.0219564936
0.0219564936
0.0219564936
0.0219564936
0.0219564936
0.0219564936
0.0219564936
0.0219564936
0.0219564936
0.0219564936
0.0219564936
0.0219564936
0.02195649359
0.02195649359
0.02195649359
0.02195649359
0.02195649359
0.02195649359
0.02195649359
0.02195649359
0.02195649358
0.02195649358
0.02195649358
0.02195649358
0.02195649358
0.02195649358
0.02195649357
0.02195649357
0.02195649357
0.02195649357
0.02195649356
0.02195649356
0.02195649356
0.02195649355
0.02195649355
0.3938679051
0.3938187729
0.3938941934
0.3939697246
0.3940433178
0.3941144715
0.394182777
0.3942478576
0.3943093714
0.3943670155
0.3944205303
0.3944697011
0.3945143605
0.3945543883
0.394589711
0.3946203002
0.3946461703
0.3946673746
0.394684002
0.3946961723
0.3947040312
0.3947077458
0.3947074989
0.3947034847
0.3946959039
0.3946849591
0.394670851
0.3946537749
0.3946339181
0.3946114567
0.3945865545
0.3945593612
0.3945300116
0.3944986255
0.3944653072
0.3944301461
0.3943932172
0.3943545818
0.3943142887
0.3942723748
0.3942288668
0.3941837818
0.3941371284
0.3940889083
0.3940391165
0.3939877429
0.3939347724
0.3938801862
0.3938239623
0.3937660756
0.3937064988
0.3936452027
0.3935821561
0.3935173266
0.3934506802
0.3933821818
0.3933117952
0.3932394834
0.3931652083
0.3930889309
0.3930106116
0.3929302102
0.392847686
0.392762998
0.3926761054
0.3925869675
0.3924955444
0.3924017976
0.3923056901
0.3922071882
0.3921062614
0.3920028847
0.3918970399
0.3917887179
0.3916779222
0.3915646724
0.3914490109
0.3913310096
0.3912107809
0.3910884919
0.3909643825
0.3908387894
0.390712172
0.3905851052
0.3904576726
0.3903193759
0.3899677219
0.3864661131
0.3643139976
0.2589337711
0.02243296576
0.02195659833
0.02195649364
0.0219564936
0.0219564936
0.0219564936
0.0219564936
0.0219564936
0.0219564936
0.0219564936
0.0219564936
0.0219564936
0.0219564936
0.0219564936
0.0219564936
0.0219564936
0.0219564936
0.0219564936
0.0219564936
0.0219564936
0.0219564936
0.0219564936
0.0219564936
0.0219564936
0.0219564936
0.0219564936
0.0219564936
0.0219564936
0.0219564936
0.0219564936
0.0219564936
0.0219564936
0.0219564936
0.0219564936
0.0219564936
0.0219564936
0.0219564936
0.0219564936
0.0219564936
0.0219564936
0.0219564936
0.0219564936
0.0219564936
0.0219564936
0.0219564936
0.0219564936
0.0219564936
0.0219564936
0.0219564936
0.0219564936
0.0219564936
0.0219564936
0.0219564936
0.0219564936
0.02195649359
0.02195649359
0.02195649359
0.02195649359
0.02195649359
0.02195649359
0.02195649359
0.02195649359
0.02195649359
0.02195649359
0.02195649359
0.02195649359
0.02195649359
0.02195649359
0.02195649359
0.02195649359
0.02195649359
0.02195649359
0.02195649359
0.02195649359
0.02195649359
0.02195649359
0.02195649359
0.02195649358
0.02195649358
0.02195649358
0.02195649358
0.02195649358
0.02195649358
0.02195649358
0.02195649358
0.02195649358
0.02195649358
0.02195649358
0.02195649357
0.02195649357
0.02195649357
0.02195649357
0.02195649357
0.02195649357
0.02195649357
0.02195649357
0.02195649356
0.02195649356
0.02195649356
0.02195649356
0.02195649356
0.02195649356
0.02195649356
0.02195649356
0.02195649355
0.02195649355
0.02195649355
0.02195649355
0.02195649355
0.02195649355
0.3939288293
0.393879675
0.3939550429
0.3940305256
0.3941040751
0.3941751923
0.3942434706
0.3943085349
0.3943700442
0.3944276962
0.3944812311
0.3945304344
0.3945751381
0.3946152214
0.3946506104
0.3946812759
0.3947072315
0.39472853
0.3947452595
0.3947575391
0.394765514
0.3947693504
0.3947692308
0.3947653489
0.3947579048
0.3947471008
0.3947331372
0.3947162091
0.3946965034
0.3946741961
0.3946494509
0.3946224173
0.3945932301
0.394562009
0.3945288582
0.3944938673
0.3944571112
0.3944186513
0.3943785364
0.3943368035
0.3942934793
0.394248581
0.3942021175
0.3941540901
0.3941044942
0.3940533196
0.3940005514
0.3939461708
0.3938901558
0.3938324814
0.3937731204
0.3937120434
0.3936492195
0.3935846162
0.3935181995
0.3934499345
0.3933797849
0.3933077137
0.3932336827
0.393157653
0.3930795851
0.3929994387
0.3929171729
0.3928327468
0.3927461193
0.3926572495
0.3925660972
0.3924726234
0.3923767906
0.3922785639
0.3921779117
0.3920748068
0.3919692281
0.3918611622
0.3917506062
0.3916375703
0.3915220823
0.3914041925
0.3912839804
0.3911615634
0.3910371074
0.3909108404
0.3907830668
0.3906541504
0.3905239136
0.3903816589
0.3900264767
0.3865450206
0.3645139635
0.2598536634
0.02243683856
0.02195659915
0.02195649363
0.0219564936
0.0219564936
0.0219564936
0.0219564936
0.0219564936
0.0219564936
0.0219564936
0.0219564936
0.0219564936
0.0219564936
0.0219564936
0.0219564936
0.0219564936
0.0219564936
0.0219564936
0.0219564936
0.0219564936
0.0219564936
0.0219564936
0.0219564936
0.0219564936
0.0219564936
0.02195649359
0.02195649359
0.02195649359
0.02195649359
0.02195649359
0.02195649359
0.02195649359
0.02195649359
0.02195649359
0.02195649359
0.02195649359
0.02195649359
0.02195649359
0.02195649359
0.02195649359
0.02195649359
0.02195649359
0.02195649359
0.02195649359
0.02195649359
0.02195649359
0.02195649359
0.02195649359
0.02195649359
0.02195649359
0.02195649359
0.02195649359
0.02195649359
0.02195649359
0.02195649359
0.02195649359
0.02195649359
0.02195649359
0.02195649359
0.02195649359
0.02195649358
0.02195649358
0.02195649358
0.02195649358
0.02195649358
0.02195649358
0.02195649358
0.02195649358
0.02195649358
0.02195649358
0.02195649358
0.02195649358
0.02195649358
0.02195649358
0.02195649358
0.02195649358
0.02195649357
0.02195649357
0.02195649357
0.02195649357
0.02195649357
0.02195649357
0.02195649357
0.02195649357
0.02195649357
0.02195649357
0.02195649357
0.02195649357
0.02195649356
0.02195649356
0.02195649356
0.02195649356
0.02195649356
0.02195649356
0.02195649356
0.02195649356
0.02195649356
0.02195649356
0.02195649356
0.02195649355
0.02195649355
0.02195649355
0.02195649355
0.02195649355
0.02195649355
0.02195649355
0.02195649355
0.02195649355
0.02195649355
0.02195649355
0.393966599
0.3939174545
0.3939927929
0.3940682502
0.394141778
0.3942128776
0.394281143
0.3943461997
0.3944077072
0.3944653636
0.3945189094
0.39456813
0.3946128573
0.3946529707
0.3946883957
0.3947191031
0.3947451062
0.3947664573
0.3947832443
0.3947955859
0.394803627
0.3948075336
0.3948074878
0.394803683
0.394796319
0.394785598
0.39477172
0.3947548801
0.3947352649
0.3947130503
0.3946883999
0.3946614632
0.3946323751
0.394601255
0.3945682073
0.3945333215
0.3944966726
0.3944583221
0.3944183187
0.3943766996
0.3943334915
0.3942887117
0.394242369
0.3941944651
0.3941449953
0.3940939494
0.3940413127
0.3939870664
0.3939311886
0.3938736544
0.3938144367
0.3937535062
0.393690832
0.3936263817
0.3935601215
0.3934920164
0.3934220304
0.3933501265
0.3932762666
0.3932004121
0.3931225233
0.3930425601
0.3929604818
0.3928762474
0.3927898159
0.3927011464
0.3926101986
0.3925169332
0.3924213124
0.3923233006
0.392222865
0.392119977
0.3920146133
0.3919067569
0.3917963999
0.3916835452
0.3915682102
0.3914504299
0.3913302625
0.3912077953
0.3910831521
0.3909565035
0.3908280767
0.3906981324
0.3905663615
0.3904219857
0.390066003
0.3866121485
0.3647232182
0.260883564
0.02244121447
0.02195660009
0.02195649363
0.02195649359
0.02195649359
0.02195649359
0.02195649359
0.02195649359
0.02195649359
0.02195649359
0.02195649359
0.02195649359
0.02195649359
0.02195649359
0.02195649359
0.02195649359
0.02195649359
0.02195649359
0.02195649359
0.02195649359
0.02195649359
0.02195649359
0.02195649359
0.02195649359
0.02195649359
0.02195649359
0.02195649359
0.02195649359
0.02195649359
0.02195649359
0.02195649359
0.02195649359
0.02195649359
0.02195649359
0.02195649359
0.02195649359
0.02195649359
0.02195649359
0.02195649359
0.02195649359
0.02195649359
0.02195649359
0.02195649359
0.02195649358
0.02195649358
0.02195649358
0.02195649358
0.02195649358
0.02195649358
0.02195649358
0.02195649358
0.02195649358
0.02195649358
0.02195649358
0.02195649358
0.02195649358
0.02195649358
0.02195649358
0.02195649358
0.02195649358
0.02195649358
0.02195649358
0.02195649358
0.02195649358
0.02195649357
0.02195649357
0.02195649357
0.02195649357
0.02195649357
0.02195649357
0.02195649357
0.02195649357
0.02195649357
0.02195649357
0.02195649357
0.02195649357
0.02195649357
0.02195649357
0.02195649357
0.02195649356
0.02195649356
0.02195649356
0.02195649356
0.02195649356
0.02195649356
0.02195649356
0.02195649356
0.02195649356
0.02195649356
0.02195649356
0.02195649356
0.02195649356
0.02195649356
0.02195649356
0.02195649356
0.02195649355
0.02195649355
0.02195649355
0.02195649355
0.02195649355
0.02195649355
0.02195649355
0.02195649355
0.02195649355
0.02195649355
0.02195649355
0.02195649355
0.02195649355
0.02195649355
0.02195649355
0.3939933313
0.3939442135
0.3940195322
0.3940949725
0.3941684861
0.3942395742
0.394307831
0.3943728824
0.394434388
0.3944920462
0.3945455976
0.3945948278
0.3946395687
0.3946796997
0.3947151463
0.3947458791
0.3947719113
0.3947932952
0.3948101183
0.3948224993
0.3948305828
0.3948345347
0.3948345369
0.3948307826
0.3948234716
0.3948128057
0.394798985
0.3947822044
0.3947626504
0.394740499
0.3947159136
0.3946890437
0.3946600241
0.3946289744
0.3945959989
0.3945611872
0.3945246143
0.3944863417
0.3944464183
0.3944048813
0.3943617575
0.3943170642
0.3942708104
0.3942229978
0.3941736219
0.3941226724
0.3940701349
0.3940159906
0.3939602177
0.3939027914
0.3938436847
0.3937828685
0.3937203119
0.3936559827
0.3935898472
0.3935218706
0.393452017
0.3933802495
0.3933065303
0.3932308208
0.3931530815
0.3930732726
0.3929913534
0.3929072831
0.3928210207
0.3927325255
0.3926417571
0.392548676
0.3924532442
0.3923554253
0.3922551859
0.392152496
0.3920473299
0.391939668
0.391829498
0.3917168168
0.3916016329
0.3914839696
0.3913638683
0.3912413927
0.3911166344
0.3909897185
0.3908608078
0.3907300712
0.39059707
0.390450943
0.3900948289
0.3866722012
0.3649382054
0.2619815079
0.02244591192
0.0219566011
0.02195649363
0.02195649359
0.02195649359
0.02195649359
0.02195649359
0.02195649359
0.02195649359
0.02195649359
0.02195649359
0.02195649359
0.02195649359
0.02195649359
0.02195649359
0.02195649359
0.02195649359
0.02195649359
0.02195649359
0.02195649359
0.02195649359
0.02195649359
0.02195649359
0.02195649359
0.02195649359
0.02195649359
0.02195649359
0.02195649358
0.02195649358
0.02195649358
0.02195649358
0.02195649358
0.02195649358
0.02195649358
0.02195649358
0.02195649358
0.02195649358
0.02195649358
0.02195649358
0.02195649358
0.02195649358
0.02195649358
0.02195649358
0.02195649358
0.02195649358
0.02195649358
0.02195649358
0.02195649358
0.02195649358
0.02195649358
0.02195649358
0.02195649357
0.02195649357
0.02195649357
0.02195649357
0.02195649357
0.02195649357
0.02195649357
0.02195649357
0.02195649357
0.02195649357
0.02195649357
0.02195649357
0.02195649357
0.02195649357
0.02195649357
0.02195649357
0.02195649357
0.02195649357
0.02195649357
0.02195649357
0.02195649356
0.02195649356
0.02195649356
0.02195649356
0.02195649356
0.02195649356
0.02195649356
0.02195649356
0.02195649356
0.02195649356
0.02195649356
0.02195649356
0.02195649356
0.02195649356
0.02195649356
0.02195649356
0.02195649356
0.02195649356
0.02195649356
0.02195649356
0.02195649355
0.02195649355
0.02195649355
0.02195649355
0.02195649355
0.02195649355
0.02195649355
0.02195649355
0.02195649355
0.02195649355
0.02195649355
0.02195649355
0.02195649355
0.02195649355
0.02195649355
0.02195649355
0.02195649355
0.02195649355
0.02195649355
0.3940133544
0.3939642764
0.3940395801
0.394115007
0.394188509
0.3942595874
0.3943278366
0.3943928824
0.3944543847
0.3945120421
0.3945655951
0.3946148296
0.3946595776
0.3946997184
0.3947351775
0.3947659256
0.3947919758
0.3948133803
0.3948302266
0.3948426332
0.3948507447
0.3948547269
0.3948547614
0.3948510416
0.3948437669
0.3948331392
0.3948193585
0.3948026197
0.3947831091
0.3947610027
0.394736464
0.3947096425
0.3946806729
0.3946496749
0.3946167529
0.3945819963
0.3945454805
0.3945072669
0.3944674044
0.3944259305
0.3943828719
0.3943382461
0.3942920622
0.3942443219
0.3941950208
0.394144149
0.3940916918
0.3940376308
0.3939819441
0.3939246073
0.3938655932
0.3938048731
0.3937424161
0.3936781902
0.3936121618
0.3935442962
0.3934745579
0.3934029099
0.3933293147
0.3932537339
0.3931761282
0.3930964578
0.3930146823
0.392930761
0.392844653
0.3927563176
0.3926657142
0.3925728033
0.3924775461
0.392379906
0.3922798483
0.3921773414
0.3920723576
0.3919648738
0.3918548733
0.3917423467
0.3916272938
0.3915097258
0.3913896671
0.391267158
0.3911422575
0.3910150447
0.3908856178
0.3907540543
0.3906197936
0.390471927
0.3901160104
0.3867273025
0.365158249
0.2631309677
0.02245086108
0.02195660217
0.02195649363
0.02195649359
0.02195649359
0.02195649359
0.02195649359
0.02195649359
0.02195649359
0.02195649359
0.02195649358
0.02195649358
0.02195649358
0.02195649358
0.02195649358
0.02195649358
0.02195649358
0.02195649358
0.02195649358
0.02195649358
0.02195649358
0.02195649358
0.02195649358
0.02195649358
0.02195649358
0.02195649358
0.02195649358
0.02195649358
0.02195649358
0.02195649358
0.02195649358
0.02195649358
0.02195649358
0.02195649358
0.02195649358
0.02195649358
0.02195649358
0.02195649358
0.02195649358
0.02195649357
0.02195649357
0.02195649357
0.02195649357
0.02195649357
0.02195649357
0.02195649357
0.02195649357
0.02195649357
0.02195649357
0.02195649357
0.02195649357
0.02195649357
0.02195649357
0.02195649357
0.02195649357
0.02195649357
0.02195649357
0.02195649357
0.02195649357
0.02195649357
0.02195649357
0.02195649357
0.02195649356
0.02195649356
0.02195649356
0.02195649356
0.02195649356
0.02195649356
0.02195649356
0.02195649356
0.02195649356
0.02195649356
0.02195649356
0.02195649356
0.02195649356
0.02195649356
0.02195649356
0.02195649356
0.02195649356
0.02195649356
0.02195649356
0.02195649356
0.02195649356
0.02195649356
0.02195649356
0.02195649356
0.02195649355
0.02195649355
0.02195649355
0.02195649355
0.02195649355
0.02195649355
0.02195649355
0.02195649355
0.02195649355
0.02195649355
0.02195649355
0.02195649355
0.02195649355
0.02195649355
0.02195649355
0.02195649355
0.02195649355
0.02195649355
0.02195649355
0.02195649355
0.02195649355
0.02195649355
0.02195649355
0.02195649355
0.3940287334
0.3939797075
0.394054999
0.394130414
0.3942039051
0.3942749739
0.3943432148
0.3944082537
0.3944697508
0.3945274045
0.3945809557
0.3946301902
0.3946749403
0.3947150851
0.3947505503
0.3947813067
0.3948073671
0.3948287839
0.3948456445
0.3948580674
0.3948661971
0.3948701991
0.3948702554
0.3948665589
0.3948593093
0.3948487082
0.3948349556
0.3948182464
0.3947987669
0.3947766931
0.3947521885
0.3947254025
0.3946964701
0.3946655108
0.3946326292
0.3945979148
0.3945614429
0.3945232752
0.3944834606
0.3944420367
0.3943990303
0.3943544589
0.3943083319
0.3942606511
0.394211412
0.394160605
0.3941082155
0.3940542252
0.3939986124
0.3939413526
0.393882419
0.3938217828
0.3937594135
0.393695279
0.393629346
0.3935615799
0.3934919453
0.3934204055
0.393346923
0.3932714596
0.3931939762
0.3931144331
0.3930327899
0.392949006
0.3928630405
0.3927748524
0.3926844011
0.3925916465
0.3924965492
0.3923990714
0.3922991771
0.3921968325
0.3920920071
0.3919846738
0.3918748105
0.3917624004
0.3916474333
0.3915299067
0.3914098266
0.3912872083
0.3911620768
0.3910344657
0.3909044118
0.3907719117
0.3906363078
0.3904867042
0.3901313391
0.3867789508
0.3653837891
0.2643257124
0.02245603717
0.02195660329
0.02195649362
0.02195649358
0.02195649358
0.02195649358
0.02195649358
0.02195649358
0.02195649358
0.02195649358
0.02195649358
0.02195649358
0.02195649358
0.02195649358
0.02195649358
0.02195649358
0.02195649358
0.02195649358
0.02195649358
0.02195649358
0.02195649358
0.02195649358
0.02195649358
0.02195649358
0.02195649358
0.02195649358
0.02195649358
0.02195649357
0.02195649357
0.02195649357
0.02195649357
0.02195649357
0.02195649357
0.02195649357
0.02195649357
0.02195649357
0.02195649357
0.02195649357
0.02195649357
0.02195649357
0.02195649357
0.02195649357
0.02195649357
0.02195649357
0.02195649357
0.02195649357
0.02195649357
0.02195649357
0.02195649357
0.02195649357
0.02195649357
0.02195649357
0.02195649357
0.02195649356
0.02195649356
0.02195649356
0.02195649356
0.02195649356
0.02195649356
0.02195649356
0.02195649356
0.02195649356
0.02195649356
0.02195649356
0.02195649356
0.02195649356
0.02195649356
0.02195649356
0.02195649356
0.02195649356
0.02195649356
0.02195649356
0.02195649356
0.02195649356
0.02195649356
0.02195649356
0.02195649356
0.02195649356
0.02195649356
0.02195649356
0.02195649356
0.02195649355
0.02195649355
0.02195649355
0.02195649355
0.02195649355
0.02195649355
0.02195649355
0.02195649355
0.02195649355
0.02195649355
0.02195649355
0.02195649355
0.02195649355
0.02195649355
0.02195649355
0.02195649355
0.02195649355
0.02195649355
0.02195649355
0.02195649355
0.02195649355
0.02195649355
0.02195649355
0.02195649355
0.02195649355
0.02195649355
0.02195649355
0.02195649355
0.02195649355
0.3940406209
0.3939916602
0.3940669409
0.3941423446
0.3942158247
0.3942868832
0.3943551145
0.3944201448
0.3944816342
0.3945392815
0.3945928277
0.3946420586
0.3946868065
0.3947269508
0.3947624172
0.3947931763
0.3948192412
0.394840664
0.3948575324
0.3948699646
0.3948781051
0.3948821196
0.3948821897
0.3948785085
0.3948712754
0.3948606923
0.3948469591
0.3948302704
0.3948108129
0.3947887624
0.3947642823
0.3947375224
0.3947086174
0.3946776871
0.3946448362
0.3946101541
0.3945737163
0.3945355845
0.3944958079
0.3944544241
0.39441146
0.3943669334
0.3943208535
0.3942732224
0.3942240358
0.394173284
0.3941209527
0.3940670236
0.3940114753
0.3939542832
0.3938954208
0.3938348594
0.3937725684
0.3937085161
0.3936426693
0.3935749934
0.3935054532
0.3934340121
0.3933606327
0.3932852769
0.3932079055
0.393128479
0.3930469569
0.3929632985
0.3928774627
0.392789408
0.3926990934
0.3926064778
0.392511521
0.3924141835
0.3923144273
0.3922122157
0.3921075146
0.3920002919
0.391890519
0.3917781704
0.3916632247
0.3915456644
0.3914254761
0.3913026502
0.3911771788
0.3910490542
0.3909182613
0.3907847335
0.3906477477
0.3904964796
0.3901420748
0.386828254
0.3656155044
0.2655634059
0.02246143268
0.02195660445
0.02195649362
0.02195649358
0.02195649358
0.02195649358
0.02195649358
0.02195649358
0.02195649358
0.02195649358
0.02195649358
0.02195649358
0.02195649358
0.02195649358
0.02195649357
0.02195649357
0.02195649357
0.02195649357
0.02195649357
0.02195649357
0.02195649357
0.02195649357
0.02195649357
0.02195649357
0.02195649357
0.02195649357
0.02195649357
0.02195649357
0.02195649357
0.02195649357
0.02195649357
0.02195649357
0.02195649357
0.02195649357
0.02195649357
0.02195649357
0.02195649357
0.02195649357
0.02195649357
0.02195649357
0.02195649357
0.02195649357
0.02195649357
0.02195649357
0.02195649357
0.02195649356
0.02195649356
0.02195649356
0.02195649356
0.02195649356
0.02195649356
0.02195649356
0.02195649356
0.02195649356
0.02195649356
0.02195649356
0.02195649356
0.02195649356
0.02195649356
0.02195649356
0.02195649356
0.02195649356
0.02195649356
0.02195649356
0.02195649356
0.02195649356
0.02195649356
0.02195649356
0.02195649356
0.02195649356
0.02195649356
0.02195649356
0.02195649356
0.02195649356
0.02195649356
0.02195649356
0.02195649356
0.02195649355
0.02195649355
0.02195649355
0.02195649355
0.02195649355
0.02195649355
0.02195649355
0.02195649355
0.02195649355
0.02195649355
0.02195649355
0.02195649355
0.02195649355
0.02195649355
0.02195649355
0.02195649355
0.02195649355
0.02195649355
0.02195649355
0.02195649355
0.02195649355
0.02195649355
0.02195649355
0.02195649355
0.02195649355
0.02195649355
0.02195649355
0.02195649355
0.02195649355
0.02195649355
0.02195649355
0.02195649355
0.02195649355
0.3940497283
0.3940008466
0.3940761175
0.3941515098
0.3942249784
0.3942960254
0.3943642456
0.3944292652
0.3944907447
0.394548383
0.3946019211
0.3946511451
0.3946958873
0.3947360272
0.3947714905
0.394802248
0.3948283126
0.3948497366
0.3948666075
0.3948790436
0.3948871893
0.3948912103
0.3948912881
0.3948876158
0.3948803929
0.3948698211
0.3948561002
0.3948394251
0.3948199822
0.3947979476
0.3947734846
0.3947467431
0.3947178579
0.3946869488
0.3946541206
0.3946194629
0.3945830513
0.3945449475
0.394505201
0.3944638492
0.3944209195
0.3943764296
0.3943303888
0.3942827995
0.3942336574
0.394182953
0.3941306719
0.3940767962
0.3940213044
0.3939641721
0.3939053729
0.3938448781
0.3937826575
0.3937186791
0.39365291
0.3935853157
0.3935158609
0.3934445091
0.3933712231
0.3932959645
0.3932186943
0.3931393726
0.3930579588
0.3929744119
0.3928886902
0.3928007518
0.3927105546
0.3926180564
0.3925232154
0.39242599
0.3923263395
0.3922242238
0.392119604
0.3920124426
0.3919027033
0.3917903513
0.3916753531
0.3915576764
0.3914372888
0.3913141573
0.3911882458
0.391059512
0.3909279013
0.3907933029
0.3906549566
0.3905021561
0.3901491367
0.3868760044
0.3658539763
0.2668429248
0.02246704582
0.02195660566
0.02195649362
0.02195649357
0.02195649357
0.02195649357
0.02195649357
0.02195649357
0.02195649357
0.02195649357
0.02195649357
0.02195649357
0.02195649357
0.02195649357
0.02195649357
0.02195649357
0.02195649357
0.02195649357
0.02195649357
0.02195649357
0.02195649357
0.02195649357
0.02195649357
0.02195649357
0.02195649357
0.02195649357
0.02195649357
0.02195649357
0.02195649357
0.02195649357
0.02195649357
0.02195649357
0.02195649357
0.02195649357
0.02195649357
0.02195649357
0.02195649356
0.02195649356
0.02195649356
0.02195649356
0.02195649356
0.02195649356
0.02195649356
0.02195649356
0.02195649356
0.02195649356
0.02195649356
0.02195649356
0.02195649356
0.02195649356
0.02195649356
0.02195649356
0.02195649356
0.02195649356
0.02195649356
0.02195649356
0.02195649356
0.02195649356
0.02195649356
0.02195649356
0.02195649356
0.02195649356
0.02195649356
0.02195649356
0.02195649356
0.02195649356
0.02195649356
0.02195649356
0.02195649356
0.02195649356
0.02195649356
0.02195649356
0.02195649355
0.02195649355
0.02195649355
0.02195649355
0.02195649355
0.02195649355
0.02195649355
0.02195649355
0.02195649355
0.02195649355
0.02195649355
0.02195649355
0.02195649355
0.02195649355
0.02195649355
0.02195649355
0.02195649355
0.02195649355
0.02195649355
0.02195649355
0.02195649355
0.02195649355
0.02195649355
0.02195649355
0.02195649355
0.02195649355
0.02195649355
0.02195649355
0.02195649355
0.02195649355
0.02195649355
0.02195649355
0.02195649355
0.02195649355
0.02195649355
0.02195649355
0.02195649355
0.02195649355
0.394056527
0.3940077385
0.3940830002
0.394158381
0.3942318374
0.3943028716
0.394371079
0.394436086
0.3944975533
0.3945551799
0.3946087072
0.3946579212
0.3947026545
0.3947427865
0.3947782433
0.3948089953
0.3948350558
0.3948564769
0.3948733461
0.3948857816
0.3948939279
0.3948979506
0.3948980312
0.3948943627
0.3948871446
0.3948765785
0.3948628643
0.3948461969
0.3948267627
0.3948047379
0.3947802858
0.3947535563
0.3947246844
0.39469379
0.3946609778
0.3946263379
0.3945899456
0.394551863
0.3945121396
0.3944708131
0.3944279108
0.3943834506
0.3943374421
0.3942898875
0.3942407828
0.3941901186
0.3941378807
0.3940840511
0.3940286084
0.3939715285
0.3939127849
0.393852349
0.3937901906
0.3937262779
0.3936605778
0.393593056
0.3935236771
0.3934524046
0.3933792011
0.3933040281
0.3932268464
0.3931476157
0.3930662952
0.3929828431
0.392897217
0.3928093742
0.3927192711
0.3926268642
0.3925321094
0.3924349626
0.3923353799
0.3922333172
0.3921287305
0.3920215759
0.3919118093
0.3917993864
0.391684262
0.3915663895
0.3914457198
0.3913221998
0.3911957704
0.3910663636
0.3909338967
0.3907982311
0.3906585908
0.3905044198
0.3901531918
0.3869227442
0.3660995986
0.2681633157
0.02247287568
0.02195660693
0.02195649361
0.02195649357
0.02195649357
0.02195649357
0.02195649357
0.02195649357
0.02195649357
0.02195649357
0.02195649357
0.02195649357
0.02195649357
0.02195649357
0.02195649357
0.02195649357
0.02195649357
0.02195649357
0.02195649357
0.02195649357
0.02195649357
0.02195649357
0.02195649357
0.02195649357
0.02195649357
0.02195649357
0.02195649356
0.02195649356
0.02195649356
0.02195649356
0.02195649356
0.02195649356
0.02195649356
0.02195649356
0.02195649356
0.02195649356
0.02195649356
0.02195649356
0.02195649356
0.02195649356
0.02195649356
0.02195649356
0.02195649356
0.02195649356
0.02195649356
0.02195649356
0.02195649356
0.02195649356
0.02195649356
0.02195649356
0.02195649356
0.02195649356
0.02195649356
0.02195649356
0.02195649356
0.02195649356
0.02195649356
0.02195649356
0.02195649356
0.02195649356
0.02195649356
0.02195649356
0.02195649356
0.02195649356
0.02195649356
0.02195649356
0.02195649356
0.02195649355
0.02195649355
0.02195649355
0.02195649355
0.02195649355
0.02195649355
0.02195649355
0.02195649355
0.02195649355
0.02195649355
0.02195649355
0.02195649355
0.02195649355
0.02195649355
0.02195649355
0.02195649355
0.02195649355
0.02195649355
0.02195649355
0.02195649355
0.02195649355
0.02195649355
0.02195649355
0.02195649355
0.02195649355
0.02195649355
0.02195649355
0.02195649355
0.02195649355
0.02195649355
0.02195649355
0.02195649355
0.02195649355
0.02195649355
0.02195649355
0.02195649355
0.02195649355
0.02195649355
0.02195649355
0.02195649355
0.02195649355
0.02195649355
0.02195649355
0.3940613468
0.394012666
0.3940879189
0.3941632879
0.394236731
0.3943077513
0.3943759442
0.3944409366
0.3945023894
0.394560002
0.3946135157
0.394662717
0.3947074385
0.3947475597
0.3947830067
0.3948137501
0.394839803
0.3948612176
0.3948780815
0.3948905127
0.3948986558
0.3949026761
0.3949027552
0.3948990862
0.3948918683
0.3948813033
0.394867591
0.3948509263
0.3948314958
0.3948094754
0.3947850287
0.3947583057
0.3947294414
0.3946985559
0.394665754
0.3946311257
0.3945947468
0.3945566793
0.3945169728
0.3944756652
0.394432784
0.3943883471
0.3943423642
0.3942948378
0.3942457639
0.394195133
0.3941429313
0.3940891407
0.3940337399
0.3939767048
0.393918009
0.3938576239
0.3937955192
0.3937316633
0.3936660229
0.3935985636
0.39352925
0.3934580453
0.393384912
0.3933098112
0.3932327034
0.3931535478
0.3930723029
0.3929889261
0.3929033742
0.3928156029
0.3927255674
0.3926332219
0.3925385201
0.3924414151
0.3923418592
0.3922398038
0.3921351998
0.3920279968
0.391918143
0.3918055851
0.3916902671
0.3915721301
0.3914511106
0.3913271398
0.3912001412
0.3910700287
0.3909367014
0.3908000052
0.3906591622
0.3905037879
0.3901547178
0.3869688294
0.3663525828
0.2695234385
0.02247892066
0.02195660824
0.02195649361
0.02195649357
0.02195649357
0.02195649357
0.02195649357
0.02195649357
0.02195649357
0.02195649357
0.02195649357
0.02195649357
0.02195649357
0.02195649357
0.02195649357
0.02195649357
0.02195649357
0.02195649356
0.02195649356
0.02195649356
0.02195649356
0.02195649356
0.02195649356
0.02195649356
0.02195649356
0.02195649356
0.02195649356
0.02195649356
0.02195649356
0.02195649356
0.02195649356
0.02195649356
0.02195649356
0.02195649356
0.02195649356
0.02195649356
0.02195649356
0.02195649356
0.02195649356
0.02195649356
0.02195649356
0.02195649356
0.02195649356
0.02195649356
0.02195649356
0.02195649356
0.02195649356
0.02195649356
0.02195649356
0.02195649356
0.02195649356
0.02195649356
0.02195649356
0.02195649356
0.02195649356
0.02195649356
0.02195649356
0.02195649356
0.02195649356
0.02195649356
0.02195649356
0.02195649356
0.02195649356
0.02195649355
0.02195649355
0.02195649355
0.02195649355
0.02195649355
0.02195649355
0.02195649355
0.02195649355
0.02195649355
0.02195649355
0.02195649355
0.02195649355
0.02195649355
0.02195649355
0.02195649355
0.02195649355
0.02195649355
0.02195649355