/*--------------------------------*- C++ -*----------------------------------*\
| =========                 |                                                 |
| \\      /  F ield         | OpenFOAM: The Open Source CFD Toolbox           |
|  \\    /   O peration     | Version:  v1706                                 |
|   \\  /    A nd           | Web:      www.OpenFOAM.com                      |
|    \\/     M anipulation  |                                                 |
\*---------------------------------------------------------------------------*/
FoamFile
{
    version     2.0;
    format      ascii;
    class       vectorField;
    location    "0.1/lagrangian/dsmc";
    object      tracerDistanceTravelled;
}
// * * * * * * * * * * * * * * * * * * * * * * * * * * * * * * * * * * * * * //


97053
(
(2.387921884 1.99430049 0.2884248369)
(2.566690221 1.832003627 0.2743470169)
(2.585059253 1.936117546 0.2838522276)
(2.445385531 1.703590221 0.2192107386)
(2.45131069 1.86356884 0.2487956513)
(2.245100861 1.711713309 0.2023384535)
(2.42268009 1.678271899 0.2205156665)
(2.419735579 1.745924413 0.223617301)
(1.96197617 1.54231376 0.2259326317)
(2.685004464 1.762424678 0.2333317465)
(2.459470014 1.72166182 0.2756683979)
(2.622866292 1.61224195 0.1967474579)
(2.114490812 1.842962746 0.2869230125)
(2.181208068 1.631193502 0.2534795385)
(2.286555421 1.64116986 0.2627178342)
(2.217243403 1.601503956 0.2065603433)
(2.13163366 1.656227835 0.2188028282)
(2.204821278 1.457996884 0.2071125741)
(2.290393259 1.725036761 0.2283380756)
(2.027423283 1.714503621 0.2302431621)
(2.066904293 1.538637519 0.2144085175)
(2.101966981 1.63555914 0.2417549495)
(2.455937423 1.610619857 0.1988778332)
(2.033450367 1.478088685 0.2184478593)
(2.269152812 1.60485248 0.2375944501)
(2.311132048 1.935080076 0.2246432975)
(1.969364334 1.443495832 0.2123328308)
(2.17444903 1.423732857 0.2187809674)
(2.344888175 1.576153962 0.2252194763)
(1.985653614 1.537837041 0.1859188579)
(1.946209983 1.787424089 0.2625498001)
(2.223383311 1.378997673 0.2073885464)
(1.926022062 1.637827748 0.2519264231)
(1.899267457 1.725737538 0.2133419986)
(2.111074454 1.629787373 0.2218725678)
(2.012102322 1.561310914 0.213066553)
(2.186878446 1.901419455 0.2704955073)
(1.787829168 1.395469327 0.2081641587)
(2.45274108 1.569558303 0.2329729929)
(2.075794764 1.578588632 0.2219706742)
(2.039159178 1.809980776 0.2231480815)
(2.423541449 1.629145973 0.2167979024)
(1.759292475 1.305637312 0.208572763)
(1.939704816 1.445854905 0.1908608957)
(1.913387035 1.55474777 0.1841836792)
(2.07622278 1.693883071 0.1882169613)
(2.161740463 1.631470142 0.193330182)
(2.011036209 1.522692668 0.1783833194)
(1.879247029 1.629365951 0.2116137872)
(2.243373494 1.668983461 0.2221613387)
(1.878687183 1.402089762 0.1724551916)
(2.100983187 1.805253632 0.2170434961)
(2.3373908 1.559810298 0.1886453955)
(2.170962684 1.576027286 0.214052049)
(2.012636969 1.585280193 0.2008348168)
(1.963310033 1.306145888 0.1876450021)
(1.94741879 1.396755341 0.2195465536)
(1.937176509 1.453881877 0.2585079586)
(1.934324406 1.684247316 0.2106418458)
(2.117848648 1.336717515 0.1812301029)
(1.909561174 1.686834268 0.2323220476)
(2.244348648 1.615942024 0.2254715657)
(2.274548583 1.609401023 0.2346259308)
(1.907683999 1.63297819 0.2177726928)
(2.091472097 1.48136 0.2048205323)
(1.917557583 1.52858474 0.2147355746)
(2.233982383 1.451167622 0.1978778077)
(1.808192197 1.637783598 0.1999162328)
(2.141873824 1.780698415 0.1839408455)
(1.871505596 1.490729284 0.1918681458)
(2.16906711 1.208405309 0.177154104)
(2.133796552 1.555538898 0.1963460065)
(2.15235019 1.788498719 0.2793205087)
(2.138080496 1.465381724 0.2249490471)
(2.115498587 1.658393854 0.2274219177)
(2.368646971 1.632228373 0.2153568623)
(2.121429813 1.263607831 0.2230585512)
(1.916850175 1.278244634 0.2037205367)
(2.135291577 1.339208316 0.1871171551)
(1.86467338 1.700852402 0.2071053834)
(2.138490135 1.756420304 0.1891418102)
(2.07535672 1.304953528 0.2252104764)
(1.851738175 1.6019816 0.1918009812)
(1.823561805 1.629872197 0.1897260876)
(1.925799739 1.257201226 0.2016184102)
(1.823541857 1.556254448 0.170507294)
(1.801990564 1.305956915 0.213251256)
(2.145582253 1.284512802 0.2125473112)
(1.92060717 1.533470543 0.1877097536)
(1.919280894 1.321858543 0.2029335709)
(2.159725054 1.290874505 0.2100885802)
(2.017263597 1.46061846 0.1811055309)
(1.969153109 1.579851914 0.200718991)
(1.98920008 1.403564754 0.2170644206)
(2.097364458 1.416620056 0.20967314)
(2.103658595 1.60060451 0.2507403311)
(1.986196893 1.732524866 0.2344862953)
(1.983974386 1.465782246 0.2189414324)
(1.824214865 1.483353364 0.1909606)
(1.976888096 1.780052621 0.2208129461)
(2.1544971 1.688065882 0.2287387383)
(1.912651502 1.270286238 0.2108806891)
(1.719497727 1.332266646 0.1800008673)
(1.722823096 1.577925422 0.2076710326)
(1.777992752 1.256837142 0.1931237506)
(1.996327797 1.426522743 0.2030303531)
(1.75650251 1.360457647 0.2184984708)
(1.828981292 1.26703128 0.1766102402)
(1.783700331 1.241188299 0.1694597047)
(2.007108801 1.825340764 0.2026066615)
(2.06925462 1.300817118 0.1594175893)
(1.891797223 1.515300696 0.1978663326)
(2.171662639 1.552430325 0.2008934094)
(1.716533684 1.415484721 0.1931040189)
(2.109477301 1.588745493 0.2057655518)
(1.855162796 1.253523286 0.210348391)
(1.971427164 1.429318642 0.1914752264)
(2.099937942 1.53496258 0.1867994772)
(1.926917438 1.426713017 0.2095457193)
(1.968420834 1.404157059 0.2133319633)
(1.782171542 1.700135854 0.1765374924)
(2.110472294 1.710821341 0.214472414)
(1.887408034 1.302862073 0.18425006)
(2.149650769 1.378308988 0.1958670639)
(1.927021749 1.554425643 0.2027555039)
(1.945070595 1.303159935 0.1896497163)
(2.057111979 1.690113093 0.2098845336)
(2.025103774 1.292911125 0.1981269503)
(1.945654294 1.440887231 0.1891037438)
(2.159743524 1.730384333 0.2134342006)
(1.624021359 1.589240099 0.1723420324)
(1.722937942 1.483326569 0.209048174)
(1.676473537 1.275772721 0.1957882541)
(1.737649248 1.462891559 0.1837205971)
(1.862175848 1.583415837 0.2055787372)
(2.067670548 1.366964861 0.1730532497)
(2.224715601 1.414480674 0.1790940791)
(2.042316949 1.737605986 0.1906074557)
(1.953837825 1.428743547 0.1940043537)
(1.982219723 1.462215269 0.1894437706)
(1.890940966 1.299620883 0.1711472938)
(1.869426061 1.393873678 0.1996938467)
(1.913154423 1.490024242 0.2008102616)
(2.102808904 1.344372963 0.1926405838)
(1.970331667 1.415873002 0.1600863742)
(1.932427576 1.638705733 0.1749562413)
(1.959844575 1.532232369 0.1853557946)
(1.932897671 1.552472682 0.2020761063)
(2.00462202 1.160915918 0.1384463107)
(1.681088196 1.50825544 0.1702519366)
(2.113931782 1.313631678 0.2284951657)
(1.873523359 1.361868603 0.1648915822)
(1.900808838 1.079423184 0.2052173756)
(1.841228557 1.530050134 0.1650910415)
(1.960451431 1.278733799 0.1953738669)
(1.773549139 1.269081163 0.158354443)
(2.135110789 1.790580562 0.216324011)
(2.060134064 1.5780392 0.1916593907)
(1.898506733 1.324205199 0.178504433)
(1.976140044 1.140039424 0.1545096792)
(1.771524035 1.291490205 0.1689287054)
(1.973900574 1.651090976 0.2346253922)
(1.879058169 1.71202473 0.2223766395)
(2.101919387 1.488541789 0.1864794071)
(2.086099225 1.704552294 0.2117262509)
(2.172242556 1.575385707 0.1950137684)
(2.023950679 1.579279508 0.1798956041)
(1.768468567 1.406451325 0.1756850297)
(1.995666447 1.627983703 0.1908328001)
(1.819972237 1.216183277 0.1743116982)
(2.037039123 1.238543729 0.1756130881)
(1.944315656 1.352179898 0.2131111816)
(1.863649656 1.139489018 0.1919149229)
(2.013637369 1.763333246 0.1892033594)
(2.015740085 1.698415582 0.2035231182)
(1.954095025 1.398396481 0.1869892639)
(1.872971013 1.427172573 0.1960456179)
(1.861401671 1.262839077 0.146970074)
(1.760328698 1.538358278 0.2066436027)
(1.911216046 1.750170058 0.2004225077)
(1.92428985 1.458422822 0.208354747)
(1.889632075 1.332639222 0.2309876313)
(1.747395003 1.332471643 0.1781455695)
(2.00760313 1.398763847 0.1976374838)
(1.806295599 1.109211134 0.1714454933)
(1.928651285 1.090840509 0.18716359)
(1.696931151 1.402041046 0.1955776937)
(1.790794079 1.132447874 0.1455035312)
(2.072166411 1.427307271 0.2100419974)
(1.921106858 1.335551021 0.1656554136)
(1.68061661 1.258232258 0.1736815184)
(1.848637328 1.555837352 0.2008930742)
(1.916278187 1.332568597 0.2049795158)
(1.977528503 1.342307204 0.1616351322)
(1.931444101 1.302176138 0.1848144154)
(1.607141585 1.40499517 0.195426645)
(1.956715014 1.481602322 0.1981204599)
(1.448543581 0.9757887526 0.1665353229)
(1.896367846 1.306155343 0.1856430352)
(1.901101577 1.455015657 0.1983673282)
(1.746955241 1.025565282 0.1644262549)
(1.924172719 1.167733715 0.1844308016)
(1.75160042 1.54749264 0.2082906639)
(1.839074841 1.578687369 0.2213001626)
(1.971921801 1.360550026 0.1836348722)
(1.873468852 1.477335041 0.2142717341)
(1.743287905 1.48388007 0.1629609532)
(1.941680845 1.230234814 0.2202983254)
(1.815990552 1.284449168 0.1770025864)
(1.779823269 1.431092824 0.1971864654)
(1.810066297 1.335787409 0.2013748326)
(1.931092795 1.499643959 0.1834720671)
(1.500243718 1.2539535 0.1795173075)
(1.833255526 1.181638188 0.1489690671)
(1.944059061 1.534650148 0.1860669311)
(1.845202058 1.39746273 0.2098872802)
(1.758505806 1.28685676 0.1507276468)
(1.809620161 1.451773019 0.2064071499)
(1.977093363 1.278008612 0.1760460833)
(1.923613977 1.533367391 0.1930145144)
(2.084421601 1.427751137 0.1809824598)
(1.801615168 1.15098867 0.1847507382)
(1.925911531 1.492953469 0.1967532045)
(1.781831092 1.457189203 0.2064362128)
(1.677617713 1.300993455 0.1932431647)
(1.830052007 1.510138801 0.2142140114)
(1.959158873 1.535230394 0.2099564223)
(1.660036214 0.9815489606 0.1604985129)
(1.756751381 1.39662795 0.1819708851)
(1.941378365 1.289851859 0.1750381835)
(1.987547405 1.229735975 0.1743898656)
(1.772603999 1.478644262 0.2076538847)
(1.827036168 1.031382976 0.1880994104)
(1.746195749 1.42596488 0.1593769556)
(1.804515579 1.445736093 0.1708386212)
(1.547985359 1.625909517 0.2135295735)
(1.654447638 1.317045424 0.1528737329)
(2.015609869 1.649039527 0.1959942396)
(1.839560898 1.388738655 0.1885854493)
(1.532078261 1.475378526 0.2063312098)
(1.599988989 1.417532141 0.1562386985)
(1.859121825 1.531908966 0.1870569211)
(2.054072105 1.30105777 0.190553476)
(2.034051202 1.367380455 0.2042699705)
(1.597912009 1.06201054 0.1707390284)
(2.06635875 1.330723889 0.2029446051)
(1.659162536 1.665204697 0.1794249296)
(1.845664894 1.526725186 0.2111456638)
(1.589739559 1.280498956 0.1730341946)
(1.875893547 1.371540162 0.19049238)
(1.761652825 1.666960022 0.1669975116)
(1.869286548 1.531339479 0.22079569)
(2.15785566 1.357884534 0.1708702627)
(1.959445107 1.445096736 0.2072535975)
(1.730430601 1.166160065 0.1619278331)
(1.623292947 1.209112732 0.1548732557)
(1.895157335 1.455862089 0.1867942665)
(1.78206187 1.310240722 0.1918871949)
(2.090658744 1.087742107 0.2103177656)
(2.124063628 1.164325957 0.1909967114)
(1.977485641 1.181571375 0.1738909191)
(1.940238863 1.151953792 0.1659204557)
(1.741788698 1.10993076 0.1421384867)
(1.801694562 1.089417657 0.17581134)
(2.333263895 1.55239409 0.2011802152)
(1.852627312 1.577230525 0.2095906)
(1.947088866 1.458324003 0.1863266071)
(1.825681412 1.566521675 0.2105972408)
(1.752941457 1.485084959 0.1709697413)
(1.853387996 1.380594144 0.1714286743)
(1.819352438 1.362671894 0.1730587627)
(1.801654869 1.232244249 0.1755222363)
(1.869592318 1.632196447 0.1987854278)
(1.601541325 1.537586707 0.2092239254)
(1.759205146 1.206843067 0.1761061504)
(1.62868584 1.311543715 0.1695891696)
(2.024881632 1.330967264 0.1674274424)
(1.95278826 1.618291463 0.1842932448)
(1.530798929 1.157652866 0.1673139818)
(1.596143252 1.030375059 0.1439091123)
(2.2089781 1.40558261 0.1784940588)
(1.883316906 1.413850228 0.2055774449)
(1.67566961 1.25418723 0.1701346277)
(1.879111055 0.9300170126 0.1437985421)
(1.992791437 1.126096585 0.1810179338)
(1.526716982 1.262919982 0.1651587461)
(1.664461245 1.430949007 0.2019599929)
(1.805230052 1.078561634 0.1756950375)
(1.869946882 1.375731745 0.2180950582)
(1.78454193 1.427337403 0.1939430157)
(1.846845902 1.12639345 0.1578738004)
(1.716151658 1.109597962 0.1643482648)
(1.769224443 1.338375381 0.1970052879)
(1.862314436 1.516494238 0.1950094837)
(2.116587505 1.250870244 0.1649301843)
(1.957627947 1.225919574 0.1760157963)
(1.605978238 1.668725268 0.1747096768)
(1.604554069 1.159350065 0.1759248329)
(1.835213682 1.238386716 0.1865788063)
(1.737218926 1.409138837 0.1829792603)
(1.804905652 1.376132687 0.1809962978)
(1.886356307 1.327618122 0.1774329734)
(2.120893413 1.553730361 0.1984752423)
(1.583831411 1.135966952 0.1779889707)
(1.883050095 1.020052649 0.178762281)
(1.890524745 1.2006999 0.1671662502)
(1.8572591 1.026534823 0.1837327872)
(1.897601529 1.566372334 0.1651250584)
(1.817772944 0.9597667855 0.1603975786)
(1.89014242 1.451466637 0.1731396383)
(1.941285295 1.354368702 0.1918436657)
(1.775921494 1.550026501 0.1959533383)
(1.77747753 1.532209341 0.179470396)
(1.842341472 1.809362671 0.2174226702)
(1.736279391 1.351020336 0.1887566168)
(1.882860099 1.467226993 0.1848848702)
(1.748144271 1.78240381 0.1819365654)
(1.732694517 1.360390503 0.1795447536)
(1.817275514 1.566978088 0.1856723945)
(1.9918943 1.258603877 0.1871981575)
(1.701277224 1.402166605 0.1488605617)
(1.641722034 1.159088395 0.1677039439)
(1.766464232 1.477716629 0.1889314669)
(1.748688946 0.9570085544 0.1397925488)
(1.850504868 1.325895619 0.1570984989)
(1.658544317 1.325105875 0.1689648523)
(1.599244408 1.213591031 0.1430623607)
(1.507299222 1.256794717 0.153813873)
(1.706909801 1.16323756 0.1660243965)
(1.982770655 1.237747885 0.171939878)
(1.815882249 1.498644423 0.1853341201)
(1.946714062 1.225169647 0.1512422618)
(1.685878507 1.278545143 0.1937253956)
(1.790989131 1.427083 0.1788388331)
(1.868039757 1.321956144 0.1932575984)
(1.842258661 1.491082641 0.1976284954)
(1.844636784 1.478242276 0.1939362611)
(1.987815262 1.238731104 0.1728939262)
(1.530336486 1.241514742 0.1508716935)
(1.699297586 1.648964695 0.2010714713)
(1.856486355 1.680799258 0.1971490369)
(1.930520799 1.353029446 0.2109070249)
(1.985056384 1.132336075 0.1801310008)
(1.668516276 1.350713894 0.1859462417)
(1.610418591 1.311594806 0.1569149445)
(1.834106187 1.43712774 0.1964087168)
(2.099302775 1.38032759 0.1874822285)
(1.947711789 1.339482285 0.2063752391)
(2.138749953 1.489167144 0.1948244773)
(1.723359726 1.415592085 0.1758752224)
(1.849614256 1.33254148 0.1914382516)
(1.594348076 1.515659433 0.1838104819)
(1.74555502 1.508113611 0.1975496069)
(1.735794474 1.385466547 0.1895167967)
(1.710557567 1.330562376 0.1987709157)
(2.072246093 1.092743422 0.1425901026)
(1.968448777 1.255135772 0.1705147515)
(1.679933624 1.170820209 0.1686003247)
(2.062961854 1.479491639 0.2409600236)
(1.752837338 1.149069812 0.162040697)
(2.022332839 1.428703112 0.2119422198)
(1.707585536 1.428684984 0.1688260954)
(1.764299395 1.210484792 0.1696033522)
(1.859036601 1.590772885 0.1804745201)
(2.128693722 1.45435938 0.1789553176)
(1.67781334 1.336000084 0.1504275948)
(1.99078923 1.240690419 0.1865915933)
(1.854218499 1.57584469 0.1746552692)
(1.795571538 1.391381116 0.1870308572)
(1.698707862 1.351600843 0.1756415334)
(1.803738066 1.40381695 0.1687263527)
(1.962329783 1.17733053 0.1555771581)
(1.687120415 1.304459398 0.1668804615)
(1.736931035 1.456771641 0.1834242561)
(1.686560343 1.26606525 0.1759142338)
(1.771388266 1.225054749 0.1622346807)
(1.863517989 1.227105518 0.1725612932)
(2.128696337 1.308864162 0.1818443869)
(1.60439281 1.606564104 0.178684291)
(1.591066587 1.461525396 0.1962361108)
(1.71938013 1.269324926 0.1796088886)
(1.452868272 1.327725286 0.190125683)
(1.804119087 1.411045617 0.19757897)
(1.601226175 1.481254437 0.1764343367)
(1.848280395 1.15023816 0.1585890727)
(1.898206801 1.135298858 0.1995750021)
(1.832709293 1.391804856 0.1829635024)
(1.861250269 1.364247116 0.1639582673)
(1.870436152 1.414269876 0.1974114191)
(1.938620386 1.422653119 0.1675877526)
(1.77064118 1.304776598 0.157793153)
(1.729502173 1.229410223 0.2074813988)
(1.587601855 1.213974824 0.177597753)
(1.783741756 1.014002709 0.1537864994)
(1.970172397 1.126243168 0.1777416401)
(1.800736619 1.317755732 0.1606158024)
(1.787855135 1.301420715 0.1660725227)
(1.636761889 1.126364453 0.1517296153)
(1.919359896 1.209890277 0.1811218078)
(1.735128787 1.581995819 0.1801552234)
(1.780047565 1.228536446 0.1559363839)
(1.597573519 1.204465612 0.1820786614)
(1.9120042 1.365545768 0.171704975)
(1.628568942 1.280482085 0.1711467947)
(1.763207193 1.213584947 0.1637411992)
(1.898322383 1.305725481 0.1773483425)
(1.57801554 1.352338917 0.1993079607)
(1.639307064 1.027545978 0.1529878603)
(1.773994763 1.544790112 0.1974226384)
(1.790425843 1.213599141 0.1813920091)
(1.90362059 1.214151878 0.1790063283)
(1.857588845 1.53636609 0.1739100142)
(1.767150801 1.465252577 0.1668874502)
(1.732101141 1.26561731 0.1546784133)
(1.758391561 1.244436449 0.1234774363)
(1.971515412 1.365592183 0.1652206925)
(1.677543785 1.508212801 0.1755033803)
(1.680107078 1.055093027 0.1483349883)
(1.706957623 1.005248341 0.1672688233)
(1.686545944 1.234688923 0.1640170495)
(1.770263207 0.9041130833 0.1611004043)
(1.932770714 1.405576015 0.1555073612)
(1.818228718 1.331936087 0.1939595757)
(1.804407242 1.415431762 0.1605891658)
(1.657570155 1.563060233 0.1753713964)
(1.987561568 1.330767362 0.163763924)
(1.919303623 1.281587341 0.192116514)
(1.62908719 1.188579232 0.1735436587)
(1.880316626 1.205460602 0.1262806695)
(1.859694263 1.302283769 0.1857486248)
(1.655417383 1.556492154 0.1469031168)
(1.877580014 1.386534906 0.1824777242)
(1.867075844 1.302090901 0.2190317412)
(1.67517827 1.153874144 0.1707700742)
(1.601528119 1.455306678 0.1756202161)
(1.642025746 1.089204161 0.1570683856)
(1.712409243 1.277183158 0.1759914626)
(1.67533288 1.34190531 0.1892063407)
(1.703141942 1.110017211 0.1460758547)
(1.688412327 1.456359778 0.2047951098)
(1.608918517 1.260556383 0.1791929957)
(1.618913795 1.275211872 0.1910105604)
(1.881402001 1.16351053 0.1729808385)
(1.937844773 1.239824707 0.1706126299)
(1.878637153 1.682849392 0.1709377908)
(1.739805159 1.356117687 0.1770072699)
(1.902530535 1.300036339 0.2046187293)
(1.51625701 1.252263155 0.180455499)
(1.793947383 1.14335959 0.1952632784)
(1.66964394 1.222337534 0.1610955334)
(1.923314003 1.35046888 0.197689964)
(1.71538144 1.086848279 0.1586304965)
(1.542497365 1.400741165 0.1466893811)
(1.612998971 1.333794515 0.1591636557)
(1.987546365 1.606145274 0.1650592646)
(1.59380919 1.172696057 0.1577676925)
(1.79249443 0.9029537589 0.138477901)
(2.0057309 1.403784126 0.2013055927)
(1.778688949 1.384742773 0.1764956392)
(1.847852177 1.480401571 0.1649050796)
(1.585366197 1.488105367 0.1983479376)
(2.037698061 1.213939554 0.1829106402)
(1.997903093 1.166587888 0.1809872939)
(1.854301976 1.563967421 0.1993479101)
(1.775983306 1.063617112 0.194236983)
(1.803815034 1.471001341 0.1712513505)
(1.872915181 1.424927928 0.1603856008)
(1.940010451 1.577336369 0.2013313344)
(1.838008122 1.36743 0.1692537266)
(1.538387783 1.394634196 0.1779391575)
(1.789048102 1.288705508 0.1582669013)
(1.923079519 1.395620859 0.1753587467)
(1.7965441 1.567958907 0.222207476)
(1.752491244 1.188954804 0.1681631803)
(1.778462698 1.325789486 0.2005579915)
(1.780883784 1.360691381 0.2064089574)
(1.605714068 1.15614913 0.1559402964)
(1.826644499 1.650570761 0.2290539624)
(1.935203327 1.44824428 0.186095076)
(1.59795448 1.253156175 0.1704394613)
(1.770747007 1.282626773 0.1748481164)
(1.808797071 1.156947602 0.1683518097)
(1.755522142 0.9680459024 0.1672323098)
(1.557473156 1.080174087 0.1765527837)
(1.79624264 1.373943006 0.1491494416)
(1.664695669 1.503635249 0.1763635011)
(1.574741699 1.167472853 0.1546325266)
(1.675039571 1.213060225 0.1389679217)
(1.807430853 1.483575241 0.1984574049)
(1.585039221 0.984485169 0.1445348533)
(1.878648203 1.494497207 0.1864846042)
(1.867859366 1.082169752 0.1692866153)
(1.820627609 1.201508845 0.1820006481)
(1.839967549 0.9752332431 0.1631578634)
(1.483945449 1.058498353 0.1533546963)
(2.109659868 1.451361845 0.2005594456)
(1.654074341 1.474715655 0.1634165066)
(1.454838103 1.357102573 0.1377147037)
(1.415751349 1.485252301 0.1620150904)
(1.691404498 1.617476794 0.1540712485)
(1.767143576 1.213723447 0.163606688)
(1.622990425 1.28876101 0.1814653169)
(1.800617382 1.378942355 0.156273469)
(1.724542876 1.740568817 0.2062363295)
(1.532007923 1.081650046 0.1639933524)
(1.919635951 1.371335906 0.1591536591)
(1.783489728 1.166455467 0.1395387352)
(1.553783817 1.122588869 0.1635245858)
(1.570151116 1.167663862 0.1675575888)
(1.603480926 1.056711061 0.1590381751)
(1.82291122 1.325938183 0.1619093454)
(1.620556622 1.211092648 0.1764140837)
(1.457280532 1.03853826 0.1733455658)
(1.651150033 1.182202572 0.1773964356)
(1.604203134 0.9663715764 0.1262184141)
(1.825385838 1.600694865 0.1727668656)
(1.652081738 1.173124972 0.1793057327)
(1.760603224 1.133584824 0.1335584729)
(1.8269567 0.8718082322 0.1434356236)
(1.806991658 1.635856355 0.2158444762)
(1.629482034 1.184966018 0.1855524464)
(1.743533075 1.229403098 0.1838844793)
(1.676603899 1.156766078 0.1744880767)
(1.732151735 1.581217253 0.1609093725)
(1.7448143 1.57341187 0.1749259798)
(1.607551649 1.379239657 0.1843703862)
(1.860407057 1.201841948 0.1915303427)
(1.699597045 1.287130759 0.1863415104)
(1.590142124 1.189861701 0.1539498152)
(1.966848556 1.440699078 0.2091320579)
(1.827083153 1.228145585 0.1528137379)
(1.544398325 1.200508234 0.1879646281)
(1.799096009 1.261136 0.1582170521)
(1.536691661 1.362172154 0.1498868596)
(1.504956703 0.9870249641 0.1649195673)
(1.652482674 1.087932071 0.1689233491)
(1.860066259 1.226465892 0.1815051989)
(1.993014174 1.314754844 0.1857549443)
(1.950007692 1.327276523 0.1819570478)
(1.496182213 1.552888438 0.1925119748)
(1.671531882 1.300152156 0.1619071362)
(1.804942919 1.370100018 0.1931693969)
(1.900307735 1.193305726 0.1717126159)
(1.846130325 1.206769201 0.1897433524)
(1.78692044 1.113643308 0.181446597)
(1.525541954 1.303825593 0.2032895196)
(1.783590777 1.122037946 0.1447052462)
(1.756404393 1.223949273 0.1671042591)
(1.97564757 1.576255524 0.1681666404)
(1.747913389 1.195272943 0.1683995572)
(1.77584272 1.42717835 0.1689521883)
(1.406742658 1.027541306 0.1317134633)
(1.797963544 1.126323348 0.1793369858)
(1.381378944 1.029736214 0.129624217)
(1.988822433 1.365324659 0.1826978412)
(1.459872692 1.234727637 0.1588702463)
(1.93720034 1.476849669 0.2111220428)
(1.928851548 1.471878123 0.1998925389)
(1.618887854 1.253223309 0.1687313511)
(1.698508544 1.233021119 0.1778333681)
(1.685712466 1.234381816 0.1515747806)
(1.76584377 1.355192581 0.1736149379)
(1.668077321 1.310297126 0.1449622104)
(1.660171358 1.138386898 0.1477235902)
(1.999804801 1.419836165 0.160710958)
(1.85116659 1.178651167 0.2018426638)
(1.665445284 1.129781139 0.1479709244)
(1.696309988 1.296735406 0.1368900461)
(1.674603423 1.410814324 0.1668234585)
(1.75929727 1.363636488 0.1786990352)
(1.5192442 1.044257714 0.1572526094)
(1.74528121 1.225681238 0.1611630862)
(1.604869876 1.105021683 0.1712074465)
(1.971395046 1.21442955 0.1722888388)
(1.780352262 1.491316888 0.1890901116)
(1.689672806 1.150516054 0.1723150685)
(1.727971433 1.378234289 0.175067423)
(1.733115487 1.325664152 0.182760445)
(1.504610469 1.140770158 0.1350342721)
(1.691239182 1.308856369 0.1630520447)
(1.757835185 1.086395035 0.1537267361)
(1.621857484 1.263722562 0.1643153432)
(1.542196419 1.554267247 0.2070071268)
(1.868620285 1.293227136 0.1744956157)
(1.923996034 1.542990712 0.1937005514)
(1.585595392 1.1898836 0.1670037508)
(1.820323393 1.414539475 0.2026623166)
(1.861388508 1.518304422 0.2043771415)
(1.670448084 1.007223388 0.184412449)
(1.557837241 1.331333465 0.1667374914)
(1.903455159 1.383404046 0.1816340196)
(1.89586423 1.380060482 0.1787308629)
(1.828820054 1.501210991 0.1576565046)
(1.68287614 1.02062949 0.1498994144)
(1.813118777 1.154742796 0.1610042328)
(1.543784172 1.179772638 0.1665487057)
(1.587074555 1.219186091 0.1598757073)
(1.696332035 1.055631014 0.1245818596)
(1.699934891 1.302426158 0.1742905129)
(1.934043118 1.27713478 0.1717983054)
(1.764169369 1.147691191 0.1486322283)
(1.710933479 1.407473866 0.1861203282)
(1.567984411 1.255118053 0.1883403799)
(1.863015851 0.9917794593 0.1529346264)
(1.74911401 1.094076767 0.16573409)
(1.763366088 1.429071313 0.1471156093)
(1.610579821 1.200344115 0.1483344733)
(1.703837397 1.127182717 0.1792065195)
(1.629123916 1.629511923 0.1977773277)
(1.664352848 1.387474292 0.1716881154)
(1.800215837 1.735755844 0.2337746188)
(1.692345308 1.0768159 0.173970702)
(1.588319608 1.052242369 0.1853281653)
(1.328438221 0.8640361637 0.1263872689)
(1.531996206 1.028584208 0.1260430839)
(1.663968615 1.392405099 0.2148592475)
(1.797426081 1.19232759 0.1771652272)
(1.43153514 1.367750675 0.1782230823)
(1.873503345 1.25508555 0.1842609899)
(1.752877859 1.601345598 0.1852322553)
(1.546528286 1.201910235 0.1355429384)
(1.812456937 1.475602144 0.1957077652)
(1.552403435 0.9922291704 0.1597519492)
(1.582673994 1.335543315 0.1627773394)
(1.916329629 1.387860663 0.1555875282)
(1.620293112 1.25912125 0.1710028906)
(1.685837694 0.9743459554 0.1432176468)
(1.4068191 1.202857175 0.1661150689)
(1.612999668 0.9825822058 0.115495679)
(1.761287247 1.309308965 0.1673698349)
(1.45693174 1.254403256 0.1714218863)
(1.751794501 1.220517434 0.1702852752)
(1.870968353 1.283559548 0.1913183751)
(1.562998232 1.136514202 0.1473761669)
(1.699877369 1.082766362 0.1603406795)
(1.705214737 1.340544469 0.1800370423)
(1.659874764 1.067217894 0.1562347265)
(1.971197425 1.051251801 0.1534090473)
(1.681571564 1.277091522 0.1734274825)
(1.697527188 1.247323011 0.1656715059)
(1.881903373 1.527769225 0.1755711511)
(1.795971802 1.626458683 0.1919473845)
(1.773174683 1.306579617 0.1715986414)
(1.58706298 1.235794989 0.1469739283)
(1.863753327 1.41745647 0.1971577643)
(1.659366541 1.025644996 0.1458273096)
(1.898245752 0.9022616025 0.1529451468)
(1.877903453 1.50395883 0.2032511568)
(1.895187647 1.469353264 0.1591098771)
(1.774871166 1.139196354 0.1643809897)
(1.667787178 1.314819475 0.1458780026)
(1.682043558 1.369367828 0.1815280101)
(1.74714867 1.310877036 0.1862332838)
(1.888585773 1.28062848 0.1689231747)
(1.772250822 1.382304499 0.1576953698)
(1.674253122 1.229985644 0.1631366716)
(1.798731896 1.549635778 0.1622245591)
(1.827521761 1.451560783 0.1892709735)
(1.707093573 1.475658179 0.1883788642)
(1.909166791 1.443815838 0.1680000153)
(1.639757904 1.396504369 0.1688358283)
(1.468951682 1.079436551 0.1800803427)
(1.902391418 1.479328178 0.1900381069)
(1.656135125 1.308947875 0.1453295347)
(1.705640833 1.205524723 0.1397560943)
(1.724990468 1.159652176 0.1671916095)
(1.983283606 1.354174601 0.1901043565)
(1.653818992 1.678456124 0.1727670076)
(1.809713577 1.077580511 0.182369291)
(1.550339936 1.223054573 0.1331265273)
(1.653666784 1.246120796 0.1705260598)
(1.665283468 0.8552833351 0.1666239841)
(1.756182134 1.159722434 0.1463093495)
(1.870821612 1.080713576 0.1437770636)
(1.638541229 1.013887493 0.1663623567)
(1.700868432 1.387498301 0.1579268578)
(1.740601739 1.186623971 0.1738237819)
(1.444723717 1.140453992 0.1580198538)
(1.678760299 1.080026297 0.1480706482)
(1.716741978 1.24439744 0.1408474191)
(1.698470175 1.236355197 0.1577084245)
(1.987093607 1.227037467 0.2044493769)
(1.679254277 1.22898569 0.1807282037)
(1.644694848 1.15431787 0.175349744)
(1.677545992 1.422880598 0.185655838)
(1.427957136 1.16006651 0.1418165615)
(1.559055664 1.066233911 0.1644807725)
(1.801025473 1.525444949 0.2010778209)
(1.801076556 1.47109039 0.1834432644)
(1.647162292 1.143033765 0.1778207872)
(1.733134007 0.9405536303 0.1678280078)
(1.614954469 1.48271729 0.1840072305)
(1.679763678 1.115220592 0.1475344634)
(1.791677799 1.564907746 0.2013912413)
(1.49195988 1.110487517 0.1465759193)
(2.100137937 1.457154571 0.1969274068)
(1.666899026 1.30425182 0.1762007055)
(1.771060262 1.326145445 0.1750325919)
(1.754205623 1.228514855 0.1684539296)
(1.620740721 1.290179603 0.184941017)
(1.720330044 1.282845836 0.1484225892)
(1.727515154 1.253193321 0.1674076877)
(1.72029128 1.402214527 0.1687115646)
(1.7521815 1.200381179 0.1535910249)
(1.702675824 1.323302691 0.1742360574)
(1.748144577 1.359191993 0.1715947187)
(1.742720404 1.255590685 0.1603043644)
(1.616509687 1.422620917 0.1744165541)
(1.572771242 1.047147307 0.1637390105)
(1.664803824 1.350002185 0.1784373606)
(1.720936451 1.446311102 0.1475309707)
(1.534345753 0.9520147526 0.1539478593)
(1.603660294 0.9867235121 0.1537942077)
(1.527688166 1.482472058 0.1564987692)
(1.832010379 1.231247701 0.1842852497)
(1.910573192 0.9912578693 0.1202360578)
(1.53404005 1.552621017 0.1610678093)
(1.540800374 1.275132308 0.1576680243)
(1.451130771 0.9269612792 0.1371186672)
(1.834230072 0.9511223197 0.1724623614)
(1.830912228 1.324076142 0.1912560247)
(1.739215592 1.56472442 0.2057878684)
(1.708099716 1.112124226 0.1657782702)
(1.738973862 1.032361232 0.1649961807)
(1.619157467 1.633564626 0.1670253136)
(1.685569992 1.380223119 0.1619905952)
(1.890314669 1.368130692 0.2052292438)
(1.765167248 1.298892793 0.1438295567)
(1.727206547 1.344965531 0.1771045602)
(1.750507629 1.233665286 0.1953900175)
(1.744278918 1.334975731 0.1772886764)
(1.689651598 1.534147207 0.1995500433)
(1.650887606 0.829169285 0.1480247543)
(1.779510247 1.40037332 0.1678336475)
(1.733142988 0.9757542586 0.159083196)
(1.794394469 1.206122406 0.1735188745)
(1.633253158 1.516876141 0.2072261433)
(1.929060068 1.031915594 0.1594409846)
(1.771102644 1.143062037 0.1738731631)
(1.627886018 1.151930801 0.1657253892)
(1.834702914 1.450125598 0.1676664292)
(2.330164692 1.500645005 0.1859495607)
(1.682086212 1.141456422 0.1447050234)
(1.468076733 1.58992132 0.1792836706)
(1.991166523 1.443661824 0.1762045327)
(1.623963612 1.155387117 0.1826293031)
(1.786148443 1.134487262 0.1651221643)
(1.876829421 1.288291697 0.1613804905)
(1.440051875 1.635413387 0.1848321026)
(1.867164279 1.239014927 0.1759542985)
(1.822819047 1.231756664 0.1289718487)
(1.784211443 1.425459983 0.1484518253)
(1.601577456 1.075257571 0.1467547801)
(1.698317455 1.229990684 0.1663829649)