/*--------------------------------*- C++ -*----------------------------------*\
| =========                 |                                                 |
| \\      /  F ield         | OpenFOAM: The Open Source CFD Toolbox           |
|  \\    /   O peration     | Version:  v1706                                 |
|   \\  /    A nd           | Web:      www.OpenFOAM.com                      |
|    \\/     M anipulation  |                                                 |
\*---------------------------------------------------------------------------*/
FoamFile
{
    version     2.0;
    format      ascii;
    class       vectorField;
    location    "0.1/lagrangian/dsmc";
    object      U;
}
// * * * * * * * * * * * * * * * * * * * * * * * * * * * * * * * * * * * * * //


97053
(
(311.1542523 181.2382931 315.5315388)
(-194.4507107 829.308532 15.26404864)
(47.12218265 29.17443244 137.3159883)
(173.8277933 -228.574943 201.4174089)
(218.0765514 -89.34801929 -61.89417803)
(176.330126 -48.32597251 -88.48245532)
(463.0406296 -78.30773498 446.8493554)
(-77.79007325 132.0122657 75.02394515)
(541.8752012 86.47962851 56.46895326)
(333.6997974 69.7198663 -68.91358155)
(81.46293439 145.7876296 -276.1453331)
(-162.6853784 66.11227584 177.0510011)
(441.0197639 196.5764657 43.05789595)
(-235.1749879 -243.4234335 -188.0465948)
(-61.14853341 -117.2052485 522.7496643)
(-47.45005412 174.8418805 390.1866787)
(-100.2835531 -231.1090898 -631.5821729)
(-27.36281452 -14.19277911 147.8537972)
(100.1404361 -99.24955258 -373.8311428)
(15.40402943 -78.13633222 -547.1986912)
(288.1351176 -426.0695913 34.31864046)
(312.1478654 -95.84549453 -582.4434921)
(-112.6763088 31.5171758 187.0452739)
(-275.2608207 24.89711117 -128.6656521)
(300.05313 -502.6648394 -262.6148061)
(140.4375942 239.5348448 319.5465661)
(96.85143479 -132.3471629 343.573421)
(-26.43103263 -79.35888197 -146.2598627)
(37.87721475 -34.22161672 156.4046431)
(-245.0155379 -99.83768546 117.8237484)
(382.8035473 -83.95694362 -201.5858555)
(22.16689747 32.30386505 266.738242)
(-15.70369545 70.77600989 357.1007003)
(144.9593662 245.8485076 76.54890931)
(190.6440935 497.681405 -96.59264065)
(432.5897054 -485.8228018 421.9968448)
(356.9045503 -103.7662091 176.2871686)
(77.20627369 46.97586166 -315.5126115)
(293.1800672 -206.115331 -199.6370002)
(500.3881074 171.349224 -105.2687846)
(172.6819013 -282.6534351 -189.456615)
(-347.6084899 443.6266633 -180.5317049)
(249.3712715 -132.2711116 167.7029184)
(635.8649078 365.8980713 -90.55250732)
(84.69143431 -154.2173856 -319.1376029)
(178.9966525 0.7852617722 -179.9238567)
(-51.21983205 -24.23638952 299.2242931)
(-9.310666376 320.67473 -240.402683)
(283.4892901 -9.98405411 355.923736)
(49.68910378 -251.7481065 -38.22194105)
(541.5311148 97.64084037 53.39387165)
(-327.1766631 171.6307763 287.5631164)
(54.698046 -54.95964483 -51.25176693)
(163.5722356 91.79844718 204.7541252)
(222.9666229 430.4990163 550.065936)
(-202.5596514 -621.9315264 -174.4121147)
(129.9405793 -163.8278208 560.6107873)
(-228.7083476 -84.55989988 -255.7754357)
(20.05512087 -353.5137282 267.1356285)
(124.1989946 -337.8493592 42.33145119)
(114.6870561 -32.79112757 128.2266104)
(-163.2125033 -108.2848895 208.0432852)
(448.9724931 31.05036889 -584.3902165)
(488.0138018 4.399397711 -222.736652)
(233.434145 -520.1596042 -305.2385038)
(-87.4622764 218.6111698 -40.53705054)
(483.8698433 -147.9022867 -404.901266)
(-102.8353164 134.9982531 -198.836912)
(161.7362293 -209.9410615 58.4836376)
(99.00166539 176.4246483 -167.1104438)
(149.8706767 81.45968633 219.6877834)
(235.8972922 -49.12127651 -163.7190657)
(224.6545945 206.2829602 -257.6905345)
(61.04608539 -26.77462685 -99.29636775)
(-226.6135896 -171.3734952 320.5667754)
(147.5793526 386.4067874 206.6865087)
(120.9844148 -434.6747661 -170.8327812)
(131.2807148 -322.3912736 26.81655138)
(368.1950246 -334.1011091 -382.3351708)
(-257.999417 191.5515922 101.0483202)
(-192.5007129 379.3266568 -174.6084468)
(193.5169543 -181.9698671 -98.07859182)
(165.1598387 132.7291873 145.9809336)
(-177.7317477 238.2575886 271.4340375)
(637.4697612 390.2786555 79.62850022)
(185.1955066 556.5357896 -66.48420538)
(48.71500952 -142.4329443 -61.86587379)
(52.80572442 22.83913421 180.8686228)
(256.876034 -196.5344633 330.0722043)
(318.3527559 -201.0355543 -8.550712659)
(-122.8871686 -161.7931384 -241.7108194)
(38.70534358 -6.8652904 -276.3030966)
(339.9728269 -655.1907371 -396.75862)
(-66.65225059 -99.56664183 -211.5448141)
(252.8564487 55.93792731 416.3810758)
(54.73979914 -156.5740761 77.70339241)
(-33.3883866 204.5332381 -199.3748501)
(-61.8576523 50.45759189 143.2542943)
(321.4512577 -32.71472963 345.795109)
(-422.418882 445.2340388 378.2749881)
(-104.6909428 -554.1774264 -54.88527493)
(112.7603109 -92.52986652 -23.1686561)
(221.3673236 -85.47666867 -15.97238664)
(159.3908961 -429.1423056 -106.2476016)
(166.2872409 215.7889072 -26.41364808)
(473.3417321 167.8575081 -241.0321993)
(-125.671997 -253.9303214 -154.7392562)
(-359.599008 -480.7606012 7.450615743)
(299.2204999 -276.73766 208.6616068)
(285.2901623 -222.3126264 20.55635328)
(-55.44873124 1.594804934 261.4064946)
(452.0229419 583.3041775 175.6588995)
(-305.4131125 203.5095188 216.5731721)
(486.0760109 -274.114741 -324.1162239)
(281.9086052 -7.777288044 -158.3493026)
(181.2290117 164.2197828 390.0274555)
(600.6828306 -4.210404733 -64.22122258)
(286.8541363 -61.75427694 -151.4140599)
(-197.3272485 -59.1706858 -300.6571361)
(156.5622105 164.051534 -32.76033779)
(-77.38185909 302.2179438 271.8593701)
(32.92271737 -273.9121764 -200.897111)
(-296.8797382 -227.321921 291.2873506)
(-6.409393482 -48.5312853 295.7467752)
(642.5341643 8.473596484 -93.26700016)
(-164.6608328 -272.4898792 353.4407367)
(341.6777683 -79.35372914 16.52167556)
(12.48793637 133.7894146 90.62832164)
(-17.5958483 386.8978114 69.35594142)
(209.3661717 479.6178271 -175.4277062)
(-5.288972285 -239.6364958 -192.0262652)
(-67.63196214 120.5568321 -127.5635452)
(-88.98885355 151.7831439 -210.9020561)
(-377.0476679 -128.2767633 78.46394664)
(23.94748951 366.4118693 -60.76301943)
(-87.45114418 320.8206661 146.0906708)
(64.441944 231.4018422 166.2587936)
(-262.7714899 -142.7221901 -150.1686264)
(78.49763249 156.4234211 -323.5346894)
(-252.3902552 258.0382595 -474.0477327)
(-286.2288281 -25.68954488 89.15892607)
(171.6025613 88.82231441 -87.63349464)
(159.5558462 -414.2113383 108.3490218)
(46.59735703 -265.2535132 532.0384182)
(-43.86873931 87.23954443 -407.3176547)
(483.4932693 -245.9545597 21.82103697)
(-376.4631202 -326.0543324 -14.85651426)
(94.11922092 -21.48756338 373.7301651)
(190.560414 88.30405347 -517.9605621)
(281.5652843 109.7398586 77.94190492)
(435.5416301 -501.3550048 -212.7544485)
(-85.5777696 87.78645674 71.46144337)
(-15.41055912 -246.214701 173.8308595)
(973.8371523 19.59198392 -135.438641)
(-16.89883456 215.2730976 177.5107053)
(475.9781004 257.577416 -78.9460091)
(111.6183185 -180.6316457 307.3444512)
(242.1463904 88.49568947 133.4550802)
(-182.8983053 229.6380929 -305.423006)
(103.8596839 39.71194015 -225.8508716)
(50.28915336 -168.1624084 31.49292556)
(22.08376548 -69.69842285 -29.65135982)
(-279.8228886 162.0262894 -39.5306686)
(366.0214582 81.32427684 -251.2174743)
(30.79015068 -261.1648656 -218.9975105)
(-315.2976676 206.779142 5.413640342)
(-222.6332296 -310.4216815 -132.2574892)
(365.5502258 275.4382463 264.1858094)
(56.3225123 132.2451948 -247.5506382)
(90.51239645 71.30961679 93.22808243)
(123.8484578 246.3030837 -5.088543902)
(-265.3243166 58.6042132 209.9217018)
(71.11580863 118.4896044 -189.7481183)
(192.8129309 -202.7857228 -34.26799904)
(-50.21528938 37.85453325 -191.1876108)
(74.80144854 238.5750903 225.9723035)
(-90.75617679 50.72789042 178.0328877)
(82.27552221 -282.1696487 -77.32139462)
(-111.1223419 185.6336734 34.39083951)
(-340.7358723 133.0425191 -195.4272301)
(-168.2050954 199.6486567 92.48390524)
(84.9912167 140.1652915 -13.01632674)
(788.6217479 118.0729494 267.5831421)
(351.5449983 -270.925936 -67.23420335)
(276.4858733 -119.8652826 28.11520175)
(133.9351944 175.6608745 -158.758206)
(3.30196386 187.8702516 -186.5980455)
(-236.5182946 -168.1275271 -182.5045018)
(126.7451646 205.9277776 -33.56533356)
(-340.0572492 208.3665938 43.55020218)
(53.87868922 -94.56130856 206.828019)
(261.6577554 -56.85938482 43.09338776)
(382.5058802 -235.1952919 -282.5234857)
(-168.1271264 205.1219547 -1.133248264)
(18.63136181 -127.9415152 106.1772667)
(-336.4052551 456.3927463 61.00340554)
(231.1562679 -264.9708346 -182.7954557)
(-147.5311669 247.906152 -247.3486356)
(245.8059251 252.2258039 228.4316692)
(-151.3405508 -406.9451402 -39.91081714)
(281.095404 79.10178786 -505.8540477)
(114.0518157 62.58268534 -182.751301)
(285.2685808 -289.7817164 122.3392758)
(51.9481306 -161.2654296 87.98710596)
(-328.992714 82.99824879 -1.830265274)
(242.3857933 137.2500958 118.6657898)
(-164.1213214 -448.7802219 20.19713768)
(-189.4275144 133.5029867 -122.700277)
(25.77518396 90.71926717 -89.77823139)
(-290.4612743 -233.8344767 81.67600875)
(378.7803334 237.5713683 67.53608766)
(-112.1202596 121.1848306 -277.5185549)
(335.9841402 -182.1099858 -102.3818547)
(251.3246685 106.7958928 -222.7625273)
(25.91054843 60.30921023 48.5409471)
(-85.2093055 314.7570003 -121.2853499)
(-4.071608561 47.8638956 -112.273382)
(238.1441474 -284.0756147 212.9856007)
(728.4892365 177.4537782 -211.8236143)
(-65.20121149 -184.1384065 45.28565195)
(252.1950388 169.7537308 20.51649004)
(105.3719654 -249.3310362 -688.2635101)
(137.0800476 16.02037236 187.2873744)
(318.109323 130.0016692 575.1455481)
(-100.9907986 -10.45054641 136.8294934)
(63.758696 264.0286161 112.4740715)
(126.5611693 544.6437368 166.3102235)
(152.5143738 -86.41671774 -561.9241654)
(239.9479375 -273.0993643 254.331684)
(240.8269198 -222.7926438 25.69125245)
(223.4429512 17.85790698 -66.68343332)
(-41.31624876 -298.1534753 108.2266618)
(143.2887484 58.10522576 189.6861051)
(-194.506464 305.4126206 335.6083796)
(75.94486407 -28.3175843 100.7102515)
(-540.7330813 112.2512718 -175.4582513)
(11.27187932 -155.2335382 446.6445048)
(26.60167283 -20.26584475 -56.77365589)
(356.807283 -366.1252675 86.64026241)
(-212.7411259 98.83207973 -268.8726888)
(288.0866795 -164.2721058 -166.2886048)
(6.120986853 358.3609522 -136.4519924)
(-28.40320974 -507.2508053 -200.8433072)
(50.50751305 39.01673513 -250.9381674)
(41.79957299 36.31028516 138.5755639)
(98.1391829 -19.10195341 125.4999056)
(78.54069131 34.46976981 281.1169956)
(-415.9802056 221.3512153 -428.9121578)
(37.81530077 -165.9320053 -118.2764436)
(-7.08450414 39.67481196 412.4266804)
(340.920039 -212.0561735 -216.4786584)
(-96.65491301 -36.69346835 382.3272377)
(304.3197176 424.542424 -108.1916546)
(285.6011512 290.6924082 350.8149371)
(143.4376229 -567.7327324 -212.0610593)
(-65.00677469 -55.62280983 -27.89106403)
(550.422157 250.5102024 215.1337394)
(25.70319652 246.019484 -83.95875387)
(-107.0573434 -342.6722774 102.8351741)
(726.9355728 -401.3853434 553.6451937)
(245.0470214 -105.0747472 222.2270755)
(-227.1814733 241.8870485 41.38973779)
(176.4292901 -207.6602233 150.639158)
(439.4500476 -131.2356679 -199.2741698)
(239.0299799 -217.7770098 -73.52676131)
(83.22335253 26.15144489 -309.3818902)
(-23.94357207 128.1356795 -112.118346)
(284.0975199 -168.5461622 103.2347357)
(156.1456174 -139.5443321 283.3692185)
(-129.6924618 -6.339203183 -618.7867533)
(-145.8335291 59.61355026 233.9783508)
(368.213622 -358.7114669 295.4962492)
(-119.7037445 -651.4803187 98.239916)
(386.0608499 231.6894206 96.50472749)
(112.3972482 317.7873693 138.8267239)
(82.29477778 67.20695779 -291.4663135)
(132.1153854 -75.64549246 -163.014281)
(-94.25761221 -137.3119598 111.4900263)
(110.8311138 -136.8996624 -246.230792)
(275.4359825 106.7225006 189.3920132)
(241.450788 -90.04426897 -546.0285168)
(369.1976086 -182.2647178 -17.99765588)
(129.051354 100.8684568 -169.0263495)
(-77.80286593 139.5519266 -122.9931003)
(-77.12149583 344.0429995 428.8645251)
(242.8325456 464.1184785 35.4182606)
(484.7137786 459.1543739 196.5757399)
(187.8192435 132.5465964 142.6128351)
(72.28533885 -497.9900591 -215.2467602)
(-427.3132063 -96.22229655 -211.3435016)
(334.646461 215.3531763 11.79089103)
(-203.9961539 268.4622985 32.34194657)
(57.50511318 129.5433111 24.79187724)
(65.56068947 199.8634698 96.23232554)
(46.23077745 -146.0946746 256.7146588)
(61.18754883 12.46309099 474.5345068)
(126.4456968 -130.6124922 -116.7626771)
(115.8684584 -6.220951915 134.5119913)
(-141.2256946 -31.22013566 345.2264085)
(-146.9787212 65.68017566 31.61368061)
(468.9807965 141.750133 419.9516754)
(-12.38188904 553.3621316 181.616668)
(-135.4616026 197.2307095 -286.4793207)
(229.1967527 77.28854151 262.0371432)
(66.69241664 280.2453503 -9.601237665)
(431.8826397 335.2542555 31.52531978)
(-34.10068638 297.9519689 -67.89522278)
(14.56673951 -149.9383677 -12.54085751)
(56.94870021 -134.2767322 -318.1299193)
(310.4878525 -313.7671362 145.6110357)
(446.4765017 171.7112644 340.4620307)
(160.4426504 -177.6518994 261.8218567)
(-88.57660873 -43.13134377 -56.32112485)
(-359.6067041 -152.4910255 -115.250017)
(81.64861981 -15.35049223 101.954974)
(18.32155125 -100.3592858 -369.6621661)
(212.69216 -494.0890567 -121.0136174)
(-94.69612675 51.80527894 -259.0534094)
(-93.83569294 -50.40074151 -376.449797)
(255.3710623 -55.71824627 272.8592683)
(69.39360017 488.8304136 42.79972895)
(233.7691502 -184.4291177 53.06268311)
(411.9433091 158.4786563 -39.34443776)
(-207.2245799 338.835265 -211.3341146)
(25.12789353 82.34986157 144.2833832)
(23.22307951 301.9516343 271.4937393)
(24.00272662 106.2928789 -312.7604656)
(-167.1697766 -123.0931351 -166.8708431)
(50.80253286 -299.3997622 -79.18366455)
(329.2308667 397.2571115 24.66362998)
(261.6235683 -409.7559151 -22.45798377)
(-48.3977724 -481.7158284 144.0251643)
(-30.38293107 565.9012144 -154.6830466)
(-121.4778649 -244.0418904 52.95735337)
(-200.0633284 58.85140314 -185.7077493)
(164.9475577 -211.7483486 -71.583486)
(4.265591746 80.11815143 34.80357017)
(524.8533361 358.0993893 129.5216334)
(309.5739498 -293.8146222 186.5558956)
(338.2918699 49.91789468 -129.048095)
(378.7168689 -204.7871013 150.923231)
(440.1313803 561.0684801 63.76056065)
(-29.26161769 -61.95760807 40.43711847)
(204.1651983 -47.89624333 169.3390205)
(180.4016633 -357.261297 131.2676896)
(-190.2005132 93.87649291 267.1208125)
(31.65832358 267.0113578 286.575816)
(-15.71354545 353.886118 -276.1899355)
(-367.9697572 -330.112249 80.00171218)
(-259.0970996 131.7212756 478.9569106)
(48.25304523 34.08281504 -82.60911507)
(68.22150945 -44.53337339 -134.6799568)
(-10.92628697 292.9525429 -261.6371093)
(202.2784618 92.67698554 -135.6906031)
(52.57795598 104.911148 -15.89243688)
(-45.53309687 -98.63151412 -41.27097216)
(253.0746387 -67.86048318 -312.730554)
(-67.41644106 -128.4748789 -210.490889)
(-17.08862065 74.00803678 132.0729063)
(207.9948881 -156.0256551 -238.1830518)
(199.6151382 -83.503184 -88.83146951)
(345.6979019 -62.98886387 222.4902538)
(-78.19308145 599.9015453 110.8631609)
(104.7485615 -385.1099437 -129.0621513)
(-102.0121732 -99.42999981 407.8762627)
(-318.5961458 -243.1582641 169.5887508)
(147.183995 384.9132381 -374.8244821)
(-17.46620272 -357.5315544 -97.94418493)
(292.2002481 28.48835671 70.36581459)
(-165.8555173 -187.0544939 368.5450172)
(-159.2402626 1.965434659 -23.16429549)
(123.0490853 202.0058867 8.335975452)
(128.7383015 -68.13328047 -145.5779912)
(-19.41873829 -146.4964045 -596.9643102)
(-149.2123621 -399.0724769 -179.3668146)
(14.75710018 108.1122855 334.8575293)
(108.0104693 173.2964758 231.3889541)
(-328.5549473 -41.99206341 59.90612855)
(-21.30165935 -95.19176159 53.04823405)
(572.5246277 317.6854024 -38.06530764)
(-8.179892867 -9.764969029 -195.4089728)
(-332.9143041 232.8452597 -204.1616499)
(-139.2352248 -198.0302178 -205.5988308)
(73.77987348 137.5877902 256.38649)
(208.1806177 -434.5763577 -53.47915218)
(348.4876571 -53.06037831 34.29524361)
(25.81262041 -106.4355102 270.3633697)
(377.58028 -268.8603634 -160.6989052)
(-109.2279778 389.1397119 -89.82451103)
(381.5616688 33.04235512 145.1622904)
(506.8120824 -80.56110095 -200.2147756)
(-261.6288396 -405.8461543 -394.1177984)
(257.345585 -33.11448528 -274.637883)
(-441.6559894 -43.62314608 181.2166259)
(-2.828254932 185.9072791 -277.1563408)
(-376.3503738 -430.0195192 288.1022906)
(-154.4409072 -205.7588632 -157.0013129)
(455.935529 154.7595575 139.3502373)
(-58.08126844 127.6476637 -348.8967297)
(73.55791061 319.1599003 10.85571284)
(-72.48125096 297.5731104 376.3842215)
(18.61367865 107.8205867 -143.7791283)
(208.5773856 109.81559 289.2437143)
(116.6404294 -128.7716307 -317.4631924)
(-99.54094212 -363.0809479 -145.3385844)
(90.45074297 -67.58464905 -92.55204432)
(52.06852418 76.90124829 131.1627146)
(-15.23764585 125.3317571 -331.8085574)
(-259.7518108 230.2230707 295.4145603)
(521.5827715 -409.5000105 128.0059739)
(-90.26709517 -260.5320762 -349.8880762)
(59.25487238 -59.51177502 -196.8564995)
(-140.4907525 92.0788042 -150.4914511)
(65.17329703 -74.70341409 88.27251529)
(-188.0743545 59.8593137 -47.33602142)
(1.162703303 -121.6223027 -102.4230751)
(-116.5914254 128.1962046 213.9339471)
(54.84488657 129.4355995 -39.95764662)
(-196.5382476 -373.4064201 -331.8889609)
(115.9427727 -64.94416009 -44.00270922)
(239.8182865 125.3635799 260.1065645)
(149.5147999 142.8033506 284.7961497)
(297.522927 -184.8779713 330.9788388)
(4.069561701 290.2542536 709.4840296)
(-110.5288501 173.3509446 21.478935)
(-263.7491153 146.8475823 27.57043114)
(132.3436284 -49.80976409 87.38883072)
(221.9935681 53.48089961 118.6893584)
(-370.4795496 469.9312568 -535.8238477)
(104.76445 -271.4143947 -541.9053777)
(-116.4297459 461.5159954 106.312686)
(-52.72018709 215.7018879 244.9817063)
(399.7409754 -381.0453588 -503.9322669)
(308.7760394 110.2494555 -56.93432343)
(151.0988361 -289.7142768 41.89902965)
(-210.8494112 189.2650351 9.898891233)
(50.78134708 140.3933874 144.7744466)
(-1.395378166 335.0172524 476.9141622)
(51.31737202 21.26361026 185.1814915)
(269.9869206 333.5079764 -370.6718946)
(27.60174831 -142.6603747 -321.5286443)
(141.5655286 258.0681896 -283.890176)
(-49.7458052 -507.5667294 178.15799)
(80.12940028 -97.22805447 44.17760345)
(-90.15874028 275.0140569 -86.78766363)
(-424.1599284 -271.9172752 132.5535502)
(116.2898051 610.726663 50.18569932)
(486.5180227 -251.6464035 418.361401)
(-144.8619349 -451.4114271 433.431561)
(313.7614174 -38.00372197 -298.1042782)
(-218.7742039 293.8119645 78.30565663)
(386.137534 -63.5023875 -106.3492441)
(51.07154026 -130.1372394 -390.9540064)
(73.91169657 -48.91104037 -153.0708464)
(234.194189 -126.6315252 253.2673364)
(-157.20692 -192.1560233 -241.0614464)
(188.209794 -24.04634258 5.826529739)
(-162.5306591 73.71309862 -355.1336881)
(256.2840056 -118.7335031 105.4142225)
(96.79220358 -277.4580396 422.5923046)
(312.7218289 82.29766223 461.5625725)
(-141.5212059 -148.5264742 51.29196998)
(-101.8254604 520.7670376 110.7993845)
(82.38049714 -65.898693 -87.65559045)
(10.67412646 -197.7604545 72.78688529)
(1.67204716 -111.3356217 164.2666597)
(139.2776866 -42.9143464 -662.9397819)
(153.4140403 -216.8302349 151.068687)
(313.7689298 -481.163411 195.6002942)
(136.3808423 -47.90922459 -115.2373166)
(360.6061256 -5.740804766 -289.1835875)
(413.7831819 7.43146784 375.73787)
(436.7706575 -80.23218955 -10.85070222)
(-66.91910555 157.6623167 -32.72385209)
(-28.28752661 -199.5542382 261.0812164)
(164.9089598 -58.46594392 -453.4541457)
(-135.7709121 283.7965649 22.6730483)
(-57.24955243 -74.99869048 -182.1280475)
(115.904489 52.37191622 255.6618628)
(38.13678382 -187.7552925 -39.21871382)
(328.4935746 -65.57814166 -13.50690279)
(-369.776598 -253.8318472 159.9004353)
(-37.1915501 -705.1148047 334.0973291)
(-50.37031535 24.24781031 -187.2177769)
(-157.953587 121.5267672 -13.69251429)
(-41.39611092 -142.0268907 -234.5980009)
(242.7896398 -159.3511439 337.1775967)
(-156.3258466 -443.9340063 0.9059863024)
(137.8297572 -78.85294842 115.661713)
(-31.63221048 139.5673875 -121.6372718)
(104.0057002 106.8624322 218.1206623)
(370.5979821 499.0279413 9.412884349)
(-13.36473237 -368.1160319 10.73067072)
(464.9266509 -44.72082044 -257.4189591)
(-390.6592006 11.89030418 -153.7727148)
(-547.6499513 32.06336331 -112.8886463)
(312.8537425 -298.4965458 -327.7521902)
(86.28100635 137.8434643 -47.60605793)
(434.1040286 -297.9726069 128.0432411)
(59.19391607 223.8928418 84.27816561)
(-23.38266274 -74.36003154 159.4974163)
(229.6873003 83.26966962 465.014508)
(-232.5301947 -134.4949876 266.7371837)
(-633.480129 45.82855713 102.9157137)
(122.5750459 -136.271078 164.32934)
(441.8349015 86.22461062 -0.8078810764)
(529.9278651 -589.2849751 -301.5676745)
(-92.76451389 -85.08584383 332.8280084)
(-131.1906541 256.7194237 -145.2886024)
(-415.4738777 -242.180182 -8.90688088)
(344.1638881 -17.63191116 -98.73601576)
(-18.21818215 157.368056 151.3873265)
(424.0383636 -65.10610384 -333.7937929)
(-244.4310266 557.1859209 170.2287989)
(136.4859977 257.8743385 356.8357131)
(-228.639904 484.7135226 -317.4714065)
(134.8865685 52.457606 -55.22397679)
(240.1759692 56.70758464 184.7453789)
(-246.9756654 -94.62251368 -42.36888782)
(161.2217425 -334.3358852 -229.2308243)
(-223.0422884 183.5386622 62.69409436)
(282.6414693 290.2880645 -169.4256153)
(132.7232873 -167.3713538 466.552317)
(347.9608682 -525.9165191 -620.6338115)
(46.5201701 -18.06281561 -153.8055316)
(-79.47817152 48.89233523 -112.517059)
(55.86436519 -33.27735926 -256.7679368)
(82.17428601 172.6108854 78.43228152)
(-177.780919 14.8233839 -94.91540866)
(206.7421281 207.7617758 151.1420017)
(261.4338973 -11.79165949 -425.2162124)
(201.6322769 -323.1564557 -131.840553)
(190.2053916 108.3939399 193.6562274)
(-99.66827819 -321.957171 -8.475203545)
(339.1346402 2.876620146 322.3555849)
(164.4316736 385.0421275 52.12213731)
(271.345396 -75.03386254 178.9218805)
(208.3650933 57.47386699 -34.78123717)
(350.1423591 259.2223239 364.8063121)
(136.918049 75.85910084 404.7035819)
(93.78818214 254.3528942 237.8856922)
(193.818643 -35.10259597 136.4460265)
(-89.95145351 208.593239 -230.908625)
(-169.2677889 -596.0056232 -24.37705992)
(-167.2269596 -81.05711176 291.4322087)
(677.5623545 -301.610054 -235.765116)
(-35.66372334 116.6726079 -362.3727623)
(18.05785645 270.535493 331.3395838)
(14.59775113 113.744139 -72.31487912)
(12.83527536 -25.26470174 -186.768428)
(-166.4793681 300.2557086 47.54699007)
(455.7093624 182.2955224 226.993038)
(376.1777923 -131.6674198 -159.6176328)
(79.77493646 -195.8145885 -61.31937288)
(97.30921145 -150.5044323 366.2991111)
(387.0114184 38.31394542 9.883916245)
(223.6556567 -58.71422847 311.0583733)
(527.761441 -23.03481005 170.1154982)
(331.62348 183.0548422 192.0144383)
(169.0192073 -461.1125034 -30.61145545)
(225.0914294 546.270255 -60.50110994)
(164.1936638 -251.8885711 3.090532377)
(-8.425410076 284.139168 272.8778424)
(443.8408036 -172.4158492 -73.84931233)
(616.571614 -28.28223428 322.9717842)
(172.991863 -336.5479507 324.3141931)
(407.4642597 41.80351398 -191.013442)
(-14.87951791 -164.894638 -219.6666581)
(191.1438067 145.9518226 -315.620325)
(96.63899181 593.7221082 -70.1230325)
(249.1794696 143.3034013 122.2427888)
(75.91398226 -351.9984531 -410.1002945)
(397.2615268 282.1455096 201.3696177)
(-258.0631627 455.2462785 604.0192303)
(-12.45238651 257.9181614 65.36508514)
(593.4025499 -85.08674501 439.435807)
(-418.9893217 115.4916903 -56.56386754)
(-171.3415005 -63.31670407 493.3829005)
(-7.192587357 41.3752216 114.585615)
(27.11686421 -172.0871823 259.5217811)
(309.2642606 37.80815024 102.2130272)
(-15.18901045 202.9918019 -190.300917)
(190.7199434 -98.78785981 -97.14368403)
(388.9046652 92.58464612 -393.9452351)
(442.273372 181.9034202 14.16479592)
(-4.686745164 -461.7242846 -227.859947)
(87.63949295 -113.8678715 -7.03369871)
(-333.9309478 256.2841208 -250.6182443)
(47.46215901 95.9282189 -91.71500528)
(260.8495766 230.7531848 404.77803)
(-75.79866851 61.32817423 246.0673531)
(-42.18264348 -148.2383833 -8.524657529)
(251.867481 163.193816 36.55944591)
(148.6611391 -77.28832162 66.6304135)
(331.2709647 179.8631199 65.03039866)
(240.4446188 -71.34672852 88.40153152)
(-307.3189987 -107.7020986 -92.82188151)
(309.9438718 425.0246335 -207.8243499)
(-202.082553 28.1147135 -63.40100939)
(11.23710661 -238.6348773 -145.7365528)
(450.9906934 121.247283 -386.0689505)
(87.55693126 8.386165776 -468.4455153)
(363.5767931 -313.0805072 -262.7227751)
(516.9716163 92.75428477 442.02571)
(447.223887 -129.2711885 -2.571615703)
(-26.42196825 -47.3312616 -569.9978141)
(-59.26806349 155.5982222 79.05241124)
(-66.20651422 -11.96805036 501.5749634)
(156.3750843 69.21941632 -65.89105071)
(-69.2243828 -234.1188416 47.59374067)
(-106.7703993 -111.5151708 412.7163767)
(-555.7374379 -13.3385936 165.3075041)
(-295.8814497 228.0839052 -122.9860677)
(49.07981149 185.974353 -219.4356193)
(456.2237135 -293.2574957 -371.725426)
(129.2110326 83.43811417 -274.0884977)
(-160.4137146 249.0875256 -86.08482082)
(46.09794585 302.4571374 198.2138634)
(149.6931794 -308.502218 86.42308506)
(97.85171557 -48.81555737 108.9028496)
(262.4025777 207.4611501 44.03799515)
(-146.5139178 7.963642897 560.8947015)
(583.964868 33.69308214 381.6773378)
(-13.54453818 -151.6105492 319.1963093)
(27.36717581 -437.7045552 163.8534052)
(509.3109203 -142.7074036 -252.2431745)
(-18.04724265 92.75223629 -34.36353553)
(221.0023142 243.3826254 109.1511982)
(215.3906822 65.82673867 -168.8390593)
(-29.9684169 -269.3559407 140.5165614)
(178.6177916 -141.3273752 231.4284128)
(191.1106728 -181.6401427 17.81752618)
(190.3639056 -197.8503066 -245.4655351)
(-338.4434432 -391.9038275 307.7077485)
(41.27862164 -290.4863284 101.9240661)
(196.8548567 136.7944688 -113.0674659)
(180.4022027 19.37500874 -43.68320223)
(238.5537147 -293.2342737 207.7948639)
(-39.54598525 -403.8215108 472.5947997)
(183.1978735 -415.0958684 177.3397619)
(-204.757203 407.5614725 -457.6929975)
(405.1319582 38.02174559 526.6365669)
(-268.9568986 27.05467997 63.7966247)
(-107.6095193 316.0904151 250.5064413)
(-188.1513859 -253.8573746 -186.0067585)
(-44.21200487 -292.9401059 320.6034327)
(286.0453356 87.95453014 46.5857142)
(586.4425863 369.9418586 -183.5272613)
(151.671625 -15.52137977 82.95193547)
(306.8743642 117.8605682 -69.67282113)
(230.8373419 327.3741995 101.0018771)
(-39.68203782 112.0941141 -107.5913041)
(-79.92911086 -140.4558565 319.0578718)
(63.19521749 -53.17547469 2.919856547)
(111.2153664 59.65711784 -88.34426891)
(138.4317079 299.2966475 -232.0323907)
(37.0388906 -209.4015805 -281.7073857)
(29.70192355 175.8610885 277.9066075)
(124.6872235 132.580581 389.8675411)
(158.088574 521.8500249 -179.0722193)
(131.1113927 -40.88737315 971.3643356)
(139.1361466 -22.7316798 125.2712802)
(-64.68008135 -538.2130654 -174.0737251)
(246.4518781 -4.481176861 -135.5409708)
(210.2303809 52.81778435 460.543138)
(465.048275 -9.818002873 296.925196)
(255.1756652 51.07575793 202.6784516)
(390.4237399 -18.57595089 284.9491058)
(-59.83747376 267.1617437 82.54648339)
(372.7860894 -56.47297571 -325.4664044)
(144.6058702 111.7605143 35.74927856)
(-334.8764982 -107.1486045 46.12513072)
(-67.92582888 -73.76336747 145.6848874)
(200.6652812 -300.7056372 97.42881933)
(105.3832725 196.0554461 465.6095782)
(-27.13150473 -190.6232573 24.90041277)
(129.7077138 -193.1954801 -62.62104918)
(-234.5708075 106.0075095 -92.06107413)
(210.374132 -21.30716743 -262.8927314)
(-274.0218506 -140.7328605 385.180955)
(338.7387231 -79.7929113 199.7024307)
(105.9160922 301.037075 -90.88525405)
(125.1936706 181.7811285 -160.6320539)
(444.0760253 40.08194377 -287.3388952)
(211.4961005 257.4507172 -63.24114803)
(-218.4110387 -15.20704407 -97.16976602)
(160.1885386 360.4390431 64.36370902)
(85.17220842 -216.8279248 -315.814918)
(175.5591719 31.93217794 -112.3005206)
(159.5774561 -126.4382618 68.96029696)
(91.16046308 -147.723805 263.6933386)
(-152.418405 -4.267616479 -250.7550534)
(243.5831077 -222.0534226 42.91525403)
(99.78238344 126.8763642 7.32402092)
(-3.2330672 -14.78020996 -319.4823641)
(117.0801238 -458.0980437 -289.4534206)
(-52.51583843 -630.2887227 79.71740235)
(-187.2687707 -222.0111338 71.0319878)
(49.5163018 -296.1844632 226.6552672)
(9.188447136 -3.694099424 286.5086966)
(455.9320879 137.1973141 155.8082862)
(35.25502087 -384.2984523 61.67140043)
(-296.156288 -22.22701009 -292.5291165)
(59.94686164 -71.31681213 -104.7140025)
(189.3339479 -203.4851186 93.63250776)
(368.1183072 -87.59859053 387.9573772)
(-403.0938178 -80.6491733 247.0790675)
(160.393849 494.0164497 -231.6891137)
(-15.20845076 82.13434729 469.5549258)
(4.821852533 -15.87075898 -154.5874456)
(-54.39376411 156.6027067 36.49061274)
(-532.2964361 114.453961 22.68728977)
(473.0804607 130.9449498 30.36783337)
(149.3317078 246.0215364 -33.62725712)
(-127.7967661 380.8663865 -125.6933296)
(-306.851458 114.9091208 -101.9451691)
(62.94191556 230.2093516 -79.63604583)
(-111.223733 48.78759354 -62.83222)
(163.6081018 -102.2237748 277.9693538)
(-235.9602718 114.3617359 -1.022672333)
(47.87904276 -332.5451634 110.2676057)
(-143.2314501 156.988698 88.06756427)
(-63.35704371 122.7805015 324.4917632)
(307.721736 -90.68828048 -162.9162035)
(-161.1768908 -37.46804455 208.857568)
(71.24332671 -0.6076293888 63.50595966)
(43.06590339 278.232587 -200.9562637)
(23.06878518 -433.5722035 5.087381037)
(113.1912404 168.353537 -148.9649226)
(-61.08709031 142.925564 279.1787779)
(424.4821649 -174.9192791 -198.8737652)
(19.29026264 168.5195082 58.22383965)
(77.34919383 159.6438333 -409.0243356)
(413.9008826 -352.8507511 197.3799764)
(-12.38374776 -252.0476123 -123.1582988)
(133.127624 -411.5708346 332.905091)
(-447.8978171 29.62116368 115.1032406)
(4.110220663 68.06822808 -280.3194886)
(-52.48718894 339.8469088 -160.272411)
(-197.9775895 80.54066849 -137.1979928)
(123.2479446 -410.1232106 235.5203976)
(356.733746 373.5569955 -86.34600211)
(22.90778217 139.9825354 81.09786001)
(231.3620465 -7.155503728 37.04511447)
(-21.11268726 63.20376382 -358.1830844)
(187.5888156 -177.8077902 34.13543427)
(423.2754702 -557.9357916 -129.2117876)
(470.6451014 101.0757481 304.6439966)
(111.2692463 -89.05128953 -238.5629517)