/*--------------------------------*- C++ -*----------------------------------*\
| =========                 |                                                 |
| \\      /  F ield         | OpenFOAM: The Open Source CFD Toolbox           |
|  \\    /   O peration     | Version:  v1706                                 |
|   \\  /    A nd           | Web:      www.OpenFOAM.com                      |
|    \\/     M anipulation  |                                                 |
\*---------------------------------------------------------------------------*/
FoamFile
{
    version     2.0;
    format      ascii;
    class       volScalarField;
    location    "1e-06";
    object      Ma_Ar;
}
// * * * * * * * * * * * * * * * * * * * * * * * * * * * * * * * * * * * * * //

dimensions      [0 0 0 0 0 0 0];


internalField   uniform 0.0009088100397;

boundaryField
{
    stickingWall
    {
        type            calculated;
        value           uniform 0.0009088100397;
    }
    defaultFaces
    {
        type            calculated;
        value           nonuniform List<scalar> 5(0.001543831158 0.001630830589 0.00274158482 0.001345580748 0.001474840757);
    }
}


// ************************************************************************* //
