/*--------------------------------*- C++ -*----------------------------------*\
| =========                 |                                                 |
| \\      /  F ield         | OpenFOAM: The Open Source CFD Toolbox           |
|  \\    /   O peration     | Version:  v1706                                 |
|   \\  /    A nd           | Web:      www.OpenFOAM.com                      |
|    \\/     M anipulation  |                                                 |
\*---------------------------------------------------------------------------*/
FoamFile
{
    version     2.0;
    format      ascii;
    class       volScalarField;
    location    "1e-06";
    object      rhoM_Ar;
}
// * * * * * * * * * * * * * * * * * * * * * * * * * * * * * * * * * * * * * //

dimensions      [1 -3 0 0 0 0 0];


internalField   uniform 5.315593217e-05;

boundaryField
{
    stickingWall
    {
        type            calculated;
        value           uniform 5.315593217e-05;
    }
    defaultFaces
    {
        type            calculated;
        value           nonuniform List<scalar> 5(2.69421984e-06 2.72973012e-06 2.72866932e-06 2.7224106e-06 2.72603058e-06);
    }
}


// ************************************************************************* //
