/*--------------------------------*- C++ -*----------------------------------*\
| =========                 |                                                 |
| \\      /  F ield         | OpenFOAM: The Open Source CFD Toolbox           |
|  \\    /   O peration     | Version:  v1706                                 |
|   \\  /    A nd           | Web:      www.OpenFOAM.com                      |
|    \\/     M anipulation  |                                                 |
\*---------------------------------------------------------------------------*/
FoamFile
{
    version     2.0;
    format      ascii;
    class       volVectorField;
    location    "1e-06";
    object      UMean_Ar;
}
// * * * * * * * * * * * * * * * * * * * * * * * * * * * * * * * * * * * * * //

dimensions      [0 1 -1 0 0 0 0];


internalField   uniform (0.7531415924 0.0437390958 0.01336488749);

boundaryField
{
    stickingWall
    {
        type            calculated;
        value           uniform (0.7531415924 0.0437390958 0.01336488749);
    }
    defaultFaces
    {
        type            calculated;
        value           nonuniform List<vector> 5((0 1.108773651 -0.9848378022) (-0.7942345849 0 -1.347006649) (-2.580793477 0 -0.5080963314) (-1.269669303 -0.2319539806 0) (-1.311749717 -0.5275266685 0));
    }
}


// ************************************************************************* //
