/*--------------------------------*- C++ -*----------------------------------*\
| =========                 |                                                 |
| \\      /  F ield         | OpenFOAM: The Open Source CFD Toolbox           |
|  \\    /   O peration     | Version:  v1706                                 |
|   \\  /    A nd           | Web:      www.OpenFOAM.com                      |
|    \\/     M anipulation  |                                                 |
\*---------------------------------------------------------------------------*/
FoamFile
{
    version     2.0;
    format      ascii;
    class       volScalarField;
    location    "1e-06";
    object      Ma_Ar;
}
// * * * * * * * * * * * * * * * * * * * * * * * * * * * * * * * * * * * * * //

dimensions      [0 0 0 0 0 0 0];


internalField   uniform 0.009446910536;

boundaryField
{
    stickingWall
    {
        type            calculated;
        value           uniform 0.009446910536;
    }
    defaultFaces
    {
        type            calculated;
        value           nonuniform List<scalar> 5(0.002549601888 0.01314757184 0.01079092804 0.01439873118 0.01195060742);
    }
}


// ************************************************************************* //
