/*--------------------------------*- C++ -*----------------------------------*\
| =========                 |                                                 |
| \\      /  F ield         | OpenFOAM: The Open Source CFD Toolbox           |
|  \\    /   O peration     | Version:  v1706                                 |
|   \\  /    A nd           | Web:      www.OpenFOAM.com                      |
|    \\/     M anipulation  |                                                 |
\*---------------------------------------------------------------------------*/
FoamFile
{
    version     2.0;
    format      ascii;
    class       volScalarField;
    location    "1e-06";
    object      translationalT_Ar;
}
// * * * * * * * * * * * * * * * * * * * * * * * * * * * * * * * * * * * * * //

dimensions      [0 0 0 1 0 0 0];


internalField   uniform 1917.928896;

boundaryField
{
    stickingWall
    {
        type            calculated;
        value           uniform 1917.928896;
    }
    defaultFaces
    {
        type            calculated;
        value           nonuniform List<scalar> 5(2629.454833 2583.996396 2574.520208 2575.949387 2582.106981);
    }
}


// ************************************************************************* //
