# Probe 0 (5e-06 5e-06 5e-06)
#           Probe                 0
#            Time
            2e-08        9.9999e+22
            4e-08        9.9999e+22
            6e-08        9.9999e+22
            8e-08        9.9999e+22
            1e-07        9.9999e+22
          1.2e-07        9.9999e+22
          1.4e-07        9.9999e+22
          1.6e-07        9.9999e+22
          1.8e-07        9.9999e+22
            2e-07        9.9999e+22
          2.2e-07        9.9999e+22
          2.4e-07        9.9999e+22
          2.6e-07        9.9999e+22
          2.8e-07        9.9999e+22
            3e-07        9.9999e+22
          3.2e-07        9.9999e+22
          3.4e-07        9.9999e+22
          3.6e-07        9.9999e+22
          3.8e-07        9.9999e+22
            4e-07        9.9999e+22
          4.2e-07        9.9999e+22
          4.4e-07        9.9999e+22
          4.6e-07        9.9999e+22
          4.8e-07        9.9999e+22
            5e-07        9.9999e+22
          5.2e-07        9.9999e+22
          5.4e-07        9.9999e+22
          5.6e-07        9.9999e+22
          5.8e-07        9.9999e+22
            6e-07        9.9999e+22
          6.2e-07        9.9999e+22
          6.4e-07        9.9999e+22
          6.6e-07        9.9999e+22
          6.8e-07        9.9999e+22
            7e-07        9.9999e+22
          7.2e-07        9.9999e+22
          7.4e-07        9.9999e+22
          7.6e-07        9.9999e+22
          7.8e-07        9.9999e+22
            8e-07        9.9999e+22
          8.2e-07        9.9999e+22
          8.4e-07        9.9999e+22
          8.6e-07        9.9999e+22
          8.8e-07        9.9999e+22
            9e-07        9.9999e+22
          9.2e-07        9.9999e+22
          9.4e-07        9.9999e+22
          9.6e-07        9.9999e+22
          9.8e-07        9.9999e+22
            1e-06        9.9999e+22
         1.02e-06        9.9999e+22
         1.04e-06        9.9999e+22
         1.06e-06        9.9999e+22
         1.08e-06        9.9999e+22
          1.1e-06        9.9999e+22
         1.12e-06        9.9999e+22
         1.14e-06        9.9999e+22
         1.16e-06        9.9999e+22
         1.18e-06        9.9999e+22
          1.2e-06        9.9999e+22
         1.22e-06        9.9999e+22
         1.24e-06        9.9999e+22
         1.26e-06        9.9999e+22
         1.28e-06        9.9999e+22
          1.3e-06        9.9999e+22
         1.32e-06        9.9999e+22
         1.34e-06        9.9999e+22
         1.36e-06        9.9999e+22
         1.38e-06        9.9999e+22
          1.4e-06        9.9999e+22
         1.42e-06        9.9999e+22
         1.44e-06        9.9999e+22
         1.46e-06        9.9999e+22
         1.48e-06        9.9999e+22
          1.5e-06        9.9999e+22
         1.52e-06        9.9999e+22
         1.54e-06        9.9999e+22
         1.56e-06        9.9999e+22
         1.58e-06        9.9999e+22
          1.6e-06        9.9999e+22
         1.62e-06        9.9999e+22
         1.64e-06        9.9999e+22
         1.66e-06        9.9999e+22
         1.68e-06        9.9999e+22
          1.7e-06        9.9999e+22
         1.72e-06        9.9999e+22
         1.74e-06        9.9999e+22
         1.76e-06        9.9999e+22
         1.78e-06        9.9999e+22
          1.8e-06        9.9999e+22
         1.82e-06        9.9999e+22
         1.84e-06        9.9999e+22
         1.86e-06        9.9999e+22
         1.88e-06        9.9999e+22
          1.9e-06        9.9999e+22
         1.92e-06        9.9999e+22
         1.94e-06        9.9999e+22
         1.96e-06        9.9999e+22
         1.98e-06        9.9999e+22
            2e-06        9.9999e+22
         2.02e-06        9.9999e+22
         2.04e-06        9.9999e+22
         2.06e-06        9.9999e+22
         2.08e-06        9.9999e+22
          2.1e-06        9.9999e+22
         2.12e-06        9.9999e+22
         2.14e-06        9.9999e+22
         2.16e-06        9.9999e+22
         2.18e-06        9.9999e+22
          2.2e-06        9.9999e+22
         2.22e-06        9.9999e+22
         2.24e-06        9.9999e+22
         2.26e-06        9.9999e+22
         2.28e-06        9.9999e+22
          2.3e-06        9.9999e+22
         2.32e-06        9.9999e+22
         2.34e-06        9.9999e+22
         2.36e-06        9.9999e+22
         2.38e-06        9.9999e+22
          2.4e-06        9.9999e+22
         2.42e-06        9.9999e+22
         2.44e-06        9.9999e+22
         2.46e-06        9.9999e+22
         2.48e-06        9.9999e+22
          2.5e-06        9.9999e+22
         2.52e-06        9.9999e+22
         2.54e-06        9.9999e+22
         2.56e-06        9.9999e+22
         2.58e-06        9.9999e+22
          2.6e-06        9.9999e+22
         2.62e-06        9.9999e+22
         2.64e-06        9.9999e+22
         2.66e-06        9.9999e+22
         2.68e-06        9.9999e+22
          2.7e-06        9.9999e+22
         2.72e-06        9.9999e+22
         2.74e-06        9.9999e+22
         2.76e-06        9.9999e+22
         2.78e-06        9.9999e+22
          2.8e-06        9.9999e+22
         2.82e-06        9.9999e+22
         2.84e-06        9.9999e+22
         2.86e-06        9.9999e+22
         2.88e-06        9.9999e+22
          2.9e-06        9.9999e+22
         2.92e-06        9.9999e+22
         2.94e-06        9.9999e+22
         2.96e-06        9.9999e+22
         2.98e-06        9.9999e+22
            3e-06        9.9999e+22
         3.02e-06        9.9999e+22
         3.04e-06        9.9999e+22
         3.06e-06        9.9999e+22
         3.08e-06        9.9999e+22
          3.1e-06        9.9999e+22
         3.12e-06        9.9999e+22
         3.14e-06        9.9999e+22
         3.16e-06        9.9999e+22
         3.18e-06        9.9999e+22
          3.2e-06        9.9999e+22
         3.22e-06        9.9999e+22
         3.24e-06        9.9999e+22
         3.26e-06        9.9999e+22
         3.28e-06        9.9999e+22
          3.3e-06        9.9999e+22
         3.32e-06        9.9999e+22
         3.34e-06        9.9999e+22
         3.36e-06        9.9999e+22
         3.38e-06        9.9999e+22
          3.4e-06        9.9999e+22
         3.42e-06        9.9999e+22
         3.44e-06        9.9999e+22
         3.46e-06        9.9999e+22
         3.48e-06        9.9999e+22
          3.5e-06        9.9999e+22
         3.52e-06        9.9999e+22
         3.54e-06        9.9999e+22
         3.56e-06        9.9999e+22
         3.58e-06        9.9999e+22
          3.6e-06        9.9999e+22
         3.62e-06        9.9999e+22
         3.64e-06        9.9999e+22
         3.66e-06        9.9999e+22
         3.68e-06        9.9999e+22
          3.7e-06        9.9999e+22
         3.72e-06        9.9999e+22
         3.74e-06        9.9999e+22
         3.76e-06        9.9999e+22
         3.78e-06        9.9999e+22
          3.8e-06        9.9999e+22
         3.82e-06        9.9999e+22
         3.84e-06        9.9999e+22
         3.86e-06        9.9999e+22
         3.88e-06        9.9999e+22
          3.9e-06        9.9999e+22
         3.92e-06        9.9999e+22
         3.94e-06        9.9999e+22
         3.96e-06        9.9999e+22
         3.98e-06        9.9999e+22
            4e-06        9.9999e+22
         4.02e-06        9.9999e+22
         4.04e-06        9.9999e+22
         4.06e-06        9.9999e+22
         4.08e-06        9.9999e+22
          4.1e-06        9.9999e+22
         4.12e-06        9.9999e+22
         4.14e-06        9.9999e+22
         4.16e-06        9.9999e+22
         4.18e-06        9.9999e+22
          4.2e-06        9.9999e+22
         4.22e-06        9.9999e+22
         4.24e-06        9.9999e+22
         4.26e-06        9.9999e+22
         4.28e-06        9.9999e+22
          4.3e-06        9.9999e+22
         4.32e-06        9.9999e+22
         4.34e-06        9.9999e+22
         4.36e-06        9.9999e+22
         4.38e-06        9.9999e+22
          4.4e-06        9.9999e+22
         4.42e-06        9.9999e+22
         4.44e-06        9.9999e+22
         4.46e-06        9.9999e+22
         4.48e-06        9.9999e+22
          4.5e-06        9.9999e+22
         4.52e-06        9.9999e+22
         4.54e-06        9.9999e+22
         4.56e-06        9.9999e+22
         4.58e-06        9.9999e+22
          4.6e-06        9.9999e+22
         4.62e-06        9.9999e+22
         4.64e-06        9.9999e+22
         4.66e-06        9.9999e+22
         4.68e-06        9.9999e+22
          4.7e-06        9.9999e+22
         4.72e-06        9.9999e+22
         4.74e-06        9.9999e+22
         4.76e-06        9.9999e+22
         4.78e-06        9.9999e+22
          4.8e-06        9.9999e+22
         4.82e-06        9.9999e+22
         4.84e-06        9.9999e+22
         4.86e-06        9.9999e+22
         4.88e-06        9.9999e+22
          4.9e-06        9.9999e+22
         4.92e-06        9.9999e+22
         4.94e-06        9.9999e+22
         4.96e-06        9.9999e+22
         4.98e-06        9.9999e+22
            5e-06        9.9999e+22
         5.02e-06        9.9999e+22
         5.04e-06        9.9999e+22
         5.06e-06        9.9999e+22
         5.08e-06        9.9999e+22
          5.1e-06        9.9999e+22
         5.12e-06        9.9999e+22
         5.14e-06        9.9999e+22
         5.16e-06        9.9999e+22
         5.18e-06        9.9999e+22
          5.2e-06        9.9999e+22
         5.22e-06        9.9999e+22
         5.24e-06        9.9999e+22
         5.26e-06        9.9999e+22
         5.28e-06        9.9999e+22
          5.3e-06        9.9999e+22
         5.32e-06        9.9999e+22
         5.34e-06        9.9999e+22
         5.36e-06        9.9999e+22
         5.38e-06        9.9999e+22
          5.4e-06        9.9999e+22
         5.42e-06        9.9999e+22
         5.44e-06        9.9999e+22
         5.46e-06        9.9999e+22
         5.48e-06        9.9999e+22
          5.5e-06        9.9999e+22
         5.52e-06        9.9999e+22
         5.54e-06        9.9999e+22
         5.56e-06        9.9999e+22
         5.58e-06        9.9999e+22
          5.6e-06        9.9999e+22
         5.62e-06        9.9999e+22
         5.64e-06        9.9999e+22
         5.66e-06        9.9999e+22
         5.68e-06        9.9999e+22
          5.7e-06        9.9999e+22
         5.72e-06        9.9999e+22
         5.74e-06        9.9999e+22
         5.76e-06        9.9999e+22
         5.78e-06        9.9999e+22
          5.8e-06        9.9999e+22
         5.82e-06        9.9999e+22
         5.84e-06        9.9999e+22
         5.86e-06        9.9999e+22
         5.88e-06        9.9999e+22
          5.9e-06        9.9999e+22
         5.92e-06        9.9999e+22
         5.94e-06        9.9999e+22
         5.96e-06        9.9999e+22
         5.98e-06        9.9999e+22
            6e-06        9.9999e+22
         6.02e-06        9.9999e+22
         6.04e-06        9.9999e+22
         6.06e-06        9.9999e+22
         6.08e-06        9.9999e+22
          6.1e-06        9.9999e+22
         6.12e-06        9.9999e+22
         6.14e-06        9.9999e+22
         6.16e-06        9.9999e+22
         6.18e-06        9.9999e+22
          6.2e-06        9.9999e+22
         6.22e-06        9.9999e+22
         6.24e-06        9.9999e+22
         6.26e-06        9.9999e+22
         6.28e-06        9.9999e+22
          6.3e-06        9.9999e+22
         6.32e-06        9.9999e+22
         6.34e-06        9.9999e+22
         6.36e-06        9.9999e+22
         6.38e-06        9.9999e+22
          6.4e-06        9.9999e+22
         6.42e-06        9.9999e+22
         6.44e-06        9.9999e+22
         6.46e-06        9.9999e+22
         6.48e-06        9.9999e+22
          6.5e-06        9.9999e+22
         6.52e-06        9.9999e+22
         6.54e-06        9.9999e+22
         6.56e-06        9.9999e+22
         6.58e-06        9.9999e+22
          6.6e-06        9.9999e+22
         6.62e-06        9.9999e+22
         6.64e-06        9.9999e+22
         6.66e-06        9.9999e+22
         6.68e-06        9.9999e+22
          6.7e-06        9.9999e+22
         6.72e-06        9.9999e+22
         6.74e-06        9.9999e+22
         6.76e-06        9.9999e+22
         6.78e-06        9.9999e+22
          6.8e-06        9.9999e+22
         6.82e-06        9.9999e+22
         6.84e-06        9.9999e+22
         6.86e-06        9.9999e+22
         6.88e-06        9.9999e+22
          6.9e-06        9.9999e+22
         6.92e-06        9.9999e+22
         6.94e-06        9.9999e+22
         6.96e-06        9.9999e+22
         6.98e-06        9.9999e+22
            7e-06        9.9999e+22
         7.02e-06        9.9999e+22
         7.04e-06        9.9999e+22
         7.06e-06        9.9999e+22
         7.08e-06        9.9999e+22
          7.1e-06        9.9999e+22
         7.12e-06        9.9999e+22
         7.14e-06        9.9999e+22
         7.16e-06        9.9999e+22
         7.18e-06        9.9999e+22
          7.2e-06        9.9999e+22
         7.22e-06        9.9999e+22
         7.24e-06        9.9999e+22
         7.26e-06        9.9999e+22
         7.28e-06        9.9999e+22
          7.3e-06        9.9999e+22
         7.32e-06        9.9999e+22
         7.34e-06        9.9999e+22
         7.36e-06        9.9999e+22
         7.38e-06        9.9999e+22
          7.4e-06        9.9999e+22
         7.42e-06        9.9999e+22
         7.44e-06        9.9999e+22
         7.46e-06        9.9999e+22
         7.48e-06        9.9999e+22
          7.5e-06        9.9999e+22
         7.52e-06        9.9999e+22
         7.54e-06        9.9999e+22
         7.56e-06        9.9999e+22
         7.58e-06        9.9999e+22
          7.6e-06        9.9999e+22
         7.62e-06        9.9999e+22
         7.64e-06        9.9999e+22
         7.66e-06        9.9999e+22
         7.68e-06        9.9999e+22
          7.7e-06        9.9999e+22
         7.72e-06        9.9999e+22
         7.74e-06        9.9999e+22
         7.76e-06        9.9999e+22
         7.78e-06        9.9999e+22
          7.8e-06        9.9999e+22
         7.82e-06        9.9999e+22
         7.84e-06        9.9999e+22
         7.86e-06        9.9999e+22
         7.88e-06        9.9999e+22
          7.9e-06        9.9999e+22
         7.92e-06        9.9999e+22
         7.94e-06        9.9999e+22
         7.96e-06        9.9999e+22
         7.98e-06        9.9999e+22
            8e-06        9.9999e+22
         8.02e-06        9.9999e+22
         8.04e-06        9.9999e+22
         8.06e-06        9.9999e+22
         8.08e-06        9.9999e+22
          8.1e-06        9.9999e+22
         8.12e-06        9.9999e+22
         8.14e-06        9.9999e+22
         8.16e-06        9.9999e+22
         8.18e-06        9.9999e+22
          8.2e-06        9.9999e+22
         8.22e-06        9.9999e+22
         8.24e-06        9.9999e+22
         8.26e-06        9.9999e+22
         8.28e-06        9.9999e+22
          8.3e-06        9.9999e+22
         8.32e-06        9.9999e+22
         8.34e-06        9.9999e+22
         8.36e-06        9.9999e+22
         8.38e-06        9.9999e+22
          8.4e-06        9.9999e+22
         8.42e-06        9.9999e+22
         8.44e-06        9.9999e+22
         8.46e-06        9.9999e+22
         8.48e-06        9.9999e+22
          8.5e-06        9.9999e+22
         8.52e-06        9.9999e+22
         8.54e-06        9.9999e+22
         8.56e-06        9.9999e+22
         8.58e-06        9.9999e+22
          8.6e-06        9.9999e+22
         8.62e-06        9.9999e+22
         8.64e-06        9.9999e+22
         8.66e-06        9.9999e+22
         8.68e-06        9.9999e+22
          8.7e-06        9.9999e+22
         8.72e-06        9.9999e+22
         8.74e-06        9.9999e+22
         8.76e-06        9.9999e+22
         8.78e-06        9.9999e+22
          8.8e-06        9.9999e+22
         8.82e-06        9.9999e+22
         8.84e-06        9.9999e+22
         8.86e-06        9.9999e+22
         8.88e-06        9.9999e+22
          8.9e-06        9.9999e+22
         8.92e-06        9.9999e+22
         8.94e-06        9.9999e+22
         8.96e-06        9.9999e+22
         8.98e-06        9.9999e+22
            9e-06        9.9999e+22
         9.02e-06        9.9999e+22
         9.04e-06        9.9999e+22
         9.06e-06        9.9999e+22
         9.08e-06        9.9999e+22
          9.1e-06        9.9999e+22
         9.12e-06        9.9999e+22
         9.14e-06        9.9999e+22
         9.16e-06        9.9999e+22
         9.18e-06        9.9999e+22
          9.2e-06        9.9999e+22
         9.22e-06        9.9999e+22
         9.24e-06        9.9999e+22
         9.26e-06        9.9999e+22
         9.28e-06        9.9999e+22
          9.3e-06        9.9999e+22
         9.32e-06        9.9999e+22
         9.34e-06        9.9999e+22
         9.36e-06        9.9999e+22
         9.38e-06        9.9999e+22
          9.4e-06        9.9999e+22
         9.42e-06        9.9999e+22
         9.44e-06        9.9999e+22
         9.46e-06        9.9999e+22
         9.48e-06        9.9999e+22
          9.5e-06        9.9999e+22
         9.52e-06        9.9999e+22
         9.54e-06        9.9999e+22
         9.56e-06        9.9999e+22
         9.58e-06        9.9999e+22
          9.6e-06        9.9999e+22
         9.62e-06        9.9999e+22
         9.64e-06        9.9999e+22
         9.66e-06        9.9999e+22
         9.68e-06        9.9999e+22
          9.7e-06        9.9999e+22
         9.72e-06        9.9999e+22
         9.74e-06        9.9999e+22
         9.76e-06        9.9999e+22
         9.78e-06        9.9999e+22
          9.8e-06        9.9999e+22
         9.82e-06        9.9999e+22
         9.84e-06        9.9999e+22
         9.86e-06        9.9999e+22
         9.88e-06        9.9999e+22
          9.9e-06        9.9999e+22
         9.92e-06        9.9999e+22
         9.94e-06        9.9999e+22
         9.96e-06        9.9999e+22
         9.98e-06        9.9999e+22
            1e-05        9.9999e+22
        1.002e-05        9.9999e+22
        1.004e-05        9.9999e+22
        1.006e-05        9.9999e+22
        1.008e-05        9.9999e+22
         1.01e-05        9.9999e+22
        1.012e-05        9.9999e+22
        1.014e-05        9.9999e+22
        1.016e-05        9.9999e+22
        1.018e-05        9.9999e+22
         1.02e-05        9.9999e+22
        1.022e-05        9.9999e+22
        1.024e-05        9.9999e+22
        1.026e-05        9.9999e+22
        1.028e-05        9.9999e+22
         1.03e-05        9.9999e+22
        1.032e-05        9.9999e+22
        1.034e-05        9.9999e+22
        1.036e-05        9.9999e+22
        1.038e-05        9.9999e+22
         1.04e-05        9.9999e+22
        1.042e-05        9.9999e+22
        1.044e-05        9.9999e+22
        1.046e-05        9.9999e+22
        1.048e-05        9.9999e+22
         1.05e-05        9.9999e+22
        1.052e-05        9.9999e+22
        1.054e-05        9.9999e+22
        1.056e-05        9.9999e+22
        1.058e-05        9.9999e+22
         1.06e-05        9.9999e+22
        1.062e-05        9.9999e+22
        1.064e-05        9.9999e+22
        1.066e-05        9.9999e+22
        1.068e-05        9.9999e+22
         1.07e-05        9.9999e+22
        1.072e-05        9.9999e+22
        1.074e-05        9.9999e+22
        1.076e-05        9.9999e+22
        1.078e-05        9.9999e+22
         1.08e-05        9.9999e+22
        1.082e-05        9.9999e+22
        1.084e-05        9.9999e+22
        1.086e-05        9.9999e+22
        1.088e-05        9.9999e+22
         1.09e-05        9.9999e+22
        1.092e-05        9.9999e+22
        1.094e-05        9.9999e+22
        1.096e-05        9.9999e+22
        1.098e-05        9.9999e+22
          1.1e-05        9.9999e+22
        1.102e-05        9.9999e+22
        1.104e-05        9.9999e+22
        1.106e-05        9.9999e+22
        1.108e-05        9.9999e+22
         1.11e-05        9.9999e+22
        1.112e-05        9.9999e+22
        1.114e-05        9.9999e+22
        1.116e-05        9.9999e+22
        1.118e-05        9.9999e+22
         1.12e-05        9.9999e+22
        1.122e-05        9.9999e+22
        1.124e-05        9.9999e+22
        1.126e-05        9.9999e+22
        1.128e-05        9.9999e+22
         1.13e-05        9.9999e+22
        1.132e-05        9.9999e+22
        1.134e-05        9.9999e+22
        1.136e-05        9.9999e+22
        1.138e-05        9.9999e+22
         1.14e-05        9.9999e+22
        1.142e-05        9.9999e+22
        1.144e-05        9.9999e+22
        1.146e-05        9.9999e+22
        1.148e-05        9.9999e+22
         1.15e-05        9.9999e+22
        1.152e-05        9.9999e+22
        1.154e-05        9.9999e+22
        1.156e-05        9.9999e+22
        1.158e-05        9.9999e+22
         1.16e-05        9.9999e+22
        1.162e-05        9.9999e+22
        1.164e-05        9.9999e+22
        1.166e-05        9.9999e+22
        1.168e-05        9.9999e+22
         1.17e-05        9.9999e+22
        1.172e-05        9.9999e+22
        1.174e-05        9.9999e+22
        1.176e-05        9.9999e+22
        1.178e-05        9.9999e+22
         1.18e-05        9.9999e+22
        1.182e-05        9.9999e+22
        1.184e-05        9.9999e+22
        1.186e-05        9.9999e+22
        1.188e-05        9.9999e+22
         1.19e-05        9.9999e+22
        1.192e-05        9.9999e+22
        1.194e-05        9.9999e+22
        1.196e-05        9.9999e+22
        1.198e-05        9.9999e+22
          1.2e-05        9.9999e+22
        1.202e-05        9.9999e+22
        1.204e-05        9.9999e+22
        1.206e-05        9.9999e+22
        1.208e-05        9.9999e+22
         1.21e-05        9.9999e+22
        1.212e-05        9.9999e+22
        1.214e-05        9.9999e+22
        1.216e-05        9.9999e+22
        1.218e-05        9.9999e+22
         1.22e-05        9.9999e+22
        1.222e-05        9.9999e+22
        1.224e-05        9.9999e+22
        1.226e-05        9.9999e+22
        1.228e-05        9.9999e+22
         1.23e-05        9.9999e+22
        1.232e-05        9.9999e+22
        1.234e-05        9.9999e+22
        1.236e-05        9.9999e+22
        1.238e-05        9.9999e+22
         1.24e-05        9.9999e+22
        1.242e-05        9.9999e+22
        1.244e-05        9.9999e+22
        1.246e-05        9.9999e+22
        1.248e-05        9.9999e+22
         1.25e-05        9.9999e+22
        1.252e-05        9.9999e+22
        1.254e-05        9.9999e+22
        1.256e-05        9.9999e+22
        1.258e-05        9.9999e+22
         1.26e-05        9.9999e+22
        1.262e-05        9.9999e+22
        1.264e-05        9.9999e+22
        1.266e-05        9.9999e+22
        1.268e-05        9.9999e+22
         1.27e-05        9.9999e+22
        1.272e-05        9.9999e+22
        1.274e-05        9.9999e+22
        1.276e-05        9.9999e+22
        1.278e-05        9.9999e+22
         1.28e-05        9.9999e+22
        1.282e-05        9.9999e+22
        1.284e-05        9.9999e+22
        1.286e-05        9.9999e+22
        1.288e-05        9.9999e+22
         1.29e-05        9.9999e+22
        1.292e-05        9.9999e+22
        1.294e-05        9.9999e+22
        1.296e-05        9.9999e+22
        1.298e-05        9.9999e+22
          1.3e-05        9.9999e+22
        1.302e-05        9.9999e+22
        1.304e-05        9.9999e+22
        1.306e-05        9.9999e+22
        1.308e-05        9.9999e+22
         1.31e-05        9.9999e+22
        1.312e-05        9.9999e+22
        1.314e-05        9.9999e+22
        1.316e-05        9.9999e+22
        1.318e-05        9.9999e+22
         1.32e-05        9.9999e+22
        1.322e-05        9.9999e+22
        1.324e-05        9.9999e+22
        1.326e-05        9.9999e+22
        1.328e-05        9.9999e+22
         1.33e-05        9.9999e+22
        1.332e-05        9.9999e+22
        1.334e-05        9.9999e+22
        1.336e-05        9.9999e+22
        1.338e-05        9.9999e+22
         1.34e-05        9.9999e+22
        1.342e-05        9.9999e+22
        1.344e-05        9.9999e+22
        1.346e-05        9.9999e+22
        1.348e-05        9.9999e+22
         1.35e-05        9.9999e+22
        1.352e-05        9.9999e+22
        1.354e-05        9.9999e+22
        1.356e-05        9.9999e+22
        1.358e-05        9.9999e+22
         1.36e-05        9.9999e+22
        1.362e-05        9.9999e+22
        1.364e-05        9.9999e+22
        1.366e-05        9.9999e+22
        1.368e-05        9.9999e+22
         1.37e-05        9.9999e+22
        1.372e-05        9.9999e+22
        1.374e-05        9.9999e+22
        1.376e-05        9.9999e+22
        1.378e-05        9.9999e+22
         1.38e-05        9.9999e+22
        1.382e-05        9.9999e+22
        1.384e-05        9.9999e+22
        1.386e-05        9.9999e+22
        1.388e-05        9.9999e+22
         1.39e-05        9.9999e+22
        1.392e-05        9.9999e+22
        1.394e-05        9.9999e+22
        1.396e-05        9.9999e+22
        1.398e-05        9.9999e+22
          1.4e-05        9.9999e+22
        1.402e-05        9.9999e+22
        1.404e-05        9.9999e+22
        1.406e-05        9.9999e+22
        1.408e-05        9.9999e+22
         1.41e-05        9.9999e+22
        1.412e-05        9.9999e+22
        1.414e-05        9.9999e+22
        1.416e-05        9.9999e+22
        1.418e-05        9.9999e+22
         1.42e-05        9.9999e+22
        1.422e-05        9.9999e+22
        1.424e-05        9.9999e+22
        1.426e-05        9.9999e+22
        1.428e-05        9.9999e+22
         1.43e-05        9.9999e+22
        1.432e-05        9.9999e+22
        1.434e-05        9.9999e+22
        1.436e-05        9.9999e+22
        1.438e-05        9.9999e+22
         1.44e-05        9.9999e+22
        1.442e-05        9.9999e+22
        1.444e-05        9.9999e+22
        1.446e-05        9.9999e+22
        1.448e-05        9.9999e+22
         1.45e-05        9.9999e+22
        1.452e-05        9.9999e+22
        1.454e-05        9.9999e+22
        1.456e-05        9.9999e+22
        1.458e-05        9.9999e+22
         1.46e-05        9.9999e+22
        1.462e-05        9.9999e+22
        1.464e-05        9.9999e+22
        1.466e-05        9.9999e+22
        1.468e-05        9.9999e+22
         1.47e-05        9.9999e+22
        1.472e-05        9.9999e+22
        1.474e-05        9.9999e+22
        1.476e-05        9.9999e+22
        1.478e-05        9.9999e+22
         1.48e-05        9.9999e+22
        1.482e-05        9.9999e+22
        1.484e-05        9.9999e+22
        1.486e-05        9.9999e+22
        1.488e-05        9.9999e+22
         1.49e-05        9.9999e+22
        1.492e-05        9.9999e+22
        1.494e-05        9.9999e+22
        1.496e-05        9.9999e+22
        1.498e-05        9.9999e+22
          1.5e-05        9.9999e+22
        1.502e-05        9.9999e+22
        1.504e-05        9.9999e+22
        1.506e-05        9.9999e+22
        1.508e-05        9.9999e+22
         1.51e-05        9.9999e+22
        1.512e-05        9.9999e+22
        1.514e-05        9.9999e+22
        1.516e-05        9.9999e+22
        1.518e-05        9.9999e+22
         1.52e-05        9.9999e+22
        1.522e-05        9.9999e+22
        1.524e-05        9.9999e+22
        1.526e-05        9.9999e+22
        1.528e-05        9.9999e+22
         1.53e-05        9.9999e+22
        1.532e-05        9.9999e+22
        1.534e-05        9.9999e+22
        1.536e-05        9.9999e+22
        1.538e-05        9.9999e+22
         1.54e-05        9.9999e+22
        1.542e-05        9.9999e+22
        1.544e-05        9.9999e+22
        1.546e-05        9.9999e+22
        1.548e-05        9.9999e+22
         1.55e-05        9.9999e+22
        1.552e-05        9.9999e+22
        1.554e-05        9.9999e+22
        1.556e-05        9.9999e+22
        1.558e-05        9.9999e+22
         1.56e-05        9.9999e+22
        1.562e-05        9.9999e+22
        1.564e-05        9.9999e+22
        1.566e-05        9.9999e+22
        1.568e-05        9.9999e+22
         1.57e-05        9.9999e+22
        1.572e-05        9.9999e+22
        1.574e-05        9.9999e+22
        1.576e-05        9.9999e+22
        1.578e-05        9.9999e+22
         1.58e-05        9.9999e+22
        1.582e-05        9.9999e+22
        1.584e-05        9.9999e+22
        1.586e-05        9.9999e+22
        1.588e-05        9.9999e+22
         1.59e-05        9.9999e+22
        1.592e-05        9.9999e+22
        1.594e-05        9.9999e+22
        1.596e-05        9.9999e+22
        1.598e-05        9.9999e+22
          1.6e-05        9.9999e+22
        1.602e-05        9.9999e+22
        1.604e-05        9.9999e+22
        1.606e-05        9.9999e+22
        1.608e-05        9.9999e+22
         1.61e-05        9.9999e+22
        1.612e-05        9.9999e+22
        1.614e-05        9.9999e+22
        1.616e-05        9.9999e+22
        1.618e-05        9.9999e+22
         1.62e-05        9.9999e+22
        1.622e-05        9.9999e+22
        1.624e-05        9.9999e+22
        1.626e-05        9.9999e+22
        1.628e-05        9.9999e+22
         1.63e-05        9.9999e+22
        1.632e-05        9.9999e+22
        1.634e-05        9.9999e+22
        1.636e-05        9.9999e+22
        1.638e-05        9.9999e+22
         1.64e-05        9.9999e+22
        1.642e-05        9.9999e+22
        1.644e-05        9.9999e+22
        1.646e-05        9.9999e+22
        1.648e-05        9.9999e+22
         1.65e-05        9.9999e+22
        1.652e-05        9.9999e+22
        1.654e-05        9.9999e+22
        1.656e-05        9.9999e+22
        1.658e-05        9.9999e+22
         1.66e-05        9.9999e+22
        1.662e-05        9.9999e+22