/*--------------------------------*- C++ -*----------------------------------*\
| =========                 |                                                 |
| \\      /  F ield         | OpenFOAM: The Open Source CFD Toolbox           |
|  \\    /   O peration     | Version:  v1706                                 |
|   \\  /    A nd           | Web:      www.OpenFOAM.com                      |
|    \\/     M anipulation  |                                                 |
\*---------------------------------------------------------------------------*/
FoamFile
{
    version     2.0;
    format      ascii;
    class       labelField;
    location    "0.14/lagrangian/dsmc";
    object      origId;
}
// * * * * * * * * * * * * * * * * * * * * * * * * * * * * * * * * * * * * * //


330504
(
60776585
60876307
60888575
60876447
60883394
60923731
60904416
60904421
60906160
60937793
60913148
60948359
60943089
60957000
60860604
60960576
60944738
60974604
60935931
60949951
60949921
60971017
60962208
60985158
60962209
60939471
60993909
60960448
60979731
60995774
60967445
60972843
60944641
60988603
60995554
60892113
60941171
60941179
61014817
60965687
60976257
60920243
60948206
60995656
61000878
60953405
61009582
61013196
60974478
60991989
60960553
60981464
60999061
60988450
60995576
61004581
60985028
60993811
60992169
60995574
60985078
61000735
61005991
60993748
61000868
61000927
60993722
61002471
61016711
60895667
60960532
60977946
60995484
61006001
61027044
61037652
60997220
61025330
60960468
61012976
61025327
61025459
61016559
61023528
60958835
60974669
60985033
61006021
61009539
61020120
61020146
61037670
60929141
61018535
60979785
60983375
60992064
61009531
61011306
61012996
61016525
61020132
61030544
60983190
61018278
61023664
61025277
61032325
61032461
61035848
61012979
61015076
61028935
61034206
61046501
61048058
61051601
61030612
61034058
61037545
61039304
61049848
61053373
61025345
61027028
61027166
61035764
61048232
60984996
61032265
61049852
60999102
61037559
61041030
61013065
61018310
61032394
61039388
61048094
61049843
61053360
61028912
61037722
61051677
61053293
61053332
61055227
61060510
61012999
61051538
61058642
61058858
61060403
61002524
60967589
60949914
60957068
61006016
61044573
61049959
61053292
61055043
61055302
61062268
61014748
61020288
61027042
61046329
61048093
61049951
60986727
61005983
61018283
61019991
61037684
61046289
61046370
61051639
61053354
61053405
61067306
61004278
61006042
61023514
61027247
61039400
61042895
61046302
61048169
61060520
61009541
61009589
61042785
61042830
61072735
61000737
61006094
61013030
61027003
61037531
61041113
61048096
61056856
61065588
61067405
60981472
61005969
61030555
61051656
61055055
61058581
61069196
61055065
61006029
61032300
61034051
61074473
61076110
61011313
61035832
61049779
61058665
61058730
61063908
61064012
61078033
60941177
61081315
61081551
61007855
61018290
61018292
61030578
61034183
61046284
61046319
61051571
61060395
61074375
61056885
61058711
61060334
61072607
61020052
61023508
61034043
61041189
61053298
61056816
61067417
61020070
60972688
61019980
61041016
61051577
61069073
61069146
61070802
61083217
61084830
61084890
60986785
60997287
61026989
61028800
61055099
61056843
61063973
61069168
61071009
61072679
61072695
61072743
61077940
61078015
61083074
60962248
61042955
61055218
61058591
61062295
61063975
61065562
61076106
61076183
61077887
61083134
61083218
61084913
61099044
61062179
61064004
61065616
61072764
61074400
61079622
61083280
61090220
60950092
61041017
61053403
61056780
61069232
61072596
61072775
61077874
61079597
61081340
61081357
61083235
61088491
60883315
61030651
61042813
61046471
61062145
61063831
61065679
61067411
61074372
61074469
61076153
61079776
61081322
61081416
61086609
61095425
61105862
60983204
61032293
61034065
61042901
61051576
61055084
61062180
61069256
61070929
61072632
61072658
61078056
61079626
61091857
61091933
61095435
61093853
60914856
61025332
61030587
61051745
61076171
61083132
61083160
61092038
61093646
61093732
61093799
61097183
61028802
61077870
61042842
61046389
61048070
61060290
61067304
61067336
61074403
61077875
61079848
61084903
61092024
61093744
61095430
61095502
61097096
61099062
61104325
61034137
61102603
61018333
61044549
61058621
61070914
61077994
61079823
61079938
61081577
61083143
61090233
61091991
61095395
61095454
61104210
61020036
61070843
61034017
61046276
61055068
61069145
61072805
61074358
61077889
61081385
61081458
61083196
61084845
61088363
61090282
61097147
61100675
60911349
61048122
61055064
61079822
61084899
61088412
61088578
61090163
61091898
61091925
61092039
61093897
61095339
61097344
61102616
61041056
61049842
61070849
61077860
61081407
61083278
61084986
61088356
61088514
61090131
61095374
61095413
61097186
61011324
61062287
61079676
61081404
61093659
61102347
61102422
61100784
60970999
61025321
61053417
61067426
61070817
61076061
61076131
61077955
61079755
61081336
61083173
61083435
61084889
61086615
61086673
61088359
61091871
61095394
61102343
61102397
61107700
61109511
60953433
61074486
61039327
61042770
61055070
61084887
61090164
61092044
61093750
61097148
61099000
61100668
61100748
61104295
61107739
61030573
61023591
61032295
61049857
61060340
61062106
61067367
61067392
61072640
61074381
61079724
61081361
61084868
61084962
61086667
61090113
61091874
61091924
61095503
61100632
61102517
61107628
61107825
61111225
61112871
61030596
60967517
60995499
61060329
61076147
61084920
61088559
61090107
61098961
61099022
61102544
61104102
61109455
61109642
61113064
60946487
61007731
61046321
61056829
61067328
61074353
61088351
61091987
61097259
61098912
61099018
61100600
61102494
61105951
61109420
61111313
61114605
61114699
61116460
61118117
61118210
61070961
61016566
60981573
61044554
61044594
61056787
61086678
61091848
61093675
61095367
61100633
61102463
61104141
61106074
61107625
61111134
61111256
61111402
61116474
61121709
61039342
61053308
60991978
61021764
61062049
61062102
61062122
61070857
61074311
61076068
61077934
61088428
61088466
61090122
61104170
61107622
61109375
61109387
61112916
61112918
61118157
61093704
60965724
61062113
61072627
61072725
61083153
61086651
61086731
61088444
61090134
61093884
61097240
61102365
61102417
61104142
61109451
61111344
61115005
61118364
61120082
61125279
61128638
61018314
61051532
61056835
61062066
61065630
61083109
61085067
61095492
61095496
61102542
61104277
61114780
61121735
61123676
61127140
61079782
61028891
61062090
61079635
61083198
61083271
61084977
61093676
61097097
61098895
61098919
61099035
61104213
61105946
61105983
61106068
61112945
61113141
61118278
61119937
61121649
61125129
61125211
61126983
61053367
61021792
61032364
61032388
61048179
61049935
61065636
61067326
61067385
61090093
61090127
61091845
61091886
61093599
61093708
61098889
61098947
61098993
61100619
61100689
61102525
61105888
61107605
61107755
61109431
61109454
61112857
61112867
61113011
61113033
61116472
61116544
61119904
61121634
61121715
61123398
61123418
61128754
61130552
61034039
61035819
61076157
61091950
61095450
61097132
61098878
61100686
61104256
61109472
61111191
61114704
61114782
61116533
61118394
61119925
61119993
61121622
61121839
61123653
61125156
61125187
61125221
61125235
61128668
61128673
61130482
61134211
61116513
61009604
61037502
61048211
61049865
61055207
61088372
61088440
61090265
61102485
61104339
61107684
61107704
61109430
61109448
61111209
61114686
61116364
61118241
61119881
61119923
61127196
61128771
61133990
61135683
61137399
61062047
61081366
61046291
61060293
61069338
61070939
61070940
61091952
61100648
61104207
61105917
61106033
61107688
61107880
61109502
61109516
61111159
61113012
61114631
61118183
61118187
61118214
61119976
61120124
61121698
61127151
61128870
61007911
61063868
61065597
61079572
61079600
61088329
61093626
61093677
61097210
61098879
61107696
61114718
61116694
61118182
61120062
61125217
61125257
61130618
61135820
61137510
61137511
61137646
61055052
61097179
61102560
61104198
61106012
61107604
61109355
61109433
61109521
61111276
61112922
61118215
61118226
61119914
61120084
61121660
61123711
61125376
61125385
61127142
61128743
61128826
61130754
61134059
61135776
60958819
61123539
61053384
61067395
61070854
61088383
61090169
61090278
61095536
61097196
61098873
61104112
61109401
61111147
61111190
61111255
61114794
60967470
61118264
61118282
61118341
61118367
61121724
61121729
61121752
61126964
61128707
61128735
61133994
61135835
61137552
61141102
61041112
61053305
61098856
61100702
61102535
61111200
61112993
61114665
61116458
61120130
61125372
61127071
61128630
61128768
61130617
61133951
61134021
61135692
61135808
61137566
61139150
61139234
61141096
61123451
61099016
61062055
61069167
61072621
61077842
61083092
61084865
61090085
61095336
61095352
61100740
61102453
61107705
61112895
61116430
61116455
61118161
61119926
61119998
61120014
61123484
61123507
61123584
61125181
61130480
61130483
61132235
61134126
61135778
61140985
61142651
61144535
61028812
61041010
61049822
61060560
61063877
61069137
61079737
61090130
61090157
61091903
61091909
61091943
61092026
61097187
61098904
61100678
61105863
61116387
61116401
61116436
61118297
61119950
61119953
61119995
61121377
61121629
61123483
61123655
61125161
61125276
61125323
61126982
61126984
61128760
61128840
61130405
61130582
61133941
61144522
61146162
61146256
61148084
60999090
61102375
61118243
61074355
61083180
61088375
61095423
61095465
61100623
61102386
61102543
61112873
61114661
61116394
61116428
61119936
61120076
61123519
61123591
61130481
61130632
61132481
61137647
61139317
61139375
61141933
61149851
61058770
61127092
61130496
61128776
61025247
61041111
61048073
61064055
61067359
61076116
61081318
61083129
61083176
61090201
61098903
61100647
61105907
61105924
61111249
61113004
61114645
61114689
61116531
61116672
61118189
61119961
61120042
61121682
61123492
61125293
61126923
61126970
61127015
61127038
61128744
61128932
61130416
61130495
61132279
61134049
61137476
61137493
61137513
61140976
61144615
61146304
61148120
61151483
61081390
61102478
61056944
60977931
61046350
61084925
61088379
61093625
61093793
61097281
61098854
61105859
61107659
61107665
61107706
61111180
61114680
61114712
61116406
61116441
61119893
61120301
61123371
61125200
61125273
61125315
61130505
61132196
61132366
61133903
61134055
61134137
61134165
61135687
61137395
61137438
61137492
61137500
61137537
61137555
61139260
61139346
61140962
61141316
61144445
61146316
61147997
61148142
61153221
61153302
61021810
61032308
61062150
61069098
61090125
61090256
61102380
61111115
61114675
61116369
61116424
61118153
61118174
61118236
61119879
61119981
61119985
61121691
61127024
61127122
61128642
61128686
61128774
61130393
61130458
61130525
61130533
61132234
61132250
61132269
61132274
61133936
61133944
61135784
61135812
61135862
61141070
61142731
61146183
61147995
61148031
61149678
61149705
61149865
61153233
61154978
61099033
61130410
61048085
61049780
61070819
61070836
61091897
61100612
61100655
61104168
61106332
61107606
61107752
61109403
61111136
61116521
61118351
61125170
61125318
61128683
61128685
61128717
61128956
61130426
61130465
61130492
61130631
61132153
61135859
61135896
61137560
61137612
61139161
61139193
61139205
61140946
61144489
61144565
61146336
61026994
61147933
61148052
61149688
61149790
61165441
61093673
61060413
61069064
61072626
61093587
61105931
61111177
61114798
61116390
61116392
61118196
61119894
61121644
61121826
61125130
61125325
61130376
61130408
61130447
61130488
61130526
61130635
61132427
61133900
61133919
61135713
61137391
61139250
61139256
61139294
61142688
61143788
61144507
61144517
61146251
61146272
61146358
61149712
61153273
61154951
61156671
61160362
61099064
61081485
61134004
61136111
61055119
61069125
61077819
61083146
61111138
61114674
61118219
61121731
61123439
61125132
61125158
61125163
61125176
61125209
61130435
61133927
61133945
61135691
61135799
61135807
61137574
61139225
61139236
61139393
61140897
61142825
61142867
61144533
61144538
61146330
61147917
61147948
61149738
61149883
61151416
61154324
61155140
61156745
61156793
61156801
61157129
61065620
61135675
61081447
61067307
61074382
61088476
61091928
61091951
61104157
61112901
61116404
61118228
61120000
61121703
61121733
61121780
61130604
61132200
61132262
61132306
61134028
61134079
61139175
61139198
61139312
61141047
61142759
61142858
61145088
61146401
61148110
61149716
61151488
61151690
61153216
61153258
61153317
61154970
61156764
61156946
61158590
61160179
61104241
61034191
61065605
61079603
61093784
61109352
61116485
61118376
61121645
61121655
61123574
61126918
61126986
61130742
61132149
61132171
61132185
61134044
61134121
61135639
61135711
61135783
61137536
61139266
61139267
61139360
61139420
61142771
61142847
61142988
61146237
61146317
61148002
61148019
61148127
61149694
61151454
61151576
61151647
61153432
61155023
61156007
61157033
61158466
61160185
61162034
61162143
61163747
61041033
61127083
61062086
61004221
61025254
61051572
61053299
61056827
61060343
61072587
61081358
61084974
61090135
61091932
61100645
61102358
61102388
61102454
61104136
61104169
61105913
61107712
61109392
61114641
61114648
61114652
61114731
61116411
61118123
61118197
61120057
61123378
61123442
61123446
61123501
61125270
61128687
61130539
61130609
61132186
61132309
61133983
61134002
61135670
61135719
61135732
61137457
61137475
61137586
61139239
61139358
61139675
61140931
61140941
61141101
61142750
61142785
61144496
61144531
61147936
61148053
61148370
61151695
61153219
61153309
61155020
61091880
61156878
61158525
61158976
61160330
61160345
61165429
61165562
61142754
61069290
61077821
61079674
61083086
61102473
61107619
61112899
61118159
61121637
61121661
61121690
61125205
61125399
61127315
61132189
61134047
61135702
61135773
61135850
61139288
61142692
61142719
61144406
61147902
61148009
61148047
61148048
61148093
61148313
61149857
61151509
61151518
61151542
61151657
61153381
61153473
61153608
61156810
61156885
61156893
61158472
61158571
61159676
61162044
61163693
61163809
61165563
61167308
61028813
61065585
61069083
61069112
61072625
61084884
61093651
61102405
61105948
61109442
61109478
61116435
61119959
61123445
61125169
61125208
61126956
61127059
61128789
61130406
61132164
61135652
61135867
61139319
61140958
61141009
61142681
61144471
61144509
61144519
61144529
61144614
61144646
61147953
61148036
61149854
61151548
61155177
61156728
61156791
61156859
61158549
61158562
61158664
61160253
61160321
61161922
61162109
61162145
61162451
61163908
61163959
61163979
61167387
61170824
61170965
61174053
61158569
61097177
61102439
61111133
61111222
61112890
61121806
61123369
61123377
61125269
61128675
61128690
61130547
61132237
61132285
61132325
61133906
61133947
61133972
61137584
61139176
61140932
61140981
61141031
61142717
61142767
61146175
61149691
61149797
61149813
61151437
61151609
61153198
61153261
61153279
61154917
61155004
61156674
61156781
61156895
61157049
61158461
61160405
61160465
61161986
61161994
61162014
61162073
61162099
61163726
61163822
61168968
61169133
61170832
61051586
61139444
61055132
61083087
61083164
61086741
61095362
61104249
61105968
61109374
61114646
61116374
61116386
61118115
61119885
61121676
61123404
61126903
61127002
61128660
61128731
61128838
61130390
61130449
61132244
61134060
61135645
61135685
61135823
61137468
61139195
61142698
61142775
61142799
61144494
61144515
61144569
61146188
61146214
61146223
61146394
61147977
61148239
61149665
61149686
61151425
61151448
61151492
61151584
61154930
61155029
61156784
61156806
61156813
61156964
61158429
61158433
61158577
61158635
61160303
61160400
61163769
61165431
61165552
61165718
61167492
61168603
61169010
61169160
61171906
61174200
61174202
61174224
61121670
61151555
61162179
61074393
61055102
61070853
61076122
61093706
61100713
61105897
61106002
61107618
61109362
61111111
61114632
61118146
61121630
61121684
61130484
61130556
61133966
61137623
61137695
61139238
61141038
61141247
61142779
61146587
61147907
61147963
61148032
61148140
61149727
61149745
61149807
61149835
61149846
61149884
61149944
61150018
61151415
61151436
61151582
61151699
61153026
61153191
61153264
61154975
61155123
61155179
61156717
61156860
61158546
61158572
61160245
61160384
61160411
61161118
61162021
61162107
61162124
61163321
61163750
61163872
61165017
61165586
61165621
61165705
61167373
61167376
61167488
61167508
61169050
61170065
61170931
61039289
61174417
61176172
61140943
61051569
61076057
61097264
61102436
61105919
61111150
61111288
61116408
61123427
61126920
61126948
61128674
61128716
61131830
61132190
61134054
61135666
61135787
61137456
61143247
61146186
61147940
61148119
61149744
61149762
61150631
61150989
61151546
61153217
61154235
61154942
61155124
61156818
61156831
61156875
61156887
61156906
61156972
61158513
61158519
61160264
61160270
61160296
61162198
61162656
61163247
61163794
61163995
61167231
61167402
61169065
61169100
61169123
61169138
61170817
61171032
61172449
61174283
61177699
61177701
61177788
61179761
61181210
61182956
61127005
61152000
61088325
61095392
61100660
61109481
61112881
61116361
61116431
61118152
61121697
61127006
61128704
61137535
61139233
61140934
61140945
61142083
61142696
61142712
61144460
61144476
61144484
61144648
61146235
61148050
61148114
61149822
61149852
61150677
61151679
61151838
61153259
61153292
61153311
61153336
61154969
61154977
61155092
61156297
61156736
61156740
61156811
61156854
61156862
61158423
61158468
61158672
61160209
61160358
61160391
61160505
61162051
61162797
61163772
61163784
61163866
61163870
61163935
61164070
61165511
61165542
61165614
61165689
61167201
61168687
61169113
61170700
61170881
61172546
61173631
61174062
61176109
61177702
61177880
61178703
61180536
61180684
61025374
60950088
61067425
61077915
61095397
61107648
61109496
61111164
61116462
61118126
61118204
61119946
61121704
61123421
61123430
61126943
61126966
61132192
61132242
61134006
61135736
61139147
61139305
61141050
61142704
61148160
61149696
61149725
61151458
61151554
61153209
61153308
61155008
61155063
61155080
61156172
61156739
61158469
61158537
61160337
61160355
61160357
61162063
61163795
61167184
61167290
61167323
61167374
61167597
61168582
61168663
61169022
61170794
61170886
61172779
61174365
61174418
61176031
61176293
61176943
61177759
61177929
61179075
61181121
61021841
61028857
61062059
61070911
61071091
61102450
61109400
61111113
61111197
61116423
61116523
61126911
61127056
61130386
61130624
61132174
61132225
61134036
61134143
61139280
61140929
61141003
61144414
61144446
61144513
61147931
61147946
61151438
61151511
61151595
61153164
61153314
61153329
61153439
61155053
61156746
61156747
61156778
61156785
61158441
61158665
61160216
61160278
61161918
61161920
61161926
61161946
61162011
61162111
61162144
61162250
61163827
61165565
61167476
61167498
61168108
61169018
61169127
61169661
61170821
61170866
61170949
61171033
61172722
61172821
61174208
61174229
61174239
61174277
61174361
61175983
61177721
61178772
61179458
61179459
61179579
61183042
61183187
61183681
61189585
61039293
61093639
61112909
61160325
61058635
61090175
61095387
61114659
61118181
61121666
61125192
61125195
61125374
61128790
61130431
61132141
61132180
61133952
61135764
61137598
61139197
61140990
61141013
61142770
61142778
61144456
61144492
61146265
61146303
61149704
61149779
61151463
61151717
61152459
61152576
61153182
61153330
61154906
61154913
61155090
61155305
61156726
61156742
61156754
61158430
61158587
61160232
61160233
61160306
61162182
61162221
61162482
61162700
61163358
61163480
61163686
61163813
61165430
61165480
61165577
61166263
61167239
61167360
61167485
61167574
61168970
61169033
61169095
61170772
61171451
61171626
61171942
61172511
61172655
61172719
61173316
61174249
61174442
61175951
61176021
61176022
61176144
61176145
61177277
61177771
61177865
61178264
61178462
61178475
61178695
61179359
61179497
61179549
61180431
61180715
61180727
61181205
61181306
61181543
61181725
61184114
61184497
61186695
61187541
61187834
61188461
61090206
61177832
61156827
61169143
61081372
61083106
61100618
61120041
61121688
61123417
61123530
61125218
61126894
61126963
61127007
61128753
61132172
61133925
61135674
61139206
61139228
61139231
61141080
61142693
61142706
61146239
61148057
61148113
61149783
61151514
61151519
61151524
61155066
61155150
61156686
61156751
61156814
61156886
61158037
61158444
61158499
61159828
61160188
61160237
61160375
61160595
61161980
61162012
61162038
61162235
61163692
61163705
61163799
61163881
61163919
61165456
61165504
61165584
61165617
61165677
61165687
61166309
61166852
61167035
61167436
61167649
61168011
61169144
61169221
61169317
61170787
61172442
61172499
61172634
61172641
61172867
61172923
61173192
61174212
61174309
61174381
61174416
61174436
61174537
61174825
61174991
61175117
61175234
61176058
61176105
61176134
61176239
61176294
61177236
61177796
61177830
61178000
61178535
61178903
61179504
61180496
61180696
61181203
61181236
61181252
61182637
61183238
61183943
61184831
61184902
61186397
61187188
61189187
61100624
61002491
61097146
61235503
61058630
60976254
61028768
61057023
61023583
61098900
61100617
61104155
61109429
61113027
61116471
61130546
61135657
61137432
61137462
61144438
61146286
61146306
61147999
61149810
61149863
61151635
61153189
61153294
61155480
61157347
61158455
61158532
61158544
61158858
61160182
61160219
61160226
61161929
61161973
61161974
61161990
61161997
61162001
61162020
61163695
61163722
61164016
61165000
61004457
61165425
61165517
61165521
61165555
61165569
61165589
61165591
61165908
61167215
61167241
61167251
61167254
61167256
61167264
61167302
61167631
61169011
61169024
61169032
61169047
61169061
61169088
61169118
61169331
61170750
61170810
61170831
61170859
61170878
61170944
61170962
61171651
61172521
61172588
61172610
61172689
61172694
61172908
61173358
61173550
61173977
61174254
61174264
61174270
61174338
61174380
61174401
61174727
61175826
61175993
61176162
61176626
61176726
61177085
61177366
61177509
61177900
61177913
61177960
61178329
61178524
61178619
61178742
61179172
61179581
61179707
61181190
61181206
61181386
61181403
61182476
61182842
61182988
61183112
61184704
61184927
61185531
61186460
61188392
61188518
61189310
61189332
61093592
61074328
61070866
61155091
61143121
60902626
60918450
61156987
61046308
61049830
61083081
61086631
61105910
61109450
61114663
61119935
61123431
61126959
61128629
61128784
61130419
61133978
61135696
61135774
61137455
61139191
61139200
61140944
61144546
61144568
61144618
61146293
61147937
61147976
61148025
61148244
61151516
61151581
61153167
61153361
61154907
61155095
61156668
61156704
61156706
61156809
61160229
61160235
61160251
61160252
61160301
61160347
61160430
61161127
61162032
61162078
61162380
61163776
61163812
61163875
61165459
61165481
61165505
61165612
61165634
61166070
61166465
61166536
61167283
61167348
61167363
61167565
61167804
61169039
61169097
61169237
61169266
61170391
61170730
61170757
61170797
61170891
61171269
61172082
61172461
61172543
61172562
61172574
61172582
61172600
61172686
61172707
61173317
61173875
61174257
61174357
61174405
61174410
61174517
61175135
61175944
61176118
61176211
61177239
61177289
61177767
61177833
61177848
61177853
61177878
61177922
61178001
61178050
61178130
61178805
61179106
61179591
61179645
61179668
61179788
61179799
61179816
61180330
61180910
61181381
61181497
61182097
61182102
61183010
61183061
61183083
61183387
61184299
61184407
61184722
61184980
61185494
61185746
61186099
61186512
61186540
61187470
61187748
61188092
61188321
61188335
61188418
61188986
61189700
61189717
61189772
61189967
61190395
61191220
61191873
61193510
61193618
61197621
61198729
61118277
61119963
61237258
61067309
61088404
61104194
61107824
61123420
61123476
61126953
61126972
61127034
61128676
61128698
61132284
61137394
61137518
61139173
61139179
61140971
61142907
61146195
61147996
61148038
61148304
61149776
61150722
61151464
61151465
61151526
61151580
61153222
61154959
61155216
61156675
61156734
61156738
61156882
61157060
61158492
61158506
61158528
61158536
61160271
61160279
61160282
61161998
61162056
61162103
61162604
61163725
61163842
61163878
61163879
61164075
61165449
61165478
61165507
61165522
61165750
61167306
61167318
61167342
61167378
61167379
61167446
61167504
61167520
61167743
61169041
61169722
61170432
61170788
61170801
61170884
61170929
61171002
61172190
61172520
61172522
61172533
61172596
61172677
61172794
61173842
61174282
61174339
61174390
61174425
61174494
61174507
61174527
61174605
61175093
61175193
61175807
61176004
61176035
61176049
61176061
61176179
61176527
61177351
61177446
61177546
61177780
61177823
61177882
61177980
61178013
61178016
61178280
61178389
61178824
61178831
61179156
61179452
61179574
61179674
61179814
61181296
61181385
61181401
61181619
61182010
61182803
61182963
61183151
61183156
61183180
61183425
61184792
61184813
61184827
61184834
61184896
61185008
61185011
61185224
61186133
61186587
61186682
61187545
61187574
61187610
61187867
61188018
61188038
61188384
61189495
61189731
61189867
61190876
61191378
61191397
61191446
61193419
61194919
61194995
61198379
61237262
61083348
61192014
61039329
61072603
61076118
61079609
61112900
61112936
61119929
61121740
61123565
61125138
61128682
61128719
61130434
61137425
61137429
61139356
61142702
61142730
61142746
61146249
61147959
61149658
61151450
61153169
61155073
61156680
61157467
61159203
61065664
61161948
61162049
61162121
61162471
61163109
61163732
61163805
61164085
61165444
61165583
61165699
61165978
61167212
61167279
61167295
61167301
61167386
61167394
61167434
61168362
61168936
61168943
61168973
61169005
61169057
61169073
61170693
61170740
61170811
61170946
61171183
61171253
61172002
61172071
61172495
61172569
61172909
61173391
61173969
61174198
61174258
61174421
61174446
61174457
61174524
61174561
61174823
61175446
61175943
61176034
61176062
61176086
61176087
61176135
61176461
61177095
61177180
61177821
61177838
61177855
61177881
61177911
61177916
61177942
61178003
61178015
61178031
61178115
61178947
61179100
61179146
61179298
61179619
61179630
61179654
61179684
61179952
61180618
61180912
61181140
61181302
61181303
61181362
61181373
61181417
61181472
61181518
61182000
61182040
61182533
61182892
61182961
61183043
61183087
61183125
61183133
61183145
61183219
61183225
61183543
61183882
61184481
61184649
61184869
61184923
61185060
61185112
61185119
61185535
61185641
61186203
61186321
61186470
61186549
61186629
61186737
61186951
61186952
61187499
61187904
61188047
61188328
61188344
61188516
61189082
61189459
61189565
61189791
61190101
61190507
61190584
61190634
61191326
61191364
61191451
61191541
61191594
61191930
61192214
61193807
61194620
61194702
61195296
61195413
61196462
61196603
61196853
61197205
61197214
61197763
61198239
61200229
61200245
61235498
61167291
61090095
61160312
61242512
61018337
61177703
61027114
61079576
61102385
61118120
61121716
61123494
61125127
61126891
61127176
61130478
61132221
61132280
61137454
61139139
61144585
61146196
61146238
61148061
61149700
61151452
61153466
61154666
61154938
61156681
61156713
61156719
61156777
61158511
61158523
61158594
61160174
61160227
61160328
61161921
61162008
61162015
61162026
61162965
61163112
61163717
61163739
61163780
61163782
61163793
61163844
61164040
61164101
61164524
61165427
61165498
61165502
61165559
61165728
61165866
61166934
61167328
61167462
61167509
61167727
61167734
61168094
61168599
61168644
61168959
61169077
61169236
61169712
61169751
61169938
61170108
61170164
61170755
61170805
61170841
61171542
61172556
61172577
61172606
61172651
61172699
61173449
61173494
60997378
61174301
61174326
61174356
61174451
61174483
61175356
61175722
61175789
61176013
61176088
61176122
61176252
61176379
61176413
61176437
61176523
61176633
61176639
61176909
61177751
61177754
61177859
61177885
61177888
61177899
61177964
61177967
61177970
61178479
61178782
61179252
61179457
61179505
61179539
61179561
61179573
61179628
61179661
61179696
61179824
61180211
61180497
61180518
61180559
61181235
61181276
61181289
61181382
61181468
61181540
61181787
61182019
61182185
61182307
61182346
61182421
61182725
61182805
61183020
61183032
61183067
61183518
61184432
61184523
61184881
61184996
61185149
61185229
61185258
61185378
61185432
61185509
61185575
61185931
61186097
61186173
61186640
61186751
61186941
61186997
61187013
61187033
61187495
61187539
61187598
61187733
61187940
61188323
61188333
61188337
61188386
61188388
61188425
61188526
61188694
61188869
61188882
61188970
61189161
61189326
61189474
61189553
61190047
61190108
61190192
61190237
61190258
61190279
61190564
61190608
61190879
61191016
61191138
61191215
61191494
61191524
61191860
61192064
61192219
61192570
61192983
61193136
61193870
61194066
61194841
61194878
61194985
61195110
61195286
61196854
61196876
61197401
61197638
61198045
61199023
61200732
61200977
61206038
61223228
61235497
61053377
61077847
61088417
61093620
61104209
61109499
61112958
61112981
61119887
61123403
61125310
61130417
61130437
61135837
61142655
61142679
61142689
61144427
61146182
61146392
61147927
61147985
61149667
61151475
61151523
61151569
61153187
61153205
61155025
61155039
61155820
61157035
61158467
61158518
61160191
61160250
61160762
61161178
61162061
61162087
61162176
61163843
61163930
61164920
61165457
61165487
61165622
61166218
61166969
61167309
61168022
61168114
61168944
61168954
61168990
61169001
61169040
61169112
61169125
61170702
61170719
61170758
61170774
61170812
61170819
61170851
61170855
61170904
61171139
61171670
61171741
61172517
61172525
61172565
61172593
61172627
61173090
61173310
61174307
61174314
61174324
61174340
61174427
61174479
61174591
61174597
61174942
61175067
61176015
61176104
61176121
61176124
61176131
61176142
61176222
61176246
61176460
61176657
61177110
61177941
61177943
61177968
61178100
61178396
61178527
61178615
61178719
61179623
61179635
61179643
61179691
61179709
61179776
61179798
61179851
61179872
61179925
61180008
61180073
61180391
61180567
61180580
61181101
61181204
61181291
61181314
61181414
61181428
61181435
61181479
61181496
61181799
61182149
61182225
61182226
61182292
61182454
61182527
61182797
61183036
61183086
61183118
61183190
61183208
61183316
61183491
61183577
61183701
61183901
61183912
61183952
61184014
61184041