/*--------------------------------*- C++ -*----------------------------------*\
| =========                 |                                                 |
| \\      /  F ield         | OpenFOAM: The Open Source CFD Toolbox           |
|  \\    /   O peration     | Version:  v1706                                 |
|   \\  /    A nd           | Web:      www.OpenFOAM.com                      |
|    \\/     M anipulation  |                                                 |
\*---------------------------------------------------------------------------*/
FoamFile
{
    version     2.0;
    format      ascii;
    class       scalarField;
    location    "5e-05/lagrangian/dsmc";
    object      ERot;
}
// * * * * * * * * * * * * * * * * * * * * * * * * * * * * * * * * * * * * * //


99998
(
1.405441045e-19
9.33001417e-20
6.346937843e-20
1.436348951e-19
7.542924513e-22
7.959785181e-20
5.445488543e-21
1.641761498e-20
7.342059426e-21
9.114761257e-20
6.313463751e-20
1.866443671e-19
1.030396535e-19
1.388040023e-19
7.809921945e-20
4.332067707e-20
1.557901068e-20
6.74128148e-21
2.104813745e-19
1.024377596e-19
1.402708725e-19
2.672954092e-20
1.04925016e-19
2.631145337e-19
6.266470117e-21
1.167812992e-19
1.02080304e-19
3.741640111e-20
1.2174667e-20
2.308448764e-19
7.443366094e-20
1.883764246e-19
1.936006017e-20
5.786993721e-20
1.069967825e-19
1.10447162e-19
1.386671368e-19
8.998499183e-20
9.504326301e-21
1.177029451e-19
6.310610204e-20
1.57737532e-19
1.345896047e-20
1.705393982e-20
1.209397366e-19
1.418001993e-20
5.770504167e-20
2.008850575e-19
2.141673519e-20
2.385734426e-19
6.661752985e-20
4.052405656e-19
6.520505868e-21
1.36633239e-19
1.223120606e-19
6.411539419e-21
3.562362974e-19
1.104563691e-20
8.176392456e-20
1.490333738e-19
1.661267503e-19
1.459172101e-19
1.066403977e-19
5.552590224e-20
2.413786333e-19
3.427355693e-19
8.286310515e-22
3.574439333e-20
9.590572875e-20
2.106445817e-19
9.323916037e-20
9.658154272e-20
5.149529341e-20
7.968541936e-20
3.928335707e-19
1.527012273e-19
1.118258725e-19
2.967971589e-19
3.219288431e-22
8.505854096e-21
7.115519981e-20
3.334648002e-19
1.178394578e-19
1.171962421e-19
2.074474731e-20
2.220487028e-19
4.074656152e-19
8.608758154e-20
4.20777466e-20
5.207317282e-20
1.002629606e-19
7.379431743e-20
1.245972884e-20
2.695063339e-19
4.083011132e-20
2.578453851e-19
8.379998543e-20
1.124573971e-20
7.638721551e-20
2.549306914e-21
1.401202682e-19
8.171604548e-21
1.299304629e-20
1.940733784e-19
1.578476033e-19
3.998162049e-20
1.228606384e-20
4.331064095e-20
1.020958419e-19
4.481536754e-20
4.644071372e-19
2.471867471e-20
1.288189473e-19
1.005717113e-19
2.132067108e-19
1.424057383e-19
1.32668791e-20
8.830089008e-20
2.442619555e-19
1.158164998e-19
2.803835203e-20
1.712783313e-19
1.312374599e-19
4.033770959e-20
7.827843737e-21
1.226888804e-19
4.041537734e-20
3.076124853e-21
4.291642344e-20
1.070368475e-19
2.028090676e-19
3.959938224e-20
2.786461255e-19
1.07550662e-19
1.679884085e-20
1.12104281e-19
3.374521158e-20
2.164246708e-19
2.243824748e-19
7.615791027e-20
1.737626442e-19
3.742182265e-19
1.020578183e-19
3.253023441e-19
1.802069839e-19
2.044343565e-21
1.933584574e-20
7.886330675e-20
3.479524354e-19
6.485588998e-20
3.615187045e-20
1.783533181e-19
5.69011607e-20
3.187515867e-19
4.735967884e-19
1.15431003e-19
1.032823637e-19
2.074962202e-19
3.323576126e-20
1.77157201e-20
5.858848425e-20
1.790451823e-19
1.678530424e-19
8.250607327e-21
6.273657484e-20
6.42168851e-20
3.229166991e-20
4.207781948e-20
2.42910815e-19
3.924363168e-20
9.166419735e-20
1.759379072e-19
1.462494204e-21
2.258133629e-19
2.900433221e-19
2.505685985e-21
7.575957824e-19
6.493201353e-20
2.268981463e-19
7.297032727e-20
4.922719841e-20
6.13007742e-20
4.76103151e-20
1.785890988e-19
3.768478855e-20
1.60953418e-19
3.688723946e-20
1.0995031e-19
6.33994801e-20
1.016234669e-19
5.018614368e-19
1.997035954e-19
1.343324772e-20
1.916532284e-20
1.555491462e-20
7.078636148e-20
2.073705297e-20
4.207000053e-20
1.951167942e-19
1.473366184e-20
9.593900125e-20
2.352815472e-20
6.136507299e-20
2.293561556e-19
1.344004403e-19
2.352845628e-19
1.373299243e-19
1.348950527e-19
3.672821486e-20
2.282124925e-21
1.900752303e-19
5.519992057e-20
8.888020109e-21
6.478185792e-20
3.840799739e-21
9.159652023e-21
2.409991428e-20
5.593446284e-21
5.021947605e-20
2.850853032e-19
7.279113755e-20
1.695612799e-19
1.321912917e-19
3.803383829e-20
8.50186244e-20
8.263817772e-21
1.423637807e-20
1.442823766e-20
1.970023649e-19
1.770714863e-20
8.316611476e-21
9.648530287e-21
7.096745619e-21
4.425492859e-21
1.716322922e-20
1.926878524e-20
4.755674969e-20
8.341987114e-20
4.325025411e-20
3.904457748e-20
6.743001448e-20
6.234649816e-20
2.43889727e-19
1.143621438e-19
8.738390293e-20
6.450942931e-19
1.063851692e-19
1.457200013e-20
2.884255723e-19
5.655616413e-20
4.982052253e-21
2.335022026e-19
2.202010467e-19
3.759359892e-19
7.766108927e-20
2.583857085e-19
1.229983225e-19
6.388207779e-20
1.025002128e-19
6.718981467e-20
9.005070491e-20
2.973979563e-20
2.615328053e-20
5.63446221e-20
2.162510801e-19
1.616575111e-20
5.335113131e-19
7.931504859e-20
5.584272058e-20
6.759887679e-20
6.474131921e-20
4.710118012e-20
4.019810081e-20
6.053528732e-20
1.617801622e-19
4.437461154e-21
6.875855284e-20
4.873631043e-20
7.483835692e-20
1.531964773e-19
1.106994446e-19
1.145505429e-20
3.737012159e-20
3.545946181e-20
6.629095153e-20
9.530331063e-20
6.401984202e-20
1.16356454e-19
2.784559284e-19
3.314228618e-21
5.679825966e-21
1.432831415e-19
1.816896429e-21
5.416189239e-20
3.541433307e-19
1.007527184e-20
3.674753194e-20
4.774299984e-21
1.737657259e-19
1.149578514e-19
2.221075412e-19
5.502118452e-20
7.129770903e-20
2.391793651e-20
1.190211185e-19
3.1130522e-19
4.760049859e-20
5.223198078e-21
3.273322879e-20
9.284995332e-20
2.356383161e-19
8.427533294e-20
3.946487127e-20
2.282576169e-19
7.2422862e-20
1.278201315e-20
4.905397307e-20
4.45395323e-19
5.760321377e-20
3.840714202e-19
1.412660631e-19
9.102334395e-20
1.777288666e-19
1.977435856e-21
6.701340969e-20
1.472587306e-19
1.212368853e-19
3.614771545e-20
5.25773378e-20
3.943158121e-20
1.241005606e-19
1.542306011e-20
5.51706533e-19
1.027894034e-19
2.376814076e-19
2.002515079e-19
7.204367127e-20
1.425595021e-19
1.540701413e-20
5.612646085e-20
9.279797217e-20
4.122764511e-21
3.038368686e-20
1.289795749e-19
8.975694467e-21
1.262700552e-19
2.542663317e-20
2.284362898e-19
1.25703034e-19
8.236573399e-20
6.25295712e-20
2.365959001e-20
1.113515866e-20
5.355531644e-20
3.686076692e-20
2.015255556e-19
6.046856032e-20
9.518044539e-20
8.419744973e-20
2.183936545e-20
8.266345976e-20
4.986480215e-20
4.42349125e-20
7.188249157e-20
2.306290259e-20
1.111392783e-20
2.06433375e-19
4.781740359e-20
5.179195721e-20
1.104341557e-19
1.544398811e-19
2.410809991e-20
2.776980135e-19
1.446133222e-19
1.791817058e-20
3.674197047e-21
5.912008451e-19
1.468047844e-20
4.132313347e-20
1.436451414e-19
2.665328658e-19
2.320221134e-19
3.218012948e-20
4.954728771e-20
2.818479362e-19
8.031602335e-20
4.094556818e-20
3.391624969e-19
1.154550156e-19
2.31010662e-20
1.308282499e-20
1.026827394e-19
4.273751282e-19
1.425785132e-19
2.058031526e-19
7.408415149e-20
7.589616522e-20
3.896513572e-20
2.136861766e-19
1.106821259e-19
1.290174197e-19
5.012458226e-21
8.382585283e-20
9.052624715e-22
3.986310211e-20
1.537539242e-19
1.237583865e-20
4.271723661e-20
2.032907141e-19
4.059377432e-19
9.846424599e-20
4.632251574e-20
2.255717763e-20
3.407420687e-19
5.041242128e-20
2.0722251e-19
2.38883665e-20
2.486281683e-19
2.694266519e-19
3.702128021e-22
5.591334506e-20
2.483438575e-20
4.995123315e-20
1.190774612e-19
6.400840546e-21
2.600504908e-19
2.288915219e-19
1.307777976e-19
6.226097091e-20
3.047055908e-19
2.276514756e-19
1.549860923e-19
6.351894793e-20
1.58431764e-19
1.678826351e-19
8.462557813e-21
1.313790435e-19
1.75118604e-19
1.85279291e-19
4.602166066e-20
1.792577733e-19
2.533385962e-20
1.069513419e-20
1.121340198e-19
2.291359359e-19
3.981833419e-20
1.278971384e-21
1.470766391e-19
3.265146957e-19
2.149960605e-20
1.408152275e-19
3.247729518e-19
5.478987678e-21
7.711405691e-20
2.088837899e-19
5.986227625e-19
5.185688597e-20
2.942435773e-20
2.302198754e-19
1.126042144e-20
2.645801024e-19
1.526951394e-19
1.408200072e-19
1.022099099e-19
1.244631112e-20
1.000777075e-19
1.205604531e-19
4.842712219e-19
9.858093056e-20
7.577816974e-20
8.92760426e-20
5.019556241e-21
8.592551781e-20
2.739594914e-19
6.624257861e-20
9.609231708e-20
3.800396551e-20
1.658932705e-20
9.907155313e-20
1.652515857e-20
3.89571456e-19
2.419271561e-19
1.18129917e-19
6.394526844e-20
9.145536108e-20
1.635838177e-19
1.38932895e-19
2.760184557e-22
2.748526873e-19
7.409616411e-20
1.269535676e-19
6.197229229e-20
9.383515699e-21
1.330429712e-19
1.093699662e-19
4.763166808e-20
1.925024294e-19
5.345742579e-19
8.231114527e-20
1.510032671e-20
1.775454363e-19
2.538402221e-19
2.419860781e-20
2.432511698e-19
1.223445789e-19
4.265542702e-19
2.127702379e-19
5.368939606e-20
8.975420186e-20
2.347481014e-19
2.187695465e-19
2.505221134e-20
4.849014737e-19
9.548850294e-20
4.704784824e-20
3.879572492e-20
1.826983282e-20
2.468549231e-20
4.211153678e-20
6.431585672e-20
1.521417005e-19
2.3334541e-20
1.093683678e-19
6.007750783e-20
6.812242453e-20
3.605578624e-20
1.395578409e-20
1.269567727e-19
4.729541101e-20
1.620365503e-21
1.321781072e-20
3.384834081e-20
1.326385619e-19
3.557882738e-20
7.300370142e-20
2.351370712e-20
7.627565472e-21
1.686544505e-19
6.75566472e-20
1.853216136e-19
8.264825978e-20
9.228563952e-20
1.438189304e-20
5.268502745e-20
4.511358765e-20
3.361000622e-20
1.951585728e-19
3.364765295e-21
7.521741511e-20
3.53399531e-19
7.846904477e-20
2.544339439e-20
6.62946268e-20
1.308797891e-19
1.01524181e-19
3.455528623e-20
1.558153566e-19
1.01230777e-19
1.485934873e-20
1.434900059e-19
2.107657552e-19
8.500650478e-20
8.110667621e-20
4.12183855e-20
2.021042327e-19
6.715572209e-20
2.345508339e-20
4.432589886e-20
7.418205742e-20
6.860083605e-21
7.598929226e-20
1.941322373e-20
6.579003954e-21
1.148437584e-19
4.829260012e-20
7.407517188e-20
2.255806195e-20
2.253659557e-20
1.889198295e-19
3.970045737e-20
2.617861755e-19
3.16266187e-20
1.561400557e-20
1.83382185e-20
2.113390448e-20
3.181673889e-20
2.098151272e-19
1.376950522e-20
1.089520929e-20
2.945920343e-20
2.932855287e-20
6.487936949e-20
6.939200319e-20
6.848939619e-20
1.733642314e-19
1.73096326e-19
1.559950366e-19
8.871751847e-21
1.588567621e-21
1.803946631e-21
1.59697916e-19
2.706644872e-20
8.613326474e-20
2.176917063e-20
1.962127335e-20
1.828899855e-19
1.168765904e-19
6.398848378e-20
2.613704458e-19
9.419636836e-20
3.023390757e-20
2.896076459e-20
2.131009368e-20
1.94599869e-20
5.872447719e-20
1.522159544e-19
2.410906834e-20
9.082580444e-20
4.284786679e-20
6.107864359e-20
5.324324304e-20
4.609859664e-20
1.164438935e-19
1.069191168e-19
3.544150316e-19
4.513733372e-20
3.637866513e-20
2.848795025e-20
1.869450793e-19
7.857694397e-20
1.964834704e-20
1.689908347e-20
7.777371288e-20
9.149626047e-20
2.600513329e-19
2.506008962e-19
4.063760075e-20
2.187269857e-19
1.064647487e-19
9.41479178e-20
2.032311744e-19
2.003141019e-19
7.726897547e-20
1.646245949e-19
2.097338287e-20
6.665001241e-20
7.973894281e-20
2.273728363e-19
1.554836416e-20
7.477689109e-20
9.217629777e-22
1.971357197e-19
4.702238202e-20
1.280348361e-19
2.911784334e-20
1.117029454e-19
4.896080741e-20
7.246845353e-20
1.343049669e-19
2.24376157e-20
5.475436136e-20
1.116049407e-19
8.387847709e-20
2.02887876e-19
1.639153283e-19
6.821061443e-20
7.234913272e-20
3.943879869e-19
1.25029125e-19
9.999010812e-20
3.085116969e-19
4.784778355e-20
1.013507832e-20
1.429811537e-20
6.711953517e-20
1.13677668e-19
5.181522451e-20
6.985912845e-20
6.792484425e-21
1.092687981e-19
1.752160154e-19
3.617761602e-20
1.344859565e-19
4.245991373e-19
4.454019811e-20
1.538681888e-19
4.226084852e-20
2.837484539e-20
5.364040639e-20
5.869930829e-20
4.07702218e-20
1.042182645e-19
2.187096544e-19
7.433362833e-20
1.229909154e-19
8.953995579e-20
6.722803757e-21
1.824708297e-19
7.093439205e-20
5.752810994e-20
2.030192013e-20
2.400471911e-19
1.376920199e-19
4.612933078e-20
1.977447699e-19
1.922136429e-20
8.343415886e-20
1.077060915e-19
1.674906685e-20
5.581559141e-20
1.28041559e-20
6.294768406e-21
2.285608349e-20
1.467251839e-19
8.724235214e-20
8.162871173e-20
1.019230328e-20
4.519201733e-21
7.084012939e-20
1.605407218e-19
6.268923444e-20
3.311529935e-19
1.743633246e-19
8.274504203e-20
1.181669488e-19
3.235190593e-20
9.353326484e-20
3.640504704e-20
7.470083033e-20
2.152102189e-21
1.313433607e-19
5.735254872e-20
4.391610628e-20
9.058304325e-20
4.91743154e-20
7.986298443e-20
2.713606838e-20
2.442767166e-20
1.737463129e-20
1.955227902e-19
1.067253509e-19
3.643612704e-20
1.51926129e-20
6.543291246e-20
9.187629086e-21
2.164420942e-20
2.518950777e-19
1.281944948e-19
8.777872586e-20
1.597405976e-19
3.401663659e-19
1.432812263e-19
5.699741333e-20
7.07521511e-20
1.405270687e-19
1.597672727e-19
7.060107074e-20
6.530569875e-21
1.2296318e-19
1.265743402e-20
9.642615143e-20
9.24441156e-20
1.221902978e-19
5.128399309e-20
4.381488362e-20
5.683791615e-20
5.544314652e-20
2.05185662e-20
1.287629666e-19
8.152360294e-20
2.021420351e-19
1.81179972e-19
8.028406735e-20
5.189886664e-20
2.85506726e-19
6.663791982e-20
2.040660847e-19
1.433307191e-20
2.553529136e-20
2.182047906e-19
4.84880083e-21
1.092634496e-19
2.875015473e-19
2.322680616e-20
2.972359026e-20
1.129891392e-20
4.207918849e-21
6.530455263e-20
5.385130669e-21
1.454035765e-19
6.772003198e-20
1.479083473e-19
7.302326911e-20
1.943177886e-19
1.150811373e-20
1.534831738e-19
6.535757787e-21
7.795467042e-21
1.195933764e-19
5.410269865e-20
4.642508148e-20
9.162680458e-20
3.030765443e-20
6.664601439e-21
4.530469577e-22
8.619172741e-21
6.581107555e-20
7.428686178e-20
1.160599037e-20
1.807030747e-19
1.607475728e-20
3.947450455e-20
6.01771238e-20
2.380394155e-20
1.146079914e-19
1.31271313e-19
1.250391503e-20
2.466803933e-20
5.366702127e-20
1.4868091e-21
6.13574027e-20
1.574436665e-19
1.133720408e-19
1.568813712e-19
3.54743407e-20
2.369353657e-20
6.201856181e-20
3.390973456e-19
3.734013555e-19
2.559041917e-20
7.302559362e-20
1.924181648e-19
2.153177495e-20
3.047750985e-20
1.119353512e-19
1.860154845e-19
2.381565988e-21
1.888862728e-19
3.648945081e-20
4.858490258e-20
5.543885637e-21
7.510800143e-20
5.763098558e-20
2.026561961e-19
8.610261348e-20
2.07967493e-20
4.079900875e-19
1.125393704e-20
3.48105385e-20
3.075581896e-20
1.756235089e-19
6.855183696e-20
6.611399303e-20
9.269626705e-20
1.767180603e-19
8.838275385e-20
2.361539697e-20
4.181662729e-20
1.115036504e-19
2.138577117e-19
2.544158533e-19
9.722843191e-21
1.23161182e-19
1.838220491e-19
2.889983954e-19
3.992457526e-19
2.938597369e-19
1.286193646e-19
7.916256298e-20
1.670794466e-19
5.074468668e-20
5.221951787e-20
8.323642591e-20
1.209734949e-19
1.333754968e-19
2.677526134e-20
4.709070986e-20
1.427025812e-19
2.328421198e-19
6.54525658e-19
1.528168339e-20
2.086428543e-19
1.76832902e-20
7.458102352e-20
6.377441268e-20
3.21185438e-20
1.685589522e-19
3.003303124e-19
1.140274391e-19
4.405062522e-20
1.493437548e-20
2.04457139e-19
2.414921072e-20
4.92106698e-19
2.211229785e-19
1.444559707e-20
4.653062798e-20
9.672935144e-20
1.739741213e-20
1.42854948e-19
3.64697422e-20
6.199848133e-20
7.973467555e-20
7.662014966e-21
5.948114074e-20
4.384240292e-20
4.977816248e-19
3.330186104e-19
3.582449444e-20
1.587089979e-19
1.061178427e-19
1.265204353e-20
5.284098265e-20
7.676557911e-20
1.779527379e-20
5.162109444e-20
6.999815697e-20
9.349828016e-20
8.841126056e-22
2.413513584e-21
1.987990249e-20
6.020145576e-20
4.555880202e-20
1.288502374e-19
7.871014539e-20
3.393958798e-19
1.107266736e-20
1.825317922e-19
8.086789193e-20
1.414188345e-19
1.888980972e-20
1.995882128e-19
1.245550601e-19
5.175688441e-20
6.698995491e-20
8.457721781e-20
2.504943575e-19
6.928474495e-21
3.28247687e-20
2.165589384e-20
8.405319723e-20
2.465266724e-19
5.036960956e-20
1.203913317e-19
1.908793969e-19
7.236788381e-20
1.628446834e-22
7.247685102e-20
1.27487189e-19
2.177216545e-20
3.835939025e-20
7.695624683e-21
1.010653062e-19
3.988969466e-19
7.960901761e-20
2.258691564e-19
1.345274618e-19
3.281721476e-20
2.348246208e-19
2.414994151e-19
4.482676142e-21
1.036012916e-20
3.112605794e-20
2.760121552e-20
1.912648401e-22
1.430190976e-21
3.368830246e-21
4.549462652e-19
9.852926089e-20
2.51561954e-20
1.830042389e-19
8.507211482e-21
7.189446396e-20
2.386039119e-20
1.594180368e-20
3.971767987e-20
2.570236828e-21
6.196624067e-20
9.68628806e-20
1.690937355e-19
1.997196764e-19
7.06099132e-20
1.519930257e-20
5.411338089e-20
1.296162068e-20
1.05867138e-19
2.775287735e-20
1.698120615e-19
3.43020017e-21
1.682303683e-19
5.520831416e-20
4.517623396e-20
6.541775163e-20
4.080591936e-20
6.305798258e-20
2.195866353e-20
1.610624712e-20
5.2620021e-20
4.285140774e-20
4.520638702e-20
3.059328557e-19
9.760841919e-20
9.052058766e-20
1.187826241e-19
5.111409167e-20
7.576197819e-20
1.05707366e-19
2.70917055e-20
3.558295717e-20
1.145884221e-19
1.286482728e-19
3.354173368e-19
8.209247934e-20
4.222019203e-19
6.974681644e-20
1.240864577e-20
7.032883505e-20
5.156470428e-20
1.474883279e-20
2.598697555e-20
3.168716039e-19
6.295118812e-20
1.242682633e-19
1.104023407e-19
7.619300176e-20
4.003622905e-19
1.473527971e-19
7.042330337e-20
6.280247063e-20
5.4429731e-20
8.432498833e-20
2.046081634e-19
7.641961256e-20
1.145226362e-19
5.432744114e-21
3.822835778e-20
4.020169695e-20
1.881775049e-20
3.661324476e-21
9.154113828e-20
5.403042676e-19
1.496187078e-20
4.205277663e-20
2.946077127e-19
2.561324787e-20
2.481581468e-20
1.090307881e-20
9.461300875e-20
2.688048796e-20
1.76491862e-20
1.419534528e-19
6.263043633e-21
9.988425805e-21
3.100123873e-20
5.40527052e-20
1.503982616e-19
6.828390331e-20
2.853369799e-20
5.644260185e-20
1.339700882e-20
9.746639173e-20
6.771024896e-20
1.929259283e-19
3.422254449e-20
1.568415953e-19
1.134914905e-19
3.845131013e-20
3.126876178e-20
3.545394881e-20
7.42848186e-21
1.177657212e-19
9.937332618e-20
1.929213124e-20
9.206070704e-20
2.60194066e-20
2.083415649e-20
2.840303778e-20
6.348896846e-20
1.822051081e-20
3.345764822e-20
5.852136747e-20
7.12066812e-20
5.558514057e-20
1.224820243e-19
3.817525797e-19
5.29367742e-20
4.396716167e-20
5.467817312e-20
2.828471938e-19
1.308392746e-19
4.157859746e-20
1.542631567e-19
2.886004755e-20
1.654042573e-20
3.804160296e-20
1.448072377e-19
3.712744524e-19
8.207677804e-20
5.690819918e-20
1.149618772e-20
3.614364624e-20
2.849895567e-19
4.187978296e-20
1.197757681e-19
4.210905444e-20
6.313381089e-20
7.383499512e-20
6.425184292e-20
2.394664667e-19
7.610139567e-21
7.290587289e-20
3.869656758e-20
2.359934582e-20
1.347724282e-20
1.296247309e-21
1.662765328e-19
4.784489941e-20
6.904576272e-20
1.148229288e-19
7.218693725e-20
1.015136498e-19
1.229916892e-19
8.579954125e-20
1.20998141e-20
3.886036126e-20
1.199408012e-20
1.05143777e-19
8.815842671e-22
6.1789874e-20
2.351591452e-19
5.622650957e-21
2.663310675e-19
4.76501695e-19
2.957624979e-19
9.683814235e-21
1.012607627e-19
6.941190556e-20
1.067508085e-20
2.847699833e-19
1.409878202e-19
8.029340416e-22
2.011846778e-19
1.13970426e-20
5.526605796e-20
4.967506029e-21
5.580338169e-20
2.972907749e-20
1.447878646e-19
3.852592876e-19
4.768588655e-19
1.821248989e-19
3.987685096e-20
5.09931377e-19
4.699905555e-20
5.860217533e-20
1.23881853e-19
1.116463805e-20
1.127980706e-20
2.738768116e-20
5.116304495e-20
2.217962116e-19
1.143863592e-19
1.001514245e-19
1.008289627e-20
2.920918143e-20
8.837793336e-20
2.319204888e-19
1.224622835e-19
7.781208197e-20
2.609110124e-19
2.503627627e-19
2.671109605e-19
9.69381327e-20
7.409893806e-20
4.232435232e-20
1.25505118e-19
1.029082177e-19
1.260856017e-19
9.493233708e-21
1.931104279e-19
4.471926429e-20
1.03822647e-20
3.48636017e-20
4.804737107e-20
2.354780088e-20
2.018293854e-19
4.872358286e-20
2.893891394e-20
5.773593938e-20
9.778246883e-20
1.188655149e-19
2.034159705e-19
5.696552174e-20
2.43198386e-19
7.549884508e-20
2.820491473e-20
1.204036683e-20
6.95024118e-20
6.50275686e-20
5.581019796e-20
3.865413782e-20
8.956521557e-20
3.743515493e-19
5.631774466e-20
6.295811629e-20
1.148386568e-19
4.106298227e-20
1.755884011e-20
6.426662249e-20
1.507992766e-19
3.054885847e-21
2.716244963e-19
3.879504702e-21
7.408768942e-20
3.40562643e-19
8.946888721e-20
3.427885909e-20
9.2822421e-20
1.021537595e-19
1.645198409e-19
9.463510743e-21
1.077065241e-19
4.825456162e-22
2.366695147e-19
8.409782039e-20
1.955882989e-22
2.450304972e-20
4.45317651e-20
7.857200519e-20
6.748319793e-22
4.566325145e-20
1.774545533e-20
1.785168795e-20
5.015989567e-20
2.366647666e-19
2.017495717e-19
3.595923949e-20
6.099558958e-20
5.624283602e-20
1.288312133e-20
2.888742546e-20
2.465704833e-19
1.433713344e-19
2.805998873e-20
3.348655107e-21
4.056326262e-20
1.019394837e-19
2.04670283e-19
2.121026926e-19
9.421037418e-20
7.080969542e-20
9.479150957e-20
2.114264397e-20
1.332537969e-19
2.435263563e-21
5.136905014e-21
2.171182792e-19
3.157647765e-20
4.826871424e-20
2.685212283e-20
5.289569485e-20
2.75061284e-19
4.232316943e-20
2.286933489e-19
5.482609448e-20
1.21933296e-19
1.613412356e-21
1.880398444e-19
8.196098196e-20
4.768665999e-20
8.944267752e-21
8.352843384e-20
2.662483413e-20
2.213697861e-20
5.265019974e-20
6.057569068e-20
3.514566875e-20
3.950342689e-20
9.383099832e-20
7.277627051e-20
9.880431909e-20
2.753393301e-20
1.236708805e-19
2.496540047e-20
1.406643145e-19
1.935830593e-20
4.593073097e-20
6.361804816e-20
1.709509475e-19
4.368662703e-20
1.265180103e-19
1.032423019e-19
4.488137478e-20
4.29244938e-20
2.285186003e-22
3.121791186e-19
1.123644966e-21
4.173262867e-19
5.056853249e-19
1.379011101e-19
3.018650542e-19
2.64281595e-20
3.817885836e-20
1.850822643e-19
4.910519851e-20
2.048685628e-19
2.891035446e-21
8.826455355e-20
1.973873835e-20
8.800742115e-20
8.975861739e-20
1.088212198e-19
2.495186974e-20
1.673713343e-19
1.60161958e-19
1.406336596e-19
7.71376172e-21
9.786838278e-20
1.159512147e-19
5.376739611e-20
9.94378336e-20
5.354249512e-20
7.965371873e-20
1.805147562e-20
6.72359202e-20
2.908861047e-19
7.956135069e-21
1.889458006e-19
6.405758348e-20
3.128278991e-20
3.065353726e-19
8.826545695e-21
1.403511196e-20
2.053751471e-20
8.381510119e-20
1.023352882e-20
3.880150754e-20
2.191268004e-20
1.053378743e-19
1.717867006e-19
6.966728479e-20
8.495533912e-20
1.61316098e-19
1.065425209e-19
1.337399218e-19
7.3536531e-20
6.421600918e-19
1.01664185e-19
5.273778398e-20
1.115029865e-19
4.352952097e-20
1.340778206e-19
1.594222e-19
6.31440078e-20
1.269689903e-19
2.887906968e-21
6.317314147e-20
7.184912725e-19
6.842647517e-20
5.073871844e-21
6.024398495e-20
7.128166962e-20
7.885417118e-20
1.239705146e-19
6.668310924e-20
8.725454093e-20
4.212697742e-20
3.288384429e-20
9.926296932e-20
1.137066401e-19
5.841807017e-20
6.003837319e-20
6.788713834e-20
9.325228734e-20
1.880091502e-19
2.060386878e-20
4.28161651e-20
1.11247092e-19
1.170981985e-19
3.595263539e-20
4.174744829e-20
1.114623121e-20
8.645278838e-20
9.078757887e-20
4.928342119e-20
1.651291747e-19
6.888503524e-20
1.486822389e-20
2.220498372e-19
1.986296695e-21
8.678265509e-20
1.075737471e-20
2.092490273e-19
2.678048253e-20
4.353812338e-20
1.530988088e-20
9.344827487e-20
9.502336585e-20
1.123203467e-19
4.140874261e-20
1.033338035e-20
5.299080232e-19
2.058718662e-19
3.973024211e-19
8.733001285e-20
1.496831239e-20
4.041488696e-20
4.893759907e-20
1.275919984e-20
5.648401707e-20
1.247375067e-19
4.400697562e-20
1.256157855e-20
5.029848237e-20
1.902841423e-19
3.077655063e-19
1.420048963e-19
1.021218691e-20
2.325707811e-19
9.015554353e-20
4.853708869e-20
3.549213462e-20
3.410498761e-20
2.529971974e-20
2.666626673e-20
2.45482077e-20
4.823588704e-20
2.756853117e-19
6.636539632e-20
1.067262631e-19
6.023792467e-20
1.322120478e-20
1.940094102e-21
4.666468804e-21
1.204860764e-19
2.305741668e-19
3.663396672e-20
1.458777444e-19
3.12218126e-21
3.750301952e-20
6.435171461e-20
2.450333866e-20
3.855086478e-19
8.054692034e-20
1.872906265e-20
1.674471931e-20
1.898744001e-19
4.644991502e-19
4.591155585e-22
6.193590299e-22
6.073848987e-20
6.272553649e-20
4.140425627e-20
4.696932721e-20
8.950302398e-20
7.320190103e-20
5.557791143e-20
9.769052376e-20
5.345411567e-20
1.119218425e-19
6.897317817e-20
5.050755828e-20
9.41289131e-20
4.876927022e-20
1.384963809e-21
9.668974934e-20
2.643360269e-19
3.712583471e-20
1.617769544e-19
6.667608493e-20
2.210554196e-21
3.975259654e-19
8.647372939e-20
2.588542071e-20
2.09662146e-20
1.678370898e-19
1.214458817e-19
1.764103331e-19
1.849668194e-19
2.016915711e-19
9.891234381e-20
8.303478844e-20
1.33995499e-19
1.887889692e-20
3.583238723e-19
1.696802515e-19
1.272097585e-19
2.739580756e-19
4.909242352e-21
5.695392718e-20
1.945771875e-20
1.597905229e-20
3.302200577e-20
2.193650651e-19
1.100703108e-19
2.062888725e-20
1.008902006e-19
1.404933867e-19
1.693179541e-19
7.874726638e-20
1.642289101e-19
2.39563523e-20
2.723385736e-19
2.688723447e-20
7.609729134e-20
2.575548019e-19
1.627567313e-19
2.569861392e-20
5.691889874e-20
1.000995991e-19
6.971723449e-20
7.938804181e-20
1.847707918e-19
2.040192999e-20
3.499712161e-20
2.200756192e-19
1.383826473e-20
3.406194201e-21
1.024848062e-19
1.243006133e-19
2.005920187e-19
6.228693472e-20
8.471004393e-20
1.126512207e-19
1.246547146e-20
3.567326364e-20
3.766439357e-20
9.468167815e-20
4.464055123e-21
5.395979065e-20
7.181848212e-20
3.739936253e-19
5.66210458e-21
6.536034463e-20
1.884110874e-19
1.138017457e-20
1.266973725e-19
1.659891285e-20
5.373630283e-20
6.762987624e-20
3.912978418e-20
1.772324276e-19
1.975937814e-21
1.746369537e-20
1.495930088e-19
5.531204219e-20
8.869939735e-20
1.270825191e-19
3.833020648e-20
2.754894427e-19
4.148633855e-19
6.955914632e-21
8.758990463e-20
3.704051562e-20
2.195457539e-19
5.49118955e-20
1.006458e-19
4.807727813e-20
6.167177092e-20
6.74818291e-20
1.275920482e-20
1.739720432e-19
6.778491481e-21
7.854433225e-20
6.096339511e-21
5.617491177e-19
3.018275085e-19
7.428792658e-20
2.124479377e-19
1.358728448e-19
3.225012695e-20
1.72196238e-19
7.863159652e-20
2.173494137e-19
4.847700607e-20
3.300620171e-20
2.459749342e-20
1.989217412e-19
2.413385433e-20
6.502921212e-21
2.406246482e-19
2.798136706e-19
1.41063142e-19
1.010755753e-19
8.889149392e-21
1.831553648e-21
3.69869407e-20
5.39186433e-20
6.483565256e-20
4.891169381e-20
9.491925662e-20
4.020661869e-20
2.497390782e-19
8.068815535e-20
1.530942209e-19
2.394717486e-20
3.372377914e-20
8.127079997e-20
2.036058437e-19
1.479347664e-19
1.424944006e-19
1.039415331e-20
1.289032069e-19
1.751582125e-21
5.954592168e-20
3.999424271e-20
1.592944069e-19
9.910213004e-20
7.085341621e-20
7.453209719e-20
6.597511805e-20
4.625296799e-21
3.054965047e-19
1.876435105e-19
5.384733502e-20
2.665734089e-19
1.135844904e-19
1.520196215e-21
5.9867637e-20
6.904778722e-20
2.811309789e-20
4.450799014e-21
1.055537125e-19
4.694374562e-20
2.741264481e-20
8.772277293e-20
2.722180887e-19
5.91830972e-20
9.747149806e-20
3.747899292e-20
8.811702578e-20
2.895336246e-21
2.050610375e-20
8.987579294e-20
9.30245326e-20
1.628833452e-20
5.44216405e-21
1.49719316e-20
6.83573376e-21
5.855233773e-20
1.374540833e-20
9.497728587e-20
1.454975467e-19
9.08783974e-21
6.490967552e-20
3.872913725e-20
4.498172606e-20
2.083625794e-21
1.380261669e-19
8.728519063e-20
1.106942469e-19
1.672613894e-19
2.501257574e-19
2.662629786e-19
1.161220598e-20
6.663843246e-20
4.444852666e-21
9.730921188e-20
1.338901478e-19
7.927851366e-20
2.858966318e-19
1.984754502e-19
2.874131117e-19
1.917624783e-19
7.997568213e-20
3.906512177e-20
1.874618308e-19
6.643960362e-20
2.427375265e-19
5.643369586e-20
4.098328085e-20
3.45743623e-21
4.214296554e-20
8.935254015e-20
3.792248719e-20
7.431186484e-22
3.237972358e-20
5.517843949e-20
4.122960246e-20
1.290908007e-20
3.20544867e-19
5.392648549e-21
3.327575379e-21
2.846197848e-21
3.577545297e-20
1.646981504e-20
9.492965472e-20
7.274915263e-20
7.161382576e-21
2.767705658e-19
3.576206917e-20
1.342819793e-19
6.052021457e-20
8.772631171e-20
5.504711423e-21
1.329731598e-20
1.038124982e-19
1.36442485e-19
6.867500556e-20
3.857093285e-20
5.382341448e-20
7.122141154e-21
8.839307984e-20
1.083392852e-19
3.023975357e-19
8.628201436e-20
2.997097105e-19
2.137270458e-19
1.041911885e-19
5.203227049e-20
9.201855817e-21
5.317638278e-20
1.379286252e-19
1.492647736e-19
1.210006601e-19
7.335616038e-20
6.887310314e-20
2.5603269e-20
1.791105637e-19
1.967634528e-20
3.530310634e-20
1.390767717e-19
8.47254277e-22
2.561432045e-20
1.931000706e-19
1.217051731e-19
5.975919136e-20
2.914591711e-20
1.658588972e-19
6.598314904e-20
3.567653579e-20
6.225990909e-22
1.111262374e-19
1.029557777e-19
7.273560846e-20
3.017776053e-20
2.729874625e-19
9.949876015e-20
2.93545947e-19
3.357285124e-19
5.053298011e-20
4.405724655e-20
3.059318225e-20
1.01479935e-19
8.456881433e-20
4.777323621e-20
3.421231355e-20
7.683413288e-20
1.606286571e-19
2.118842856e-20
1.277656116e-19
4.036257001e-21
4.811770332e-20
2.210337593e-20
5.166108061e-20
1.535416741e-19
1.276639401e-19
8.752767514e-20
1.166338793e-21
7.562761806e-20
2.463121224e-19
1.251318044e-19
1.862878623e-19
4.189329017e-19
2.94549263e-21
1.270448085e-19
5.695687359e-20
9.77062127e-20
1.854597828e-20
4.652569736e-20
5.256879952e-20
2.843888563e-19
6.300463918e-20
1.246903543e-19
2.819072053e-20
4.290029291e-20
1.082543117e-19
1.604973004e-19
9.993356688e-20
7.536503367e-21
3.586166148e-20
1.232518633e-19
6.943864373e-20
3.055718488e-20
4.243225806e-20
6.074874988e-20
2.188982546e-19
1.455184149e-19
7.734602892e-20
4.968205762e-20
6.59669616e-20
4.186402957e-20
1.271846355e-19
9.490967017e-21
1.503436755e-19
1.573402328e-19
7.14618341e-21
9.955359027e-20
8.33895318e-21
3.582599511e-21
1.978532195e-21
1.777540909e-20
3.07116731e-20
7.498650414e-20
2.621722821e-19
1.756466375e-19
4.201045849e-20
3.256786555e-19
5.135408577e-20
3.021405026e-20
3.129562513e-20
5.294398503e-20
3.260210296e-20
5.810902013e-20
1.466920369e-19
9.597060747e-20
1.490590171e-19
4.480047072e-20
8.916058037e-20
1.314041303e-20
1.046643662e-19
4.358046012e-20
4.016903549e-21
4.922436772e-20
3.597808581e-20
1.765939389e-19
4.417364249e-20
9.337950056e-20
7.455905791e-20
2.925047625e-20
1.951705636e-19
3.037154046e-20
1.042584269e-19
2.741362139e-19
3.08156055e-19
4.575720768e-20
1.482804409e-19