/*--------------------------------*- C++ -*----------------------------------*\
| =========                 |                                                 |
| \\      /  F ield         | OpenFOAM: The Open Source CFD Toolbox           |
|  \\    /   O peration     | Version:  v1706                                 |
|   \\  /    A nd           | Web:      www.OpenFOAM.com                      |
|    \\/     M anipulation  |                                                 |
\*---------------------------------------------------------------------------*/
FoamFile
{
    version     2.0;
    format      ascii;
    class       vectorField;
    location    "5e-05/lagrangian/dsmc";
    object      U;
}
// * * * * * * * * * * * * * * * * * * * * * * * * * * * * * * * * * * * * * //


99998
(
(897.2419127 1845.469159 1077.969274)
(-492.4594988 -2109.994771 -3309.480334)
(1046.249889 1944.116528 576.2151966)
(-551.1169335 -1204.161211 -713.5144669)
(194.7270706 1486.714571 2154.342993)
(1214.291572 -1438.083785 610.3576423)
(-504.5684561 2619.591382 -332.7773329)
(1713.169044 -2077.263728 -1775.88807)
(2882.022418 1644.775939 -1310.604081)
(2328.763908 229.8479315 2461.635947)
(-237.9960237 -1156.813241 514.4229491)
(1624.299185 866.7533417 -2300.573334)
(2105.503979 -957.1426654 1999.222752)
(-248.0090993 599.5032909 -34.37202098)
(57.28900064 1031.700734 -1008.062422)
(171.3772766 1706.673252 4020.490177)
(-2185.335173 -306.288087 -466.4134797)
(-328.8133877 -40.87234985 -2528.672694)
(-557.5990068 -954.3267003 1120.848702)
(1592.853952 350.3564591 979.0740498)
(-15.00480203 -2613.491875 930.9123098)
(205.2519674 -61.23172935 -475.8799902)
(-1756.66856 1195.854147 1041.547151)
(-238.7480219 911.8127039 1030.604826)
(2092.456224 1565.673949 -750.1560464)
(-219.1647569 2783.337122 -867.574444)
(396.8876415 665.7128551 -543.6708391)
(-237.8546994 2225.43406 -2233.13147)
(703.8586966 -81.33492916 15.58090167)
(2507.374233 -2064.382732 -487.4235937)
(-560.3426194 1843.788695 -1400.595469)
(-1221.599201 -1074.557651 -174.5316959)
(236.0196842 388.1081236 -817.0805581)
(-685.4030971 1492.142477 339.34738)
(-1508.499703 -471.9200584 -695.8136357)
(2139.384315 -1370.292183 1409.707714)
(363.4147329 1972.758407 2735.653437)
(-28.35995393 1050.117408 690.0699765)
(-3674.122853 -952.4628402 -975.8641239)
(1241.546906 267.1632902 -116.7636193)
(573.0216916 -299.7415003 -2866.681012)
(1743.563984 1882.099351 442.9547115)
(113.4280805 -67.47878912 -2743.10878)
(-785.150222 141.4821148 24.56909023)
(-78.21605999 669.3303652 1228.195919)
(1789.922394 -997.8434017 2804.64208)
(1314.182448 725.1245579 106.6471194)
(-761.1756264 882.6930671 -449.2064382)
(314.2334989 -1825.548523 874.0463501)
(-1639.200237 2746.654401 -269.5205555)
(-890.9918133 -2479.723169 805.1648689)
(2060.448026 3313.095506 596.1167238)
(3864.104364 -1255.429634 -1918.489028)
(1664.653977 -578.4680773 -2739.142905)
(329.4577322 825.6308419 -1506.519776)
(1536.621586 2954.990804 211.7477247)
(979.2840835 -823.8070748 2610.183273)
(-1801.03827 -2195.101581 337.7912222)
(949.1082686 -1648.227063 -542.0411953)
(-799.6743051 1441.111912 177.8265355)
(454.1272534 1333.048885 -1476.048847)
(-177.6501223 -403.4453277 -132.8488205)
(1441.697834 490.7810009 -2210.953022)
(-1298.270986 1403.303875 -1077.793491)
(-134.6966065 1536.350526 -1297.891733)
(-405.939211 -1516.357549 -1091.243)
(3362.370288 785.4545981 335.8880614)
(2287.114029 4736.267432 -2250.38933)
(-494.2980257 -567.7284299 -949.4803578)
(2528.573534 330.5772034 1079.789921)
(-1747.783424 174.7461143 -1423.853729)
(1054.591115 -815.2816417 383.1999228)
(-499.1118108 1045.348566 -376.9327185)
(-697.1051393 -770.1185944 1332.786227)
(1390.641286 -1569.430566 2503.728601)
(-251.1487552 -941.8936646 925.202422)
(228.2974701 -1195.24842 1878.862044)
(1222.044296 -300.7703596 -1329.248774)
(499.3391784 121.1236303 3526.271946)
(49.95591748 1225.466892 -393.1733457)
(-779.9914774 -2545.853881 1443.597763)
(341.2843123 1067.085611 -847.093931)
(-2681.211233 -716.6508001 -2228.759927)
(1195.970997 -275.9312838 734.4315563)
(-2576.236357 -161.8418362 -124.2140771)
(-1174.870337 -1418.265162 946.439157)
(-564.8571712 994.0996642 -4350.837434)
(-16.46360236 700.7595118 2237.835045)
(-2634.609363 1868.526011 -993.2339458)
(81.75696003 -998.5414398 -1912.819171)
(-881.9453098 -1847.310901 -424.5833632)
(1242.324503 -154.2640744 -1933.952708)
(1897.208639 206.0106987 -902.638115)
(-551.730092 -1292.173438 1341.272893)
(-1468.596573 -93.31904908 794.0613116)
(-748.0056931 654.0618772 -1753.354724)
(386.640969 416.2390329 1058.131416)
(-889.4126821 863.3004092 -1299.762616)
(-923.3477549 3677.251861 1080.122662)
(1251.830372 3175.34629 -13.78404402)
(2089.074173 -1080.739111 3200.013776)
(-39.84053409 163.5704486 -1085.708428)
(731.6036445 502.7694915 -1173.737748)
(1502.949032 -33.86581038 -140.6036388)
(-6.945169821 1306.294058 1114.648467)
(214.7364545 -1260.238746 -1139.659736)
(-1109.082705 1263.891484 -214.6092153)
(1161.487789 -713.6645128 -2845.844679)
(911.7819834 373.9811194 -1060.402457)
(-121.9757509 -1471.620132 1143.422377)
(-2084.505807 2412.116203 -1564.466069)
(-159.6623478 -2649.860008 85.60883053)
(-255.973225 -143.657486 2372.444541)
(521.1848564 -1639.80776 3832.30996)
(-58.53907933 -852.8332924 -638.7204482)
(786.6671957 209.6338768 35.53441048)
(1724.194094 -467.9970972 195.9870428)
(1729.028651 2872.775491 67.14044325)
(3255.026502 -222.2876 293.1826477)
(-206.8189776 -921.4695697 178.2946484)
(-418.5173374 -648.7286793 -1388.897351)
(-127.5264043 -1228.330121 1556.008302)
(1114.430365 362.8102245 483.3811749)
(-1073.573263 -1112.377979 -512.9265156)
(48.00415816 -1485.651025 1504.502831)
(-354.3283662 2104.464966 2276.527352)
(49.48816483 -1292.694424 1186.971966)
(218.4642123 2265.590301 -526.4294105)
(-929.4000459 -873.7532451 -1020.395401)
(1679.917122 -1257.949427 1229.27041)
(2152.343413 -440.3120162 47.23647208)
(-2499.225624 3747.719497 -3834.330844)
(-689.425392 -1627.443352 -164.4885551)
(3462.931704 26.44348654 -1107.677339)
(1079.332259 835.5752357 -691.0737391)
(1617.399806 -4373.527022 -3139.773644)
(-1285.977399 -3383.681062 -691.6033866)
(-435.4723563 -614.5821452 -4457.381061)
(1388.176558 1371.082344 -214.6000338)
(-1267.53635 -2326.278042 2429.216363)
(-947.2467569 1344.278878 -1210.150037)
(-89.0009343 -2484.115347 633.4348613)
(1446.339927 2259.547127 955.5928435)
(-688.3745781 1239.297364 -542.6182961)
(531.8527584 664.3278178 -2121.737899)
(1866.672178 -3383.819933 727.2313935)
(-2453.558162 1647.706714 -1735.115074)
(-12.02427399 677.7463112 892.9962898)
(573.9633564 -1290.385243 -2152.06982)
(1847.400226 -439.7337072 -1396.934151)
(491.1802204 -1129.472232 -603.1595313)
(266.0519536 -3765.666889 -532.1916174)
(363.1206167 -468.5179412 699.740625)
(2854.389053 -2537.285624 16.48453624)
(-2538.190556 494.1098166 -1801.689984)
(1994.917475 -1129.98516 1519.709654)
(-329.8148789 -727.647099 -345.4069636)
(-398.8293545 -1986.77009 1219.503554)
(-1497.764325 1377.715374 -385.3273902)
(123.8797268 -1518.847906 1294.582123)
(-577.2079372 352.3881407 -2894.356051)
(-2081.825523 -66.48421729 342.0084301)
(-1369.8695 34.3938422 -1629.354407)
(629.990441 628.2809726 -165.6596746)
(114.023835 -1522.169512 1189.040197)
(248.3429832 788.6636129 615.489128)
(-338.1116739 -760.4271874 3387.38159)
(1282.84346 -356.9373292 124.294466)
(694.3570657 -3306.613386 1504.336434)
(-628.8738306 -516.3240586 1041.096395)
(2171.284514 -2277.92602 -1530.570441)
(-1121.078711 288.0177417 1247.12496)
(1679.004191 1594.728567 -94.38620883)
(-830.6802154 -2297.5577 -161.2269514)
(1389.80899 -1725.33674 -251.7388139)
(-658.7017136 -1627.135429 1272.531384)
(2313.060523 -1779.261096 -3173.558715)
(-2612.553771 -358.4664359 939.1966282)
(1721.840216 -539.3587161 1167.62364)
(243.5419811 -763.1219668 -1772.1558)
(797.3221194 1076.917302 2072.774446)
(1872.741379 1715.443322 -1690.657451)
(-1348.442668 623.6187003 289.3969022)
(26.33006126 879.951277 278.1261442)
(1185.129901 77.00366414 -89.0176096)
(-962.9754388 -1302.662638 -563.8406948)
(-464.6633504 -2342.754106 1686.407844)
(-1060.931443 -2114.707868 -884.2392881)
(-689.6994344 -397.9279916 644.1896253)
(-1841.034475 473.9592753 1520.082107)
(-1073.599153 1820.346316 -1736.435602)
(329.2438217 852.4289136 -1854.113695)
(-224.4205167 -831.883857 -2472.900773)
(1695.559461 186.7518557 -41.50535426)
(2369.740054 -1754.436325 -1205.237148)
(-77.7117635 -847.4991281 -73.54957939)
(-664.1350332 -1011.736636 -689.0341218)
(-523.647736 -1922.060897 1256.024422)
(-1057.29069 49.52989675 -2556.979306)
(-1567.914641 -834.4551353 1828.097934)
(1345.789279 -432.908042 -147.4843692)
(-1396.088582 2285.177601 266.9201392)
(-1701.545438 -1410.650934 1540.978829)
(-343.8838309 668.9634999 1440.410375)
(-35.55447584 4549.631452 -385.1106204)
(2286.002277 -882.0491904 593.2674205)
(-269.3128791 -516.4646729 -38.02412635)
(-1202.326753 -220.1362118 841.6266768)
(384.5241289 388.7341533 -548.6051683)
(-654.4625582 1649.694709 925.637105)
(-1788.176325 67.70378591 -2206.804952)
(1972.257184 -1906.365683 -1316.571882)
(1073.956453 1567.07243 -2031.4703)
(1098.870602 577.018846 512.746509)
(-849.5456862 -101.8861848 -26.37719932)
(-870.3322707 1062.563982 820.0339727)
(870.5094351 -1905.048792 362.5976985)
(-2683.918638 -500.2375249 -843.1773821)
(-556.7331463 -980.8805088 -745.6314813)
(2639.997893 -743.8643744 -1025.760222)
(117.9211155 -654.9039914 484.5228802)
(-861.4805134 -1906.647222 267.0301447)
(973.5989638 -417.0022999 537.7942299)
(122.0081154 -688.4190332 351.7569998)
(-1858.655962 -1355.949809 448.9086486)
(-39.18037809 -429.0032185 -84.08642475)
(1537.075311 718.4687283 -1140.587272)
(-1373.839828 2884.494124 -692.3705549)
(1721.40023 203.6168874 -314.4438885)
(368.3702346 -1649.917174 178.7903833)
(1679.034279 -253.3105186 -2144.554763)
(393.7438785 -101.8377819 -663.2011269)
(25.82535377 -2424.009045 -329.8918201)
(-544.9938053 -2406.584889 -2158.495162)
(351.6705921 -2139.812105 1461.139785)
(-496.8106615 -2155.672345 1582.495168)
(203.1753494 1375.670619 121.092151)
(2349.692423 -531.1938323 -1800.303739)
(179.0851493 -306.0988772 -604.5290576)
(-2382.775589 1721.244113 -1286.425225)
(1384.95664 1032.531791 -824.0170585)
(-1918.577091 30.0909444 -875.29622)
(-429.1875248 1175.745317 -2367.735721)
(632.6013907 -1438.557708 -191.8420445)
(1581.765702 2023.098894 2100.567983)
(326.8932375 -2844.089103 -704.8649861)
(-326.1758398 -617.354389 -2094.961741)
(-21.90390083 -144.6871124 -1296.19317)
(-1997.050863 -1097.094794 2622.374154)
(1940.061847 -1659.07664 1452.583551)
(-1762.194898 331.7924764 -144.9096875)
(-2680.037626 -1337.95158 940.8223736)
(-766.7872484 -879.8125601 422.6392774)
(-797.8958415 2692.691597 2302.107573)
(2119.998644 160.7913761 572.6941788)
(-116.8863682 1270.194272 -372.4242831)
(-302.8361203 -491.7497548 1763.412245)
(-722.585066 -719.5032361 1380.605063)
(862.0128571 1426.448625 -2135.986718)
(-357.9145149 1132.775604 -811.8220795)
(-408.4074351 1384.780726 -2055.237345)
(1847.108822 606.3695936 3140.443512)
(2582.542042 2004.029422 -331.8776812)
(514.9720497 1202.414471 -200.695996)
(-269.4343381 211.0142064 -753.4419096)
(5074.143415 1985.32582 -1669.223014)
(681.6078311 946.4164172 295.5953884)
(-875.9070581 -1168.934201 -973.9903195)
(-1200.752498 3083.479754 -194.1326899)
(-2845.705958 2024.796744 717.7497425)
(2657.821267 -811.1143515 3359.988334)
(-301.804964 440.6799134 1953.403751)
(-1571.586399 2485.503697 2987.172648)
(-615.9457272 2667.782006 -690.4202917)
(720.6490499 295.6599467 -334.0497619)
(3287.827181 659.5063097 -163.570701)
(140.9834653 -969.3670346 -415.6348957)
(3471.581189 -1159.970243 1763.096726)
(2237.393814 -669.8773734 -99.17133722)
(74.16822492 -363.7880741 -2521.891885)
(-300.4020394 2919.135674 58.4115137)
(482.4651748 -720.8850938 -2002.980295)
(-855.3509597 300.467737 -1673.082044)
(-3.052020888 819.4543715 870.2180876)
(1110.186285 -1162.522481 -549.4805587)
(-1458.957348 -35.07704928 -22.65716423)
(869.9989117 -354.6929211 638.1150973)
(-586.3496471 -626.5379867 1290.673748)
(703.7900827 245.0531478 -2269.169822)
(-422.8267869 -2648.201816 -534.8086578)
(19.18219686 1190.613795 -850.9748399)
(-178.3042683 1779.080715 888.9715891)
(879.0388983 -182.0501398 -2656.110232)
(1956.778197 500.8190163 -735.9182579)
(2022.718095 2201.082419 -1451.309188)
(2214.099592 337.9831187 -538.5574521)
(-966.635849 -995.020043 807.3583792)
(1513.457383 545.2037806 1290.997534)
(-2188.30826 1248.71905 811.906791)
(-1674.094142 -98.63450926 1615.855197)
(-2438.20588 -1500.102354 312.5570455)
(18.78059462 -267.4024284 85.50386034)
(100.8940629 1532.33326 430.9994155)
(1425.231627 79.25233799 -2653.260018)
(-3289.068967 56.62320626 297.1390481)
(-1204.767516 1883.209199 2058.270978)
(1488.23917 226.4125033 -1571.985046)
(1221.652316 765.7968387 165.4574997)
(-1756.232203 -788.0032608 -547.6547643)
(550.4492041 -132.6710417 2107.493351)
(419.8471231 1098.353835 -963.7578545)
(1279.617978 -2472.195365 -1855.891255)
(1420.093758 3165.359839 -824.9592807)
(2240.495081 -1764.063314 58.54772261)
(-1893.230331 643.7427957 -21.17464835)
(-95.8003728 2392.232844 262.6875355)
(237.766212 676.1869062 2153.387416)
(-804.7285511 -1933.096825 -181.0757486)
(-1954.731445 -518.843106 729.1047292)
(664.7530911 152.7354345 2229.266481)
(-42.74353872 -271.9076115 -940.4241503)
(1483.07903 336.9864456 -883.7499455)
(1345.609606 1876.879202 1706.168208)
(1677.342316 -146.1214683 983.3242754)
(-2351.775242 685.7915668 -315.0754051)
(1363.402976 -1379.077276 3465.615896)
(405.1208665 -468.9146099 1449.389212)
(855.6191143 -12.73196228 1118.030434)
(1548.924362 1775.065809 1114.115976)
(-1389.420048 1647.400143 -244.9238328)
(-339.2490778 346.0705344 158.3384038)
(691.9704726 -2437.52642 -674.2900135)
(1172.486973 63.28730157 2875.157415)
(-782.3428322 -497.572571 -2427.546512)
(573.6925052 816.9109435 780.4569338)
(2526.375514 -25.97103095 150.3776946)
(-84.84468715 865.4236642 1178.155738)
(379.2803335 -255.4743952 -942.0445358)
(-591.7636154 167.3001425 1727.34479)
(-1135.728068 -2213.439727 -945.3517639)
(-1307.479855 752.5909324 -3776.751013)
(1509.051885 627.3897657 -720.6737862)
(-196.7113199 286.0496748 -443.1665239)
(1480.552971 400.3546648 -1526.483829)
(-410.6360205 -310.5319049 -3955.262462)
(-1200.155216 1084.6832 -128.9819244)
(-1274.763381 -1926.75086 -1388.286539)
(-772.6747847 -349.7925176 180.9668037)
(-109.8943031 -544.0415032 -647.651827)
(484.5880607 876.9827729 487.1777555)
(905.1636824 1934.627979 1523.255171)
(-1704.773444 -202.5436774 1047.175663)
(1452.821883 1457.085759 -1764.071729)
(-1135.471342 2110.09231 -746.191045)
(1042.108294 -372.6359272 1626.711483)
(-387.6380259 1170.540497 236.6072298)
(1493.101603 -194.4354159 -1896.841071)
(-2310.313168 -641.9913521 -646.8079848)
(-1419.502816 678.41924 -1256.131706)
(34.38066841 -562.2694245 -2276.171799)
(2454.249369 1515.149638 -701.5674032)
(972.8265093 1247.376614 34.88666245)
(1464.526038 -1144.317229 -1425.612659)
(1355.971863 666.621496 55.52686136)
(2242.583853 13.99424671 204.5530228)
(2407.018531 -154.5610491 4070.106899)
(-1673.194058 -33.74166116 2888.687376)
(-1776.644712 300.1514077 287.0056118)
(247.2976893 -165.0239721 -367.6189716)
(426.3350406 250.9855116 -613.8684935)
(-762.8269172 -1169.345531 -1154.087076)
(416.9328878 3301.899034 -923.7030029)
(22.9529137 -1278.967491 1483.675147)
(860.3252098 -1884.449802 -2529.900467)
(599.1947451 73.79021853 2378.740028)
(1625.69866 750.109885 938.4741079)
(-272.7328912 2231.233346 -2802.143857)
(891.212264 -1377.548289 255.2527545)
(-42.48797189 -633.0917358 720.193461)
(-1398.554789 -1185.475302 2859.564931)
(1155.824767 -880.3698811 -3109.740307)
(138.0277844 1008.548149 -372.4078912)
(3060.319597 726.8290804 -601.4143983)
(-800.1084409 -1636.878318 -818.3834881)
(519.2480902 345.5883604 -1573.938189)
(291.2103817 1802.818082 -1155.887971)
(3081.819929 -266.5125294 -2603.057799)
(370.5015311 2731.399679 974.5810738)
(-2490.342567 -2097.508677 -699.1126549)
(2990.955945 1176.629721 -2010.510331)
(-1260.005485 1246.903507 303.3003152)
(-3365.474594 826.297218 -1659.937335)
(448.42141 -34.77606803 2507.698751)
(-1743.710893 537.2707022 -322.6796719)
(1351.290392 -1213.736201 1961.498284)
(-1767.921231 193.4338854 2158.553712)
(293.6412817 774.5446524 306.0275818)
(1441.208797 1354.568282 1896.409284)
(228.1785592 553.507401 2242.172714)
(378.3074842 523.9474921 436.9199401)
(2265.285134 -205.6845148 355.6961249)
(1322.275675 -1670.563847 283.7002647)
(2105.518755 -1825.144553 2105.823316)
(476.9938819 -765.1398159 524.7578312)
(-685.6063741 883.3976187 -1117.254912)
(876.7303592 2746.023878 -683.3358602)
(-447.4582529 -2224.491984 -219.5513174)
(-1380.720404 567.8829488 -2661.496942)
(-734.6577772 1807.810822 1919.241743)
(-137.8488935 304.1743101 1155.538242)
(-1254.180506 -1974.608924 447.3373116)
(2126.092368 2245.787522 621.2260593)
(1657.558717 819.0656066 530.8448327)
(-3342.06668 -1490.580335 1322.885741)
(908.3024413 773.0331214 -1248.490152)
(1689.251435 738.9050243 1177.384484)
(-392.8297555 -1776.848892 -1547.891876)
(-1149.546915 -36.08479658 -729.7059777)
(1275.225123 -136.8054817 -890.4755037)
(612.0039836 -1416.463861 304.0631813)
(-1793.528407 239.6213215 -557.7109129)
(-1375.720422 114.0558442 83.48115461)
(575.4400554 837.1358394 -1617.5701)
(-892.327436 211.2095346 234.1225513)
(1254.357583 -62.43822208 3513.253181)
(152.8975997 1261.420927 968.0718781)
(599.4507672 442.7809979 -926.7594118)
(-593.8565239 1037.495254 -1075.562763)
(-1239.317217 -820.7621173 -2074.259721)
(-1785.919599 -2772.638006 1570.53168)
(2308.737003 -2640.531489 -295.55047)
(565.4834865 2600.930701 -1535.434187)
(718.6864489 -141.4938595 604.2985277)
(-704.6689007 1849.111889 667.6277308)
(950.6661004 162.3249675 -390.3688761)
(-199.3062124 741.6459939 -2442.609169)
(-267.1437328 -662.4554161 2852.048907)
(-374.8478972 610.7602063 -2431.559573)
(659.2522347 219.6178485 -267.6681934)
(-297.8676124 1622.53224 -1566.193308)
(1226.035708 2099.059868 -985.7828752)
(287.2591515 1106.153413 116.3237683)
(2267.404105 -2150.355027 1077.172653)
(-979.70448 1032.137891 -193.880041)
(89.16726135 -2421.977968 -761.5422974)
(889.5754378 148.3240284 -1227.30221)
(-362.9241476 -1247.791357 589.222376)
(-881.6971749 1224.540788 -994.090651)
(-1198.909767 273.6082027 -495.3394889)
(2352.530029 659.2273169 -301.4506136)
(-1412.255112 1997.503598 9.736370508)
(2334.682055 1187.33224 1738.948992)
(573.4725902 2018.219481 1427.120501)
(1001.428818 834.3738446 -274.8399327)
(1750.921338 2824.822783 509.3473479)
(791.5753691 -1955.15315 -912.5868066)
(2554.575308 1996.128965 581.8046132)
(-955.1211219 -44.23488048 -1437.149382)
(-1632.941858 1173.365262 383.7959205)
(3256.893472 224.8609749 1259.753554)
(1868.296886 -1019.368798 2069.426743)
(-1348.409392 1016.436768 -483.7431246)
(3219.701875 2204.601577 3431.952706)
(-1014.671873 1414.733897 402.9889938)
(1159.017447 -255.9107958 1785.970815)
(1598.857269 -111.1554573 34.90194975)
(868.0739629 -1946.21399 203.0083894)
(-63.93680172 1483.114476 -843.6722079)
(789.9867811 -1100.11581 2061.745866)
(-533.2362505 1586.594972 1464.966547)
(-1198.399116 3176.383301 939.6216319)
(862.9744347 -1021.318805 -84.48189369)
(-1685.887083 236.799322 265.5217208)
(269.6857877 215.1634107 2205.883477)
(1728.031159 1691.296985 2422.230231)
(-980.4905171 -156.7509179 -220.9171877)
(940.2413376 -1243.375607 -291.0231466)
(-699.4104439 -334.9695406 -652.4225558)
(-471.5163158 1174.603919 963.3398858)
(718.1990635 -1153.273752 425.9304921)
(1572.338905 496.8888534 301.7955022)
(301.2555386 -392.0106397 1635.766161)
(1715.059745 692.2600615 -369.8576856)
(350.8949911 -2832.612141 -1936.729863)
(394.2335386 -1558.165535 14.02886845)
(336.9282665 -143.7275862 -1093.748102)
(-466.8777628 1244.854554 -628.3521776)
(-134.4457091 -1723.806211 -2856.004562)
(220.7026726 809.6236552 2400.394195)
(-740.6305627 851.6097451 3260.279464)
(101.3821348 1150.415978 1160.197777)
(-1931.099825 -718.0333714 249.9923265)
(845.969497 -4104.678994 361.6961742)
(-111.2002547 -2586.221564 -1131.825118)
(1171.460712 1640.508933 936.6011773)
(-1500.319976 -437.5917251 -4663.804938)
(-1357.020412 -1243.17687 211.2669625)
(1273.357715 2134.914147 1104.542053)
(1195.334193 -851.9208579 -246.1043308)
(1417.022537 -1911.794096 -868.973095)
(1144.100865 -321.4486291 -1246.218355)
(289.8806203 -2041.920005 362.8211124)
(1547.557414 2537.582377 2243.885508)
(-441.2650134 -1599.579757 1296.422468)
(1116.877792 1156.047594 1305.948219)
(-1032.879503 343.1996473 -483.7243691)
(317.9038044 1936.079634 -1721.104316)
(2133.590939 -3044.016858 50.65290702)
(2123.752852 217.3469203 -2377.825898)
(652.1493834 1422.841852 -1925.121834)
(196.1991295 -591.6914728 -419.7760417)
(1221.533669 676.6338048 -76.9537559)
(555.4514778 -972.4708103 -698.6637468)
(407.3195299 -1217.3536 -1371.635221)
(1402.306544 -590.5086301 563.5176878)
(-273.2444432 497.66752 81.10345214)
(1012.968095 1019.226022 2447.696997)
(304.6228559 1669.930606 -2390.940469)
(3126.385907 -1262.77585 1357.067276)
(-989.9652898 1179.636558 -392.5985485)
(1688.702872 -1571.095397 -425.0845368)
(-155.1064204 387.4872976 1577.574133)
(-926.3262101 -1884.516203 -89.2151502)
(1731.909552 -2435.288189 -671.2985774)
(193.6495278 -2392.349299 -887.0154124)
(-426.8527508 426.4096786 -707.3730021)
(236.5903864 -1734.090675 690.9470222)
(2937.238976 1077.387571 3042.910521)
(-442.2121143 -809.1265414 1490.3035)
(-2509.250675 -1585.521826 1692.102679)
(1108.58671 -239.95908 896.0538818)
(1625.572439 632.3102754 147.0553827)
(-1188.374043 -2882.840309 1155.162982)
(2911.214592 -2157.141018 847.1756512)
(-2262.031067 -1899.641439 -808.5544018)
(-1316.156853 68.4560808 614.6274106)
(-48.06133992 -500.6450132 -1338.893721)
(-1046.710659 -3128.053111 2790.550756)
(2169.874029 977.9932278 -2388.295356)
(-1432.368887 1959.240863 1605.640154)
(245.1250105 -2937.413169 -1485.490693)
(540.684975 2085.850582 -266.7316877)
(-2719.032254 -87.42987651 -1352.671898)
(-571.917797 2750.501575 233.0105884)
(-939.8030264 811.1531508 -117.8904342)
(-1420.115524 -383.9188468 1127.114325)
(1909.392673 -645.9029909 -1117.401131)
(1215.524742 2159.325152 -364.3411851)
(1929.180346 467.4265986 -1972.17829)
(-3272.014446 750.7188672 1133.857154)
(584.4215069 4679.277226 -1202.881265)
(1629.148701 1532.419209 -581.2842392)
(-1470.919542 -354.5880605 368.6065857)
(1631.932106 20.82928022 1199.774882)
(1820.235322 -557.1158172 -948.2517131)
(465.4465156 591.5994163 1398.906299)
(-750.2666036 -379.0569777 -3205.023994)
(459.0996411 -18.76093033 768.2562721)
(-1834.913248 -2233.383165 -1713.645574)
(-44.56330734 -1511.670477 1759.120555)
(-219.4633804 308.9134479 188.9099088)
(-2633.503452 -730.0008057 -1057.162869)
(-1028.320031 2002.514351 -2543.639793)
(928.2526219 -1627.393375 34.41335219)
(-1944.593158 164.3449616 -20.63199298)
(434.1109391 261.0998642 147.152667)
(-177.2230877 504.3995147 1147.570608)
(124.4318225 -1077.186689 2826.132613)
(55.86028393 -1334.50137 -172.2889418)
(-2208.982035 1132.808505 -778.8838951)
(1325.756592 1114.336923 -112.0225257)
(2332.280689 1655.449091 -302.1636866)
(-1257.228612 -753.8002257 -854.7860816)
(-114.8272907 808.557917 1419.115709)
(-72.68455654 434.3622202 3411.0813)
(-985.9259818 -1479.020594 -494.0176532)
(-1606.205656 2464.0594 33.71176515)
(-581.9409709 613.5029424 -775.0855631)
(-452.0400202 -794.6014626 2773.229702)
(933.2136155 2236.281779 -198.7400284)
(-1743.090676 -2103.111285 -709.9577932)
(2526.535736 375.2621473 -1689.525778)
(165.5984128 2433.13638 -590.3047144)
(-882.46849 -1510.494354 -543.0092511)
(-200.536954 304.4457258 2716.078742)
(-2664.009929 1602.33923 -372.6200584)
(-446.607852 -1696.029221 -1571.853937)
(1276.043154 2672.550496 -159.3886983)
(-1019.922554 674.5767936 -920.9724016)
(34.79825767 -858.7496089 -520.5825865)
(631.2862971 42.93257896 1730.376384)
(-1805.612679 766.5187229 -1364.18281)
(531.190455 2387.610645 486.82167)
(-1461.364822 -143.1625178 93.87935852)
(689.5921871 966.1057932 2160.403819)
(-1485.295075 -2165.260603 193.1090113)
(2715.32336 655.3962589 -1506.024143)
(443.4037429 -393.5993622 -998.7471409)
(-511.5092728 608.383041 789.1275463)
(-999.4834336 -419.4175446 538.9675488)
(-1711.988657 1833.542859 2570.616495)
(-1620.239692 -994.5843105 2215.036525)
(-1362.734776 890.4393562 1511.071864)
(722.1130621 -2260.550313 878.4864644)
(1645.31813 -1620.540323 1679.789043)
(-2598.253978 2385.607551 924.8745776)
(988.2748642 3474.007161 -1568.901813)
(1057.563568 347.0858331 -3559.202612)
(1669.523067 2015.057634 869.4659954)
(1553.983564 1009.281085 -910.950377)
(-2148.119572 -454.8195067 -1521.788911)
(216.7805171 2292.918523 1154.349305)
(669.2292561 612.8370916 950.5999543)
(1415.951009 -763.0157334 1503.10133)
(2758.573794 1414.123398 808.0037705)
(487.9422535 -1052.252705 -2063.279759)
(-408.1498601 1879.66755 839.0038095)
(674.8434833 -731.5950324 -2686.406613)
(-1252.770157 1266.031676 -679.5648934)
(4042.564255 1075.254049 -634.52633)
(1207.645344 2753.211978 2110.182727)
(644.5365595 -1064.43105 -935.3273018)
(2642.911653 1601.941092 -152.0152013)
(1013.976321 -229.4074887 -472.7688984)
(1218.545094 -798.6453016 168.924177)
(413.2531646 1649.241817 1492.723522)
(720.5979464 -1162.895978 -617.6124827)
(-221.9778487 741.3092874 1163.728576)
(312.7958383 214.9998946 -1398.043786)
(-2075.850171 -890.3315702 -1379.307661)
(1396.449043 951.2220428 1485.219154)
(1510.093529 -2555.940599 -238.3249405)
(-2485.671722 1662.493337 -1243.158255)
(1078.421623 -2898.697005 -847.3186474)
(6.326271238 -121.5499942 176.3401701)
(93.98224133 392.5558979 1337.909666)
(97.95682005 -1335.760669 -2080.131632)
(-1063.558366 -915.8774328 1157.237837)
(-183.9026496 682.1938201 2756.044274)
(-1914.520273 -522.8484321 2546.064717)
(-1442.439054 -77.73735397 -409.0656703)
(189.726324 1016.048964 -17.12314477)
(2041.112387 1342.377213 1235.44277)
(411.7011581 938.6107516 -22.03339187)
(533.3906275 239.1857384 -2201.192966)
(360.1084945 805.6762551 431.0355888)
(2716.3702 1642.751567 352.176184)
(-602.0801972 276.3560998 61.00647394)
(973.3971907 911.2985112 -126.222013)
(931.2247486 1128.936651 2613.366278)
(-145.1598564 205.2838044 2804.840159)
(-309.121303 44.01669835 458.1834246)
(-2797.179665 -209.7825145 1633.292218)
(1018.531224 -783.0818479 628.0964396)
(-1255.281654 -331.1638502 1697.562948)
(1511.271081 842.4642883 2077.041694)
(-1398.301511 -629.4824844 2151.674744)
(-790.710172 -125.6973788 49.38416894)
(423.7567912 -201.9085073 -340.5208467)
(-1303.955322 1664.233352 1190.865296)
(-693.9626837 887.2587261 -529.4948325)
(333.5898166 -143.0897367 -12.63322555)
(-888.7859145 -1214.429515 -852.3603856)
(1201.00908 -842.9421801 -1158.085241)
(1027.893184 607.9179871 -1576.067158)
(1009.738218 -878.7941026 -1354.862743)
(485.9886936 1367.105918 1373.836889)
(1609.652684 843.831923 -36.84064083)
(1554.405625 -69.87660905 652.6738912)
(-10.68221542 357.2247904 -1024.202066)
(-548.9051326 -20.26626642 -85.77358273)
(-272.1168062 3238.30658 -2219.082368)
(198.2100055 425.9789727 -266.8818132)
(-368.0024995 1662.766049 1280.52881)
(-21.35720379 -573.6512552 565.758219)
(2386.963497 -2116.509072 1434.488359)
(2284.258521 1586.994621 844.3765849)
(-777.384614 -1764.927558 518.2937198)
(-158.012542 -2861.374339 -564.2262711)
(-633.3134087 -538.0800126 -197.0274704)
(396.589951 1458.77621 -253.337261)
(-1518.702192 1495.419215 -1035.457596)
(-342.5796548 284.7123752 -1873.463969)
(-401.6587694 819.0447558 -687.3541248)
(-3814.504781 1199.080291 35.9966395)
(365.0698547 -1453.15789 1426.991573)
(-1159.360277 -2687.884501 381.3938024)
(-40.71266162 1302.814186 -1899.96705)
(1410.276409 -1286.287342 604.8382748)
(-296.5923902 -1996.13446 -1028.466556)
(270.7376382 -412.3746106 -1280.706928)
(-2606.089913 -18.90463955 -1527.931289)
(-2877.558418 3847.180289 -2884.07631)
(292.6517948 64.40213134 -931.8063215)
(217.7891949 -1472.4945 -1499.571426)
(1351.979279 -914.8545443 119.0407644)
(498.5712839 -275.6735005 -368.4436605)
(-2278.45841 -128.8023939 1702.189632)
(216.2424962 -1589.749082 -1209.27969)
(522.140765 1669.055207 -515.5960212)
(-491.5866436 -1943.662608 1400.760862)
(2075.720055 -88.5982028 -1175.443776)
(-854.6478281 1115.261313 1595.041512)
(-71.42441519 -713.8111011 377.8491738)
(-1469.799245 1456.381444 -1449.037724)
(-392.9026402 2909.610114 466.0993847)
(1829.367227 1806.177584 -2727.787926)
(-298.7367665 198.3326593 3160.990807)
(-587.3251631 -2033.929361 -31.51055143)
(-176.2381456 2746.707321 470.6530931)
(355.4690912 -1432.571265 1713.694721)
(-7.26180139 -2338.664934 253.1152579)
(-1711.689216 -478.5989354 -27.79158273)
(1290.775542 36.51085062 -917.3345039)
(-1057.873996 1606.335449 762.6400116)
(-901.7325043 -774.2229246 -1880.021232)
(373.047964 -565.9300993 -1388.115122)
(-373.96743 1633.521016 -1402.63231)
(1633.942594 -4570.61613 977.7612196)
(-1693.223836 -690.4515939 -491.2765798)
(1167.682947 -2287.140453 -94.24253332)
(-533.5494657 -3453.186583 1374.670711)
(-668.3630064 1258.338587 -380.4267089)
(-1178.217269 607.3953343 733.3657549)
(-2460.429936 -365.7490834 -351.5618875)
(481.8597504 -2162.520229 -528.8545915)
(-364.9066858 2715.176111 164.8645334)
(1503.849739 19.6522684 1711.472158)
(1273.966262 788.9918261 -1285.635306)
(2000.925271 39.15298707 769.9695551)
(1037.718773 -2447.139696 -3735.918916)
(-940.5919981 2469.987751 1839.656745)
(-1119.535355 3821.317881 220.6925183)
(-116.7561741 -116.9760168 -2909.505039)
(-911.200958 -640.9056089 325.2512355)
(-917.3926491 -557.5311078 530.2130464)
(-1115.787345 -521.634411 -803.3107561)
(2505.62557 -2443.739434 144.9440377)
(1802.912478 -2247.32594 -9.415446042)
(1984.398632 -73.22647934 751.3664457)
(345.0575742 1121.456823 440.7164377)
(89.33894101 857.7274765 764.6355554)
(280.3365582 1696.379528 -330.3625026)
(-159.9892727 2051.787748 186.7705537)
(-895.4916445 -1001.271448 1950.462781)