/*--------------------------------*- C++ -*----------------------------------*\
| =========                 |                                                 |
| \\      /  F ield         | OpenFOAM: The Open Source CFD Toolbox           |
|  \\    /   O peration     | Version:  v1612+                                |
|   \\  /    A nd           | Web:      www.OpenFOAM.com                      |
|    \\/     M anipulation  |                                                 |
\*---------------------------------------------------------------------------*/
FoamFile
{
    version     2.0;
    format      ascii;
    class       volScalarField;
    location    "0.2";
    object      dsmcSigmaTcRMax;
}
// * * * * * * * * * * * * * * * * * * * * * * * * * * * * * * * * * * * * * //

dimensions      [0 3 -1 0 0 0 0];

internalField   nonuniform List<scalar> 
1000
(
4.78958908e-16
4.71128808e-16
4.754580271e-16
4.862844804e-16
4.852773682e-16
4.810013388e-16
4.850229134e-16
4.787120444e-16
4.843074816e-16
4.809644727e-16
4.892342015e-16
5.011646584e-16
4.840323881e-16
4.730193965e-16
4.810879232e-16
4.80059783e-16
4.816064789e-16
4.918536567e-16
4.823956154e-16
4.834785032e-16
4.863513323e-16
4.793864938e-16
4.863880353e-16
4.743385611e-16
4.894765108e-16
4.887759561e-16
4.863512786e-16
4.763174078e-16
4.674887868e-16
4.870099729e-16
4.899147438e-16
4.762302302e-16
4.916545406e-16
4.934487965e-16
4.746125958e-16
4.822899181e-16
4.909165702e-16
4.852980841e-16
4.860648486e-16
4.89849248e-16
4.850964095e-16
4.756703257e-16
4.894929983e-16
4.852029395e-16
4.833535713e-16
4.761408131e-16
4.864107972e-16
4.836771471e-16
4.848395136e-16
4.8459725e-16
4.817512691e-16
4.814546607e-16
4.814656626e-16
4.89858679e-16
4.799535118e-16
4.733285261e-16
4.744784287e-16
4.899510721e-16
4.798079314e-16
4.903223972e-16
4.805623323e-16
4.800455786e-16
4.768494298e-16
4.814347385e-16
4.863320361e-16
4.737801738e-16
4.758329332e-16
4.784808454e-16
4.845631678e-16
4.864909133e-16
4.726067633e-16
4.707080184e-16
4.993493102e-16
4.763563291e-16
4.734945936e-16
4.911173469e-16
4.831269037e-16
4.813922025e-16
4.938175501e-16
4.852295128e-16
4.807814847e-16
4.86555072e-16
4.752159974e-16
4.945269444e-16
4.934784514e-16
4.867807947e-16
4.83602503e-16
4.755779591e-16
4.797887137e-16
4.802770479e-16
4.865627635e-16
4.797131413e-16
4.861450785e-16
4.733402578e-16
4.725168943e-16
4.784437383e-16
4.76399627e-16
5.043696e-16
4.801772917e-16
4.888729804e-16
4.783641874e-16
4.915940339e-16
4.818780768e-16
4.876537838e-16
4.773700094e-16
4.791740356e-16
4.712371759e-16
4.866063535e-16
4.852418824e-16
4.900695146e-16
4.76122728e-16
4.855190289e-16
4.900479166e-16
4.911503866e-16
4.981768115e-16
4.791844478e-16
4.84347789e-16
4.855075065e-16
4.780234491e-16
4.901598468e-16
4.887089457e-16
4.790176531e-16
4.742910298e-16
4.739657638e-16
4.863980838e-16
4.851728169e-16
4.819084761e-16
4.754834825e-16
4.986196231e-16
4.793199875e-16
4.814942278e-16
4.897230195e-16
4.824218268e-16
4.726269373e-16
4.810005603e-16
4.704936031e-16
4.848503704e-16
4.798970061e-16
4.73153792e-16
4.827963442e-16
4.839054199e-16
4.922832114e-16
4.768451432e-16
5.058084618e-16
4.856713702e-16
4.699678891e-16
4.772795676e-16
4.816635019e-16
4.778012837e-16
4.710688612e-16
4.910020528e-16
4.926914954e-16
4.958780349e-16
4.900132609e-16
4.846414926e-16
5.036986366e-16
4.772126548e-16
4.813308233e-16
4.739086214e-16
4.772074761e-16
4.788213533e-16
4.808100504e-16
4.909838951e-16
4.789843873e-16
4.736416477e-16
4.840063019e-16
4.788312004e-16
4.947599115e-16
4.99146534e-16
4.847200751e-16
4.793717776e-16
4.906900508e-16
4.791015987e-16
4.789011906e-16
4.915785435e-16
4.763563298e-16
4.878270965e-16
4.78192329e-16
4.805255786e-16
4.788015205e-16
5.003706079e-16
4.75844426e-16
4.89971508e-16
4.902911023e-16
4.877992717e-16
4.797660275e-16
4.803779547e-16
4.829308097e-16
4.937270864e-16
4.700092925e-16
4.895787707e-16
4.780506118e-16
4.702008966e-16
4.806986058e-16
5.065410159e-16
4.821408357e-16
4.80049963e-16
4.957954102e-16
4.798296042e-16
4.80452899e-16
4.791772871e-16
4.865867655e-16
4.798249679e-16
4.808687473e-16
4.859202687e-16
4.866043827e-16
4.802457443e-16
4.956264017e-16
4.807474967e-16
4.801936093e-16
4.7670666e-16
4.70571318e-16
4.926688354e-16
4.792928942e-16
4.937687832e-16
4.845625255e-16
4.838315018e-16
4.820948988e-16
4.871864829e-16
4.735526971e-16
5.033213129e-16
4.855762537e-16
4.772770119e-16
4.747118357e-16
4.875264178e-16
4.806504874e-16
4.769624368e-16
4.754874578e-16
4.81845374e-16
4.930347764e-16
4.782437511e-16
4.85275463e-16
4.718193955e-16
5.010502195e-16
4.877550368e-16
4.751954505e-16
4.867950382e-16
4.844854263e-16
4.772937337e-16
4.735720719e-16
4.827651629e-16
4.828049601e-16
4.789262832e-16
4.888690525e-16
4.765672848e-16
4.758634794e-16
4.845621759e-16
4.848569858e-16
4.792363871e-16
4.765367477e-16
4.783271763e-16
5.018720126e-16
4.845880843e-16
4.793058495e-16
4.72257528e-16
4.86331771e-16
4.746252694e-16
4.869161204e-16
4.748248414e-16
4.755110524e-16
4.830652322e-16
4.891080242e-16
4.937358595e-16
4.815972141e-16
4.734713211e-16
4.867186685e-16
4.80585799e-16
4.917710395e-16
4.761666435e-16
4.736919138e-16
4.780724194e-16
4.874637098e-16
4.754375783e-16
4.72528921e-16
4.866094224e-16
4.904766557e-16
4.895465318e-16
4.790953184e-16
4.828359029e-16
4.725303745e-16
4.902004372e-16
4.829868806e-16
4.812323276e-16
4.965939935e-16
4.81932276e-16
4.772861993e-16
4.742659815e-16
4.736694848e-16
4.8084716e-16
4.991730228e-16
4.801803297e-16
4.794062717e-16
4.872662474e-16
4.805855728e-16
5.00223523e-16
4.86376989e-16
4.760999472e-16
4.718205247e-16
4.882369347e-16
4.804903314e-16
4.761866458e-16
4.754937471e-16
4.896388462e-16
4.759271806e-16
4.714399307e-16
4.760165423e-16
4.687878142e-16
4.819364428e-16
4.82139834e-16
4.817358683e-16
4.746613969e-16
4.803855218e-16
4.85149705e-16
4.741523993e-16
4.991475112e-16
5.004559264e-16
4.736704e-16
4.883188764e-16
4.836754399e-16
4.779900095e-16
4.722528545e-16
4.81140014e-16
4.942891897e-16
4.814013438e-16
4.797728075e-16
4.845580976e-16
4.822375239e-16
4.931082181e-16
4.863690827e-16
4.849614426e-16
4.769648526e-16
4.688760158e-16
4.872763161e-16
4.825721478e-16
4.856775702e-16
4.936030639e-16
4.715411153e-16
4.842838177e-16
4.738199965e-16
4.952496391e-16
4.87807439e-16
4.731982712e-16
4.970548537e-16
4.754242368e-16
4.853091344e-16
4.79463224e-16
4.930343084e-16
4.78317858e-16
4.980471366e-16
4.908942867e-16
4.788982152e-16
4.755647528e-16
4.880456854e-16
4.929725057e-16
4.794050192e-16
4.814083897e-16
4.810236386e-16
4.808295766e-16
4.884768058e-16
4.85973718e-16
4.730433516e-16
4.91968094e-16
4.746539758e-16
4.798320416e-16
4.888172261e-16
4.942946685e-16
4.722673191e-16
4.734628319e-16
4.954326504e-16
4.799744308e-16
4.806336661e-16
4.797476959e-16
4.746693614e-16
4.825388505e-16
4.865229159e-16
4.889330407e-16
4.798082427e-16
4.877444663e-16
4.855446046e-16
4.840323669e-16
4.890168234e-16
4.786901632e-16
4.769865119e-16
4.778196858e-16
4.709750578e-16
4.890098375e-16
4.976150524e-16
4.788531849e-16
4.931941408e-16
4.83264306e-16
4.73865757e-16
4.84536063e-16
4.764375891e-16
4.785000798e-16
4.7798596e-16
4.831659984e-16
4.807209601e-16
4.797221829e-16
4.867928029e-16
4.747517829e-16
4.688315458e-16
4.784768651e-16
4.844904781e-16
4.836512368e-16
4.8528976e-16
4.800378998e-16
4.876817286e-16
4.750441495e-16
4.871428566e-16
4.843701734e-16
4.84318071e-16
4.859754334e-16
4.786159635e-16
4.728832042e-16
4.777281401e-16
4.841954546e-16
4.785294473e-16
4.807878416e-16
4.743809692e-16
4.841758021e-16
4.859886347e-16
4.7687623e-16
4.827639204e-16
4.985506219e-16
4.786752072e-16
4.796110883e-16
4.72443567e-16
4.808788106e-16
4.813206987e-16
4.815024499e-16
4.957625002e-16
4.880990876e-16
4.864477706e-16
4.756796838e-16
4.848497043e-16
4.921149205e-16
4.80140803e-16
4.829107435e-16
4.75861009e-16
5.006003927e-16
4.811616384e-16
4.893271435e-16
4.857713998e-16
4.824543655e-16
4.850895453e-16
4.821196749e-16
4.739463818e-16
4.888463746e-16
4.842121159e-16
4.957466022e-16
4.84231057e-16
4.945092098e-16
5.052199038e-16
4.797789269e-16
4.778701182e-16
4.821335616e-16
4.690094763e-16
4.82887625e-16
4.901061856e-16
4.822245798e-16
4.917446031e-16
4.751889596e-16
4.859977734e-16
4.925553337e-16
4.769472092e-16
4.823726909e-16
4.823059522e-16
4.77648099e-16
4.828362732e-16
4.967114104e-16
4.842679826e-16
4.8868215e-16
4.770335251e-16
4.67890097e-16
4.797062778e-16
4.822724694e-16
4.782347501e-16
4.766529938e-16
4.851283154e-16
4.776568162e-16
5.026085455e-16
4.781236858e-16
4.861106927e-16
4.846797638e-16
4.84780812e-16
4.853829254e-16
4.847678632e-16
4.773273992e-16
4.890991113e-16
4.841444723e-16
4.700268024e-16
4.90496346e-16
4.875912349e-16
4.845177261e-16
4.977769706e-16
4.791296105e-16
4.775882889e-16
4.709167177e-16
4.796813676e-16
4.875821219e-16
4.836286024e-16
4.793223266e-16
4.818436747e-16
4.965313451e-16
4.919501257e-16
4.816041231e-16
4.888241074e-16
4.870396191e-16
4.868301693e-16
4.809761868e-16
5.019061309e-16
4.853009336e-16
4.86884259e-16
4.911188336e-16
4.891742223e-16
4.894707454e-16
4.771112243e-16
4.767782709e-16
4.777102311e-16
4.84073884e-16
4.762139671e-16
4.709242164e-16
4.832917378e-16
4.703792276e-16
4.841202491e-16
4.881883171e-16
4.781788795e-16
4.918493923e-16
4.780750529e-16
5.039188113e-16
4.978761854e-16
4.778467697e-16
4.703322132e-16
4.772123197e-16
4.865318414e-16
4.848227826e-16
4.813216056e-16
4.879744207e-16
4.81115556e-16
4.939526516e-16
4.808021891e-16
4.813635688e-16
4.716853555e-16
4.72446436e-16
5.016725688e-16
4.851076432e-16
4.74794785e-16
4.909321124e-16
4.890543335e-16
4.892631048e-16
4.810932058e-16
4.843728331e-16
4.728928636e-16
4.835669163e-16
4.824673218e-16
4.855322362e-16
4.872190471e-16
4.783275325e-16
4.873147527e-16
4.77732002e-16
4.840384137e-16
4.786750793e-16
4.79736821e-16
5.000548028e-16
4.930442687e-16
4.766981205e-16
4.896026867e-16
4.863972338e-16
4.917403281e-16
4.891895191e-16
4.885804286e-16
4.87873297e-16
4.742182578e-16
4.982694034e-16
4.729592145e-16
4.816510506e-16
4.844902978e-16
4.814490429e-16
4.855313338e-16
4.819852752e-16
4.756214703e-16
4.713688034e-16
4.947102469e-16
4.755699439e-16
4.757072239e-16
4.855375566e-16
4.797654007e-16
4.710556117e-16
4.835041213e-16
4.826218954e-16
4.784306359e-16
4.907848969e-16
4.849282384e-16
4.758417288e-16
4.82080653e-16
4.822476718e-16
4.777342463e-16
4.877817608e-16
4.91872173e-16
4.850997023e-16
4.76010898e-16
4.831878942e-16
4.87271076e-16
4.993272671e-16
4.773192487e-16
4.831522869e-16
4.970148314e-16
4.920828496e-16
4.71959405e-16
4.946903847e-16
4.947094548e-16
4.895767692e-16
4.831840771e-16
4.846401107e-16
4.777495513e-16
4.754728334e-16
4.792046751e-16
4.812665636e-16
4.744780517e-16
4.835730179e-16
4.771103764e-16
4.874835715e-16
5.0015496e-16
4.7561445e-16
4.876756915e-16
4.909242938e-16
4.763120229e-16
4.731968899e-16
4.685514414e-16
4.965691209e-16
4.936136923e-16
4.874492622e-16
4.826480295e-16
4.817892609e-16
4.780514096e-16
4.85353632e-16
4.679717466e-16
4.853167127e-16
4.734616912e-16
4.790847965e-16
4.825894641e-16
4.688016888e-16
4.774297559e-16
4.719497724e-16
4.794264558e-16
4.805008454e-16
4.76856855e-16
4.809068775e-16
4.746087541e-16
4.871123325e-16
4.793238303e-16
4.868763474e-16
4.843832239e-16
4.750937865e-16
4.711786259e-16
4.825965636e-16
4.915703594e-16
4.832698158e-16
4.745952599e-16
4.845675125e-16
5.039739114e-16
4.813266443e-16
4.804702693e-16
4.85345499e-16
4.876276694e-16
4.837593761e-16
4.777154092e-16
4.745377082e-16
4.854419192e-16
4.874399616e-16
4.962058942e-16
4.782282404e-16
4.766700428e-16
5.004479777e-16
4.893097572e-16
4.785133106e-16
4.943695888e-16
4.847864811e-16
4.742515722e-16
4.701953834e-16
4.732459076e-16
4.819661566e-16
4.847915829e-16
4.894650333e-16
4.765043995e-16
4.740381631e-16
4.847553825e-16
4.813405847e-16
4.937484025e-16
4.844860762e-16
4.897344858e-16
4.73988208e-16
4.823256624e-16
4.859832119e-16
4.853564122e-16
4.762198649e-16
4.775020091e-16
4.919602949e-16
4.747642595e-16
4.790621998e-16
4.802589342e-16
4.833681836e-16
4.990309438e-16
4.835100003e-16
4.906670627e-16
4.822710592e-16
4.8266761e-16
4.738603712e-16
4.934284324e-16
4.810576208e-16
4.943533579e-16
4.78016176e-16
4.798423888e-16
4.856587267e-16
4.866546212e-16
4.882272104e-16
4.849461587e-16
4.893243179e-16
5.022331652e-16
4.828891341e-16
4.885134652e-16
4.797749506e-16
4.852515199e-16
4.992782361e-16
4.84288533e-16
4.711935554e-16
4.690392524e-16
4.8285241e-16
4.863383756e-16
4.913408825e-16
4.87530782e-16
4.912761646e-16
4.816208712e-16
4.915402071e-16
4.796396042e-16
4.953979632e-16
4.734954584e-16
4.858291168e-16
4.995478318e-16
4.795031105e-16
4.761947597e-16
4.944818373e-16
4.797906369e-16
4.799067392e-16
4.848278666e-16
4.824173533e-16
4.958979963e-16
4.880887459e-16
4.844023011e-16
5.094284278e-16
4.75989071e-16
4.839868152e-16
4.757356797e-16
4.789002023e-16
4.883621502e-16
4.894104221e-16
4.75433249e-16
4.789303102e-16
4.694217975e-16
4.775671657e-16
4.825206974e-16
4.874353325e-16
4.741576152e-16
4.760592517e-16
4.77876877e-16
4.913670804e-16
4.774291606e-16
4.900592874e-16
4.899341054e-16
4.743848579e-16
4.992805923e-16
4.837733868e-16
4.835237817e-16
4.735395093e-16
4.815823984e-16
4.814113469e-16
4.824238607e-16
4.736107709e-16
4.897878342e-16
4.794352925e-16
4.745524416e-16
4.784042541e-16
4.940481283e-16
4.888775201e-16
4.917104855e-16
4.727504719e-16
4.885262912e-16
4.79659372e-16
4.831106305e-16
4.735471056e-16
4.831775827e-16
4.829930488e-16
4.74370032e-16
4.841474569e-16
4.801753491e-16
4.781419989e-16
4.745445651e-16
4.795283351e-16
4.798429536e-16
4.805598552e-16
4.983140195e-16
5.002595794e-16
4.794877082e-16
4.867920792e-16
5.095022248e-16
4.7678113e-16
4.727836897e-16
4.77463119e-16
4.813569506e-16
5.021489588e-16
4.715133241e-16
4.800571645e-16
4.899502462e-16
4.796165391e-16
4.788664902e-16
4.827042989e-16
4.78902037e-16
4.842875541e-16
4.968296607e-16
4.791558754e-16
4.754775507e-16
4.926450256e-16
4.76621293e-16
4.808353598e-16
4.892048986e-16
4.881259165e-16
4.80878772e-16
4.762410594e-16
4.859114475e-16
4.801201789e-16
4.903286869e-16
4.801068791e-16
4.746905702e-16
4.849647312e-16
4.774632584e-16
4.756038338e-16
4.815598889e-16
4.800201506e-16
4.693445417e-16
4.864459487e-16
5.03180802e-16
4.87716951e-16
4.91102667e-16
4.810022065e-16
4.802603752e-16
4.830598119e-16
4.819161939e-16
4.849669518e-16
4.787231936e-16
4.870313658e-16
5.015103562e-16
4.825928811e-16
4.718223716e-16
4.770824155e-16
4.867370472e-16
4.845133096e-16
4.758696914e-16
4.938711065e-16
4.888822158e-16
4.84767462e-16
4.782364754e-16
4.863925203e-16
4.928442155e-16
4.810185019e-16
4.754064739e-16
4.873449614e-16
4.738511445e-16
4.814314133e-16
4.903139323e-16
4.896726667e-16
4.761316396e-16
4.773741688e-16
4.845527572e-16
4.795208077e-16
4.731410069e-16
4.655251776e-16
4.730069187e-16
4.858090486e-16
4.784135876e-16
4.719541287e-16
4.878653566e-16
4.857328982e-16
4.787493222e-16
4.825542235e-16
4.788919097e-16
4.786089377e-16
4.788368002e-16
4.776628631e-16
4.729713339e-16
4.781337046e-16
4.86807168e-16
4.809372756e-16
4.998303236e-16
4.741320045e-16
4.947180589e-16
4.741376159e-16
4.843457847e-16
4.74509713e-16
4.81518056e-16
4.792304624e-16
4.805916408e-16
4.888882918e-16
4.73368542e-16
4.819301248e-16
4.884411614e-16
4.78009733e-16
4.870027875e-16
4.83375914e-16
4.775201801e-16
4.788834877e-16
4.939637682e-16
4.799837271e-16
4.827450493e-16
4.899477712e-16
4.720033729e-16
5.008413455e-16
4.838046929e-16
4.91084596e-16
4.75711461e-16
4.791070045e-16
4.869155554e-16
4.876907476e-16
4.727364965e-16
4.806338006e-16
4.799182249e-16
4.751239847e-16
4.773245967e-16
4.956156629e-16
4.839339513e-16
4.856466021e-16
4.936785224e-16
4.818462018e-16
4.910289427e-16
4.827688648e-16
4.789764878e-16
4.80877663e-16
4.805981037e-16
4.872043386e-16
4.730227426e-16
4.904315253e-16
4.801663203e-16
4.88824199e-16
4.742338459e-16
4.842243817e-16
4.725358697e-16
4.896203794e-16
4.733197681e-16
4.768807551e-16
4.967369422e-16
4.72665844e-16
5.001503139e-16
4.851024102e-16
4.841983781e-16
4.842402142e-16
4.792068981e-16
4.773696481e-16
4.918124672e-16
4.830576867e-16
4.809607621e-16
4.877639339e-16
4.905378092e-16
4.891100042e-16
4.674938167e-16
4.773602885e-16
4.944226302e-16
4.792698971e-16
4.745488781e-16
4.85208211e-16
4.970743176e-16
4.761255045e-16
4.775254338e-16
4.865108787e-16
4.816646044e-16
4.821495649e-16
4.834550013e-16
4.748076976e-16
4.942902236e-16
4.817579448e-16
4.734332902e-16
4.864722406e-16
4.792675195e-16
4.841650593e-16
4.852983567e-16
4.864048798e-16
4.855359417e-16
4.82537214e-16
4.801888353e-16
4.801726896e-16
4.782885552e-16
4.865661904e-16
4.791261411e-16
4.911616505e-16
5.093714062e-16
4.872250294e-16
4.731517962e-16
4.758276694e-16
4.78463532e-16
4.748041509e-16
4.822710055e-16
4.847358213e-16
)
;

boundaryField
{
    bottom
    {
        type            zeroGradient;
    }
    top
    {
        type            zeroGradient;
    }
    inlet
    {
        type            cyclic;
    }
    outlet
    {
        type            cyclic;
    }
    back
    {
        type            symmetry;
    }
    front
    {
        type            symmetry;
    }
}


// ************************************************************************* //
