/*--------------------------------*- C++ -*----------------------------------*\
| =========                 |                                                 |
| \\      /  F ield         | OpenFOAM: The Open Source CFD Toolbox           |
|  \\    /   O peration     | Version:  v1612+                                |
|   \\  /    A nd           | Web:      www.OpenFOAM.com                      |
|    \\/     M anipulation  |                                                 |
\*---------------------------------------------------------------------------*/
FoamFile
{
    version     2.0;
    format      ascii;
    class       volScalarField;
    location    "0.2";
    object      Ma_Ar1;
}
// * * * * * * * * * * * * * * * * * * * * * * * * * * * * * * * * * * * * * //

dimensions      [0 0 0 0 0 0 0];

internalField   nonuniform List<scalar> 
1000
(
0.01715801974
0.0245413257
0.009721305194
0.009284257534
0.005486767508
0.006402058852
0.01329873762
0.01048077603
0.004529216278
0.006233499797
0.004513916734
0.006742255937
0.004914726799
0.01708104605
0.00596866637
0.01073315105
0.009747272442
0.005170123393
0.01363811684
0.008990828499
0.007558549709
0.01183129902
0.007458447936
0.009424124125
0.01032904802
0.008669786148
0.003588205466
0.009827924379
0.00433972154
0.00762825815
0.006876589003
0.006026008011
0.002356661911
0.005844728046
0.008084568361
0.01277815879
0.007775481069
0.002495967169
0.01059956704
0.0134554142
0.01599619087
0.01029001912
0.007400537073
0.007603185992
0.01246013828
0.01218931939
0.01304059406
0.01120338669
0.01107861398
0.006383367439
0.004125208399
0.007213777462
0.009186962468
0.008298163763
0.01133675418
0.01182456534
0.01046511034
0.008606699344
0.004064318756
0.01047396365
0.003136650729
0.003576955169
0.009841994965
0.004448848401
0.01093579981
0.0110993965
0.01389815719
0.004020829883
0.004980693815
0.01151384174
0.007218874633
0.004187204142
0.01084139449
0.007403070362
0.005247134392
0.007959447062
0.006393572177
0.00469944427
0.003946650304
0.005726159533
0.004069230633
0.008361512637
0.007998314335
0.007562736087
0.01513365171
0.006659603706
0.01089947593
0.009072833837
0.003448132244
0.01048710282
0.01052608118
0.01172203006
0.007681465341
0.005525474759
0.006841694595
0.009889164624
0.003488566657
0.00994498912
0.01095789094
0.004286079821
0.007718694286
0.01315053755
0.0082463808
0.0065147608
0.009889870847
0.0047283507
0.01133434802
0.003112795171
0.01189144639
0.007262249472
0.003298021099
0.008145460397
0.004517345307
0.005732302467
0.009833289603
0.005816186519
0.005950217715
0.005986432032
0.009765963963
0.00534349255
0.003202138405
0.003894301312
0.00229639835
0.00819177304
0.002608054827
0.0158746295
0.005070336545
0.00739179438
0.008697411528
0.007471755944
0.01039244087
0.01582331722
0.01365090116
0.005807044275
0.009185268129
0.008763437942
0.009508104953
0.007005471352
0.01121125796
0.008599220555
0.01289301693
0.005461698526
0.003134402629
0.007833823939
0.007186567347
0.004038062324
0.006620674377
0.008164430808
0.02196825661
0.01784554424
0.01519598502
0.0153961012
0.02609721592
0.02471447217
0.01111314393
0.005766998798
0.009866668812
0.007812110405
0.00305746297
0.009657941576
0.0130403327
0.005572494746
0.007069942203
0.008283963689
0.01095004208
0.004863159935
0.01340526702
0.01565762013
0.004753835631
0.01055716606
0.009899613923
0.01181714581
0.00689867777
0.004573854767
0.004851233653
0.00831855605
0.00786628222
0.007639622508
0.00917436005
0.009568106137
0.01922507439
0.01305112281
0.01503742488
0.004833236731
0.006319170131
0.01338741879
0.002784896501
0.01462522103
0.00729761323
0.006715262473
0.003155507382
0.006863879533
0.00558209098
0.005182594035
0.006130838624
0.007154363978
0.005011641782
0.00782358859
0.004413678658
0.01412765302
0.007049218198
0.01797030135
0.007008565169
0.01589472709
0.009258768732
0.01582257332
0.009846907493
0.003883444543
0.007817707134
0.003686251847
0.004564250954
0.01503777959
0.01256283305
0.007850831001
0.009561373474
0.00489444297
0.009271740384
0.006511312082
0.01481296129
0.01315895877
0.007038225358
0.009263867442
0.002917219049
0.01332424861
0.01277220993
0.0142376241
0.01262303432
0.004771716613
0.006003092126
0.01149664866
0.00494327577
0.01238885132
0.01040161088
0.006732700482
0.0147546557
0.01080216936
0.008732308919
0.01445792847
0.01363983472
0.01627168111
0.01462579178
0.0117665518
0.0147432453
0.01558200969
0.01229674994
0.01747088805
0.006060427992
0.01128064983
0.01090093067
0.01645439303
0.007742252436
0.008188074837
0.01072001949
0.01191591257
0.007224351951
0.0112131486
0.009374293946
0.003483053865
0.007397844049
0.009279986224
0.005652876995
0.00775162128
0.008540878933
0.00736045226
0.01540556639
0.004591585392
0.009709257073
0.008184781774
0.01201272026
0.01347154411
0.009695750034
0.005953852073
0.01217049684
0.009157099569
0.005493488908
0.009207536306
0.006690100011
0.007206914469
0.005700918135
0.01350997471
0.00979442869
0.008276584863
0.008293088081
0.0133103785
0.008169656047
0.007679645081
0.01048922103
0.003398130649
0.0066572229
0.01341096079
0.008110241668
0.01308992406
0.01001078893
0.002233471446
0.003678418616
0.005690718156
0.01161489805
0.007648484115
0.008304816024
0.002559482029
0.01580891914
0.009610427063
0.005207155441
0.007849020619
0.01304407206
0.01012524219
0.01711518318
0.004440817912
0.00644469613
0.00367260924
0.007769967972
0.006761940789
0.01422501727
0.01187522232
0.005303769331
0.006831533146
0.009594138225
0.004337816805
0.007868377989
0.002209523068
0.006984444334
0.007051657512
0.009700151612
0.01333358888
0.004727926464
0.01102784132
0.009053745617
0.01181614424
0.02229803166
0.01659416326
0.005677505742
0.01200117706
0.01276474787
0.008834754042
0.005593435187
0.01017247544
0.01691085003
0.01101359052
0.005348288818
0.006946529415
0.008012545933
0.01287600484
0.01408146796
0.005022121033
0.0106572098
0.004497752748
0.01837538414
0.02500288647
0.01677410854
0.0121040741
0.01112791219
0.01353037883
0.002629415997
0.009629214233
0.013255438
0.01117829153
0.007384455123
0.01280813374
0.01194444846
0.008612475238
0.008232088638
0.007336041988
0.00639477156
0.00547922113
0.01257695377
0.01113060603
0.01498380998
0.01863930187
0.008385541954
0.006308311967
0.004027196262
0.003602376456
0.007853793726
0.01166697792
0.01337877852
0.008091496937
0.004020166214
0.00863631087
0.008492065652
0.006024618231
0.003475907123
0.003857100311
0.01233030283
0.008734040997
0.003603551828
0.01472163767
0.008680304169
0.01815811057
0.003862919823
0.00565257087
0.006222509133
0.0143094961
0.008591001946
0.01114820348
0.009075109141
0.01005821203
0.009219968999
0.006118054639
0.01243066009
0.01475903969
0.01255218547
0.003900415817
0.01398246624
0.01260383016
0.01345315163
0.005850436703
0.002581616916
0.01490962431
0.006573071427
0.008293308891
0.00852756395
0.01130829316
0.0158836158
0.01708876977
0.01640750082
0.008330316478
0.005851058454
0.01058573244
0.01304374583
0.01157128823
0.008955375525
0.00854342397
0.0100328137
0.02403456918
0.01165166434
0.007885896527
0.004759863273
0.01108827305
0.003408760391
0.01188950199
0.00736158337
0.004077128283
0.01853141078
0.0128154661
0.01019113436
0.004923569251
0.01597857616
0.01357105316
0.009249734451
0.01166069386
0.009415301392
0.01359957207
0.01633324798
0.003707054424
0.006220523346
0.004044083408
0.007885128445
0.01034786908
0.006325074082
0.01058125505
0.006978295311
0.01252557373
0.007555285196
0.01060734893
0.01295325726
0.01113821638
0.003652375731
0.008920093453
0.01239195622
0.008582362053
0.007698378267
0.002182477663
0.008686218015
0.01175601692
0.0156245747
0.01129708638
0.01263737102
0.006140373171
0.01268152788
0.009950690447
0.008043963457
0.02097128738
0.005155396875
0.01115918267
0.01253453624
0.009912259245
0.006459327999
0.01084459818
0.003905118195
0.008190137378
0.01124399628
0.004951128554
0.00361745206
0.002399943169
0.007640377814
0.01323150537
0.01433417853
0.01096521227
0.006962011572
0.009216315049
0.01350659301
0.00634580161
0.005333492696
0.004651014205
0.002043806879
0.00756570681
0.01132144992
0.01065810817
0.004636578549
0.0095408916
0.006598234205
0.009598282077
0.009640937687
0.004153471892
0.008452379549
0.007550387422
0.008017637792
0.004598811245
0.005806347324
0.004123630138
0.01237595584
0.007879846588
0.01283915929
0.01023827593
0.009885185254
0.009624370205
0.009145286793
0.009806667549
0.005958045413
0.007844750458
0.007137306731
0.01125933151
0.005360043321
0.003748893665
0.008219974597
0.01150795907
0.01158272158
0.009539638003
0.006891843699
0.01433367977
0.01451401431
0.004679429094
0.0129548117
0.006797410489
0.006181431971
0.004052216876
0.01061991471
0.0150302787
0.006257144338
0.008567649199
0.01311545557
0.0132124449
0.007151221328
0.007345575625
0.008270735609
0.01123677083
0.01045827631
0.007325498678
0.01983287721
0.01163016513
0.01310575527
0.01045407576
0.01278364828
0.01486089926
0.005162316745
0.008164625683
0.01053626517
0.0113082138
0.00694647586
0.008383145095
0.008669031315
0.004849586671
0.01010636885
0.008010238214
0.009755441349
0.009176521681
0.01039399018
0.01133443211
0.01400220537
0.01180512245
0.01672218399
0.01046467426
0.006359506151
0.009646420242
0.001625763858
0.01781133028
0.01235740421
0.009190654891
0.01120385942
0.005448101907
0.006411206084
0.006521288137
0.003834755842
0.008723532505
0.008286316693
0.01380028622
0.007586056908
0.005807164329
0.002976882244
0.01026570488
0.005918439794
0.002087652725
0.0153977564
0.007207694071
0.01045392224
0.009781297621
0.00470584913
0.01565703675
0.007976400496
0.003435002962
0.01568975062
0.01042047816
0.01531909998
0.01378740541
0.006799371967
0.009844685129
0.008852004172
0.003238054852
0.008452865344
0.01434115952
0.01236959889
0.005964546112
0.004892589862
0.01039184551
0.01077034416
0.01238603299
0.004144066944
0.01142097251
0.01101425807
0.00301264734
0.006307679866
0.008070850312
0.004857966858
0.0160124147
0.007457764501
0.00610991215
0.005235467316
0.004244520841
0.01030933784
0.005618955004
0.01114014453
0.002973713171
0.01329888825
0.01367462132
0.01342305408
0.007951996465
0.008524658643
0.01095688926
0.006451128639
0.006934848039
0.01183499664
0.01099103651
0.01586458739
0.004229644249
0.004576136615
0.006879220087
0.008448169736
0.01588539532
0.007312147335
0.003525475701
0.00811862802
0.007253703185
0.00571994709
0.00585360603
0.004549220885
0.01079967786
0.01090567544
0.006669449935
0.01237637598
0.005092771901
0.007433306374
0.007442604592
0.003955832047
0.004930572667
0.01088915093
0.002841652769
0.01249816403
0.01186254463
0.005989824904
0.0103500703
0.01293873827
0.01161694956
0.01069616452
0.008564820241
0.007973551516
0.01557087062
0.006093004154
0.00546378086
0.007438835905
0.005493830065
0.006798775992
0.01377119492
0.009279878254
0.009482481184
0.003353376837
0.004930269091
0.008207075756
0.009511680862
0.005221654819
0.004922489802
0.006918855384
0.006128283945
0.003853323355
0.003620827298
0.004308543241
0.006360708526
0.009215656078
0.003830851693
0.006570794703
0.01199894267
0.008979520981
0.0121903643
0.008144008605
0.0109521131
0.008602936673
0.003262596587
0.007854248237
0.01086360245
0.006405189685
0.004362911502
0.01276424747
0.01539015024
0.01002070897
0.01104357917
0.00819496555
0.02108247691
0.007089733338
0.003925943455
0.006350093458
0.004031703262
0.01606187422
0.01209165087
0.009655286187
0.009021479333
0.00703362768
0.01819250367
0.003203282968
0.007681583144
0.006718992123
0.01048567745
0.009430285398
0.00248395489
0.005779075138
0.01196577829
0.00863959668
0.003438822047
0.006698016661
0.00376632226
0.008533726888
0.01688485667
0.01006793054
0.00615865107
0.01069813459
0.009665700399
0.005069141559
0.004740220261
0.01242670836
0.005492519885
0.01035584386
0.007503988964
0.006339695906
0.007334887941
0.01050222803
0.0117687555
0.008735014475
0.0134293533
0.01057207677
0.01255820739
0.007673172326
0.01083594166
0.01085674655
0.0117655702
0.01423602416
0.01755098306
0.009825123789
0.01778344673
0.006952463148
0.007227685911
0.01395045101
0.01009596993
0.01630263819
0.009835830504
0.007088764245
0.009780637021
0.01064832378
0.01270014782
0.006260205053
0.006081137536
0.005250931305
0.00487885876
0.009135988679
0.008115957945
0.008348459921
0.005335299337
0.009536439511
0.009555223971
0.01378645462
0.006955932257
0.007674315019
0.004814534926
0.007497105959
0.01470699459
0.01128845768
0.01124805905
0.01829558823
0.004008684604
0.008860219632
0.0081583201
0.008084869993
0.01474673944
0.007546677215
0.007106620931
0.01097786722
0.01378878254
0.01315895592
0.01256824141
0.008075370657
0.006980485079
0.007725902384
0.006753340829
0.004575618707
0.009079072305
0.0119270665
0.002573888197
0.007088385886
0.005246392472
0.009402093524
0.01215506742
0.003080055406
0.005478513993
0.004063559889
0.009429477662
0.01110750867
0.01003311139
0.01185833091
0.002952649271
0.005612017796
0.002955862561
0.004815736117
0.006528354497
0.01037234925
0.009371975876
0.001079615078
0.006641875112
0.006726625725
0.008008509964
0.002841086794
0.009806089485
0.01226958496
0.009126018055
0.01743560124
0.01554652031
0.01327681801
0.00919989018
0.008807941509
0.01836056009
0.01012746601
0.01245896291
0.008543607679
0.00361315183
0.006851184114
0.003377528607
0.002522029795
0.01125450837
0.006038471316
0.009664578399
0.01121352178
0.01591739083
0.01327156035
0.006328005868
0.008302415746
0.008791111605
0.003267411202
0.00969568604
0.00861223137
0.008254515155
0.005887366092
0.00244231028
0.003040729639
0.005075289865
0.004046139386
0.007422695831
0.009384042535
0.00598138434
0.006892482779
0.003558565712
0.01021908122
0.004781505371
0.006465098651
0.008102747064
0.005605230708
0.007481338219
0.009300998254
0.004501045369
0.003939582384
0.01437422019
0.0103285887
0.007123129464
0.01008121581
0.005886040487
0.007082670174
0.003575592902
0.004075850655
0.01118926954
0.002932787209
0.009192975522
0.003130204825
0.008825615152
0.006475698525
0.004960269436
0.01397716757
0.008805542806
0.004699736377
0.005252649666
0.003816576235
0.01076733661
0.004557504339
0.006438112337
0.006555818598
0.001744476074
0.02084131435
0.003575361717
0.008229527912
0.0109586483
0.008277087255
0.01038863231
0.0202177527
0.01854053876
0.01309417903
0.007230758945
0.009409701292
0.01351366803
0.009569506697
0.007764100813
0.007790707629
0.01263204038
0.007585422413
0.01433826718
0.008452517691
0.002866385709
0.002354321904
0.0005628769062
0.005924583751
0.008840339827
0.006166923996
0.005994277333
0.003814326308
0.006222560373
0.006176977394
0.002820019245
0.007319990855
0.004892188698
0.003834898619
0.01026750367
0.008941798653
0.005765228268
0.005808063303
0.0058106626
0.005003443004
0.004314493725
0.002037996107
0.009697942915
0.01064632525
0.01143388929
0.001969100421
0.004205842272
0.009193819227
0.01467668896
0.0186078504
0.01215486738
0.004994675301
0.01123061401
0.01057737116
0.01007193239
0.005496468603
0.008909225368
0.006286036737
0.002427196077
0.0139551435
0.01751081689
0.009143086251
0.008810473094
0.009862962627
0.008851989269
0.01166993106
0.004191502301
0.008093802604
0.008395062862
0.008901633774
0.01387491572
0.006049660848
0.01386239471
0.01003917145
0.007004400717
0.01073031574
0.005029229664
0.007623169817
0.005761602117
0.005972646754
0.0144129184
0.01521994049
0.0107597674
0.009725396665
0.006548837832
0.008700964
0.01282458168
0.01374734891
0.01027765794
0.01474715917
0.01298263187
)
;

boundaryField
{
    bottom
    {
        type            calculated;
        value           nonuniform List<scalar> 
200
(
0.01715801974
0.0245413257
0.009721305194
0.009284257534
0.005486767508
0.006402058852
0.01329873762
0.01048077603
0.004529216278
0.006233499797
0.004513916734
0.006742255937
0.004914726799
0.01708104605
0.00596866637
0.01073315105
0.009747272442
0.005170123393
0.01363811684
0.008990828499
0.007558549709
0.01183129902
0.007458447936
0.009424124125
0.01032904802
0.008669786148
0.003588205466
0.009827924379
0.00433972154
0.00762825815
0.006876589003
0.006026008011
0.002356661911
0.005844728046
0.008084568361
0.01277815879
0.007775481069
0.002495967169
0.01059956704
0.0134554142
0.01599619087
0.01029001912
0.007400537073
0.007603185992
0.01246013828
0.01218931939
0.01304059406
0.01120338669
0.01107861398
0.006383367439
0.004125208399
0.007213777462
0.009186962468
0.008298163763
0.01133675418
0.01182456534
0.01046511034
0.008606699344
0.004064318756
0.01047396365
0.003136650729
0.003576955169
0.009841994965
0.004448848401
0.01093579981
0.0110993965
0.01389815719
0.004020829883
0.004980693815
0.01151384174
0.007218874633
0.004187204142
0.01084139449
0.007403070362
0.005247134392
0.007959447062
0.006393572177
0.00469944427
0.003946650304
0.005726159533
0.004069230633
0.008361512637
0.007998314335
0.007562736087
0.01513365171
0.006659603706
0.01089947593
0.009072833837
0.003448132244
0.01048710282
0.01052608118
0.01172203006
0.007681465341
0.005525474759
0.006841694595
0.009889164624
0.003488566657
0.00994498912
0.01095789094
0.004286079821
0.007718694286
0.01315053755
0.0082463808
0.0065147608
0.009889870847
0.0047283507
0.01133434802
0.003112795171
0.01189144639
0.007262249472
0.003298021099
0.008145460397
0.004517345307
0.005732302467
0.009833289603
0.005816186519
0.005950217715
0.005986432032
0.009765963963
0.00534349255
0.003202138405
0.003894301312
0.00229639835
0.00819177304
0.002608054827
0.0158746295
0.005070336545
0.00739179438
0.008697411528
0.007471755944
0.01039244087
0.01582331722
0.01365090116
0.005807044275
0.009185268129
0.008763437942
0.009508104953
0.007005471352
0.01121125796
0.008599220555
0.01289301693
0.005461698526
0.003134402629
0.007833823939
0.007186567347
0.004038062324
0.006620674377
0.008164430808
0.02196825661
0.01784554424
0.01519598502
0.0153961012
0.02609721592
0.02471447217
0.01111314393
0.005766998798
0.009866668812
0.007812110405
0.00305746297
0.009657941576
0.0130403327
0.005572494746
0.007069942203
0.008283963689
0.01095004208
0.004863159935
0.01340526702
0.01565762013
0.004753835631
0.01055716606
0.009899613923
0.01181714581
0.00689867777
0.004573854767
0.004851233653
0.00831855605
0.00786628222
0.007639622508
0.00917436005
0.009568106137
0.01922507439
0.01305112281
0.01503742488
0.004833236731
0.006319170131
0.01338741879
0.002784896501
0.01462522103
0.00729761323
0.006715262473
0.003155507382
0.006863879533
0.00558209098
0.005182594035
0.006130838624
0.007154363978
0.005011641782
0.00782358859
0.004413678658
0.01412765302
)
;
    }
    top
    {
        type            calculated;
        value           nonuniform List<scalar> 
200
(
0.007546677215
0.007106620931
0.01097786722
0.01378878254
0.01315895592
0.01256824141
0.008075370657
0.006980485079
0.007725902384
0.006753340829
0.004575618707
0.009079072305
0.0119270665
0.002573888197
0.007088385886
0.005246392472
0.009402093524
0.01215506742
0.003080055406
0.005478513993
0.004063559889
0.009429477662
0.01110750867
0.01003311139
0.01185833091
0.002952649271
0.005612017796
0.002955862561
0.004815736117
0.006528354497
0.01037234925
0.009371975876
0.001079615078
0.006641875112
0.006726625725
0.008008509964
0.002841086794
0.009806089485
0.01226958496
0.009126018055
0.01743560124
0.01554652031
0.01327681801
0.00919989018
0.008807941509
0.01836056009
0.01012746601
0.01245896291
0.008543607679
0.00361315183
0.006851184114
0.003377528607
0.002522029795
0.01125450837
0.006038471316
0.009664578399
0.01121352178
0.01591739083
0.01327156035
0.006328005868
0.008302415746
0.008791111605
0.003267411202
0.00969568604
0.00861223137
0.008254515155
0.005887366092
0.00244231028
0.003040729639
0.005075289865
0.004046139386
0.007422695831
0.009384042535
0.00598138434
0.006892482779
0.003558565712
0.01021908122
0.004781505371
0.006465098651
0.008102747064
0.005605230708
0.007481338219
0.009300998254
0.004501045369
0.003939582384
0.01437422019
0.0103285887
0.007123129464
0.01008121581
0.005886040487
0.007082670174
0.003575592902
0.004075850655
0.01118926954
0.002932787209
0.009192975522
0.003130204825
0.008825615152
0.006475698525
0.004960269436
0.01397716757
0.008805542806
0.004699736377
0.005252649666
0.003816576235
0.01076733661
0.004557504339
0.006438112337
0.006555818598
0.001744476074
0.02084131435
0.003575361717
0.008229527912
0.0109586483
0.008277087255
0.01038863231
0.0202177527
0.01854053876
0.01309417903
0.007230758945
0.009409701292
0.01351366803
0.009569506697
0.007764100813
0.007790707629
0.01263204038
0.007585422413
0.01433826718
0.008452517691
0.002866385709
0.002354321904
0.0005628769062
0.005924583751
0.008840339827
0.006166923996
0.005994277333
0.003814326308
0.006222560373
0.006176977394
0.002820019245
0.007319990855
0.004892188698
0.003834898619
0.01026750367
0.008941798653
0.005765228268
0.005808063303
0.0058106626
0.005003443004
0.004314493725
0.002037996107
0.009697942915
0.01064632525
0.01143388929
0.001969100421
0.004205842272
0.009193819227
0.01467668896
0.0186078504
0.01215486738
0.004994675301
0.01123061401
0.01057737116
0.01007193239
0.005496468603
0.008909225368
0.006286036737
0.002427196077
0.0139551435
0.01751081689
0.009143086251
0.008810473094
0.009862962627
0.008851989269
0.01166993106
0.004191502301
0.008093802604
0.008395062862
0.008901633774
0.01387491572
0.006049660848
0.01386239471
0.01003917145
0.007004400717
0.01073031574
0.005029229664
0.007623169817
0.005761602117
0.005972646754
0.0144129184
0.01521994049
0.0107597674
0.009725396665
0.006548837832
0.008700964
0.01282458168
0.01374734891
0.01027765794
0.01474715917
0.01298263187
)
;
    }
    inlet
    {
        type            cyclic;
    }
    outlet
    {
        type            cyclic;
    }
    back
    {
        type            symmetry;
    }
    front
    {
        type            symmetry;
    }
}


// ************************************************************************* //
