/*--------------------------------*- C++ -*----------------------------------*\
| =========                 |                                                 |
| \\      /  F ield         | OpenFOAM: The Open Source CFD Toolbox           |
|  \\    /   O peration     | Version:  v1612+                                |
|   \\  /    A nd           | Web:      www.OpenFOAM.com                      |
|    \\/     M anipulation  |                                                 |
\*---------------------------------------------------------------------------*/
FoamFile
{
    version     2.0;
    format      ascii;
    class       volScalarField;
    location    "0.2";
    object      mctTimeStepRatio_Ar1;
}
// * * * * * * * * * * * * * * * * * * * * * * * * * * * * * * * * * * * * * //

dimensions      [0 0 0 0 0 0 0];

internalField   nonuniform List<scalar> 
1000
(
2.460273396
2.444437162
2.443793984
2.416111494
2.406258343
2.455409413
2.44246802
2.478426518
2.475607116
2.452889465
2.440968794
2.440101789
2.44707614
2.456657705
2.385755138
2.428286847
2.436298708
2.470528015
2.455021199
2.449781256
2.469202937
2.415113938
2.417222105
2.44872276
2.412295395
2.482549984
2.444668506
2.387762428
2.413976681
2.427065936
2.449519663
2.450038325
2.465423414
2.453299307
2.397217173
2.456547545
2.416001842
2.429927095
2.40983948
2.373618447
2.389085646
2.425997025
2.407203509
2.414010558
2.3924023
2.387685412
2.434153044
2.44269952
2.446402591
2.461153027
2.438380964
2.433783841
2.406863486
2.43575672
2.463638181
2.445433453
2.410667256
2.429555571
2.435607068
2.439985961
2.405670774
2.370363157
2.404684633
2.379841081
2.431308376
2.413526652
2.42264084
2.427081485
2.434294499
2.422068168
2.418085542
2.449459681
2.41223018
2.44708446
2.455446119
2.4589165
2.446577116
2.460643078
2.396959973
2.437355938
2.380985098
2.362425154
2.430508284
2.461605834
2.444762099
2.438936438
2.420215883
2.47083718
2.422603962
2.411131058
2.428488086
2.436815669
2.457786797
2.382265943
2.470081836
2.487759144
2.50024678
2.508556059
2.446675485
2.443960831
2.442387454
2.412218689
2.448600067
2.516143594
2.475606392
2.440726338
2.467642991
2.451210658
2.435676589
2.448616778
2.422380903
2.417767022
2.432891823
2.426533264
2.444521776
2.461176548
2.399975371
2.413000109
2.442126731
2.37856748
2.409674711
2.441712126
2.438815234
2.465026533
2.457206841
2.459616432
2.424970836
2.439177857
2.444577306
2.383782371
2.404436507
2.446242799
2.433685064
2.461893808
2.440220299
2.452742552
2.404927596
2.400392834
2.390244857
2.385763809
2.416336561
2.436472712
2.421500519
2.450140938
2.452903572
2.420057653
2.445891535
2.425079248
2.458379009
2.454966218
2.431746702
2.398652029
2.433294297
2.47509788
2.446251221
2.482928043
2.489658887
2.495712682
2.458085289
2.466402382
2.415755402
2.414368501
2.476006169
2.468457856
2.456809738
2.461179014
2.471585661
2.456959486
2.45672494
2.428790623
2.433955137
2.396433991
2.376070943
2.445795297
2.444827652
2.458113011
2.424450126
2.385855706
2.452982857
2.470267266
2.433855627
2.436276668
2.438620607
2.408178145
2.417599916
2.407473428
2.412679667
2.417777676
2.395426542
2.455299747
2.464047202
2.453375547
2.440149783
2.466058251
2.513729659
2.513518892
2.45579677
2.45245111
2.45849501
2.41799999
2.451291662
2.434425978
2.418026229
2.436098463
2.45652452
2.433421915
2.424491427
2.417146675
2.447889332
2.452129056
2.403781494
2.440547679
2.474700059
2.437110165
2.402148208
2.436627399
2.499233624
2.46672248
2.394764953
2.432073921
2.453423421
2.446992815
2.431780019
2.430350059
2.48321131
2.443180929
2.437478216
2.444901501
2.4235627
2.406292538
2.382357264
2.434362143
2.420149994
2.443485497
2.444419172
2.435893379
2.425880713
2.410809369
2.425767481
2.400058971
2.407102769
2.432272233
2.402441557
2.385603718
2.346180128
2.369509257
2.412918124
2.427854969
2.404210588
2.41934171
2.455325733
2.437283534
2.450571138
2.440821516
2.410162275
2.428429497
2.418630892
2.453668474
2.394710913
2.401235767
2.40058889
2.411047643
2.413511167
2.38812873
2.414198483
2.385134765
2.423540471
2.425645875
2.405943519
2.434894457
2.399055147
2.396287079
2.429430499
2.395504421
2.429039285
2.446338293
2.44703249
2.408642023
2.427757995
2.443288607
2.428079135
2.440323807
2.415806004
2.404779006
2.41406162
2.445769369
2.397724992
2.44429064
2.427612709
2.417970539
2.455103881
2.402122871
2.431911684
2.404769021
2.442782422
2.460562861
2.443551587
2.470363206
2.401547691
2.402112888
2.43877617
2.413032234
2.430407717
2.433225247
2.456530669
2.390968687
2.433996624
2.436772054
2.444697864
2.417509887
2.402163654
2.454478574
2.417695848
2.481855894
2.432820086
2.432818421
2.424519926
2.412238172
2.405760914
2.410246694
2.411919517
2.454704091
2.436517432
2.464799545
2.420607417
2.448472403
2.429797737
2.433240679
2.385892002
2.419446162
2.437863331
2.456207725
2.416358929
2.456853815
2.38243081
2.413068269
2.451480723
2.392070335
2.417772372
2.38810501
2.40406218
2.395312994
2.422169998
2.41435814
2.45304503
2.426479597
2.436659833
2.440022462
2.432533334
2.424704859
2.414382349
2.433328142
2.422572906
2.462885126
2.44664868
2.480904087
2.468712763
2.473327514
2.481698888
2.471931108
2.474039423
2.483936089
2.519901479
2.496394836
2.500064105
2.444657182
2.463988347
2.475351078
2.451244062
2.410949572
2.437866127
2.416515334
2.4344994
2.464201836
2.457001551
2.441549165
2.444084916
2.464821981
2.518461932
2.459743133
2.424589355
2.394167133
2.411993514
2.361519465
2.406893857
2.430186533
2.415973182
2.444546661
2.420395935
2.426145996
2.424677313
2.425012937
2.419232215
2.440878921
2.456266998
2.459754838
2.447899128
2.450212857
2.432881683
2.456313614
2.389694774
2.408222284
2.40882511
2.396206347
2.435293362
2.432319979
2.432887641
2.415119363
2.417622238
2.423464775
2.446088334
2.430263972
2.462682337
2.424406625
2.422913789
2.414096687
2.466499172
2.415515664
2.496788239
2.407928422
2.423074342
2.400567191
2.445864315
2.457710038
2.452347477
2.48108906
2.439448887
2.403836392
2.432462886
2.422638815
2.432262047
2.408089804
2.407134469
2.456641488
2.44442864
2.46814247
2.470903564
2.399908308
2.386458775
2.35797265
2.385588379
2.388841677
2.366887858
2.423865888
2.406723849
2.378073109
2.372549613
2.38356795
2.39834362
2.421213486
2.430920698
2.407072551
2.409305888
2.400719771
2.384421321
2.376914086
2.387853216
2.438807608
2.415081056
2.418795422
2.415665623
2.386385446
2.392423043
2.414045395
2.417603959
2.438110805
2.400479508
2.38266862
2.432939002
2.419919092
2.379614621
2.35763789
2.379407187
2.409040191
2.444435807
2.432115981
2.388630424
2.421499274
2.439688476
2.445110283
2.417760174
2.387156951
2.372583091
2.393844365
2.451776413
2.430737537
2.450358087
2.449192196
2.463372874
2.43710129
2.436180892
2.41708154
2.428871735
2.448157907
2.456113363
2.448456327
2.422230978
2.508713146
2.481195649
2.419895275
2.481562039
2.457873813
2.452086773
2.432809321
2.431024501
2.425138937
2.441900271
2.480503834
2.429894542
2.457506683
2.480074665
2.488554032
2.436984222
2.439302486
2.464771496
2.436725205
2.413455412
2.433536493
2.435336818
2.42427442
2.430404789
2.437558878
2.484297221
2.463996851
2.420879598
2.429201006
2.393104571
2.482105965
2.410739649
2.397551625
2.387754667
2.439153622
2.459486107
2.393741582
2.445009894
2.422024417
2.42182969
2.443110203
2.413782317
2.490025823
2.441066989
2.451377361
2.448554377
2.408169134
2.451934933
2.442746651
2.421582846
2.426785405
2.410759973
2.460071654
2.487125872
2.428849566
2.427988858
2.448700922
2.485856723
2.490219057
2.480908412
2.462138949
2.508483372
2.492467687
2.470551353
2.460228249
2.441062938
2.47063492
2.458110832
2.451541023
2.498517881
2.470242755
2.467967447
2.447166449
2.478863627
2.484952471
2.451034498
2.432223743
2.436833013
2.436662948
2.476781108
2.456548086
2.478016417
2.455750683
2.413965746
2.41927346
2.431431646
2.442398452
2.421121657
2.437908689
2.444141505
2.416929534
2.387239221
2.440944567
2.419570507
2.444366669
2.424944963
2.398719145
2.451913968
2.432874619
2.419552543
2.415997097
2.400683394
2.425559631
2.392047385
2.408450637
2.3880029
2.437021703
2.460161962
2.433391114
2.445969699
2.46251699
2.417444562
2.413679874
2.451141779
2.428038396
2.385431008
2.411451162
2.418051604
2.4217005
2.410777302
2.408768776
2.45030587
2.445627797
2.444300022
2.392474905
2.441369521
2.446871852
2.429248878
2.48579556
2.44875721
2.446281313
2.462585188
2.413272993
2.416141004
2.443908987
2.427534624
2.415146639
2.477758305
2.415051049
2.431829574
2.376112701
2.430797204
2.40521791
2.402726665
2.371616164
2.392299176
2.368669876
2.423983705
2.37255564
2.378728319
2.42182758
2.383322333
2.441247139
2.413587061
2.411296362
2.390805681
2.428948926
2.387458003
2.370351014
2.431478559
2.410277274
2.402026812
2.412262028
2.430523732
2.438740887
2.389371189
2.410089272
2.42337193
2.415435918
2.420564167
2.406650901
2.412248078
2.395948601
2.420525999
2.400997676
2.361318921
2.411323243
2.434993281
2.361396176
2.391777389
2.416508803
2.410131206
2.442641275
2.412163974
2.366261083
2.372838852
2.380544838
2.455775498
2.442525258
2.446579078
2.470489795
2.402188982
2.419547692
2.450564985
2.453251715
2.491146689
2.45856567
2.445374966
2.442965595
2.453859964
2.487940618
2.459322353
2.470483349
2.46746208
2.513143262
2.431037648
2.479554914
2.444860363
2.456076621
2.492790693
2.487811145
2.430390717
2.443200139
2.430682349
2.468059204
2.425259783
2.446749148
2.481433426
2.44129404
2.437916135
2.412238058
2.395875027
2.412164659
2.408953828
2.425149802
2.421883517
2.417224261
2.464671163
2.459696571
2.394706947
2.418815976
2.416636052
2.470214466
2.462039546
2.421613704
2.40171892
2.420083941
2.401117644
2.441311432
2.370530433
2.431551974
2.409988909
2.422468315
2.414295508
2.413097232
2.423745334
2.460218805
2.431661794
2.409118038
2.398615901
2.379886991
2.44744571
2.497320676
2.462800223
2.442963587
2.442187588
2.44442062
2.469909231
2.465324288
2.485139764
2.453107142
2.44276094
2.444782359
2.451787078
2.457528684
2.433542314
2.457452573
2.474979854
2.486722728
2.505153888
2.524074638
2.459948565
2.439015097
2.47817299
2.459841318
2.433155563
2.451740909
2.418043421
2.47927234
2.464835505
2.395662462
2.394236096
2.424934114
2.40396101
2.435453969
2.465407851
2.468232629
2.397017122
2.420582285
2.420099732
2.388109475
2.423830293
2.420551089
2.408183435
2.417538402
2.390933777
2.416837455
2.387778645
2.409188837
2.421478313
2.419004328
2.426860131
2.403634481
2.478047111
2.399578523
2.406618015
2.408637129
2.432955987
2.446552161
2.449203646
2.502004982
2.467323797
2.447029486
2.405250059
2.404270313
2.400775939
2.440482557
2.445451101
2.413329091
2.408526971
2.456859874
2.487168707
2.448372363
2.451354769
2.442315522
2.447758148
2.414358302
2.431608083
2.438271417
2.410174242
2.409163207
2.445001304
2.427563701
2.420977282
2.422692506
2.425349911
2.394590742
2.429065257
2.465209698
2.412328757
2.412090849
2.430334593
2.417265007
2.400665829
2.416092024
2.358670518
2.384716971
2.423853047
2.368535614
2.376329125
2.402019404
2.442909515
2.435736837
2.370999545
2.390484248
2.439006626
2.380485252
2.405154809
2.413248765
2.361417077
2.420301529
2.405027014
2.397497501
2.402877001
2.42707061
2.368698551
2.413398757
2.377838635
2.386468716
2.42438181
2.402282875
2.410218529
2.41077781
2.439130592
2.374635061
2.368263613
2.404907147
2.392669483
2.424969375
2.419108359
2.417439683
2.446733055
2.437458782
2.390349878
2.389301267
2.368600046
2.437177238
2.442831386
2.465315618
2.476631252
2.472760148
2.389848748
2.415816094
2.396741794
2.45284215
2.507783867
2.473755848
2.463530954
2.446153707
2.44319925
2.467857419
2.448830747
2.455059267
2.458960053
2.469367344
2.488671668
2.477001755
2.445903052
2.459626193
2.437507446
2.434031233
2.463003684
2.407426836
2.48116438
2.42146136
2.4704002
2.451215852
2.418641156
2.391479703
2.439021866
2.43141822
2.416331088
2.431815995
2.457251907
2.423761604
2.448873197
2.445098303
2.463676869
2.441054645
2.460990697
2.431190477
2.423591772
2.457920792
2.414161289
2.394952206
2.420707605
2.45480669
2.358975801
2.376247519
2.403397348
2.414986388
2.452541612
2.411314268
2.401525763
2.367028751
2.448740137
2.407153036
2.370494427
2.37360455
2.446189673
2.461638166
2.451387852
2.46565872
2.44329576
2.494028271
2.459601747
2.488554929
2.489044438
2.484974339
2.45136502
2.439846565
2.457548478
2.430115187
2.403778248
2.45615385
2.454005121
2.445055208
2.485085532
2.504689877
2.472063407
2.508478427
2.530289195
2.511427
2.479627316
2.453779567
2.430307666
2.431084808
2.420493937
2.422315734
2.453201266
2.406139698
2.391647431
2.386490623
2.375159682
2.431110567
2.428340937
2.416081199
2.38798089
2.401788305
2.380275615
2.368571689
2.335013576
2.392997116
2.4317802
2.378846787
2.385249603
2.398183814
2.392386895
2.398075756
2.411601734
2.416322597
2.427059495
2.40612021
)
;

boundaryField
{
    bottom
    {
        type            calculated;
        value           nonuniform List<scalar> 
200
(
2.460273396
2.444437162
2.443793984
2.416111494
2.406258343
2.455409413
2.44246802
2.478426518
2.475607116
2.452889465
2.440968794
2.440101789
2.44707614
2.456657705
2.385755138
2.428286847
2.436298708
2.470528015
2.455021199
2.449781256
2.469202937
2.415113938
2.417222105
2.44872276
2.412295395
2.482549984
2.444668506
2.387762428
2.413976681
2.427065936
2.449519663
2.450038325
2.465423414
2.453299307
2.397217173
2.456547545
2.416001842
2.429927095
2.40983948
2.373618447
2.389085646
2.425997025
2.407203509
2.414010558
2.3924023
2.387685412
2.434153044
2.44269952
2.446402591
2.461153027
2.438380964
2.433783841
2.406863486
2.43575672
2.463638181
2.445433453
2.410667256
2.429555571
2.435607068
2.439985961
2.405670774
2.370363157
2.404684633
2.379841081
2.431308376
2.413526652
2.42264084
2.427081485
2.434294499
2.422068168
2.418085542
2.449459681
2.41223018
2.44708446
2.455446119
2.4589165
2.446577116
2.460643078
2.396959973
2.437355938
2.380985098
2.362425154
2.430508284
2.461605834
2.444762099
2.438936438
2.420215883
2.47083718
2.422603962
2.411131058
2.428488086
2.436815669
2.457786797
2.382265943
2.470081836
2.487759144
2.50024678
2.508556059
2.446675485
2.443960831
2.442387454
2.412218689
2.448600067
2.516143594
2.475606392
2.440726338
2.467642991
2.451210658
2.435676589
2.448616778
2.422380903
2.417767022
2.432891823
2.426533264
2.444521776
2.461176548
2.399975371
2.413000109
2.442126731
2.37856748
2.409674711
2.441712126
2.438815234
2.465026533
2.457206841
2.459616432
2.424970836
2.439177857
2.444577306
2.383782371
2.404436507
2.446242799
2.433685064
2.461893808
2.440220299
2.452742552
2.404927596
2.400392834
2.390244857
2.385763809
2.416336561
2.436472712
2.421500519
2.450140938
2.452903572
2.420057653
2.445891535
2.425079248
2.458379009
2.454966218
2.431746702
2.398652029
2.433294297
2.47509788
2.446251221
2.482928043
2.489658887
2.495712682
2.458085289
2.466402382
2.415755402
2.414368501
2.476006169
2.468457856
2.456809738
2.461179014
2.471585661
2.456959486
2.45672494
2.428790623
2.433955137
2.396433991
2.376070943
2.445795297
2.444827652
2.458113011
2.424450126
2.385855706
2.452982857
2.470267266
2.433855627
2.436276668
2.438620607
2.408178145
2.417599916
2.407473428
2.412679667
2.417777676
2.395426542
2.455299747
2.464047202
2.453375547
2.440149783
2.466058251
2.513729659
2.513518892
2.45579677
2.45245111
2.45849501
2.41799999
)
;
    }
    top
    {
        type            calculated;
        value           nonuniform List<scalar> 
200
(
2.478047111
2.399578523
2.406618015
2.408637129
2.432955987
2.446552161
2.449203646
2.502004982
2.467323797
2.447029486
2.405250059
2.404270313
2.400775939
2.440482557
2.445451101
2.413329091
2.408526971
2.456859874
2.487168707
2.448372363
2.451354769
2.442315522
2.447758148
2.414358302
2.431608083
2.438271417
2.410174242
2.409163207
2.445001304
2.427563701
2.420977282
2.422692506
2.425349911
2.394590742
2.429065257
2.465209698
2.412328757
2.412090849
2.430334593
2.417265007
2.400665829
2.416092024
2.358670518
2.384716971
2.423853047
2.368535614
2.376329125
2.402019404
2.442909515
2.435736837
2.370999545
2.390484248
2.439006626
2.380485252
2.405154809
2.413248765
2.361417077
2.420301529
2.405027014
2.397497501
2.402877001
2.42707061
2.368698551
2.413398757
2.377838635
2.386468716
2.42438181
2.402282875
2.410218529
2.41077781
2.439130592
2.374635061
2.368263613
2.404907147
2.392669483
2.424969375
2.419108359
2.417439683
2.446733055
2.437458782
2.390349878
2.389301267
2.368600046
2.437177238
2.442831386
2.465315618
2.476631252
2.472760148
2.389848748
2.415816094
2.396741794
2.45284215
2.507783867
2.473755848
2.463530954
2.446153707
2.44319925
2.467857419
2.448830747
2.455059267
2.458960053
2.469367344
2.488671668
2.477001755
2.445903052
2.459626193
2.437507446
2.434031233
2.463003684
2.407426836
2.48116438
2.42146136
2.4704002
2.451215852
2.418641156
2.391479703
2.439021866
2.43141822
2.416331088
2.431815995
2.457251907
2.423761604
2.448873197
2.445098303
2.463676869
2.441054645
2.460990697
2.431190477
2.423591772
2.457920792
2.414161289
2.394952206
2.420707605
2.45480669
2.358975801
2.376247519
2.403397348
2.414986388
2.452541612
2.411314268
2.401525763
2.367028751
2.448740137
2.407153036
2.370494427
2.37360455
2.446189673
2.461638166
2.451387852
2.46565872
2.44329576
2.494028271
2.459601747
2.488554929
2.489044438
2.484974339
2.45136502
2.439846565
2.457548478
2.430115187
2.403778248
2.45615385
2.454005121
2.445055208
2.485085532
2.504689877
2.472063407
2.508478427
2.530289195
2.511427
2.479627316
2.453779567
2.430307666
2.431084808
2.420493937
2.422315734
2.453201266
2.406139698
2.391647431
2.386490623
2.375159682
2.431110567
2.428340937
2.416081199
2.38798089
2.401788305
2.380275615
2.368571689
2.335013576
2.392997116
2.4317802
2.378846787
2.385249603
2.398183814
2.392386895
2.398075756
2.411601734
2.416322597
2.427059495
2.40612021
)
;
    }
    inlet
    {
        type            cyclic;
    }
    outlet
    {
        type            cyclic;
    }
    back
    {
        type            symmetry;
    }
    front
    {
        type            symmetry;
    }
}


// ************************************************************************* //
