/*--------------------------------*- C++ -*----------------------------------*\
| =========                 |                                                 |
| \\      /  F ield         | OpenFOAM: The Open Source CFD Toolbox           |
|  \\    /   O peration     | Version:  v1612+                                |
|   \\  /    A nd           | Web:      www.OpenFOAM.com                      |
|    \\/     M anipulation  |                                                 |
\*---------------------------------------------------------------------------*/
FoamFile
{
    version     2.0;
    format      ascii;
    class       volScalarField;
    location    "0.2";
    object      p_Ar1;
}
// * * * * * * * * * * * * * * * * * * * * * * * * * * * * * * * * * * * * * //

dimensions      [1 -1 -2 0 0 0 0];

internalField   nonuniform List<scalar> 
1000
(
0.5172486385
0.5204437096
0.5197904769
0.5252900297
0.5358938391
0.5226642533
0.5271671384
0.5261532258
0.5182882542
0.5245659813
0.5294572116
0.5342098402
0.5288114877
0.5262641505
0.5382367232
0.5222807029
0.5219175264
0.5200760227
0.5217107163
0.5207724457
0.5297675825
0.5315002548
0.527798462
0.5238061257
0.5362948338
0.519234407
0.5280442194
0.5380574735
0.5264789982
0.5273428604
0.5236036661
0.5251064813
0.5242469044
0.5234089652
0.5339671983
0.5175955232
0.5271329459
0.5267297412
0.527002336
0.5273246433
0.5283577515
0.5292616692
0.5310828874
0.5226808059
0.5212596798
0.5248988529
0.520108406
0.5197583658
0.5226047617
0.5278747233
0.5255454518
0.5232682188
0.5250662675
0.5167227246
0.5230945157
0.5233493312
0.5353957264
0.5254244203
0.5325585679
0.5251132929
0.5280359158
0.5394842783
0.5336697658
0.5312175006
0.5315339322
0.5275689816
0.5302235383
0.5262874923
0.5231493735
0.5285680768
0.5301483761
0.5309084665
0.5361372353
0.5246104176
0.5271638294
0.5243066986
0.523446953
0.5201742434
0.5334609943
0.5235928492
0.5336341045
0.5360271863
0.5215945395
0.5200269972
0.5289888268
0.5260720527
0.5363017369
0.5317241568
0.5385785717
0.540128888
0.5371479206
0.5318726879
0.5326395479
0.5439197825
0.5315071441
0.5252159517
0.5250340669
0.5194711003
0.5264659711
0.5257064886
0.5351229807
0.5305742495
0.5262659997
0.5158344621
0.5254118227
0.5295003797
0.5238681357
0.5326849762
0.5329481563
0.5285814479
0.5409735944
0.534002342
0.5321674159
0.5343560123
0.52669672
0.5229383394
0.5299427679
0.531171182
0.523040404
0.5396113483
0.5233210541
0.5248932546
0.5359315936
0.5268013455
0.5241305509
0.5265564365
0.5267408862
0.5277699146
0.5273319286
0.5342294682
0.5306123357
0.5150150419
0.5260274195
0.5242310333
0.522773545
0.5228758071
0.5319992931
0.5237742581
0.5307620229
0.5393869471
0.5268633998
0.5279476665
0.5292205453
0.5256881887
0.5237375757
0.5279937164
0.5299263098
0.5360444126
0.5316090944
0.5311179561
0.5325497216
0.5347117635
0.5408068189
0.5257445136
0.5257837902
0.5238516542
0.5172539537
0.5213853386
0.5265259149
0.5291407757
0.5359954253
0.5375004767
0.527917032
0.5219099699
0.5259759491
0.5228193708
0.5184431242
0.528383914
0.525021363
0.5275656006
0.53152941
0.5339621143
0.539931303
0.533450334
0.5213823353
0.5178074101
0.5299961865
0.537654074
0.5327893947
0.5276219019
0.530708833
0.5319058396
0.5291039308
0.5323748866
0.5248445495
0.5335432841
0.522950728
0.519309656
0.5349138711
0.5197858678
0.5229867518
0.5206665153
0.5264324968
0.5269341801
0.508763195
0.5091031566
0.5222305003
0.5247108972
0.5219913145
0.5255302489
0.5173702985
0.5209413338
0.5217415353
0.5282584571
0.5207240679
0.5243673935
0.5265982679
0.5250199121
0.5253255629
0.5213688284
0.5374030991
0.5292372088
0.5261894878
0.5300141036
0.5364093937
0.5184689671
0.5109180258
0.5217481307
0.5348825334
0.5277482137
0.5274614257
0.5291403924
0.5253112005
0.5321699836
0.5149175783
0.5241576375
0.5284280615
0.5229101947
0.5246736006
0.5253811019
0.5311069992
0.5239914881
0.5303131719
0.5285732401
0.5216112167
0.5213446024
0.5263919726
0.5281752929
0.5277896606
0.5251760628
0.5279837435
0.5188119345
0.5247002388
0.5290123108
0.5409809349
0.5332902859
0.53068829
0.5252906867
0.524367496
0.5308983801
0.5227580121
0.5188705893
0.5149829042
0.5234761848
0.5319189539
0.5242927329
0.5311399046
0.5273011967
0.5341379062
0.543353671
0.5326755759
0.5298539786
0.5304639855
0.5383190784
0.5310554689
0.5330948627
0.5291884534
0.5264299861
0.5296683584
0.5252299511
0.5304400509
0.5329816072
0.5275278402
0.5336681558
0.5283224591
0.5254531416
0.5278092528
0.5273523211
0.5237949005
0.5190991466
0.5264161412
0.5219677916
0.5264406779
0.5348350906
0.5290210917
0.5220494178
0.5342957914
0.528941262
0.5297262618
0.530049784
0.5302533801
0.5398279456
0.5320085131
0.5353115554
0.5311316523
0.5301928503
0.5327204504
0.5258648845
0.5313271683
0.5338975626
0.5255596582
0.5312496059
0.5353897107
0.5322519733
0.5259400288
0.5360015954
0.5298473683
0.5244838911
0.5276610391
0.5366425599
0.5368570516
0.5326204479
0.5344353211
0.521166958
0.5287512486
0.5309657357
0.534345727
0.5319390044
0.5339190056
0.5260772167
0.5311517871
0.5210263032
0.5231614386
0.5217985986
0.5321064171
0.5232782415
0.5294251788
0.5243429617
0.5373796049
0.5241072341
0.518789776
0.5195797306
0.5270671274
0.5200111735
0.5391761491
0.5246660951
0.5148847876
0.529430477
0.5272813966
0.5368409133
0.5331236236
0.5350473433
0.528566591
0.5302928842
0.5249720709
0.530564184
0.5309975563
0.5333575756
0.5325803196
0.5365979599
0.5310739676
0.5280544562
0.5311143285
0.5287445896
0.5314112188
0.5205828274
0.5209291396
0.5234919029
0.5275863905
0.5263440006
0.527165648
0.5182921742
0.5184939116
0.5234688123
0.5156939455
0.530748714
0.5262076282
0.5300787708
0.5259557283
0.5313519333
0.5232462367
0.525513543
0.5285739198
0.5217680081
0.5228509039
0.5234614215
0.5268433674
0.5238689481
0.5160369722
0.525244325
0.5337968238
0.5343150458
0.5341971306
0.5389403352
0.5259414138
0.5242474657
0.5230553683
0.5215829319
0.5286426977
0.5305993485
0.5231770248
0.5316724464
0.5305612538
0.5290926908
0.5181359419
0.5272209709
0.517264363
0.5161748254
0.5259025793
0.5199220809
0.5275360008
0.5220385237
0.5237258946
0.529978253
0.531161868
0.523434342
0.517668721
0.5302215425
0.5296425829
0.530550505
0.5204280198
0.530751478
0.528266517
0.532722677
0.5272522447
0.5326800681
0.5177162598
0.5304568439
0.515993876
0.533824443
0.5285676275
0.5373379879
0.5245975622
0.5234498167
0.5236669007
0.5171241453
0.5180389861
0.525705338
0.525917605
0.5216169931
0.5210981631
0.5309762791
0.5323174607
0.5232543608
0.5272678209
0.5209820817
0.5125357338
0.5269388855
0.5271105978
0.5348662532
0.5337069204
0.5341263841
0.5300529849
0.5252447138
0.529453385
0.5279682565
0.5334438608
0.5325357067
0.5334554489
0.5219832129
0.5221560175
0.52482629
0.5286483304
0.5306823779
0.5275603294
0.5270702668
0.5354063726
0.5308762468
0.5247567469
0.5231390966
0.5291295736
0.5303718553
0.5243774196
0.5240041795
0.5235855451
0.5202214377
0.525258215
0.5350853313
0.5293125382
0.5267723222
0.5330790075
0.5430489957
0.5374551755
0.5278087496
0.5199871785
0.5230921813
0.5302531669
0.5242793804
0.5213069549
0.5152516929
0.5229524525
0.5356519246
0.5332904251
0.5286189625
0.5153525764
0.5225917952
0.5294150459
0.5282789854
0.5208362547
0.5300242621
0.5337780589
0.53491676
0.5295582661
0.5266499497
0.5302851931
0.5227187965
0.5330232369
0.520718123
0.5207278217
0.5306070321
0.517531947
0.5185317561
0.524772616
0.5370905125
0.5265171985
0.5288570565
0.5300304794
0.5202080992
0.5383503268
0.5281171455
0.5226707444
0.525280357
0.5292250626
0.529958906
0.5259141243
0.5289386503
0.5300667817
0.5285127577
0.5199166925
0.5345133726
0.5266465905
0.5312538885
0.5222165083
0.5246760388
0.5285483816
0.5296450536
0.5363750205
0.5201899547
0.529749635
0.5312741758
0.5334522757
0.5198499145
0.519040156
0.5299926074
0.5167239967
0.5200442609
0.5229904225
0.5245842328
0.5259015507
0.5219979891
0.5259712798
0.5244102262
0.5244591149
0.5336596665
0.5270411084
0.5287142977
0.5317927033
0.5295158114
0.5379776554
0.5235935537
0.5217902893
0.5256529621
0.529062512
0.5326010713
0.5237830235
0.5182714398
0.5192960199
0.5262940722
0.5193143119
0.5166285787
0.524129067
0.5257506531
0.5255125978
0.5280353017
0.5253284723
0.5280719163
0.5192497228
0.5229531621
0.5242070175
0.524286296
0.5214376594
0.514632772
0.5274761678
0.53048192
0.5224607664
0.5281954207
0.5195452412
0.5224315083
0.5205078857
0.5278738926
0.5416311324
0.5271677162
0.5277869354
0.526432805
0.5225423388
0.5197638419
0.5219231749
0.5272154053
0.5311963188
0.5275033465
0.5297081835
0.5181231332
0.5265402227
0.5388188529
0.5254325266
0.527181741
0.5251283747
0.524735908
0.5261576454
0.5208109809
0.5243603993
0.5211015019
0.5220660824
0.5272060177
0.5230273752
0.5341737212
0.5209051114
0.5184393295
0.5293855813
0.5276221199
0.5197116868
0.5257716861
0.5326321033
0.5307704906
0.5296095871
0.5329377227
0.5317830755
0.532150539
0.5222581517
0.525560288
0.5259025127
0.5345737787
0.5270202669
0.5258948957
0.5226763024
0.510961334
0.525042289
0.5217046519
0.5250903406
0.5279756804
0.5226370666
0.5233363148
0.5286562379
0.5333198106
0.5234837275
0.534712823
0.5286072424
0.537802689
0.5218387555
0.5267316986
0.524939069
0.5304623466
0.5254224504
0.5336031975
0.52499573
0.5255406816
0.5317296708
0.5257365397
0.5309993869
0.5203573593
0.5261255093
0.5295663945
0.5309060901
0.5227874213
0.533686436
0.5358244376
0.5302884745
0.5285596614
0.5287067666
0.5286813722
0.5262802026
0.5214567787
0.5258762642
0.5234139956
0.53485784
0.5273240715
0.5297200618
0.5310331338
0.5296178564
0.536384007
0.5251608686
0.5301298183
0.5364375121
0.5231380884
0.5206449778
0.5439310262
0.5327463325
0.5296566027
0.5326496543
0.5173164429
0.525359928
0.5355551517
0.5338988498
0.5359897172
0.5241099844
0.527102123
0.5330237651
0.5210473486
0.5402191778
0.537670192
0.5294145325
0.5253210212
0.5185388405
0.5286821393
0.5384522671
0.5324502376
0.5294298043
0.5149553995
0.5210677482
0.5304580084
0.5195353603
0.5154362424
0.5263867916
0.5243054239
0.5273599815
0.5347135878
0.5224816181
0.5235037935
0.5314221656
0.5271497693
0.5317871939
0.5231698786
0.5288340893
0.5285984974
0.5154758205
0.5276874444
0.5316642039
0.5361280199
0.5369350953
0.5305213749
0.5325138093
0.5272275001
0.5285492462
0.5292932872
0.5214772912
0.5206506456
0.5340272329
0.5316220706
0.5292790907
0.5232182841
0.5197757904
0.5211888291
0.5303238899
0.5287706157
0.5254301502
0.5197138725
0.5393992259
0.5324228665
0.5330470592
0.5323987206
0.5244013406
0.5287526758
0.5276825851
0.5237778107
0.5301946549
0.5352253714
0.5337137396
0.5405868859
0.5292105433
0.5202083212
0.5294306674
0.5303380711
0.5320480192
0.5349126312
0.5266092299
0.5272894388
0.5170882922
0.5301677377
0.5246321246
0.5276816128
0.5279100744
0.5242346092
0.5329417853
0.5272398003
0.5243472409
0.5249473721
0.5170585218
0.5145852688
0.5272370895
0.5325151659
0.5232574051
0.5311302777
0.5284837456
0.530192175
0.5347319162
0.5195867984
0.5181741821
0.5380001463
0.5375919069
0.5265526208
0.5332417204
0.5197850785
0.5199631788
0.5234432941
0.5234798482
0.5215635136
0.5243895247
0.5316615576
0.5297817048
0.5305457479
0.5287978034
0.5234325725
0.5340815843
0.5267473901
0.5365332531
0.5254681246
0.5241889974
0.5277065309
0.5215012502
0.5246891308
0.5041342939
0.5293737233
0.5296907864
0.5248495511
0.5305743709
0.523244074
0.5171812701
0.5084044894
0.5214276023
0.5246724507
0.5309327871
0.5270264382
0.5290133446
0.5267505896
0.5205684413
0.5274522232
0.5282863437
0.5216199448
0.5160287054
0.5244325092
0.5157055901
0.5231730825
0.5174211824
0.5279893242
0.5225220022
0.5250919517
0.5282196465
0.5258393469
0.527316467
0.531527899
0.5295913918
0.5257809647
0.5247000432
0.5293462228
0.5342398174
0.5147799168
0.5290642754
0.5260143609
0.5200823886
0.5270599234
0.5277708999
0.5198638401
0.5290826106
0.5335866058
0.5241140918
0.5350148197
0.5331910743
0.5360953407
0.5286455087
0.5276259347
0.5384923805
0.5311676044
0.5188749389
0.5368661308
0.5339315204
0.5283481117
0.5398666865
0.5307177729
0.5269517812
0.5255240191
0.5240868251
0.5221745778
0.5251289049
0.5285200079
0.5402504605
0.5340473015
0.5293792887
0.5321975733
0.5312757392
0.5264945056
0.521590936
0.5369159708
0.536023382
0.5269759823
0.5351527082
0.5337076422
0.5224419399
0.5320540495
0.5203942669
0.5287994084
0.5344229651
0.5414684845
0.5368806275
0.5252933943
0.5225918659
0.5182187519
0.5163532752
0.5219028272
0.5373249319
0.5335892267
0.5452889084
0.5316489145
0.5205500147
0.5261853589
0.5263699638
0.531271072
0.5305376381
0.5238622905
0.5277538972
0.5294796611
0.531066597
0.5306501488
0.5216110267
0.5259744734
0.5294444716
0.5247921401
0.5242272116
0.5307408067
0.5256734064
0.5393169837
0.5233396221
0.538615912
0.522078018
0.5264537636
0.536495271
0.5425013741
0.5349828011
0.536813549
0.5295153639
0.5279269987
0.5266465529
0.5303246504
0.5246793829
0.5200468524
0.5206138193
0.5292424289
0.5194417288
0.5233381945
0.5307525038
0.5203207079
0.5260384326
0.527446818
0.5165704548
0.5174667553
0.5341228632
0.5348867196
0.5294076674
0.5319957977
0.5227541548
0.5277080724
0.5325042849
0.536581105
0.5266898209
0.5327584579
0.5409438684
0.5348174546
0.5286501481
0.5314583929
0.5268426052
0.5209582691
0.5371615329
0.51632275
0.5206407758
0.5258721626
0.5290181112
0.5286786772
0.5278032963
0.5286374258
0.5300707431
0.532440747
0.5374069187
0.5235690782
0.5191596511
0.5330003956
0.5155265851
0.5154574112
0.5253722203
0.5141606189
0.5091301107
0.5217847403
0.5221122273
0.5283467279
0.5301189936
0.5313240111
0.531772517
0.5309464204
0.5294725265
0.5355670522
0.5390279409
0.5382909389
0.5427659537
0.5215989341
0.5276174193
0.5263541441
0.5230983701
0.5198171356
0.5356190499
0.5329245917
0.5391958101
0.5371975836
0.5280837929
0.534901089
0.5339912424
0.5327202095
0.5316885687
0.5319259522
0.5315202658
0.5260774432
0.5239012221
0.5290048404
)
;

boundaryField
{
    bottom
    {
        type            calculated;
        value           nonuniform List<scalar> 
200
(
0.5172486385
0.5204437096
0.5197904769
0.5252900297
0.5358938391
0.5226642533
0.5271671384
0.5261532258
0.5182882542
0.5245659813
0.5294572116
0.5342098402
0.5288114877
0.5262641505
0.5382367232
0.5222807029
0.5219175264
0.5200760227
0.5217107163
0.5207724457
0.5297675825
0.5315002548
0.527798462
0.5238061257
0.5362948338
0.519234407
0.5280442194
0.5380574735
0.5264789982
0.5273428604
0.5236036661
0.5251064813
0.5242469044
0.5234089652
0.5339671983
0.5175955232
0.5271329459
0.5267297412
0.527002336
0.5273246433
0.5283577515
0.5292616692
0.5310828874
0.5226808059
0.5212596798
0.5248988529
0.520108406
0.5197583658
0.5226047617
0.5278747233
0.5255454518
0.5232682188
0.5250662675
0.5167227246
0.5230945157
0.5233493312
0.5353957264
0.5254244203
0.5325585679
0.5251132929
0.5280359158
0.5394842783
0.5336697658
0.5312175006
0.5315339322
0.5275689816
0.5302235383
0.5262874923
0.5231493735
0.5285680768
0.5301483761
0.5309084665
0.5361372353
0.5246104176
0.5271638294
0.5243066986
0.523446953
0.5201742434
0.5334609943
0.5235928492
0.5336341045
0.5360271863
0.5215945395
0.5200269972
0.5289888268
0.5260720527
0.5363017369
0.5317241568
0.5385785717
0.540128888
0.5371479206
0.5318726879
0.5326395479
0.5439197825
0.5315071441
0.5252159517
0.5250340669
0.5194711003
0.5264659711
0.5257064886
0.5351229807
0.5305742495
0.5262659997
0.5158344621
0.5254118227
0.5295003797
0.5238681357
0.5326849762
0.5329481563
0.5285814479
0.5409735944
0.534002342
0.5321674159
0.5343560123
0.52669672
0.5229383394
0.5299427679
0.531171182
0.523040404
0.5396113483
0.5233210541
0.5248932546
0.5359315936
0.5268013455
0.5241305509
0.5265564365
0.5267408862
0.5277699146
0.5273319286
0.5342294682
0.5306123357
0.5150150419
0.5260274195
0.5242310333
0.522773545
0.5228758071
0.5319992931
0.5237742581
0.5307620229
0.5393869471
0.5268633998
0.5279476665
0.5292205453
0.5256881887
0.5237375757
0.5279937164
0.5299263098
0.5360444126
0.5316090944
0.5311179561
0.5325497216
0.5347117635
0.5408068189
0.5257445136
0.5257837902
0.5238516542
0.5172539537
0.5213853386
0.5265259149
0.5291407757
0.5359954253
0.5375004767
0.527917032
0.5219099699
0.5259759491
0.5228193708
0.5184431242
0.528383914
0.525021363
0.5275656006
0.53152941
0.5339621143
0.539931303
0.533450334
0.5213823353
0.5178074101
0.5299961865
0.537654074
0.5327893947
0.5276219019
0.530708833
0.5319058396
0.5291039308
0.5323748866
0.5248445495
0.5335432841
0.522950728
0.519309656
0.5349138711
0.5197858678
0.5229867518
0.5206665153
0.5264324968
0.5269341801
0.508763195
0.5091031566
0.5222305003
0.5247108972
0.5219913145
0.5255302489
)
;
    }
    top
    {
        type            calculated;
        value           nonuniform List<scalar> 
200
(
0.5041342939
0.5293737233
0.5296907864
0.5248495511
0.5305743709
0.523244074
0.5171812701
0.5084044894
0.5214276023
0.5246724507
0.5309327871
0.5270264382
0.5290133446
0.5267505896
0.5205684413
0.5274522232
0.5282863437
0.5216199448
0.5160287054
0.5244325092
0.5157055901
0.5231730825
0.5174211824
0.5279893242
0.5225220022
0.5250919517
0.5282196465
0.5258393469
0.527316467
0.531527899
0.5295913918
0.5257809647
0.5247000432
0.5293462228
0.5342398174
0.5147799168
0.5290642754
0.5260143609
0.5200823886
0.5270599234
0.5277708999
0.5198638401
0.5290826106
0.5335866058
0.5241140918
0.5350148197
0.5331910743
0.5360953407
0.5286455087
0.5276259347
0.5384923805
0.5311676044
0.5188749389
0.5368661308
0.5339315204
0.5283481117
0.5398666865
0.5307177729
0.5269517812
0.5255240191
0.5240868251
0.5221745778
0.5251289049
0.5285200079
0.5402504605
0.5340473015
0.5293792887
0.5321975733
0.5312757392
0.5264945056
0.521590936
0.5369159708
0.536023382
0.5269759823
0.5351527082
0.5337076422
0.5224419399
0.5320540495
0.5203942669
0.5287994084
0.5344229651
0.5414684845
0.5368806275
0.5252933943
0.5225918659
0.5182187519
0.5163532752
0.5219028272
0.5373249319
0.5335892267
0.5452889084
0.5316489145
0.5205500147
0.5261853589
0.5263699638
0.531271072
0.5305376381
0.5238622905
0.5277538972
0.5294796611
0.531066597
0.5306501488
0.5216110267
0.5259744734
0.5294444716
0.5247921401
0.5242272116
0.5307408067
0.5256734064
0.5393169837
0.5233396221
0.538615912
0.522078018
0.5264537636
0.536495271
0.5425013741
0.5349828011
0.536813549
0.5295153639
0.5279269987
0.5266465529
0.5303246504
0.5246793829
0.5200468524
0.5206138193
0.5292424289
0.5194417288
0.5233381945
0.5307525038
0.5203207079
0.5260384326
0.527446818
0.5165704548
0.5174667553
0.5341228632
0.5348867196
0.5294076674
0.5319957977
0.5227541548
0.5277080724
0.5325042849
0.536581105
0.5266898209
0.5327584579
0.5409438684
0.5348174546
0.5286501481
0.5314583929
0.5268426052
0.5209582691
0.5371615329
0.51632275
0.5206407758
0.5258721626
0.5290181112
0.5286786772
0.5278032963
0.5286374258
0.5300707431
0.532440747
0.5374069187
0.5235690782
0.5191596511
0.5330003956
0.5155265851
0.5154574112
0.5253722203
0.5141606189
0.5091301107
0.5217847403
0.5221122273
0.5283467279
0.5301189936
0.5313240111
0.531772517
0.5309464204
0.5294725265
0.5355670522
0.5390279409
0.5382909389
0.5427659537
0.5215989341
0.5276174193
0.5263541441
0.5230983701
0.5198171356
0.5356190499
0.5329245917
0.5391958101
0.5371975836
0.5280837929
0.534901089
0.5339912424
0.5327202095
0.5316885687
0.5319259522
0.5315202658
0.5260774432
0.5239012221
0.5290048404
)
;
    }
    inlet
    {
        type            cyclic;
    }
    outlet
    {
        type            cyclic;
    }
    back
    {
        type            symmetry;
    }
    front
    {
        type            symmetry;
    }
}


// ************************************************************************* //
