/*--------------------------------*- C++ -*----------------------------------*\
| =========                 |                                                 |
| \\      /  F ield         | OpenFOAM: The Open Source CFD Toolbox           |
|  \\    /   O peration     | Version:  v1612+                                |
|   \\  /    A nd           | Web:      www.OpenFOAM.com                      |
|    \\/     M anipulation  |                                                 |
\*---------------------------------------------------------------------------*/
FoamFile
{
    version     2.0;
    format      ascii;
    class       volScalarField;
    location    "0.2";
    object      rhoM_Ar1;
}
// * * * * * * * * * * * * * * * * * * * * * * * * * * * * * * * * * * * * * //

dimensions      [0 -3 0 0 0 0 0];

internalField   nonuniform List<scalar> 
1000
(
9.18392904e-06
9.2440764e-06
9.24980472e-06
9.35768808e-06
9.3610296e-06
9.18392904e-06
9.22545936e-06
9.06458904e-06
9.10946088e-06
9.18774792e-06
9.22307256e-06
9.20779704e-06
9.19729512e-06
9.16340256e-06
9.45077328e-06
9.31233888e-06
9.27605952e-06
9.12521376e-06
9.18965736e-06
9.2178216e-06
9.09179856e-06
9.33668424e-06
9.3419352e-06
9.21018384e-06
9.33047856e-06
9.07413624e-06
9.21161592e-06
9.44170344e-06
9.36293904e-06
9.29706336e-06
9.20731968e-06
9.1987272e-06
9.13141944e-06
9.19061208e-06
9.41258448e-06
9.19968192e-06
9.35052768e-06
9.28608408e-06
9.38060136e-06
9.55626984e-06
9.475596e-06
9.2941992e-06
9.37630512e-06
9.37869192e-06
9.48943944e-06
9.4970772e-06
9.29372184e-06
9.25505568e-06
9.22593672e-06
9.13619304e-06
9.2512368e-06
9.2822652e-06
9.40303728e-06
9.30040488e-06
9.14430816e-06
9.2273688e-06
9.3419352e-06
9.29324448e-06
9.23548392e-06
9.24550848e-06
9.39635424e-06
9.52142256e-06
9.3777372e-06
9.5090112e-06
9.25982928e-06
9.36055224e-06
9.3061332e-06
9.3013596e-06
9.28035576e-06
9.3156804e-06
9.32809176e-06
9.17772336e-06
9.33143328e-06
9.21448008e-06
9.165312e-06
9.16101576e-06
9.22164048e-06
9.1700856e-06
9.415926e-06
9.26412552e-06
9.49325832e-06
9.57536424e-06
9.30470112e-06
9.16626672e-06
9.20731968e-06
9.2464632e-06
9.29276712e-06
9.07652304e-06
9.27224064e-06
9.320454e-06
9.25028208e-06
9.23261976e-06
9.13237416e-06
9.4445676e-06
9.08081928e-06
9.02640024e-06
8.97150384e-06
8.95718304e-06
9.20875176e-06
9.22450464e-06
9.19347624e-06
9.35434656e-06
9.20063664e-06
8.938566e-06
9.08034192e-06
9.22402728e-06
9.12282696e-06
9.16244784e-06
9.23357448e-06
9.19108944e-06
9.26364816e-06
9.31377096e-06
9.24980472e-06
9.27080856e-06
9.2178216e-06
9.15624216e-06
9.415926e-06
9.34814088e-06
9.2440764e-06
9.4803696e-06
9.3968316e-06
9.23834808e-06
9.20684232e-06
9.12282696e-06
9.16960824e-06
9.1486044e-06
9.30947472e-06
9.23834808e-06
9.21495744e-06
9.47702808e-06
9.39158064e-06
9.2583972e-06
9.27128592e-06
9.14764968e-06
9.25410096e-06
9.19538568e-06
9.38346552e-06
9.439794e-06
9.45984312e-06
9.44599968e-06
9.35005032e-06
9.25028208e-06
9.3156804e-06
9.19586304e-06
9.19108944e-06
9.3276144e-06
9.19824984e-06
9.27080856e-06
9.13380624e-06
9.15146856e-06
9.2536236e-06
9.40255992e-06
9.213048e-06
9.08129664e-06
9.21352536e-06
9.05360976e-06
9.05026824e-06
9.00635112e-06
9.1557648e-06
9.10707408e-06
9.31520304e-06
9.3156804e-06
9.06840792e-06
9.1271232e-06
9.16387992e-06
9.15671952e-06
9.1271232e-06
9.153378e-06
9.16817616e-06
9.28799352e-06
9.24741792e-06
9.41640336e-06
9.49134888e-06
9.1844064e-06
9.23834808e-06
9.1915668e-06
9.29849544e-06
9.45268272e-06
9.15385536e-06
9.09561744e-06
9.2512368e-06
9.23500656e-06
9.23548392e-06
9.36628056e-06
9.35243712e-06
9.36484848e-06
9.38394288e-06
9.37487304e-06
9.41735808e-06
9.1963404e-06
9.14287608e-06
9.20159136e-06
9.2393028e-06
9.117576e-06
8.97818688e-06
8.97770952e-06
9.18392904e-06
9.18918e-06
9.1724724e-06
9.34766352e-06
9.224982e-06
9.28894824e-06
9.3634164e-06
9.25075944e-06
9.1867932e-06
9.27940104e-06
9.31233888e-06
9.3538692e-06
9.20779704e-06
9.20445552e-06
9.36675792e-06
9.22593672e-06
9.08129664e-06
9.23882544e-06
9.37869192e-06
9.28894824e-06
9.03356064e-06
9.13571568e-06
9.4206996e-06
9.27176328e-06
9.17342712e-06
9.1963404e-06
9.28321992e-06
9.26173872e-06
9.0889344e-06
9.2345292e-06
9.24359904e-06
9.23166504e-06
9.32475024e-06
9.40446936e-06
9.4970772e-06
9.27653688e-06
9.31758984e-06
9.21495744e-06
9.2393028e-06
9.28035576e-06
9.30661056e-06
9.37105416e-06
9.3013596e-06
9.43549776e-06
9.3896712e-06
9.30804264e-06
9.42595056e-06
9.4899168e-06
9.63646632e-06
9.55149624e-06
9.35052768e-06
9.30183696e-06
9.41879016e-06
9.31902192e-06
9.18392904e-06
9.28417464e-06
9.23834808e-06
9.24837264e-06
9.3586428e-06
9.30326904e-06
9.32140872e-06
9.17294976e-06
9.42404112e-06
9.35482392e-06
9.4016052e-06
9.36293904e-06
9.34861824e-06
9.43883928e-06
9.34288992e-06
9.47511864e-06
9.3061332e-06
9.30756528e-06
9.38823912e-06
9.26889912e-06
9.4183128e-06
9.42117696e-06
9.28512936e-06
9.42213168e-06
9.28369728e-06
9.21448008e-06
9.20159136e-06
9.3848976e-06
9.30852e-06
9.25505568e-06
9.29610864e-06
9.25696512e-06
9.35434656e-06
9.37248624e-06
9.35195976e-06
9.23118768e-06
9.4087656e-06
9.20970648e-06
9.284652e-06
9.32904648e-06
9.15433272e-06
9.36484848e-06
9.25505568e-06
9.3705768e-06
9.20779704e-06
9.12951e-06
9.19777248e-06
9.10230048e-06
9.40255992e-06
9.38919384e-06
9.24932736e-06
9.34766352e-06
9.24837264e-06
9.24789528e-06
9.165312e-06
9.43454304e-06
9.25410096e-06
9.2631708e-06
9.213048e-06
9.30422376e-06
9.37678248e-06
9.14764968e-06
9.31233888e-06
9.06936264e-06
9.26412552e-06
9.25505568e-06
9.28035576e-06
9.34861824e-06
9.37153152e-06
9.3825108e-06
9.35339184e-06
9.1939536e-06
9.26985384e-06
9.14430816e-06
9.30804264e-06
9.21352536e-06
9.27558216e-06
9.28035576e-06
9.45363744e-06
9.3467088e-06
9.28178784e-06
9.19299888e-06
9.3490956e-06
9.18822528e-06
9.46318464e-06
9.37487304e-06
9.2345292e-06
9.4565016e-06
9.34145784e-06
9.44504496e-06
9.38298816e-06
9.41735808e-06
9.31520304e-06
9.34527672e-06
9.18536112e-06
9.28656144e-06
9.236916e-06
9.21161592e-06
9.24980472e-06
9.2703312e-06
9.3419352e-06
9.26460288e-06
9.30279168e-06
9.1247364e-06
9.18870264e-06
9.07604568e-06
9.12998736e-06
9.0984816e-06
9.04406256e-06
9.09323064e-06
9.08034192e-06
9.07174944e-06
8.91135648e-06
8.99489448e-06
9.01017e-06
9.20063664e-06
9.12998736e-06
9.0626796e-06
9.18965736e-06
9.35721072e-06
9.2631708e-06
9.35482392e-06
9.25696512e-06
9.14717232e-06
9.17581392e-06
9.24503112e-06
9.21925368e-06
9.13571568e-06
8.92758672e-06
9.153378e-06
9.2822652e-06
9.42595056e-06
9.34050312e-06
9.56772648e-06
9.3992184e-06
9.29515392e-06
9.36771264e-06
9.23882544e-06
9.32331816e-06
9.28799352e-06
9.32570496e-06
9.28894824e-06
9.32093136e-06
9.224982e-06
9.1987272e-06
9.14526288e-06
9.24121224e-06
9.23500656e-06
9.27558216e-06
9.19108944e-06
9.47607336e-06
9.40924296e-06
9.3992184e-06
9.43406568e-06
9.24264432e-06
9.28847088e-06
9.30995208e-06
9.3419352e-06
9.332388e-06
9.30088224e-06
9.23643864e-06
9.2679444e-06
9.12760056e-06
9.28751616e-06
9.31711248e-06
9.33668424e-06
9.153378e-06
9.33907104e-06
9.02353608e-06
9.36150696e-06
9.3109068e-06
9.3825108e-06
9.2202084e-06
9.1700856e-06
9.1939536e-06
9.08941176e-06
9.2774916e-06
9.41497128e-06
9.2774916e-06
9.3419352e-06
9.29849544e-06
9.37248624e-06
9.37153152e-06
9.17581392e-06
9.21591216e-06
9.13237416e-06
9.15481008e-06
9.42881472e-06
9.49373568e-06
9.60257376e-06
9.47034504e-06
9.45268272e-06
9.5782284e-06
9.32093136e-06
9.38537496e-06
9.53144712e-06
9.53574336e-06
9.4851432e-06
9.40924296e-06
9.34718616e-06
9.30040488e-06
9.40303728e-06
9.37630512e-06
9.40924296e-06
9.5018508e-06
9.54099432e-06
9.45220536e-06
9.2273688e-06
9.36484848e-06
9.3538692e-06
9.34384464e-06
9.4803696e-06
9.47607336e-06
9.3729636e-06
9.35768808e-06
9.27462744e-06
9.43311096e-06
9.47893752e-06
9.26126136e-06
9.33334272e-06
9.50232816e-06
9.57011328e-06
9.4851432e-06
9.38107872e-06
9.24598584e-06
9.29085768e-06
9.46986768e-06
9.33620688e-06
9.26269344e-06
9.26269344e-06
9.35959752e-06
9.45459216e-06
9.53622072e-06
9.45125064e-06
9.23118768e-06
9.29945016e-06
9.1796328e-06
9.18965736e-06
9.15481008e-06
9.23882544e-06
9.22784616e-06
9.3132936e-06
9.27940104e-06
9.201114e-06
9.14955912e-06
9.21591216e-06
9.296586e-06
8.95145472e-06
9.07413624e-06
9.31758984e-06
9.08559288e-06
9.18965736e-06
9.19061208e-06
9.23023296e-06
9.28178784e-06
9.29992752e-06
9.21638952e-06
9.0793872e-06
9.23882544e-06
9.15194592e-06
9.07127208e-06
9.02258136e-06
9.24264432e-06
9.22880088e-06
9.12760056e-06
9.24503112e-06
9.35052768e-06
9.26173872e-06
9.28894824e-06
9.28083312e-06
9.28417464e-06
9.23166504e-06
9.05408712e-06
9.13619304e-06
9.32140872e-06
9.2774916e-06
9.42260904e-06
9.0722268e-06
9.36484848e-06
9.42213168e-06
9.46079784e-06
9.27128592e-06
9.18011016e-06
9.44599968e-06
9.25696512e-06
9.3514824e-06
9.34002576e-06
9.23309712e-06
9.36628056e-06
9.0292644e-06
9.236916e-06
9.19538568e-06
9.2082744e-06
9.3610296e-06
9.1820196e-06
9.2178216e-06
9.30470112e-06
9.2894256e-06
9.33095592e-06
9.15862896e-06
9.04310784e-06
9.29563128e-06
9.28560672e-06
9.17438184e-06
9.04072104e-06
9.0435852e-06
9.08129664e-06
9.13810248e-06
8.95813776e-06
9.04024368e-06
9.10850616e-06
9.14908176e-06
9.23882544e-06
9.09227592e-06
9.1605384e-06
9.1796328e-06
9.00253224e-06
9.11471184e-06
9.1199628e-06
9.2154348e-06
9.081774e-06
9.08225136e-06
9.1844064e-06
9.25982928e-06
9.27128592e-06
9.24837264e-06
9.09895896e-06
9.1796328e-06
9.08941176e-06
9.16101576e-06
9.30088224e-06
9.3347748e-06
9.27462744e-06
9.22880088e-06
9.34527672e-06
9.2774916e-06
9.2393028e-06
9.34575408e-06
9.47273184e-06
9.23118768e-06
9.3228408e-06
9.25410096e-06
9.31042944e-06
9.38537496e-06
9.18870264e-06
9.2703312e-06
9.3419352e-06
9.36055224e-06
9.42833736e-06
9.33143328e-06
9.4779828e-06
9.41210712e-06
9.50757912e-06
9.25075944e-06
9.1605384e-06
9.2393028e-06
9.23500656e-06
9.16865352e-06
9.33429744e-06
9.35959752e-06
9.21591216e-06
9.2989728e-06
9.475596e-06
9.35721072e-06
9.33047856e-06
9.29945016e-06
9.356256e-06
9.36437112e-06
9.20922912e-06
9.21734424e-06
9.22211784e-06
9.43311096e-06
9.23118768e-06
9.21018384e-06
9.3061332e-06
9.093708e-06
9.20493288e-06
9.23023296e-06
9.14096664e-06
9.36007488e-06
9.36866736e-06
9.2345292e-06
9.2894256e-06
9.32904648e-06
9.07843248e-06
9.32379552e-06
9.26937648e-06
9.49994136e-06
9.30231432e-06
9.403992e-06
9.42356376e-06
9.55292832e-06
9.47225448e-06
9.5543604e-06
9.32140872e-06
9.56915856e-06
9.51235272e-06
9.32856912e-06
9.49278096e-06
9.25935192e-06
9.36628056e-06
9.36293904e-06
9.4565016e-06
9.30708792e-06
9.4612752e-06
9.53669808e-06
9.26412552e-06
9.37200888e-06
9.4111524e-06
9.36198432e-06
9.28512936e-06
9.26651232e-06
9.48466584e-06
9.3944448e-06
9.28369728e-06
9.35243712e-06
9.3180672e-06
9.37916928e-06
9.35816544e-06
9.4087656e-06
9.3371616e-06
9.41019768e-06
9.57918312e-06
9.3896712e-06
9.28751616e-06
9.54767736e-06
9.44409024e-06
9.33763896e-06
9.35577864e-06
9.2655576e-06
9.37630512e-06
9.55817928e-06
9.53240184e-06
9.48562056e-06
9.17629128e-06
9.22545936e-06
9.18249696e-06
9.12139488e-06
9.36293904e-06
9.29038032e-06
9.17867808e-06
9.18297432e-06
9.03833424e-06
9.14478552e-06
9.16626672e-06
9.20159136e-06
9.16340256e-06
9.0674532e-06
9.1724724e-06
9.08320608e-06
9.141444e-06
8.95336416e-06
9.2822652e-06
9.06697584e-06
9.21352536e-06
9.1318968e-06
9.0149436e-06
9.03308328e-06
9.26460288e-06
9.22211784e-06
9.26173872e-06
9.12378168e-06
9.29945016e-06
9.19968192e-06
9.09466272e-06
9.22880088e-06
9.22832352e-06
9.33143328e-06
9.40685616e-06
9.35482392e-06
9.36198432e-06
9.30661056e-06
9.31663512e-06
9.33572952e-06
9.1462176e-06
9.1724724e-06
9.42451848e-06
9.31854456e-06
9.33859368e-06
9.11375712e-06
9.165312e-06
9.34861824e-06
9.40590144e-06
9.32427288e-06
9.42929208e-06
9.26173872e-06
9.5209452e-06
9.25505568e-06
9.35482392e-06
9.29801808e-06
9.37009944e-06
9.35768808e-06
9.31138416e-06
9.15719688e-06
9.26364816e-06
9.35005032e-06
9.40685616e-06
9.46986768e-06
9.1939536e-06
9.00396432e-06
9.1223496e-06
9.21018384e-06
9.20684232e-06
9.18488376e-06
9.10134576e-06
9.11948544e-06
9.07127208e-06
9.16387992e-06
9.2345292e-06
9.21257064e-06
9.17915544e-06
9.1676988e-06
9.24359904e-06
9.1557648e-06
9.08750232e-06
9.03212856e-06
8.98200576e-06
8.90896968e-06
9.14430816e-06
9.21973104e-06
9.07747776e-06
9.12903264e-06
9.26364816e-06
9.1700856e-06
9.30947472e-06
9.08750232e-06
9.15910632e-06
9.40351464e-06
9.41210712e-06
9.31042944e-06
9.38298816e-06
9.28894824e-06
9.14908176e-06
9.12187224e-06
9.45745632e-06
9.35195976e-06
9.34241256e-06
9.46652616e-06
9.30231432e-06
9.31472568e-06
9.38107872e-06
9.3586428e-06
9.44265816e-06
9.34814088e-06
9.44790912e-06
9.39014856e-06
9.33668424e-06
9.33382008e-06
9.32236344e-06
9.42022224e-06
9.15767424e-06
9.42022224e-06
9.3848976e-06
9.39539952e-06
9.2560104e-06
9.2225952e-06
9.23548392e-06
9.0316512e-06
9.1342836e-06
9.21448008e-06
9.38632968e-06
9.40733352e-06
9.415926e-06
9.23643864e-06
9.23882544e-06
9.36198432e-06
9.38155608e-06
9.18154224e-06
9.06649848e-06
9.20922912e-06
9.23166504e-06
9.24264432e-06
9.24121224e-06
9.35482392e-06
9.29563128e-06
9.2536236e-06
9.37391832e-06
9.38871648e-06
9.213048e-06
9.2774916e-06
9.31663512e-06
9.32427288e-06
9.31615776e-06
9.4445676e-06
9.25935192e-06
9.17151768e-06
9.36007488e-06
9.37391832e-06
9.31186152e-06
9.34479936e-06
9.42165432e-06
9.38060136e-06
9.6235776e-06
9.47511864e-06
9.32570496e-06
9.54910944e-06
9.51808104e-06
9.38060136e-06
9.21734424e-06
9.25505568e-06
9.52237728e-06
9.45697896e-06
9.27605952e-06
9.48227904e-06
9.37439568e-06
9.3586428e-06
9.56438496e-06
9.31520304e-06
9.403992e-06
9.44647704e-06
9.42642792e-06
9.31854456e-06
9.5901624e-06
9.35721072e-06
9.48132432e-06
9.46461672e-06
9.3013596e-06
9.39539952e-06
9.3610296e-06
9.37821456e-06
9.26412552e-06
9.51092064e-06
9.54624528e-06
9.40446936e-06
9.42976944e-06
9.28083312e-06
9.35530128e-06
9.32331816e-06
9.23357448e-06
9.24216696e-06
9.44409024e-06
9.42022224e-06
9.54099432e-06
9.25791984e-06
9.24264432e-06
9.15671952e-06
9.1128024e-06
9.10755144e-06
9.43454304e-06
9.32475024e-06
9.36866736e-06
9.15910632e-06
8.95622832e-06
9.08559288e-06
9.13141944e-06
9.1915668e-06
9.2082744e-06
9.12187224e-06
9.19347624e-06
9.15767424e-06
9.13332888e-06
9.08750232e-06
9.03690216e-06
9.07174944e-06
9.20015928e-06
9.1557648e-06
9.260784e-06
9.25028208e-06
9.1366704e-06
9.34145784e-06
9.06363432e-06
9.2774916e-06
9.117576e-06
9.18774792e-06
9.29945016e-06
9.40542408e-06
9.20970648e-06
9.23787072e-06
9.33907104e-06
9.27224064e-06
9.15910632e-06
9.30040488e-06
9.2058876e-06
9.24264432e-06
9.15433272e-06
9.22354992e-06
9.17151768e-06
9.2941992e-06
9.29945016e-06
9.1820196e-06
9.36389376e-06
9.45077328e-06
9.37248624e-06
9.2082744e-06
9.60066432e-06
9.511398e-06
9.4016052e-06
9.33525216e-06
9.19681776e-06
9.3705768e-06
9.39778632e-06
9.55006416e-06
9.19824984e-06
9.36962208e-06
9.51473952e-06
9.52476408e-06
9.20206872e-06
9.11948544e-06
9.18536112e-06
9.1438308e-06
9.18106488e-06
9.03451536e-06
9.17294976e-06
9.02019456e-06
9.0053964e-06
9.02496816e-06
9.18154224e-06
9.23166504e-06
9.1438308e-06
9.26173872e-06
9.36675792e-06
9.17676864e-06
9.20493288e-06
9.18965736e-06
9.07795512e-06
8.99059824e-06
9.09657216e-06
8.9791416e-06
8.90419608e-06
8.93522448e-06
9.07556832e-06
9.16817616e-06
9.2703312e-06
9.26173872e-06
9.30995208e-06
9.30470112e-06
9.16626672e-06
9.36293904e-06
9.41879016e-06
9.4469544e-06
9.48418848e-06
9.30183696e-06
9.28990296e-06
9.35339184e-06
9.50328288e-06
9.44981856e-06
9.48848472e-06
9.55770192e-06
9.70090992e-06
9.41974488e-06
9.27176328e-06
9.49850928e-06
9.4708224e-06
9.41306184e-06
9.44552232e-06
9.41688072e-06
9.35339184e-06
9.35339184e-06
9.31138416e-06
9.39014856e-06
)
;

boundaryField
{
    bottom
    {
        type            calculated;
        value           nonuniform List<scalar> 
200
(
9.18392904e-06
9.2440764e-06
9.24980472e-06
9.35768808e-06
9.3610296e-06
9.18392904e-06
9.22545936e-06
9.06458904e-06
9.10946088e-06
9.18774792e-06
9.22307256e-06
9.20779704e-06
9.19729512e-06
9.16340256e-06
9.45077328e-06
9.31233888e-06
9.27605952e-06
9.12521376e-06
9.18965736e-06
9.2178216e-06
9.09179856e-06
9.33668424e-06
9.3419352e-06
9.21018384e-06
9.33047856e-06
9.07413624e-06
9.21161592e-06
9.44170344e-06
9.36293904e-06
9.29706336e-06
9.20731968e-06
9.1987272e-06
9.13141944e-06
9.19061208e-06
9.41258448e-06
9.19968192e-06
9.35052768e-06
9.28608408e-06
9.38060136e-06
9.55626984e-06
9.475596e-06
9.2941992e-06
9.37630512e-06
9.37869192e-06
9.48943944e-06
9.4970772e-06
9.29372184e-06
9.25505568e-06
9.22593672e-06
9.13619304e-06
9.2512368e-06
9.2822652e-06
9.40303728e-06
9.30040488e-06
9.14430816e-06
9.2273688e-06
9.3419352e-06
9.29324448e-06
9.23548392e-06
9.24550848e-06
9.39635424e-06
9.52142256e-06
9.3777372e-06
9.5090112e-06
9.25982928e-06
9.36055224e-06
9.3061332e-06
9.3013596e-06
9.28035576e-06
9.3156804e-06
9.32809176e-06
9.17772336e-06
9.33143328e-06
9.21448008e-06
9.165312e-06
9.16101576e-06
9.22164048e-06
9.1700856e-06
9.415926e-06
9.26412552e-06
9.49325832e-06
9.57536424e-06
9.30470112e-06
9.16626672e-06
9.20731968e-06
9.2464632e-06
9.29276712e-06
9.07652304e-06
9.27224064e-06
9.320454e-06
9.25028208e-06
9.23261976e-06
9.13237416e-06
9.4445676e-06
9.08081928e-06
9.02640024e-06
8.97150384e-06
8.95718304e-06
9.20875176e-06
9.22450464e-06
9.19347624e-06
9.35434656e-06
9.20063664e-06
8.938566e-06
9.08034192e-06
9.22402728e-06
9.12282696e-06
9.16244784e-06
9.23357448e-06
9.19108944e-06
9.26364816e-06
9.31377096e-06
9.24980472e-06
9.27080856e-06
9.2178216e-06
9.15624216e-06
9.415926e-06
9.34814088e-06
9.2440764e-06
9.4803696e-06
9.3968316e-06
9.23834808e-06
9.20684232e-06
9.12282696e-06
9.16960824e-06
9.1486044e-06
9.30947472e-06
9.23834808e-06
9.21495744e-06
9.47702808e-06
9.39158064e-06
9.2583972e-06
9.27128592e-06
9.14764968e-06
9.25410096e-06
9.19538568e-06
9.38346552e-06
9.439794e-06
9.45984312e-06
9.44599968e-06
9.35005032e-06
9.25028208e-06
9.3156804e-06
9.19586304e-06
9.19108944e-06
9.3276144e-06
9.19824984e-06
9.27080856e-06
9.13380624e-06
9.15146856e-06
9.2536236e-06
9.40255992e-06
9.213048e-06
9.08129664e-06
9.21352536e-06
9.05360976e-06
9.05026824e-06
9.00635112e-06
9.1557648e-06
9.10707408e-06
9.31520304e-06
9.3156804e-06
9.06840792e-06
9.1271232e-06
9.16387992e-06
9.15671952e-06
9.1271232e-06
9.153378e-06
9.16817616e-06
9.28799352e-06
9.24741792e-06
9.41640336e-06
9.49134888e-06
9.1844064e-06
9.23834808e-06
9.1915668e-06
9.29849544e-06
9.45268272e-06
9.15385536e-06
9.09561744e-06
9.2512368e-06
9.23500656e-06
9.23548392e-06
9.36628056e-06
9.35243712e-06
9.36484848e-06
9.38394288e-06
9.37487304e-06
9.41735808e-06
9.1963404e-06
9.14287608e-06
9.20159136e-06
9.2393028e-06
9.117576e-06
8.97818688e-06
8.97770952e-06
9.18392904e-06
9.18918e-06
9.1724724e-06
9.34766352e-06
)
;
    }
    top
    {
        type            calculated;
        value           nonuniform List<scalar> 
200
(
9.15767424e-06
9.42022224e-06
9.3848976e-06
9.39539952e-06
9.2560104e-06
9.2225952e-06
9.23548392e-06
9.0316512e-06
9.1342836e-06
9.21448008e-06
9.38632968e-06
9.40733352e-06
9.415926e-06
9.23643864e-06
9.23882544e-06
9.36198432e-06
9.38155608e-06
9.18154224e-06
9.06649848e-06
9.20922912e-06
9.23166504e-06
9.24264432e-06
9.24121224e-06
9.35482392e-06
9.29563128e-06
9.2536236e-06
9.37391832e-06
9.38871648e-06
9.213048e-06
9.2774916e-06
9.31663512e-06
9.32427288e-06
9.31615776e-06
9.4445676e-06
9.25935192e-06
9.17151768e-06
9.36007488e-06
9.37391832e-06
9.31186152e-06
9.34479936e-06
9.42165432e-06
9.38060136e-06
9.6235776e-06
9.47511864e-06
9.32570496e-06
9.54910944e-06
9.51808104e-06
9.38060136e-06
9.21734424e-06
9.25505568e-06
9.52237728e-06
9.45697896e-06
9.27605952e-06
9.48227904e-06
9.37439568e-06
9.3586428e-06
9.56438496e-06
9.31520304e-06
9.403992e-06
9.44647704e-06
9.42642792e-06
9.31854456e-06
9.5901624e-06
9.35721072e-06
9.48132432e-06
9.46461672e-06
9.3013596e-06
9.39539952e-06
9.3610296e-06
9.37821456e-06
9.26412552e-06
9.51092064e-06
9.54624528e-06
9.40446936e-06
9.42976944e-06
9.28083312e-06
9.35530128e-06
9.32331816e-06
9.23357448e-06
9.24216696e-06
9.44409024e-06
9.42022224e-06
9.54099432e-06
9.25791984e-06
9.24264432e-06
9.15671952e-06
9.1128024e-06
9.10755144e-06
9.43454304e-06
9.32475024e-06
9.36866736e-06
9.15910632e-06
8.95622832e-06
9.08559288e-06
9.13141944e-06
9.1915668e-06
9.2082744e-06
9.12187224e-06
9.19347624e-06
9.15767424e-06
9.13332888e-06
9.08750232e-06
9.03690216e-06
9.07174944e-06
9.20015928e-06
9.1557648e-06
9.260784e-06
9.25028208e-06
9.1366704e-06
9.34145784e-06
9.06363432e-06
9.2774916e-06
9.117576e-06
9.18774792e-06
9.29945016e-06
9.40542408e-06
9.20970648e-06
9.23787072e-06
9.33907104e-06
9.27224064e-06
9.15910632e-06
9.30040488e-06
9.2058876e-06
9.24264432e-06
9.15433272e-06
9.22354992e-06
9.17151768e-06
9.2941992e-06
9.29945016e-06
9.1820196e-06
9.36389376e-06
9.45077328e-06
9.37248624e-06
9.2082744e-06
9.60066432e-06
9.511398e-06
9.4016052e-06
9.33525216e-06
9.19681776e-06
9.3705768e-06
9.39778632e-06
9.55006416e-06
9.19824984e-06
9.36962208e-06
9.51473952e-06
9.52476408e-06
9.20206872e-06
9.11948544e-06
9.18536112e-06
9.1438308e-06
9.18106488e-06
9.03451536e-06
9.17294976e-06
9.02019456e-06
9.0053964e-06
9.02496816e-06
9.18154224e-06
9.23166504e-06
9.1438308e-06
9.26173872e-06
9.36675792e-06
9.17676864e-06
9.20493288e-06
9.18965736e-06
9.07795512e-06
8.99059824e-06
9.09657216e-06
8.9791416e-06
8.90419608e-06
8.93522448e-06
9.07556832e-06
9.16817616e-06
9.2703312e-06
9.26173872e-06
9.30995208e-06
9.30470112e-06
9.16626672e-06
9.36293904e-06
9.41879016e-06
9.4469544e-06
9.48418848e-06
9.30183696e-06
9.28990296e-06
9.35339184e-06
9.50328288e-06
9.44981856e-06
9.48848472e-06
9.55770192e-06
9.70090992e-06
9.41974488e-06
9.27176328e-06
9.49850928e-06
9.4708224e-06
9.41306184e-06
9.44552232e-06
9.41688072e-06
9.35339184e-06
9.35339184e-06
9.31138416e-06
9.39014856e-06
)
;
    }
    inlet
    {
        type            cyclic;
    }
    outlet
    {
        type            cyclic;
    }
    back
    {
        type            symmetry;
    }
    front
    {
        type            symmetry;
    }
}


// ************************************************************************* //
