/*--------------------------------*- C++ -*----------------------------------*\
| =========                 |                                                 |
| \\      /  F ield         | OpenFOAM: The Open Source CFD Toolbox           |
|  \\    /   O peration     | Version:  v1612+                                |
|   \\  /    A nd           | Web:      www.OpenFOAM.com                      |
|    \\/     M anipulation  |                                                 |
\*---------------------------------------------------------------------------*/
FoamFile
{
    version     2.0;
    format      ascii;
    class       volScalarField;
    location    "0.2";
    object      rhoN_Ar1;
}
// * * * * * * * * * * * * * * * * * * * * * * * * * * * * * * * * * * * * * //

dimensions      [0 -3 0 0 0 0 0];

internalField   nonuniform List<scalar> 
1000
(
1.385208e+20
1.39428e+20
1.395144e+20
1.411416e+20
1.41192e+20
1.385208e+20
1.391472e+20
1.367208e+20
1.373976e+20
1.385784e+20
1.391112e+20
1.388808e+20
1.387224e+20
1.382112e+20
1.425456e+20
1.404576e+20
1.399104e+20
1.376352e+20
1.386072e+20
1.39032e+20
1.371312e+20
1.408248e+20
1.40904e+20
1.389168e+20
1.407312e+20
1.368648e+20
1.389384e+20
1.424088e+20
1.412208e+20
1.402272e+20
1.388736e+20
1.38744e+20
1.377288e+20
1.386216e+20
1.419696e+20
1.387584e+20
1.410336e+20
1.400616e+20
1.414872e+20
1.441368e+20
1.4292e+20
1.40184e+20
1.414224e+20
1.414584e+20
1.431288e+20
1.43244e+20
1.401768e+20
1.395936e+20
1.391544e+20
1.378008e+20
1.39536e+20
1.40004e+20
1.418256e+20
1.402776e+20
1.379232e+20
1.39176e+20
1.40904e+20
1.401696e+20
1.392984e+20
1.394496e+20
1.417248e+20
1.436112e+20
1.41444e+20
1.43424e+20
1.396656e+20
1.411848e+20
1.40364e+20
1.40292e+20
1.399752e+20
1.40508e+20
1.406952e+20
1.384272e+20
1.407456e+20
1.389816e+20
1.3824e+20
1.381752e+20
1.390896e+20
1.38312e+20
1.4202e+20
1.397304e+20
1.431864e+20
1.444248e+20
1.403424e+20
1.382544e+20
1.388736e+20
1.39464e+20
1.401624e+20
1.369008e+20
1.398528e+20
1.4058e+20
1.395216e+20
1.392552e+20
1.377432e+20
1.42452e+20
1.369656e+20
1.361448e+20
1.353168e+20
1.351008e+20
1.388952e+20
1.391328e+20
1.386648e+20
1.410912e+20
1.387728e+20
1.3482e+20
1.369584e+20
1.391256e+20
1.375992e+20
1.381968e+20
1.392696e+20
1.386288e+20
1.397232e+20
1.404792e+20
1.395144e+20
1.398312e+20
1.39032e+20
1.381032e+20
1.4202e+20
1.409976e+20
1.39428e+20
1.42992e+20
1.41732e+20
1.393416e+20
1.388664e+20
1.375992e+20
1.383048e+20
1.37988e+20
1.404144e+20
1.393416e+20
1.389888e+20
1.429416e+20
1.416528e+20
1.39644e+20
1.398384e+20
1.379736e+20
1.395792e+20
1.386936e+20
1.415304e+20
1.4238e+20
1.426824e+20
1.424736e+20
1.410264e+20
1.395216e+20
1.40508e+20
1.387008e+20
1.386288e+20
1.40688e+20
1.387368e+20
1.398312e+20
1.377648e+20
1.380312e+20
1.39572e+20
1.418184e+20
1.3896e+20
1.369728e+20
1.389672e+20
1.365552e+20
1.365048e+20
1.358424e+20
1.38096e+20
1.373616e+20
1.405008e+20
1.40508e+20
1.367784e+20
1.37664e+20
1.382184e+20
1.381104e+20
1.37664e+20
1.3806e+20
1.382832e+20
1.400904e+20
1.394784e+20
1.420272e+20
1.431576e+20
1.38528e+20
1.393416e+20
1.38636e+20
1.402488e+20
1.425744e+20
1.380672e+20
1.371888e+20
1.39536e+20
1.392912e+20
1.392984e+20
1.412712e+20
1.410624e+20
1.412496e+20
1.415376e+20
1.414008e+20
1.420416e+20
1.38708e+20
1.379016e+20
1.387872e+20
1.39356e+20
1.3752e+20
1.354176e+20
1.354104e+20
1.385208e+20
1.386e+20
1.38348e+20
1.409904e+20
1.3914e+20
1.401048e+20
1.41228e+20
1.395288e+20
1.38564e+20
1.399608e+20
1.404576e+20
1.41084e+20
1.388808e+20
1.388304e+20
1.412784e+20
1.391544e+20
1.369728e+20
1.393488e+20
1.414584e+20
1.401048e+20
1.362528e+20
1.377936e+20
1.42092e+20
1.398456e+20
1.383624e+20
1.38708e+20
1.400184e+20
1.396944e+20
1.37088e+20
1.39284e+20
1.394208e+20
1.392408e+20
1.406448e+20
1.418472e+20
1.43244e+20
1.399176e+20
1.405368e+20
1.389888e+20
1.39356e+20
1.399752e+20
1.403712e+20
1.413432e+20
1.40292e+20
1.423152e+20
1.41624e+20
1.403928e+20
1.421712e+20
1.43136e+20
1.453464e+20
1.440648e+20
1.410336e+20
1.402992e+20
1.420632e+20
1.405584e+20
1.385208e+20
1.400328e+20
1.393416e+20
1.394928e+20
1.41156e+20
1.403208e+20
1.405944e+20
1.383552e+20
1.421424e+20
1.410984e+20
1.41804e+20
1.412208e+20
1.410048e+20
1.423656e+20
1.409184e+20
1.429128e+20
1.40364e+20
1.403856e+20
1.416024e+20
1.398024e+20
1.42056e+20
1.420992e+20
1.400472e+20
1.421136e+20
1.400256e+20
1.389816e+20
1.387872e+20
1.41552e+20
1.404e+20
1.395936e+20
1.402128e+20
1.396224e+20
1.410912e+20
1.413648e+20
1.410552e+20
1.392336e+20
1.41912e+20
1.389096e+20
1.4004e+20
1.407096e+20
1.380744e+20
1.412496e+20
1.395936e+20
1.41336e+20
1.388808e+20
1.377e+20
1.387296e+20
1.372896e+20
1.418184e+20
1.416168e+20
1.395072e+20
1.409904e+20
1.394928e+20
1.394856e+20
1.3824e+20
1.423008e+20
1.395792e+20
1.39716e+20
1.3896e+20
1.403352e+20
1.414296e+20
1.379736e+20
1.404576e+20
1.367928e+20
1.397304e+20
1.395936e+20
1.399752e+20
1.410048e+20
1.413504e+20
1.41516e+20
1.410768e+20
1.38672e+20
1.398168e+20
1.379232e+20
1.403928e+20
1.389672e+20
1.399032e+20
1.399752e+20
1.425888e+20
1.40976e+20
1.399968e+20
1.386576e+20
1.41012e+20
1.385856e+20
1.427328e+20
1.414008e+20
1.39284e+20
1.42632e+20
1.408968e+20
1.424592e+20
1.415232e+20
1.420416e+20
1.405008e+20
1.409544e+20
1.385424e+20
1.400688e+20
1.3932e+20
1.389384e+20
1.395144e+20
1.39824e+20
1.40904e+20
1.397376e+20
1.403136e+20
1.37628e+20
1.385928e+20
1.368936e+20
1.377072e+20
1.37232e+20
1.364112e+20
1.371528e+20
1.369584e+20
1.368288e+20
1.344096e+20
1.356696e+20
1.359e+20
1.387728e+20
1.377072e+20
1.36692e+20
1.386072e+20
1.411344e+20
1.39716e+20
1.410984e+20
1.396224e+20
1.379664e+20
1.383984e+20
1.394424e+20
1.390536e+20
1.377936e+20
1.346544e+20
1.3806e+20
1.40004e+20
1.421712e+20
1.408824e+20
1.443096e+20
1.41768e+20
1.401984e+20
1.412928e+20
1.393488e+20
1.406232e+20
1.400904e+20
1.406592e+20
1.401048e+20
1.405872e+20
1.3914e+20
1.38744e+20
1.379376e+20
1.393848e+20
1.392912e+20
1.399032e+20
1.386288e+20
1.429272e+20
1.419192e+20
1.41768e+20
1.422936e+20
1.394064e+20
1.400976e+20
1.404216e+20
1.40904e+20
1.4076e+20
1.402848e+20
1.393128e+20
1.39788e+20
1.376712e+20
1.400832e+20
1.405296e+20
1.408248e+20
1.3806e+20
1.408608e+20
1.361016e+20
1.411992e+20
1.40436e+20
1.41516e+20
1.39068e+20
1.38312e+20
1.38672e+20
1.370952e+20
1.39932e+20
1.420056e+20
1.39932e+20
1.40904e+20
1.402488e+20
1.413648e+20
1.413504e+20
1.383984e+20
1.390032e+20
1.377432e+20
1.380816e+20
1.422144e+20
1.431936e+20
1.448352e+20
1.428408e+20
1.425744e+20
1.44468e+20
1.405872e+20
1.415592e+20
1.437624e+20
1.438272e+20
1.43064e+20
1.419192e+20
1.409832e+20
1.402776e+20
1.418256e+20
1.414224e+20
1.419192e+20
1.43316e+20
1.439064e+20
1.425672e+20
1.39176e+20
1.412496e+20
1.41084e+20
1.409328e+20
1.42992e+20
1.429272e+20
1.41372e+20
1.411416e+20
1.398888e+20
1.422792e+20
1.429704e+20
1.396872e+20
1.407744e+20
1.433232e+20
1.443456e+20
1.43064e+20
1.414944e+20
1.394568e+20
1.401336e+20
1.428336e+20
1.408176e+20
1.397088e+20
1.397088e+20
1.411704e+20
1.426032e+20
1.438344e+20
1.425528e+20
1.392336e+20
1.402632e+20
1.38456e+20
1.386072e+20
1.380816e+20
1.393488e+20
1.391832e+20
1.40472e+20
1.399608e+20
1.3878e+20
1.380024e+20
1.390032e+20
1.4022e+20
1.350144e+20
1.368648e+20
1.405368e+20
1.370376e+20
1.386072e+20
1.386216e+20
1.392192e+20
1.399968e+20
1.402704e+20
1.390104e+20
1.36944e+20
1.393488e+20
1.380384e+20
1.368216e+20
1.360872e+20
1.394064e+20
1.391976e+20
1.376712e+20
1.394424e+20
1.410336e+20
1.396944e+20
1.401048e+20
1.399824e+20
1.400328e+20
1.392408e+20
1.365624e+20
1.378008e+20
1.405944e+20
1.39932e+20
1.421208e+20
1.36836e+20
1.412496e+20
1.421136e+20
1.426968e+20
1.398384e+20
1.384632e+20
1.424736e+20
1.396224e+20
1.41048e+20
1.408752e+20
1.392624e+20
1.412712e+20
1.36188e+20
1.3932e+20
1.386936e+20
1.38888e+20
1.41192e+20
1.38492e+20
1.39032e+20
1.403424e+20
1.40112e+20
1.407384e+20
1.381392e+20
1.363968e+20
1.402056e+20
1.400544e+20
1.383768e+20
1.363608e+20
1.36404e+20
1.369728e+20
1.378296e+20
1.351152e+20
1.363536e+20
1.373832e+20
1.379952e+20
1.393488e+20
1.371384e+20
1.38168e+20
1.38456e+20
1.357848e+20
1.374768e+20
1.37556e+20
1.38996e+20
1.3698e+20
1.369872e+20
1.38528e+20
1.396656e+20
1.398384e+20
1.394928e+20
1.372392e+20
1.38456e+20
1.370952e+20
1.381752e+20
1.402848e+20
1.40796e+20
1.398888e+20
1.391976e+20
1.409544e+20
1.39932e+20
1.39356e+20
1.409616e+20
1.428768e+20
1.392336e+20
1.40616e+20
1.395792e+20
1.404288e+20
1.415592e+20
1.385928e+20
1.39824e+20
1.40904e+20
1.411848e+20
1.422072e+20
1.407456e+20
1.42956e+20
1.419624e+20
1.434024e+20
1.395288e+20
1.38168e+20
1.39356e+20
1.392912e+20
1.382904e+20
1.407888e+20
1.411704e+20
1.390032e+20
1.40256e+20
1.4292e+20
1.411344e+20
1.407312e+20
1.402632e+20
1.4112e+20
1.412424e+20
1.389024e+20
1.390248e+20
1.390968e+20
1.422792e+20
1.392336e+20
1.389168e+20
1.40364e+20
1.3716e+20
1.388376e+20
1.392192e+20
1.378728e+20
1.411776e+20
1.413072e+20
1.39284e+20
1.40112e+20
1.407096e+20
1.369296e+20
1.406304e+20
1.398096e+20
1.432872e+20
1.403064e+20
1.4184e+20
1.421352e+20
1.440864e+20
1.428696e+20
1.44108e+20
1.405944e+20
1.443312e+20
1.434744e+20
1.407024e+20
1.431792e+20
1.396584e+20
1.412712e+20
1.412208e+20
1.42632e+20
1.403784e+20
1.42704e+20
1.438416e+20
1.397304e+20
1.413576e+20
1.41948e+20
1.412064e+20
1.400472e+20
1.397664e+20
1.430568e+20
1.41696e+20
1.400256e+20
1.410624e+20
1.40544e+20
1.414656e+20
1.411488e+20
1.41912e+20
1.40832e+20
1.419336e+20
1.444824e+20
1.41624e+20
1.400832e+20
1.440072e+20
1.424448e+20
1.408392e+20
1.411128e+20
1.39752e+20
1.414224e+20
1.441656e+20
1.437768e+20
1.430712e+20
1.384056e+20
1.391472e+20
1.384992e+20
1.375776e+20
1.412208e+20
1.401264e+20
1.384416e+20
1.385064e+20
1.363248e+20
1.379304e+20
1.382544e+20
1.387872e+20
1.382112e+20
1.36764e+20
1.38348e+20
1.370016e+20
1.3788e+20
1.350432e+20
1.40004e+20
1.367568e+20
1.389672e+20
1.37736e+20
1.35972e+20
1.362456e+20
1.397376e+20
1.390968e+20
1.396944e+20
1.376136e+20
1.402632e+20
1.387584e+20
1.371744e+20
1.391976e+20
1.391904e+20
1.407456e+20
1.418832e+20
1.410984e+20
1.412064e+20
1.403712e+20
1.405224e+20
1.408104e+20
1.37952e+20
1.38348e+20
1.421496e+20
1.405512e+20
1.408536e+20
1.374624e+20
1.3824e+20
1.410048e+20
1.418688e+20
1.406376e+20
1.422216e+20
1.396944e+20
1.43604e+20
1.395936e+20
1.410984e+20
1.402416e+20
1.413288e+20
1.411416e+20
1.404432e+20
1.381176e+20
1.397232e+20
1.410264e+20
1.418832e+20
1.428336e+20
1.38672e+20
1.358064e+20
1.37592e+20
1.389168e+20
1.388664e+20
1.385352e+20
1.372752e+20
1.375488e+20
1.368216e+20
1.382184e+20
1.39284e+20
1.389528e+20
1.384488e+20
1.38276e+20
1.394208e+20
1.38096e+20
1.370664e+20
1.362312e+20
1.354752e+20
1.343736e+20
1.379232e+20
1.390608e+20
1.369152e+20
1.376928e+20
1.397232e+20
1.38312e+20
1.404144e+20
1.370664e+20
1.381464e+20
1.418328e+20
1.419624e+20
1.404288e+20
1.415232e+20
1.401048e+20
1.379952e+20
1.375848e+20
1.426464e+20
1.410552e+20
1.409112e+20
1.427832e+20
1.403064e+20
1.404936e+20
1.414944e+20
1.41156e+20
1.424232e+20
1.409976e+20
1.425024e+20
1.416312e+20
1.408248e+20
1.407816e+20
1.406088e+20
1.420848e+20
1.381248e+20
1.420848e+20
1.41552e+20
1.417104e+20
1.39608e+20
1.39104e+20
1.392984e+20
1.36224e+20
1.37772e+20
1.389816e+20
1.415736e+20
1.418904e+20
1.4202e+20
1.393128e+20
1.393488e+20
1.412064e+20
1.415016e+20
1.384848e+20
1.367496e+20
1.389024e+20
1.392408e+20
1.394064e+20
1.393848e+20
1.410984e+20
1.402056e+20
1.39572e+20
1.413864e+20
1.416096e+20
1.3896e+20
1.39932e+20
1.405224e+20
1.406376e+20
1.405152e+20
1.42452e+20
1.396584e+20
1.383336e+20
1.411776e+20
1.413864e+20
1.404504e+20
1.409472e+20
1.421064e+20
1.414872e+20
1.45152e+20
1.429128e+20
1.406592e+20
1.440288e+20
1.435608e+20
1.414872e+20
1.390248e+20
1.395936e+20
1.436256e+20
1.426392e+20
1.399104e+20
1.430208e+20
1.413936e+20
1.41156e+20
1.442592e+20
1.405008e+20
1.4184e+20
1.424808e+20
1.421784e+20
1.405512e+20
1.44648e+20
1.411344e+20
1.430064e+20
1.427544e+20
1.40292e+20
1.417104e+20
1.41192e+20
1.414512e+20
1.397304e+20
1.434528e+20
1.439856e+20
1.418472e+20
1.422288e+20
1.399824e+20
1.411056e+20
1.406232e+20
1.392696e+20
1.393992e+20
1.424448e+20
1.420848e+20
1.439064e+20
1.396368e+20
1.394064e+20
1.381104e+20
1.37448e+20
1.373688e+20
1.423008e+20
1.406448e+20
1.413072e+20
1.381464e+20
1.350864e+20
1.370376e+20
1.377288e+20
1.38636e+20
1.38888e+20
1.375848e+20
1.386648e+20
1.381248e+20
1.377576e+20
1.370664e+20
1.363032e+20
1.368288e+20
1.387656e+20
1.38096e+20
1.3968e+20
1.395216e+20
1.37808e+20
1.408968e+20
1.367064e+20
1.39932e+20
1.3752e+20
1.385784e+20
1.402632e+20
1.418616e+20
1.389096e+20
1.393344e+20
1.408608e+20
1.398528e+20
1.381464e+20
1.402776e+20
1.38852e+20
1.394064e+20
1.380744e+20
1.391184e+20
1.383336e+20
1.40184e+20
1.402632e+20
1.38492e+20
1.412352e+20
1.425456e+20
1.413648e+20
1.38888e+20
1.448064e+20
1.4346e+20
1.41804e+20
1.408032e+20
1.387152e+20
1.41336e+20
1.417464e+20
1.440432e+20
1.387368e+20
1.413216e+20
1.435104e+20
1.436616e+20
1.387944e+20
1.375488e+20
1.385424e+20
1.37916e+20
1.384776e+20
1.362672e+20
1.383552e+20
1.360512e+20
1.35828e+20
1.361232e+20
1.384848e+20
1.392408e+20
1.37916e+20
1.396944e+20
1.412784e+20
1.384128e+20
1.388376e+20
1.386072e+20
1.369224e+20
1.356048e+20
1.372032e+20
1.35432e+20
1.343016e+20
1.347696e+20
1.368864e+20
1.382832e+20
1.39824e+20
1.396944e+20
1.404216e+20
1.403424e+20
1.382544e+20
1.412208e+20
1.420632e+20
1.42488e+20
1.430496e+20
1.402992e+20
1.401192e+20
1.410768e+20
1.433376e+20
1.425312e+20
1.431144e+20
1.441584e+20
1.463184e+20
1.420776e+20
1.398456e+20
1.432656e+20
1.42848e+20
1.419768e+20
1.424664e+20
1.420344e+20
1.410768e+20
1.410768e+20
1.404432e+20
1.416312e+20
)
;

boundaryField
{
    bottom
    {
        type            calculated;
        value           nonuniform List<scalar> 
200
(
1.385208e+20
1.39428e+20
1.395144e+20
1.411416e+20
1.41192e+20
1.385208e+20
1.391472e+20
1.367208e+20
1.373976e+20
1.385784e+20
1.391112e+20
1.388808e+20
1.387224e+20
1.382112e+20
1.425456e+20
1.404576e+20
1.399104e+20
1.376352e+20
1.386072e+20
1.39032e+20
1.371312e+20
1.408248e+20
1.40904e+20
1.389168e+20
1.407312e+20
1.368648e+20
1.389384e+20
1.424088e+20
1.412208e+20
1.402272e+20
1.388736e+20
1.38744e+20
1.377288e+20
1.386216e+20
1.419696e+20
1.387584e+20
1.410336e+20
1.400616e+20
1.414872e+20
1.441368e+20
1.4292e+20
1.40184e+20
1.414224e+20
1.414584e+20
1.431288e+20
1.43244e+20
1.401768e+20
1.395936e+20
1.391544e+20
1.378008e+20
1.39536e+20
1.40004e+20
1.418256e+20
1.402776e+20
1.379232e+20
1.39176e+20
1.40904e+20
1.401696e+20
1.392984e+20
1.394496e+20
1.417248e+20
1.436112e+20
1.41444e+20
1.43424e+20
1.396656e+20
1.411848e+20
1.40364e+20
1.40292e+20
1.399752e+20
1.40508e+20
1.406952e+20
1.384272e+20
1.407456e+20
1.389816e+20
1.3824e+20
1.381752e+20
1.390896e+20
1.38312e+20
1.4202e+20
1.397304e+20
1.431864e+20
1.444248e+20
1.403424e+20
1.382544e+20
1.388736e+20
1.39464e+20
1.401624e+20
1.369008e+20
1.398528e+20
1.4058e+20
1.395216e+20
1.392552e+20
1.377432e+20
1.42452e+20
1.369656e+20
1.361448e+20
1.353168e+20
1.351008e+20
1.388952e+20
1.391328e+20
1.386648e+20
1.410912e+20
1.387728e+20
1.3482e+20
1.369584e+20
1.391256e+20
1.375992e+20
1.381968e+20
1.392696e+20
1.386288e+20
1.397232e+20
1.404792e+20
1.395144e+20
1.398312e+20
1.39032e+20
1.381032e+20
1.4202e+20
1.409976e+20
1.39428e+20
1.42992e+20
1.41732e+20
1.393416e+20
1.388664e+20
1.375992e+20
1.383048e+20
1.37988e+20
1.404144e+20
1.393416e+20
1.389888e+20
1.429416e+20
1.416528e+20
1.39644e+20
1.398384e+20
1.379736e+20
1.395792e+20
1.386936e+20
1.415304e+20
1.4238e+20
1.426824e+20
1.424736e+20
1.410264e+20
1.395216e+20
1.40508e+20
1.387008e+20
1.386288e+20
1.40688e+20
1.387368e+20
1.398312e+20
1.377648e+20
1.380312e+20
1.39572e+20
1.418184e+20
1.3896e+20
1.369728e+20
1.389672e+20
1.365552e+20
1.365048e+20
1.358424e+20
1.38096e+20
1.373616e+20
1.405008e+20
1.40508e+20
1.367784e+20
1.37664e+20
1.382184e+20
1.381104e+20
1.37664e+20
1.3806e+20
1.382832e+20
1.400904e+20
1.394784e+20
1.420272e+20
1.431576e+20
1.38528e+20
1.393416e+20
1.38636e+20
1.402488e+20
1.425744e+20
1.380672e+20
1.371888e+20
1.39536e+20
1.392912e+20
1.392984e+20
1.412712e+20
1.410624e+20
1.412496e+20
1.415376e+20
1.414008e+20
1.420416e+20
1.38708e+20
1.379016e+20
1.387872e+20
1.39356e+20
1.3752e+20
1.354176e+20
1.354104e+20
1.385208e+20
1.386e+20
1.38348e+20
1.409904e+20
)
;
    }
    top
    {
        type            calculated;
        value           nonuniform List<scalar> 
200
(
1.381248e+20
1.420848e+20
1.41552e+20
1.417104e+20
1.39608e+20
1.39104e+20
1.392984e+20
1.36224e+20
1.37772e+20
1.389816e+20
1.415736e+20
1.418904e+20
1.4202e+20
1.393128e+20
1.393488e+20
1.412064e+20
1.415016e+20
1.384848e+20
1.367496e+20
1.389024e+20
1.392408e+20
1.394064e+20
1.393848e+20
1.410984e+20
1.402056e+20
1.39572e+20
1.413864e+20
1.416096e+20
1.3896e+20
1.39932e+20
1.405224e+20
1.406376e+20
1.405152e+20
1.42452e+20
1.396584e+20
1.383336e+20
1.411776e+20
1.413864e+20
1.404504e+20
1.409472e+20
1.421064e+20
1.414872e+20
1.45152e+20
1.429128e+20
1.406592e+20
1.440288e+20
1.435608e+20
1.414872e+20
1.390248e+20
1.395936e+20
1.436256e+20
1.426392e+20
1.399104e+20
1.430208e+20
1.413936e+20
1.41156e+20
1.442592e+20
1.405008e+20
1.4184e+20
1.424808e+20
1.421784e+20
1.405512e+20
1.44648e+20
1.411344e+20
1.430064e+20
1.427544e+20
1.40292e+20
1.417104e+20
1.41192e+20
1.414512e+20
1.397304e+20
1.434528e+20
1.439856e+20
1.418472e+20
1.422288e+20
1.399824e+20
1.411056e+20
1.406232e+20
1.392696e+20
1.393992e+20
1.424448e+20
1.420848e+20
1.439064e+20
1.396368e+20
1.394064e+20
1.381104e+20
1.37448e+20
1.373688e+20
1.423008e+20
1.406448e+20
1.413072e+20
1.381464e+20
1.350864e+20
1.370376e+20
1.377288e+20
1.38636e+20
1.38888e+20
1.375848e+20
1.386648e+20
1.381248e+20
1.377576e+20
1.370664e+20
1.363032e+20
1.368288e+20
1.387656e+20
1.38096e+20
1.3968e+20
1.395216e+20
1.37808e+20
1.408968e+20
1.367064e+20
1.39932e+20
1.3752e+20
1.385784e+20
1.402632e+20
1.418616e+20
1.389096e+20
1.393344e+20
1.408608e+20
1.398528e+20
1.381464e+20
1.402776e+20
1.38852e+20
1.394064e+20
1.380744e+20
1.391184e+20
1.383336e+20
1.40184e+20
1.402632e+20
1.38492e+20
1.412352e+20
1.425456e+20
1.413648e+20
1.38888e+20
1.448064e+20
1.4346e+20
1.41804e+20
1.408032e+20
1.387152e+20
1.41336e+20
1.417464e+20
1.440432e+20
1.387368e+20
1.413216e+20
1.435104e+20
1.436616e+20
1.387944e+20
1.375488e+20
1.385424e+20
1.37916e+20
1.384776e+20
1.362672e+20
1.383552e+20
1.360512e+20
1.35828e+20
1.361232e+20
1.384848e+20
1.392408e+20
1.37916e+20
1.396944e+20
1.412784e+20
1.384128e+20
1.388376e+20
1.386072e+20
1.369224e+20
1.356048e+20
1.372032e+20
1.35432e+20
1.343016e+20
1.347696e+20
1.368864e+20
1.382832e+20
1.39824e+20
1.396944e+20
1.404216e+20
1.403424e+20
1.382544e+20
1.412208e+20
1.420632e+20
1.42488e+20
1.430496e+20
1.402992e+20
1.401192e+20
1.410768e+20
1.433376e+20
1.425312e+20
1.431144e+20
1.441584e+20
1.463184e+20
1.420776e+20
1.398456e+20
1.432656e+20
1.42848e+20
1.419768e+20
1.424664e+20
1.420344e+20
1.410768e+20
1.410768e+20
1.404432e+20
1.416312e+20
)
;
    }
    inlet
    {
        type            cyclic;
    }
    outlet
    {
        type            cyclic;
    }
    back
    {
        type            symmetry;
    }
    front
    {
        type            symmetry;
    }
}


// ************************************************************************* //
