/*--------------------------------*- C++ -*----------------------------------*\
| =========                 |                                                 |
| \\      /  F ield         | OpenFOAM: The Open Source CFD Toolbox           |
|  \\    /   O peration     | Version:  v1612+                                |
|   \\  /    A nd           | Web:      www.OpenFOAM.com                      |
|    \\/     M anipulation  |                                                 |
\*---------------------------------------------------------------------------*/
FoamFile
{
    version     2.0;
    format      ascii;
    class       volScalarField;
    location    "0.2";
    object      translationalT_Ar1;
}
// * * * * * * * * * * * * * * * * * * * * * * * * * * * * * * * * * * * * * //

dimensions      [0 0 0 1 0 0 0];

internalField   nonuniform List<scalar> 
1000
(
270.4585827
270.3585875
269.8520276
269.5631509
274.9065432
273.2902953
274.4038885
278.7366327
273.217569
274.1706633
275.66725
278.6031849
276.1027231
275.7890073
273.4865119
269.3240517
270.1893867
273.6867146
272.6216675
271.2998977
279.8114653
273.3636324
271.3071261
273.106606
276.0130558
274.7818853
275.2734983
273.65806
270.0217743
272.3812515
273.0859695
274.1255843
275.6941265
273.480681
272.417889
270.176537
270.7160294
272.3862374
269.7812676
264.983965
267.7635631
273.456592
271.9947412
267.6234797
263.7809971
265.4089639
268.741127
269.6822628
272.0149804
277.4569007
272.7975186
270.707518
268.1488208
266.7998845
274.7003702
272.3602511
275.2123894
271.5018683
276.9093695
272.7420762
269.8572021
272.0864314
273.2778753
268.2668108
275.6499676
270.6498016
273.6022537
271.7105771
270.7017202
272.4684874
272.9194938
277.7887283
275.9037139
273.3984236
276.2029303
274.8347901
272.5802721
272.3989227
272.0630513
271.4058517
269.9343852
268.8199183
269.1910025
272.4352701
275.8946049
273.2118401
277.1367253
281.317538
278.9294093
278.2853021
278.8488473
276.6385317
280.0784174
276.5557587
281.0696836
279.4172747
281.0296661
278.4965846
274.5361067
273.6719048
279.5141351
272.3721155
274.6738812
277.1229116
277.8609844
275.6611911
275.7544166
279.1829321
277.1692449
276.168954
280.4296606
275.326199
276.2775822
276.7852982
274.3861881
274.2604248
270.2687694
272.8595681
271.7075108
273.3290152
267.4340459
272.8390957
279.5301037
277.2984036
274.4850054
276.3885252
271.7075987
274.3343813
274.8024909
270.698347
271.3117368
267.124693
272.4572314
275.196644
271.274705
273.060279
272.2561657
266.4474477
269.4299296
274.2094623
270.5914146
274.0727323
272.8048246
274.514732
273.6381669
271.824189
276.6560752
277.6598544
279.4927447
278.6956072
276.3619593
273.0885931
281.8829164
278.0076959
274.0383149
277.853889
274.4557277
277.9968478
276.1563634
279.0116205
276.3113271
277.0729984
279.5532575
274.5943592
275.6236168
274.183736
272.7703352
277.2031246
274.9944677
272.7623965
276.0175809
272.3048155
273.1747162
278.9156158
271.0141226
270.5257717
273.709577
273.1352743
279.4997713
278.5611589
275.4777008
276.5842726
275.113095
272.9482594
269.4857626
273.5891271
267.6118544
266.0056946
272.7625281
271.4184466
274.686797
271.7231479
273.6109167
277.5280662
272.1178157
272.3141267
273.0634949
274.2036656
273.2793363
269.9756396
269.31832
269.3098301
267.5783711
274.2199215
272.1909254
271.3598965
271.5504868
269.5345319
273.9698222
272.0050016
275.512179
275.467159
278.2429932
275.4866741
274.6528032
268.0316964
271.5952638
274.251024
272.6498053
273.3344476
276.114377
276.3031321
271.7364847
275.9229224
272.0537273
272.5693952
274.5204515
272.0050718
270.1978791
268.268748
268.5480404
271.2490888
273.3120354
275.4493615
271.1050781
269.7678481
271.6111835
270.6571878
272.4861134
267.2822006
270.0225892
267.658799
267.3105106
267.6907134
269.5839816
268.1156687
272.5419229
271.182031
267.3440808
273.5715923
273.3393199
268.3772415
267.6877034
271.8075647
272.9370703
270.6251715
273.6259682
276.0448653
272.1737007
278.9182421
272.0762952
271.7527422
272.4823711
273.8741935
272.9534481
270.177869
273.0681364
271.6029355
270.9254592
272.1142337
270.4538257
271.6670657
272.8270058
271.9894449
273.2801161
273.8376055
275.4507683
269.8368477
270.215689
269.3402198
271.9305105
270.7727833
270.2501323
274.0280456
271.6441077
271.5713594
272.6961681
275.7983027
273.9780718
272.8408138
278.15488
276.8117617
276.0383845
274.3280554
276.9978364
278.879332
278.1292328
277.4296884
271.3600088
273.0609295
272.8612109
272.9137902
277.9934936
276.3785335
275.5617305
272.8193334
274.9454136
271.8957462
275.0309859
276.9713817
274.9379889
279.6006922
275.5918135
275.9497705
274.0797228
275.4973282
276.4952322
273.2400411
273.5865491
269.2528767
272.6964283
272.136799
271.0146514
274.0198261
274.5175179
272.7324239
274.0900982
271.3193381
272.9682707
269.2721097
268.4044443
271.4094247
270.7236901
271.7759183
273.604534
268.7494204
267.747382
268.848965
271.0551867
272.9427155
272.8454338
272.830588
272.4816842
272.4918799
274.4542088
274.3550282
276.0548994
278.0433916
276.4919434
277.9608928
272.9908522
273.7044351
274.1603548
278.2630496
277.7195498
275.4375178
273.9923306
276.2936977
280.1302168
277.9594231
278.7884847
274.3554148
279.4021703
279.4632274
274.8457202
277.0135432
276.7686494
280.875408
274.8399126
272.6878493
271.2541384
269.7604183
274.1997376
273.9179657
273.6296762
271.8981383
274.4199512
275.3658078
277.5726503
275.5560194
276.1543853
272.2088102
274.6383696
270.4966357
268.7048837
270.8380543
268.1291521
271.1043842
272.2837127
274.3309073
269.3995857
274.8574684
273.3418643
275.4204387
270.4866972
276.8384531
268.790271
268.4043453
272.266404
271.6446781
267.3336448
266.4267342
267.5729689
269.7671631
275.9691781
270.6125415
267.0142319
272.5526754
272.5335915
273.9255345
270.5739941
275.003185
277.9242162
275.4428688
271.7484215
273.9704394
271.6066123
272.7572538
274.598221
273.8310062
272.6079473
275.0162798
273.2218716
274.1142376
273.5160072
273.2052052
268.1401241
268.1348838
272.2181451
268.1296319
269.1143096
272.0509454
272.7658981
273.840822
274.7406185
273.9485596
268.8467196
268.3694511
266.6211167
267.4776364
270.6244076
271.3431619
265.7443421
270.6028159
270.8981458
265.998324
268.6359296
269.6092398
272.2534575
268.1671492
269.6052613
268.0262654
270.7478799
270.8381976
266.6206944
265.2801847
272.0071491
276.2773911
269.0835863
268.5689595
271.9357825
268.6489404
265.7330052
268.4650478
268.6884603
269.3529293
267.3916503
271.0774028
274.4555214
271.0289395
269.3962134
272.4908148
272.0998413
270.1803353
270.0656458
270.3661721
268.8866816
269.6635466
270.26273
267.1234824
268.3088276
272.0631996
268.5452178
268.5860107
268.0876464
269.8579687
276.9497018
276.0539384
273.2006947
275.4919542
277.7731754
275.8117998
274.0461707
274.8600155
278.3166986
272.3702827
275.3293961
279.3437796
275.572209
273.4634847
273.5355784
270.9604913
274.1931872
279.424672
272.4023537
273.0792308
276.1658376
275.1379539
279.8196124
277.1065256
276.6877488
279.5698187
274.9628961
275.7571934
276.6866082
274.7431394
272.2227392
274.0267004
268.7801236
276.5677538
272.3992497
276.3452568
276.9719947
275.775636
272.2909
274.1474951
273.3551771
275.3455067
271.6438282
270.7693285
270.7682517
269.257577
271.5082292
269.4336389
268.0525447
267.0482758
268.8905831
272.8335415
269.6293843
277.6172134
273.4418399
273.8615953
273.5037696
273.7604418
275.6361699
275.4372587
274.4541978
273.7284909
276.8649831
274.5324951
277.0819362
271.5502197
273.6066414
278.7758542
278.2135517
275.198824
274.5978061
276.5682906
278.3828559
274.4278738
276.3255354
275.9511723
273.1469159
278.8818705
275.3847403
276.2470785
276.9756047
275.5178758
276.0194555
273.2012025
275.7157875
272.1033275
275.7920106
275.104401
270.6098744
274.2579608
274.1963038
273.2964458
274.992891
276.7046671
279.6465106
271.1907625
273.2700862
273.9224328
268.5092493
269.0329199
271.267217
270.8966747
269.2835008
274.4085062
272.8464738
268.8615395
271.5762398
275.6900462
274.5950397
273.0832361
269.9346066
269.1963978
267.9851338
268.0166092
265.6708471
265.8675875
263.6850223
273.6735983
274.1784721
277.6343832
270.8640338
271.5328076
272.3456255
270.7046725
270.8033842
271.5139504
269.9297387
272.389455
272.5723824
275.2004386
272.9369577
272.8888685
272.3277391
273.8083359
273.844807
272.1338968
274.157207
274.1956672
269.7077816
269.8217554
273.9072891
271.4200825
275.8492684
270.8722571
267.8874199
272.1422958
273.284142
274.5240457
276.8995497
275.3961026
273.8498571
271.8516517
269.3861422
268.9720389
267.4999188
266.6539211
266.3699318
268.1925658
270.4606897
263.731813
268.4311305
270.6344382
268.6151423
269.8677832
269.7442077
271.6052454
269.5982929
269.7374479
270.8734388
269.8077463
274.8765483
270.8265612
269.7751816
271.1789846
272.1817523
270.2289919
266.2511337
267.5494998
276.6606077
270.7588936
272.9923732
271.8862074
271.7701985
273.7619605
270.0893215
270.5287446
268.9184475
267.5444138
269.198126
273.574761
270.8883149
272.387544
273.3956769
268.111013
269.0637206
269.0660854
268.9593055
271.3442612
274.2743368
274.3700463
278.7505357
274.3126679
277.0688697
277.9152628
276.9782401
274.7080216
275.5007755
277.6201892
282.0880254
277.872785
277.4479699
272.7182646
272.7958195
280.4411723
272.9167806
276.4512987
272.3208801
277.684618
274.8598253
281.1837098
278.3158455
278.3003484
275.450007
274.494271
275.7244511
275.3580504
273.0813886
275.9199125
272.1771311
274.575268
276.6588331
275.8989715
274.0988536
272.3310749
273.1447744
272.0423045
272.4308604
272.2563743
273.7939217
272.5774528
272.1035234
273.9585428
272.1655727
275.6864321
272.3320311
267.7180201
270.7513926
272.3217123
267.5875064
269.4645976
272.0571753
276.2533763
273.6275774
274.9644501
268.7506508
271.3400774
272.1375359
274.6720542
274.8420786
274.8860338
272.4543906
274.1268189
276.4115024
277.4428012
278.6970127
276.5122887
277.5045169
279.6656453
277.8515247
277.6570273
273.7325497
277.8202115
272.8161352
275.0559611
276.1767769
274.5966811
276.8653488
276.5307875
277.0794925
279.0972688
276.4370834
277.3702
276.8758213
277.3598924
276.8089454
279.3870235
273.9551782
277.644999
275.8295942
274.5639438
271.6768301
274.7401429
274.2810428
271.5826344
272.9058742
268.7120835
272.913496
275.5596258
265.8003539
267.8147573
269.5410383
269.6960285
273.4864902
273.515977
270.6866226
268.5825572
271.6084435
270.5870918
272.7035979
268.7223844
269.6032732
271.4957123
268.6329336
267.4673964
264.3571019
269.8554309
271.033399
268.2560398
275.2658688
272.4464182
268.9137835
270.3162482
274.1255128
273.4307519
271.62746
269.0269524
269.7947671
273.8611403
270.5770801
270.5485116
270.4110512
272.8151497
273.3154606
273.4615421
268.257413
271.8185439
268.8717603
271.0313042
269.9327784
272.4918157
270.5972112
268.9532438
274.8513858
275.1220673
272.9680149
270.7820147
270.4607181
269.1458391
277.0675049
269.5319907
271.4307491
269.467484
268.2041972
270.8444524
268.9974764
266.1269528
264.0078658
270.4270894
269.8821097
269.0499232
269.00689
274.4361281
275.4156855
273.7644362
271.5589429
269.7174768
268.6142818
271.8837218
273.5093709
271.1048077
271.0562419
273.5906413
269.0844226
267.1484311
266.9844837
269.0900065
262.9480131
271.2345156
273.625189
270.9608991
273.3068032
272.01169
272.5375183
269.5898952
270.3681543
271.0901237
269.6379874
269.0831217
272.5251482
276.150853
268.1699965
274.0407701
270.6403696
274.7559347
271.7408411
276.0208993
270.2178457
272.4698512
271.5165685
271.7710196
272.0977271
275.1806853
273.4928982
274.7892732
279.4980458
278.7415831
279.1047565
278.1092401
276.8106138
277.5597914
276.6737002
275.7802007
275.6649956
277.6476633
279.2221205
280.4101223
277.1769519
278.4220021
276.3471581
275.2470198
271.8327239
275.5227313
276.285428
277.2422214
277.2752927
278.7908659
274.9704008
275.1573352
277.0374992
276.9825387
278.9484563
279.0496742
272.2731513
273.4129682
276.1188632
273.8229785
273.6895794
270.1942874
273.098258
275.5411601
271.9728541
270.3960771
274.0720269
272.1214812
269.7683083
268.003992
264.6699789
269.8572762
267.1590032
270.0519959
270.4071358
273.6604769
272.9542392
270.4315419
272.0993296
269.810606
274.966417
273.0475036
273.0141963
269.6381113
275.8752992
279.8522911
275.4321199
273.5928138
280.9582436
274.4393182
272.558101
279.9588544
282.0964607
281.3040906
276.0491364
274.9842371
278.378432
276.0633095
275.5141372
273.9770202
270.8383984
278.5211269
272.7049155
275.3176973
277.3443145
274.9754494
274.5769008
280.4244245
276.2612451
276.7362197
274.6047502
275.4842971
274.2889892
274.0174376
277.383658
274.6828766
274.8185776
273.6246263
274.8162143
269.2761587
272.7331189
270.2332903
264.3258522
264.1539158
271.0747609
267.757849
266.9094609
273.8576272
273.5082528
270.4256996
270.75493
271.767921
270.3094791
271.2526823
272.8856074
270.0912305
270.1874036
270.5310473
)
;

boundaryField
{
    bottom
    {
        type            calculated;
        value           nonuniform List<scalar> 
200
(
270.4585827
270.3585875
269.8520276
269.5631509
274.9065432
273.2902953
274.4038885
278.7366327
273.217569
274.1706633
275.66725
278.6031849
276.1027231
275.7890073
273.4865119
269.3240517
270.1893867
273.6867146
272.6216675
271.2998977
279.8114653
273.3636324
271.3071261
273.106606
276.0130558
274.7818853
275.2734983
273.65806
270.0217743
272.3812515
273.0859695
274.1255843
275.6941265
273.480681
272.417889
270.176537
270.7160294
272.3862374
269.7812676
264.983965
267.7635631
273.456592
271.9947412
267.6234797
263.7809971
265.4089639
268.741127
269.6822628
272.0149804
277.4569007
272.7975186
270.707518
268.1488208
266.7998845
274.7003702
272.3602511
275.2123894
271.5018683
276.9093695
272.7420762
269.8572021
272.0864314
273.2778753
268.2668108
275.6499676
270.6498016
273.6022537
271.7105771
270.7017202
272.4684874
272.9194938
277.7887283
275.9037139
273.3984236
276.2029303
274.8347901
272.5802721
272.3989227
272.0630513
271.4058517
269.9343852
268.8199183
269.1910025
272.4352701
275.8946049
273.2118401
277.1367253
281.317538
278.9294093
278.2853021
278.8488473
276.6385317
280.0784174
276.5557587
281.0696836
279.4172747
281.0296661
278.4965846
274.5361067
273.6719048
279.5141351
272.3721155
274.6738812
277.1229116
277.8609844
275.6611911
275.7544166
279.1829321
277.1692449
276.168954
280.4296606
275.326199
276.2775822
276.7852982
274.3861881
274.2604248
270.2687694
272.8595681
271.7075108
273.3290152
267.4340459
272.8390957
279.5301037
277.2984036
274.4850054
276.3885252
271.7075987
274.3343813
274.8024909
270.698347
271.3117368
267.124693
272.4572314
275.196644
271.274705
273.060279
272.2561657
266.4474477
269.4299296
274.2094623
270.5914146
274.0727323
272.8048246
274.514732
273.6381669
271.824189
276.6560752
277.6598544
279.4927447
278.6956072
276.3619593
273.0885931
281.8829164
278.0076959
274.0383149
277.853889
274.4557277
277.9968478
276.1563634
279.0116205
276.3113271
277.0729984
279.5532575
274.5943592
275.6236168
274.183736
272.7703352
277.2031246
274.9944677
272.7623965
276.0175809
272.3048155
273.1747162
278.9156158
271.0141226
270.5257717
273.709577
273.1352743
279.4997713
278.5611589
275.4777008
276.5842726
275.113095
272.9482594
269.4857626
273.5891271
267.6118544
266.0056946
272.7625281
271.4184466
274.686797
271.7231479
273.6109167
277.5280662
272.1178157
272.3141267
273.0634949
274.2036656
273.2793363
269.9756396
)
;
    }
    top
    {
        type            calculated;
        value           nonuniform List<scalar> 
200
(
264.3571019
269.8554309
271.033399
268.2560398
275.2658688
272.4464182
268.9137835
270.3162482
274.1255128
273.4307519
271.62746
269.0269524
269.7947671
273.8611403
270.5770801
270.5485116
270.4110512
272.8151497
273.3154606
273.4615421
268.257413
271.8185439
268.8717603
271.0313042
269.9327784
272.4918157
270.5972112
268.9532438
274.8513858
275.1220673
272.9680149
270.7820147
270.4607181
269.1458391
277.0675049
269.5319907
271.4307491
269.467484
268.2041972
270.8444524
268.9974764
266.1269528
264.0078658
270.4270894
269.8821097
269.0499232
269.00689
274.4361281
275.4156855
273.7644362
271.5589429
269.7174768
268.6142818
271.8837218
273.5093709
271.1048077
271.0562419
273.5906413
269.0844226
267.1484311
266.9844837
269.0900065
262.9480131
271.2345156
273.625189
270.9608991
273.3068032
272.01169
272.5375183
269.5898952
270.3681543
271.0901237
269.6379874
269.0831217
272.5251482
276.150853
268.1699965
274.0407701
270.6403696
274.7559347
271.7408411
276.0208993
270.2178457
272.4698512
271.5165685
271.7710196
272.0977271
275.1806853
273.4928982
274.7892732
279.4980458
278.7415831
279.1047565
278.1092401
276.8106138
277.5597914
276.6737002
275.7802007
275.6649956
277.6476633
279.2221205
280.4101223
277.1769519
278.4220021
276.3471581
275.2470198
271.8327239
275.5227313
276.285428
277.2422214
277.2752927
278.7908659
274.9704008
275.1573352
277.0374992
276.9825387
278.9484563
279.0496742
272.2731513
273.4129682
276.1188632
273.8229785
273.6895794
270.1942874
273.098258
275.5411601
271.9728541
270.3960771
274.0720269
272.1214812
269.7683083
268.003992
264.6699789
269.8572762
267.1590032
270.0519959
270.4071358
273.6604769
272.9542392
270.4315419
272.0993296
269.810606
274.966417
273.0475036
273.0141963
269.6381113
275.8752992
279.8522911
275.4321199
273.5928138
280.9582436
274.4393182
272.558101
279.9588544
282.0964607
281.3040906
276.0491364
274.9842371
278.378432
276.0633095
275.5141372
273.9770202
270.8383984
278.5211269
272.7049155
275.3176973
277.3443145
274.9754494
274.5769008
280.4244245
276.2612451
276.7362197
274.6047502
275.4842971
274.2889892
274.0174376
277.383658
274.6828766
274.8185776
273.6246263
274.8162143
269.2761587
272.7331189
270.2332903
264.3258522
264.1539158
271.0747609
267.757849
266.9094609
273.8576272
273.5082528
270.4256996
270.75493
271.767921
270.3094791
271.2526823
272.8856074
270.0912305
270.1874036
270.5310473
)
;
    }
    inlet
    {
        type            cyclic;
    }
    outlet
    {
        type            cyclic;
    }
    back
    {
        type            symmetry;
    }
    front
    {
        type            symmetry;
    }
}


// ************************************************************************* //
