/*--------------------------------*- C++ -*----------------------------------*\
| =========                 |                                                 |
| \\      /  F ield         | OpenFOAM: The Open Source CFD Toolbox           |
|  \\    /   O peration     | Version:  v1612+                                |
|   \\  /    A nd           | Web:      www.OpenFOAM.com                      |
|    \\/     M anipulation  |                                                 |
\*---------------------------------------------------------------------------*/
FoamFile
{
    version     2.0;
    format      ascii;
    class       volVectorField;
    location    "0.2";
    object      UMean_Ar1;
}
// * * * * * * * * * * * * * * * * * * * * * * * * * * * * * * * * * * * * * //

dimensions      [0 1 -1 0 0 0 0];

internalField   nonuniform List<vector> 
1000
(
(-4.778330673 2.118698297 0.5597499053)
(-5.796349164 -4.374916325 1.943273164)
(-1.192433824 1.608872917 -2.200149174)
(-1.045000247 -2.617121269 0.3508292847)
(-0.1495471398 0.9427458121 -1.400433395)
(-0.05824076873 0.1346883048 -1.966233467)
(3.675715018 -1.787272172 0.371730013)
(2.027918128 -1.563229142 -2.017571611)
(0.440395684 1.093347212 -0.7455770699)
(1.039557227 0.7542736312 1.43103246)
(0.4664466398 0.2032971609 1.300208911)
(-1.622951907 -0.8647425434 1.00688584)
(0.9130656473 -0.984217497 0.7157462642)
(5.06551096 -1.372790505 -0.6189276448)
(1.809436547 -0.1521527828 0.2903248109)
(1.08428975 2.584066635 1.707409576)
(2.242067284 -1.610549927 -1.135236916)
(1.475823797 -0.07101725148 -0.596631195)
(4.042702104 -0.5816990168 -0.9576984789)
(1.553254874 2.222752311 -0.5081631773)
(-1.837979208 0.4181910411 1.41253876)
(2.296973931 -1.966846513 -2.03377262)
(1.051934529 1.788770557 0.9653350417)
(-0.6957648804 -1.549854679 -2.352090305)
(2.200586423 -1.184780288 1.993525012)
(2.426622851 1.007895056 -0.5138804663)
(0.9932997747 -0.008365247821 0.4933338034)
(-0.714194051 0.7027806572 -2.858295982)
(-0.6329614578 0.5314079985 1.040169028)
(-1.876690917 -0.5694631393 -1.286393463)
(-1.932194571 -0.5224655892 -0.6896204382)
(1.225023714 -1.076638261 -0.8916309964)
(0.641623538 0.3171196763 0.1384847299)
(-1.480084682 0.8169569797 -0.6199891921)
(-2.180640893 -1.180464198 0.1761246178)
(2.931576066 0.3609740135 -2.566425584)
(1.877444788 0.7656996582 1.252762976)
(0.5059541246 -0.5119399933 0.2662373541)
(-2.610970641 1.814576767 0.6402565249)
(-3.442376829 1.455244896 1.637988504)
(-4.124992405 -2.542793748 -0.5460565535)
(-3.033161517 -0.2296998717 0.8925000602)
(-1.594512163 0.8330257606 1.390604439)
(-1.379816184 1.727756484 -0.6931593961)
(-3.28109656 -1.513809886 1.075413664)
(-2.031306367 2.826618874 -1.253215491)
(-3.715966092 -1.093217328 0.9263357089)
(-2.392626528 -2.21935796 -1.047830418)
(-2.530088068 -1.262235137 1.895448097)
(-0.7958247864 0.2493624671 -1.796759886)
(0.6197033844 -1.104628295 0.08348569229)
(-0.1081768585 -0.6753358795 -2.102735344)
(1.316647111 -2.334354418 0.8198124575)
(2.482486301 0.02161631449 -0.4616170864)
(3.101954346 -1.515325245 -0.578824604)
(3.216884242 -0.6525607422 -1.562952663)
(1.447331087 2.851900146 0.4826258181)
(-1.610889554 -0.9376686489 -1.872422163)
(0.4514319302 -0.6018640349 -1.010710461)
(0.8575458144 -0.6270847183 3.042377218)
(-0.09137283126 -0.3137631411 -0.9025974123)
(0.2394618546 1.072127789 -0.03792886339)
(-2.575202745 -0.5432088696 1.503525947)
(-0.1202445588 -1.132985521 -0.7380357927)
(2.053070266 -1.940692386 -1.860102483)
(3.348611798 -0.1028882773 -0.5904758329)
(3.360616006 1.539335537 2.16309261)
(-0.6821788336 0.9043431026 0.4913232759)
(-0.3218946243 1.490779403 -0.06839234414)
(-2.470190991 -0.637442476 -2.455260377)
(-1.173694095 -1.525339579 1.109944639)
(0.9888801339 -0.8138482648 -0.2239125183)
(0.1356260032 3.102786266 1.268602796)
(-0.4933368529 -1.736874993 1.39294864)
(-1.049227146 0.1942943833 -1.225025961)
(1.36970347 1.347757102 -1.533138964)
(-1.035075138 0.5298677185 1.585904492)
(-0.4111291676 0.2940968629 1.353667604)
(0.4022199952 -0.9889819302 -0.5752450904)
(0.5522849226 1.575548948 0.5488624199)
(0.7788898439 -0.2741558128 0.9324645223)
(1.663879173 -1.026713795 -1.643290515)
(-0.08150757491 2.183499842 1.096626256)
(-1.270518348 1.932982767 0.2395883164)
(-4.330465033 0.495763642 -1.71226155)
(-1.947649052 0.1333400508 -0.6279801762)
(-0.4730109698 -2.878725373 1.707626381)
(1.943788374 -1.171231746 1.699130099)
(0.08312310715 -0.007390132665 -1.069603129)
(-1.034371509 2.126871916 2.242505298)
(-2.825919634 0.03520787775 -1.654103096)
(0.7525591576 -3.032479105 -1.85216911)
(1.981426213 -0.8068861471 1.076376955)
(1.227414429 -0.5929189893 -1.035564642)
(-1.689871792 0.9852559508 0.8601507763)
(2.477243392 -1.020828938 -1.51827789)
(0.3957343127 0.3840819775 -0.9396353137)
(-0.4651775781 3.03508659 -0.362803555)
(-2.472254545 -1.964423334 1.212524557)
(-1.154124201 -0.1264675183 0.6299994277)
(-2.252148642 0.7840271263 0.3047855013)
(-3.747020233 0.2616780897 -1.496498807)
(-1.918368486 -0.8881769354 1.419087389)
(-1.948224876 0.4947332885 0.2044545898)
(-2.905849674 -0.7131117316 0.6928398261)
(-1.004172267 -0.7152036683 -0.7868523753)
(-1.188733867 0.3026476199 3.28488688)
(-0.8219968077 0.4912253997 -0.1479729954)
(-3.311788624 0.2045311876 1.610334391)
(-1.918997408 -0.2088760873 -1.152819358)
(-0.837922204 0.2942334048 0.5195732028)
(1.679188639 1.664923963 0.8651450401)
(1.177700853 -0.6000149743 0.4579665537)
(-0.2291259615 1.707828022 0.4329298269)
(-2.869250107 0.3237226413 0.933215882)
(-1.72229096 0.4425072048 0.2406689712)
(-1.422974979 0.171167638 -1.125580714)
(-1.317738782 -1.201056831 0.4635606883)
(-2.835543387 0.5105331308 0.832468825)
(-1.091155913 -0.7781062785 -0.9552970054)
(0.7894214887 -0.2522754551 0.5146893115)
(-0.7717962904 -0.4280466402 0.810682447)
(0.01622000617 -0.5982259137 -0.3917601349)
(-1.181599189 0.04010947551 -2.249571299)
(-0.3340358328 0.2736915632 -0.6793429402)
(-3.047876292 -0.2835007758 3.847588667)
(-1.08031353 -1.102363369 -0.2050885261)
(-0.08148915698 0.2984797615 2.259781033)
(0.9596217761 0.3602043511 -2.482760473)
(-0.5625150959 -2.208816475 -0.2230656888)
(-1.244171305 2.796923631 0.8940317514)
(-3.583432483 -1.18196008 2.995797571)
(1.241988975 -3.952956361 0.6730339819)
(0.4539125048 1.692501432 0.3876404887)
(1.483696217 -1.354194237 1.976942484)
(2.670277911 0.009548916244 -0.3844018894)
(2.286520914 1.655792892 -0.7567443079)
(0.3743362293 -1.94018126 -0.796237069)
(3.238915847 -1.039413024 0.4274467591)
(0.4987185035 2.604870989 -0.05868197405)
(-3.301472394 -0.3382540764 -2.144123896)
(-1.236339755 -1.137437203 -0.1234027236)
(0.4794322669 -0.8342185147 0.06658035852)
(2.239967942 -0.2935164247 -0.8621938214)
(1.846087881 0.0506092546 1.222453416)
(1.053840295 -0.597507284 0.2659847391)
(1.430152546 1.231171773 0.8048168366)
(1.348536944 -0.800107432 1.991219176)
(6.256563315 -0.5799774681 -2.708054315)
(3.920300302 3.580201053 -1.617871075)
(3.253888911 -2.716888881 2.044445163)
(4.672101635 0.2795425781 0.7485055584)
(7.482806677 -1.28021553 -2.999931871)
(7.411509254 1.342591557 1.484136398)
(2.199611004 2.62769677 0.05744083288)
(1.486552712 -0.1976145994 -0.9789666994)
(2.85234122 0.9684459519 0.4466736506)
(2.343984321 -0.508687784 -0.3678979391)
(0.5214111563 0.3107630403 0.7263143606)
(2.731537299 -1.241601357 -0.1722719641)
(0.1729858462 3.845252298 1.221429863)
(-1.483770062 0.5657324437 0.681563121)
(-1.147766697 -1.876480975 -0.1056092257)
(1.044746582 2.092848754 1.033743213)
(1.879826539 1.401169931 -2.443985455)
(0.2312347562 0.8897606722 -1.185517945)
(-2.594065549 3.09814945 0.827493316)
(-4.375439763 -2.064388304 -0.424966263)
(-0.9890270947 0.2684398318 1.051984251)
(-0.1363299221 -3.20449186 0.5135688234)
(2.229896508 0.193956053 -2.092451506)
(3.411418319 -0.6816918521 -1.046543825)
(1.851150562 -0.3813737294 0.9695481965)
(-0.3175689318 1.321096799 -0.4230832758)
(0.9570633362 -0.35781171 -1.081518377)
(-0.2228377202 2.538111764 -0.07408754004)
(0.3664366834 -2.343757607 0.5007712242)
(1.747931726 -1.281015779 -0.9145901397)
(2.462503481 -0.6025748344 -1.318293717)
(2.662517295 -0.7699751334 1.081258389)
(4.396406379 1.105199428 3.845528969)
(3.725497602 -1.213485086 -0.9995180017)
(2.420662597 1.962814717 -3.446587157)
(-0.683643648 -0.9566218955 0.9113038279)
(1.772774892 -0.2289417894 -0.7346552867)
(2.319397302 -0.1400853128 3.408648299)
(-0.7738311438 -0.1241479508 0.3257614643)
(-3.510822154 0.7773859181 -2.611017601)
(-1.350400018 -1.509655222 0.9689809251)
(-0.973756872 -1.815944917 0.04624110306)
(0.8478617164 -0.07870946024 -0.4735153674)
(-0.2298663708 0.6198949623 2.00149397)
(1.353713075 0.9788387982 -0.4102962132)
(1.001970158 -0.4265111071 -1.183758904)
(-1.112380788 1.489301115 0.3073867815)
(0.5047485482 -1.809401483 1.144074907)
(-1.415762787 0.6022211037 0.1153460649)
(1.949550981 0.4305221548 -1.356101404)
(-0.007179907619 1.235147761 -0.5674853587)
(-3.635676509 2.1266099 0.9804018974)
(0.3733606851 -0.1507023562 -2.117235547)
(4.218845157 -3.32646646 1.149047699)
(0.04586870733 -2.066159975 0.5390668297)
(4.90013898 0.03986135251 0.1788972699)
(2.297700108 -0.796949834 -1.47778204)
(1.550416717 -4.337765053 1.535786597)
(0.5989616534 -1.215816337 2.702112805)
(0.3363793988 0.9526876182 0.6245331751)
(0.4164871278 1.092435316 -2.108202508)
(0.204588571 0.3519254405 1.056935182)
(-0.8176078844 0.6001843905 0.9814982299)
(3.860113845 -2.441862623 -0.8699697619)
(2.552000533 -1.648158324 -2.451945098)
(2.016494549 0.07822564441 1.349378962)
(0.07314675427 2.612697642 -1.372217018)
(1.127443996 -0.6416923617 0.7386441652)
(-0.2578604302 -2.782327916 -0.5435895135)
(1.697246345 -0.05763442678 1.073124323)
(1.765464515 1.175562337 4.032993133)
(-0.676868859 2.554065245 -3.073356951)
(1.241822137 -1.575963885 -0.8493403095)
(-1.833230419 -1.366060985 1.7329004)
(-0.724996889 -0.2172506092 -0.4793664706)
(3.631692919 -0.3749247309 1.916227141)
(-0.7423375739 -0.4796287353 -3.823859455)
(-2.102410185 2.932531702 2.481269893)
(-2.661374821 2.131654612 -1.885432359)
(-1.046834396 0.7258278741 0.7258440243)
(-1.807172556 0.09097391877 -0.3245582018)
(-0.3316390673 0.8785988875 3.380013411)
(0.05975515006 -1.36359393 -0.6438977908)
(-0.02847731945 -0.3322916669 3.786575034)
(-2.168923284 2.089886143 1.091445325)
(-0.6937712764 1.93649097 -0.3196684112)
(-0.5377764583 -3.92988623 -2.179629382)
(-2.973552925 -1.427489794 0.2132967105)
(-2.513124471 0.9308179372 0.07783177888)
(-0.9479877862 4.320326188 -0.2683056279)
(-2.88361838 2.860632637 -1.046999234)
(-3.46520188 0.556863183 3.49910168)
(-3.680661282 -2.451468869 0.7002970438)
(-3.238004672 -1.431801612 0.5718229042)
(-4.274606528 -0.4745727703 1.291734831)
(-4.542738298 0.3827798156 -1.332264602)
(-3.678648961 0.4386358862 0.6504557021)
(-4.300107919 0.9435732715 -3.003694986)
(0.1448155971 -1.55696338 -1.014457859)
(-0.07899741976 0.273429747 3.449056858)
(0.6728940642 -3.027368312 1.186683646)
(3.777266709 2.679208779 2.064273224)
(-0.5632441294 1.423356782 -1.828510192)
(-2.018603926 0.9211127288 -1.149663962)
(-2.31306431 -2.295664644 -0.2374669255)
(-1.896749056 -2.59633732 -1.748180969)
(-0.04862408745 0.4375904641 2.179485706)
(-2.14374614 2.642491139 -0.4810225892)
(-2.474802376 1.389587223 0.538440248)
(-0.05932401509 -0.4124693813 0.9943094949)
(-2.027439167 -0.0632861171 1.027279943)
(0.4593553606 0.8443365257 -2.722630358)
(-1.018812398 -0.8618751414 1.112070897)
(2.29265248 0.1649079702 -0.6195735744)
(2.415371136 -0.4400635421 -0.9332462293)
(1.158642271 1.89461899 0.4665098181)
(-0.985491614 -4.281964199 1.782421952)
(-1.187698414 0.6703468787 0.3419788155)
(-2.66938334 0.496336673 -1.249947806)
(-0.7756110644 2.004742983 1.301671129)
(-3.240123784 0.1803033121 -1.743042917)
(-3.827577043 1.564106581 0.2073364243)
(-0.5532879926 -2.836309418 0.6880476815)
(0.09212832191 0.191190256 1.815849219)
(1.542278176 -2.85661653 -1.867287703)
(-1.263121933 2.089081757 -1.398539701)
(-0.9209483158 1.418532922 0.04441427442)
(-1.022507511 -2.568327272 0.6447054242)
(1.019893699 0.1874353347 -1.789844782)
(0.6619195951 -0.1641611543 -2.09742611)
(-1.05687297 1.206327325 -0.689798642)
(-3.613338588 1.461168923 -1.367748785)
(-0.9624195458 -2.482915225 -1.400987366)
(-2.468819064 -0.5498753751 -0.2005040498)
(-1.924133923 1.461696457 -0.7823089277)
(0.4365544756 3.409805372 -2.243310798)
(2.245737733 -1.011352137 0.475792563)
(-0.3470381298 0.8499672105 -2.171628863)
(0.4313080276 -3.06698514 0.9059681893)
(-0.01634671526 -1.03604604 0.1779545213)
(-0.1827553246 1.976872667 -0.5223313532)
(-1.623671161 3.634568121 1.088536658)
(0.297308547 -1.073333751 2.260432048)
(-2.597489284 -1.320624469 -2.823262554)
(-2.879936372 0.3967822324 -1.072248495)
(-0.5504169798 -0.4124259902 -0.04356713219)
(-0.2894808733 0.2624034325 1.071525147)
(-1.648619108 -0.4325129319 -0.4790563792)
(-1.484059703 2.853459819 1.636426183)
(0.3275271766 -0.3213148679 2.32857442)
(1.90802293 1.599126464 -0.5458242796)
(0.4348770834 0.246972205 -0.6088766237)
(3.47139375 1.5304251 -3.045555879)
(2.101580912 -0.06635343339 2.080234572)
(-0.6669213796 1.056501239 1.027191399)
(-0.8502299232 -2.199005714 -0.5924763718)
(-0.9121508891 3.634134392 -1.494629031)
(-2.129170023 -1.727289332 1.480050173)
(-2.958669048 -2.138650456 -3.824323494)
(-1.258166535 -0.1505645188 -0.5053223555)
(1.619053723 1.116240911 -0.3119706001)
(0.9800117976 0.1314853903 0.5646945557)
(-0.3054489615 -2.375927584 -0.1503046006)
(-2.090765459 0.05872020352 -0.2497149758)
(-2.563446742 3.575247107 -0.03521630087)
(-3.26892898 1.658194485 0.2658360027)
(0.4405354795 -1.41704211 0.6883240243)
(-0.5240869334 1.885026679 0.7965231645)
(-2.963764118 -0.1185089489 -0.1877894464)
(0.4754117205 0.2493938629 -1.223209422)
(1.654897391 -0.5497694622 1.684578463)
(0.6672194943 0.09279472956 0.04928805488)
(-1.648886515 0.9798922147 0.9685076066)
(0.1438098758 -2.06384102 -0.6453931967)
(0.4813865255 2.610141731 1.34385416)
(0.4651032435 -4.058933153 0.4656664057)
(0.8646226095 0.7534724597 -0.9024772799)
(1.605645498 1.236217551 -2.721266803)
(-2.704227874 0.6962643754 0.01036121328)
(-3.365061517 -1.241094309 -0.5327163861)
(-5.078759648 1.701726999 4.291270673)
(-4.850681538 0.5463316685 1.381020243)
(-0.9811015938 -1.427306626 0.05492393844)
(3.175887342 0.6007649927 1.766368755)
(-0.8221081681 -3.816631815 -0.2593478481)
(1.169864474 1.581088393 -1.869215042)
(-0.5719068557 -1.143796376 1.155694451)
(0.4483646424 -2.841704691 -1.172917572)
(-0.8470692215 5.033407068 0.722764324)
(1.053738517 -0.2874109094 3.182048102)
(-0.6852626327 0.06291056003 -1.489097446)
(-1.264200097 1.720777013 0.1090001226)
(2.390430816 -0.468996989 0.3814502168)
(3.675472636 -1.096173952 -0.9941736832)
(3.870375412 -1.31540889 -1.429014934)
(0.7656051831 0.963404098 0.9332854379)
(-1.222645272 3.041595063 -0.2693596136)
(0.4881958637 -1.293996182 -0.1163362608)
(5.378848133 -1.798731446 0.4283863875)
(6.17771729 -4.542302742 -1.237048907)
(5.062318183 -0.4674045371 1.074936875)
(3.167457661 1.831194164 -0.8648460373)
(1.944420082 -2.685492947 0.8602086656)
(3.830489153 -0.07297141861 -1.647078706)
(-0.3977435344 0.5891984557 -0.3905358845)
(2.283667088 1.307611527 1.424717571)
(3.560965485 1.715125005 1.146286221)
(2.91373082 1.855579444 -0.1103622796)
(-1.126659113 -0.2381085321 1.964557286)
(-0.3918103632 2.980027699 -2.587876919)
(-2.131333978 -1.830801197 -2.444725922)
(-1.981750296 -1.313881823 1.225621208)
(-1.339858884 1.996163262 -0.8816118026)
(1.739508324 1.280148615 -0.6781468127)
(-0.009730731255 -1.262525117 -1.539948738)
(-1.46798561 0.6918154724 -0.5275803599)
(0.2869448717 -2.948425139 2.512646345)
(2.576235586 2.208741285 -0.6290667376)
(3.372062432 3.16769977 0.4017471389)
(4.727888665 -3.368191587 -0.4129540159)
(1.653848662 -1.454047879 1.363096707)
(0.1690611765 -1.368140823 -1.365970164)
(1.043177729 -0.2107757714 0.6278688526)
(0.6493947388 -0.2435347623 -0.8567230461)
(1.964589883 1.412192064 -0.1272445604)
(3.511325979 0.2255813244 -0.7485671912)
(4.109099337 -0.1415213297 0.3065034855)
(1.211520549 0.4055595634 -2.132190385)
(-0.944029051 0.4665763513 0.6560586889)
(0.1532902982 -2.575730378 0.6858609083)
(-0.5801038121 -1.525700953 -2.069568584)
(1.833226045 0.2266067701 0.2433038389)
(-0.8378469849 -0.5637825249 -0.3716958102)
(-0.3189548042 -0.07116188055 1.139623928)
(1.001018302 3.620386785 0.6186557198)
(2.491705039 -0.9571983721 0.1918203753)
(0.1212646657 -0.3032195008 -1.050897552)
(-0.180585017 3.319859375 3.05258172)
(1.442693974 0.4787871715 -2.168236366)
(5.388893455 1.397309854 -0.1768403344)
(0.8702572263 -0.2454347196 -0.7697957233)
(-0.64488029 -0.5088306326 1.538637575)
(-0.3062667817 -1.818202262 0.4697447095)
(-2.200589695 -3.377752666 -1.811481686)
(2.299149765 -1.308474281 -0.06043371663)
(2.980248512 1.445611839 -0.9531803309)
(1.304072627 2.284652507 0.900744619)
(0.3847971144 0.9618968607 2.940602886)
(-2.000526299 -0.4490883281 -1.930426033)
(0.9317195322 -1.121003256 1.167096762)
(-1.208026904 2.982507284 2.060812583)
(-1.687430006 3.135834476 2.802870872)
(3.459408129 -0.9530131433 -1.320242953)
(0.05675829648 -1.097210446 -0.4468362515)
(2.35084192 -3.518920992 0.4970816673)
(2.466849215 -2.562751145 1.490119127)
(3.610731685 1.564022052 -1.360733805)
(1.592933367 0.3011331752 -0.7659002919)
(0.6034987494 0.1514258774 -0.480105685)
(-3.413550328 2.74622762 1.35430263)
(-1.006994718 -0.5751315205 1.6558719)
(-2.505685553 -0.1973513186 0.470666913)
(-1.2197692 0.9805773808 -2.092748283)
(-0.846311225 -2.847011411 -1.839468727)
(-2.456314617 -3.541585852 -2.399873839)
(-1.204337694 0.7165359369 5.094443328)
(-4.33641738 2.290041018 1.158302698)
(0.4936646301 -1.512914158 -2.016405373)
(-1.780308525 0.1128734195 -0.2120781128)
(-3.07840168 -0.7591484369 0.7451314159)
(-3.717585734 0.5214209399 1.456995132)
(0.0877437915 -0.04559869882 3.565870025)
(1.496227304 1.130337094 -2.017820655)
(-1.062058854 0.01492027128 2.416347127)
(-3.032998939 -0.00846151672 -0.5881584036)
(-3.880900675 -4.825836774 4.075158807)
(-2.044771747 2.921433141 -0.4146065253)
(-0.8366134757 2.075741878 0.9423830493)
(0.9559255871 -0.5577286626 0.9400135469)
(-0.8043766711 3.047064045 1.228953476)
(0.7775274063 -0.4661587711 0.5253202055)
(1.452285603 -2.272161788 -2.425520675)
(1.38463651 0.6547579496 -1.647966418)
(-1.102920859 -0.25731908 0.535641734)
(-3.16141655 3.738132258 -2.922751773)
(-3.581110134 1.416533182 0.8823094492)
(0.3536676254 -3.107559709 -0.348492681)
(-1.360933988 -0.1628238669 -0.6528591429)
(-3.424172471 1.588241087 3.094464757)
(-2.517751401 2.054640168 -2.567862656)
(-1.118644041 2.410457056 -0.9249525989)
(0.6795300976 1.660759031 -3.066414893)
(-2.575532843 1.285028955 0.2041395563)
(-3.063076942 -1.103521624 -2.611014088)
(-4.248864096 -0.5306687105 2.504157447)
(-0.9659861092 -0.5574462052 0.2162781871)
(-1.106490031 -0.02723812351 1.553406568)
(0.4453355688 -0.328025233 1.097242004)
(-1.598372582 -1.799959823 -0.04808146695)
(-1.070443837 -2.943987593 0.4547567587)
(-1.596886133 -0.6400965203 -0.9058182245)
(-2.832701828 -1.188274219 -0.9922446771)
(-1.886736101 0.3039502049 0.9510484955)
(-0.2667374417 2.593687707 2.792169303)
(-1.783762355 -1.38386873 0.5167786366)
(-2.853353221 -1.484042948 -0.4821860243)
(-3.043565927 0.7260917054 2.394972479)
(-2.094520588 2.069026301 -1.659653478)
(0.7749661997 -0.6148282875 -0.5298810888)
(1.197656601 2.34050189 -0.846930172)
(0.9787267426 -1.874556038 -3.141550997)
(2.563600636 -0.4148672247 0.3487003106)
(2.322027009 0.2129871135 -0.3953826127)
(0.4360622776 -0.3619475115 0.3506665029)
(2.449636455 -0.2430461801 0.9480887157)
(2.57683178 1.816550709 -1.713897779)
(1.130719322 -4.55759951 -0.8459492044)
(-1.602902632 2.834005616 1.15326546)
(0.6708601594 3.73027468 0.6753421733)
(-1.045276841 0.2207082417 1.551133392)
(3.629808375 1.117947662 0.9454146779)
(1.610863121 -2.300599724 -1.194345572)
(-0.832983423 -1.82051459 1.428914661)
(2.582785576 -4.988711972 -3.167811739)
(0.3218228237 1.389504069 -0.6897061712)
(3.030540891 1.489669924 0.5233240368)
(-3.446670818 -1.313843988 -1.058748892)
(-1.648380685 -2.482306257 -0.5836866257)
(-0.3248619142 0.8909904751 1.730405557)
(-3.045452731 0.6276492021 -1.156827297)
(-0.3095998233 1.154031642 0.05301979833)
(-0.2139494415 1.611906028 1.890735332)
(-1.47542887 -2.509433529 1.816334358)
(0.1781188991 1.17874476 -0.945276034)
(0.8790211839 0.6573439872 0.1220210971)
(-0.4767292522 -0.4514769191 -0.325286124)
(-0.2318297043 0.1863814235 2.311511587)
(3.682581314 -1.626227415 0.4373651067)
(4.182855292 -1.421081284 0.483910623)
(-1.514903978 1.873228278 -2.390801646)
(-1.943965812 0.3890583926 -0.8157974651)
(1.179568259 2.593894523 0.04409377905)
(1.875250605 0.2155269746 -3.744909501)
(0.32715922 -0.7512296132 1.784221312)
(0.7716084007 -1.098288533 -0.95078787)
(-0.4645432327 -0.5420628549 1.246582683)
(0.03508816042 0.6176674762 -0.1440499002)
(-2.149106994 0.5648675756 0.6879418638)
(-1.710220489 2.294021231 2.015168377)
(-0.6178902419 -2.231467708 -2.377410097)
(-0.1789885802 1.408045448 0.2037055306)
(-0.7154983623 -2.078822306 1.950950702)
(-1.055265268 1.082728915 -1.359164906)
(-2.223189756 1.928244365 -0.05629023896)
(-0.9030054879 2.221994162 -1.758593992)
(-1.104706714 -0.01926659228 -0.672525899)
(1.470669271 -0.5370039152 -2.074408919)
(2.139038613 -0.4668940258 -0.780807638)
(2.223917676 0.9427505096 0.5717021353)
(0.03284361001 -0.7673260371 -1.195704561)
(-0.1824286491 -0.3959425326 1.75616987)
(0.4222385164 1.104888156 0.4861486592)
(-1.22620315 -2.346797185 2.774418231)
(-1.038866218 1.266324004 -1.828116012)
(-2.610435054 2.976253753 0.2426845035)
(-2.956901484 0.01857384804 1.135192197)
(-0.4557870437 -3.016016884 0.2822298017)
(-2.314679409 1.628025293 -0.9079804552)
(-2.701105176 0.6622707904 -0.4091988781)
(-1.213118835 -1.769518367 -2.13158167)
(-1.613904507 0.219012033 0.8116877636)
(-2.077136202 -1.064518388 -0.6778379944)
(-1.728481498 -0.4291849253 1.282275049)
(1.169565036 -1.163830639 3.07189927)
(0.97821623 1.250972435 0.4898519599)
(-0.7285636075 -0.04564375992 -0.9012732322)
(-0.3517441103 -1.828563907 1.708244867)
(-0.9365783556 3.178236808 -1.27376535)
(1.19403591 3.265338058 -0.8000352019)
(-0.199421747 -2.208150353 1.944511611)
(1.166121383 0.9386260176 -1.495726548)
(4.080386337 -1.48159733 -0.6805558579)
(2.67267479 -3.332402507 1.244407748)
(-0.534065727 0.09593655673 -1.323587929)
(2.67540027 -1.161620077 -2.703272811)
(0.1392899213 -0.7790480546 1.922086739)
(1.544297028 -0.923777462 0.562668973)
(-0.4620714025 0.8341048478 -0.7827429983)
(1.721603813 2.408682426 -1.326528332)
(1.72559779 -3.572896171 2.376696989)
(-1.277340671 1.416107025 0.164004902)
(-1.260123867 2.290730379 -0.4872333183)
(3.724640107 -1.222858287 -0.9780461892)
(2.152702054 -2.846408418 1.963798633)
(1.669269343 -0.6853544906 1.264241865)
(0.7348691298 -0.1771268819 -2.134322398)
(2.158431848 1.229890823 0.6103611028)
(3.103926621 -1.213806181 -0.9812208893)
(0.9209333153 -2.734943566 1.445875118)
(-1.516127779 -1.51924489 0.7010054041)
(-1.892901126 5.797522005 -0.7763684304)
(-3.045956439 -1.755621752 0.7265716339)
(-0.8134188155 -0.3619579757 3.965488093)
(-3.011406479 -0.7324045112 0.8337186058)
(-3.6662359 0.4936772166 -1.35413734)
(-3.381048883 -2.859919967 1.325662085)
(1.090601415 -0.03512418999 -1.175853306)
(0.9424809525 2.010884298 -1.197964707)
(2.811849333 1.43042868 -0.7921267459)
(-0.1373958485 3.495031239 -0.2013258024)
(-1.357770473 -0.9152116271 1.407494685)
(0.7374049962 -0.715689862 2.374371737)
(-2.406635232 -0.2940355948 -1.152861241)
(0.4512338749 1.026893403 0.9971738532)
(-3.020669703 0.07233687041 0.7437883296)
(-2.365097309 -0.6943947983 0.3669866217)
(-2.378225286 -1.704003055 -0.7324354561)
(-2.146864302 -1.856871742 0.1292391453)
(2.76021864 -0.910054174 -1.392277072)
(2.333567927 -0.7744130757 -2.497908378)
(3.689345531 -0.2369823152 2.261632711)
(3.255901044 -0.6471944094 -1.4813827)
(2.530474485 -2.44181837 3.793812133)
(-1.034293788 0.6777638348 -2.968646531)
(-1.845888698 0.2002077116 -0.6510197424)
(2.748247491 -0.8047366219 -0.8272583044)
(-0.4867582116 -0.05357582797 0.09186560444)
(2.059128729 4.58803918 -2.215258539)
(2.877528674 -0.7795583744 2.37580226)
(1.497245979 -2.241943817 -0.8625720622)
(2.260780444 -1.67188495 2.018462346)
(-0.1390789694 -1.632159561 -0.4089536306)
(0.5586543074 0.7945856134 1.745262192)
(-1.375850477 1.446110892 -0.1362622552)
(0.6978741395 -0.822250482 0.4812417722)
(2.264032035 1.28302245 -0.680360126)
(1.162298244 0.1888493063 2.23880255)
(-0.1039468659 0.21629503 -4.210133402)
(-1.763470347 -1.462468578 0.4116725543)
(1.758683216 -0.04003589146 -0.2758589153)
(0.8276325811 0.3485635519 -0.1475110507)
(1.281375887 1.520076048 -2.466619925)
(-1.041683998 -0.2924536527 1.465063945)
(-0.5381338822 -0.1257333353 -0.3182664598)
(-0.6714446339 -4.277140984 -1.898038117)
(-0.4673658441 1.421355635 1.6529336)
(-0.5503551611 3.019647956 0.9970423882)
(-2.829840066 0.5148585472 -0.8915310641)
(0.1232472893 0.2452195363 1.413990204)
(-3.359312941 -3.214777175 -1.133140078)
(0.4539543297 2.356328385 0.3990141521)
(-0.8021486947 0.6258994951 0.2497672707)
(4.385916022 -1.542955782 -1.039906175)
(2.337328558 -0.3289423846 2.109147371)
(4.209444866 -0.9438355105 1.693106088)
(0.165864896 -3.892719292 1.69559092)
(1.887520453 -0.265265624 0.8753647342)
(0.5691419415 1.825906008 -2.383494237)
(-1.484952182 2.14285167 -0.7546331654)
(-0.1381286591 0.9560292926 0.2346233251)
(-0.7084684016 -2.094024715 -1.366351472)
(2.321665227 3.277277417 1.786813846)
(1.532252929 -3.187187719 1.369259508)
(0.3950771508 1.189717895 1.33452691)
(-1.398924479 0.1382207759 0.5162183091)
(-2.536930911 1.840103284 0.622307275)
(2.260620672 0.3760767316 2.392076707)
(-1.028230232 -0.6688614058 -3.626094949)
(1.071802473 0.6434285542 0.2530634822)
(-1.915103891 1.290373972 2.649793111)
(-0.1875881979 -2.136927321 -2.62003754)
(-0.5438561661 0.3831847124 0.6479937122)
(-1.718010797 0.8814762394 -0.2300555789)
(-1.07190427 2.235040398 0.0891719424)
(-1.468351466 0.2931790169 0.05970861814)
(-4.04316134 -2.244603247 1.736313503)
(-0.2749774745 1.399429102 -1.781092587)
(-1.580756898 -0.7375314522 0.6732080047)
(-0.3690402546 0.5496223255 -1.472235712)
(-0.2792913386 1.11883688 0.6060876277)
(-2.124953767 -2.369046931 -0.2181850283)
(-0.3484514645 -1.679441836 -0.1620664459)
(-1.472669275 2.947261421 -0.8267324579)
(-0.2360314557 0.7358816671 0.4878633545)
(-0.8548329969 4.001367638 0.1826784935)
(2.402767165 -2.608608083 2.288816027)
(-3.361447388 -2.4372399 0.2763701173)
(-2.197625204 0.4959589194 0.98413971)
(-2.455668074 0.4714005951 0.8089562392)
(-1.212729281 3.094830722 -0.5278093839)
(0.9432777927 -1.730737172 0.07624866946)
(-1.242814425 1.634106085 0.5240505675)
(2.989031395 1.757617515 -0.9902149147)
(3.257740523 0.1162610198 -0.7440893817)
(1.689435622 -2.537974542 -3.737997836)
(0.9506421344 -0.7144563345 -0.5010567616)
(0.8053442323 -0.8945070029 0.7190233736)
(1.540190536 0.008119065776 -1.399807457)
(-0.04893598122 -1.564560337 -2.049163741)
(0.3069647226 -4.858210619 -0.07917317114)
(1.34040278 0.3470899964 -1.751442449)
(-0.8037464653 -0.7198071113 -0.003099852591)
(-0.5769648674 2.389606179 0.3572386083)
(1.841575207 -1.0261528 -0.7180198078)
(0.9061074884 -0.7759987657 -1.279919702)
(-0.7864072667 0.7753051396 1.410058072)
(-0.7321107444 -1.081506789 -0.4898801862)
(-1.646507899 2.420829003 -1.533106054)
(-1.394721769 -1.95254701 2.364065192)
(-0.416250581 -1.988812515 0.2290325884)
(3.453025796 0.1043319753 1.55166503)
(0.690460266 -1.076384277 -0.8976350815)
(-0.5418279143 2.20412393 0.2606075901)
(2.230083591 0.01680738801 -0.4707709908)
(-0.7219100956 -0.5516315566 0.7877863334)
(-1.2095475 0.8913055645 -0.004110262556)
(1.586463207 -2.961569389 -0.3127228367)
(-0.1471386675 0.2495117542 0.8215366582)
(1.42830566 2.907635452 -2.07499421)
(3.457577126 -1.141043654 -0.1485529423)
(1.385991745 1.036901396 0.6229020175)
(2.910409302 -1.301493699 0.1183576899)
(3.105159179 -0.5045233077 -2.407611129)
(-2.384385009 -2.638254513 -0.1596346888)
(-0.5258362815 0.6803878243 3.152571558)
(-0.9156157352 2.444014573 0.00855101414)
(1.609949237 1.63855312 -0.8144426)
(2.029060602 -3.24651301 -2.892037067)
(-1.400156661 0.326584512 1.193012352)
(-1.603025324 0.2363333317 -0.4434948536)
(-1.181247969 1.876205829 -0.5790023914)
(0.1010547177 1.050594404 -1.301768296)
(0.4488350165 -1.467084174 1.400980991)
(-3.21223258 -2.618764617 -0.7305712732)
(2.052788414 1.490157548 1.266596478)
(2.832543279 -0.2895489825 0.6007582275)
(1.013054815 0.1556432657 -0.1412474757)
(-0.5702994761 -1.404141015 -0.133631756)
(0.1857670285 0.7021060354 -2.447241901)
(1.214509786 -0.0472659771 2.671371049)
(-0.1337772888 1.609685086 0.1138344745)
(-0.1804794767 1.212848422 -0.9130458453)
(-1.076704866 -1.802761123 -0.4388786293)
(0.4428357267 -1.836749696 0.1046275609)
(-0.7865026694 -0.7262195007 -0.5232313053)
(0.7004217202 -0.6887786414 -0.5461064756)
(-0.5747428649 0.4291037301 1.141489649)
(-0.6565490555 1.683715135 0.7974608901)
(0.0183405524 -0.3927200926 -2.832585995)
(0.7520620957 -0.1385092002 -0.8968202121)
(1.832471072 0.1449705758 -0.8419374033)
(2.949120605 -1.442287635 1.798886267)
(1.353301583 1.704593982 1.703087662)
(3.434885353 -1.498817521 0.4620709495)
(1.721338491 1.800038228 0.2560033781)
(1.481253103 2.621765791 1.578753798)
(0.5071017157 -2.580307429 0.3810086922)
(0.9022376292 0.3322039429 0.3382556196)
(0.8306753688 0.0839639113 -2.293867286)
(2.118567909 1.795936807 1.919801157)
(-0.3686997209 1.407780414 -1.343271175)
(1.267204773 -0.1364233025 -0.434773419)
(3.438172827 -1.927646459 0.2335076017)
(2.676520875 3.502784783 1.789656908)
(2.82236354 1.198506102 -0.3391415679)
(3.376677652 0.2547790427 0.4610458841)
(1.389631616 -2.023182466 -0.5654017925)
(4.168354799 4.984633718 -0.3675322679)