/*--------------------------------*- C++ -*----------------------------------*\
| =========                 |                                                 |
| \\      /  F ield         | OpenFOAM: The Open Source CFD Toolbox           |
|  \\    /   O peration     | Version:  v1612+                                |
|   \\  /    A nd           | Web:      www.OpenFOAM.com                      |
|    \\/     M anipulation  |                                                 |
\*---------------------------------------------------------------------------*/
FoamFile
{
    version     2.0;
    format      ascii;
    class       volScalarField;
    location    "0.2";
    object      variableHardSphereMeanFreePath_Ar1;
}
// * * * * * * * * * * * * * * * * * * * * * * * * * * * * * * * * * * * * * //

dimensions      [0 1 0 0 0 0 0];

internalField   nonuniform List<scalar> 
1000
(
0.009317273541
0.009255588835
0.009244480821
0.00913486903
0.009187341986
0.00934740614
0.009317064635
0.009528579533
0.009423041966
0.009352841205
0.009332755878
0.009378990009
0.009363493623
0.009394814648
0.009085501729
0.009176829203
0.009221886425
0.009411779257
0.00933448846
0.009291957485
0.00951140401
0.009195240322
0.009168583598
0.009318817615
0.009228909599
0.00947648201
0.00934022354
0.009095997402
0.009134558373
0.009224126963
0.009321498098
0.009341201808
0.009426714729
0.009342625791
0.009111298676
0.009298311281
0.009153966913
0.009235085392
0.009114841102
0.008897659812
0.009002487971
0.009238246668
0.009142146008
0.0090940296
0.008947692602
0.008957565466
0.00918903782
0.009237433615
0.009291363066
0.009440423441
0.00927420857
0.009221196002
0.009076000179
0.009161821361
0.009402896159
0.009293574902
0.00920929428
0.009218671509
0.009333212254
0.009279369964
0.009100354078
0.009003749881
0.009154095857
0.008976076015
0.009295529012
0.009143470058
0.009227922974
0.00921282287
0.009223032034
0.009206606767
0.009199072263
0.009401187113
0.009226831966
0.009317556904
0.009397225341
0.009387170938
0.009301676071
0.009352041109
0.009104385861
0.009246633641
0.0090082592
0.008919569053
0.009182955233
0.009356324374
0.009351112882
0.009283362983
0.009278039961
0.00954327906
0.009317183917
0.009262346921
0.009338465003
0.00933327593
0.00947194397
0.009122979245
0.009536157956
0.009576130347
0.009651927518
0.009640262041
0.00933536273
0.009310316402
0.009403110499
0.009167545864
0.00934505003
0.009645544088
0.009502775556
0.009331726321
0.009436233042
0.00943148677
0.009337857297
0.009370512409
0.009341346869
0.00923832658
0.009312166098
0.009296358214
0.00932459816
0.009385975839
0.009085729618
0.00917871799
0.00926987997
0.009055520889
0.009074482318
0.009287586088
0.009389625772
0.009452580281
0.009374672821
0.009416347593
0.009204760723
0.00930333544
0.009331881166
0.009031595887
0.009120165004
0.009206862765
0.009250573068
0.009404722255
0.009255263272
0.009333323565
0.009137890704
0.009022838736
0.009034838686
0.009097535445
0.009153127737
0.009288584965
0.009210128327
0.009348221331
0.00934380795
0.009188081831
0.009368334551
0.00930545413
0.009464315293
0.009437689253
0.009309204241
0.009127968259
0.009407714039
0.009503331503
0.009325278076
0.009530758498
0.009497976452
0.009582296684
0.009406532638
0.009487027696
0.009247139202
0.009254559464
0.009533208522
0.009419473185
0.009392578428
0.009384672893
0.009400031895
0.009420026998
0.009381528551
0.009237137701
0.009311851322
0.009106431465
0.009043462565
0.009406143761
0.009268283336
0.00931024821
0.009236625658
0.00908004836
0.009443659789
0.009494220534
0.009302359712
0.009330296354
0.009314401669
0.009161864549
0.009139184321
0.009169929796
0.009088818472
0.00908064969
0.009110250158
0.009314923465
0.009404224914
0.009312846452
0.009294762292
0.009460451796
0.009548873698
0.009551516519
0.009345000687
0.009351732553
0.009358964931
0.009149001013
0.009263668978
0.009199786913
0.009108389664
0.009289651685
0.009332822716
0.009230927475
0.009200279838
0.009138297717
0.00933035644
0.009312941177
0.009187989276
0.009327758708
0.009505824207
0.009314950482
0.00916741535
0.009186229528
0.009484687857
0.009406964654
0.009105851873
0.009259318998
0.009387978984
0.009366572298
0.009231097832
0.009296464483
0.009431833148
0.00928857873
0.009300005105
0.009285492845
0.009173822211
0.009075876071
0.008990274975
0.009232608521
0.009213544822
0.009338685337
0.009268289679
0.009213156755
0.009206580549
0.009133300454
0.009220966589
0.00903570458
0.009108561034
0.009163429353
0.009045153488
0.008988144524
0.008870814248
0.008934589399
0.00917306213
0.009206791034
0.009052382232
0.009214840099
0.009347925915
0.009194624303
0.009232867788
0.009266631314
0.009169225189
0.00919950978
0.009213048189
0.009387734772
0.009097692717
0.0092348183
0.009118391526
0.009152670997
0.009174314188
0.009100984627
0.009184856104
0.009028028057
0.00922233473
0.009205549527
0.009119382424
0.009249342516
0.009085354702
0.009095203771
0.009240665492
0.009097626302
0.009246846474
0.009322194273
0.009352265365
0.009111250309
0.009190005368
0.009233800062
0.009220339186
0.009247089326
0.009145345252
0.009167011369
0.009162280587
0.009281380473
0.009117882247
0.009347677721
0.009253209527
0.009197308726
0.009429057979
0.009203278821
0.009304384077
0.009171990002
0.009362203271
0.009462321955
0.009384257639
0.009475286902
0.009110017882
0.009140675407
0.009276794482
0.009179752146
0.009331501772
0.009315143714
0.00939045712
0.009094242944
0.00929390658
0.009252757998
0.009336220442
0.009264901346
0.009172232586
0.00945112393
0.009242509646
0.009493944122
0.009274778309
0.009298726685
0.009283776418
0.009182214801
0.009163363755
0.009107449325
0.00917186446
0.00932497925
0.0092367885
0.009395668595
0.009235586557
0.009311479494
0.009263431367
0.00922955016
0.009077410112
0.009142537296
0.009197277664
0.009318213283
0.009155449417
0.009326955266
0.009074799394
0.009109582402
0.009237324295
0.009031985285
0.009166411781
0.009085404449
0.009144482497
0.009110954789
0.0092072168
0.00917769386
0.009358269754
0.00925525092
0.009322829153
0.00936925814
0.009314405317
0.009309059867
0.009186184972
0.009270361881
0.009237070837
0.009460781615
0.009389228974
0.009481490496
0.0094101134
0.009467214336
0.009564981984
0.00949034838
0.009512597538
0.009474412231
0.009699593652
0.009610161855
0.009544446009
0.009369654105
0.0094395695
0.009553197429
0.009357967813
0.00916803181
0.00924598386
0.009139738287
0.009283212263
0.009391644115
0.009359273111
0.009270938123
0.009323505335
0.009418801759
0.009662262192
0.009402639808
0.009278318097
0.00909621349
0.009204746517
0.008943912775
0.009085520442
0.009209786107
0.009110017645
0.009268761206
0.009197130277
0.00925357167
0.00916447313
0.009258122491
0.009210553398
0.009328233558
0.009302584428
0.009424539129
0.009241774802
0.009243866766
0.009244280352
0.009322652738
0.008997551378
0.009051916997
0.009073638653
0.009063038986
0.009316154162
0.009214032901
0.009154704887
0.009181611576
0.009190805025
0.009236513346
0.009265529736
0.009280628791
0.009454241283
0.009265659152
0.009197643411
0.009201563017
0.009360654911
0.009186563984
0.009527647066
0.009175716266
0.009212788196
0.009167441753
0.009309903582
0.009370257628
0.009339604195
0.009443694514
0.009198726733
0.009064349791
0.009241869874
0.009135160215
0.009188272149
0.009146456855
0.009154834123
0.009361511356
0.00933026311
0.009407188088
0.009329605028
0.009053495285
0.008973384962
0.008880503574
0.009037203954
0.009061537657
0.008885150465
0.0091818424
0.009121880308
0.008931404188
0.008954728927
0.009012598302
0.009112828556
0.009130424369
0.009191577737
0.009074714059
0.009129133664
0.009098117015
0.008965716779
0.008914992487
0.009068863758
0.009334806196
0.00912284732
0.009128136753
0.009173289284
0.009007167711
0.008980816398
0.009108448349
0.009125669942
0.009214449244
0.009039137968
0.009033694398
0.009281588248
0.00917410635
0.008994094861
0.008962065792
0.009038326066
0.00911855465
0.009250567991
0.009209065228
0.00901962947
0.009156943948
0.009235970689
0.009202579492
0.009119810028
0.009067153461
0.008953343238
0.009034262335
0.009244306903
0.009195191593
0.009390421745
0.009370762528
0.009376184531
0.009315005827
0.009349960492
0.009243848397
0.009259158991
0.009346527787
0.009435678429
0.009305234332
0.009255437164
0.009655518488
0.009484923038
0.009215127214
0.009451204056
0.009316819024
0.0093501646
0.009364735974
0.009239529478
0.009228604864
0.009344756553
0.009474804244
0.009360123791
0.009420483119
0.009499807662
0.009581804568
0.009305610182
0.009327906306
0.009441170142
0.009300902151
0.009169730483
0.009276612066
0.009194173624
0.009284053659
0.009237121526
0.009331172406
0.009520868669
0.009422652772
0.009199089533
0.009262126005
0.009111301532
0.009484499252
0.00914966774
0.00908495526
0.00904781401
0.009216758584
0.009332348831
0.009048118171
0.009218190518
0.009114408676
0.009145058482
0.009292809392
0.009127183939
0.009553931827
0.009295382663
0.009341805682
0.00932494981
0.009175451072
0.009374155122
0.00933565646
0.009238242581
0.009245841999
0.009237258115
0.009386414469
0.009533600821
0.009216813247
0.009248367918
0.009414958583
0.009548174016
0.009512965698
0.00946704311
0.009429069626
0.009638014185
0.009508209423
0.009457132792
0.009411234917
0.009290353069
0.009501098234
0.009393479413
0.009383029966
0.009575430599
0.009442122195
0.009442008039
0.009314507668
0.009478476634
0.009439306855
0.009373361267
0.009289821822
0.009231083534
0.009292448702
0.009444381373
0.009351846145
0.009462807473
0.009406923391
0.009295888311
0.009174396357
0.009255783835
0.00930862227
0.009135899833
0.009208210514
0.009270007671
0.009160536665
0.009021025387
0.009311331599
0.009203490033
0.00922966175
0.009202437217
0.00917159853
0.009356354391
0.009258110065
0.009154179675
0.009128220487
0.00904993232
0.009144246016
0.008978355973
0.009043270852
0.008929613717
0.009283910382
0.009380704745
0.009336919925
0.009270044844
0.009344272228
0.009186959818
0.009144977406
0.00928860656
0.009213119749
0.009025002254
0.00916492062
0.009193091476
0.0092512429
0.009171563104
0.009163114529
0.009311536119
0.009318988726
0.009314549565
0.009088533303
0.009308687338
0.009330321539
0.009187002633
0.009402838592
0.009332599182
0.00928073727
0.009418511506
0.009146265573
0.009106542673
0.009284064353
0.009241186613
0.009214861063
0.009494566853
0.009229120189
0.009267113594
0.009021694475
0.00918737504
0.00908370639
0.00904943129
0.008918123461
0.008991107329
0.008932705087
0.00917987702
0.008872637896
0.008974626317
0.00917465711
0.008995040428
0.009235116101
0.009128388693
0.009151130717
0.009039781634
0.009186373447
0.009048446917
0.00896592212
0.009283128884
0.009134141289
0.009085188429
0.009147608878
0.009233884978
0.009231807108
0.00897810018
0.009078002392
0.009282155248
0.009152547194
0.009209731067
0.009138223544
0.009157522122
0.009128914508
0.009160486739
0.009093970476
0.008917026071
0.00908256402
0.009200022192
0.008994188008
0.009065066271
0.009184110387
0.009176807019
0.009210264655
0.009111491833
0.008938141647
0.008961209357
0.009030083742
0.009365615851
0.009316708408
0.009406373177
0.009422390253
0.009207805327
0.009288497697
0.009391698477
0.009363384836
0.009521728758
0.009433273528
0.009457859953
0.009377680868
0.009412297423
0.009461330519
0.009353828522
0.009527038268
0.009386867734
0.009622361198
0.009238197594
0.00951491108
0.009333935259
0.009484011699
0.009576567466
0.009557171419
0.009288649666
0.009321392132
0.009294391016
0.009431039285
0.009229101195
0.009359142484
0.009427217687
0.009315494003
0.009337833453
0.009226782801
0.00913424933
0.009166649841
0.009168114231
0.00921110821
0.009205269209
0.009184617284
0.009391305676
0.009351506749
0.009096504701
0.009219350873
0.009180850937
0.009444901838
0.009356199608
0.009124283263
0.009100444814
0.009196586413
0.009044851623
0.009228457873
0.009003901164
0.009306629949
0.009180156145
0.009250207414
0.009114236216
0.009153493668
0.009207384964
0.009389361564
0.00928324634
0.009197917471
0.009117225688
0.009073757946
0.009370142902
0.009578910926
0.009467829593
0.009354687922
0.00936848012
0.009413488364
0.009480745247
0.009459833241
0.009468237243
0.009415719828
0.009291184511
0.009336967035
0.009382777586
0.009377807832
0.009324558888
0.009410484456
0.009487001112
0.009566658002
0.00959152475
0.009680263616
0.009425917494
0.00935387173
0.009494602148
0.009468153693
0.009273949458
0.009407507923
0.009247825305
0.009460216576
0.009355550198
0.00914411711
0.009131034035
0.009202504389
0.009145110407
0.009193452051
0.009378996475
0.009435153582
0.008999202102
0.00912204466
0.009149572518
0.009031223681
0.009230500272
0.009218509232
0.009123848242
0.009123623922
0.009073905923
0.009154952004
0.009080182748
0.009094479658
0.009155841284
0.009178531961
0.00915966238
0.00905230008
0.009278123332
0.009077278058
0.009123755965
0.009084504049
0.009295345283
0.009299297083
0.009248824112
0.00947282114
0.009407104482
0.009317898437
0.009128557633
0.009081054485
0.009080786864
0.00930027961
0.009263168788
0.009141010633
0.009120503696
0.009344793755
0.00946874533
0.009323536802
0.009245643126
0.009272490607
0.00924264328
0.009153064883
0.009199759673
0.009268594252
0.009129882547
0.00909828856
0.009334330033
0.009272320606
0.009210891922
0.009180435743
0.009185051466
0.009046492462
0.009310801562
0.009319961506
0.009152107408
0.009118049305
0.009165453222
0.009160925029
0.009066943411
0.009076386764
0.008825326945
0.009030608832
0.009169558505
0.008946464585
0.008975184485
0.009163307162
0.009335913256
0.009280555466
0.008997432908
0.009040563935
0.009205187131
0.009038829408
0.0091597629
0.009150099019
0.008952771442
0.009218816818
0.0090848828
0.009023802234
0.009041274257
0.00916824663
0.008845040642
0.0091528565
0.009057649439
0.009046157598
0.009229567057
0.009123742536
0.009162725181
0.0091151555
0.009235659498
0.009003447057
0.008955207892
0.009084408047
0.009095804017
0.009279712992
0.009122534342
0.009215487791
0.009269108585
0.009303918833
0.009073900713
0.009141069024
0.008966105372
0.009264061557
0.009269296002
0.009358994464
0.00940760117
0.009445959047
0.009101197396
0.009221866896
0.009227110647
0.009430301398
0.009647811611
0.009499913144
0.009438532688
0.00938462905
0.009358320554
0.009437494204
0.009362776841
0.009420285906
0.009461968012
0.009522207379
0.00954116162
0.009517725647
0.009363146788
0.009396919654
0.009254477652
0.009303791213
0.009427556477
0.009230768811
0.009514067221
0.009310476434
0.009433337633
0.009363262426
0.009270343128
0.00916532747
0.009380646418
0.009353098721
0.009181506413
0.009259666754
0.009402704999
0.009235915225
0.009329331401
0.009255278618
0.009375583425
0.0093309494
0.009346044467
0.009206069958
0.009239466959
0.00933693613
0.009130968352
0.009028644936
0.009068798816
0.009286230426
0.008878988319
0.008992293301
0.009101013179
0.009199745612
0.009330746662
0.009131404463
0.009122336274
0.008953403011
0.009350559944
0.009159629315
0.009019586863
0.008975405851
0.009356245924
0.009482956138
0.009368593888
0.009391617553
0.009430875736
0.009514361086
0.009350814289
0.009588472492
0.009626902216
0.009597652548
0.009378994314
0.009316901562
0.009442238746
0.009297930513
0.00918800952
0.009361980398
0.009300058378
0.009396645287
0.009450241685
0.009570312439
0.00948034913
0.009578829043
0.009655110575
0.009684641951
0.009490770812
0.009399908783
0.009274070031
0.009291880703
0.009231308773
0.009233682602
0.009408680201
0.009183150957
0.009130094929
0.009090597195
0.009067114092
0.009186683501
0.009234931796
0.009146102033
0.008940375488
0.008989144129
0.009024577537
0.0089250926
0.008784690913
0.009119261873
0.009261143792
0.009008356072
0.009038099338
0.009104092362
0.009057683563
0.009095048321
0.00917383647
0.009144611269
0.00918688041
0.009113411267
)
;

boundaryField
{
    bottom
    {
        type            calculated;
        value           nonuniform List<scalar> 
200
(
0.009317273541
0.009255588835
0.009244480821
0.00913486903
0.009187341986
0.00934740614
0.009317064635
0.009528579533
0.009423041966
0.009352841205
0.009332755878
0.009378990009
0.009363493623
0.009394814648
0.009085501729
0.009176829203
0.009221886425
0.009411779257
0.00933448846
0.009291957485
0.00951140401
0.009195240322
0.009168583598
0.009318817615
0.009228909599
0.00947648201
0.00934022354
0.009095997402
0.009134558373
0.009224126963
0.009321498098
0.009341201808
0.009426714729
0.009342625791
0.009111298676
0.009298311281
0.009153966913
0.009235085392
0.009114841102
0.008897659812
0.009002487971
0.009238246668
0.009142146008
0.0090940296
0.008947692602
0.008957565466
0.00918903782
0.009237433615
0.009291363066
0.009440423441
0.00927420857
0.009221196002
0.009076000179
0.009161821361
0.009402896159
0.009293574902
0.00920929428
0.009218671509
0.009333212254
0.009279369964
0.009100354078
0.009003749881
0.009154095857
0.008976076015
0.009295529012
0.009143470058
0.009227922974
0.00921282287
0.009223032034
0.009206606767
0.009199072263
0.009401187113
0.009226831966
0.009317556904
0.009397225341
0.009387170938
0.009301676071
0.009352041109
0.009104385861
0.009246633641
0.0090082592
0.008919569053
0.009182955233
0.009356324374
0.009351112882
0.009283362983
0.009278039961
0.00954327906
0.009317183917
0.009262346921
0.009338465003
0.00933327593
0.00947194397
0.009122979245
0.009536157956
0.009576130347
0.009651927518
0.009640262041
0.00933536273
0.009310316402
0.009403110499
0.009167545864
0.00934505003
0.009645544088
0.009502775556
0.009331726321
0.009436233042
0.00943148677
0.009337857297
0.009370512409
0.009341346869
0.00923832658
0.009312166098
0.009296358214
0.00932459816
0.009385975839
0.009085729618
0.00917871799
0.00926987997
0.009055520889
0.009074482318
0.009287586088
0.009389625772
0.009452580281
0.009374672821
0.009416347593
0.009204760723
0.00930333544
0.009331881166
0.009031595887
0.009120165004
0.009206862765
0.009250573068
0.009404722255
0.009255263272
0.009333323565
0.009137890704
0.009022838736
0.009034838686
0.009097535445
0.009153127737
0.009288584965
0.009210128327
0.009348221331
0.00934380795
0.009188081831
0.009368334551
0.00930545413
0.009464315293
0.009437689253
0.009309204241
0.009127968259
0.009407714039
0.009503331503
0.009325278076
0.009530758498
0.009497976452
0.009582296684
0.009406532638
0.009487027696
0.009247139202
0.009254559464
0.009533208522
0.009419473185
0.009392578428
0.009384672893
0.009400031895
0.009420026998
0.009381528551
0.009237137701
0.009311851322
0.009106431465
0.009043462565
0.009406143761
0.009268283336
0.00931024821
0.009236625658
0.00908004836
0.009443659789
0.009494220534
0.009302359712
0.009330296354
0.009314401669
0.009161864549
0.009139184321
0.009169929796
0.009088818472
0.00908064969
0.009110250158
0.009314923465
0.009404224914
0.009312846452
0.009294762292
0.009460451796
0.009548873698
0.009551516519
0.009345000687
0.009351732553
0.009358964931
0.009149001013
)
;
    }
    top
    {
        type            calculated;
        value           nonuniform List<scalar> 
200
(
0.009278123332
0.009077278058
0.009123755965
0.009084504049
0.009295345283
0.009299297083
0.009248824112
0.00947282114
0.009407104482
0.009317898437
0.009128557633
0.009081054485
0.009080786864
0.00930027961
0.009263168788
0.009141010633
0.009120503696
0.009344793755
0.00946874533
0.009323536802
0.009245643126
0.009272490607
0.00924264328
0.009153064883
0.009199759673
0.009268594252
0.009129882547
0.00909828856
0.009334330033
0.009272320606
0.009210891922
0.009180435743
0.009185051466
0.009046492462
0.009310801562
0.009319961506
0.009152107408
0.009118049305
0.009165453222
0.009160925029
0.009066943411
0.009076386764
0.008825326945
0.009030608832
0.009169558505
0.008946464585
0.008975184485
0.009163307162
0.009335913256
0.009280555466
0.008997432908
0.009040563935
0.009205187131
0.009038829408
0.0091597629
0.009150099019
0.008952771442
0.009218816818
0.0090848828
0.009023802234
0.009041274257
0.00916824663
0.008845040642
0.0091528565
0.009057649439
0.009046157598
0.009229567057
0.009123742536
0.009162725181
0.0091151555
0.009235659498
0.009003447057
0.008955207892
0.009084408047
0.009095804017
0.009279712992
0.009122534342
0.009215487791
0.009269108585
0.009303918833
0.009073900713
0.009141069024
0.008966105372
0.009264061557
0.009269296002
0.009358994464
0.00940760117
0.009445959047
0.009101197396
0.009221866896
0.009227110647
0.009430301398
0.009647811611
0.009499913144
0.009438532688
0.00938462905
0.009358320554
0.009437494204
0.009362776841
0.009420285906
0.009461968012
0.009522207379
0.00954116162
0.009517725647
0.009363146788
0.009396919654
0.009254477652
0.009303791213
0.009427556477
0.009230768811
0.009514067221
0.009310476434
0.009433337633
0.009363262426
0.009270343128
0.00916532747
0.009380646418
0.009353098721
0.009181506413
0.009259666754
0.009402704999
0.009235915225
0.009329331401
0.009255278618
0.009375583425
0.0093309494
0.009346044467
0.009206069958
0.009239466959
0.00933693613
0.009130968352
0.009028644936
0.009068798816
0.009286230426
0.008878988319
0.008992293301
0.009101013179
0.009199745612
0.009330746662
0.009131404463
0.009122336274
0.008953403011
0.009350559944
0.009159629315
0.009019586863
0.008975405851
0.009356245924
0.009482956138
0.009368593888
0.009391617553
0.009430875736
0.009514361086
0.009350814289
0.009588472492
0.009626902216
0.009597652548
0.009378994314
0.009316901562
0.009442238746
0.009297930513
0.00918800952
0.009361980398
0.009300058378
0.009396645287
0.009450241685
0.009570312439
0.00948034913
0.009578829043
0.009655110575
0.009684641951
0.009490770812
0.009399908783
0.009274070031
0.009291880703
0.009231308773
0.009233682602
0.009408680201
0.009183150957
0.009130094929
0.009090597195
0.009067114092
0.009186683501
0.009234931796
0.009146102033
0.008940375488
0.008989144129
0.009024577537
0.0089250926
0.008784690913
0.009119261873
0.009261143792
0.009008356072
0.009038099338
0.009104092362
0.009057683563
0.009095048321
0.00917383647
0.009144611269
0.00918688041
0.009113411267
)
;
    }
    inlet
    {
        type            cyclic;
    }
    outlet
    {
        type            cyclic;
    }
    back
    {
        type            symmetry;
    }
    front
    {
        type            symmetry;
    }
}


// ************************************************************************* //
