/*--------------------------------*- C++ -*----------------------------------*\
| =========                 |                                                 |
| \\      /  F ield         | OpenFOAM: The Open Source CFD Toolbox           |
|  \\    /   O peration     | Version:  v1706                                 |
|   \\  /    A nd           | Web:      www.OpenFOAM.com                      |
|    \\/     M anipulation  |                                                 |
\*---------------------------------------------------------------------------*/
FoamFile
{
    version     2.0;
    format      ascii;
    class       volScalarField;
    location    "0.02";
    object      dsmcRhoNMean_N2;
}
// * * * * * * * * * * * * * * * * * * * * * * * * * * * * * * * * * * * * * //

dimensions      [0 -3 0 0 0 0 0];


internalField   nonuniform List<scalar> 
5120
(
19.60123077
19.58092308
19.56607692
19.58923077
19.58638462
19.61761538
19.58823077
19.57407692
19.51069231
19.50669231
19.48715385
19.47553846
19.48292308
19.48276923
19.51346154
19.50353846
19.45946154
19.52569231
19.52984615
19.54476923
19.44438462
19.43907692
19.48969231
19.51269231
19.46346154
19.38507692
19.398
19.41376923
19.47923077
19.43192308
19.52638462
19.524
19.44776923
19.46146154
19.43646154
19.51046154
19.46269231
19.51884615
19.459
19.48876923
19.41992308
19.41246154
19.40238462
19.41976923
19.48430769
19.50261538
19.43784615
19.46392308
19.47338462
19.49107692
19.48307692
19.51153846
19.51253846
19.51415385
19.566
19.50769231
19.51630769
19.44792308
19.44915385
19.42923077
19.44784615
19.42592308
19.45607692
19.466
19.45815385
19.44269231
19.45523077
19.45792308
19.44715385
19.43423077
19.43630769
19.42692308
19.41146154
19.34146154
19.37253846
19.359
19.37092308
19.46992308
19.44723077
19.41015385
19.44153846
19.45730769
19.49938462
19.43884615
19.43038462
19.397
19.36146154
19.36246154
19.34238462
19.35146154
19.36315385
19.46015385
19.41353846
19.473
19.46892308
19.41461538
19.41961538
19.41215385
19.423
19.43669231
19.39769231
19.41169231
19.42538462
19.38346154
19.50830769
19.47130769
19.38469231
19.32607692
19.29184615
19.35215385
19.34515385
19.41492308
19.389
19.46984615
19.41353846
19.42315385
19.39907692
19.40461538
19.37192308
19.39676923
19.35584615
19.31361538
19.34992308
19.41546154
19.37276923
19.38292308
19.36976923
19.38215385
19.38384615
19.33215385
19.31361538
19.40753846
19.42792308
19.42061538
19.40384615
19.41469231
19.39092308
19.38376923
19.40738462
19.31461538
19.36723077
19.359
19.32376923
19.31392308
19.31353846
19.28769231
19.25938462
19.27761538
19.26538462
19.31584615
19.31123077
19.27638462
19.31676923
19.41892308
19.44707692
19.445
19.45476923
19.43107692
19.40115385
19.42207692
19.41461538
19.37792308
19.406
19.35923077
19.35076923
19.41792308
19.40376923
19.35784615
19.40369231
19.372
19.41484615
19.41507692
19.39792308
19.38269231
19.37592308
19.41492308
19.47307692
19.45376923
19.44415385
19.46823077
19.40130769
19.42815385
19.41415385
19.34838462
19.39338462
19.36192308
19.46753846
19.49723077
19.475
19.35738462
19.27215385
19.33176923
19.357
19.37561538
19.40984615
19.31961538
19.302
19.29423077
19.38984615
19.42407692
19.51307692
19.56930769
19.55569231
19.58038462
19.506
19.46815385
19.40476923
19.38453846
19.36130769
19.36946154
19.43230769
19.48738462
19.48407692
19.50269231
19.44138462
19.41984615
19.48992308
19.46676923
19.44269231
19.45330769
19.378
19.33669231
19.38107692
19.37507692
19.42007692
19.44692308
19.49376923
19.47169231
19.45638462
19.446
19.44361538
19.47023077
19.44215385
19.46346154
19.49169231
19.45876923
19.45276923
19.45
19.403
19.36623077
19.47861538
19.46692308
19.48646154
19.44792308
19.41592308
19.41253846
19.41476923
19.36653846
19.399
19.38115385
19.39138462
19.45646154
19.45069231
19.49446154
19.52869231
19.49007692
19.51107692
19.49815385
19.51253846
19.50969231
19.54107692
19.50646154
19.48476923
19.49669231
19.47030769
19.42476923
19.41907692
19.47623077
19.46146154
19.49446154
19.54130769
19.53630769
19.57692308
19.55315385
19.52407692
19.50707692
19.47692308
19.48407692
19.48692308
19.42292308
19.41623077
19.39330769
19.35561538
19.34692308
19.38669231
19.39323077
19.36484615
19.35876923
19.47369231
19.47576923
19.54676923
19.47446154
19.50176923
19.45215385
19.44161538
19.31676923
19.36169231
19.44061538
19.50176923
19.48315385
19.47192308
19.48646154
19.44853846
19.44723077
19.39476923
19.44207692
19.49138462
19.54023077
19.55776923
19.52184615
19.42469231
19.42361538
19.40084615
19.39515385
19.39546154
19.47653846
19.52507692
19.51638462
19.48430769
19.47584615
19.46576923
19.50853846
19.47915385
19.48876923
19.52707692
19.55315385
19.51276923
19.47838462
19.46753846
19.53738462
19.60369231
19.50092308
19.41576923
19.427
19.50646154
19.47569231
19.43715385
19.46638462
19.43292308
19.42561538
19.45753846
19.43469231
19.44038462
19.42653846
19.43384615
19.50069231
19.41869231
19.43338462
19.39992308
19.43138462
19.39038462
19.45
19.50069231
19.47623077
19.40538462
19.40446154
19.42030769
19.37561538
19.38492308
19.41823077
19.47815385
19.53923077
19.49130769
19.48830769
19.47984615
19.45015385
19.47992308
19.47361538
19.47338462
19.42192308
19.40115385
19.41692308
19.47853846
19.46415385
19.46669231
19.512
19.54315385
19.547
19.50138462
19.51746154
19.37892308
19.38361538
19.39392308
19.39292308
19.36538462
19.45376923
19.46123077
19.47961538
19.46492308
19.45307692
19.43607692
19.39792308
19.41630769
19.41192308
19.41076923
19.432
19.455
19.35953846
19.40584615
19.37692308
19.48546154
19.48161538
19.46476923
19.45823077
19.47030769
19.52976923
19.53292308
19.56423077
19.51646154
19.52984615
19.48653846
19.49492308
19.45869231
19.44261538
19.35453846
19.39523077
19.366
19.35884615
19.39561538
19.46192308
19.43261538
19.44461538
19.46415385
19.46646154
19.44507692
19.46823077
19.51623077
19.562
19.52746154
19.49907692
19.51961538
19.39653846
19.41630769
19.438
19.41830769
19.40853846
19.43984615
19.39907692
19.43538462
19.41030769
19.43346154
19.41230769
19.44315385
19.39969231
19.44415385
19.47569231
19.495
19.47753846
19.52969231
19.51276923
19.50415385
19.43030769
19.40007692
19.43246154
19.43692308
19.45607692
19.44923077
19.43961538
19.44992308
19.42861538
19.535
19.51638462
19.53907692
19.55107692
19.513
19.48523077
19.48446154
19.41623077
19.37930769
19.41292308
19.45530769
19.43938462
19.49853846
19.46284615
19.45661538
19.50984615
19.45715385
19.44453846
19.42669231
19.51961538
19.43569231
19.46461538
19.40753846
19.42038462
19.36846154
19.37015385
19.39661538
19.439
19.38461538
19.40192308
19.35730769
19.38738462
19.41892308
19.43376923
19.497
19.49776923
19.48423077
19.49746154
19.49838462
19.47507692
19.31615385
19.32223077
19.324
19.38046154
19.44353846
19.45992308
19.42230769
19.43692308
19.447
19.44392308
19.48861538
19.46238462
19.41653846
19.37515385
19.29469231
19.31238462
19.34384615
19.34053846
19.36353846
19.31961538
19.43769231
19.40676923
19.41746154
19.47546154
19.46407692
19.45761538
19.41192308
19.47684615
19.44169231
19.45184615
19.37538462
19.287
19.31830769
19.32138462
19.36484615
19.38484615
19.41323077
19.43715385
19.45584615
19.46446154
19.51461538
19.49330769
19.52976923
19.50246154
19.47692308
19.50484615
19.53792308
19.53276923
19.49153846
19.50861538
19.49584615
19.52438462
19.44276923
19.40069231
19.38961538
19.43584615
19.45846154
19.46315385
19.50407692
19.50292308
19.51276923
19.50353846
19.54853846
19.51953846
19.51761538
19.47753846
19.41923077
19.47792308
19.53646154
19.56076923
19.51561538
19.49607692
19.49646154
19.49730769
19.50838462
19.46192308
19.45646154
19.49530769
19.46846154
19.47838462
19.37330769
19.42884615
19.41530769
19.45176923
19.48815385
19.45107692
19.45576923
19.43492308
19.41984615
19.46284615
19.45161538
19.45607692
19.43561538
19.44761538
19.49053846
19.46969231
19.48330769
19.45292308
19.389
19.42492308
19.50069231
19.50384615
19.54823077
19.54792308
19.56730769
19.57430769
19.52707692
19.51669231
19.45561538
19.42992308
19.428
19.498
19.566
19.48969231
19.45830769
19.51523077
19.47676923
19.51323077
19.49384615
19.45607692
19.54469231
19.49330769
19.47992308
19.46861538
19.48423077
19.466
19.45476923
19.53184615
19.49215385
19.44438462
19.46653846
19.47638462
19.45
19.48230769
19.49392308
19.46130769
19.47953846
19.48023077
19.54061538
19.56715385
19.40192308
19.38461538
19.42761538
19.41746154
19.45169231
19.50161538
19.49992308
19.45384615
19.44076923
19.50138462
19.51346154
19.49153846
19.56023077
19.53838462
19.53215385
19.44376923
19.44738462
19.44907692
19.41584615
19.42584615
19.37723077
19.37523077
19.37230769
19.37946154
19.37030769
19.33307692
19.36023077
19.34038462
19.34023077
19.38376923
19.43161538
19.48084615
19.44084615
19.45776923
19.47592308
19.46030769
19.41876923
19.45107692
19.42423077
19.43538462
19.46323077
19.48576923
19.49038462
19.51746154
19.51323077
19.47676923
19.49030769
19.37761538
19.36123077
19.35592308
19.30884615
19.31523077
19.279
19.34823077
19.26138462
19.35969231
19.40407692
19.42484615
19.46546154
19.46830769
19.35984615
19.43338462
19.41730769
19.41715385
19.47492308
19.45953846
19.45638462
19.46846154
19.43938462
19.41215385
19.45523077
19.41753846
19.36607692
19.45307692
19.47976923
19.44469231
19.41223077
19.41484615
19.37323077
19.35676923
19.43676923
19.456
19.43684615
19.44269231
19.41976923
19.46461538
19.42692308
19.43915385
19.49023077
19.55646154
19.55553846
19.51969231
19.48438462
19.467
19.39561538
19.33330769
19.37692308
19.39738462
19.42453846
19.47938462
19.43415385
19.47230769
19.50015385
19.44415385
19.46
19.44992308
19.41953846
19.38484615
19.38661538
19.37107692
19.37369231
19.43092308
19.42353846
19.43953846
19.442
19.46138462
19.434
19.47838462
19.41069231
19.39338462
19.37161538
19.34853846
19.33053846
19.39961538
19.47723077
19.419
19.40038462
19.48207692
19.51953846
19.552
19.54184615
19.52284615
19.46869231
19.40476923
19.358
19.40515385
19.43415385
19.45923077
19.42061538
19.38007692
19.37853846
19.45730769
19.44092308
19.42792308
19.384
19.39484615
19.50907692
19.46061538
19.43553846
19.44107692
19.46415385
19.455
19.40038462
19.34638462
19.40438462
19.37038462
19.35723077
19.28807692
19.31376923
19.31969231
19.45807692
19.43146154
19.40138462
19.39253846
19.41284615
19.41984615
19.40446154
19.38869231
19.41607692
19.44661538
19.46315385
19.482
19.46107692
19.47053846
19.39615385
19.42646154
19.448
19.455
19.484
19.47107692
19.30146154
19.27776923
19.35369231
19.35707692
19.35507692
19.35561538
19.34830769
19.32430769
19.356
19.40592308
19.42469231
19.41876923
19.434
19.44953846
19.46715385
19.42815385
19.40176923
19.406
19.37507692
19.32769231
19.45269231
19.543
19.471
19.41076923
19.41669231
19.47492308
19.50807692
19.49253846
19.48946154
19.44115385
19.46861538
19.43484615
19.45430769
19.43
19.43846154
19.47015385
19.47161538
19.43353846
19.42976923
19.46069231
19.44923077
19.48376923
19.49838462
19.55653846
19.55453846
19.48615385
19.46192308
19.48292308
19.478
19.50638462
19.51530769
19.49123077
19.47015385
19.54476923
19.51953846
19.45930769
19.44092308
19.43276923
19.437
19.457
19.46115385
19.47546154
19.44907692
19.43730769
19.49484615
19.55576923
19.526
19.569
19.53684615
19.49192308
19.51646154
19.57653846
19.556
19.50138462
19.48707692
19.45415385
19.46838462
19.47484615
19.43676923
19.43715385
19.493
19.42838462
19.41376923
19.34592308
19.39807692
19.40469231
19.42684615
19.47761538
19.48138462
19.52038462
19.514
19.51730769
19.54246154
19.57530769
19.58223077
19.63238462
19.62253846
19.60476923
19.57115385
19.48923077
19.505
19.44523077
19.52215385
19.47507692
19.48223077
19.53476923
19.62630769
19.55561538
19.46784615
19.52392308
19.46069231
19.44946154
19.40353846
19.47969231
19.54492308
19.50861538
19.56184615
19.49930769
19.52623077
19.51738462
19.46
19.53715385
19.49192308
19.56469231
19.50684615
19.46684615
19.45030769
19.47892308
19.51653846
19.48553846
19.47
19.51084615
19.49723077
19.47130769
19.42238462
19.45461538
19.45976923
19.47284615
19.46992308
19.44792308
19.42361538
19.40884615
19.38861538
19.33392308
19.396
19.37546154
19.41861538
19.48992308
19.52423077
19.52792308
19.58730769
19.63546154
19.65476923
19.63353846
19.60261538
19.59015385
19.53407692
19.49830769
19.46953846
19.40884615
19.40269231
19.39007692
19.40684615
19.39169231
19.42930769
19.40715385
19.45953846
19.464
19.465
19.43130769
19.42592308
19.39176923
19.36669231
19.45169231
19.44892308
19.47646154
19.50092308
19.56715385
19.52623077
19.46730769
19.50323077
19.46015385
19.48576923
19.43623077
19.42469231
19.40653846
19.363
19.39253846
19.36846154
19.37553846
19.38053846
19.34123077
19.35915385
19.32261538
19.35746154
19.40153846
19.37638462
19.38384615
19.43207692
19.552
19.47738462
19.49507692
19.51353846
19.45876923
19.43415385
19.41007692
19.35315385
19.31523077
19.38461538
19.38361538
19.42484615
19.39892308
19.36392308
19.36384615
19.32823077
19.282
19.35723077
19.38507692
19.35615385
19.37692308
19.404
19.43523077
19.41015385
19.41030769
19.40161538
19.35507692
19.41507692
19.36161538
19.35061538
19.34746154
19.32030769
19.38007692
19.447
19.46592308
19.51892308
19.523
19.46830769
19.44707692
19.48784615
19.46207692
19.41330769
19.32830769
19.37484615
19.39561538
19.36861538
19.33692308
19.30946154
19.36315385
19.33476923
19.34392308
19.33553846
19.37484615
19.44384615
19.49523077
19.49453846
19.44161538
19.46161538
19.45876923
19.40076923
19.41584615
19.42669231
19.41184615
19.34338462
19.306
19.34653846
19.40115385
19.47523077
19.45684615
19.41469231
19.41392308
19.453
19.46015385
19.42038462
19.41246154
19.46115385
19.45476923
19.38130769
19.37246154
19.42269231
19.42592308
19.40784615
19.40092308
19.43161538
19.45923077
19.43530769
19.40930769
19.37838462
19.42653846
19.38507692
19.33838462
19.37907692
19.39576923
19.40230769
19.41392308
19.40546154
19.43492308
19.38230769
19.40846154
19.42869231
19.42584615
19.49207692
19.46784615
19.49669231
19.51153846
19.53415385
19.48946154
19.45230769
19.40307692
19.40469231
19.44015385
19.39669231
19.44761538
19.44030769
19.42023077
19.46853846
19.44115385
19.42807692
19.52161538
19.52230769
19.57353846
19.48338462
19.55946154
19.53592308
19.47115385
19.43315385
19.34184615
19.35307692
19.42084615
19.38961538
19.41361538
19.35015385
19.31615385
19.32530769
19.37215385
19.41961538
19.47776923
19.54853846
19.56092308
19.56176923
19.53230769
19.33446154
19.30361538
19.28815385
19.31207692
19.36253846
19.43969231
19.46430769
19.42576923
19.47746154
19.48192308
19.47038462
19.504
19.54069231
19.52184615
19.49938462
19.43407692
19.38076923
19.41638462
19.34430769
19.33515385
19.40392308
19.35961538
19.35376923
19.409
19.376
19.33353846
19.376
19.41353846
19.38284615
19.40307692
19.44469231
19.48807692
19.45753846
19.42415385
19.40853846
19.41423077
19.38930769
19.46107692
19.42930769
19.455
19.48684615
19.44823077
19.46876923
19.45607692
19.38953846
19.34584615
19.40230769
19.455
19.43823077
19.51361538
19.45661538
19.33107692
19.38923077
19.39569231
19.45253846
19.39976923
19.378
19.40623077
19.47007692
19.47184615
19.50276923
19.51723077
19.52392308
19.59415385
19.51492308
19.50223077
19.40723077
19.35084615
19.40184615
19.35046154
19.33807692
19.39646154
19.40192308
19.39876923
19.39453846
19.43838462
19.455
19.44546154
19.43207692
19.47792308
19.46346154
19.54123077
19.48984615
19.46369231
19.45984615
19.45261538
19.39446154
19.44861538
19.43469231
19.46876923
19.5
19.51315385
19.52107692
19.52261538
19.47769231
19.42676923
19.39676923
19.45715385
19.49569231
19.54107692
19.45092308
19.33669231
19.34476923
19.33476923
19.40684615
19.43161538
19.41169231
19.48346154
19.46969231
19.45823077
19.45384615
19.44646154
19.45130769
19.48753846
19.49307692
19.54076923
19.53284615
19.49046154
19.47223077
19.47576923
19.51769231
19.60538462
19.52746154
19.51346154
19.48761538
19.46069231
19.49415385
19.50584615
19.46376923
19.41823077
19.36584615
19.30438462
19.32761538
19.41038462
19.405
19.489
19.47538462
19.47184615
19.44638462
19.44969231
19.50838462
19.476
19.47861538
19.46830769
19.38646154
19.33669231
19.31892308
19.36930769
19.37715385
19.43507692
19.42476923
19.47284615
19.48030769
19.48446154
19.46046154
19.40546154
19.39046154
19.45215385
19.49576923
19.51323077
19.36930769
19.36838462
19.30676923
19.34715385
19.37376923
19.42538462
19.43646154
19.39469231
19.35176923
19.33146154
19.38376923
19.398
19.39376923
19.48915385
19.51584615
19.49492308
19.42361538
19.36230769
19.33653846
19.34838462
19.314
19.33584615
19.34784615
19.34246154
19.40584615
19.39730769
19.39561538
19.40084615
19.38007692
19.38815385
19.39692308
19.36861538
19.44638462
19.38076923
19.38092308
19.35684615
19.31930769
19.33930769
19.35207692
19.35976923
19.40530769
19.37169231
19.34469231
19.35330769
19.43015385
19.42753846
19.42184615
19.38884615
19.41092308
19.40469231
19.42184615
19.41823077
19.36446154
19.31907692
19.26030769
19.31676923
19.39484615
19.38015385
19.44353846
19.39015385
19.40892308
19.40461538
19.37461538
19.39330769
19.304
19.33315385
19.36584615
19.34507692
19.32476923
19.33592308
19.36346154
19.39769231
19.418
19.404
19.44953846
19.40753846
19.39061538
19.36369231
19.38261538
19.37953846
19.37307692
19.38830769
19.44846154
19.49161538
19.44638462
19.45353846
19.38615385
19.42123077
19.48538462
19.42453846
19.37484615
19.37423077
19.36584615
19.33330769
19.34023077
19.35561538
19.43115385
19.46130769
19.39561538
19.37615385
19.48684615
19.47630769
19.446
19.48607692
19.47784615
19.46107692
19.44392308
19.44115385
19.42707692
19.45323077
19.46369231
19.44007692
19.41407692
19.39815385
19.37161538
19.42438462
19.44715385
19.42569231
19.45038462
19.48676923
19.41546154
19.45384615
19.44415385
19.36407692
19.40284615
19.38907692
19.37161538
19.39323077
19.41853846
19.35676923
19.32261538
19.36476923
19.46453846
19.44115385
19.47669231
19.49407692
19.468
19.43
19.43130769
19.38007692
19.43576923
19.39830769
19.40130769
19.34576923
19.35746154
19.36753846
19.37530769
19.35553846
19.41484615
19.35692308
19.48030769
19.464
19.39538462
19.42684615
19.39953846
19.44492308
19.46
19.43115385
19.41923077
19.43815385
19.51569231
19.51846154
19.49953846
19.52684615
19.49284615
19.46623077
19.50992308
19.55815385
19.52776923
19.48469231
19.36715385
19.31669231
19.27538462
19.29207692
19.33761538
19.40923077
19.46392308
19.45553846
19.46769231
19.50276923
19.30923077
19.30692308
19.30638462
19.32946154
19.41046154
19.40107692
19.39569231
19.36
19.34730769
19.41123077
19.39915385
19.35746154
19.36961538
19.40392308
19.43876923
19.39807692
19.34153846
19.22815385
19.29707692
19.31907692
19.33176923
19.38215385
19.36492308
19.36261538
19.39115385
19.48876923
19.46161538
19.50415385
19.45223077
19.41938462
19.40076923
19.46123077
19.44330769
19.42192308
19.37023077
19.34976923
19.40353846
19.45892308
19.389
19.31946154
19.53838462
19.44838462
19.47261538
19.424
19.38069231
19.37115385
19.34984615
19.34146154
19.26861538
19.28707692
19.33746154
19.31738462
19.34807692
19.38446154
19.39107692
19.42061538
19.422
19.47630769
19.47276923
19.46123077
19.40515385
19.46092308
19.47107692
19.43192308
19.43346154
19.38130769
19.36107692
19.36292308
19.38515385
19.38069231
19.31961538
19.30553846
19.31253846
19.357
19.38353846
19.44638462
19.43215385
19.38584615
19.43138462
19.42476923
19.457
19.49269231
19.502
19.53223077
19.50115385
19.52484615
19.48923077
19.50015385
19.51007692
19.518
19.53630769
19.54630769
19.46976923
19.48461538
19.46076923
19.39046154
19.398
19.42123077
19.42246154
19.44
19.51869231
19.46638462
19.52215385
19.59015385
19.619
19.60169231
19.57323077
19.54884615
19.578
19.53730769
19.53523077
19.57730769
19.60576923
19.52846154
19.49161538
19.47976923
19.54207692
19.58807692
19.54315385
19.53761538
19.38753846
19.38115385
19.44015385
19.40753846
19.43361538
19.43653846
19.439
19.42161538
19.45384615
19.45123077
19.50576923
19.51107692
19.49138462
19.42861538
19.44823077
19.48084615
19.41107692
19.46730769
19.42630769
19.47223077
19.41315385
19.39615385
19.37807692
19.37076923
19.35253846
19.35915385
19.32107692
19.35323077
19.39407692
19.43515385
19.45307692
19.43223077
19.39476923
19.41446154
19.40015385
19.39
19.37276923
19.35192308
19.39053846
19.38707692
19.34615385
19.36238462
19.38292308
19.44107692
19.38276923
19.31153846
19.36738462
19.33592308
19.37753846
19.35384615
19.31776923
19.35646154
19.40046154
19.39553846
19.41338462
19.37323077
19.40430769
19.39292308
19.37976923
19.35961538
19.40507692
19.38246154
19.38653846
19.35192308
19.37692308
19.41315385
19.38323077
19.41923077
19.46161538
19.46315385
19.39646154
19.32338462
19.32553846
19.31915385
19.38738462
19.39953846
19.41046154
19.39153846
19.40392308
19.40038462
19.31492308
19.32992308
19.364
19.31623077
19.39353846
19.40607692
19.43184615
19.40946154
19.40846154
19.44553846
19.47461538
19.43023077
19.41784615
19.40753846
19.43515385
19.42953846
19.41538462
19.315
19.29692308
19.341
19.39469231
19.39853846
19.39653846
19.44246154
19.42723077
19.398
19.45638462
19.45684615
19.49930769
19.49876923
19.50323077
19.39530769
19.41884615
19.40346154
19.39838462
19.33053846
19.32630769
19.26061538
19.27961538
19.31923077
19.44576923
19.42576923
19.45692308
19.42384615
19.41338462
19.42107692
19.46369231
19.46892308
19.39346154
19.407
19.34292308
19.39369231
19.36646154
19.42669231
19.43115385
19.40146154
19.46461538
19.45584615
19.41930769
19.428
19.39484615
19.41576923
19.414
19.43453846
19.42223077
19.47215385
19.41630769
19.36023077
19.37823077
19.37015385
19.41276923
19.40161538
19.35776923
19.35638462
19.32107692
19.38915385
19.39992308
19.40246154
19.46484615
19.44730769
19.35607692
19.39215385
19.39361538
19.42361538
19.45238462
19.34969231
19.35546154
19.37038462
19.37938462
19.37753846
19.44169231
19.41569231
19.42915385
19.43053846
19.36807692
19.32838462
19.25076923
19.26723077
19.23307692
19.30269231
19.37130769
19.40446154
19.38630769
19.35638462
19.34338462
19.35276923
19.31476923
19.23738462
19.25807692
19.28969231
19.33938462
19.34323077
19.38
19.37915385
19.39738462
19.39484615
19.439
19.39146154
19.38315385
19.38523077
19.38161538
19.37753846
19.41230769
19.45346154
19.45230769
19.41838462
19.38792308
19.37423077
19.37838462
19.38038462
19.35984615
19.40615385
19.41661538
19.36507692
19.38853846
19.36861538
19.42230769
19.44507692
19.42092308
19.403
19.42276923
19.39761538
19.36461538
19.38815385
19.38546154
19.41269231
19.41153846
19.40469231
19.40430769
19.36569231
19.37638462
19.36738462
19.40184615
19.42453846
19.38430769
19.38753846
19.36084615
19.30230769
19.30692308
19.42623077
19.29261538
19.282
19.37730769
19.40484615
19.38923077
19.36307692
19.34576923
19.37915385
19.39915385
19.39830769
19.36130769
19.33761538
19.38676923
19.33161538
19.36753846
19.34930769
19.368
19.33192308
19.312
19.32130769
19.33161538
19.32084615
19.33476923
19.32384615
19.38361538
19.46284615
19.47561538
19.42069231
19.42769231
19.47061538
19.47015385
19.49638462
19.53153846
19.49876923
19.46884615
19.39938462
19.38146154
19.36607692
19.38876923
19.33107692
19.50638462
19.53430769
19.50984615
19.50269231
19.51230769
19.52192308
19.55738462
19.57392308
19.59430769
19.53353846
19.45607692
19.43030769
19.38176923
19.40815385
19.39738462
19.39438462
19.37007692
19.39753846
19.43115385
19.45223077
19.45915385
19.50584615
19.44584615
19.43046154
19.43630769
19.43676923
19.49676923
19.46515385
19.39430769
19.41430769
19.34915385
19.33461538
19.347
19.44846154
19.39246154
19.44061538
19.42207692
19.50384615
19.44976923
19.43938462
19.35376923
19.35046154
19.32246154
19.35207692
19.33715385
19.37076923
19.38738462
19.44315385
19.44715385
19.45030769
19.42646154
19.38584615
19.37123077
19.33938462
19.42830769
19.42830769
19.37138462
19.323
19.30469231
19.331
19.35615385
19.29707692
19.29638462
19.28830769
19.38538462
19.35807692
19.444
19.43792308
19.41430769
19.35046154
19.36430769
19.39776923
19.42430769
19.39938462
19.37023077
19.34430769
19.35646154
19.37830769
19.38307692
19.36546154
19.44646154
19.43423077
19.42661538
19.39169231
19.37507692
19.37369231
19.37676923
19.40638462
19.41023077
19.401
19.412
19.40430769
19.38730769
19.38715385
19.36623077
19.35961538
19.38023077
19.37984615
19.42438462
19.47007692
19.33830769
19.32576923
19.37707692
19.45684615
19.41023077
19.41269231
19.42884615
19.39576923
19.37546154
19.35523077
19.395
19.38592308
19.35469231
19.37161538
19.357
19.40038462
19.38723077
19.388
19.35346154
19.33638462
19.43553846
19.389
19.38769231
19.36953846
19.38615385
19.38715385
19.40953846
19.47746154
19.46961538
19.40884615
19.39715385
19.43353846
19.39538462
19.37630769
19.35492308
19.35107692
19.45153846
19.44715385
19.42230769
19.45776923
19.44253846
19.45169231
19.39307692
19.42338462
19.45284615
19.49715385
19.49307692
19.48423077
19.441
19.35369231
19.36330769
19.33330769
19.33761538
19.35384615
19.39584615
19.36723077
19.39684615
19.439
19.47946154
19.44715385
19.46169231
19.49038462
19.43246154
19.46092308
19.449
19.43584615
19.42653846
19.34976923
19.28369231
19.27892308
19.30592308
19.36630769
19.37607692
19.39146154
19.404
19.39576923
19.42115385
19.485
19.43038462
19.45184615
19.37861538
19.38938462
19.42846154
19.46376923
19.48753846
19.48123077
19.431
19.424
19.39846154
19.40784615
19.39438462
19.36253846
19.39269231
19.42361538
19.42269231
19.33369231
19.33076923
19.36538462
19.40723077
19.38061538
19.38192308
19.38938462
19.37923077
19.42153846
19.37746154
19.38661538
19.44523077
19.43053846
19.42953846
19.43576923
19.44661538
19.43730769
19.44446154
19.37369231
19.39476923
19.49084615
19.47853846
19.48269231
19.44223077
19.38130769
19.35053846
19.28769231
19.30207692
19.31530769
19.34669231
19.33638462
19.34838462
19.42307692
19.43684615
19.458
19.38592308
19.402
19.37469231
19.40630769
19.40923077
19.36530769
19.41746154
19.47584615
19.42215385
19.41484615
19.50338462
19.49030769
19.46053846
19.39015385
19.44476923
19.46492308
19.47915385
19.51146154
19.48169231
19.44876923
19.52023077
19.49553846
19.51030769
19.55969231
19.56153846
19.62084615
19.57738462
19.49538462
19.51446154
19.44130769
19.50292308
19.49476923
19.56807692
19.51684615
19.47592308
19.43553846
19.37146154
19.36623077
19.36015385
19.42353846
19.40561538
19.43561538
19.39176923
19.41092308
19.45092308
19.426
19.51792308
19.54315385
19.51069231
19.50915385
19.33284615
19.42384615
19.32876923
19.30576923
19.30207692
19.33576923
19.41584615
19.50992308
19.52446154
19.48861538
19.47507692
19.49146154
19.48984615
19.49084615
19.45238462
19.41353846
19.38138462
19.35623077
19.41169231
19.34369231
19.46246154
19.44153846
19.42446154
19.46507692
19.47523077
19.47576923
19.47015385
19.41415385
19.37969231
19.35376923
19.36046154
19.39223077
19.38284615
19.41638462
19.42638462
19.41269231
19.38376923
19.43846154
19.40784615
19.43876923
19.44507692
19.485
19.507
19.50569231
19.44438462
19.40515385
19.37046154
19.36230769
19.38738462
19.42961538
19.44930769
19.45407692
19.35315385
19.34546154
19.41230769
19.41876923
19.47369231
19.41761538
19.36815385
19.42192308
19.39530769
19.38676923
19.441
19.43130769
19.416
19.38069231
19.35076923
19.39084615
19.35715385
19.34946154
19.40823077
19.43384615
19.39184615
19.35638462
19.37753846
19.35984615
19.39907692
19.36830769
19.31884615
19.343
19.35115385
19.35230769
19.30769231
19.30146154
19.35461538
19.33184615
19.30115385
19.31153846
19.31369231
19.323
19.32423077
19.32723077
19.40584615
19.38138462
19.38023077
19.33507692
19.36969231
19.35976923
19.379
19.37669231
19.32930769
19.35646154
19.38538462
19.30976923
19.33115385
19.34169231
19.37315385
19.37407692
19.403
19.43576923
19.43838462
19.45
19.4
19.37930769
19.40946154
19.46192308
19.39930769
19.41246154
19.33930769
19.312
19.48315385
19.535
19.53315385
19.50392308
19.47784615
19.45746154
19.44584615
19.46946154
19.46746154
19.49223077
19.50976923
19.49730769
19.50423077
19.50861538
19.515
19.53038462
19.52184615
19.49430769
19.50507692
19.50053846
19.49846154
19.47115385
19.501
19.50846154
19.45569231
19.44738462
19.46823077
19.46053846
19.44261538
19.45107692
19.45569231
19.44707692
19.45284615
19.48461538
19.56046154
19.52438462
19.47946154
19.50346154
19.44830769
19.45446154
19.37369231
19.43561538
19.41430769
19.38753846
19.39492308
19.43230769
19.44461538
19.47561538
19.56861538
19.50730769
19.54592308
19.54084615
19.51315385
19.455
19.42261538
19.43038462
19.41653846
19.41384615
19.43423077
19.377
19.32461538
19.37030769
19.41476923
19.39415385
19.34046154
19.36969231
19.36738462
19.36976923
19.33984615
19.41884615
19.44861538
19.44653846
19.44576923
19.36061538
19.38261538
19.41530769
19.36892308
19.32523077
19.30992308
19.30984615
19.35476923
19.35592308
19.35630769
19.35884615
19.35553846
19.23507692
19.23038462
19.27
19.32923077
19.35153846
19.34007692
19.34446154
19.38223077
19.38838462
19.36346154
19.36684615
19.37553846
19.38307692
19.37592308
19.35238462
19.41515385
19.42953846
19.43992308
19.41453846
19.35384615
19.36861538
19.45376923
19.43684615
19.47776923
19.51684615
19.57007692
19.46246154
19.44046154
19.34569231
19.37869231
19.38007692
19.37784615
19.43238462
19.431
19.40930769
19.44569231
19.48269231
19.43169231
19.41053846
19.42269231
19.44253846
19.42476923
19.40669231
19.50169231
19.42530769
19.40815385
19.36284615
19.34246154
19.38969231
19.36676923
19.37715385
19.40569231
19.39130769
19.43476923
19.43638462
19.44315385
19.51615385
19.48392308
19.46076923
19.44369231
19.40269231
19.44607692
19.45876923
19.40407692
19.42146154
19.43130769
19.40276923
19.42007692
19.45269231
19.417
19.42046154
19.37961538
19.34876923
19.35376923
19.42692308
19.43238462
19.38584615
19.38423077
19.38530769
19.42730769
19.47184615
19.43307692
19.39776923
19.43992308
19.44076923
19.42638462
19.514
19.55069231
19.52869231
19.50446154
19.45676923
19.39369231
19.44092308
19.43215385
19.46323077
19.44146154
19.51407692
19.54746154
19.51246154
19.53084615
19.49738462
19.50969231
19.51792308
19.50776923
19.46630769
19.49992308
19.45176923
19.46661538
19.41853846
19.44015385
19.46976923
19.42084615
19.32438462
19.38207692
19.37807692
19.331
19.28923077
19.32915385