/*--------------------------------*- C++ -*----------------------------------*\
| =========                 |                                                 |
| \\      /  F ield         | OpenFOAM: The Open Source CFD Toolbox           |
|  \\    /   O peration     | Version:  v1706                                 |
|   \\  /    A nd           | Web:      www.OpenFOAM.com                      |
|    \\/     M anipulation  |                                                 |
\*---------------------------------------------------------------------------*/
FoamFile
{
    version     2.0;
    format      ascii;
    class       volScalarField;
    location    "0.02";
    object      dsmcSigmaTcRMax;
}
// * * * * * * * * * * * * * * * * * * * * * * * * * * * * * * * * * * * * * //

dimensions      [0 3 -1 0 0 0 0];


internalField   nonuniform List<scalar> 
5120
(
6.457747068e-16
6.518057149e-16
6.43440045e-16
6.395072432e-16
6.608272077e-16
7.158053179e-16
6.176446168e-16
6.59207891e-16
6.347651111e-16
6.373528304e-16
7.01755287e-16
6.290185567e-16
6.684018225e-16
6.334487808e-16
6.375924152e-16
6.486234121e-16
6.673289741e-16
6.423542496e-16
6.817305026e-16
6.269470829e-16
6.293488172e-16
6.409253428e-16
6.529568033e-16
6.830265974e-16
6.340505506e-16
6.868940539e-16
6.515031251e-16
6.337520171e-16
6.276110501e-16
6.434780782e-16
6.9596366e-16
6.524182707e-16
6.284086423e-16
6.260321085e-16
6.29829963e-16
6.320526172e-16
6.555807376e-16
6.439605471e-16
6.443388123e-16
6.26660157e-16
6.638272561e-16
6.343165089e-16
6.093737657e-16
6.502956749e-16
6.314473437e-16
7.280039041e-16
6.398079149e-16
6.329952739e-16
6.38640061e-16
6.502148751e-16
7.019618532e-16
6.191758969e-16
6.596796683e-16
6.309713699e-16
6.321542075e-16
6.381854471e-16
6.339419587e-16
6.692856856e-16
6.212690212e-16
6.491892314e-16
6.253288822e-16
6.648952398e-16
6.581045977e-16
6.381559566e-16
6.466957985e-16
6.600046388e-16
6.43363229e-16
6.558990512e-16
6.385165037e-16
6.255785782e-16
6.520304556e-16
6.295914769e-16
6.642455388e-16
6.380923573e-16
6.465940637e-16
6.617507216e-16
6.462816748e-16
6.262125192e-16
6.564653953e-16
7.078386831e-16
6.69811943e-16
6.514816187e-16
6.27383541e-16
6.269551842e-16
6.724607076e-16
6.314215134e-16
6.605881284e-16
6.260403552e-16
6.856429878e-16
6.541335777e-16
6.230230656e-16
6.351736225e-16
6.544254166e-16
6.647214222e-16
6.274264479e-16
6.378924239e-16
6.068636944e-16
6.457842853e-16
6.535834825e-16
6.591778099e-16
6.779082182e-16
6.511378867e-16
6.415179153e-16
6.222628987e-16
6.251070759e-16
6.494315499e-16
6.48055104e-16
6.178191481e-16
6.656658015e-16
6.694712598e-16
6.303289873e-16
6.306875425e-16
6.281695999e-16
6.603615495e-16
6.287425498e-16
6.392137942e-16
6.06268296e-16
6.170430162e-16
6.407484496e-16
6.088579361e-16
6.571530966e-16
6.609965438e-16
6.220448153e-16
6.504273508e-16
6.673402778e-16
6.384291547e-16
6.496081975e-16
6.387561584e-16
6.498063708e-16
6.285271851e-16
6.434792688e-16
6.626751809e-16
6.483114111e-16
6.876182191e-16
6.304740827e-16
6.551840414e-16
6.154878636e-16
6.572441265e-16
6.382344483e-16
6.571530966e-16
6.58835186e-16
6.149074075e-16
6.588413306e-16
6.165327266e-16
6.734490952e-16
6.443430032e-16
6.193047806e-16
6.761044757e-16
6.588536759e-16
6.652358205e-16
6.662886023e-16
6.431600714e-16
6.502432935e-16
6.277201366e-16
6.69279502e-16
6.325830223e-16
6.457719842e-16
6.54801854e-16
6.744955893e-16
6.524745486e-16
6.646872306e-16
6.401756183e-16
6.302690438e-16
6.445166925e-16
6.410925679e-16
6.212699013e-16
6.50333741e-16
6.718716893e-16
6.58357893e-16
6.310553136e-16
6.973747375e-16
6.399349772e-16
6.528552982e-16
6.327001864e-16
6.402883126e-16
6.377600755e-16
6.465771853e-16
6.649797194e-16
6.331421941e-16
6.409820653e-16
6.259368006e-16
6.298313409e-16
6.384336112e-16
6.893638398e-16
6.352308663e-16
6.588404376e-16
6.362165187e-16
6.448593442e-16
6.336024398e-16
6.687359355e-16
6.375846078e-16
6.064373155e-16
6.21595751e-16
6.569280215e-16
6.581348464e-16
6.347521828e-16
6.235000817e-16
6.672303871e-16
6.386891502e-16
6.71828133e-16
6.203074934e-16
6.325507517e-16
6.343901079e-16
6.532923911e-16
6.48007676e-16
6.415322114e-16
6.32546427e-16
6.441061656e-16
6.118738327e-16
6.223609177e-16
6.40654019e-16
6.38285541e-16
6.498054171e-16
6.531088485e-16
6.194082011e-16
6.732029198e-16
6.470229714e-16
6.065811713e-16
6.364521073e-16
6.321002301e-16
6.39956799e-16
6.463709557e-16
6.252579619e-16
6.355606218e-16
6.539527228e-16
6.901165988e-16
6.862337099e-16
6.544438019e-16
6.298899831e-16
6.264601677e-16
6.499910851e-16
6.240792152e-16
6.304406877e-16
6.610333184e-16
6.336421273e-16
6.252152908e-16
6.407470423e-16
6.452986303e-16
6.283716716e-16
6.648395192e-16
6.564172234e-16
6.294469829e-16
6.676463441e-16
6.622617637e-16
6.414914516e-16
6.67297531e-16
6.643457132e-16
6.256502026e-16
6.228407665e-16
6.401375558e-16
6.476456226e-16
6.554448509e-16
6.66002147e-16
6.440904678e-16
6.405016432e-16
6.725890096e-16
6.304805747e-16
6.108565314e-16
6.197283477e-16
6.27750739e-16
6.637872167e-16
6.395176046e-16
6.715457041e-16
6.30066614e-16
6.640740931e-16
6.714982993e-16
6.544694539e-16
6.683623294e-16
6.410586249e-16
6.825787061e-16
6.846472661e-16
6.419055743e-16
6.492302318e-16
6.36713514e-16
6.41552129e-16
6.300777797e-16
6.352446647e-16
6.563505415e-16
6.563982922e-16
6.321250185e-16
6.451582516e-16
6.773280263e-16
6.45655475e-16
6.364486048e-16
6.740535765e-16
6.475292866e-16
6.505770564e-16
6.58669855e-16
6.524567938e-16
6.383056845e-16
6.189707774e-16
6.962255878e-16
6.179183762e-16
6.540882183e-16
6.591778199e-16
6.4815899e-16
6.349603143e-16
6.519409046e-16
6.4177839e-16
6.431515935e-16
6.264219547e-16
6.327441422e-16
6.361772493e-16
6.173148231e-16
6.727666869e-16
6.61671365e-16
6.384213241e-16
6.434998719e-16
6.452986092e-16
6.834143893e-16
6.72440157e-16
6.875757062e-16
6.477449673e-16
6.184069838e-16
6.844761403e-16
6.111207734e-16
6.432532569e-16
6.395314964e-16
6.010198499e-16
6.491100579e-16
6.493267179e-16
6.657550032e-16
6.510238323e-16
6.403519861e-16
6.161912697e-16
6.513764263e-16
6.318746071e-16
6.271509469e-16
6.339275731e-16
6.392401904e-16
6.439434885e-16
6.330905933e-16
6.358853687e-16
6.401431393e-16
6.358893076e-16
6.079262865e-16
6.385588179e-16
6.711981419e-16
6.45148268e-16
6.879976701e-16
6.453713929e-16
6.570990109e-16
6.371886672e-16
6.360513945e-16
6.458193551e-16
6.483577444e-16
6.293208852e-16
6.174454987e-16
6.195863381e-16
6.415889275e-16
6.410784246e-16
6.178770256e-16
6.582625003e-16
6.535929346e-16
6.746940234e-16
6.452673928e-16
6.566915317e-16
6.425037382e-16
6.41035478e-16
6.627168628e-16
6.263751809e-16
6.247682465e-16
6.339949137e-16
6.098706078e-16
6.62070268e-16
6.837485745e-16
6.287273309e-16
6.396946345e-16
6.636260729e-16
6.423461396e-16
6.622182385e-16
6.640946054e-16
6.393448095e-16
6.280664069e-16
6.559045998e-16
6.322709003e-16
6.507696968e-16
6.541222758e-16
6.057675598e-16
6.37931804e-16
6.650102004e-16
6.39488683e-16
6.661955089e-16
6.279439368e-16
6.94514307e-16
6.26953978e-16
6.488755371e-16
6.742355282e-16
6.470738423e-16
6.494683658e-16
6.317935271e-16
6.653389876e-16
6.365931484e-16
6.413761527e-16
6.739856645e-16
6.701909077e-16
6.255276725e-16
6.297476471e-16
6.605724441e-16
6.480581977e-16
6.321305858e-16
6.402597412e-16
6.34134501e-16
6.725687655e-16
6.54559211e-16
6.48891908e-16
6.32812504e-16
6.984453472e-16
6.851873172e-16
6.558930488e-16
6.347256325e-16
6.331122412e-16
6.06781446e-16
6.152051444e-16
6.548030152e-16
6.300645034e-16
6.370827268e-16
6.483836436e-16
6.63649444e-16
6.34802032e-16
6.294642143e-16
6.934138973e-16
6.405479908e-16
6.591577586e-16
6.712994628e-16
6.344647278e-16
6.578221129e-16
6.211521808e-16
6.479965778e-16
6.26140864e-16
6.322519085e-16
6.475022559e-16
6.59342437e-16
6.506352754e-16
6.401252764e-16
6.589626844e-16
6.715098742e-16
6.438604054e-16
6.518924444e-16
6.323444725e-16
6.568574681e-16
6.176533597e-16
6.304747232e-16
6.129509182e-16
6.168781014e-16
6.740491605e-16
6.61264524e-16
6.429262928e-16
6.428532813e-16
6.742728047e-16
6.282837065e-16
6.454581752e-16
6.184089395e-16
6.325562084e-16
6.463970414e-16
6.545264939e-16
6.291051129e-16
6.480701787e-16
6.611623871e-16
6.405625564e-16
6.198196351e-16
6.93587018e-16
6.254511478e-16
6.742963203e-16
6.271883872e-16
6.712754461e-16
6.4319455e-16
6.339440748e-16
6.598302075e-16
6.361123241e-16
6.275891712e-16
6.823867912e-16
6.21405759e-16
6.469614773e-16
6.299588579e-16
6.254139002e-16
6.455457029e-16
6.363205515e-16
6.871792407e-16
6.644815219e-16
6.629266851e-16
6.554940985e-16
7.004887001e-16
6.409112046e-16
6.279326885e-16
6.498769606e-16
6.432195264e-16
6.722074933e-16
6.448984809e-16
6.298096291e-16
6.749666084e-16
6.525322198e-16
6.2205989e-16
6.443217131e-16
6.232396476e-16
6.192605236e-16
6.295891459e-16
6.231164323e-16
6.560910886e-16
6.454685368e-16
6.479639718e-16
6.201878435e-16
6.336398313e-16
6.443837525e-16
6.395174376e-16
6.229808889e-16
6.410666463e-16
6.340702838e-16
6.60276696e-16
6.475804254e-16
6.155768077e-16
6.241003558e-16
6.655716666e-16
6.510035342e-16
6.764891986e-16
6.489464839e-16
6.452757472e-16
6.768121702e-16
6.438190498e-16
6.438948838e-16
6.367682054e-16
6.55088123e-16
6.621214743e-16
6.277872558e-16
6.461152928e-16
6.83462439e-16
6.160667077e-16
6.670861335e-16
6.692737129e-16
6.236554696e-16
6.36606063e-16
6.490364197e-16
6.362443808e-16
6.189496314e-16
6.298806281e-16
6.755065979e-16
6.532634465e-16
6.403010048e-16
6.306527006e-16
6.27508187e-16
6.477662192e-16
6.574121859e-16
6.417178612e-16
6.88078668e-16
6.520893619e-16
6.690631644e-16
6.592008763e-16
6.373769909e-16
6.617672802e-16
6.578805081e-16
6.6155509e-16
6.204195199e-16
6.296336942e-16
6.806727259e-16
6.492831271e-16
6.314178715e-16
6.505686558e-16
6.243950183e-16
6.527342362e-16
6.514629258e-16
6.6478014e-16
6.545790566e-16
6.464127803e-16
6.168984496e-16
6.784730246e-16
6.661880872e-16
6.246063569e-16
6.511064771e-16
6.612757964e-16
6.499952624e-16
6.358328174e-16
6.500086072e-16
6.391009508e-16
6.181381411e-16
6.643110389e-16
6.519947681e-16
6.228078115e-16
6.524305457e-16
6.49170287e-16
6.50000662e-16
6.654391382e-16
6.317717181e-16
6.935954988e-16
6.314034056e-16
6.70284138e-16
6.562609322e-16
6.739382613e-16
6.152667574e-16
6.396580876e-16
6.247816901e-16
6.083753931e-16
6.555900949e-16
6.492431872e-16
6.301578332e-16
6.932343984e-16
6.502100412e-16
6.448713917e-16
6.538921571e-16
6.762020473e-16
6.486862632e-16
6.401075468e-16
6.382525466e-16
6.622804005e-16
6.622828739e-16
6.303023818e-16
6.53863251e-16
7.060404184e-16
6.428499066e-16
6.776966117e-16
6.253718803e-16
6.388778385e-16
6.279466525e-16
6.504101496e-16
6.628027963e-16
6.366888488e-16
6.314181912e-16
6.396305311e-16
6.644786211e-16
6.272250347e-16
6.433764158e-16
6.759076854e-16
6.403404665e-16
6.435150001e-16
6.251523874e-16
6.463894964e-16
6.709766383e-16
6.351833001e-16
6.441037407e-16
6.499411412e-16
6.328071461e-16
6.79988206e-16
6.71271318e-16
6.558536061e-16
6.746451365e-16
6.154057229e-16
6.861361408e-16
6.362056305e-16
6.345623779e-16
6.305255358e-16
6.296224602e-16
6.584866456e-16
6.600191042e-16
6.56104778e-16
7.063757305e-16
6.400268898e-16
6.469223864e-16
6.393263217e-16
6.825403067e-16
6.284515607e-16
6.585354028e-16
6.228500034e-16
6.672952524e-16
6.636424802e-16
6.507953413e-16
6.362407889e-16
6.422503109e-16
6.457778835e-16
6.398346601e-16
6.706206977e-16
6.443186309e-16
6.444177063e-16
6.237657884e-16
6.643679635e-16
6.520900592e-16
6.641533743e-16
6.421423998e-16
6.421896509e-16
6.878359644e-16
6.509777194e-16
6.573983059e-16
6.246896393e-16
6.378338129e-16
6.43218061e-16
6.484505567e-16
6.270500585e-16
6.570875701e-16
6.527647567e-16
6.486439511e-16
6.355968117e-16
6.216459392e-16
6.322576797e-16
6.179517029e-16
6.353752322e-16
6.684332163e-16
6.493622137e-16
6.72776635e-16
6.526706496e-16
6.324707088e-16
6.384041836e-16
6.375361626e-16
6.595751472e-16
6.417387765e-16
6.48990491e-16
6.344250219e-16
6.465774732e-16
6.483689687e-16
6.738615463e-16
6.589298947e-16
6.397262303e-16
6.278833216e-16
6.806173656e-16
6.411044612e-16
6.248960252e-16
6.544897803e-16
6.549513518e-16
6.959439704e-16
6.588849308e-16
6.303780269e-16
6.257632535e-16
6.538441781e-16
6.358816418e-16
6.559665466e-16
6.793014478e-16
6.462008245e-16
6.457688116e-16
6.498612994e-16
6.639551812e-16
6.355565799e-16
6.486417523e-16
6.594629439e-16
6.582866918e-16
6.491508917e-16
6.602650779e-16
6.152486187e-16
6.26594237e-16
6.239498952e-16
6.334554487e-16
6.361815604e-16
6.434098442e-16
6.371987182e-16
6.246222303e-16
6.392253771e-16
6.53047614e-16
6.45337777e-16
6.178616006e-16
6.499636155e-16
6.377322463e-16
6.752424312e-16
6.39495666e-16
6.616979541e-16
6.425117403e-16
6.309388551e-16
7.283399553e-16
6.405833299e-16
6.251652178e-16
6.696132712e-16
6.313739386e-16
6.551653187e-16
6.66193836e-16
6.715013981e-16
6.492062068e-16
6.426056345e-16
6.429632611e-16
6.425266078e-16
6.265179851e-16
6.474493533e-16
6.141546162e-16
6.400047314e-16
6.403525902e-16
6.570936638e-16
6.300559781e-16
6.582978475e-16
6.648443831e-16
6.093748337e-16
6.41497836e-16
6.25021201e-16
6.463358747e-16
6.40006122e-16
6.554116916e-16
6.422639667e-16
6.41752437e-16
6.487498934e-16
6.618891206e-16
6.319203815e-16
6.68085132e-16
6.178197538e-16
6.458909021e-16
6.485798824e-16
6.51934902e-16
6.513687879e-16
6.484772776e-16
6.698869767e-16
6.314670098e-16
6.432842325e-16
6.417857387e-16
6.776256929e-16
6.530599248e-16
6.40719165e-16
6.710206478e-16
6.63742382e-16
6.342476083e-16
6.240138031e-16
6.498468377e-16
6.641122084e-16
6.532728823e-16
6.298502679e-16
6.37571412e-16
6.746884986e-16
6.698477086e-16
6.4894323e-16
6.258304477e-16
6.448101207e-16
6.398849528e-16
6.900968471e-16
6.534458434e-16
6.576908918e-16
6.327315969e-16
6.716283939e-16
6.562605888e-16
6.759707126e-16
6.64165774e-16
6.338533065e-16
6.385460942e-16
6.039692901e-16
6.344477486e-16
6.579935277e-16
6.686220551e-16
6.46055954e-16
6.60162218e-16
6.296340386e-16
6.389032662e-16
6.18320569e-16
6.255316386e-16
6.591367356e-16
6.96749681e-16
6.169392224e-16
6.455883748e-16
6.505900879e-16
6.44249965e-16
6.609047118e-16
6.356974495e-16
6.673538785e-16
6.61010048e-16
6.197408173e-16
6.386958032e-16
6.139799798e-16
6.522234627e-16
6.370247445e-16
6.313490618e-16
6.485604764e-16
6.397524718e-16
6.21356379e-16
6.263528796e-16
6.471625872e-16
6.29794413e-16
6.364452629e-16
6.377600427e-16
6.774878841e-16
6.397209548e-16
6.405922642e-16
6.049105567e-16
6.148248001e-16
6.010153218e-16
6.578509598e-16
6.738952048e-16
6.162056899e-16
6.353545084e-16
6.662510142e-16
6.806692963e-16
6.701458262e-16
6.40066149e-16
6.630210695e-16
6.198414535e-16
6.423288268e-16
7.056859211e-16
6.48116744e-16
6.534417446e-16
6.160726364e-16
7.291202707e-16
7.291202707e-16
6.313692566e-16
6.545332485e-16
6.455361788e-16
6.534696714e-16
6.226080718e-16
6.363992784e-16
6.09377342e-16
6.49919192e-16
6.125474411e-16
6.340543733e-16
6.300841769e-16
6.320371426e-16
6.852454955e-16
6.320010361e-16
6.263630365e-16
6.438748282e-16
6.667837496e-16
6.291279286e-16
6.493915278e-16
6.359813496e-16
6.71128711e-16
6.165930996e-16
6.434823322e-16
6.570405571e-16
6.301231107e-16
6.381054522e-16
6.308879389e-16
6.588436913e-16
6.310561923e-16
6.366658428e-16
6.225135725e-16
6.417939186e-16
6.806346691e-16
6.578714725e-16
6.007364087e-16
6.45983347e-16
6.403434307e-16
6.752320786e-16
6.403821722e-16
6.842044599e-16
6.422204637e-16
6.555967426e-16
6.261049628e-16
6.45556284e-16
6.475985855e-16
6.680887338e-16
7.036409296e-16
6.332038329e-16
6.628672413e-16
6.175330296e-16
6.692754858e-16
6.872109129e-16
6.469411309e-16
6.649312957e-16
6.33734005e-16
6.567574935e-16
6.644109446e-16
6.362509899e-16
6.570739865e-16
6.357193456e-16
6.320626454e-16
6.387981445e-16
6.469675424e-16
6.687859529e-16
6.728028723e-16
6.497951642e-16
6.430694208e-16
6.358265965e-16
6.545382661e-16
6.523675501e-16
6.172790165e-16
6.324855349e-16
6.441112897e-16
6.33524666e-16
6.209438951e-16
6.126652213e-16
6.389415184e-16
6.154571967e-16
6.099435648e-16
6.481536658e-16
6.535148275e-16
6.310799414e-16
6.693585317e-16
6.286631535e-16
6.371665872e-16
6.910865038e-16
6.606133215e-16
6.790889072e-16
6.149474685e-16
6.41063903e-16
6.508094831e-16
6.15725365e-16
6.897790764e-16
6.2799443e-16
6.483090208e-16
6.543156156e-16
6.243671659e-16
6.366799229e-16
6.526774461e-16
6.356941167e-16
6.272619438e-16
6.457442456e-16
6.216969189e-16
6.27763572e-16
6.590214972e-16
6.34751045e-16
6.548266516e-16
6.559122051e-16
6.19916123e-16
6.539261087e-16
6.73253398e-16
6.320463082e-16
6.403648527e-16
6.509954109e-16
6.45685197e-16
6.778391466e-16
6.342934411e-16
6.446413072e-16
6.430676032e-16
6.279023715e-16
6.695835846e-16
6.636224512e-16
6.560395314e-16
6.656885779e-16
6.282525803e-16
6.410493562e-16
6.515854068e-16
6.338818407e-16
6.393651249e-16
6.845931978e-16
6.532536861e-16
6.628378844e-16
6.196974103e-16
6.495848099e-16
6.36152144e-16
6.100925144e-16
6.441133784e-16
6.247211531e-16
6.445323492e-16
6.332844607e-16
6.271060024e-16
6.604756768e-16
6.699697177e-16
6.054094284e-16
6.397433241e-16
6.160451835e-16
6.074513726e-16
6.429416961e-16
6.569901479e-16
6.548044075e-16
6.735949434e-16
6.328407542e-16
6.293134773e-16
6.594061062e-16
6.871991383e-16
6.702670563e-16
6.519142074e-16
6.187158442e-16
6.149933066e-16
6.544317364e-16
6.374965134e-16
6.2683119e-16
6.229837575e-16
6.225520929e-16
6.378908564e-16
6.538220843e-16
6.481211445e-16
6.79514772e-16
6.385322944e-16
6.371514761e-16
6.337192352e-16
6.606478725e-16
6.480364699e-16
6.576521568e-16
6.661796565e-16
6.360043287e-16
6.975752572e-16
6.425566102e-16
6.437811706e-16
6.249250809e-16
6.365139982e-16
6.277122077e-16
6.390681258e-16
6.375182394e-16
6.646661256e-16
6.213472923e-16
6.315127036e-16
6.24241409e-16
6.613377481e-16
6.694894802e-16
6.909650469e-16
6.525527322e-16
6.321465992e-16
6.448592669e-16
6.451893598e-16
6.436361116e-16
6.427830078e-16
6.723775747e-16
6.38160301e-16
6.197466144e-16
6.614116211e-16
6.178955705e-16
6.35674112e-16
6.319222281e-16
6.756752587e-16
6.605549418e-16
6.679783617e-16
6.422033175e-16
6.24943886e-16
6.540776567e-16
6.839271743e-16
6.573777691e-16
6.302781995e-16
6.470764696e-16
6.778301621e-16
6.206775125e-16
6.506294248e-16
6.289900001e-16
6.207854571e-16
6.576375178e-16
6.665635137e-16
6.6011327e-16
6.309581962e-16
6.477831824e-16
6.434067831e-16
6.437360126e-16
6.178157854e-16
6.211888433e-16
6.656141284e-16
6.59872632e-16
6.385169836e-16
6.604379096e-16
6.375471687e-16
6.403157255e-16
6.373386561e-16
6.460714759e-16
6.265017322e-16
6.881338885e-16
6.521132572e-16
6.620566126e-16
6.681233438e-16
6.414179274e-16
6.628271631e-16
6.250219558e-16
6.203269105e-16
6.404743003e-16
6.337477227e-16
6.165602683e-16
6.433573717e-16
6.728193051e-16
6.528494411e-16
6.520035951e-16
6.073789034e-16
6.685006934e-16
6.882432591e-16
6.352787178e-16
6.433621224e-16
6.479983048e-16
6.522155256e-16
6.789168339e-16
6.497273968e-16
6.594038969e-16
6.705377168e-16
6.218776522e-16
6.47255214e-16
6.298579648e-16
6.284524422e-16
6.941821673e-16
6.292309438e-16
6.518750212e-16
6.593358589e-16
6.738409393e-16
6.445642776e-16
6.311116291e-16
6.468233291e-16
6.301023809e-16
6.434272181e-16
6.551445747e-16
6.37004581e-16
6.788034317e-16
6.406390135e-16
6.518793544e-16
6.469563469e-16
6.72140948e-16
6.410416723e-16
6.630428119e-16
7.043021219e-16
6.624577289e-16
6.892414221e-16
6.382010193e-16
6.315269932e-16
6.483932814e-16
6.738766693e-16
6.535070708e-16
6.301977647e-16
6.517759365e-16
6.504057761e-16
6.224303012e-16
6.358241957e-16
6.387935529e-16
6.282171809e-16
6.19286382e-16
6.701057184e-16
6.429855294e-16
6.131029726e-16
6.318555191e-16
6.501518472e-16
6.455967137e-16
6.458722509e-16
6.423081564e-16
7.016108901e-16
6.417618894e-16
6.480764276e-16
6.432679155e-16
6.365380617e-16
6.395945478e-16
6.274097832e-16
6.456949925e-16
6.389248263e-16
6.347613454e-16
6.344545542e-16
6.25940546e-16
6.66142856e-16
6.474259816e-16
6.917583141e-16
6.340489487e-16
6.744017937e-16
6.408331082e-16
6.383726097e-16
6.841134793e-16
6.361493063e-16
6.557755218e-16
6.549769112e-16
6.566624414e-16
6.065080787e-16
6.11836119e-16
6.550033942e-16
6.688340149e-16
6.181345778e-16
6.37182402e-16
6.378997595e-16
6.612479368e-16
6.46799982e-16
6.439974152e-16
6.273688729e-16
6.573549873e-16
6.463406791e-16
6.288480936e-16
6.438534174e-16
6.712140918e-16
6.385977697e-16
6.68045209e-16
6.776958455e-16
6.410819387e-16
6.30556208e-16
6.362370458e-16
6.410143932e-16
6.438386318e-16
6.327415277e-16
6.358269691e-16
6.622485835e-16
6.696798763e-16
6.660749233e-16
6.739563678e-16
6.236711267e-16
6.314612251e-16
6.08860585e-16
6.380890795e-16
6.373156636e-16
6.756769554e-16
6.353645984e-16
6.259017145e-16
6.513670006e-16
6.469059876e-16
6.395432637e-16
6.532868673e-16
6.554956971e-16
6.626543551e-16
6.430600824e-16
6.01758257e-16
6.803787584e-16
6.725695584e-16
6.385665973e-16
6.442544819e-16
6.465045154e-16
6.38166061e-16
6.579571625e-16
6.529090147e-16
6.534886341e-16
6.405582786e-16
6.48396934e-16
6.331061236e-16
6.92166973e-16
6.360120286e-16
6.502903419e-16
6.220852433e-16
6.653071179e-16
6.46632941e-16
6.547630797e-16
6.492366322e-16
6.773364906e-16
6.468510408e-16
6.350049559e-16
6.481541393e-16
6.38101316e-16
6.457118358e-16
6.352689116e-16
6.505926316e-16
6.469820703e-16
6.825845762e-16
6.389494694e-16
6.484092141e-16
6.848206276e-16
6.41210025e-16
6.582795304e-16
6.474234564e-16
6.282512387e-16
6.436154742e-16
6.535857791e-16
6.473731987e-16
6.240892015e-16
6.50201072e-16
6.649852581e-16
6.501219481e-16
6.224500315e-16
6.654703568e-16
6.204554149e-16
6.421992849e-16
6.216332755e-16
6.460101347e-16
6.220659231e-16
6.513143215e-16
6.563601826e-16
6.554008845e-16
6.463499632e-16
6.386851372e-16
6.241236787e-16
6.620002317e-16
6.502223013e-16
6.557348751e-16
6.41266842e-16
6.537172992e-16
6.276446483e-16
6.509183089e-16
6.305884291e-16
6.396244657e-16
6.354962892e-16
6.623597849e-16
6.492647457e-16
6.29795886e-16
6.147877171e-16
6.273139362e-16
6.70419108e-16
6.465187531e-16
6.670528328e-16
6.354330227e-16
6.38684686e-16
6.267891136e-16
6.287565938e-16
6.500155759e-16
6.280706666e-16
6.410981475e-16
6.162260019e-16
6.634914792e-16
6.846403129e-16
6.676846815e-16
6.409484299e-16
6.513766663e-16
6.382863488e-16
6.232429476e-16
6.408734804e-16
6.44805339e-16
6.558683551e-16
6.917550093e-16
6.44422501e-16
6.298118134e-16
6.601468919e-16
6.481902861e-16
6.296342052e-16
6.302437433e-16
6.57059189e-16
6.780541688e-16
6.2596804e-16
6.319641106e-16
6.79214794e-16
6.332251452e-16
6.34743516e-16
6.545667972e-16
6.489277919e-16
6.346054286e-16
6.558279669e-16
6.267455678e-16
6.840539521e-16
6.878865294e-16
6.598380851e-16
6.25743227e-16
6.380883794e-16
6.580408891e-16
6.499820859e-16
6.207151976e-16
6.739939489e-16
6.415787185e-16
6.449580812e-16
6.330384624e-16
6.471237626e-16
6.642844641e-16
6.7836047e-16
6.57135873e-16
6.210273102e-16
6.222745394e-16
6.81445592e-16
6.944385507e-16
6.414794313e-16
6.450503529e-16
6.591809549e-16
6.407216991e-16
6.67406693e-16
6.584466343e-16
6.755575525e-16
6.289631902e-16
6.509560284e-16
6.244100215e-16
6.531100086e-16
6.490879992e-16
6.400629338e-16
6.504044465e-16
6.227973745e-16
6.644732155e-16
6.509596394e-16
6.539872468e-16
6.254448551e-16
6.448816124e-16
6.446960674e-16
6.425420673e-16
6.383245055e-16
6.177152652e-16
6.676031195e-16
6.577348777e-16
6.432312736e-16
6.704293357e-16
6.334413741e-16
6.37107641e-16
6.336585912e-16
6.392110261e-16
6.764024407e-16
6.340859975e-16
6.442435572e-16
6.504467915e-16
6.896839133e-16
6.307121094e-16
6.309729792e-16
6.368874777e-16
6.396201072e-16
6.741212623e-16
6.399437305e-16
6.619757556e-16
6.242986519e-16
6.548469115e-16
6.20732384e-16
6.446655362e-16
6.386179722e-16
6.301785265e-16
6.319145684e-16
6.177596705e-16
6.616386127e-16
6.502870783e-16
7.009655235e-16
6.505202717e-16
6.351349359e-16
6.573434973e-16
6.422909423e-16
6.525533148e-16
6.406495744e-16
6.266983394e-16
6.565480919e-16
6.478886453e-16
6.406771581e-16
6.41590225e-16
6.577224473e-16
6.386758618e-16
6.344566171e-16
6.502379003e-16
6.463310117e-16
6.166285923e-16
6.510030406e-16
6.125350555e-16
6.689939743e-16
6.28850089e-16
6.414811896e-16
6.352979294e-16
6.33881906e-16
6.309133657e-16
6.293880456e-16
6.189617583e-16
6.233823869e-16
6.416503293e-16
6.609171872e-16
6.152126538e-16
6.209433765e-16
6.484558549e-16
6.57001556e-16
6.751563657e-16
6.445709174e-16
6.699497222e-16
6.339783036e-16
6.522533189e-16
6.726171228e-16
6.332504989e-16
7.022580237e-16
6.463860205e-16
6.635657043e-16
6.244545e-16
6.328869075e-16
6.329658672e-16
6.408909376e-16
6.460441724e-16
6.302201937e-16
6.287307474e-16
6.659795372e-16
6.152677541e-16
6.457506939e-16
6.486017373e-16
6.324410998e-16
6.281465641e-16
6.275130306e-16
6.418224353e-16
6.374471684e-16
6.682334216e-16
6.381104898e-16
6.116661303e-16
6.336117305e-16
6.298861893e-16
6.499844573e-16
6.955874007e-16
6.209317667e-16
6.205660374e-16
6.42161938e-16
6.362553946e-16
6.507367265e-16
6.589647735e-16
6.73583364e-16
6.60274628e-16
6.308491338e-16
6.687127284e-16
6.45885461e-16
6.328814477e-16
6.744345026e-16
6.630525419e-16
6.3993139e-16
6.246929589e-16
6.363822418e-16
6.42269962e-16
6.400620218e-16
6.639034535e-16
6.831598503e-16
6.510870727e-16
6.265725216e-16
6.596917638e-16
6.388113555e-16
6.371073402e-16
6.654371432e-16
6.393657565e-16
6.456426355e-16
6.649177439e-16
6.580667024e-16
6.82298771e-16
6.272199984e-16
6.217757505e-16
6.247019045e-16
6.354215239e-16
6.403675704e-16
6.720392439e-16
6.700284576e-16
6.329968799e-16
6.31244479e-16
6.651533115e-16
7.070834095e-16
6.502181078e-16
6.592650824e-16
6.294245844e-16
6.491671322e-16
6.477477278e-16
6.52325502e-16
6.45530516e-16
6.276944367e-16
6.683159108e-16
6.223571595e-16
6.268649879e-16
6.271072238e-16
6.609981058e-16
6.450000009e-16
6.602318959e-16
6.332516522e-16
6.590950699e-16
6.694134191e-16
6.48971679e-16
6.292266447e-16
6.690609769e-16
6.268842682e-16
6.537255296e-16
6.899736212e-16
6.990076174e-16
6.408191129e-16
6.78288408e-16
6.373849671e-16
6.524755993e-16
6.386638384e-16
6.518012635e-16
6.208222072e-16
6.868363818e-16
6.073260663e-16
6.252722316e-16
6.41961027e-16
6.607763664e-16
6.244897209e-16
6.192999604e-16
6.572082348e-16
6.207544684e-16
6.772172787e-16
6.442910056e-16
6.534213458e-16
6.498433109e-16
6.424565027e-16
6.375002121e-16
6.531777858e-16
6.59808295e-16
6.278484833e-16
6.518466155e-16
6.2879561e-16
6.521534464e-16
6.729765036e-16
6.869174016e-16
6.23680443e-16
6.223540807e-16
6.533298907e-16
6.356904001e-16
6.448249065e-16
6.21052689e-16
7.016525851e-16
6.582586732e-16
6.414889301e-16
6.719484669e-16
6.5419386e-16
6.18891664e-16
6.359991861e-16
6.383506838e-16
6.239959857e-16
6.588734848e-16
6.557851546e-16
6.453688765e-16
6.682264647e-16
6.329811139e-16
6.721474495e-16
6.151534482e-16
6.791345878e-16
6.296108187e-16
6.694955111e-16
6.626939953e-16
6.346056757e-16
6.136988532e-16
6.376699056e-16
6.269979625e-16
6.470880089e-16
6.301560689e-16
6.655495873e-16
6.382124963e-16
6.236153003e-16
6.3700093e-16
6.695654216e-16
6.496297576e-16
6.518638205e-16
6.248137999e-16
6.547330418e-16
6.505075605e-16
6.634537585e-16
6.762407988e-16
6.462960073e-16
6.30291441e-16
6.530430835e-16
6.535412683e-16
6.260833351e-16
6.370787696e-16
6.40055312e-16
6.40058437e-16
6.436928931e-16
6.840674509e-16
6.306777058e-16
6.041289574e-16
6.426629154e-16
6.071357416e-16
6.3918424e-16
6.077805935e-16
6.53822074e-16
6.283779344e-16
6.168186377e-16
6.333697613e-16
6.465485335e-16
6.319372905e-16
6.506706712e-16
6.36373139e-16
6.310168212e-16
6.23657707e-16
6.640780903e-16
6.595676828e-16
6.159291334e-16
6.54984094e-16
6.317511277e-16
6.093179544e-16
6.584791996e-16
6.911134323e-16
6.393472976e-16
6.548163543e-16
6.509135994e-16
6.538180543e-16
6.418416082e-16
6.5637999e-16
6.101092582e-16
6.540583639e-16
6.247361659e-16
6.21034959e-16
6.437607752e-16
6.351393019e-16
6.732242984e-16
6.780945287e-16
6.381228317e-16
6.416451431e-16
6.783278504e-16
6.290274787e-16
6.97245384e-16
6.664773259e-16
6.876958818e-16
6.531959378e-16
6.86995251e-16
6.546695058e-16
6.056760481e-16
6.158868746e-16
6.872326295e-16
6.55834439e-16
6.436017051e-16
6.532226195e-16
6.753377682e-16
6.505271543e-16
6.300568961e-16
6.386812719e-16
6.40355539e-16
6.904747081e-16
6.412016054e-16
6.504358894e-16
6.5644455e-16
6.4050722e-16
6.274184977e-16
6.466747168e-16
6.637581146e-16
6.578875329e-16
6.829672456e-16
6.474838323e-16
6.300317966e-16
6.543493865e-16
6.568199665e-16
6.499870466e-16
6.483679009e-16
6.439975277e-16
6.484404979e-16
6.536050247e-16
6.304484223e-16
6.508732687e-16
6.55285857e-16
6.352545861e-16
6.613243904e-16
6.383565025e-16
6.866000782e-16
6.486945981e-16
6.287566856e-16
6.444264896e-16
6.569145247e-16
6.078065627e-16
6.271617964e-16
6.565651453e-16
6.458477251e-16
6.568088995e-16
6.169025042e-16
6.5765209e-16
6.690034167e-16
6.303639727e-16
6.406992653e-16
6.558251424e-16
6.347755386e-16
6.028239122e-16
6.480749322e-16
6.50193922e-16
6.905264902e-16
6.532068542e-16
6.284022051e-16
6.060277377e-16
6.580721891e-16
6.259711248e-16
6.532567945e-16
6.482967221e-16
6.393157085e-16
6.40760532e-16
6.465680119e-16
6.444267915e-16
6.644902582e-16
6.566312054e-16
6.395869168e-16
6.835330756e-16
6.428531996e-16
6.476898233e-16
6.405876419e-16
6.392807966e-16
6.272052156e-16
6.58720769e-16
6.634000453e-16
6.540723678e-16
6.501142315e-16
6.496256931e-16
6.610504718e-16
6.951071952e-16
6.161448101e-16
5.991043006e-16
6.356626101e-16
6.268227098e-16
6.703544341e-16
6.422140453e-16
6.317559053e-16
6.276835806e-16
6.930036007e-16
6.849046479e-16
6.365759081e-16
6.363890282e-16
6.336645329e-16
6.633945346e-16
6.516586504e-16
6.508085388e-16
6.895515081e-16
6.236274083e-16
6.327105202e-16
6.245464421e-16
6.541711908e-16
6.709806963e-16
6.41316571e-16
6.54403369e-16
6.472839291e-16
6.76223912e-16
6.474590164e-16
6.3731319e-16
6.290914475e-16
6.60097249e-16
6.42367519e-16
6.724485609e-16
6.410873206e-16
6.446146428e-16
6.331103596e-16
6.471277759e-16
6.451648911e-16
6.726966065e-16
6.493057853e-16
6.492611666e-16
6.351270886e-16
6.581532036e-16
6.45764149e-16
6.360071783e-16
6.837884351e-16
6.307926452e-16
6.459934294e-16