/*--------------------------------*- C++ -*----------------------------------*\
| =========                 |                                                 |
| \\      /  F ield         | OpenFOAM: The Open Source CFD Toolbox           |
|  \\    /   O peration     | Version:  v1706                                 |
|   \\  /    A nd           | Web:      www.OpenFOAM.com                      |
|    \\/     M anipulation  |                                                 |
\*---------------------------------------------------------------------------*/
FoamFile
{
    version     2.0;
    format      ascii;
    class       volScalarField;
    location    "0.02";
    object      Ma_N2;
}
// * * * * * * * * * * * * * * * * * * * * * * * * * * * * * * * * * * * * * //

dimensions      [0 0 0 0 0 0 0];


internalField   nonuniform List<scalar> 
5120
(
5.514974792
5.512164224
5.509958464
5.517037774
5.523763767
5.522105255
5.514356744
5.505609366
5.507818919
5.50168841
5.495439639
5.494833557
5.508011412
5.5067363
5.500741196
5.508147664
5.51353604
5.513990147
5.521647811
5.518676439
5.518435374
5.523705164
5.521740291
5.516988047
5.512535328
5.518953945
5.520495405
5.514867144
5.511971641
5.51775385
5.510342773
5.504892457
5.51463562
5.513539177
5.515677045
5.523458473
5.530743721
5.52307173
5.522647804
5.522882948
5.513764821
5.498753894
5.511082478
5.497877975
5.504047828
5.512754968
5.509580029
5.502087053
5.506941284
5.5052482
5.512796493
5.510187063
5.511016329
5.520235087
5.521059853
5.514731732
5.514300339
5.513033829
5.51081671
5.509015556
5.508399515
5.521931585
5.515238616
5.507628793
5.521802571
5.524719629
5.522552155
5.519567187
5.514168905
5.509054081
5.5141076
5.520725979
5.527666711
5.523028343
5.52852672
5.527902295
5.520950009
5.517815395
5.522262687
5.52267091
5.51887205
5.513851746
5.514028847
5.521223284
5.511564837
5.513967395
5.509379217
5.516067378
5.508237395
5.506590917
5.50108173
5.500593017
5.51162412
5.51157584
5.509137902
5.518367174
5.518469907
5.519494993
5.525103973
5.515095214
5.530404706
5.52435839
5.5126482
5.522319013
5.511139411
5.50589898
5.510532758
5.51436831
5.519853105
5.519076461
5.523377115
5.52076161
5.520298669
5.520598125
5.518299185
5.521174453
5.524144475
5.52567353
5.516830666
5.52359697
5.522124279
5.533611584
5.535677975
5.527503545
5.521277044
5.521727104
5.523904326
5.519335389
5.522895212
5.525358584
5.533135101
5.526125119
5.517146453
5.516502123
5.519954848
5.510744658
5.516447685
5.522696381
5.518950786
5.518787458
5.519329733
5.51026632
5.50434237
5.510449026
5.524290186
5.523598975
5.528652654
5.527478023
5.528719292
5.522321171
5.5156137
5.521541187
5.517146884
5.513887885
5.506790267
5.508960316
5.508694358
5.510317601
5.509533981
5.521919573
5.50022125
5.50726677
5.508932174
5.524635347
5.521457545
5.512393227
5.513021234
5.517937389
5.523082668
5.529350509
5.518790056
5.522981279
5.521989075
5.521493135
5.521413505
5.515461364
5.507023817
5.509893866
5.509484428
5.495693891
5.524645466
5.531325516
5.529934766
5.52156239
5.522682347
5.528568183
5.504406179
5.509539006
5.51338193
5.517028771
5.530573423
5.519848866
5.512217205
5.510009897
5.509667809
5.513598943
5.528041201
5.524283063
5.520547145
5.519671738
5.52126783
5.508720711
5.514129023
5.505828845
5.512562736
5.520266837
5.52020366
5.528075157
5.540274896
5.535464153
5.520318278
5.521827032
5.523813149
5.519837566
5.523225248
5.525677249
5.521638163
5.522323908
5.533325416
5.534534113
5.511887336
5.511615857
5.513090661
5.508442222
5.50968115
5.507838115
5.508294263
5.524660093
5.534009552
5.527113524
5.529994465
5.517541122
5.526127308
5.535234149
5.527823016
5.524599624
5.519162066
5.516089629
5.516078054
5.517635809
5.525197368
5.517600368
5.518456744
5.520048897
5.51525105
5.51507128
5.510486766
5.51467925
5.516629219
5.515127726
5.510247062
5.50908695
5.510286454
5.502327337
5.509959254
5.515523811
5.514809285
5.523975747
5.521077346
5.518278631
5.500752742
5.496255571
5.504133976
5.502389449
5.508838621
5.51755293
5.532289161
5.528615098
5.522519936
5.518221004
5.513987616
5.513878776
5.508140807
5.501795526
5.510847375
5.51139206
5.525787336
5.5219121
5.518156916
5.521375018
5.516325607
5.511704041
5.514742079
5.513609788
5.504887468
5.500562153
5.510997871
5.510987341
5.509824223
5.511253507
5.509027917
5.510461578
5.512245669
5.510237413
5.513477023
5.515432843
5.508769856
5.497983776
5.496974392
5.504637721
5.507837568
5.509287495
5.505405846
5.507315663
5.505469448
5.51564899
5.507537786
5.508146226
5.503611563
5.505509211
5.525034758
5.520957762
5.515727866
5.513154601
5.524828344
5.523921929
5.516891028
5.519078556
5.524366556
5.518932737
5.503328454
5.506885542
5.520569203
5.528088256
5.521135719
5.510009424
5.519213117
5.526778994
5.524131026
5.517903358
5.515437537
5.513447535
5.50758
5.522254303
5.515970323
5.514761857
5.522018326
5.511210268
5.507886782
5.511969873
5.513698993
5.524686944
5.516698221
5.505395133
5.50070971
5.504768693
5.503079675
5.509360862
5.509222365
5.508110106
5.513957581
5.510915816
5.502993703
5.503968177
5.513315189
5.512565802
5.501154722
5.502439287
5.513933642
5.513615565
5.531148282
5.512484
5.504716356
5.510078325
5.507427132
5.506340149
5.515840891
5.516622766
5.515097375
5.529640009
5.521688073
5.513406242
5.513108271
5.51138937
5.512390879
5.506468393
5.512149691
5.521327553
5.517218014
5.52246267
5.519610185
5.510915286
5.508595512
5.520901506
5.515395441
5.506506898
5.499636368
5.505288097
5.509882663
5.508445716
5.519315355
5.534800892
5.530635735
5.531137958
5.522076798
5.518291717
5.517979142
5.522047666
5.521799662
5.523854489
5.512837147
5.50853729
5.519012482
5.522268112
5.520256589
5.520224714
5.506123048
5.492075249
5.506978795
5.516505635
5.517380867
5.514576223
5.508335256
5.519134902
5.52468079
5.524477434
5.531111734
5.529034248
5.525839136
5.516003602
5.510854332
5.512424561
5.513628255
5.516223767
5.523481321
5.525405583
5.52040183
5.530459325
5.529379482
5.527533474
5.516938503
5.525400029
5.524820727
5.516549438
5.520220225
5.52537316
5.529247875
5.521674823
5.528144316
5.51833071
5.531145138
5.53671511
5.529909645
5.52703264
5.526777591
5.525637758
5.519778738
5.519274234
5.519693235
5.521010376
5.513349281
5.512902785
5.52084139
5.515590978
5.525464605
5.517405561
5.506065424
5.509929566
5.516233385
5.523599945
5.525517698
5.527061361
5.535081583
5.529317628
5.52389914
5.525812223
5.536018445
5.53232644
5.5233986
5.520822143
5.519300232
5.521145386
5.516771911
5.512808304
5.515034832
5.517181087
5.52035303
5.523393287
5.526090277
5.516245083
5.521666495
5.52399823
5.521940806
5.521092118
5.522792599
5.526466418
5.528339135
5.528589357
5.53250318
5.532522972
5.524122713
5.533132823
5.526167422
5.51681568
5.51431228
5.508106759
5.510631703
5.513145262
5.511422837
5.512790683
5.522883289
5.513545308
5.509434568
5.515011564
5.514505291
5.514602218
5.532406697
5.525263613
5.513948133
5.51373162
5.515906137
5.51633607
5.522623114
5.520418656
5.519123063
5.510288639
5.512591317
5.500700515
5.508680274
5.515578428
5.511624235
5.519065323
5.519790989
5.515195352
5.51397017
5.51694032
5.518401133
5.508614059
5.504395038
5.506642695
5.517409838
5.530199761
5.517943898
5.512828799
5.508667704
5.506785711
5.512101213
5.52045205
5.514375669
5.516422586
5.527941232
5.531875296
5.519875563
5.521735119
5.522692228
5.526175344
5.523963353
5.521945959
5.527787674
5.533653552
5.522042912
5.508276298
5.516712458
5.520275096
5.522613666
5.521395968
5.528311207
5.515081704
5.510028035
5.520988966
5.511129953
5.51545933
5.519460832
5.516739787
5.519967546
5.519078331
5.52197749
5.511231137
5.490831005
5.491493711
5.496192001
5.508449467
5.513428851
5.513057812
5.510329902
5.514769256
5.507901872
5.508559071
5.517023451
5.514804221
5.525307625
5.526631413
5.522768317
5.513409997
5.518156863
5.517870153
5.517339613
5.527298443
5.527095975
5.511959279
5.511677849
5.505959672
5.511223874
5.510069399
5.510424807
5.514639862
5.511300236
5.502842271
5.5036189
5.507024894
5.517906091
5.514980509
5.518900085
5.512767412
5.515390433
5.506113594
5.506928565
5.497148475
5.507377271
5.512001319
5.514398472
5.516579152
5.5169074
5.524667511
5.52278602
5.514623333
5.508776585
5.512012883
5.512149854
5.509455441
5.512012065
5.520166027
5.521301791
5.520159835
5.52724972
5.532333581
5.523847888
5.514748722
5.519446085
5.525384769
5.514321369
5.514031841
5.523166798
5.522057852
5.515838046
5.519711233
5.525052706
5.527863301
5.528280114
5.512909613
5.526404766
5.525302022
5.525723233
5.524588856
5.531652218
5.522641713
5.517145861
5.52490827
5.523944537
5.524448106
5.522072573
5.518052944
5.511271188
5.507741699
5.499157792
5.500877043
5.493930282
5.503308284
5.514923351
5.515974574
5.509643227
5.518193863
5.507951958
5.510215605
5.512887557
5.503895037
5.504329174
5.507786804
5.511102115
5.516000966
5.507623103
5.508191043
5.505618368
5.508696418
5.499400059
5.513475701
5.51832996
5.52471602
5.510988227
5.503975095
5.515994308
5.516934916
5.521655666
5.521549284
5.519578571
5.516297396
5.513956946
5.519157159
5.521760683
5.516139349
5.519825202
5.520877984
5.515589151
5.521857362
5.522306683
5.519132706
5.508490674
5.508472501
5.519880285
5.525486148
5.512914972
5.504125281
5.500396832
5.495754991
5.504357018
5.51719641
5.526927841
5.524197296
5.514123194
5.519798195
5.515087101
5.520442345
5.534543564
5.522829123
5.513152181
5.507539939
5.509248815
5.521595257
5.515854702
5.516695346
5.514971916
5.515775378
5.516021723
5.512181936
5.517285817
5.508794059
5.513011038
5.513041514
5.509011633
5.512030364
5.50351602
5.507078463
5.517619787
5.521709557
5.524929322
5.529716163
5.522533862
5.51836523
5.510242337
5.513816676
5.523204694
5.518819648
5.510693506
5.521789278
5.512466517
5.512546311
5.516574625
5.510291981
5.5020479
5.503107188
5.513132912
5.51568513
5.50868392
5.509033205
5.506451754
5.512515788
5.510921191
5.511396047
5.524680812
5.52950906
5.515315083
5.520691459
5.525069864
5.521394406
5.526186896
5.5337733
5.52855591
5.514688794
5.512312688
5.519646707
5.51518556
5.520882433
5.511711063
5.518275504
5.52291478
5.522584551
5.516111412
5.514467811
5.513125764
5.509264512
5.510406272
5.503042258
5.514006401
5.523130003
5.531785803
5.524389066
5.512651846
5.518735558
5.523055862
5.51688356
5.525053996
5.525496902
5.534392601
5.529507799
5.521073841
5.511544934
5.513766728
5.526440692
5.520527053
5.521580086
5.518048151
5.510671421
5.510548549
5.510827389
5.505911307
5.514197592
5.522091658
5.532933523
5.517946966
5.527132876
5.529934616
5.525430392
5.527101495
5.528576393
5.539240414
5.537252486
5.526371064
5.518742382
5.519971906
5.523325919
5.529067303
5.526091174
5.516545287
5.515088374
5.509049881
5.510604056
5.509065225
5.513468537
5.516253512
5.515471148
5.52178079
5.518361394
5.521261848
5.534492528
5.525657303
5.520831062
5.528417185
5.52057549
5.513654922
5.514949954
5.510944119
5.505593285
5.517253354
5.527317024
5.524874876
5.513334151
5.509165664
5.506783631
5.505752475
5.512205855
5.511901181
5.513233317
5.522512355
5.518333925
5.51509125
5.518170498
5.516143225
5.524562664
5.527805193
5.525915188
5.523777957
5.523131762
5.520609135
5.515909248
5.522671742
5.517866854
5.520798664
5.520381479
5.519725624
5.510866053
5.507077994
5.516214322
5.520452153
5.510908841
5.51653059
5.513635818
5.518436736
5.514159369
5.513712804
5.518162861
5.520613312
5.524645227
5.530289814
5.525122572
5.510087831
5.513474415
5.519990453
5.510990332
5.51839461
5.520648573
5.522003148
5.512882515
5.516251033
5.517246269
5.517870124
5.519377136
5.522487756
5.519483712
5.523849297
5.520381742
5.529158363
5.512631957
5.506947892
5.520057285
5.512255423
5.514161761
5.520383519
5.525070026
5.514288511
5.519296327
5.526012954
5.523797034
5.517671872
5.520969758
5.519682737
5.512267839
5.509987917
5.51572339
5.527188393
5.532219792
5.513596015
5.506739796
5.502395941
5.506990219
5.505769899
5.510472096
5.506885526
5.510914428
5.516200856
5.510865741
5.505860914
5.503395202
5.512304895
5.505320112
5.502281194
5.506831106
5.509667326
5.503215777
5.495528707
5.504751901
5.519326653
5.520440272
5.517259812
5.514280646
5.520363198
5.516466027
5.525752419
5.51881916
5.506010495
5.502655144
5.514837656
5.518377115
5.512417752
5.510247088
5.520530204
5.51598953
5.515747452
5.518628824
5.522856807
5.52208898
5.50846113
5.500427385
5.511848292
5.50687769
5.502855353
5.514376312
5.517337081
5.513468228
5.511221163
5.513465751
5.514339184
5.516702155
5.510899648
5.520026708
5.518045435
5.508063924
5.505924424
5.506325876
5.507280326
5.501969573
5.522105142
5.527374628
5.519137423
5.522666971
5.515777013
5.514286409
5.512703318
5.510238932
5.513469744
5.529329154
5.521188648
5.519200028
5.512856479
5.49795445
5.504362886
5.508580506
5.505668263
5.508475071
5.509645022
5.516650004
5.512126206
5.520711152
5.518713847
5.519603867
5.522647216
5.521879212
5.523219401
5.52429121
5.524656774
5.528502838
5.531405915
5.525610159
5.523807584
5.525945688
5.52053626
5.514507256
5.519741042
5.512650219
5.501496162
5.499458309
5.502628214
5.511206728
5.513972794
5.517140771
5.523869051
5.52213432
5.531881164
5.525337865
5.520501634
5.523246195
5.522380479
5.5192778
5.514944304
5.512703053
5.530147773
5.536372537
5.536009116
5.521420592
5.518529605
5.512402875
5.513525446
5.516518857
5.51843205
5.509051353
5.498639108
5.502520194
5.508852642
5.518583848
5.523362331
5.513288745
5.521242216
5.514542617
5.508740276
5.516784356
5.515581926
5.508854027
5.517302894
5.519815573
5.512414177
5.513619755
5.515136059
5.517444558
5.516645148
5.508402255
5.514430871
5.526836793
5.524037577
5.518513596
5.52497108
5.523400644
5.519210862
5.527599162
5.523592365
5.518681221
5.531887337
5.522874148
5.520812049
5.524766502
5.517353586
5.514821863
5.519089347
5.516942168
5.517495199
5.514122916
5.513405626
5.512023695
5.506081344
5.506376417
5.509581318
5.51255878
5.517735094
5.524992758
5.520492514
5.51567006
5.512971241
5.527490078
5.525099328
5.516685653
5.518800943
5.517772138
5.52396076
5.532024284
5.527763065
5.528925014
5.516102074
5.513320744
5.515832356
5.512214333
5.513877331
5.522230211
5.516126412
5.519413636
5.530504515
5.533356358
5.533485803
5.525422231
5.532499852
5.532614675
5.521976079
5.522609329
5.517689616
5.519678892
5.520673277
5.515746893
5.513281809
5.513268696
5.516779964
5.515654363
5.516607583
5.510642849
5.515115101
5.513412627
5.509780698
5.517999619
5.516820409
5.51521801
5.524449775
5.525622038
5.518030108
5.507273599
5.517709698
5.520496649
5.526752144
5.519891337
5.521494748
5.530246906
5.521443125
5.516561624
5.518642112
5.514510695
5.512642527
5.519328735
5.513615087
5.515686796
5.508725714
5.505580909
5.503961294
5.512188772
5.517381456
5.525408428
5.500495987
5.504306339
5.511491598
5.519161055
5.515517803
5.509169631
5.517104976
5.511767847
5.514068914
5.514811752
5.523457106
5.525832376
5.513520975
5.508084823
5.518841184
5.516345951
5.511374269
5.503519296
5.506591894
5.503751944
5.499490382
5.502751734
5.499464257
5.494308604
5.496748471
5.507482102
5.501746635
5.505629724
5.512913181
5.517130726
5.516941017
5.504905032
5.505749816
5.517217746
5.514927584
5.522259781
5.513432811
5.511768282
5.494542299
5.502319904
5.498054713
5.49697684
5.505305491
5.509558413
5.517114962
5.51846687
5.518751617
5.514634562
5.5036998
5.499043909
5.510698613
5.520369119
5.524634998
5.52077316
5.522509811
5.521397044
5.517826337
5.507693352
5.499704395
5.500274362
5.511878691
5.512364924
5.513498059
5.506503162
5.5151553
5.512335894
5.505131663
5.504612646
5.50055445
5.514057751
5.512201253
5.507707989
5.501244345
5.506359933
5.507242692
5.49361209
5.499365529
5.506918279
5.511547571
5.509641099
5.513172603
5.506534848
5.508307041
5.517457833
5.510792442
5.502917448
5.502268776
5.510130238
5.515641484
5.514415888
5.514847593
5.517642705
5.521106649
5.514751112
5.510764058
5.507094934
5.514815076
5.519285047
5.509662224
5.505346353
5.516115455
5.520203466
5.521576313
5.518665885
5.511930039
5.505459254
5.514455477
5.516592048
5.523299548
5.516509447
5.511368474
5.508833347
5.505779277
5.517182742
5.511857476
5.514588421
5.513630686
5.518216689
5.520178664
5.524694868
5.513237126
5.509669225
5.50671529
5.514532469
5.523298026
5.515869623
5.502937333
5.50168345
5.495286169
5.504119539
5.502553168
5.505546687
5.510484183
5.511529976
5.512093688
5.511695414
5.522849439
5.523849705
5.523936769
5.513399501
5.505677454
5.503835693
5.505315842
5.506981649
5.508728451
5.518918831
5.514576485
5.511903765
5.512999638
5.507366117
5.50893468
5.512377957
5.511964051
5.512628216
5.509755191
5.512215519
5.513880537
5.510885736
5.515747951
5.507921084
5.512818413
5.512438884
5.515593631
5.508077775
5.509189757
5.510822109
5.51599748
5.520650322
5.50636375
5.507467903
5.51200679
5.518629009
5.518143102
5.519531871
5.508723183
5.509370181
5.516654111
5.525583858
5.527385572
5.521512539
5.515135868
5.506769432
5.507922519
5.520184146
5.519555144
5.515119134
5.508598064
5.513410545
5.52554696
5.526459548
5.514288853
5.505912764
5.507447838
5.511271803
5.518451324
5.520380233
5.515396071
5.511879812
5.517331449
5.513612129
5.511577271
5.514067703
5.51531931
5.518800084
5.511995702
5.51042647
5.511119089
5.511454084
5.512472127
5.510629641
5.508872949
5.521722624
5.530808265
5.519994755
5.520737039
5.510069947
5.504785476
5.512292241
5.514773009
5.511220072
5.508401274
5.503590882
5.511590006
5.514575848
5.512161578
5.517677046
5.52439073
5.526084215
5.520196603
5.515044091
5.515096216
5.507941933
5.505723867
5.515367896
5.515045896
5.515878601
5.518711885
5.508212655
5.513729252
5.514947469
5.512736007
5.514667974
5.508783285
5.518782994
5.527602369
5.52092423
5.50868565
5.510723954
5.51062282
5.519090841
5.523443912
5.511132803
5.520757041
5.523177371
5.521612577
5.523943842
5.515806982
5.507927657
5.513123543
5.503955495
5.523346191
5.509928192
5.518784666
5.509857234
5.508209459
5.509784955
5.515923836
5.514926742
5.519152302
5.520038931
5.516706011
5.521283216
5.522209946
5.519980626
5.525625623
5.519406766
5.513741417
5.523379365
5.524587008
5.527436425
5.519441108
5.512749488
5.510970864
5.519185982
5.515939517
5.516681009
5.51674915
5.523009607
5.522346713
5.529751857
5.51991851
5.517305939
5.514840056
5.508103514
5.509552366
5.520827354
5.518877626
5.514389456
5.519447873
5.523525152
5.504110315
5.504966152
5.507786527
5.516101219
5.517570221
5.511171713
5.523476842
5.531651085
5.520071253
5.52172735
5.522364322
5.515319649
5.51312241
5.510340067
5.515621593
5.505695012
5.510153566
5.509789147
5.509138104
5.507002956
5.518306282
5.51435623
5.520465116
5.518384422
5.527157486
5.528585931
5.523931303
5.514541458
5.503507657
5.503945699
5.514272332
5.511280928
5.516178353
5.515943533
5.502399426
5.493119851
5.499209727
5.510844013
5.51482838
5.518080658
5.512874596
5.51116427
5.506661507
5.501073228
5.501042113
5.514466866
5.506530022
5.524326739
5.523646662
5.519454299
5.513128246
5.509393018
5.508561495
5.499085683
5.499109822
5.499541688
5.511152227
5.512421837
5.515505764
5.508105265
5.506136175
5.503045447
5.497745018
5.507143075
5.515122166
5.503660569
5.502552692
5.503566246
5.515046117
5.522941491
5.518972332
5.521078749
5.51313565
5.51210827
5.515420649
5.52082007
5.509798339
5.512332659
5.519622005
5.510574208
5.499373501
5.503767636
5.502797495
5.508764751
5.507233349
5.499801711
5.512410109
5.513663268
5.516266899
5.514698328
5.516627903
5.516212134
5.513451935
5.512736486
5.512493556
5.516967228
5.515617466
5.505148864
5.504470398
5.507973644
5.514569456
5.518437532
5.518095588
5.509247753
5.517679487
5.519223148
5.51784548
5.521250134
5.514327413
5.510077247
5.511103689
5.511740234
5.516111058
5.515498706
5.521393772
5.526062885
5.508973398
5.507818157
5.514893616
5.514766753
5.524147581
5.516895908
5.508452389
5.513363891
5.515529421
5.521863095
5.522379155
5.515864686
5.52116639
5.517985035
5.518198037
5.513904631
5.507815877
5.51355158
5.51698666
5.524442552
5.536673662
5.525628549
5.515797875
5.514044817
5.52026887
5.513801087
5.516444379
5.516645849
5.512120389
5.516541022
5.515096423
5.5154371
5.51406475
5.523886234
5.524337737
5.515631434
5.517124885
5.521916597
5.527360523
5.527811326
5.515389625
5.522623815
5.517632746
5.516723047
5.52476211
5.519986754
5.505935357
5.512608723
5.509256703
5.512085901
5.518846339
5.519978697
5.514392061
5.51752541
5.522732154
5.513980734
5.515359589
5.527515069
5.529948895
5.520903863
5.516699893
5.503970609
5.512652122
5.519850381
5.515914943
5.51560839
5.523081628
5.514179974
5.513409049
5.510434634
5.512806628
5.518287087
5.520491416
5.507576192
5.509601233
5.508093742
5.515226127
5.508101772
5.518836556
5.519783881
5.515979304
5.514058865
5.50967506
5.509916411
5.512754731
5.514792648
5.503469779
5.504077224
5.505990898
5.516757209
5.516226304
5.507814328
5.51238647
5.515982454
5.520314358
5.520135592
5.518112354
5.518300046
5.512502993
5.512349576
5.506931499
5.516169665
5.515404858
5.509783934
5.517492429
5.506996074
5.50960334
5.519762662
5.513472767
5.497291691
5.499788127
5.515814926
5.512659083
5.511670663
5.522208523
5.527719809
5.525206864
5.525202006
5.525858299
5.519241385
5.522488799
5.514093792
5.514628446
5.516760444
5.530295988
5.517172903
5.513725858
5.508186258
5.504688872
5.508391247
5.502192884
5.498992299
5.504926894
5.498286764
5.502990973
5.503729917
5.509868176
5.508725815
5.503947039
5.501036663
5.499737512
5.506428672
5.51032462
5.522829744
5.499042945
5.519934385
5.508882077
5.512866263
5.510120956
5.508193334
5.509556833
5.506089878
5.504515682
5.503115859
5.503004735
5.509144385
5.512012557
5.504900868
5.503538145
5.5133025
5.521095035
5.521206193
5.518419832
5.504777974
5.507694183
5.50690547
5.51018106
5.500693701
5.500335582
5.512478981
5.505285886
5.51131788
5.513382131
5.512366057
5.508769864
5.507711289
5.508964976
5.51128905
5.51593806
5.518963184
5.514170806
5.513336324
5.512817358
5.50308362
5.514686286
5.511544087
5.506975108
5.512284434
5.512447559
5.508334253
5.512220475
5.507967303
5.511135816
5.514816721
5.510984511
5.509672034
5.501015809
5.508882773
5.510447552
5.509685276
5.511416636
5.514798724
5.519626828
5.515751951
5.510734937
5.51133678
5.505739732
5.503947867
5.506266061
5.519009427
5.510977874
5.512606959
5.511170064
5.506854562
5.496852901
5.505302135
5.508643825
5.508653735
5.505725129
5.512139341
5.506513538
5.501313717
5.511367774
5.511404338
5.507884958
5.516796593
5.510545215
5.516732264
5.514989665
5.512834727
5.513137939
5.524017222
5.524233265
5.517494808
5.511871548
5.510517907
5.511031581
5.505423342
5.516801828
5.52260176
5.519547029
5.516805035
5.506919479
5.502187662
5.524784044
5.524081868
5.517139216
5.514174977
5.509504787
5.5076746
5.516887326
5.513685769
5.518422803
5.511958949
5.507960506
5.511532731
5.500508974
5.499994323
5.497618589
5.505758159
5.506458085
5.500815766
5.50896611
5.526226133
5.517910645
5.51823636
5.516383536
5.508703417
5.507455376
5.502921791
5.514391304
5.511419024
5.508137975
5.501875932
5.509026007
5.510343354
5.517197215
5.515509747
5.5078253
5.501511031
5.517176161
5.522528202
5.521160571
5.522222592
5.511034488
5.507188227
5.503227089
5.498199514
5.492653596
5.501152122
5.502568546
5.498813655
5.500766183
5.507719797
5.508356265
5.507892509
5.508050436
5.507485886
5.512018229
5.513273696
5.515165655
5.518187646
5.523397791
5.515033965
5.504330169
5.506175548
5.512963851
5.512775639
5.519206742
5.507453409
5.503510925
5.512078392
5.52070859
5.514750359
5.508442948
5.517958537
5.51488232
5.510713595
5.510057175
5.511551274
5.521458849
5.523014283
5.512541818
5.509625367
5.512780594
5.514241985
5.517431301
5.518502008
5.511959195
5.515184296
5.514508367
5.520028223
5.517824408
5.514285567
5.516679997
5.524382323
5.528439882
5.520367396
5.526128087
5.517086382
5.511811547
5.508846198
5.51494386
5.518249738
5.525292303
5.518944418
5.521156284
5.51293683
5.518089845
5.518085714
5.513810013
5.514934701
5.515074133
5.515731886
5.516124835
5.519623276
5.521281439
5.516180988
5.513425491
5.51298781
5.512158747
5.518425015
5.517996908
5.525394174
5.509139632
5.506343921
5.520986155
5.516985202
5.509781237
5.509682532
5.509923803
5.507896065
5.506658755
5.503352263
5.505599307
5.499862741
5.508921563
5.502026357
5.496638387
5.499687046
5.510163795
5.509307865
5.507490587
5.508260167
5.509568923
5.51388918
5.514362788
5.523899075
5.512305961
5.513217631
5.501546163
5.506803151
5.506675175
5.506636881
5.506269067
5.498423873
5.497242201
5.509936866
5.509988908
5.51919514
5.515461527
5.51592627
5.511919416
5.517552954
5.516708379
5.509588897
5.51135187
5.512562221
5.517085362
5.514293115
5.516291143
5.526344435
5.524537817
5.523704931
5.525982179
5.525726886
5.514895486
5.506121148
5.505928536
5.501238608
5.506976807
5.508530083
5.506523672
5.509848115
5.51002159
5.518837986
5.510252856
5.507908651
5.514864653
5.513645006
5.506923283
5.498278366
5.49354895
5.507500656
5.508670908
5.505683819
5.514101942
5.513362988
5.508181497
5.514900076
5.518027604
5.508547701
5.521821701
5.517168473
5.511314559
5.51777446
5.522152742
5.531204344
5.530431138
5.529645545
5.512102229
5.509444551
5.504482768
5.502586001
5.50090685
5.503322128
5.500100256
5.507626087
5.511055422
5.50716719
5.500034852
5.509391973
5.517441374
5.515914835
5.512143237
5.509633718
5.51979608
5.516760546
5.51964458
5.516105796
5.520858361
5.507594302
5.508670052
5.510138248
5.510700957
5.514514894
5.502387618
5.501737373
5.507616027
5.518276505
5.519350493
5.522924107
5.515346306
5.509930636
5.510440107
5.509960028
5.504504179
5.506113935
5.500442298
5.494669583
5.508576066
5.515058647
5.510627274
5.513046316
5.502924117
5.501840074
5.505296742
5.502061721
5.504096982
5.510154208
5.515425032
5.504829417
5.505809904
5.50591412
5.506711866
5.510064506
5.509321405
5.516598213
5.518172542
5.520167217
5.506245477
5.516313987
5.512262135
5.502714625
5.504837791
5.507332902
5.509958302
5.505956011
5.497732726
5.508698374
5.508939024
5.51454007
5.512249213
5.512195251
5.507824035
5.503701292
5.516726044
5.519715429
5.515299112
5.503969479
5.502264009
5.512982144
5.519284557
5.520812697
5.516660334
5.50697181
5.509963024
5.51861098
5.517023577
5.509472786
5.506402604
5.509922117
5.497075041
5.506991766
5.517218852
5.51878881
5.512744836
5.502634126
5.516230086
5.528355953
5.533802188
5.519804635
5.516226645
5.526299936
5.529360531
5.512941378
5.508284852
5.509255101
5.505992559
5.511166571
5.514402507
5.513345617
5.519242055
5.509634391
5.521764391
5.523251746
5.526264053
5.52760174
5.521888683
5.515210728
5.510671923
5.51792067
5.523570497
5.518433334
5.513966808
5.525344848
5.529414187
5.515338716
5.507222071
5.507105199
5.507668652
5.516331755
5.515757061
5.521822696
5.527013143
5.523480538
5.525762788
5.525077835
5.524215309
5.520611554
5.51385262
5.507875593
5.504260778
5.510021286
5.499615612
5.500770538
5.509702727
5.52610043
5.523246855
5.51524517
5.500624149
5.510883584
5.523027481
5.524829125
5.512097029
5.503417293
5.504501219
5.511578451
5.515257645
5.511687469
5.509154743
5.507784786
5.506598881
5.506245721
5.516373296
5.511237514
5.512230841
5.509855639
5.500554389
5.509860099
5.514033404
5.517523982
5.509377516
5.510103877
5.51515491
5.52524183
5.524874661
5.525670918
5.517259265
5.516733005
5.520500781
5.518602597
5.516041773
5.515925528
5.515074452
5.515119121
5.518077531
5.515355629
5.512528313
5.514262726
5.512531086
5.520539934
5.520622389
5.513749748
5.517434502
5.520750371
5.515073704
5.512376326
5.519218199
5.521466882
5.517793817
5.507559683
5.509385459
5.519226105
5.518735773
5.509254932
5.512551956
5.519336318
5.519007618
5.523414114
5.524999197
5.522965206
5.525228441
5.517840216
5.514272358
5.521619395
5.521428021
5.533557939
5.517856904
5.505553189
5.505018191
5.504764803
5.520801561
5.52395359
5.509669355
5.514236372
5.511075403
5.51927406
5.530729529
5.517087209
5.510550901
5.510246973
5.515879282
5.512192933
5.519528792
5.523614176
5.516342498
5.506110301
5.506327715
5.507489301
5.508823271
5.509559342
5.503406526
5.497841117
5.498131787
5.509455859
5.505937391
5.513325228
5.508012448
5.522004863
5.514951905
5.514267586
5.505658979
5.511120231
5.510154284
5.508263027
5.508572038
5.516468122
5.522831108
5.516515172
5.522739527
5.516739877
5.510389128
5.508408678
5.511606926
5.516623698
5.523914962
5.509931734
5.507858974
5.509500557
5.521014326
5.520113098
5.523052121
5.514643504
5.515469672
5.523871406
5.524693001
5.519897491
5.521940374
5.522248496
5.521173935
5.52934398
5.523940935
5.521239992
5.518965483
5.525590256
5.517842735
5.514482302
5.520665945
5.517291498
5.508898909
5.518576458
5.512705844
5.517150178
5.50713096
5.506667737
5.507537632
5.515860677
5.516571452
5.51989058
5.515909357
5.513570554
5.509665479
5.504334257
5.513294717
5.503295476
5.515533523
5.514341676
5.516588061
5.508592075
5.518365648
5.526236883
5.517390463
5.509143212
5.523522528
5.511369076
5.508515338
5.508651337
5.50316218
5.507631815
5.517119584
5.51236896
5.51013396
5.509579656
5.51154213
5.50691217
5.50887514
5.509555352
5.502579894
5.506256159
5.50844797
5.505196091
5.503733175
5.519300366
5.513734493
5.507329335
5.502345428
5.51099668
5.519604272
5.505134551
5.504297862
5.511865511
5.520274307
5.503751955
5.507065205
5.506269765
5.508354141
5.509385703
5.509453447
5.508252908
5.502147874
5.50254396
5.504396224
5.504517142
5.511333923
5.509584282
5.506596634
5.492491733
5.501690712
5.517823365
5.510255746
5.497705066
5.496543563
5.502226938
5.503378069
5.500821218
5.494297156
5.497832009
5.504243893
5.501469991
5.5031018
5.50589189
5.507600354
5.516081675
5.509852787
5.501530607
5.505822055
5.513370609
5.513154591
5.518369247
5.512033998
5.507686748
5.511374889
5.509726149
5.511048127
5.513944411
5.518156813
5.516117073
5.511489459
5.510467479
5.503591607
5.510702736
5.514005756
5.511596072
5.504055791
5.503439275
5.503549663
5.508406257
5.517039109
5.520112145
5.523258962
5.520303855
5.510294635
5.50627221
5.504225554
5.517363462
5.52509733
5.515217732
5.515370134
5.525797016
5.520166019
5.516281625
5.509544123
5.503643162
5.521772406
5.517597358
5.521321499
5.52157187
5.524287681
5.525831686
5.510554274
5.505514404