/*--------------------------------*- C++ -*----------------------------------*\
| =========                 |                                                 |
| \\      /  F ield         | OpenFOAM: The Open Source CFD Toolbox           |
|  \\    /   O peration     | Version:  v1706                                 |
|   \\  /    A nd           | Web:      www.OpenFOAM.com                      |
|    \\/     M anipulation  |                                                 |
\*---------------------------------------------------------------------------*/
FoamFile
{
    version     2.0;
    format      ascii;
    class       volScalarField;
    location    "0.02";
    object      Ma_O2;
}
// * * * * * * * * * * * * * * * * * * * * * * * * * * * * * * * * * * * * * //

dimensions      [0 0 0 0 0 0 0];


internalField   nonuniform List<scalar> 
5120
(
5.887232949
5.885950128
5.872424115
5.877352266
5.875864398
5.862172519
5.882451004
5.894537437
5.901764594
5.919432314
5.89889256
5.903456653
5.913189153
5.91227306
5.909310686
5.913043322
5.906772138
5.921447778
5.903136372
5.883404235
5.903746767
5.889828235
5.879161631
5.898018265
5.908097792
5.895530642
5.873171619
5.886430708
5.894679598
5.916149788
5.923773709
5.921204764
5.89706205
5.900660806
5.91034348
5.927230815
5.8992947
5.884081001
5.890759477
5.901303265
5.890111511
5.895971443
5.896917423
5.885001778
5.886590048
5.884736822
5.89190202
5.884600583
5.899331916
5.912958202
5.905991944
5.895962547
5.894432198
5.89954776
5.889457146
5.878377708
5.873283474
5.873770178
5.891204942
5.90116361
5.918856582
5.925015176
5.907823235
5.900639635
5.906270041
5.910559214
5.914573493
5.90520344
5.902428763
5.892721508
5.890929417
5.898216502
5.920705853
5.910855996
5.901550983
5.885883351
5.883473083
5.894010902
5.895764729
5.902658975
5.898171914
5.897704856
5.904156158
5.885511885
5.887672538
5.891670302
5.883785472
5.888275636
5.915208082
5.923414155
5.920998726
5.908773235
5.898054765
5.893700664
5.88886191
5.898904083
5.896673204
5.905575342
5.903618809
5.908847711
5.893860982
5.884309487
5.903635289
5.912744534
5.930290665
5.912660284
5.8834876
5.874595696
5.884551427
5.883926491
5.877331026
5.872053146
5.886494338
5.889455127
5.883515569
5.871355212
5.862126326
5.871633214
5.882099398
5.900010363
5.899815714
5.905740975
5.910107791
5.915806852
5.900913236
5.891656592
5.901963519
5.902350218
5.889322448
5.888458416
5.894034478
5.886650394
5.914553623
5.893055593
5.880190341
5.897983495
5.896214976
5.885556196
5.89858672
5.893893776
5.908326904
5.898408874
5.909258609
5.916824634
5.916003044
5.906751919
5.878027885
5.887358756
5.89344004
5.896253931
5.914712572
5.900611677
5.900835305
5.896628101
5.913063729
5.897315428
5.901173208
5.898834313
5.892197283
5.890728323
5.89321318
5.910937725
5.912257859
5.903933997
5.898510304
5.89084065
5.912784744
5.920868526
5.908658
5.894825485
5.88587683
5.88024189
5.900079508
5.894526893
5.896384365
5.914906462
5.912491494
5.905720757
5.898525896
5.894056388
5.922141029
5.921455173
5.908365597
5.887072917
5.893194135
5.911870497
5.910130597
5.894613834
5.89932818
5.88212628
5.898203504
5.92264741
5.915529866
5.897697575
5.917397126
5.908814255
5.922625769
5.927926368
5.928883805
5.927394608
5.904797503
5.878212947
5.890573991
5.88427038
5.870285715
5.872544273
5.868948599
5.882486369
5.884847829
5.891521229
5.902071671
5.918154294
5.937822791
5.932489501
5.925162631
5.919039663
5.899905745
5.912607016
5.908223697
5.925543244
5.893158139
5.893059506
5.893576959
5.891991949
5.887325124
5.884365219
5.901041396
5.916146495
5.902425762
5.8843107
5.873542769
5.874970441
5.874968553
5.873834683
5.86100578
5.861643221
5.874191552
5.873902101
5.878727204
5.878281955
5.916470344
5.918677905
5.885547594
5.887323485
5.898515081
5.89398115
5.901433182
5.904870669
5.905887335
5.884986207
5.893168104
5.89932102
5.898566248
5.903921764
5.914086097
5.91293442
5.915612245
5.917376697
5.910720546
5.924749058
5.90078034
5.888165215
5.88605823
5.894468065
5.907669095
5.902331748
5.897235
5.910989679
5.913874784
5.928894417
5.924908299
5.911534827
5.900601417
5.905068042
5.890960684
5.89504267
5.89357333
5.888683355
5.893921038
5.907700293
5.906500893
5.903976253
5.916653609
5.92506595
5.926321917
5.935941032
5.92005723
5.899536141
5.884050565
5.873751727
5.889809949
5.892451974
5.893759997
5.889726192
5.893118673
5.911146936
5.912244689
5.907802761
5.915106559
5.908627496
5.939912631
5.936961756
5.93966941
5.946023122
5.930936822
5.923891415
5.928584161
5.914703726
5.906892882
5.912317097
5.924272898
5.91212074
5.896515392
5.88503399
5.89591241
5.914757807
5.930688284
5.930260159
5.926643066
5.936693578
5.871181488
5.86634643
5.869044093
5.870020319
5.893086718
5.901416196
5.925662524
5.896847564
5.881889858
5.884780087
5.898241529
5.908120773
5.916168365
5.905736761
5.889790523
5.875290847
5.890393213
5.890054539
5.899444542
5.889127429
5.893702683
5.884558023
5.881992011
5.861128331
5.869582865
5.891219971
5.902546955
5.893746189
5.897992642
5.902518533
5.909003898
5.90752141
5.908778402
5.913899826
5.917814149
5.90500785
5.90963909
5.911572081
5.913394933
5.913713753
5.885180986
5.891206547
5.895977387
5.89162918
5.895479489
5.895955965
5.889051951
5.9153034
5.898112512
5.886128937
5.895720904
5.902352768
5.893986905
5.898504182
5.888597579
5.895641308
5.890420813
5.892904048
5.883416554
5.875808342
5.878817474
5.885355522
5.908024247
5.918161201
5.898480088
5.905458326
5.881857375
5.874859983
5.868296793
5.856537059
5.866613598
5.884692132
5.885101554
5.876611412
5.88036201
5.872515596
5.884148291
5.889114866
5.904320965
5.890883906
5.885512645
5.904636029
5.900781616
5.890630306
5.891065655
5.886712405
5.881087567
5.878507994
5.877718856
5.890128001
5.894825161
5.872273488
5.868853933
5.889797078
5.890383793
5.894253736
5.890613915
5.899005696
5.895907718
5.895624791
5.881583135
5.881448563
5.892291904
5.882377013
5.887224456
5.905275555
5.90822355
5.91818985
5.928658285
5.895812725
5.880586457
5.891335679
5.902640119
5.908003415
5.908640788
5.918893434
5.907864633
5.931193744
5.906220321
5.882881096
5.911972498
5.907105341
5.889487547
5.874691688
5.893735941
5.908598581
5.898240496
5.873721461
5.878365675
5.894602774
5.891029151
5.886418055
5.890489418
5.887594577
5.882471428
5.886415648
5.899059116
5.899203201
5.903221962
5.904186305
5.90715422
5.890670538
5.89777059
5.894892405
5.899205648
5.891597723
5.875265349
5.887196395
5.901174347
5.898970097
5.88019318
5.885035441
5.891294777
5.889267515
5.882588882
5.890366193
5.884105132
5.896641478
5.886803818
5.902658466
5.898686373
5.899893166
5.896991618
5.911041993
5.900248771
5.914547
5.889133207
5.897998975
5.912983532
5.911614281
5.929242518
5.921484586
5.902004808
5.898568381
5.900824648
5.906347569
5.893968515
5.909762855
5.907115417
5.893646209
5.885122801
5.897181361
5.898525037
5.909974566
5.918699998
5.908128698
5.893741742
5.895171783
5.899991898
5.917500788
5.900953109
5.886786615
5.883986914
5.903398321
5.875312694
5.873051527
5.872980377
5.869357266
5.877559875
5.887642872
5.90454196
5.912708229
5.90793846
5.914318686
5.909488076
5.904069514
5.915641239
5.899724572
5.88231815
5.898396367
5.907453629
5.898054221
5.894069974
5.888202465
5.896140683
5.896851969
5.919560491
5.924856197
5.908563422
5.898652426
5.886102674
5.893393144
5.892613146
5.886578549
5.884568618
5.899853202
5.885477801
5.884916967
5.906284539
5.925908907
5.907635674
5.893643092
5.889746822
5.900622342
5.896776788
5.885025912
5.866812699
5.891219697
5.9102588
5.912387262
5.88370924
5.878434172
5.879648046
5.87481831
5.870979773
5.870887605
5.881377497
5.90818825
5.903214375
5.898809599
5.895958074
5.913302384
5.910074898
5.920620435
5.928981692
5.915363338
5.903211379
5.898733107
5.896347232
5.895822346
5.900824575
5.886244789
5.879326807
5.894707234
5.902390302
5.89665838
5.899439371
5.884556026
5.891617893
5.885199125
5.886037248
5.882485504
5.895686169
5.890508723
5.903722935
5.904641257
5.903024325
5.89193809
5.890588113
5.883265137
5.918341098
5.922533199
5.91594427
5.9120346
5.911636833
5.919921574
5.895514597
5.904455376
5.903044988
5.912179829
5.900280071
5.919601208
5.919193497
5.914945107
5.913714838
5.907647247
5.89646271
5.885123107
5.8929327
5.900154381
5.933230429
5.921178258
5.913064499
5.897039761
5.888776328
5.889562637
5.894652579
5.920915483
5.927053607
5.906502397
5.906668803
5.898125912
5.899808578
5.903988472
5.905984341
5.900542035
5.910502147
5.908648399
5.927276121
5.942309935
5.898773033
5.898441618
5.889007999
5.898507195
5.892191437
5.888613159
5.88284608
5.879926024
5.871269313
5.889452976
5.894612853
5.907249745
5.879021731
5.877431483
5.902444108
5.906797594
5.900470249
5.889460945
5.879997127
5.890791
5.908719146
5.884662277
5.901015369
5.886394298
5.893183607
5.888807013
5.877693294
5.903050296
5.890276247
5.891058066
5.884925617
5.893254724
5.89204035
5.903816206
5.912256376
5.925809864
5.91370891
5.915570514
5.906567052
5.908091587
5.903837915
5.906914776
5.904298037
5.895067612
5.899235258
5.908064415
5.907096888
5.901934917
5.91951245
5.941083921
5.926664836
5.904951263
5.89176938
5.894720793
5.902676466
5.879361634
5.877265424
5.866107432
5.872274081
5.893422847
5.879470503
5.87786689
5.887455743
5.906263678
5.910343701
5.883886449
5.887851557
5.902125067
5.897553142
5.878337125
5.875479814
5.875610848
5.893148004
5.891544772
5.89393291
5.905826133
5.895644808
5.892500605
5.881188904
5.869819802
5.918614526
5.905496331
5.895820323
5.874531262
5.868265454
5.90027455
5.917817593
5.905053943
5.883491367
5.893182017
5.89435825
5.904284563
5.894566437
5.884526961
5.894608892
5.895160402
5.905931639
5.901308864
5.929105409
5.91522152
5.90070671
5.883583307
5.874158073
5.875613449
5.880448999
5.884247213
5.869583473
5.893219832
5.873281352
5.885576193
5.893180878
5.886356051
5.888467473
5.891765335
5.886006946
5.873050189
5.874721634
5.879261243
5.87998094
5.907829511
5.886760609
5.897167394
5.891775692
5.883200459
5.868485856
5.871104969
5.874028329
5.889570766
5.882178124
5.865866345
5.874762576
5.903296497
5.904717102
5.888992151
5.8851341
5.890688204
5.884307575
5.889524147
5.889305992
5.897214157
5.890441302
5.893836764
5.890057677
5.900018862
5.884852995
5.887930718
5.885853279
5.88534518
5.888329855
5.889481122
5.87283138
5.876484194
5.900687109
5.905325298
5.925435776
5.926804788
5.903444777
5.898826511
5.899997011
5.894991675
5.891081007
5.901019656
5.914905637
5.905284144
5.913575746
5.911755007
5.916646903
5.915572964
5.881274516
5.899318093
5.908352523
5.932633232
5.911552422
5.906318329
5.895412025
5.885507401
5.90795698
5.901910025
5.891796297
5.882707081
5.913776486
5.907221594
5.912908605
5.907377031
5.922197246
5.920160188
5.925777846
5.90633753
5.890588949
5.873005927
5.878566264
5.887364736
5.921423478
5.900140472
5.899919868
5.906605656
5.914587469
5.918928449
5.923136118
5.902814689
5.899829434
5.912010745
5.915178231
5.909460426
5.918483672
5.90441817
5.89509367
5.893869707
5.900003036
5.901275579
5.923732806
5.913009258
5.905873818
5.904838973
5.90503172
5.902292923
5.892532496
5.895157789
5.900239949
5.903386307
5.92112854
5.924560676
5.91859744
5.892730452
5.867380157
5.879072381
5.880524369
5.873856775
5.868029977
5.867085604
5.877917663
5.902514578
5.896601892
5.902062175
5.901347267
5.926831992
5.919273499
5.905846235
5.895114177
5.917655051
5.882445787
5.883324167
5.885385453
5.91746532
5.891929231
5.889108588
5.878341569
5.899918241
5.906067874
5.912548649
5.924360891
5.955344575
5.960640144
5.931075148
5.921096546
5.918693674
5.922788112
5.921579157
5.897429112
5.88671374
5.873781189
5.876515797
5.90209764
5.895262094
5.920956417
5.923717732
5.919267571
5.909974943
5.909630176
5.912797584
5.912815834
5.893482225
5.866158404
5.888653955
5.903647189
5.908830487
5.937454869
5.932647372
5.89862947
5.893208322
5.913582401
5.914828714
5.908635179
5.893281508
5.890251491
5.89215654
5.905358588
5.906817034
5.907839001
5.918857746
5.910633299
5.90505697
5.921620834
5.929709604
5.923415813
5.911774308
5.901399461
5.920180795
5.926764267
5.912879857
5.908550829
5.902030514
5.897027843
5.896592367
5.899377605
5.899423556
5.90030739
5.883617746
5.905957366
5.90397633
5.897853769
5.900431921
5.89709058
5.889961364
5.891286467
5.888446859
5.880033632
5.902693012
5.899523606
5.912608456
5.911393026
5.915443925
5.949939866
5.95319791
5.92721012
5.910071705
5.898159151
5.910213773
5.909904738
5.918455725
5.900411523
5.879741698
5.901811688
5.900404956
5.88394451
5.879813092
5.88656374
5.904446698
5.916571496
5.906425338
5.886132835
5.894756548
5.904344063
5.889495084
5.907219745
5.911103008
5.916318759
5.89771802
5.8997709
5.903475645
5.898552396
5.907793604
5.929223034
5.908484535
5.900992107
5.906870601
5.897049598
5.890301841
5.903102719
5.8960875
5.913044327
5.908241673
5.899807312
5.922239807
5.901088667
5.908607058
5.896638754
5.902631024
5.910749226
5.897224816
5.903005822
5.892486124
5.903720565
5.890414407
5.886284447
5.903287249
5.90504462
5.918735303
5.914425018
5.914174628
5.8827405
5.871542287
5.882630775
5.886992751
5.88145311
5.877234585
5.881533907
5.864634055
5.8623525
5.885779234
5.894398944
5.890130311
5.882064029
5.876026554
5.888254558
5.874899188
5.88377854
5.880781757
5.894736684
5.890257132
5.914814021
5.917553039
5.913551057
5.9170208
5.928601553
5.898776836
5.89194727
5.91555339
5.907163885
5.916375802
5.910325695
5.898840189
5.888155489
5.891113223
5.883922985
5.908560233
5.890284214
5.899268034
5.886076225
5.90638122
5.909211432
5.900114244
5.87877681
5.896399491
5.905332605
5.890278463
5.892767139
5.910002084
5.919789492
5.921440345
5.896861959
5.900005985
5.882596443
5.879256707
5.873054247
5.879994294
5.882674419
5.874312642
5.882823534
5.887496143
5.875069592
5.876290669
5.890416075
5.900624209
5.890957903
5.886098679
5.873340329
5.884331788
5.904385624
5.920297051
5.93451531
5.907569853
5.90745736
5.896014278
5.884553682
5.872348144
5.866388465
5.884294892
5.86633228
5.870862401
5.924518707
5.918762739
5.911350644
5.908926795
5.906043623
5.91135463
5.900139118
5.893391005
5.899500178
5.880384286
5.884339044
5.890554576
5.89933086
5.882730531
5.896708235
5.917877388
5.924820999
5.915797225
5.904308771
5.902809249
5.890739826
5.877127898
5.871730875
5.867839238
5.883397035
5.885543038
5.896977153
5.915801189
5.916447077
5.913611893
5.883785077
5.861163459
5.873227437
5.89473473
5.897358515
5.894102884
5.884191061
5.881061976
5.880947665
5.891140065
5.895354691
5.889838464
5.880163469
5.903329687
5.894790984
5.894476789
5.915942725
5.912417587
5.923208455
5.900953121
5.886460154
5.879187148
5.879753684
5.897268274
5.907320543
5.891534269
5.883540705
5.867766652
5.8744119
5.871028679
5.903290712
5.907140864
5.915636094
5.89154126
5.888792978
5.903815887
5.898265028
5.908303668
5.906181397
5.918534738
5.917262542
5.909058532
5.920172559
5.907204587
5.904064247
5.910319774
5.90824398
5.905338185
5.917519467
5.920710077
5.937554797
5.923325743
5.916720483
5.938678631
5.937417985
5.916332682
5.904412095
5.903064495
5.902283072
5.908405785
5.905320465
5.906074294
5.90853007
5.913042193
5.905868685
5.910783519
5.92048782
5.936979216
5.961437129
5.935148596
5.887231672
5.889869291
5.883889124
5.871495908
5.888062708
5.918836145
5.905687914
5.88270571
5.882760865
5.879106661
5.880137135
5.882859993
5.894424063
5.907743238
5.914469892
5.921897745
5.923817765
5.917079258
5.928807526
5.911579512
5.886424817
5.873377381
5.890496754
5.87805253
5.876498556
5.868328073
5.881421635
5.88114581
5.883747072
5.889472274
5.887871031
5.867507383
5.904447057
5.926412801
5.92037888
5.9179894
5.909990233
5.88949717
5.878683664
5.869854934
5.889673251
5.903093275
5.903390815
5.901652138
5.892502487
5.891484601
5.899175312
5.901172522
5.915411884
5.893134747
5.885922575
5.886335115
5.877953706
5.866002861
5.885520082
5.880558917
5.877723287
5.875033508
5.888161305
5.899160322
5.899664895
5.907310915
5.915796574
5.911426377
5.911369821
5.912563904
5.912088179
5.914082812
5.900247041
5.892185392
5.878493366
5.903910805
5.924510721
5.909397233
5.901372574
5.902452335
5.916311681
5.898890931
5.884986445
5.884853519
5.903003619
5.908461169
5.8996919
5.91811948
5.904384797
5.895775034
5.879779897
5.862201878
5.853187284
5.867513436
5.880539587
5.885901492
5.894644313
5.899690052
5.904510397
5.901037878
5.912457512
5.888548052
5.887623768
5.890339401
5.890717772
5.892484521
5.90041317
5.892282608
5.908820169
5.905182317
5.919085423
5.933981502
5.900570928
5.893686337
5.895584964
5.901360854
5.888186696
5.882921531
5.879349938
5.865498261
5.874095192
5.863300595
5.873411798
5.884573097
5.914968822
5.907619212
5.900054029
5.89501722
5.912338767
5.914372789
5.902589303
5.906594269
5.905765061
5.900802973
5.894859179
5.894623347
5.879805497
5.885735326
5.91412412
5.912067137
5.910318763
5.897137223
5.88838057
5.901762368
5.894342016
5.897878471
5.886791729
5.865170995
5.868538131
5.886119935
5.911689326
5.923053432
5.903291406
5.889972044
5.867762987
5.856955868
5.872830206
5.89797514
5.896184405
5.889669049
5.880357181
5.876952129
5.891295364
5.896401387
5.893683349
5.909763334
5.910801569
5.894455422
5.892619486
5.915066673
5.907141434
5.893085343
5.896969094
5.911123695
5.918063473
5.921614575
5.907362776
5.893486864
5.885588503
5.876843616
5.893630024
5.897292198
5.895996102
5.890867968
5.901976118
5.909169628
5.919238961
5.910394293
5.910015622
5.909038509
5.906070399
5.897195046
5.888666665
5.87810725
5.909050795
5.904483863
5.906686523
5.907448364
5.908682594
5.904508289
5.889488812
5.872322328
5.883648863
5.902510629
5.890618176
5.87700583
5.888290258
5.899708557
5.905692024
5.895488281
5.909114852
5.909298317
5.908283183
5.894138137
5.894335395
5.895300583
5.891153151
5.896944656
5.899182672
5.897972201
5.888711527
5.904312173
5.914203611
5.916729327
5.906060269
5.901571153
5.897180181
5.893395571
5.884979778
5.870100111
5.890302013
5.89941529
5.887037035
5.879561541
5.905488919
5.903232875
5.877743119
5.881088584
5.876354869
5.901377534
5.911184638
5.916013802
5.909371131
5.885007273
5.880965307
5.881030411
5.875372585
5.905186893
5.905623012
5.898451641
5.879228781
5.877530326
5.896824294
5.89714448
5.885787203
5.883927963
5.900069845
5.88669614
5.886835145
5.890745151
5.887413792
5.884208021
5.891776622
5.895123462
5.872574907
5.882870882
5.888708159
5.878905262
5.89632706
5.889373554
5.903239972
5.885734959
5.864076264
5.870718756
5.887705037
5.902384516
5.9071153
5.874133088
5.86892834
5.879326871
5.890611053
5.88438833
5.883491814
5.879901008
5.90409262
5.897968995
5.896955972
5.895857127
5.875578433
5.893560163
5.916018415
5.903834757
5.904414229
5.900162948
5.882366699
5.890611917
5.902052015
5.908206403
5.888912746
5.890988096
5.915292663
5.916021814
5.901842435
5.900717978
5.90139899
5.902292949
5.898687282
5.887333266
5.893458556
5.895904578
5.885938753
5.888049983
5.885884887
5.879649406
5.87049485
5.868581767
5.873138061
5.866465423
5.862120266
5.880596632
5.889834632
5.876813438
5.904873646
5.923506902
5.893301221
5.897702793
5.885223981
5.891894302
5.892511179
5.883249785
5.889199014
5.902521418
5.892156588
5.878511088
5.887072492
5.890713735
5.871550412
5.876952308
5.897534589
5.904376608
5.889247434
5.89055118
5.882682165
5.877232486
5.894914357
5.914064642
5.898730811
5.890090324
5.879254714
5.873002792
5.879569331
5.892068358
5.87959998
5.86857823
5.884781482
5.892797215
5.891633913
5.890085659
5.864983091
5.854306331
5.872025794
5.872694301
5.893331803
5.897475713
5.904643391
5.897108703
5.908073489
5.910505348
5.905457657
5.906002371
5.908767893
5.910413128
5.91386217
5.92067821
5.897990612
5.883816945
5.885770904
5.877803682
5.85558546
5.861431351
5.880845546
5.892561299
5.904530015
5.915493577
5.885188822
5.891386411
5.910942917
5.888961891
5.913153744
5.907065536
5.91209925
5.901283818
5.889188706
5.888031892
5.900059576
5.903958149
5.876704835
5.884716887
5.879113486
5.887913447
5.883777888
5.890261431
5.899461764
5.890550379
5.907488237
5.906391139
5.899067647
5.897719889
5.898580399
5.89562705
5.900109121
5.903695213
5.907753393
5.886676583
5.880366985
5.866258379
5.858442047
5.894327361
5.888077832
5.903408099
5.897083768
5.888947213
5.903323698
5.922714721
5.907663909
5.908655345
5.917315743
5.919634228
5.934873606
5.920493304
5.902006378
5.878717248
5.878278019
5.875615536
5.872521998
5.888762264
5.908901472
5.890867979
5.8803848
5.856692799
5.875934511
5.907043556
5.913394473
5.91247273
5.905943525
5.914539858
5.915991207
5.904762869
5.9086576
5.903938846
5.91569093
5.935016947
5.916845708
5.907410177
5.898727073
5.887968658
5.885723474
5.887538146
5.866660154
5.889327004
5.897586381
5.901094359
5.907127003
5.899947648
5.885746694
5.883420576
5.885093669
5.889336061
5.889028797
5.896629233
5.91198743
5.899031165
5.909281045
5.902378875
5.899192345
5.902440272
5.888952304
5.880988073
5.899344183
5.908969139
5.900536784
5.874853422
5.882175897
5.890344924
5.91287566
5.930789066
5.922056089
5.926031636
5.901657363
5.885630762
5.87753667
5.893878562
5.900435936
5.895296006
5.896555634
5.895253706
5.897508189
5.908140822
5.888732011
5.887118566
5.894409016
5.904639505
5.906456105
5.907294262
5.903799363
5.900901543
5.882782007
5.87157034
5.891485214
5.908019746
5.911118733
5.897973368
5.903758074
5.905408553
5.909024731
5.883235861
5.874601621
5.866433691
5.883696461
5.888732484
5.909303493
5.897245789
5.866625144
5.880383071
5.887409769
5.88800423
5.884213264
5.865183638
5.868383208
5.90422899
5.908018447
5.899232608
5.895827864
5.875681893
5.868709296
5.893502846
5.908616001
5.902844109
5.884911959
5.873879739
5.871927489
5.87921025
5.893873523
5.891262275
5.872816511
5.882677752
5.882814457
5.886496523
5.877569623
5.890370845
5.882205254
5.892211416
5.892663952
5.89733317
5.907746888
5.898188678
5.901767985
5.903006937
5.8895704
5.887757451
5.880312456
5.868726583
5.869005968
5.8733306
5.887208632
5.882495597
5.8825773
5.878347588
5.907271521
5.906045838
5.906551467
5.908395969
5.896803455
5.903839214
5.905141707
5.893497354
5.869955293
5.887284975
5.895250751
5.892002196
5.889581744
5.87335611
5.868550095
5.879177435
5.879268571
5.880723231
5.889583842
5.901253035
5.897169786
5.88726463
5.867116101
5.876458525
5.900292873
5.923689945
5.919976616
5.909522464
5.903041755
5.897555223
5.898858534
5.895555625
5.892394149
5.881318062
5.883356169
5.886903594
5.894910464
5.913208529
5.914628576
5.901874182
5.890915306
5.895557541
5.910600248
5.906017308
5.909439871
5.916682136
5.93131645
5.903214394
5.886925517
5.890011573
5.903198246
5.878633193
5.862724391
5.857814379
5.87190962
5.876983375
5.877483288
5.886735298
5.892906467
5.907205907
5.912090991
5.901111446
5.892051749
5.883383291
5.87479079
5.884855443
5.884866841
5.890594026
5.87281704
5.879308474
5.880292147
5.893272587
5.896299972
5.882473297
5.888452613
5.872027485
5.90461471
5.904693671
5.901052156
5.898021141
5.896414761
5.88780799
5.881561923
5.893557412
5.883019413
5.895024723
5.880379724
5.868647191
5.880299817
5.873333083
5.882813825
5.888012977
5.86929311
5.863441254
5.861947909
5.891885769
5.881234656
5.883723175
5.886622181
5.888532251
5.898024492
5.894362471
5.887830952
5.891417169
5.890496936
5.892008917
5.876767204
5.884859049
5.890653285
5.907147041
5.906578054
5.903271109
5.876707357
5.866754548
5.871913045
5.88779313
5.898159681
5.909956237
5.896768419
5.892821604
5.883860373
5.898582843
5.910369218
5.911071409
5.900380329
5.897073336
5.900905568
5.897880494
5.909705591
5.887116362
5.912400615
5.890836516
5.882372646
5.88480223
5.879889965
5.884439328
5.880768622
5.87459388
5.883054466
5.896972153
5.907364487
5.900426718
5.903225412
5.910483766
5.904650488
5.91082551
5.885205261
5.884457387
5.882630246
5.887706115
5.885367451
5.875829328
5.901928693
5.907784949
5.901565183
5.887977322
5.92362681
5.904486172
5.899426612
5.905657322
5.89668521
5.886147503
5.880233652
5.8803877
5.891878881
5.905806319
5.891163572
5.903214388
5.914307266
5.886097575
5.895473957
5.892513231
5.890913237
5.895551154
5.912810515
5.92028279
5.884416175
5.88762122
5.88975828
5.877983843
5.870189276
5.876336316
5.867370421
5.857331633
5.870325394
5.884439991
5.881178431
5.881027924
5.866926336
5.869164612
5.884967375
5.894834346
5.893902872
5.904969872
5.904646925
5.90005596
5.926215698
5.930616535
5.953910171
5.937744724
5.912883542
5.928257592
5.92928033
5.916390273
5.905235945
5.909270855
5.891449269
5.875356079
5.872565038
5.870838935
5.884830791
5.888938556
5.902394623
5.905846331
5.905844667
5.91239682
5.879741062
5.882027665
5.87422583
5.890023201
5.919216417
5.903242307
5.892676961
5.874234394
5.890476589
5.883220937
5.87894372
5.880878042
5.896236157
5.888812826
5.891662751
5.898204264
5.897378595
5.899920816
5.899741584
5.884453856
5.882776842
5.897279356
5.903250256
5.899355222
5.900541355
5.891302017
5.89040989
5.889152728
5.888768403
5.888121457
5.902619127
5.902953085
5.892060546
5.883829171
5.880096282
5.881015173
5.876434882
5.87073979
5.880278098
5.868019891
5.886202932
5.878506876
5.880022918
5.892345679
5.899414218
5.88116605
5.880844708
5.884489205
5.886183715
5.883851894
5.894073363
5.88626307
5.894667195
5.889897557
5.883340013
5.887625733
5.899717719
5.911166493
5.907142542
5.902621856
5.883912988
5.879224887
5.88688064
5.897612482
5.902216631
5.901534094
5.888865903
5.88050111
5.881535669
5.898356047
5.905822333
5.893433109
5.895718881
5.878108226
5.882844858
5.874015763
5.876467497
5.89703926
5.898613948
5.895111093
5.87564281
5.883450486
5.889841779
5.893453788
5.886976235
5.888340785
5.880587602
5.887872127
5.90863353
5.898574971
5.883510914
5.860267535
5.872695508
5.90033716
5.900477932
5.893528863
5.905163675
5.872462221
5.861994614
5.873539517
5.894806387
5.905659875
5.888013259
5.887439944
5.888058611
5.882093429
5.895460384
5.910119952
5.896146316
5.879681384
5.876684083
5.889487786
5.898308487
5.890741145
5.864681862
5.864842842
5.8741637
5.914376061
5.921744672
5.903461775
5.877958769
5.888208393
5.904912863
5.902006029
5.902078202
5.910622855
5.904659428
5.899133931
5.906702847
5.909828116
5.908563425
5.931328796
5.923690733
5.927197645
5.925492757
5.891860082
5.874420428
5.868923935
5.873335373
5.877243853
5.873821891
5.892263496
5.912606225
5.913745947
5.884821966
5.888510382
5.904963221
5.903506054
5.892843361
5.886203317
5.88432751
5.8791061
5.909992239
5.908076673
5.90237333
5.90498445
5.88392446
5.878035577
5.871724961
5.879575996
5.895214397
5.889497257
5.897866365
5.879256508
5.897113295
5.893799499
5.901062207
5.909729609
5.887507864
5.874392892
5.879388308
5.881790598
5.872829903
5.865697736
5.86554614
5.86908221
5.88281824
5.887052211
5.877491466
5.882313967
5.879221585
5.883877622
5.871418535
5.892246516
5.890053188
5.888194505
5.898938351
5.891452979
5.90593191
5.887186339
5.884674125
5.88852884
5.884007565
5.890916418
5.901563226
5.888122107
5.891510712
5.915502538
5.926753659
5.903044593
5.87891561
5.87008508
5.881081264
5.882614125
5.881360516
5.885419694
5.883757795
5.873200524
5.886124592
5.887294944
5.905432367
5.90914818
5.880032269
5.884021838
5.878826892
5.878236719
5.894177977
5.912907912
5.895081869
5.865209044
5.889811853
5.892435075
5.89533544
5.890988389
5.897879743
5.883718908
5.875312781
5.865503282
5.861194811
5.87795993
5.89071553
5.903613695
5.910167082
5.917165246
5.908024564
5.887178235
5.869001064
5.87334752
5.891080769
5.906293765
5.889788206
5.890742337
5.882317296
5.879474732
5.897179555
5.904217979
5.899099766
5.899555822
5.908572936
5.895728849
5.898767678
5.876447415
5.863235704
5.877610104
5.895554086
5.915554397
5.919239794
5.917104493
5.883815556
5.870609172
5.889778435
5.895310819
5.902418791
5.916197644
5.909269997
5.894582329
5.906267364
5.884512545
5.860288542
5.889638669
5.894584021
5.889150001
5.899024146
5.888803485
5.88750971
5.885069694
5.885711455
5.912472276
5.919785481
5.919782018
5.894541062
5.91352619
5.91388899
5.895233531
5.908651158
5.909229968
5.913466588
5.913902264
5.90606125
5.874022728
5.895028568
5.910145634
5.912160792
5.914797893
5.930292011
5.916387811
5.900230236
5.881923683
5.872697734
5.877926473
5.919134333
5.935354771
5.924846839
5.916542192
5.900735413
5.897327538
5.893281653
5.907034008
5.879724927
5.880772776
5.89556828
5.913190941
5.91778541
5.923629365
5.93695495
5.938812222
5.945001901
5.943679056
5.937216636
5.926527074
5.908612173
5.897563581
5.868141883
5.868194128
5.871389569
5.874840371
5.880229105
5.89383013
5.903467504
5.900365035
5.90671165
5.884438077
5.875048405
5.880555727
5.881129575
5.880722496
5.878563624
5.884885106
5.897112651
5.902458033
5.859069619
5.875913377
5.885921939
5.888480325
5.885232329
5.905018372
5.90955091
5.924093067
5.926762125
5.92136081
5.906481748
5.930700668
5.933423155
5.920931807
5.904599207
5.886994201
5.88672387
5.875214764
5.878471462
5.863996317
5.891268918
5.884219531
5.896720594
5.905114288
5.902646814
5.882332439
5.890554528
5.885970331
5.860842473
5.865323703
5.880102148
5.889628918
5.891423395
5.91527891
5.913623774
5.913620089
5.906269237
5.898653702
5.879159094
5.887696794
5.892615621
5.890512874
5.885753233
5.898112515
5.90225371
5.904250705
5.895678155
5.888223865
5.903489054
5.903358753
5.917281784
5.928353629
5.881980765
5.872195885
5.887045994
5.891705532
5.878432904
5.893247635
5.897123768
5.884641278
5.904595019
5.902070116
5.876969576
5.860407434
5.85922553
5.852739263
5.890819737
5.900471097
5.898242374
5.90103553
5.900860037
5.880980207
5.872331113
5.873928886
5.868849882
5.886299573
5.888474565
5.895851074
5.899914442
5.898968354
5.904282263
5.883126063
5.881793151
5.876369785
5.88955525
5.902903038
5.909371854
5.901715243
5.909197104
5.894010648
5.88133647
5.880942407
5.875098429
5.883044683
5.873221937
5.87615144
5.885929474
5.874871492
5.907701723
5.915555647
5.91171691
5.900336622
5.885123328
5.89682823
5.904085386
5.89844956
5.908623339
5.911664982
5.90842209
5.915791472
5.916156785
5.909010885
5.894703035
5.898592617
5.903600655
5.903807427
5.881508688
5.901451243
5.906093327
5.908690242
5.907518014
5.896783598
5.893107883
5.893257653
5.900268099
5.915488064
5.899565456
5.886281759
5.882906747
5.887404003
5.893186337