/*--------------------------------*- C++ -*----------------------------------*\
| =========                 |                                                 |
| \\      /  F ield         | OpenFOAM: The Open Source CFD Toolbox           |
|  \\    /   O peration     | Version:  v1706                                 |
|   \\  /    A nd           | Web:      www.OpenFOAM.com                      |
|    \\/     M anipulation  |                                                 |
\*---------------------------------------------------------------------------*/
FoamFile
{
    version     2.0;
    format      ascii;
    class       volScalarField;
    location    "0.02";
    object      mctTimeStepRatio_O2;
}
// * * * * * * * * * * * * * * * * * * * * * * * * * * * * * * * * * * * * * //

dimensions      [0 0 0 0 0 0 0];


internalField   nonuniform List<scalar> 
5120
(
141.0756531
141.3206251
140.5580001
140.3021036
139.6057628
139.6235111
140.6349582
141.5507023
141.5159213
142.7840792
142.7690755
142.3301918
141.8425525
141.5477577
141.608731
141.5508303
141.6886755
141.4489958
140.8881498
140.4928081
141.1197382
140.9287674
140.40362
140.7767002
141.238849
140.5460368
139.2526815
140.3812711
140.6285836
141.0577584
140.8767882
141.2494723
140.773799
140.6248793
140.6682356
141.2569057
141.1717354
141.1411253
141.2725097
141.2865424
140.8247745
140.4743813
140.8779846
140.5536744
139.821263
140.5655128
140.2209691
139.9991587
140.1051554
140.8130493
141.2216179
140.7934061
140.1604552
140.2213391
139.9715106
140.0320293
140.1061076
140.2171124
140.0545724
140.348943
141.625011
140.484697
140.2210402
139.7437576
139.7404255
139.4670665
139.9250828
140.6776051
140.3302217
141.0987078
139.2981303
139.7017669
140.1237521
140.419186
141.5542626
141.1247242
141.1239905
141.211891
140.6178248
140.6872752
141.4940324
142.283055
142.1153133
141.4819232
141.4203559
141.4036313
140.6014229
140.7641591
140.7733836
141.2752556
140.9841867
140.5154233
140.2968875
141.0670799
140.7851784
140.7855749
141.2550262
141.0413245
141.3264158
141.2676787
141.2572883
140.5698403
141.0244662
142.3651262
143.1574165
142.4026312
142.092133
140.6749598
139.9508917
139.6959923
139.1044797
139.9067633
139.7827761
140.0913481
140.6640979
140.4311283
139.9507607
140.2528476
140.8950804
141.0215643
142.1979537
141.5658858
141.539157
140.5551936
140.3123933
140.2713641
140.0163414
140.3050354
140.6754225
140.0568836
140.9512281
140.5436495
141.2173167
140.6144809
140.5885033
140.8693959
140.7457558
140.6008904
141.7340825
141.7328262
141.2156345
140.990723
141.662244
141.7766505
141.4384128
140.5643715
139.3374148
139.8791161
139.8627158
140.521617
140.9890996
141.7463273
141.8156187
141.5372166
141.8303638
141.1616549
141.3713074
140.5046896
141.0008418
140.7785062
140.2924564
140.721452
140.7887742
140.4283216
140.1468984
140.3419231
140.7277239
140.9338382
140.5672831
140.311937
140.3773223
139.7456373
139.5004849
139.2964383
138.980345
140.5238172
139.7526955
140.0001176
140.5016785
140.2771657
140.7797417
140.3144859
140.1451126
140.3561976
140.7365006
140.8305541
142.0004759
141.8092785
141.5663169
141.564658
140.7937938
141.4122472
140.6114176
139.9928694
140.3337141
139.7773863
140.3516059
140.377001
140.9271598
141.1025458
140.7657797
140.8586967
141.3233905
141.7135334
141.6353118
141.6419614
141.6477604
140.8302131
140.7029077
140.3692508
140.1302959
139.9010875
141.0769098
141.8009353
141.6972969
140.8551481
140.6653299
140.8936469
140.5275274
141.1817795
141.2750008
141.6696637
140.7538256
140.4482169
140.4295796
139.9831273
140.2027753
141.4734342
141.3339367
141.7059357
141.0264828
141.8648615
141.6981999
141.0658737
141.0192494
141.2548497
141.3650826
141.7846525
141.7847139
141.0359343
140.7875895
140.6961349
140.6689088
140.9504134
141.1841709
141.4039589
141.6358939
141.7199636
141.8113018
140.8772581
141.1155674
141.4335616
141.6486663
142.1753517
142.1428849
142.2096017
141.9591984
142.1756032
140.5638741
140.5391791
141.0302331
141.4941819
140.9953229
140.6354442
140.6370737
140.651436
140.5573255
140.9422912
140.9752722
141.0435853
140.503148
140.4958073
139.6337895
139.8332765
139.3359719
139.9085867
140.5720368
140.7156062
141.1480673
141.7180301
141.2570855
141.7449404
142.1194031
141.5245328
141.8901379
142.772795
142.0681406
141.3215539
140.912027
140.6825474
140.3770943
140.5815161
140.6568881
140.4128661
141.2468445
141.8979907
141.3837579
140.8963117
141.0958927
140.4217264
141.0679919
140.455753
140.8397315
141.1838978
141.0281034
141.2588334
141.1252802
141.0954868
141.322678
141.2855929
142.1900417
141.1714638
140.7349968
140.5372672
140.8480259
141.1483145
141.9651351
141.4641316
141.3606765
141.6018684
141.4136387
141.2895295
141.6041474
141.4848302
140.8916998
140.9173606
141.8227575
141.5921125
140.5469122
140.1023549
141.1354554
141.2493405
141.3249312
141.7076223
141.7684817
141.1358261
141.2161259
141.5726184
141.8602119
142.2708736
138.7631145
138.1793664
137.829485
138.1573003
139.4685083
139.9350715
140.1814893
139.1537892
140.0123831
140.6977416
140.0735659
140.3569275
139.9338874
139.718496
139.4222185
138.8098406
139.3833096
139.1165102
138.8467907
139.4106322
140.6497385
141.2132158
141.3452604
140.9877558
141.4843631
141.6716492
141.2583829
141.2878221
140.8648357
139.8021711
139.7789149
140.3950341
140.8306524
141.5913242
140.8471523
141.3093399
140.6764907
140.9375344
140.755867
140.654731
141.1945317
140.9537293
140.9215941
141.253552
141.1356153
140.4456401
140.475121
140.7046572
141.7249692
140.8835823
141.9633131
142.7617497
141.9529645
141.0613236
141.7615513
141.8082064
141.3341906
141.4392797
142.5801834
141.6769245
139.9035144
140.223997
140.5275894
140.7757485
141.0078982
140.1180708
139.8091295
139.3258107
139.9587374
141.2541387
141.6305124
141.127053
140.7938002
141.3048381
141.351959
141.7946747
142.0471318
141.8581565
140.9111293
140.4804213
140.1995044
140.4296735
141.5644131
141.0457905
140.4981141
140.8941186
141.06357
141.1785309
140.6627159
140.8995199
140.156304
139.7553946
140.2129894
139.3731212
139.779743
140.3520625
139.8878972
140.4001364
140.0323652
139.306676
139.6065885
139.726763
138.2301883
137.7553717
138.9221598
139.4145084
139.8348322
139.5117432
140.158756
140.3798714
140.0355633
139.4766172
139.4874733
140.7276367
140.436512
140.6973578
141.5455205
141.295584
140.5133106
139.8718141
139.7372413
139.4393577
139.4619377
139.9435081
139.8549781
139.4709122
139.5613955
139.8741301
140.153233
140.0925327
140.0290754
140.780031
141.1957326
140.7197595
140.2799256
140.8729221
140.6602312
140.4368935
140.3099988
140.2979771
140.0097556
140.2077807
139.3204083
139.6189214
140.0599874
140.3301132
140.109131
140.7546151
141.4772617
140.6021682
140.4134875
140.1643199
139.7670667
140.2833045
139.9251169
139.5138862
138.8898162
139.262054
139.2737141
139.9614398
141.7743964
141.6526601
141.4963208
142.6922512
142.5248003
142.3608995
141.0051592
141.2055545
141.2362516
142.2495221
141.9461201
141.4851109
140.9750404
142.0242927
141.6046375
141.6513686
141.1714029
140.7688063
140.6046955
140.3223342
141.0300198
140.6059285
139.7657028
140.0148196
140.3108772
140.2751227
140.6929071
140.6617255
140.2264354
141.3300871
142.2564054
142.0741878
141.5026413
140.3803185
140.1281904
140.7529437
141.7619811
141.6985765
141.7961004
141.185759
141.3390885
141.9435063
141.3831674
140.9034287
141.2663419
141.1981047
140.9236618
140.4973129
141.2206896
141.8351876
141.8469818
141.087522
140.94359
141.1378109
140.7558414
141.127674
140.7946378
140.9594616
141.4242265
141.9759902
141.2165244
140.5484938
140.3385134
140.002599
140.3454344
140.080267
140.2123286
140.5590168
141.0424076
140.2910631
141.0435037
140.3666213
141.1601167
141.4294815
141.8563856
141.9833869
142.1449717
142.3251185
141.8911331
141.7382233
140.7479179
140.5038087
140.5152905
141.1594482
141.1470755
140.9463755
141.0238967
140.2756445
140.7668401
140.5600428
139.8517947
139.7971068
140.683545
140.9392297
141.6266491
141.7585364
141.0318436
140.9587217
140.6610932
139.8171829
141.9488904
141.2796469
140.8014912
141.2677881
140.9947869
140.9637641
140.3154082
140.6736792
140.832539
141.462042
141.568237
141.6719312
141.4874608
142.272296
142.6309128
141.8863815
141.6110378
140.8749831
141.2127817
141.890864
140.3998971
140.3578538
140.7487047
140.7644437
140.9274832
140.6716357
141.0381932
140.6125046
140.4664133
140.7166812
140.9115999
140.7746246
140.7170088
140.0899221
140.1736908
140.9217613
140.8228461
140.9610986
140.5913045
140.2897361
140.2694112
140.0023786
140.0682156
141.4165642
140.8627734
140.4967147
139.4997187
139.4689025
140.0669079
141.2070791
141.1744413
141.2078937
141.0005347
140.360387
141.5006661
141.8583797
142.6615165
141.6167028
140.606025
140.8485067
140.7765396
140.4903988
141.3629196
141.0267299
141.2100127
141.3746826
141.4803446
141.9194228
141.1906098
140.9604886
140.5913461
140.6540749
140.7492765
141.0443019
141.5162615
141.3169774
140.7850684
139.972461
140.4976957
140.3379521
141.2697597
141.4780304
140.9165596
139.9585826
140.4526624
140.8266545
141.0959629
141.003803
141.8509677
142.4402811
141.7795044
141.4813678
140.494864
140.2828759
140.3551406
140.5219751
140.3560733
140.5277005
140.6636181
141.2134362
141.032145
141.9484688
141.8509029
142.1630319
142.1067267
140.9353385
141.6495522
142.1083278
141.6846191
140.6886695
140.3640548
140.9157762
141.7454837
141.2343134
141.2283831
141.3713766
140.9545274
140.6615794
140.3115637
140.0965431
141.7292994
141.1514623
141.2905733
141.3944825
140.8027221
141.5469357
141.9699922
142.0658657
140.9676375
140.2493266
140.2301671
140.6974498
140.8796516
140.5099119
140.7167422
139.8245949
140.3702686
141.1507698
141.8944013
141.7483125
141.932305
141.0234422
140.0568741
139.7421236
139.6365903
140.081661
139.4700084
140.1615849
140.1835354
141.0501693
141.3166774
141.2076443
140.9613417
141.2583684
141.0436185
140.8652434
140.5485266
140.6095929
140.5187374
141.9378148
141.1416841
141.0695746
141.9627137
141.8371126
141.3808141
140.7361989
140.2040174
140.4678619
139.6388086
139.4627054
140.0535703
141.635802
141.5594847
140.983208
140.7115148
141.5010273
141.1322309
142.0378239
141.6318421
140.9715225
140.7122444
141.1830219
140.4459539
140.5821215
140.2826002
140.3799072
140.3546974
139.5114035
140.0015516
139.5797061
139.3765902
139.7005254
139.2853616
140.2146772
141.3016487
140.7707459
140.3820256
140.0245135
140.1464064
140.5105311
139.040056
139.4041307
139.5466992
138.9910802
139.4402683
139.8392691
139.7709563
139.6773297
138.2529542
139.062165
139.1885385
139.5385516
138.8825587
138.3586761
138.2231524
138.5969807
139.4834243
139.186506
139.7078824
139.2061762
139.6807915
139.6321031
139.8704526
139.9233816
139.9973897
140.7749199
141.2243667
141.1181331
141.3367141
140.7364755
140.524378
141.0214268
141.9060083
140.8992737
139.9898618
139.368181
139.0566235
140.1773581
139.6443391
139.7883853
141.2831297
141.9078874
141.821415
141.6195834
141.105592
140.5031786
139.7040515
139.2477831
139.1295214
139.1182369
139.8327591
140.0318926
140.3677238
140.2918168
140.76588
140.9041006
140.6630621
140.3880201
140.7128617
140.7760752
140.7409632
140.9189367
141.1061093
140.8238657
140.3805909
141.9176079
141.9428128
141.6403893
141.676008
141.0584931
140.7697941
141.8759121
141.2025666
141.3295892
140.7096711
140.5228605
139.8296483
139.5752956
139.7100584
140.3575528
140.4162828
141.4248534
140.5793658
141.3210682
140.5559681
140.656146
140.0878677
139.7049511
139.5798437
140.6912795
140.3553542
141.0903929
141.7514075
140.5751255
140.9425594
140.8001866
141.2209641
142.0161403
142.0688063
141.6026904
138.8728056
139.416032
139.5504206
140.2145905
141.0966919
141.2922938
141.0557423
140.4991011
140.199247
140.5443635
141.2967887
140.6182721
139.998595
140.4518701
140.3314537
140.3197221
141.0852208
139.9667527
138.9678105
139.3184223
141.0224598
140.9739354
141.1611839
140.4667949
140.1828914
139.91153
140.0417762
140.6971095
140.9841085
142.0422543
141.1082651
141.2486084
141.5094241
141.1225525
141.0376843
140.2102064
140.5399218
141.1856528
141.4295935
140.993773
140.8145211
141.5268016
140.3918665
140.2596858
140.760901
140.7767388
140.8675767
141.3080583
141.7888597
141.9553598
141.3023488
141.7625821
141.8477671
141.4729147
141.0700969
141.4768477
141.0503926
141.5614329
141.0975785
141.418171
141.3155447
141.7474354
141.3018827
140.5823839
140.1618197
139.7924275
139.6849644
139.7276805
140.113562
139.7757647
140.0171512
139.8264674
140.4726262
141.0322274
140.2903609
140.5128723
140.1537013
141.16285
142.1545473
141.4209043
142.1301406
141.5445219
140.7096991
140.1483321
140.6400711
141.0757242
141.8650916
141.1865649
140.6339114
140.9058941
141.6429395
141.5465512
141.9788254
140.7437502
140.6715832
140.7674865
140.9636725
141.8843741
142.2194761
142.6186143
140.5455467
141.3155023
141.3470711
142.3867948
141.6558978
141.9047783
141.059017
139.8156895
140.6270636
140.8677578
141.3041828
141.3474785
141.0715598
141.0583941
141.0292768
141.1389906
140.9190185
141.2237787
141.3499151
141.1759283
140.5212565
140.6313586
140.6364708
141.0696163
141.2533307
141.7645425
142.0085194
141.7463188
141.4387957
142.3734381
142.1264906
142.1783282
141.4501811
140.7580011
140.9410745
140.7251561
141.5546992
141.0132466
141.1373994
140.8970593
142.1398714
142.086824
142.049207
142.1260008
141.9224309
140.9754381
140.9143497
140.3758298
140.7649393
140.3656845
139.9983594
140.1446212
140.192844
140.2753144
140.3673583
141.1701303
141.3295639
142.4083008
141.6682578
141.8374295
140.3889707
140.778267
140.6013556
140.7638086
141.5160545
141.5811063
141.6327236
141.615859
141.9337425
140.5591734
140.4791831
140.9892452
141.0177641
140.7729902
140.6492408
140.9412748
141.0058189
140.6097095
140.0104138
139.6298054
141.6285777
141.3007296
141.1827507
141.3691527
140.6421379
140.4586218
139.925352
139.8402757
140.5259306
141.456238
141.952852
141.4946868
141.5903961
141.9746079
142.7852448
142.5477227
141.6725447
141.3471479
141.2501213
141.4565147
139.7462028
139.3791159
140.54033
140.7846503
140.6481607
139.8361879
140.6516563
140.9735411
140.7566445
140.3454005
140.59604
140.8255106
141.2495573
140.6686222
140.7544261
140.6447816
140.7891459
140.7654959
140.4492644
140.0511011
140.1606505
139.8613346
139.5611088
139.4164217
139.7608056
139.980765
139.868217
139.9079492
139.9912406
139.8244196
139.412626
138.9690688
139.3345326
140.0508087
140.4111732
140.3710351
140.9665782
140.2081265
139.7710647
140.1512063
140.6864427
141.2343829
141.788917
141.2617591
140.9176624
140.9565393
142.028079
142.2892104
142.2865527
141.1878193
140.2322903
139.8181944
139.3637058
140.0856131
141.0986156
141.4222368
141.1281693
140.1871113
140.03266
139.5489738
141.2307828
141.2119344
140.3992236
140.1262025
139.9833854
140.054481
139.4393373
139.3552206
139.6638973
140.1758205
140.872781
140.4439154
140.3393388
140.8709571
140.8560084
141.2308109
141.1306989
141.1030356
141.2956299
141.7565069
141.0735133
140.6420137
139.9548059
139.9976575
139.6836542
139.225331
138.9791706
138.7058129
139.4084191
139.96136
140.7955837
140.6370145
140.6124004
140.0743024
139.9890083
140.0848674
141.2064856
141.4535121
142.2391725
141.9817028
140.8446311
141.2890101
139.9786168
140.5501512
140.0156405
140.3406155
140.5099148
139.8190302
140.0933772
139.9207835
139.6602185
140.4991245
140.995291
141.5079326
140.9686445
141.4718318
141.1610128
141.0099272
141.1810073
140.7133661
140.9699688
139.9103145
140.9579216
141.1105759
141.1207729
141.2436733
141.2952896
140.492419
140.6735861
140.3437122
140.0602312
138.5160666
139.6780345
141.0754911
141.0762781
141.1174956
140.7503568
140.4446823
140.8460221
140.4494626
141.8677053
141.3500972
140.8002379
140.2453741
140.2465484
140.945905
142.3248261
142.4492616
141.4536388
141.4082592
141.924513
142.1506305
142.2217437
141.1097132
141.4378889
141.9057028
141.7827496
141.685619
142.2414916
142.3250409
142.6134662
142.5567073
143.6593519
144.248326
143.4000771
142.5389499
142.011947
141.1041115
140.7176619
140.0662768
139.4863354
140.823959
140.6152853
140.2269716
140.6996673
140.4450425
140.7444374
141.309831
141.0425393
141.7436445
140.3645226
140.5527364
140.7855095
141.9029759
141.6114263
141.5079412
141.273298
141.3952502
141.0491957
141.0091822
140.8129558
140.3112791
140.6312789
140.7268197
140.8833994
140.1768184
140.8705472
139.8343521
139.4887103
139.7207364
140.7005722
141.7082241
141.6371211
141.1277316
141.2025847
141.0812711
141.1262036
141.9155668
140.5888192
139.7365168
139.887274
140.4510239
140.9669752
141.3845033
141.0810601
140.7522886
139.9502276
139.3534457
139.5390337
139.9957031
141.9042647
141.987264
141.5218315
141.3644832
141.7713357
141.1753929
141.134357
141.1066755
141.8867677
141.7555337
140.9513674
140.9292546
140.3488464
139.6999669
140.415517
141.1272687
141.3601043
141.413508
141.6881332
142.2857485
141.2619913
140.773131
141.1286094
140.8940558
140.7495357
141.6216312
142.4595489
142.5528639
141.4695675
141.375479
140.8988259
140.874335
142.5914098
142.8442218
142.2780949
142.0203749
141.5428478
142.134833
141.4308552
140.9945934
139.6125188
140.0697007
139.8764366
140.0887339
139.782714
140.3949137
140.3068286
140.0052299
140.5257647
141.176022
142.0662915
142.4452434
141.6034154
140.7203833
139.8372027
139.7041019
140.1315143
140.6582664
140.4113436
141.0493472
140.0534395
139.9304292
140.9213489
141.2249543
140.9506476
141.0448341
140.5242333
141.3180238
141.3919976
141.5191499
141.8151585
141.7554341
140.9761613
140.2108859
140.0021838
139.7371661
138.752248
138.6892883
139.4977518
140.5138439
139.929354
139.3750919
140.9352953
140.2866417
139.9466879
140.7025591
141.1100523
141.5726342
141.8956996
141.1925847
141.8310495
141.0717143
140.9311479
141.5118524
140.4936975
139.824136
140.7683804
140.5618776
140.6718416
140.2915414
140.8334877
141.2682434
141.7290996
140.6313371
140.600691
140.4016453
141.0343116
140.9500044
139.7910243
140.4641845
139.8118835
139.5248548
139.5050472
139.6793855
139.6149562
139.6518663
139.5532904
140.2995926
139.8963395
139.9713143
140.4585471
140.4828456
139.2657962
140.987023
141.2754369
140.3727186
140.3401657
138.949528
139.8663217
139.5907735
139.8777703
140.55405
140.8670658
139.926537
139.2559836
139.6089065
140.0291109
139.8444682
140.7493176
140.9600897
140.4993704
140.5720791
140.6533378
140.5506068
141.3527708
141.6225003
142.3002632
141.3462865
141.6152218
142.2824818
141.6811182
141.7401956
141.5732992
140.3709357
140.1442191
140.6161325
140.3083986
140.4218902
141.2766379
140.9765209
141.2668177
140.9169337
141.0006156
140.823582
139.7164173
139.6689257
140.4017508
139.9993356
139.9154761
138.9110166
138.4860984
138.4871837
139.7758111
139.4057976
139.4323109
139.700758
141.3294009
141.4801633
140.7873155
139.9508091
141.0774753
140.9207219
140.744903
140.2600862
141.5206553
141.4820736
142.1850316
142.4148827
142.4022843
141.527057
140.7235592
140.609709
141.2478173
141.1695373
141.4375439
141.3956034
141.3198864
141.2120604
140.8494359
141.3684113
141.3374635
141.4363268
141.4913349
140.9996982
140.3137683
140.5088487
140.7717264
140.5607268
139.9402318
140.0718039
141.1407623
140.9387746
140.1696609
140.9125306
142.3734997
142.0806889
142.3519027
141.5739224
140.9972285
140.452539
141.9533439
142.8111278
142.4737587
142.1583753
141.2643703
140.802246
140.9250356
141.7332993
141.9051696
141.3693325
142.5374168
142.6425294
142.8656645
142.2457769
140.996897
139.9472384
139.8768544
140.1807886
140.9733758
141.8704563
140.0371561
139.8394435
141.1680866
140.8263817
141.4940359
141.8596231
142.3691896
142.5154101
141.9143908
142.0697407
141.6634231
140.8367577
140.3146342
139.7695153
139.1967442
139.9835625
140.3124477
140.2806701
140.6063798
140.8470061
140.9382992
140.5478046
141.3846114
140.8509351
140.8657166
141.4745381
141.6411944
141.4893238
141.753622
141.5147377
141.2195931
141.582702
141.3168071
141.9188732
141.8951593
142.1078354
141.1599899
141.0274171
140.6260399
140.3837998
141.3409724
141.8176934
141.1101201
141.026466
140.5510668
139.8923284
140.2606021
140.2372719
140.6417211
141.0554155
141.3635968
140.5995418
140.2984214
141.3078563
141.0120168
141.7591684
141.9145758
140.9759685
140.5590347
141.4845035
140.2831409
139.902486
140.9217828
141.3614832
142.1804415
141.5787416
141.3665635
140.9593941
140.2478693
140.5723084
140.533565
140.6783013
141.4511709
140.1954188
139.6675781
140.3076694
141.2387678
141.8850476
141.8686143
141.0082988
141.502544
141.2731451
140.7423338
141.2548963
141.6157057
141.2683512
141.9334232
142.1250095
141.2218003
140.7473048
140.8024975
139.2841663
139.6497401
139.8036936
140.3547551
139.8537819
139.882631
140.4054102
140.8118404
141.2213908
139.4839221
139.6867745
140.3407894
139.555616
139.093139
139.977478
139.3953139
138.7215873
140.0475093
140.4014774
140.6426206
140.7305259
139.9785874
140.7033984
141.1601948
141.3938939
140.2301153
139.3036985
139.4012806
139.7221246
139.5724832
140.0275782
139.2233475
139.7308492
138.6479822
138.9671215
139.4800836
140.6881681
140.4968547
141.1660965
140.8914342
140.542583
140.5074993
141.5377255
140.3023919
140.0298965
139.6935316
139.7871417
139.2310386
139.2124087
140.084774
140.0916814
139.7280163
139.7226412
139.8124813
140.3592847
140.2639314
138.6087236
138.7012727
138.5798838
138.2490074
137.9994579
138.2811581
138.4204796
138.6233116
139.2177379
139.8195875
138.9978992
138.8010093
139.3390683
140.6029192
141.13009
140.4712655
140.5793652
139.9298169
139.9094182
140.2470013
140.0178643
140.266281
140.3652119
139.9647215
139.9422099
141.0520646
140.6058665
140.9862899
140.5829029
140.3070166
140.0812691
140.2302738
140.3373794
140.9389914
140.9549599
141.0678515
140.9025697
140.7817801
141.5902673
141.1352117
140.6447478
140.7442748
140.7347225
140.5572132
140.7121796
140.9315401
140.8006046
140.9043397
141.1426903
140.780084
141.3401186
141.2134467
141.289078
141.4244983
140.9005207
140.5090468
140.6035239
141.2087953
140.965488
140.8693161
141.4742199
141.1199364
142.4983669
142.9462602
141.8666512
141.1648766
141.2561057
142.0140714
141.9887026
141.3480694
141.1503867
141.417387
141.4878349
138.9212864
139.3817782
140.118232
140.500553
140.3044775
140.8892591
140.539396
141.2010388
141.949683
142.0860103
141.9144697
141.8617674
141.1024141
140.869207
140.5845938
141.1936805
141.1624155
140.9133349
139.8092304
139.5647329
140.8442604
141.5292776
141.5512697
141.401924
141.2974476
141.4292854
141.0421204
139.9832845
139.68753
140.4986114
141.5817411
141.142545
140.2402654
140.1986944
140.1985682
140.2807083
139.5348359
139.2085764
139.4536249
140.6743241
140.360243
140.584498
141.6232615
141.9559884
142.1539948
141.6861484
141.3643725
141.3821515
140.882943
141.3326868
141.3086377
141.5930078
141.3790094
141.2889003
141.3427471
140.3511647
140.7281149
140.7712639
140.0956919
139.7969106
141.9538308
141.173142
141.4495718
141.7528589
141.6715485
141.83689
141.7503542
141.8705804
142.0880657
141.5767634
141.2083495
140.549617
140.9429927
140.621287
141.1069675
141.7696383
141.0006784
140.195682
141.1360602
141.7238528
139.5467861
139.9552937
139.9072695
140.4027025
139.969174
139.665143
139.5161482
140.000401
140.1819338
140.1558595
139.9428063
140.9621219
140.7471739
141.3345823
140.7381424
140.9518145
139.7281364
139.4143444
140.0632349
140.0096575
141.2949746
142.0688207
141.8272559
141.6211281
140.9165929
141.1327809
140.5148525
140.6124181
141.1571277
140.9439633
141.357337
140.9546587
141.0371721
140.2341766
140.6511765
140.0047875
140.088537
140.1522047
140.4596556
140.8674123
140.7488508
139.5754489
140.4513291
140.4287964
141.0990496
142.2229949
142.0929098
141.6484586
141.5082059
141.3072647
141.0883293
140.7555258
140.5751293
141.2656674
141.3956214
140.9862177
142.0785507
142.4387612
142.2709965
142.1799946
140.5497828
141.4334224
141.4899298
141.880749
140.8277942
141.3972021
140.5774716
140.538971
140.5550484
140.7737174
140.4104012
141.3848058
141.4849333
140.4740228
141.0445136
140.7711195
140.3140347
140.7981799
141.0119257
140.5256841
140.9591316
140.5511452
141.2590694
140.6829991
140.2554068
140.5724944
141.3355002
141.1772194
140.9700356
141.8540978
141.7786912
141.0800306
140.1924239
140.1298485
139.887435
140.634098
139.7999762
139.9053074
139.7244693
140.9319047
140.0591722
140.0634131
140.3635139
140.4200196
140.6957545
141.2315394
141.014033
141.3533146
140.8283208
141.6277563
141.499106
141.2348942
140.7814072
140.4688348
140.3595055
140.4403545
140.9800375
141.1243381
140.619221
140.5964924
141.7783937
142.3807688
141.5742736
141.2156012
142.4369895
141.2874927
141.2262972
140.9498178
141.5094374
141.4218703
141.3164465
141.6363909
142.0325615
142.0443474
142.1320593
141.8106775
141.9926883
142.7951218
142.2775173
142.1648639
141.2776715
140.6247796
141.0231615
140.8750252
141.085432
141.3317425
141.4488511
141.2642908
141.245924
140.6416943
141.2044968
141.0040758
140.0152212
140.445196
140.1312305
140.6020438
140.553862
141.1696443
141.0107093
140.7081414
140.1901182
140.0678254
140.5703095
140.3835043
141.2050254
140.8734644
141.6750106
141.5777228
141.0818719
141.0342174
140.3343375
139.9520713
140.4068952
140.2969819
140.8768742
141.2560934
141.8465889
142.6349554
141.8549169
140.8201611
139.6876983
139.880423
139.9013151
141.2169426
141.445197
141.6779924
141.0145094
140.7406204
140.9828505
141.0786363
141.5385098
141.2146742
141.3090351
141.3833869
141.6824389
140.5099369
140.2342008
140.6621947
139.9371325
140.5666182
141.1284108
141.7590675
141.5271643
140.3455098
140.4487698
140.2208093
140.7851478
141.1883046
141.7653464
141.6445314
140.493718
140.0863811
140.0461226
140.1915968
140.3132636
140.97191
140.9262524
140.0448789
140.0802324
140.3787597
141.2077676
141.5476677
141.362675
141.4941371
141.2286815
140.5327068
140.3028237
141.7868392
140.8539139
140.2410485
140.35288
141.6282517
142.0771171
142.5183159
141.3397528
141.4458975
141.3670109
142.4998261
142.0121874
141.882889
140.5028871
140.3513058
139.6544124
140.201459
139.8351981
139.6618531
139.9678312
139.6862803
140.6359929
141.0888577
140.4499477
140.748086
140.7120349
141.4019294
141.8240283
140.7936476
139.9882715
140.3311233
140.7169613
141.038835
140.8107512
141.1553945
141.3723838
142.0502253
141.7414367
141.752891
142.4384975
142.1292442
141.6446885
141.7761926
141.7134071
141.0240782
141.6123606
141.2545587
141.5459534
141.843027
141.5086349
140.8108343
140.7252824
140.8730618
141.9105034
141.0627332
141.3882672
140.9976314
140.3076253
140.7771358
140.4742993
141.4023106
140.6933325
140.491254
140.6017386
141.8517276
140.7165225
140.1516124
140.750865
140.7910985
140.9603357
141.7346668
142.1629872
141.0592307
140.7489436
140.5887341
140.9864726
141.5927698
141.4598043
140.9847671
140.7712705
140.8498324
140.0101208
139.5889014
139.9295056
139.8181315
140.8180543
141.3557989
141.5203392
141.2127151
140.8251887
141.7230376
141.9131118
142.1242881
139.0954996
139.1411114
138.9049831
138.769682
139.1877738
140.309422
140.3570855
139.9714818
140.7737787
140.5779107
140.9431495
140.4299098
139.3487237
139.9238776
139.9577891
140.6126873
140.9276432
141.7398879
140.5648748
139.3782813
140.6712173
140.9102238
141.2992615
141.7660775
141.7250326
140.7094644
140.9744055
140.5527029
141.5124165
142.3410301
141.8255291
142.4627982
142.7687643
142.5840471
142.1333635
141.7873492
141.5734165
141.8402745
142.1939157
142.0094831
141.416606
140.6961709
139.706987
139.8946192
140.7927072
140.4577467
141.1337197
141.0315255
140.4195867
140.1886201
140.3017397
139.6552987
139.063454
140.4216737
140.249281
141.1881041
140.968424
141.2348662
140.0828712
140.664939
141.6428681
141.3497329
141.3920215
141.078415
141.3029174
140.3605382
140.8242265
140.3792337
139.9879112
141.4230449
141.7199393
141.9168441
141.6410978
141.5332177
141.6838392
141.1725345
141.3280805
141.5644013
142.0306905
142.4294858
141.7353271
141.5832878
141.9027707
140.8846534
141.2693129
141.2660804
140.8675407
141.1962596
140.2839778
139.2808236
139.1413918
139.5703278
139.6272857
140.6162813
141.2535288
141.026276
140.5177767
141.1966905
141.1988115
141.3545606
142.5218823
142.7645942
142.6116661
143.2916484
142.4500406
142.0293854
140.8656996
141.2425364
140.0982161
139.9260606
140.0717397
140.1432699
139.8764088
140.8122738
141.5028157
141.9867852
142.0329092
142.3208523
141.8305666
141.7065191
141.0346347
140.7283493
140.4297243
140.2635501
140.1677224
140.5125019
141.8716528
142.4317149
142.3563535
142.1510853
142.1977486
141.9935392
141.6340669
142.0102244
141.3495161
141.3016388
141.019235
140.6165637
140.7959248
141.6047864
141.1126586
141.8770645
141.6716789
141.6117974
141.4368954
141.3285561
141.063407
141.0438199
141.0822194
141.5375224
140.4806835
141.3315773
141.4125569
141.5181847
141.566407
141.9484929
141.8314336
141.6464779
142.2452164
140.9987502
141.0136856
140.4440147
141.1497824
141.1871643
141.9041635
141.6017388
141.6616748
141.1102927
141.045158
140.9769911
141.2065852
141.6801822
140.9908785
141.6466737
141.5603157
140.603749
140.5074643
140.7492869
139.4186642
140.2227367
141.1403776
141.2264614
141.0618989
141.3989103
140.8235411
141.9120264
141.2681674
141.3552391
142.1011212
142.0594041
142.6332683
142.4947865
141.2457505
140.7131034
140.3122735
141.0249902
140.7307621
141.6786578
141.3664398
141.5437389
141.7711817
142.2258185
142.0996488
141.3497296
141.124515
140.9034001
140.9950806
141.2313002
141.842657
141.8843424
141.4263078
140.7942825
139.6446542
139.5174141
140.2177603
140.4571454
140.6035166
140.6765942
140.5803384
141.5117826
141.613092
141.0129678
140.4982609
140.3219655
140.3176887
141.0627185
141.7516016
141.8060275
141.2904608
141.144301
141.1917279
141.7876973
142.3926921
141.9160705
142.3613065
142.251349
141.811966
142.2707681
142.6805424
142.3714377
141.5919963
141.4729298
140.8702211
140.5695286
141.0678759
140.1849451
140.368864
140.5632636
140.7454493
140.4151382
140.2681479
139.6759524
139.7851033
140.2701439
140.928272
141.0522498
140.9210926
141.604061
141.6851437
141.7646703
140.0879075
140.1050041
140.929912
140.8945234
141.346298
142.1044087
141.4138465
141.7061658