/*--------------------------------*- C++ -*----------------------------------*\
| =========                 |                                                 |
| \\      /  F ield         | OpenFOAM: The Open Source CFD Toolbox           |
|  \\    /   O peration     | Version:  v1706                                 |
|   \\  /    A nd           | Web:      www.OpenFOAM.com                      |
|    \\/     M anipulation  |                                                 |
\*---------------------------------------------------------------------------*/
FoamFile
{
    version     2.0;
    format      ascii;
    class       volScalarField;
    location    "0.02";
    object      meanCollisionTime_N2;
}
// * * * * * * * * * * * * * * * * * * * * * * * * * * * * * * * * * * * * * //

dimensions      [0 0 1 0 0 0 0];


internalField   nonuniform List<scalar> 
5120
(
3.543667685e-05
3.546081422e-05
3.547851004e-05
3.546455832e-05
3.548844796e-05
3.543244367e-05
3.545416329e-05
3.54593323e-05
3.558411117e-05
3.557505982e-05
3.559023307e-05
3.560735387e-05
3.562792693e-05
3.56337537e-05
3.556291951e-05
3.559371997e-05
3.568282468e-05
3.556404449e-05
3.558130387e-05
3.554776376e-05
3.572824887e-05
3.576128254e-05
3.566624635e-05
3.560973088e-05
3.56757952e-05
3.58390003e-05
3.582431438e-05
3.577540447e-05
3.565121224e-05
3.575289326e-05
3.555724971e-05
3.555069194e-05
3.57201212e-05
3.568884127e-05
3.573463418e-05
3.561502134e-05
3.571974877e-05
3.55912412e-05
3.570092593e-05
3.565147595e-05
3.576224455e-05
3.573067729e-05
3.578355293e-05
3.571806669e-05
3.561897324e-05
3.560490494e-05
3.570976441e-05
3.564679989e-05
3.564748138e-05
3.561209863e-05
3.564281749e-05
3.557898395e-05
3.557323494e-05
3.559972556e-05
3.551093704e-05
3.560860478e-05
3.558811926e-05
3.57179242e-05
3.570524038e-05
3.573883423e-05
3.56823684e-05
3.576501424e-05
3.569040388e-05
3.564756773e-05
3.570707634e-05
3.574755955e-05
3.571084988e-05
3.570132298e-05
3.570732309e-05
3.572061992e-05
3.572497862e-05
3.576175712e-05
3.581284524e-05
3.592599572e-05
3.587692071e-05
3.589894899e-05
3.58629533e-05
3.567162508e-05
3.572611519e-05
3.579469582e-05
3.572352176e-05
3.567969593e-05
3.560627594e-05
3.573799224e-05
3.572622659e-05
3.579563336e-05
3.585358588e-05
3.586891035e-05
3.587800444e-05
3.586214381e-05
3.582823201e-05
3.565640748e-05
3.57775053e-05
3.566562551e-05
3.566362702e-05
3.578708056e-05
3.577946739e-05
3.578777916e-05
3.578870965e-05
3.572064902e-05
3.585227398e-05
3.580648352e-05
3.573810938e-05
3.584166743e-05
3.55727083e-05
3.562976662e-05
3.579932877e-05
3.592017858e-05
3.600643091e-05
3.58956425e-05
3.592129921e-05
3.57836325e-05
3.582724215e-05
3.568612709e-05
3.579257065e-05
3.577764629e-05
3.583427979e-05
3.583324469e-05
3.585525313e-05
3.583124439e-05
3.589683483e-05
3.600908365e-05
3.594780479e-05
3.580806961e-05
3.586811945e-05
3.585207193e-05
3.58780858e-05
3.582965701e-05
3.583480078e-05
3.592885303e-05
3.598210457e-05
3.579613844e-05
3.573863987e-05
3.575319254e-05
3.580307505e-05
3.575957395e-05
3.581377557e-05
3.584782915e-05
3.579856951e-05
3.597238499e-05
3.585388498e-05
3.584084461e-05
3.589416958e-05
3.592419615e-05
3.597102787e-05
3.600969036e-05
3.60771822e-05
3.603894963e-05
3.606422645e-05
3.595999157e-05
3.595546693e-05
3.603408226e-05
3.594580611e-05
3.574191276e-05
3.566335654e-05
3.567737359e-05
3.566789476e-05
3.571351031e-05
3.576360284e-05
3.576329062e-05
3.571880035e-05
3.580460824e-05
3.575181527e-05
3.588805765e-05
3.590095119e-05
3.575337356e-05
3.577713001e-05
3.587837562e-05
3.581592306e-05
3.589781717e-05
3.578835018e-05
3.579243982e-05
3.581930436e-05
3.584367912e-05
3.585399503e-05
3.576763425e-05
3.563184143e-05
3.568414002e-05
3.570075756e-05
3.5616568e-05
3.581538076e-05
3.578930202e-05
3.580796249e-05
3.590389899e-05
3.582203821e-05
3.589997576e-05
3.563598658e-05
3.559637357e-05
3.565186004e-05
3.587889352e-05
3.607865142e-05
3.594066128e-05
3.586773186e-05
3.582664891e-05
3.576037977e-05
3.593112003e-05
3.601716824e-05
3.600609864e-05
3.582224116e-05
3.575410608e-05
3.560898121e-05
3.547495038e-05
3.552198334e-05
3.544644865e-05
3.5600592e-05
3.569092468e-05
3.579851669e-05
3.586259326e-05
3.593839677e-05
3.590499277e-05
3.573976569e-05
3.564145482e-05
3.565258873e-05
3.560839697e-05
3.574232282e-05
3.579503666e-05
3.56574616e-05
3.570101742e-05
3.577284824e-05
3.575360634e-05
3.582445494e-05
3.589290801e-05
3.581939773e-05
3.581584704e-05
3.573955443e-05
3.568256644e-05
3.560033735e-05
3.567827556e-05
3.573715241e-05
3.574786447e-05
3.576583787e-05
3.567634924e-05
3.574476375e-05
3.573423034e-05
3.565705435e-05
3.571208728e-05
3.571199332e-05
3.571370493e-05
3.580015985e-05
3.587289537e-05
3.568272265e-05
3.567704328e-05
3.564306951e-05
3.571550727e-05
3.576392317e-05
3.576770282e-05
3.575169845e-05
3.585345039e-05
3.580025796e-05
3.582773378e-05
3.579764688e-05
3.568325654e-05
3.569571908e-05
3.560014651e-05
3.556348682e-05
3.564747489e-05
3.560033397e-05
3.564656421e-05
3.561136237e-05
3.560536361e-05
3.548884682e-05
3.554337373e-05
3.561127693e-05
3.558127319e-05
3.564438752e-05
3.575350889e-05
3.581072541e-05
3.569518854e-05
3.570353592e-05
3.563254696e-05
3.553585615e-05
3.555007626e-05
3.546702729e-05
3.548601545e-05
3.556405431e-05
3.558971426e-05
3.56806378e-05
3.565239526e-05
3.563418052e-05
3.57665718e-05
3.579011755e-05
3.580553976e-05
3.587161462e-05
3.588695702e-05
3.578919878e-05
3.576459917e-05
3.58431541e-05
3.584640748e-05
3.563472274e-05
3.563762362e-05
3.550586403e-05
3.563757722e-05
3.559257014e-05
3.568356949e-05
3.570557161e-05
3.594041627e-05
3.583845894e-05
3.567059606e-05
3.556158266e-05
3.562571586e-05
3.563273549e-05
3.560992826e-05
3.566571255e-05
3.567797797e-05
3.577442935e-05
3.572789166e-05
3.560974043e-05
3.552524614e-05
3.548384961e-05
3.555210837e-05
3.578169539e-05
3.577532171e-05
3.579734078e-05
3.579569755e-05
3.582713286e-05
3.568470848e-05
3.558201019e-05
3.560378465e-05
3.567087368e-05
3.567025818e-05
3.564407064e-05
3.557882869e-05
3.567600454e-05
3.567394671e-05
3.558467511e-05
3.550700827e-05
3.560412218e-05
3.568646006e-05
3.569269358e-05
3.554546786e-05
3.541654185e-05
3.559627113e-05
3.574786755e-05
3.576725094e-05
3.560559088e-05
3.565277284e-05
3.574934893e-05
3.566525475e-05
3.571112054e-05
3.573707792e-05
3.56973558e-05
3.576432912e-05
3.572644186e-05
3.57184818e-05
3.569211254e-05
3.558016391e-05
3.572849831e-05
3.571895593e-05
3.577602011e-05
3.571437971e-05
3.580864306e-05
3.568987405e-05
3.556678703e-05
3.561455122e-05
3.577898284e-05
3.579178508e-05
3.572642566e-05
3.581240655e-05
3.583114928e-05
3.577896862e-05
3.570050473e-05
3.554188624e-05
3.560950789e-05
3.562527924e-05
3.562939923e-05
3.567926761e-05
3.565925166e-05
3.567624269e-05
3.567014703e-05
3.580608065e-05
3.581823938e-05
3.576698271e-05
3.565253432e-05
3.567098131e-05
3.56635999e-05
3.555783351e-05
3.551951202e-05
3.554391483e-05
3.561443888e-05
3.559893339e-05
3.585753133e-05
3.582485604e-05
3.578754858e-05
3.582660342e-05
3.585592494e-05
3.567666851e-05
3.563868628e-05
3.562736736e-05
3.566405399e-05
3.568366259e-05
3.57494676e-05
3.58613612e-05
3.581369604e-05
3.582447416e-05
3.579760992e-05
3.57508193e-05
3.570671927e-05
3.590338146e-05
3.58213208e-05
3.587748846e-05
3.56412896e-05
3.563966499e-05
3.570259992e-05
3.572741625e-05
3.569421553e-05
3.558099751e-05
3.553083927e-05
3.543159582e-05
3.556053538e-05
3.555524493e-05
3.563914531e-05
3.56205564e-05
3.566963154e-05
3.572932368e-05
3.590870551e-05
3.581984199e-05
3.589239254e-05
3.59077988e-05
3.583369944e-05
3.569031737e-05
3.572642624e-05
3.570786964e-05
3.568008509e-05
3.568513985e-05
3.574989566e-05
3.570692039e-05
3.560071606e-05
3.554552239e-05
3.560464777e-05
3.565936124e-05
3.559483777e-05
3.583046568e-05
3.579123833e-05
3.572974586e-05
3.576577245e-05
3.580967179e-05
3.577402917e-05
3.582004873e-05
3.577353208e-05
3.579185421e-05
3.578182829e-05
3.583668082e-05
3.576322941e-05
3.582659205e-05
3.574655907e-05
3.568970121e-05
3.563989149e-05
3.566977387e-05
3.557969382e-05
3.561622286e-05
3.560231425e-05
3.573055699e-05
3.581164426e-05
3.573757934e-05
3.575907796e-05
3.569855893e-05
3.568763677e-05
3.571722095e-05
3.570736695e-05
3.575602804e-05
3.558522725e-05
3.561297048e-05
3.560195994e-05
3.556447054e-05
3.561424701e-05
3.566884994e-05
3.570414969e-05
3.582397166e-05
3.5866151e-05
3.578883949e-05
3.570702611e-05
3.574068354e-05
3.561113863e-05
3.566620409e-05
3.568766299e-05
3.560100876e-05
3.569871202e-05
3.574391656e-05
3.579163155e-05
3.558842204e-05
3.575563958e-05
3.570984641e-05
3.580752033e-05
3.578449661e-05
3.587142826e-05
3.588271252e-05
3.583104651e-05
3.575439515e-05
3.586792643e-05
3.583024288e-05
3.588977754e-05
3.586831706e-05
3.579647396e-05
3.574540513e-05
3.561996042e-05
3.559756045e-05
3.563057313e-05
3.560434015e-05
3.559567095e-05
3.564534931e-05
3.596925059e-05
3.593005839e-05
3.591562371e-05
3.583180587e-05
3.571434831e-05
3.56918628e-05
3.581691752e-05
3.575818477e-05
3.570709059e-05
3.571236741e-05
3.563222332e-05
3.568063457e-05
3.578241329e-05
3.586027144e-05
3.600884751e-05
3.595282625e-05
3.589995582e-05
3.586480167e-05
3.584084918e-05
3.594260545e-05
3.571662563e-05
3.578840076e-05
3.57709379e-05
3.565131318e-05
3.567979006e-05
3.569203656e-05
3.577265546e-05
3.562099818e-05
3.567524294e-05
3.567056676e-05
3.58388436e-05
3.604047838e-05
3.594319321e-05
3.592832335e-05
3.583376988e-05
3.57987047e-05
3.576388364e-05
3.573557105e-05
3.56887825e-05
3.568453973e-05
3.564021005e-05
3.569807991e-05
3.558457667e-05
3.562383008e-05
3.567264421e-05
3.563255723e-05
3.55664302e-05
3.557455711e-05
3.566344029e-05
3.565093303e-05
3.564901996e-05
3.555738356e-05
3.573065053e-05
3.580939706e-05
3.584652624e-05
3.575868176e-05
3.572865871e-05
3.568609865e-05
3.559914207e-05
3.563261044e-05
3.558630109e-05
3.560804952e-05
3.554345383e-05
3.559579189e-05
3.560685123e-05
3.568001628e-05
3.579452852e-05
3.565456514e-05
3.549397246e-05
3.544337475e-05
3.554494457e-05
3.562158529e-05
3.563248798e-05
3.562703281e-05
3.559318467e-05
3.56883336e-05
3.568841967e-05
3.56129843e-05
3.568153756e-05
3.565940263e-05
3.587443351e-05
3.57793334e-05
3.579427377e-05
3.570157342e-05
3.56558621e-05
3.571422602e-05
3.570514681e-05
3.576512306e-05
3.579999577e-05
3.568071337e-05
3.569360655e-05
3.566519355e-05
3.57148163e-05
3.569213469e-05
3.561908377e-05
3.567077238e-05
3.563677096e-05
3.566286029e-05
3.577908843e-05
3.572873283e-05
3.562580764e-05
3.560837421e-05
3.554812853e-05
3.553780187e-05
3.550368112e-05
3.546445589e-05
3.555240417e-05
3.553961433e-05
3.567534099e-05
3.572846162e-05
3.573624627e-05
3.561116745e-05
3.549289141e-05
3.565239273e-05
3.570039931e-05
3.557891409e-05
3.563400249e-05
3.558242889e-05
3.56266718e-05
3.568482941e-05
3.552675866e-05
3.565429976e-05
3.568676804e-05
3.569921197e-05
3.568632868e-05
3.572465805e-05
3.572398235e-05
3.555628397e-05
3.563685828e-05
3.574393758e-05
3.566931424e-05
3.564731473e-05
3.571944983e-05
3.56563884e-05
3.562425727e-05
3.569707884e-05
3.567681128e-05
3.568084976e-05
3.557596421e-05
3.548609752e-05
3.582700103e-05
3.584558047e-05
3.576444557e-05
3.57855533e-05
3.574838304e-05
3.562676351e-05
3.561591881e-05
3.572303099e-05
3.574835217e-05
3.564234287e-05
3.561192519e-05
3.563500261e-05
3.54908917e-05
3.552457332e-05
3.550999803e-05
3.567901367e-05
3.565778419e-05
3.567788091e-05
3.577252335e-05
3.575109958e-05
3.582138898e-05
3.58520988e-05
3.582645386e-05
3.582275465e-05
3.584904152e-05
3.58886499e-05
3.582776025e-05
3.587394369e-05
3.588473341e-05
3.581983424e-05
3.570579432e-05
3.561732458e-05
3.56932267e-05
3.566562416e-05
3.561772042e-05
3.569367556e-05
3.577740801e-05
3.573290238e-05
3.574062591e-05
3.570194745e-05
3.567277782e-05
3.563671304e-05
3.564029423e-05
3.558843478e-05
3.55913715e-05
3.566151747e-05
3.562298033e-05
3.584287447e-05
3.587905104e-05
3.587569308e-05
3.597741112e-05
3.596724869e-05
3.601101748e-05
3.591127486e-05
3.607075946e-05
3.58779038e-05
3.576683762e-05
3.572036211e-05
3.567441549e-05
3.568679837e-05
3.587083827e-05
3.569481357e-05
3.570826626e-05
3.569421224e-05
3.562315935e-05
3.569078739e-05
3.572796654e-05
3.569940591e-05
3.571681199e-05
3.578431685e-05
3.569436891e-05
3.577510554e-05
3.591390358e-05
3.572615477e-05
3.566191527e-05
3.570232262e-05
3.576862176e-05
3.579755537e-05
3.585662531e-05
3.589175654e-05
3.572708794e-05
3.570192757e-05
3.574595894e-05
3.572043147e-05
3.57795079e-05
3.567214573e-05
3.575644605e-05
3.573152748e-05
3.563236803e-05
3.551570011e-05
3.549158907e-05
3.556756619e-05
3.565737593e-05
3.569588846e-05
3.582637182e-05
3.595545758e-05
3.58600117e-05
3.580911354e-05
3.573636033e-05
3.565336377e-05
3.576030553e-05
3.567786298e-05
3.560188676e-05
3.573152189e-05
3.567468078e-05
3.569955373e-05
3.576094817e-05
3.580372899e-05
3.577371391e-05
3.579957218e-05
3.583242169e-05
3.574660895e-05
3.574076875e-05
3.571950207e-05
3.571502807e-05
3.569753913e-05
3.57339699e-05
3.5648854e-05
3.580682552e-05
3.584727134e-05
3.584478392e-05
3.590140359e-05
3.594527701e-05
3.58044112e-05
3.567724683e-05
3.580925643e-05
3.583584641e-05
3.565493206e-05
3.557106537e-05
3.553726047e-05
3.554025487e-05
3.559056607e-05
3.566251778e-05
3.579345158e-05
3.58946525e-05
3.580192441e-05
3.572512926e-05
3.56809504e-05
3.575656095e-05
3.581993555e-05
3.583394069e-05
3.566837597e-05
3.573184095e-05
3.578240499e-05
3.587826332e-05
3.583524322e-05
3.559259197e-05
3.569082719e-05
3.574854557e-05
3.570742946e-05
3.569601904e-05
3.571815837e-05
3.584521121e-05
3.594344851e-05
3.580893577e-05
3.584192791e-05
3.587832166e-05
3.603797878e-05
3.597119904e-05
3.596407397e-05
3.570123985e-05
3.571957346e-05
3.577727537e-05
3.579227161e-05
3.575353373e-05
3.576193015e-05
3.580819118e-05
3.586540448e-05
3.576961511e-05
3.575248621e-05
3.572831428e-05
3.567953249e-05
3.572362039e-05
3.570676738e-05
3.587732036e-05
3.580942054e-05
3.57394925e-05
3.570266067e-05
3.565676925e-05
3.569513076e-05
3.601302212e-05
3.60440528e-05
3.588150603e-05
3.587273426e-05
3.58635076e-05
3.586559149e-05
3.588225863e-05
3.594048342e-05
3.589380009e-05
3.578374952e-05
3.576779669e-05
3.576425834e-05
3.57478524e-05
3.575176508e-05
3.569189594e-05
3.575518272e-05
3.583420244e-05
3.580192279e-05
3.583985918e-05
3.592874457e-05
3.567637934e-05
3.550539761e-05
3.567666096e-05
3.580570012e-05
3.578895248e-05
3.565237246e-05
3.559001736e-05
3.56108041e-05
3.560779353e-05
3.571258819e-05
3.566348841e-05
3.572296784e-05
3.571947816e-05
3.575093868e-05
3.573343444e-05
3.567046569e-05
3.566484468e-05
3.576013858e-05
3.577143459e-05
3.570476032e-05
3.571874331e-05
3.565278819e-05
3.562495372e-05
3.551225895e-05
3.554455423e-05
3.565071183e-05
3.57071241e-05
3.566694053e-05
3.567174647e-05
3.559590863e-05
3.556338944e-05
3.563398558e-05
3.568336617e-05
3.551947819e-05
3.557764518e-05
3.567924629e-05
3.572512295e-05
3.573286128e-05
3.572102519e-05
3.568967244e-05
3.570473826e-05
3.568326855e-05
3.57508998e-05
3.5763001e-05
3.560878704e-05
3.550417147e-05
3.55824448e-05
3.548402722e-05
3.556513518e-05
3.565401299e-05
3.561226754e-05
3.546227521e-05
3.550867143e-05
3.561904822e-05
3.564891692e-05
3.57120138e-05
3.569493989e-05
3.567204345e-05
3.575773748e-05
3.574733553e-05
3.566879723e-05
3.573466574e-05
3.573598781e-05
3.589442207e-05
3.577973448e-05
3.576753555e-05
3.574528939e-05
3.567131214e-05
3.564112794e-05
3.558736584e-05
3.562688365e-05
3.56125443e-05
3.55521769e-05
3.550183765e-05
3.548621314e-05
3.537636077e-05
3.538347687e-05
3.544220477e-05
3.55334412e-05
3.568938164e-05
3.560147156e-05
3.569106764e-05
3.554250628e-05
3.564195265e-05
3.562273987e-05
3.553633584e-05
3.536470782e-05
3.550513553e-05
3.568525941e-05
3.557138367e-05
3.566550189e-05
3.567385195e-05
3.577548965e-05
3.561158962e-05
3.548133749e-05
3.556445123e-05
3.548289353e-05
3.557276804e-05
3.549657218e-05
3.554566571e-05
3.568833461e-05
3.555345585e-05
3.562695937e-05
3.54800645e-05
3.561265027e-05
3.567880581e-05
3.573151314e-05
3.566094363e-05
3.555301258e-05
3.560755625e-05
3.568180623e-05
3.561565062e-05
3.561365793e-05
3.565435625e-05
3.576714452e-05
3.568586983e-05
3.567883701e-05
3.567056765e-05
3.569244479e-05
3.572146504e-05
3.573834652e-05
3.574424262e-05
3.58108826e-05
3.589918968e-05
3.5768519e-05
3.585073251e-05
3.577780657e-05
3.564786516e-05
3.557374198e-05
3.556514689e-05
3.545306216e-05
3.537970726e-05
3.533102193e-05
3.538761706e-05
3.543861778e-05
3.543186663e-05
3.552832291e-05
3.559202258e-05
3.56488168e-05
3.575120986e-05
3.580743158e-05
3.584989586e-05
3.579289981e-05
3.583103873e-05
3.57472064e-05
3.578102171e-05
3.568279194e-05
3.566897382e-05
3.567549474e-05
3.577432695e-05
3.576713291e-05
3.582233807e-05
3.584645693e-05
3.565136509e-05
3.567609618e-05
3.563222911e-05
3.557461753e-05
3.546327712e-05
3.554383483e-05
3.567206225e-05
3.55870228e-05
3.568924186e-05
3.564483873e-05
3.573795344e-05
3.577292877e-05
3.579904419e-05
3.588261874e-05
3.583473133e-05
3.588635036e-05
3.587720366e-05
3.5876515e-05
3.592766709e-05
3.589322448e-05
3.595570351e-05
3.587006594e-05
3.576908519e-05
3.583267145e-05
3.579784542e-05
3.568063105e-05
3.546224557e-05
3.56118037e-05
3.561535693e-05
3.559058021e-05
3.569262257e-05
3.575475557e-05
3.579782129e-05
3.592214932e-05
3.597555643e-05
3.582835421e-05
3.584239313e-05
3.576472013e-05
3.580934668e-05
3.585909933e-05
3.585570375e-05
3.596240103e-05
3.606772155e-05
3.592526167e-05
3.582952111e-05
3.587536991e-05
3.581096867e-05
3.578344354e-05
3.573530052e-05
3.578058999e-05
3.576405204e-05
3.575227302e-05
3.584691159e-05
3.575263027e-05
3.588214157e-05
3.592233307e-05
3.590157406e-05
3.597188527e-05
3.583302897e-05
3.569186786e-05
3.567461594e-05
3.557271975e-05
3.554299218e-05
3.566427695e-05
3.571437387e-05
3.561531045e-05
3.567305078e-05
3.576671834e-05
3.592796018e-05
3.583941069e-05
3.577384048e-05
3.584510974e-05
3.59407469e-05
3.598627573e-05
3.587087191e-05
3.593708073e-05
3.591950172e-05
3.592048345e-05
3.587639711e-05
3.573827414e-05
3.562629467e-05
3.566000401e-05
3.572835747e-05
3.568774177e-05
3.570230549e-05
3.579776877e-05
3.57613009e-05
3.575547027e-05
3.578452583e-05
3.591300441e-05
3.596923044e-05
3.588664938e-05
3.578858504e-05
3.564193199e-05
3.567595347e-05
3.576820029e-05
3.577741844e-05
3.572121569e-05
3.572344896e-05
3.578137595e-05
3.578408675e-05
3.569560952e-05
3.574641676e-05
3.587507844e-05
3.586413063e-05
3.576844786e-05
3.574764498e-05
3.581692792e-05
3.584847992e-05
3.577955576e-05
3.572573876e-05
3.573757742e-05
3.577440639e-05
3.5839746e-05
3.574326446e-05
3.582091685e-05
3.592467271e-05
3.582681799e-05
3.580500321e-05
3.582696317e-05
3.581173098e-05
3.583161896e-05
3.57600665e-05
3.588015661e-05
3.583447765e-05
3.577267779e-05
3.578273057e-05
3.564288121e-05
3.569381968e-05
3.563720503e-05
3.559070175e-05
3.554075328e-05
3.562212709e-05
3.570576081e-05
3.579197282e-05
3.580031553e-05
3.571708829e-05
3.581621225e-05
3.57256149e-05
3.573365667e-05
3.579048159e-05
3.569729653e-05
3.573600733e-05
3.578878357e-05
3.561955842e-05
3.559865661e-05
3.546839742e-05
3.565721558e-05
3.552204629e-05
3.558933992e-05
3.568751651e-05
3.575819902e-05
3.595728617e-05
3.590571702e-05
3.577178392e-05
3.583117532e-05
3.577852674e-05
3.588552436e-05
3.597052637e-05
3.593690768e-05
3.58606015e-05
3.576356767e-05
3.563918914e-05
3.550150316e-05
3.550201299e-05
3.55078849e-05
3.558967074e-05
3.588134993e-05
3.593915113e-05
3.598565304e-05
3.596567336e-05
3.586025135e-05
3.569124539e-05
3.566299171e-05
3.572060905e-05
3.564080618e-05
3.563710476e-05
3.569591706e-05
3.563803921e-05
3.553188733e-05
3.555143298e-05
3.561664565e-05
3.573485138e-05
3.581792393e-05
3.572995777e-05
3.587593469e-05
3.589084875e-05
3.573685728e-05
3.583451596e-05
3.58398015e-05
3.572565007e-05
3.57834359e-05
3.589080456e-05
3.579145328e-05
3.574015221e-05
3.581595327e-05
3.578535665e-05
3.570922123e-05
3.558891185e-05
3.565194663e-05
3.574319245e-05
3.577144904e-05
3.577721431e-05
3.58023795e-05
3.566788656e-05
3.567826087e-05
3.565508204e-05
3.559469621e-05
3.566418943e-05
3.564313459e-05
3.568305915e-05
3.582249994e-05
3.590578887e-05
3.579882058e-05
3.568426673e-05
3.56778039e-05
3.552370381e-05
3.565948178e-05
3.591953641e-05
3.582907227e-05
3.580687236e-05
3.570782085e-05
3.581184097e-05
3.584052963e-05
3.575548715e-05
3.561860697e-05
3.56157988e-05
3.559439186e-05
3.55699971e-05
3.555941882e-05
3.541141897e-05
3.558339211e-05
3.559903009e-05
3.575692529e-05
3.586067299e-05
3.575029611e-05
3.588245879e-05
3.590023254e-05
3.578519762e-05
3.575592653e-05
3.577970012e-05
3.578978093e-05
3.565971654e-05
3.564978476e-05
3.56905845e-05
3.572804398e-05
3.563192041e-05
3.566200897e-05
3.550245022e-05
3.56052131e-05
3.568219691e-05
3.566808927e-05
3.56577521e-05
3.576734631e-05
3.569357555e-05
3.572949889e-05
3.56593914e-05
3.560161159e-05
3.558794016e-05
3.558776789e-05
3.557179767e-05
3.564194383e-05
3.572342517e-05
3.57952814e-05
3.569426099e-05
3.560274169e-05
3.550471757e-05
3.56954239e-05
3.591200195e-05
3.590072175e-05
3.591660051e-05
3.576657789e-05
3.57111005e-05
3.578075122e-05
3.564898164e-05
3.56955421e-05
3.569652905e-05
3.569217579e-05
3.569398636e-05
3.567691786e-05
3.564185961e-05
3.561565614e-05
3.554525653e-05
3.555400155e-05
3.562811586e-05
3.566344011e-05
3.56735487e-05
3.556255592e-05
3.539835174e-05
3.553437827e-05
3.557919209e-05
3.564253136e-05
3.567669419e-05
3.558103423e-05
3.555296569e-05
3.5613313e-05
3.572250879e-05
3.581450041e-05
3.593874775e-05
3.590862033e-05
3.57657688e-05
3.576903307e-05
3.561556223e-05
3.566650361e-05
3.567772396e-05
3.572119379e-05
3.568404329e-05
3.557217294e-05
3.562577091e-05
3.562190981e-05
3.564762658e-05
3.580580568e-05
3.59212256e-05
3.593209929e-05
3.581741808e-05
3.580821288e-05
3.568896542e-05
3.571780926e-05
3.564572025e-05
3.563713542e-05
3.563216134e-05
3.566637187e-05
3.577449938e-05
3.580769622e-05
3.56870919e-05
3.562722306e-05
3.557212762e-05
3.584541287e-05
3.58499788e-05
3.597305888e-05
3.58671851e-05
3.581982201e-05
3.572783158e-05
3.572720034e-05
3.582310576e-05
3.585185736e-05
3.588887479e-05
3.580656967e-05
3.579833115e-05
3.580471717e-05
3.563958558e-05
3.555919078e-05
3.560241598e-05
3.575339381e-05
3.588528177e-05
3.593495509e-05
3.590256723e-05
3.593141484e-05
3.587088129e-05
3.58519304e-05
3.590253613e-05
3.578412902e-05
3.579067599e-05
3.577548341e-05
3.578238801e-05
3.585844867e-05
3.584836811e-05
3.579361695e-05
3.581821641e-05
3.568331342e-05
3.581299908e-05
3.583631675e-05
3.588561564e-05
3.59383688e-05
3.589523094e-05
3.58835085e-05
3.585562737e-05
3.577321383e-05
3.583668961e-05
3.588978044e-05
3.588781629e-05
3.572413521e-05
3.572402706e-05
3.574304504e-05
3.58096528e-05
3.577049267e-05
3.577857724e-05
3.573806412e-05
3.578653746e-05
3.590887636e-05
3.596371944e-05
3.606890423e-05
3.59288832e-05
3.577043858e-05
3.581800136e-05
3.57129774e-05
3.579452911e-05
3.576200129e-05
3.575435203e-05
3.583626164e-05
3.581274099e-05
3.597045793e-05
3.592686078e-05
3.587425334e-05
3.59126121e-05
3.593301865e-05
3.59109326e-05
3.586600919e-05
3.577788904e-05
3.573157531e-05
3.579152855e-05
3.570883196e-05
3.578886564e-05
3.583395207e-05
3.585596897e-05
3.583093459e-05
3.583805353e-05
3.584798288e-05
3.583203209e-05
3.56998703e-05
3.565229895e-05
3.57587397e-05
3.572758886e-05
3.582028887e-05
3.576836802e-05
3.56454199e-05
3.578524686e-05
3.587672133e-05
3.584548577e-05
3.588099286e-05
3.594460377e-05
3.592090736e-05
3.589239124e-05
3.573453358e-05
3.565864374e-05
3.579279359e-05
3.580728584e-05
3.567025863e-05
3.565571785e-05
3.574242183e-05
3.563871877e-05
3.56457879e-05
3.568347042e-05
3.5726614e-05
3.572849912e-05
3.576744309e-05
3.571795996e-05
3.56893177e-05
3.574832574e-05
3.579784984e-05
3.581674272e-05
3.587541071e-05
3.575913821e-05
3.570133395e-05
3.577597591e-05
3.574285014e-05
3.568060922e-05
3.577731844e-05
3.568830306e-05
3.569610186e-05
3.58640627e-05
3.578339768e-05
3.581040588e-05
3.584144358e-05
3.582694632e-05
3.577787622e-05
3.591278009e-05
3.59484564e-05
3.586559605e-05
3.568281167e-05
3.570670509e-05
3.565167357e-05
3.565823045e-05
3.56992313e-05
3.575161438e-05
3.575241263e-05
3.585401653e-05
3.569369959e-05
3.576859412e-05
3.577791492e-05
3.591186281e-05
3.588491789e-05
3.58434512e-05
3.586187368e-05
3.591596402e-05
3.577149082e-05
3.588844177e-05
3.566621019e-05
3.569287213e-05
3.580487055e-05
3.573872624e-05
3.580469942e-05
3.569465271e-05
3.567696532e-05
3.572084674e-05
3.573334407e-05
3.569936852e-05
3.559347508e-05
3.558480107e-05
3.562857865e-05
3.557101169e-05
3.565821478e-05
3.572276999e-05
3.562662459e-05
3.551776606e-05
3.553976561e-05
3.561085682e-05
3.585037146e-05
3.593344055e-05
3.603382779e-05
3.600495898e-05
3.587677206e-05
3.571651112e-05
3.563536244e-05
3.568626975e-05
3.56778469e-05
3.561771256e-05
3.596142621e-05
3.595568276e-05
3.594168672e-05
3.587935034e-05
3.57371325e-05
3.57869363e-05
3.577058039e-05
3.588344126e-05
3.590055836e-05
3.578356105e-05
3.579293228e-05
3.585836064e-05
3.58335978e-05
3.574504819e-05
3.567093972e-05
3.574965135e-05
3.589277187e-05
3.60939479e-05
3.597339046e-05
3.591688757e-05
3.589381437e-05
3.578361807e-05
3.580383512e-05
3.584351912e-05
3.581025653e-05
3.560219996e-05
3.565876478e-05
3.557927017e-05
3.571021657e-05
3.578695608e-05
3.580515216e-05
3.569403003e-05
3.570815432e-05
3.574773864e-05
3.585399477e-05
3.589649403e-05
3.576634958e-05
3.56843437e-05
3.583137259e-05
3.592793041e-05
3.549464257e-05
3.567405062e-05
3.563216826e-05
3.573185786e-05
3.58032306e-05
3.57865546e-05
3.586025173e-05
3.588427299e-05
3.602160555e-05
3.598575114e-05
3.590644637e-05
3.594330106e-05
3.588177632e-05
3.581137669e-05
3.579590455e-05
3.575708753e-05
3.575375622e-05
3.562696735e-05
3.562723505e-05
3.566400653e-05
3.577598643e-05
3.568157684e-05
3.566607108e-05
3.571313864e-05
3.572885025e-05
3.583086847e-05
3.586425121e-05
3.586440702e-05
3.579796147e-05
3.580154735e-05
3.591662475e-05
3.594714746e-05
3.594698393e-05
3.585878247e-05
3.582376037e-05
3.572212819e-05
3.570493292e-05
3.578889891e-05
3.571940315e-05
3.573152841e-05
3.570713942e-05
3.562383429e-05
3.557910684e-05
3.554458251e-05
3.560321406e-05
3.557264214e-05
3.563983988e-05
3.559775158e-05
3.559201277e-05
3.557292323e-05
3.554393029e-05
3.551771079e-05
3.56455527e-05
3.56345715e-05
3.568917604e-05
3.583428523e-05
3.585448163e-05
3.578125888e-05
3.575361363e-05
3.570808398e-05
3.558535721e-05
3.566316752e-05
3.557643288e-05
3.544356567e-05
3.537937776e-05
3.54271307e-05
3.548049848e-05
3.552502169e-05
3.546628979e-05
3.556531395e-05
3.557024152e-05
3.547260285e-05
3.542567187e-05
3.558373838e-05
3.566090174e-05
3.567608415e-05
3.552393213e-05
3.547053923e-05
3.553488293e-05
3.554506266e-05
3.583526828e-05
3.58335553e-05
3.56861827e-05
3.5769861e-05
3.571359862e-05
3.571588858e-05
3.57362839e-05
3.57755794e-05
3.570263276e-05
3.571035684e-05
3.562793642e-05
3.558162602e-05
3.56188013e-05
3.577420793e-05
3.575098105e-05
3.567333914e-05
3.579121352e-05
3.564656095e-05
3.573704388e-05
3.566846143e-05
3.578309294e-05
3.580190121e-05
3.586196174e-05
3.584951537e-05
3.586549926e-05
3.585114751e-05
3.592974844e-05
3.588952392e-05
3.581898702e-05
3.570446996e-05
3.567802631e-05
3.571888844e-05
3.580151666e-05
3.574320767e-05
3.580226901e-05
3.581965942e-05
3.584026354e-05
3.588457246e-05
3.581055691e-05
3.5813832e-05
3.588458596e-05
3.585066077e-05
3.578151351e-05
3.566978909e-05
3.579181117e-05
3.596144612e-05
3.586274176e-05
3.589369365e-05
3.582911427e-05
3.588059714e-05
3.596374457e-05
3.589191419e-05
3.580050508e-05
3.58128597e-05
3.576270857e-05
3.58352335e-05
3.576613705e-05
3.581044482e-05
3.582666022e-05
3.584879702e-05
3.580117145e-05
3.580726297e-05
3.580035527e-05
3.588566576e-05
3.583200134e-05
3.571509685e-05
3.577630775e-05
3.575506217e-05
3.566888842e-05
3.567182962e-05
3.583098735e-05
3.597864989e-05
3.596829354e-05
3.598372799e-05
3.585917388e-05
3.582105481e-05
3.581508699e-05
3.583047947e-05
3.581463069e-05
3.582251453e-05
3.599416779e-05
3.594087842e-05
3.585974175e-05
3.593569902e-05
3.577953264e-05
3.577062519e-05
3.571053698e-05
3.573453211e-05
3.575773764e-05
3.566094785e-05
3.561425918e-05
3.57019861e-05
3.575663886e-05
3.577977537e-05
3.57093593e-05
3.571286386e-05
3.572817151e-05
3.592500433e-05
3.597090701e-05
3.592694451e-05
3.577436409e-05
3.582908409e-05
3.579749944e-05
3.572301822e-05
3.574525606e-05
3.57911698e-05
3.568648147e-05
3.568266139e-05
3.559004108e-05
3.558294076e-05
3.55749769e-05
3.57821933e-05
3.575677455e-05
3.575746683e-05
3.576712436e-05
3.591877463e-05
3.594913916e-05
3.608084641e-05
3.603777366e-05
3.592471131e-05
3.569915908e-05
3.573572413e-05
3.568377823e-05
3.571925021e-05
3.57337786e-05
3.574096137e-05
3.56453218e-05
3.56554834e-05
3.580473786e-05
3.576956631e-05
3.587478793e-05
3.577638408e-05
3.583741333e-05
3.574127698e-05
3.574963753e-05
3.582273903e-05
3.568474173e-05
3.570523598e-05
3.57679438e-05
3.572183651e-05
3.581030761e-05
3.575005417e-05
3.573655578e-05
3.572311917e-05
3.57465552e-05
3.564283672e-05
3.575983105e-05
3.5844464e-05
3.5820721e-05
3.585342657e-05
3.577058585e-05
3.578142275e-05
3.583504796e-05
3.585624573e-05
3.592392427e-05
3.579225188e-05
3.57835008e-05
3.578690825e-05
3.570300056e-05
3.571774254e-05
3.584741451e-05
3.579160065e-05
3.577382345e-05
3.571077744e-05
3.565842401e-05
3.589307435e-05
3.586395149e-05
3.584901258e-05
3.582507668e-05
3.581832142e-05
3.566698441e-05
3.574096587e-05
3.572096919e-05
3.571084717e-05
3.581469945e-05
3.591261277e-05
3.60416532e-05
3.599449008e-05
3.60850919e-05
3.595013327e-05
3.584345745e-05
3.580564106e-05
3.581120854e-05
3.588550565e-05
3.590232418e-05
3.586819449e-05
3.593318744e-05
3.610998185e-05
3.607187775e-05
3.600369724e-05
3.590303812e-05
3.58953794e-05
3.58254434e-05
3.582168146e-05
3.581979986e-05
3.584107143e-05
3.575522441e-05
3.583240714e-05
3.580511258e-05
3.579306366e-05
3.58672617e-05
3.587626602e-05
3.578679369e-05
3.569303985e-05
3.567972622e-05
3.573745121e-05
3.582074219e-05
3.583841603e-05
3.584039854e-05
3.581840478e-05
3.583641485e-05