/*--------------------------------*- C++ -*----------------------------------*\
| =========                 |                                                 |
| \\      /  F ield         | OpenFOAM: The Open Source CFD Toolbox           |
|  \\    /   O peration     | Version:  v1706                                 |
|   \\  /    A nd           | Web:      www.OpenFOAM.com                      |
|    \\/     M anipulation  |                                                 |
\*---------------------------------------------------------------------------*/
FoamFile
{
    version     2.0;
    format      ascii;
    class       volScalarField;
    location    "0.02";
    object      meanCollisionTime_mixture;
}
// * * * * * * * * * * * * * * * * * * * * * * * * * * * * * * * * * * * * * //

dimensions      [0 0 1 0 0 0 0];


internalField   nonuniform List<scalar> 
5120
(
2.832643182e-05
2.835235514e-05
2.833194913e-05
2.831187011e-05
2.829789977e-05
2.82615292e-05
2.831875045e-05
2.836034457e-05
2.843923662e-05
2.84860766e-05
2.849454292e-05
2.848833003e-05
2.848179041e-05
2.847347999e-05
2.843131936e-05
2.844833672e-05
2.850997509e-05
2.842597165e-05
2.841169417e-05
2.837294624e-05
2.851502319e-05
2.852687165e-05
2.844424381e-05
2.842512045e-05
2.848721971e-05
2.856082715e-05
2.84954544e-05
2.851356365e-05
2.844531187e-05
2.852869542e-05
2.839823377e-05
2.840934097e-05
2.849552544e-05
2.846986077e-05
2.850128208e-05
2.845031496e-05
2.851110933e-05
2.842718286e-05
2.850327142e-05
2.847303932e-05
2.852379964e-05
2.849068795e-05
2.854000944e-05
2.848552639e-05
2.839256745e-05
2.841344541e-05
2.846681718e-05
2.841707066e-05
2.842243829e-05
2.84301809e-05
2.846541231e-05
2.840678622e-05
2.837756012e-05
2.83962927e-05
2.832842836e-05
2.839238864e-05
2.838215342e-05
2.846909943e-05
2.845608412e-05
2.849024994e-05
2.850835653e-05
2.851371029e-05
2.845501458e-05
2.840797627e-05
2.844506671e-05
2.84596118e-05
2.845614148e-05
2.848012976e-05
2.846959515e-05
2.850915053e-05
2.843718876e-05
2.847738765e-05
2.852857469e-05
2.861242722e-05
2.862686582e-05
2.862191223e-05
2.859920597e-05
2.848201122e-05
2.849207165e-05
2.853921275e-05
2.852708392e-05
2.853060291e-05
2.847791085e-05
2.853450538e-05
2.852565704e-05
2.856882013e-05
2.857232642e-05
2.85894754e-05
2.859822638e-05
2.860942943e-05
2.857602813e-05
2.844576491e-05
2.851161501e-05
2.847176457e-05
2.845928278e-05
2.853788062e-05
2.855236103e-05
2.854965202e-05
2.856100956e-05
2.851702068e-05
2.859787531e-05
2.85399761e-05
2.851772825e-05
2.863832555e-05
2.850037899e-05
2.85062268e-05
2.859953271e-05
2.861711754e-05
2.864186918e-05
2.856082129e-05
2.855142968e-05
2.849776638e-05
2.852133784e-05
2.84445935e-05
2.853494841e-05
2.851523756e-05
2.853009198e-05
2.854219161e-05
2.858496735e-05
2.857609059e-05
2.866577934e-05
2.871125151e-05
2.867133761e-05
2.854270994e-05
2.857019193e-05
2.855749243e-05
2.856403246e-05
2.854621482e-05
2.856345598e-05
2.859732832e-05
2.86678483e-05
2.853286705e-05
2.852707596e-05
2.850976374e-05
2.853868448e-05
2.852483709e-05
2.855352223e-05
2.856779634e-05
2.85845273e-05
2.869431445e-05
2.859979967e-05
2.8582116e-05
2.864444477e-05
2.866806371e-05
2.868257285e-05
2.867066331e-05
2.865916457e-05
2.865896476e-05
2.867446489e-05
2.86366087e-05
2.865479891e-05
2.873468742e-05
2.868171024e-05
2.854099442e-05
2.850513441e-05
2.848520557e-05
2.848772985e-05
2.848118468e-05
2.853295879e-05
2.852236034e-05
2.847583633e-05
2.854850712e-05
2.851829142e-05
2.858747986e-05
2.858340214e-05
2.849781193e-05
2.853095972e-05
2.860391246e-05
2.85471e-05
2.858704678e-05
2.852104803e-05
2.849686889e-05
2.850536944e-05
2.851153951e-05
2.850512464e-05
2.851672215e-05
2.839924081e-05
2.84420186e-05
2.847216711e-05
2.841050593e-05
2.855758681e-05
2.852119431e-05
2.852488896e-05
2.859351681e-05
2.855728401e-05
2.861198886e-05
2.849364247e-05
2.845911049e-05
2.848515329e-05
2.862798246e-05
2.872264426e-05
2.866325975e-05
2.858419713e-05
2.853170669e-05
2.850550499e-05
2.858966209e-05
2.866793317e-05
2.866290952e-05
2.856921992e-05
2.853271665e-05
2.842445707e-05
2.834124193e-05
2.83900425e-05
2.835799022e-05
2.845195282e-05
2.850937731e-05
2.857862453e-05
2.858629387e-05
2.862832106e-05
2.859447375e-05
2.848221337e-05
2.841137895e-05
2.846833407e-05
2.846920136e-05
2.854905572e-05
2.85474214e-05
2.845066902e-05
2.848894864e-05
2.851827204e-05
2.853432587e-05
2.858260225e-05
2.864274229e-05
2.855854662e-05
2.85440209e-05
2.849444291e-05
2.843959854e-05
2.839726412e-05
2.849881541e-05
2.852878451e-05
2.85493687e-05
2.853171084e-05
2.851004323e-05
2.854675341e-05
2.851320664e-05
2.846152847e-05
2.850601362e-05
2.851178811e-05
2.85301812e-05
2.858571162e-05
2.86014659e-05
2.847313395e-05
2.846676776e-05
2.84411036e-05
2.849899023e-05
2.854045285e-05
2.85516486e-05
2.855202533e-05
2.862036306e-05
2.858975061e-05
2.856774928e-05
2.8559779e-05
2.850034733e-05
2.851641406e-05
2.847723627e-05
2.845254728e-05
2.850843917e-05
2.846891158e-05
2.85063896e-05
2.841801875e-05
2.841501888e-05
2.836077513e-05
2.841368523e-05
2.843583828e-05
2.840262547e-05
2.844340011e-05
2.851165367e-05
2.854202286e-05
2.84857749e-05
2.849355288e-05
2.845264826e-05
2.836928856e-05
2.837686484e-05
2.828814305e-05
2.830915796e-05
2.833714391e-05
2.837748066e-05
2.846088973e-05
2.844894098e-05
2.845606175e-05
2.856435674e-05
2.855953412e-05
2.859009639e-05
2.864874182e-05
2.86354839e-05
2.858869742e-05
2.860966583e-05
2.862953273e-05
2.859981074e-05
2.844663001e-05
2.843839294e-05
2.834316011e-05
2.843569074e-05
2.840972021e-05
2.845699097e-05
2.850545219e-05
2.868296683e-05
2.859784196e-05
2.847117964e-05
2.841025844e-05
2.842200036e-05
2.845632687e-05
2.841629594e-05
2.846863825e-05
2.849053139e-05
2.854477467e-05
2.852305897e-05
2.84434535e-05
2.838736206e-05
2.836944566e-05
2.841163035e-05
2.8593767e-05
2.854741527e-05
2.854307813e-05
2.853366721e-05
2.856648936e-05
2.848902122e-05
2.845797611e-05
2.845140705e-05
2.848963026e-05
2.850026923e-05
2.847202264e-05
2.842420384e-05
2.849818622e-05
2.849204644e-05
2.841380714e-05
2.836673539e-05
2.846677246e-05
2.850691874e-05
2.846752377e-05
2.835601181e-05
2.831715312e-05
2.843766949e-05
2.853833877e-05
2.856414623e-05
2.846205203e-05
2.846571046e-05
2.853123467e-05
2.849256203e-05
2.853523109e-05
2.85673592e-05
2.839819885e-05
2.841426504e-05
2.837595016e-05
2.838401555e-05
2.842319243e-05
2.837292562e-05
2.847811913e-05
2.842812372e-05
2.850079865e-05
2.84902493e-05
2.852448486e-05
2.846082727e-05
2.836646862e-05
2.838813394e-05
2.847916105e-05
2.845985472e-05
2.844383999e-05
2.848763833e-05
2.848729786e-05
2.847773375e-05
2.84751849e-05
2.839889401e-05
2.84486983e-05
2.844319029e-05
2.846695996e-05
2.850659015e-05
2.847567443e-05
2.84899111e-05
2.846730869e-05
2.850803821e-05
2.851614916e-05
2.851048779e-05
2.845461076e-05
2.849815506e-05
2.846243639e-05
2.841464249e-05
2.836367554e-05
2.83886407e-05
2.842545814e-05
2.841055021e-05
2.859743624e-05
2.856828519e-05
2.854516143e-05
2.858324133e-05
2.85958053e-05
2.845484489e-05
2.843120782e-05
2.843212581e-05
2.849638099e-05
2.847375151e-05
2.85596882e-05
2.866376617e-05
2.860087705e-05
2.857066976e-05
2.858290829e-05
2.855419378e-05
2.850760722e-05
2.863738899e-05
2.863238084e-05
2.863051862e-05
2.840774591e-05
2.842207002e-05
2.847360426e-05
2.849819382e-05
2.848716337e-05
2.837812546e-05
2.833455736e-05
2.825303682e-05
2.836001817e-05
2.840956714e-05
2.847864688e-05
2.844446018e-05
2.846233897e-05
2.852190813e-05
2.863770859e-05
2.860015153e-05
2.865480034e-05
2.865732436e-05
2.857180614e-05
2.846316793e-05
2.847542054e-05
2.847273431e-05
2.8502064e-05
2.84832106e-05
2.850199875e-05
2.849250148e-05
2.843207815e-05
2.840118382e-05
2.841830463e-05
2.846014995e-05
2.838821097e-05
2.852199951e-05
2.85174469e-05
2.844483742e-05
2.848426556e-05
2.853598411e-05
2.849305315e-05
2.854667399e-05
2.849889623e-05
2.847941753e-05
2.848613665e-05
2.852562456e-05
2.841510354e-05
2.843383861e-05
2.843414641e-05
2.842000353e-05
2.840515887e-05
2.840875027e-05
2.837881352e-05
2.841217107e-05
2.839042621e-05
2.844834787e-05
2.849954306e-05
2.850427796e-05
2.850470504e-05
2.847796998e-05
2.850695362e-05
2.851509829e-05
2.847713683e-05
2.848094621e-05
2.836684509e-05
2.837069824e-05
2.83642657e-05
2.836104134e-05
2.839035981e-05
2.84081967e-05
2.843175644e-05
2.85218314e-05
2.856243367e-05
2.851136153e-05
2.845489669e-05
2.850752402e-05
2.844299676e-05
2.845855035e-05
2.845254114e-05
2.842215878e-05
2.847537687e-05
2.849590227e-05
2.851984571e-05
2.839259825e-05
2.848602863e-05
2.846537679e-05
2.84905018e-05
2.848939439e-05
2.856210673e-05
2.858121443e-05
2.853723191e-05
2.85159165e-05
2.861882045e-05
2.855836799e-05
2.859068822e-05
2.856511243e-05
2.85019896e-05
2.849177101e-05
2.839792004e-05
2.836754326e-05
2.836046895e-05
2.836070798e-05
2.835542162e-05
2.841401581e-05
2.869371785e-05
2.866579668e-05
2.865100041e-05
2.864605499e-05
2.856494285e-05
2.854240947e-05
2.856411484e-05
2.853596108e-05
2.850581385e-05
2.855220098e-05
2.848743322e-05
2.849838875e-05
2.854195207e-05
2.863578895e-05
2.871085482e-05
2.867769419e-05
2.862451693e-05
2.858685399e-05
2.856487966e-05
2.861792995e-05
2.850493763e-05
2.853311148e-05
2.84870415e-05
2.84225355e-05
2.845245185e-05
2.845835146e-05
2.852740392e-05
2.842908347e-05
2.844473506e-05
2.848766263e-05
2.863212187e-05
2.875161042e-05
2.866720141e-05
2.861144073e-05
2.854209203e-05
2.854557943e-05
2.856626197e-05
2.854552929e-05
2.851874392e-05
2.848989479e-05
2.846462187e-05
2.852636126e-05
2.843283807e-05
2.843821598e-05
2.848384096e-05
2.84563959e-05
2.840266496e-05
2.83905768e-05
2.847823353e-05
2.849593846e-05
2.849444875e-05
2.84049983e-05
2.850804943e-05
2.856704501e-05
2.857423891e-05
2.853210175e-05
2.849710556e-05
2.848008974e-05
2.844564203e-05
2.84883873e-05
2.842752986e-05
2.841362143e-05
2.836348125e-05
2.838217355e-05
2.840295335e-05
2.843872728e-05
2.851727341e-05
2.84458014e-05
2.836359924e-05
2.83006491e-05
2.839542846e-05
2.841701459e-05
2.845612268e-05
2.84649031e-05
2.846115877e-05
2.852572759e-05
2.853146481e-05
2.849044413e-05
2.851571159e-05
2.849579357e-05
2.859217468e-05
2.852067962e-05
2.853048177e-05
2.849981544e-05
2.847036337e-05
2.849900868e-05
2.849647551e-05
2.850187202e-05
2.854434965e-05
2.846045319e-05
2.843983458e-05
2.841992293e-05
2.848878803e-05
2.848411565e-05
2.846670641e-05
2.850480194e-05
2.84534573e-05
2.846739338e-05
2.852914105e-05
2.846111328e-05
2.848385571e-05
2.844596969e-05
2.838670503e-05
2.83989732e-05
2.836635714e-05
2.834215257e-05
2.836999082e-05
2.837833094e-05
2.847082345e-05
2.853081912e-05
2.853865052e-05
2.846424298e-05
2.838133978e-05
2.851429417e-05
2.855977674e-05
2.84518984e-05
2.847568119e-05
2.841130238e-05
2.845367124e-05
2.851868789e-05
2.83603867e-05
2.843782892e-05
2.847308354e-05
2.848089422e-05
2.847797395e-05
2.84919195e-05
2.8507692e-05
2.838639372e-05
2.843189607e-05
2.850858935e-05
2.847060442e-05
2.84499611e-05
2.849279045e-05
2.842742171e-05
2.841109517e-05
2.848726898e-05
2.847076751e-05
2.847840332e-05
2.839761571e-05
2.83307234e-05
2.854194741e-05
2.854312635e-05
2.849338717e-05
2.856293404e-05
2.851540585e-05
2.842422874e-05
2.837600625e-05
2.844156551e-05
2.848139627e-05
2.84623428e-05
2.844188347e-05
2.845941731e-05
2.835748695e-05
2.835327109e-05
2.839314265e-05
2.851553084e-05
2.853433863e-05
2.850360628e-05
2.852064211e-05
2.851786132e-05
2.856161681e-05
2.856618737e-05
2.858809827e-05
2.85708194e-05
2.859577037e-05
2.862817548e-05
2.859314481e-05
2.864197894e-05
2.86170819e-05
2.856563607e-05
2.847790574e-05
2.842546749e-05
2.847784361e-05
2.847331973e-05
2.846326916e-05
2.850364963e-05
2.853398396e-05
2.847184424e-05
2.849906076e-05
2.846838103e-05
2.848698939e-05
2.847272681e-05
2.845134801e-05
2.837853074e-05
2.840059986e-05
2.846065948e-05
2.8447493e-05
2.858328932e-05
2.864276654e-05
2.866640349e-05
2.870273412e-05
2.868211114e-05
2.866888863e-05
2.859588132e-05
2.87011719e-05
2.858397866e-05
2.850772751e-05
2.848468399e-05
2.846065628e-05
2.849203169e-05
2.860070758e-05
2.852682401e-05
2.853266624e-05
2.853813339e-05
2.848935122e-05
2.848187858e-05
2.853392013e-05
2.853575724e-05
2.853065136e-05
2.853134454e-05
2.846076437e-05
2.853435346e-05
2.865680236e-05
2.85170431e-05
2.847635558e-05
2.850972654e-05
2.853403874e-05
2.853935648e-05
2.856202956e-05
2.857386588e-05
2.854103418e-05
2.850007586e-05
2.853297133e-05
2.851946415e-05
2.853160931e-05
2.849693647e-05
2.856889237e-05
2.855609339e-05
2.844643037e-05
2.83430731e-05
2.832815828e-05
2.839588584e-05
2.845916196e-05
2.846745798e-05
2.856017735e-05
2.860464841e-05
2.856819379e-05
2.856817606e-05
2.855452065e-05
2.849444458e-05
2.856862491e-05
2.847765394e-05
2.838962695e-05
2.845832612e-05
2.841893319e-05
2.845353424e-05
2.846526913e-05
2.852396265e-05
2.850493352e-05
2.855822419e-05
2.858922517e-05
2.852906691e-05
2.851622669e-05
2.851437659e-05
2.850245513e-05
2.848215113e-05
2.849327952e-05
2.844236685e-05
2.853813146e-05
2.862435379e-05
2.858844547e-05
2.862125129e-05
2.868513273e-05
2.85904293e-05
2.848926609e-05
2.8546289e-05
2.854219446e-05
2.844048071e-05
2.835271684e-05
2.832232092e-05
2.834983845e-05
2.844807681e-05
2.84914297e-05
2.854969333e-05
2.860213586e-05
2.857669746e-05
2.851264505e-05
2.852144258e-05
2.855253291e-05
2.856700863e-05
2.856476644e-05
2.847947356e-05
2.848839134e-05
2.852611269e-05
2.857294172e-05
2.855044481e-05
2.839612853e-05
2.842314678e-05
2.847997789e-05
2.843756852e-05
2.841961662e-05
2.844727732e-05
2.851162956e-05
2.861330703e-05
2.857589265e-05
2.857596434e-05
2.858031506e-05
2.866498259e-05
2.862830383e-05
2.863851037e-05
2.841009106e-05
2.84391116e-05
2.84826916e-05
2.846807221e-05
2.846316268e-05
2.84846336e-05
2.8511441e-05
2.854269484e-05
2.842058148e-05
2.844386063e-05
2.843427135e-05
2.842041474e-05
2.841930254e-05
2.838567375e-05
2.848516608e-05
2.845820735e-05
2.845394527e-05
2.841831313e-05
2.840984231e-05
2.841192975e-05
2.863638247e-05
2.86539758e-05
2.856230757e-05
2.855839415e-05
2.855721221e-05
2.859072356e-05
2.862038563e-05
2.865145507e-05
2.862937589e-05
2.853359016e-05
2.851459746e-05
2.853410572e-05
2.856168396e-05
2.852023345e-05
2.844505696e-05
2.846041328e-05
2.849673398e-05
2.852406551e-05
2.852664122e-05
2.858725275e-05
2.848985104e-05
2.840691605e-05
2.851152301e-05
2.858439605e-05
2.855366554e-05
2.844170191e-05
2.836824745e-05
2.836291219e-05
2.835670676e-05
2.842245555e-05
2.842278264e-05
2.846856524e-05
2.847860289e-05
2.849566107e-05
2.850416515e-05
2.846998396e-05
2.845561415e-05
2.850412735e-05
2.852498845e-05
2.84861312e-05
2.84950843e-05
2.846068427e-05
2.844999328e-05
2.836492578e-05
2.836457231e-05
2.849608558e-05
2.853308973e-05
2.849496581e-05
2.849910854e-05
2.842636034e-05
2.8394806e-05
2.848584522e-05
2.848951827e-05
2.839183256e-05
2.8402804e-05
2.846224326e-05
2.846191605e-05
2.84552857e-05
2.845250207e-05
2.846101485e-05
2.84692728e-05
2.849683323e-05
2.850521977e-05
2.854622397e-05
2.841576921e-05
2.8353146e-05
2.837813671e-05
2.830170544e-05
2.8348657e-05
2.845071917e-05
2.84111138e-05
2.834890446e-05
2.840522884e-05
2.842537221e-05
2.845827418e-05
2.849275001e-05
2.849938753e-05
2.851686628e-05
2.857159291e-05
2.854523135e-05
2.83811004e-05
2.844696533e-05
2.845639541e-05
2.858324629e-05
2.854982025e-05
2.855053347e-05
2.852570519e-05
2.84544085e-05
2.842320614e-05
2.840229237e-05
2.845717465e-05
2.841934284e-05
2.835395545e-05
2.834207253e-05
2.832833464e-05
2.825883365e-05
2.829622669e-05
2.828714244e-05
2.830073544e-05
2.841388925e-05
2.843099494e-05
2.848681964e-05
2.839928599e-05
2.84330231e-05
2.840946207e-05
2.834330307e-05
2.824046271e-05
2.835657921e-05
2.848209428e-05
2.845376652e-05
2.847645822e-05
2.848727169e-05
2.856316528e-05
2.844427108e-05
2.835722588e-05
2.837534457e-05
2.833555782e-05
2.842155362e-05
2.838379355e-05
2.839542794e-05
2.847798017e-05
2.842011235e-05
2.842075365e-05
2.832157553e-05
2.842476527e-05
2.846836124e-05
2.850570665e-05
2.847825809e-05
2.843193073e-05
2.847336093e-05
2.849259735e-05
2.846913272e-05
2.847181141e-05
2.848212007e-05
2.853645864e-05
2.850155135e-05
2.847915384e-05
2.849621451e-05
2.849066115e-05
2.852353408e-05
2.85306465e-05
2.855334591e-05
2.857922174e-05
2.86063016e-05
2.850418058e-05
2.853843829e-05
2.848655511e-05
2.840695557e-05
2.837563174e-05
2.835763334e-05
2.829451309e-05
2.823840716e-05
2.823530776e-05
2.829311339e-05
2.8294341e-05
2.829999756e-05
2.834747878e-05
2.843040031e-05
2.850776315e-05
2.854302405e-05
2.86056527e-05
2.860878475e-05
2.853996322e-05
2.853905784e-05
2.850757179e-05
2.854727565e-05
2.851702763e-05
2.847945092e-05
2.846137264e-05
2.853477646e-05
2.856063391e-05
2.859263383e-05
2.862811902e-05
2.845301517e-05
2.846433081e-05
2.84402575e-05
2.841179753e-05
2.837700472e-05
2.844274188e-05
2.854014089e-05
2.840316267e-05
2.849852784e-05
2.847027541e-05
2.857357133e-05
2.856468029e-05
2.859203344e-05
2.860991884e-05
2.852848881e-05
2.859536122e-05
2.859851729e-05
2.861550874e-05
2.864962381e-05
2.861773602e-05
2.865603503e-05
2.860101225e-05
2.85433552e-05
2.85739179e-05
2.856582394e-05
2.8496548e-05
2.835014287e-05
2.84159564e-05
2.842083988e-05
2.840659479e-05
2.848965051e-05
2.853581819e-05
2.858355518e-05
2.867252696e-05
2.869435357e-05
2.858809211e-05
2.863636411e-05
2.857716767e-05
2.860743848e-05
2.860938864e-05
2.85787928e-05
2.865360086e-05
2.870961647e-05
2.865492373e-05
2.857304826e-05
2.860875361e-05
2.855854947e-05
2.859321833e-05
2.856033718e-05
2.85872105e-05
2.858067678e-05
2.856704918e-05
2.858622673e-05
2.852263315e-05
2.85833724e-05
2.862343675e-05
2.859562559e-05
2.862390984e-05
2.854212618e-05
2.845398757e-05
2.844593591e-05
2.838489519e-05
2.840121458e-05
2.848255708e-05
2.855839971e-05
2.846463689e-05
2.850988899e-05
2.851066405e-05
2.862820298e-05
2.856318556e-05
2.853011347e-05
2.860601908e-05
2.866721484e-05
2.869906154e-05
2.862723651e-05
2.868274708e-05
2.861504678e-05
2.861066448e-05
2.860309096e-05
2.851494039e-05
2.843423972e-05
2.844890701e-05
2.850588712e-05
2.848289519e-05
2.847494587e-05
2.851239074e-05
2.847370982e-05
2.855028624e-05
2.855577449e-05
2.863411657e-05
2.86787843e-05
2.859580991e-05
2.852549788e-05
2.840929381e-05
2.842837523e-05
2.85164855e-05
2.856118691e-05
2.854588432e-05
2.852638161e-05
2.856790908e-05
2.858473137e-05
2.856001328e-05
2.858079584e-05
2.862696031e-05
2.860910494e-05
2.854277705e-05
2.85383754e-05
2.851562776e-05
2.851936877e-05
2.85236467e-05
2.84997253e-05
2.8502632e-05
2.849294832e-05
2.856718877e-05
2.851858989e-05
2.855959861e-05
2.860587403e-05
2.855514878e-05
2.855050119e-05
2.858177504e-05
2.854656233e-05
2.856382832e-05
2.851615446e-05
2.859801012e-05
2.856756486e-05
2.8515389e-05
2.850499022e-05
2.842032662e-05
2.843866339e-05
2.839027323e-05
2.835485366e-05
2.83387989e-05
2.839985055e-05
2.844915204e-05
2.850721174e-05
2.851583694e-05
2.845644048e-05
2.849882353e-05
2.842073818e-05
2.844202853e-05
2.85091287e-05
2.846472455e-05
2.848784233e-05
2.854486326e-05
2.840550045e-05
2.837498857e-05
2.831001964e-05
2.845192752e-05
2.838709241e-05
2.845117755e-05
2.849541115e-05
2.852548548e-05
2.865268376e-05
2.866670009e-05
2.859148792e-05
2.862956136e-05
2.854966258e-05
2.857749594e-05
2.861273648e-05
2.857309185e-05
2.855558774e-05
2.853709435e-05
2.847021304e-05
2.837048098e-05
2.83307119e-05
2.832877499e-05
2.835968138e-05
2.861780646e-05
2.865413158e-05
2.865101278e-05
2.862437078e-05
2.855211338e-05
2.844943494e-05
2.840481163e-05
2.843882467e-05
2.840057476e-05
2.842052556e-05
2.848503019e-05
2.842977338e-05
2.836030199e-05
2.839399783e-05
2.843407173e-05
2.85250196e-05
2.857388899e-05
2.85165098e-05
2.861814069e-05
2.864670823e-05
2.852271172e-05
2.856552352e-05
2.85406682e-05
2.847195264e-05
2.849541178e-05
2.854173948e-05
2.846820641e-05
2.842386113e-05
2.850068896e-05
2.850464032e-05
2.849031323e-05
2.840861079e-05
2.844789638e-05
2.84835611e-05
2.849773838e-05
2.850491402e-05
2.856819414e-05
2.849365562e-05
2.85348924e-05
2.850635919e-05
2.841940666e-05
2.848237414e-05
2.841383506e-05
2.84609058e-05
2.852876085e-05
2.859734915e-05
2.853546648e-05
2.843266133e-05
2.84413736e-05
2.833698034e-05
2.841163956e-05
2.86107631e-05
2.857361442e-05
2.858148387e-05
2.849681863e-05
2.858384543e-05
2.859022706e-05
2.853060733e-05
2.845183904e-05
2.842979043e-05
2.842364078e-05
2.836383621e-05
2.840153619e-05
2.831267786e-05
2.842149973e-05
2.843593606e-05
2.854030396e-05
2.857304998e-05
2.851159449e-05
2.858081683e-05
2.858022165e-05
2.844109611e-05
2.84751358e-05
2.854883393e-05
2.855502176e-05
2.847518255e-05
2.845250592e-05
2.846345371e-05
2.850276248e-05
2.842470166e-05
2.850299656e-05
2.838162037e-05
2.842496976e-05
2.845032841e-05
2.844122175e-05
2.846403118e-05
2.859027688e-05
2.854727969e-05
2.853099105e-05
2.848281936e-05
2.846639068e-05
2.846662588e-05
2.846811599e-05
2.841239393e-05
2.847236687e-05
2.854319432e-05
2.858331234e-05
2.85143564e-05
2.848002423e-05
2.842220423e-05
2.855438247e-05
2.869073819e-05
2.872847875e-05
2.87617205e-05
2.86324692e-05
2.856257241e-05
2.858496429e-05
2.846451883e-05
2.847675541e-05
2.845041497e-05
2.842268187e-05
2.848172781e-05
2.846456639e-05
2.842430156e-05
2.842741578e-05
2.837192875e-05
2.839061513e-05
2.845902364e-05
2.846914952e-05
2.850387969e-05
2.837932334e-05
2.828280417e-05
2.837847643e-05
2.845311571e-05
2.848002814e-05
2.84973604e-05
2.842689166e-05
2.841254919e-05
2.843678586e-05
2.85049086e-05
2.855699202e-05
2.861480247e-05
2.860951247e-05
2.852264353e-05
2.853161234e-05
2.840462667e-05
2.846563432e-05
2.842849828e-05
2.844140266e-05
2.842910815e-05
2.83985921e-05
2.847394847e-05
2.846909397e-05
2.846425423e-05
2.856902317e-05
2.863607419e-05
2.864630885e-05
2.860765485e-05
2.854488875e-05
2.843379977e-05
2.845801039e-05
2.843533703e-05
2.844963751e-05
2.846299099e-05
2.84729945e-05
2.852691517e-05
2.851543107e-05
2.841333217e-05
2.838371212e-05
2.836921745e-05
2.862278575e-05
2.862805649e-05
2.868656187e-05
2.861305398e-05
2.860072159e-05
2.851822771e-05
2.851476413e-05
2.857420495e-05
2.862599976e-05
2.864437649e-05
2.855868458e-05
2.855214036e-05
2.853111724e-05
2.839889376e-05
2.838008955e-05
2.843621047e-05
2.854152307e-05
2.862595259e-05
2.866792054e-05
2.867307368e-05
2.865031127e-05
2.859200855e-05
2.859394298e-05
2.861348464e-05
2.853255992e-05
2.85742413e-05
2.860086325e-05
2.860971376e-05
2.861198816e-05
2.860039891e-05
2.854574322e-05
2.856022586e-05
2.854470878e-05
2.863938621e-05
2.863084975e-05
2.865059516e-05
2.866427355e-05
2.866071246e-05
2.862553688e-05
2.859073148e-05
2.848088572e-05
2.854195803e-05
2.856801673e-05
2.857345579e-05
2.845747598e-05
2.848453012e-05
2.849225283e-05
2.852071248e-05
2.851695011e-05
2.855004368e-05
2.856114181e-05
2.860691025e-05
2.864915043e-05
2.864760744e-05
2.867673463e-05
2.858322177e-05
2.850207152e-05
2.855384093e-05
2.847596442e-05
2.855345848e-05
2.84932988e-05
2.848441126e-05
2.857701866e-05
2.857397994e-05
2.866317714e-05
2.863912554e-05
2.858359483e-05
2.863966929e-05
2.86563301e-05
2.864679104e-05
2.863274399e-05
2.85745241e-05
2.851364781e-05
2.851956688e-05
2.845859562e-05
2.849773735e-05
2.848319277e-05
2.849383022e-05
2.851206254e-05
2.856049221e-05
2.854184798e-05
2.850656851e-05
2.848909068e-05
2.843230681e-05
2.848508488e-05
2.849619269e-05
2.857376534e-05
2.855887281e-05
2.84932983e-05
2.855253713e-05
2.863717176e-05
2.858710534e-05
2.86031537e-05
2.866778424e-05
2.861143231e-05
2.856517035e-05
2.85038856e-05
2.844908557e-05
2.853942939e-05
2.85339236e-05
2.846595723e-05
2.847492819e-05
2.854785516e-05
2.843748593e-05
2.844047146e-05
2.845494966e-05
2.850957504e-05
2.850825279e-05
2.848341769e-05
2.84790817e-05
2.843649739e-05
2.846155412e-05
2.848981808e-05
2.850963537e-05
2.854354164e-05
2.847442047e-05
2.843450237e-05
2.85119743e-05
2.847377884e-05
2.843503195e-05
2.851725361e-05
2.846292586e-05
2.841737189e-05
2.859717329e-05
2.855777894e-05
2.853691511e-05
2.855351968e-05
2.848519489e-05
2.849419474e-05
2.856755861e-05
2.860219653e-05
2.857804648e-05
2.847576763e-05
2.845171854e-05
2.838880143e-05
2.84069518e-05
2.845009148e-05
2.847624402e-05
2.851431847e-05
2.858750675e-05
2.84671255e-05
2.851810811e-05
2.852718557e-05
2.860570865e-05
2.86236833e-05
2.860841076e-05
2.864768238e-05
2.864097383e-05
2.855945776e-05
2.866143012e-05
2.849680711e-05
2.851735689e-05
2.858270133e-05
2.848896226e-05
2.852056162e-05
2.847186986e-05
2.844879192e-05
2.848120295e-05
2.852453185e-05
2.849071908e-05
2.843447882e-05
2.841481418e-05
2.844529999e-05
2.840167532e-05
2.840921575e-05
2.84497788e-05
2.842185481e-05
2.833587135e-05
2.834720907e-05
2.83506267e-05
2.848245481e-05
2.853588905e-05
2.865327777e-05
2.861984808e-05
2.853926281e-05
2.844980711e-05
2.846643077e-05
2.85042161e-05
2.846874036e-05
2.839556892e-05
2.8661921e-05
2.865232518e-05
2.863635556e-05
2.85764515e-05
2.853775025e-05
2.856692444e-05
2.858481798e-05
2.866478691e-05
2.867544016e-05
2.856487544e-05
2.853754556e-05
2.857469414e-05
2.858552384e-05
2.852636827e-05
2.848980375e-05
2.854005081e-05
2.862738186e-05
2.875000119e-05
2.86606533e-05
2.864816335e-05
2.862997713e-05
2.85644918e-05
2.857885081e-05
2.858379183e-05
2.853389478e-05
2.840982169e-05
2.845654938e-05
2.839774686e-05
2.845345412e-05
2.850625588e-05
2.856316419e-05
2.848489368e-05
2.846129484e-05
2.85173969e-05
2.864573926e-05
2.866155345e-05
2.858912995e-05
2.850480475e-05
2.857394067e-05
2.861360403e-05
2.840039194e-05
2.85502814e-05
2.850794856e-05
2.85583574e-05
2.856731743e-05
2.853883165e-05
2.859028458e-05
2.863961929e-05
2.873305941e-05
2.868733207e-05
2.868555759e-05
2.871404332e-05
2.868401405e-05
2.861387527e-05
2.855068447e-05
2.848164368e-05
2.847812206e-05
2.841121445e-05
2.844537223e-05
2.850512603e-05
2.85013863e-05
2.843249287e-05
2.847812388e-05
2.849503129e-05
2.853147186e-05
2.861152561e-05
2.865413925e-05
2.866023042e-05
2.859415254e-05
2.86034444e-05
2.865871398e-05
2.864247378e-05
2.862049509e-05
2.854118773e-05
2.84926374e-05
2.846093835e-05
2.84664264e-05
2.851939134e-05
2.848913856e-05
2.850749882e-05
2.849173676e-05
2.842378695e-05
2.843211493e-05
2.83862972e-05
2.84264619e-05
2.843073318e-05
2.848007519e-05
2.844664512e-05
2.845246093e-05
2.843121039e-05
2.840127288e-05
2.839966687e-05
2.846854036e-05
2.848616168e-05
2.851901061e-05
2.862030739e-05
2.859365298e-05
2.854335721e-05
2.851100766e-05
2.847136017e-05
2.84329046e-05
2.850234765e-05
2.841762236e-05
2.832963736e-05
2.826938115e-05
2.827217902e-05
2.83215298e-05
2.834926169e-05
2.83285789e-05
2.840634058e-05
2.842160674e-05
2.832767794e-05
2.82849475e-05
2.842924744e-05
2.846514295e-05
2.850670641e-05
2.841638329e-05
2.834281962e-05
2.836864286e-05
2.841437892e-05
2.854838241e-05
2.853225655e-05
2.848243236e-05
2.855310356e-05
2.855245459e-05
2.852742864e-05
2.853011664e-05
2.853690067e-05
2.846158934e-05
2.847930754e-05
2.842433531e-05
2.840317054e-05
2.845944178e-05
2.850419253e-05
2.846621754e-05
2.844251853e-05
2.855813403e-05
2.849564735e-05
2.855238677e-05
2.847319063e-05
2.856580148e-05
2.856935774e-05
2.858502975e-05
2.859794943e-05
2.862390262e-05
2.860029118e-05
2.867840335e-05
2.866133775e-05
2.857790309e-05
2.848558974e-05
2.84704942e-05
2.843325551e-05
2.850053818e-05
2.84707791e-05
2.852782746e-05
2.852010791e-05
2.853516629e-05
2.858587891e-05
2.855611234e-05
2.857415024e-05
2.85461844e-05
2.853318538e-05
2.851735548e-05
2.841454934e-05
2.847222136e-05
2.861572482e-05
2.853010634e-05
2.852127617e-05
2.853660645e-05
2.858246297e-05
2.864440377e-05
2.86025845e-05
2.851278292e-05
2.854996675e-05
2.853882778e-05
2.859548561e-05
2.85039493e-05
2.849043291e-05
2.850569273e-05
2.853421526e-05
2.849790451e-05
2.852347551e-05
2.848518963e-05
2.856006765e-05
2.847885753e-05
2.841848027e-05
2.847756832e-05
2.851449185e-05
2.845265778e-05
2.848101718e-05
2.856990908e-05
2.864860273e-05
2.864064261e-05
2.869366425e-05
2.856241236e-05
2.852731027e-05
2.850944008e-05
2.852443141e-05
2.849139529e-05
2.849545866e-05
2.864063746e-05
2.860763433e-05
2.853940665e-05
2.858685646e-05
2.849380488e-05
2.851201065e-05
2.847099666e-05
2.841653407e-05
2.843453873e-05
2.83695963e-05
2.832629684e-05
2.836820344e-05
2.841305603e-05
2.843301914e-05
2.839961132e-05
2.842716153e-05
2.846344313e-05
2.855234477e-05
2.857029212e-05
2.856548607e-05
2.852387873e-05
2.85780661e-05
2.853190024e-05
2.84868924e-05
2.847512662e-05
2.850635572e-05
2.845360641e-05
2.844067432e-05
2.839256308e-05
2.839076298e-05
2.836891301e-05
2.850162571e-05
2.853161544e-05
2.851413068e-05
2.853402589e-05
2.861238329e-05
2.86199074e-05
2.869407705e-05
2.86747348e-05
2.860872558e-05
2.848727222e-05
2.851199724e-05
2.848315435e-05
2.850059007e-05
2.850380559e-05
2.854228045e-05
2.846221498e-05
2.844909279e-05
2.854794279e-05
2.852650911e-05
2.858745414e-05
2.853064121e-05
2.857854906e-05
2.85112544e-05
2.851930043e-05
2.857454594e-05
2.84723881e-05
2.85069123e-05
2.854139916e-05
2.851635526e-05
2.857828782e-05
2.851893674e-05
2.849486842e-05
2.84888532e-05
2.853117781e-05
2.845544746e-05
2.852544753e-05
2.860539519e-05
2.85745053e-05
2.865126066e-05
2.861641221e-05
2.857931269e-05
2.858404717e-05
2.860188395e-05
2.86766617e-05
2.859138192e-05
2.855895363e-05
2.85511936e-05
2.850748e-05
2.852101421e-05
2.849916322e-05
2.848281878e-05
2.850261108e-05
2.847956582e-05
2.843797086e-05
2.860908338e-05
2.857523622e-05
2.859342673e-05
2.861143496e-05
2.861502965e-05
2.851195336e-05
2.85549218e-05
2.851086567e-05
2.849450366e-05
2.854937048e-05
2.863579553e-05
2.871667676e-05
2.86763675e-05
2.868700324e-05
2.85918383e-05
2.857760499e-05
2.858206417e-05
2.858738816e-05
2.862706123e-05
2.863283751e-05
2.861743654e-05
2.864394679e-05
2.871020218e-05
2.867359696e-05
2.866461432e-05
2.864655677e-05
2.862191388e-05
2.853951391e-05
2.853596202e-05
2.853511956e-05
2.854928162e-05
2.846268217e-05
2.849810639e-05
2.849385169e-05
2.853787343e-05
2.856865632e-05
2.858419354e-05
2.857160014e-05
2.852704097e-05
2.85274997e-05
2.85447066e-05
2.85829674e-05
2.859414983e-05
2.857375508e-05
2.85802308e-05
2.859172908e-05
2.855627949e-05
2.85117323e-05