/*--------------------------------*- C++ -*----------------------------------*\
| =========                 |                                                 |
| \\      /  F ield         | OpenFOAM: The Open Source CFD Toolbox           |
|  \\    /   O peration     | Version:  v1706                                 |
|   \\  /    A nd           | Web:      www.OpenFOAM.com                      |
|    \\/     M anipulation  |                                                 |
\*---------------------------------------------------------------------------*/
FoamFile
{
    version     2.0;
    format      ascii;
    class       volScalarField;
    location    "0.02";
    object      meanCollisionTime_O2;
}
// * * * * * * * * * * * * * * * * * * * * * * * * * * * * * * * * * * * * * //

dimensions      [0 0 1 0 0 0 0];


internalField   nonuniform List<scalar> 
5120
(
0.0001410756531
0.0001413206251
0.0001405580001
0.0001403021036
0.0001396057628
0.0001396235111
0.0001406349582
0.0001415507023
0.0001415159213
0.0001427840792
0.0001427690755
0.0001423301918
0.0001418425525
0.0001415477577
0.000141608731
0.0001415508303
0.0001416886755
0.0001414489958
0.0001408881498
0.0001404928081
0.0001411197382
0.0001409287674
0.00014040362
0.0001407767002
0.000141238849
0.0001405460368
0.0001392526815
0.0001403812711
0.0001406285836
0.0001410577584
0.0001408767882
0.0001412494723
0.000140773799
0.0001406248793
0.0001406682356
0.0001412569057
0.0001411717354
0.0001411411253
0.0001412725097
0.0001412865424
0.0001408247745
0.0001404743813
0.0001408779846
0.0001405536744
0.000139821263
0.0001405655128
0.0001402209691
0.0001399991587
0.0001401051554
0.0001408130493
0.0001412216179
0.0001407934061
0.0001401604552
0.0001402213391
0.0001399715106
0.0001400320293
0.0001401061076
0.0001402171124
0.0001400545724
0.000140348943
0.000141625011
0.000140484697
0.0001402210402
0.0001397437576
0.0001397404255
0.0001394670665
0.0001399250828
0.0001406776051
0.0001403302217
0.0001410987078
0.0001392981303
0.0001397017669
0.0001401237521
0.000140419186
0.0001415542626
0.0001411247242
0.0001411239905
0.000141211891
0.0001406178248
0.0001406872752
0.0001414940324
0.000142283055
0.0001421153133
0.0001414819232
0.0001414203559
0.0001414036313
0.0001406014229
0.0001407641591
0.0001407733836
0.0001412752556
0.0001409841867
0.0001405154233
0.0001402968875
0.0001410670799
0.0001407851784
0.0001407855749
0.0001412550262
0.0001410413245
0.0001413264158
0.0001412676787
0.0001412572883
0.0001405698403
0.0001410244662
0.0001423651262
0.0001431574165
0.0001424026312
0.000142092133
0.0001406749598
0.0001399508917
0.0001396959923
0.0001391044797
0.0001399067633
0.0001397827761
0.0001400913481
0.0001406640979
0.0001404311283
0.0001399507607
0.0001402528476
0.0001408950804
0.0001410215643
0.0001421979537
0.0001415658858
0.000141539157
0.0001405551936
0.0001403123933
0.0001402713641
0.0001400163414
0.0001403050354
0.0001406754225
0.0001400568836
0.0001409512281
0.0001405436495
0.0001412173167
0.0001406144809
0.0001405885033
0.0001408693959
0.0001407457558
0.0001406008904
0.0001417340825
0.0001417328262
0.0001412156345
0.000140990723
0.000141662244
0.0001417766505
0.0001414384128
0.0001405643715
0.0001393374148
0.0001398791161
0.0001398627158
0.000140521617
0.0001409890996
0.0001417463273
0.0001418156187
0.0001415372166
0.0001418303638
0.0001411616549
0.0001413713074
0.0001405046896
0.0001410008418
0.0001407785062
0.0001402924564
0.000140721452
0.0001407887742
0.0001404283216
0.0001401468984
0.0001403419231
0.0001407277239
0.0001409338382
0.0001405672831
0.000140311937
0.0001403773223
0.0001397456373
0.0001395004849
0.0001392964383
0.000138980345
0.0001405238172
0.0001397526955
0.0001400001176
0.0001405016785
0.0001402771657
0.0001407797417
0.0001403144859
0.0001401451126
0.0001403561976
0.0001407365006
0.0001408305541
0.0001420004759
0.0001418092785
0.0001415663169
0.000141564658
0.0001407937938
0.0001414122472
0.0001406114176
0.0001399928694
0.0001403337141
0.0001397773863
0.0001403516059
0.000140377001
0.0001409271598
0.0001411025458
0.0001407657797
0.0001408586967
0.0001413233905
0.0001417135334
0.0001416353118
0.0001416419614
0.0001416477604
0.0001408302131
0.0001407029077
0.0001403692508
0.0001401302959
0.0001399010875
0.0001410769098
0.0001418009353
0.0001416972969
0.0001408551481
0.0001406653299
0.0001408936469
0.0001405275274
0.0001411817795
0.0001412750008
0.0001416696637
0.0001407538256
0.0001404482169
0.0001404295796
0.0001399831273
0.0001402027753
0.0001414734342
0.0001413339367
0.0001417059357
0.0001410264828
0.0001418648615
0.0001416981999
0.0001410658737
0.0001410192494
0.0001412548497
0.0001413650826
0.0001417846525
0.0001417847139
0.0001410359343
0.0001407875895
0.0001406961349
0.0001406689088
0.0001409504134
0.0001411841709
0.0001414039589
0.0001416358939
0.0001417199636
0.0001418113018
0.0001408772581
0.0001411155674
0.0001414335616
0.0001416486663
0.0001421753517
0.0001421428849
0.0001422096017
0.0001419591984
0.0001421756032
0.0001405638741
0.0001405391791
0.0001410302331
0.0001414941819
0.0001409953229
0.0001406354442
0.0001406370737
0.000140651436
0.0001405573255
0.0001409422912
0.0001409752722
0.0001410435853
0.000140503148
0.0001404958073
0.0001396337895
0.0001398332765
0.0001393359719
0.0001399085867
0.0001405720368
0.0001407156062
0.0001411480673
0.0001417180301
0.0001412570855
0.0001417449404
0.0001421194031
0.0001415245328
0.0001418901379
0.000142772795
0.0001420681406
0.0001413215539
0.000140912027
0.0001406825474
0.0001403770943
0.0001405815161
0.0001406568881
0.0001404128661
0.0001412468445
0.0001418979907
0.0001413837579
0.0001408963117
0.0001410958927
0.0001404217264
0.0001410679919
0.000140455753
0.0001408397315
0.0001411838978
0.0001410281034
0.0001412588334
0.0001411252802
0.0001410954868
0.000141322678
0.0001412855929
0.0001421900417
0.0001411714638
0.0001407349968
0.0001405372672
0.0001408480259
0.0001411483145
0.0001419651351
0.0001414641316
0.0001413606765
0.0001416018684
0.0001414136387
0.0001412895295
0.0001416041474
0.0001414848302
0.0001408916998
0.0001409173606
0.0001418227575
0.0001415921125
0.0001405469122
0.0001401023549
0.0001411354554
0.0001412493405
0.0001413249312
0.0001417076223
0.0001417684817
0.0001411358261
0.0001412161259
0.0001415726184
0.0001418602119
0.0001422708736
0.0001387631145
0.0001381793664
0.000137829485
0.0001381573003
0.0001394685083
0.0001399350715
0.0001401814893
0.0001391537892
0.0001400123831
0.0001406977416
0.0001400735659
0.0001403569275
0.0001399338874
0.000139718496
0.0001394222185
0.0001388098406
0.0001393833096
0.0001391165102
0.0001388467907
0.0001394106322
0.0001406497385
0.0001412132158
0.0001413452604
0.0001409877558
0.0001414843631
0.0001416716492
0.0001412583829
0.0001412878221
0.0001408648357
0.0001398021711
0.0001397789149
0.0001403950341
0.0001408306524
0.0001415913242
0.0001408471523
0.0001413093399
0.0001406764907
0.0001409375344
0.000140755867
0.000140654731
0.0001411945317
0.0001409537293
0.0001409215941
0.000141253552
0.0001411356153
0.0001404456401
0.000140475121
0.0001407046572
0.0001417249692
0.0001408835823
0.0001419633131
0.0001427617497
0.0001419529645
0.0001410613236
0.0001417615513
0.0001418082064
0.0001413341906
0.0001414392797
0.0001425801834
0.0001416769245
0.0001399035144
0.000140223997
0.0001405275894
0.0001407757485
0.0001410078982
0.0001401180708
0.0001398091295
0.0001393258107
0.0001399587374
0.0001412541387
0.0001416305124
0.000141127053
0.0001407938002
0.0001413048381
0.000141351959
0.0001417946747
0.0001420471318
0.0001418581565
0.0001409111293
0.0001404804213
0.0001401995044
0.0001404296735
0.0001415644131
0.0001410457905
0.0001404981141
0.0001408941186
0.00014106357
0.0001411785309
0.0001406627159
0.0001408995199
0.000140156304
0.0001397553946
0.0001402129894
0.0001393731212
0.000139779743
0.0001403520625
0.0001398878972
0.0001404001364
0.0001400323652
0.000139306676
0.0001396065885
0.000139726763
0.0001382301883
0.0001377553717
0.0001389221598
0.0001394145084
0.0001398348322
0.0001395117432
0.000140158756
0.0001403798714
0.0001400355633
0.0001394766172
0.0001394874733
0.0001407276367
0.000140436512
0.0001406973578
0.0001415455205
0.000141295584
0.0001405133106
0.0001398718141
0.0001397372413
0.0001394393577
0.0001394619377
0.0001399435081
0.0001398549781
0.0001394709122
0.0001395613955
0.0001398741301
0.000140153233
0.0001400925327
0.0001400290754
0.000140780031
0.0001411957326
0.0001407197595
0.0001402799256
0.0001408729221
0.0001406602312
0.0001404368935
0.0001403099988
0.0001402979771
0.0001400097556
0.0001402077807
0.0001393204083
0.0001396189214
0.0001400599874
0.0001403301132
0.000140109131
0.0001407546151
0.0001414772617
0.0001406021682
0.0001404134875
0.0001401643199
0.0001397670667
0.0001402833045
0.0001399251169
0.0001395138862
0.0001388898162
0.000139262054
0.0001392737141
0.0001399614398
0.0001417743964
0.0001416526601
0.0001414963208
0.0001426922512
0.0001425248003
0.0001423608995
0.0001410051592
0.0001412055545
0.0001412362516
0.0001422495221
0.0001419461201
0.0001414851109
0.0001409750404
0.0001420242927
0.0001416046375
0.0001416513686
0.0001411714029
0.0001407688063
0.0001406046955
0.0001403223342
0.0001410300198
0.0001406059285
0.0001397657028
0.0001400148196
0.0001403108772
0.0001402751227
0.0001406929071
0.0001406617255
0.0001402264354
0.0001413300871
0.0001422564054
0.0001420741878
0.0001415026413
0.0001403803185
0.0001401281904
0.0001407529437
0.0001417619811
0.0001416985765
0.0001417961004
0.000141185759
0.0001413390885
0.0001419435063
0.0001413831674
0.0001409034287
0.0001412663419
0.0001411981047
0.0001409236618
0.0001404973129
0.0001412206896
0.0001418351876
0.0001418469818
0.000141087522
0.00014094359
0.0001411378109
0.0001407558414
0.000141127674
0.0001407946378
0.0001409594616
0.0001414242265
0.0001419759902
0.0001412165244
0.0001405484938
0.0001403385134
0.000140002599
0.0001403454344
0.000140080267
0.0001402123286
0.0001405590168
0.0001410424076
0.0001402910631
0.0001410435037
0.0001403666213
0.0001411601167
0.0001414294815
0.0001418563856
0.0001419833869
0.0001421449717
0.0001423251185
0.0001418911331
0.0001417382233
0.0001407479179
0.0001405038087
0.0001405152905
0.0001411594482
0.0001411470755
0.0001409463755
0.0001410238967
0.0001402756445
0.0001407668401
0.0001405600428
0.0001398517947
0.0001397971068
0.000140683545
0.0001409392297
0.0001416266491
0.0001417585364
0.0001410318436
0.0001409587217
0.0001406610932
0.0001398171829
0.0001419488904
0.0001412796469
0.0001408014912
0.0001412677881
0.0001409947869
0.0001409637641
0.0001403154082
0.0001406736792
0.000140832539
0.000141462042
0.000141568237
0.0001416719312
0.0001414874608
0.000142272296
0.0001426309128
0.0001418863815
0.0001416110378
0.0001408749831
0.0001412127817
0.000141890864
0.0001403998971
0.0001403578538
0.0001407487047
0.0001407644437
0.0001409274832
0.0001406716357
0.0001410381932
0.0001406125046
0.0001404664133
0.0001407166812
0.0001409115999
0.0001407746246
0.0001407170088
0.0001400899221
0.0001401736908
0.0001409217613
0.0001408228461
0.0001409610986
0.0001405913045
0.0001402897361
0.0001402694112
0.0001400023786
0.0001400682156
0.0001414165642
0.0001408627734
0.0001404967147
0.0001394997187
0.0001394689025
0.0001400669079
0.0001412070791
0.0001411744413
0.0001412078937
0.0001410005347
0.000140360387
0.0001415006661
0.0001418583797
0.0001426615165
0.0001416167028
0.000140606025
0.0001408485067
0.0001407765396
0.0001404903988
0.0001413629196
0.0001410267299
0.0001412100127
0.0001413746826
0.0001414803446
0.0001419194228
0.0001411906098
0.0001409604886
0.0001405913461
0.0001406540749
0.0001407492765
0.0001410443019
0.0001415162615
0.0001413169774
0.0001407850684
0.000139972461
0.0001404976957
0.0001403379521
0.0001412697597
0.0001414780304
0.0001409165596
0.0001399585826
0.0001404526624
0.0001408266545
0.0001410959629
0.000141003803
0.0001418509677
0.0001424402811
0.0001417795044
0.0001414813678
0.000140494864
0.0001402828759
0.0001403551406
0.0001405219751
0.0001403560733
0.0001405277005
0.0001406636181
0.0001412134362
0.000141032145
0.0001419484688
0.0001418509029
0.0001421630319
0.0001421067267
0.0001409353385
0.0001416495522
0.0001421083278
0.0001416846191
0.0001406886695
0.0001403640548
0.0001409157762
0.0001417454837
0.0001412343134
0.0001412283831
0.0001413713766
0.0001409545274
0.0001406615794
0.0001403115637
0.0001400965431
0.0001417292994
0.0001411514623
0.0001412905733
0.0001413944825
0.0001408027221
0.0001415469357
0.0001419699922
0.0001420658657
0.0001409676375
0.0001402493266
0.0001402301671
0.0001406974498
0.0001408796516
0.0001405099119
0.0001407167422
0.0001398245949
0.0001403702686
0.0001411507698
0.0001418944013
0.0001417483125
0.000141932305
0.0001410234422
0.0001400568741
0.0001397421236
0.0001396365903
0.000140081661
0.0001394700084
0.0001401615849
0.0001401835354
0.0001410501693
0.0001413166774
0.0001412076443
0.0001409613417
0.0001412583684
0.0001410436185
0.0001408652434
0.0001405485266
0.0001406095929
0.0001405187374
0.0001419378148
0.0001411416841
0.0001410695746
0.0001419627137
0.0001418371126
0.0001413808141
0.0001407361989
0.0001402040174
0.0001404678619
0.0001396388086
0.0001394627054
0.0001400535703
0.000141635802
0.0001415594847
0.000140983208
0.0001407115148
0.0001415010273
0.0001411322309
0.0001420378239
0.0001416318421
0.0001409715225
0.0001407122444
0.0001411830219
0.0001404459539
0.0001405821215
0.0001402826002
0.0001403799072
0.0001403546974
0.0001395114035
0.0001400015516
0.0001395797061
0.0001393765902
0.0001397005254
0.0001392853616
0.0001402146772
0.0001413016487
0.0001407707459
0.0001403820256
0.0001400245135
0.0001401464064
0.0001405105311
0.000139040056
0.0001394041307
0.0001395466992
0.0001389910802
0.0001394402683
0.0001398392691
0.0001397709563
0.0001396773297
0.0001382529542
0.000139062165
0.0001391885385
0.0001395385516
0.0001388825587
0.0001383586761
0.0001382231524
0.0001385969807
0.0001394834243
0.000139186506
0.0001397078824
0.0001392061762
0.0001396807915
0.0001396321031
0.0001398704526
0.0001399233816
0.0001399973897
0.0001407749199
0.0001412243667
0.0001411181331
0.0001413367141
0.0001407364755
0.000140524378
0.0001410214268
0.0001419060083
0.0001408992737
0.0001399898618
0.000139368181
0.0001390566235
0.0001401773581
0.0001396443391
0.0001397883853
0.0001412831297
0.0001419078874
0.000141821415
0.0001416195834
0.000141105592
0.0001405031786
0.0001397040515
0.0001392477831
0.0001391295214
0.0001391182369
0.0001398327591
0.0001400318926
0.0001403677238
0.0001402918168
0.00014076588
0.0001409041006
0.0001406630621
0.0001403880201
0.0001407128617
0.0001407760752
0.0001407409632
0.0001409189367
0.0001411061093
0.0001408238657
0.0001403805909
0.0001419176079
0.0001419428128
0.0001416403893
0.000141676008
0.0001410584931
0.0001407697941
0.0001418759121
0.0001412025666
0.0001413295892
0.0001407096711
0.0001405228605
0.0001398296483
0.0001395752956
0.0001397100584
0.0001403575528
0.0001404162828
0.0001414248534
0.0001405793658
0.0001413210682
0.0001405559681
0.000140656146
0.0001400878677
0.0001397049511
0.0001395798437
0.0001406912795
0.0001403553542
0.0001410903929
0.0001417514075
0.0001405751255
0.0001409425594
0.0001408001866
0.0001412209641
0.0001420161403
0.0001420688063
0.0001416026904
0.0001388728056
0.000139416032
0.0001395504206
0.0001402145905
0.0001410966919
0.0001412922938
0.0001410557423
0.0001404991011
0.000140199247
0.0001405443635
0.0001412967887
0.0001406182721
0.000139998595
0.0001404518701
0.0001403314537
0.0001403197221
0.0001410852208
0.0001399667527
0.0001389678105
0.0001393184223
0.0001410224598
0.0001409739354
0.0001411611839
0.0001404667949
0.0001401828914
0.00013991153
0.0001400417762
0.0001406971095
0.0001409841085
0.0001420422543
0.0001411082651
0.0001412486084
0.0001415094241
0.0001411225525
0.0001410376843
0.0001402102064
0.0001405399218
0.0001411856528
0.0001414295935
0.000140993773
0.0001408145211
0.0001415268016
0.0001403918665
0.0001402596858
0.000140760901
0.0001407767388
0.0001408675767
0.0001413080583
0.0001417888597
0.0001419553598
0.0001413023488
0.0001417625821
0.0001418477671
0.0001414729147
0.0001410700969
0.0001414768477
0.0001410503926
0.0001415614329
0.0001410975785
0.000141418171
0.0001413155447
0.0001417474354
0.0001413018827
0.0001405823839
0.0001401618197
0.0001397924275
0.0001396849644
0.0001397276805
0.000140113562
0.0001397757647
0.0001400171512
0.0001398264674
0.0001404726262
0.0001410322274
0.0001402903609
0.0001405128723
0.0001401537013
0.00014116285
0.0001421545473
0.0001414209043
0.0001421301406
0.0001415445219
0.0001407096991
0.0001401483321
0.0001406400711
0.0001410757242
0.0001418650916
0.0001411865649
0.0001406339114
0.0001409058941
0.0001416429395
0.0001415465512
0.0001419788254
0.0001407437502
0.0001406715832
0.0001407674865
0.0001409636725
0.0001418843741
0.0001422194761
0.0001426186143
0.0001405455467
0.0001413155023
0.0001413470711
0.0001423867948
0.0001416558978
0.0001419047783
0.000141059017
0.0001398156895
0.0001406270636
0.0001408677578
0.0001413041828
0.0001413474785
0.0001410715598
0.0001410583941
0.0001410292768
0.0001411389906
0.0001409190185
0.0001412237787
0.0001413499151
0.0001411759283
0.0001405212565
0.0001406313586
0.0001406364708
0.0001410696163
0.0001412533307
0.0001417645425
0.0001420085194
0.0001417463188
0.0001414387957
0.0001423734381
0.0001421264906
0.0001421783282
0.0001414501811
0.0001407580011
0.0001409410745
0.0001407251561
0.0001415546992
0.0001410132466
0.0001411373994
0.0001408970593
0.0001421398714
0.000142086824
0.000142049207
0.0001421260008
0.0001419224309
0.0001409754381
0.0001409143497
0.0001403758298
0.0001407649393
0.0001403656845
0.0001399983594
0.0001401446212
0.000140192844
0.0001402753144
0.0001403673583
0.0001411701303
0.0001413295639
0.0001424083008
0.0001416682578
0.0001418374295
0.0001403889707
0.000140778267
0.0001406013556
0.0001407638086
0.0001415160545
0.0001415811063
0.0001416327236
0.000141615859
0.0001419337425
0.0001405591734
0.0001404791831
0.0001409892452
0.0001410177641
0.0001407729902
0.0001406492408
0.0001409412748
0.0001410058189
0.0001406097095
0.0001400104138
0.0001396298054
0.0001416285777
0.0001413007296
0.0001411827507
0.0001413691527
0.0001406421379
0.0001404586218
0.000139925352
0.0001398402757
0.0001405259306
0.000141456238
0.000141952852
0.0001414946868
0.0001415903961
0.0001419746079
0.0001427852448
0.0001425477227
0.0001416725447
0.0001413471479
0.0001412501213
0.0001414565147
0.0001397462028
0.0001393791159
0.00014054033
0.0001407846503
0.0001406481607
0.0001398361879
0.0001406516563
0.0001409735411
0.0001407566445
0.0001403454005
0.00014059604
0.0001408255106
0.0001412495573
0.0001406686222
0.0001407544261
0.0001406447816
0.0001407891459
0.0001407654959
0.0001404492644
0.0001400511011
0.0001401606505
0.0001398613346
0.0001395611088
0.0001394164217
0.0001397608056
0.000139980765
0.000139868217
0.0001399079492
0.0001399912406
0.0001398244196
0.000139412626
0.0001389690688
0.0001393345326
0.0001400508087
0.0001404111732
0.0001403710351
0.0001409665782
0.0001402081265
0.0001397710647
0.0001401512063
0.0001406864427
0.0001412343829
0.000141788917
0.0001412617591
0.0001409176624
0.0001409565393
0.000142028079
0.0001422892104
0.0001422865527
0.0001411878193
0.0001402322903
0.0001398181944
0.0001393637058
0.0001400856131
0.0001410986156
0.0001414222368
0.0001411281693
0.0001401871113
0.00014003266
0.0001395489738
0.0001412307828
0.0001412119344
0.0001403992236
0.0001401262025
0.0001399833854
0.000140054481
0.0001394393373
0.0001393552206
0.0001396638973
0.0001401758205
0.000140872781
0.0001404439154
0.0001403393388
0.0001408709571
0.0001408560084
0.0001412308109
0.0001411306989
0.0001411030356
0.0001412956299
0.0001417565069
0.0001410735133
0.0001406420137
0.0001399548059
0.0001399976575
0.0001396836542
0.000139225331
0.0001389791706
0.0001387058129
0.0001394084191
0.00013996136
0.0001407955837
0.0001406370145
0.0001406124004
0.0001400743024
0.0001399890083
0.0001400848674
0.0001412064856
0.0001414535121
0.0001422391725
0.0001419817028
0.0001408446311
0.0001412890101
0.0001399786168
0.0001405501512
0.0001400156405
0.0001403406155
0.0001405099148
0.0001398190302
0.0001400933772
0.0001399207835
0.0001396602185
0.0001404991245
0.000140995291
0.0001415079326
0.0001409686445
0.0001414718318
0.0001411610128
0.0001410099272
0.0001411810073
0.0001407133661
0.0001409699688
0.0001399103145
0.0001409579216
0.0001411105759
0.0001411207729
0.0001412436733
0.0001412952896
0.000140492419
0.0001406735861
0.0001403437122
0.0001400602312
0.0001385160666
0.0001396780345
0.0001410754911
0.0001410762781
0.0001411174956
0.0001407503568
0.0001404446823
0.0001408460221
0.0001404494626
0.0001418677053
0.0001413500972
0.0001408002379
0.0001402453741
0.0001402465484
0.000140945905
0.0001423248261
0.0001424492616
0.0001414536388
0.0001414082592
0.000141924513
0.0001421506305
0.0001422217437
0.0001411097132
0.0001414378889
0.0001419057028
0.0001417827496
0.000141685619
0.0001422414916
0.0001423250409
0.0001426134662
0.0001425567073
0.0001436593519
0.000144248326
0.0001434000771
0.0001425389499
0.000142011947
0.0001411041115
0.0001407176619
0.0001400662768
0.0001394863354
0.000140823959
0.0001406152853
0.0001402269716
0.0001406996673
0.0001404450425
0.0001407444374
0.000141309831
0.0001410425393
0.0001417436445
0.0001403645226
0.0001405527364
0.0001407855095
0.0001419029759
0.0001416114263
0.0001415079412
0.000141273298
0.0001413952502
0.0001410491957
0.0001410091822
0.0001408129558
0.0001403112791
0.0001406312789
0.0001407268197
0.0001408833994
0.0001401768184
0.0001408705472
0.0001398343521
0.0001394887103
0.0001397207364
0.0001407005722
0.0001417082241
0.0001416371211
0.0001411277316
0.0001412025847
0.0001410812711
0.0001411262036
0.0001419155668
0.0001405888192
0.0001397365168
0.000139887274
0.0001404510239
0.0001409669752
0.0001413845033
0.0001410810601
0.0001407522886
0.0001399502276
0.0001393534457
0.0001395390337
0.0001399957031
0.0001419042647
0.000141987264
0.0001415218315
0.0001413644832
0.0001417713357
0.0001411753929
0.000141134357
0.0001411066755
0.0001418867677
0.0001417555337
0.0001409513674
0.0001409292546
0.0001403488464
0.0001396999669
0.000140415517
0.0001411272687
0.0001413601043
0.000141413508
0.0001416881332
0.0001422857485
0.0001412619913
0.000140773131
0.0001411286094
0.0001408940558
0.0001407495357
0.0001416216312
0.0001424595489
0.0001425528639
0.0001414695675
0.000141375479
0.0001408988259
0.000140874335
0.0001425914098
0.0001428442218
0.0001422780949
0.0001420203749
0.0001415428478
0.000142134833
0.0001414308552
0.0001409945934
0.0001396125188
0.0001400697007
0.0001398764366
0.0001400887339
0.000139782714
0.0001403949137
0.0001403068286
0.0001400052299
0.0001405257647
0.000141176022
0.0001420662915
0.0001424452434
0.0001416034154
0.0001407203833
0.0001398372027
0.0001397041019
0.0001401315143
0.0001406582664
0.0001404113436
0.0001410493472
0.0001400534395
0.0001399304292
0.0001409213489
0.0001412249543
0.0001409506476
0.0001410448341
0.0001405242333
0.0001413180238
0.0001413919976
0.0001415191499
0.0001418151585
0.0001417554341
0.0001409761613
0.0001402108859
0.0001400021838
0.0001397371661
0.000138752248
0.0001386892883
0.0001394977518
0.0001405138439
0.000139929354
0.0001393750919
0.0001409352953
0.0001402866417
0.0001399466879
0.0001407025591
0.0001411100523
0.0001415726342
0.0001418956996
0.0001411925847
0.0001418310495
0.0001410717143
0.0001409311479
0.0001415118524
0.0001404936975
0.000139824136
0.0001407683804
0.0001405618776
0.0001406718416
0.0001402915414
0.0001408334877
0.0001412682434
0.0001417290996
0.0001406313371
0.000140600691
0.0001404016453
0.0001410343116
0.0001409500044
0.0001397910243
0.0001404641845
0.0001398118835
0.0001395248548
0.0001395050472
0.0001396793855
0.0001396149562
0.0001396518663
0.0001395532904
0.0001402995926
0.0001398963395
0.0001399713143
0.0001404585471
0.0001404828456
0.0001392657962
0.000140987023
0.0001412754369
0.0001403727186
0.0001403401657
0.000138949528
0.0001398663217
0.0001395907735
0.0001398777703
0.00014055405
0.0001408670658
0.000139926537
0.0001392559836
0.0001396089065
0.0001400291109
0.0001398444682
0.0001407493176
0.0001409600897
0.0001404993704
0.0001405720791
0.0001406533378
0.0001405506068
0.0001413527708
0.0001416225003
0.0001423002632
0.0001413462865
0.0001416152218
0.0001422824818
0.0001416811182
0.0001417401956
0.0001415732992
0.0001403709357
0.0001401442191
0.0001406161325
0.0001403083986
0.0001404218902
0.0001412766379
0.0001409765209
0.0001412668177
0.0001409169337
0.0001410006156
0.000140823582
0.0001397164173
0.0001396689257
0.0001404017508
0.0001399993356
0.0001399154761
0.0001389110166
0.0001384860984
0.0001384871837
0.0001397758111
0.0001394057976
0.0001394323109
0.000139700758
0.0001413294009
0.0001414801633
0.0001407873155
0.0001399508091
0.0001410774753
0.0001409207219
0.000140744903
0.0001402600862
0.0001415206553
0.0001414820736
0.0001421850316
0.0001424148827
0.0001424022843
0.000141527057
0.0001407235592
0.000140609709
0.0001412478173
0.0001411695373
0.0001414375439
0.0001413956034
0.0001413198864
0.0001412120604
0.0001408494359
0.0001413684113
0.0001413374635
0.0001414363268
0.0001414913349
0.0001409996982
0.0001403137683
0.0001405088487
0.0001407717264
0.0001405607268
0.0001399402318
0.0001400718039
0.0001411407623
0.0001409387746
0.0001401696609
0.0001409125306
0.0001423734997
0.0001420806889
0.0001423519027
0.0001415739224
0.0001409972285
0.000140452539
0.0001419533439
0.0001428111278
0.0001424737587
0.0001421583753
0.0001412643703
0.000140802246
0.0001409250356
0.0001417332993
0.0001419051696
0.0001413693325
0.0001425374168
0.0001426425294
0.0001428656645
0.0001422457769
0.000140996897
0.0001399472384
0.0001398768544
0.0001401807886
0.0001409733758
0.0001418704563
0.0001400371561
0.0001398394435
0.0001411680866
0.0001408263817
0.0001414940359
0.0001418596231
0.0001423691896
0.0001425154101
0.0001419143908
0.0001420697407
0.0001416634231
0.0001408367577
0.0001403146342
0.0001397695153
0.0001391967442
0.0001399835625
0.0001403124477
0.0001402806701
0.0001406063798
0.0001408470061
0.0001409382992
0.0001405478046
0.0001413846114
0.0001408509351
0.0001408657166
0.0001414745381
0.0001416411944
0.0001414893238
0.000141753622
0.0001415147377
0.0001412195931
0.000141582702
0.0001413168071
0.0001419188732
0.0001418951593
0.0001421078354
0.0001411599899
0.0001410274171
0.0001406260399
0.0001403837998
0.0001413409724
0.0001418176934
0.0001411101201
0.000141026466
0.0001405510668
0.0001398923284
0.0001402606021
0.0001402372719
0.0001406417211
0.0001410554155
0.0001413635968
0.0001405995418
0.0001402984214
0.0001413078563
0.0001410120168
0.0001417591684
0.0001419145758
0.0001409759685
0.0001405590347
0.0001414845035
0.0001402831409
0.000139902486
0.0001409217828
0.0001413614832
0.0001421804415
0.0001415787416
0.0001413665635
0.0001409593941
0.0001402478693
0.0001405723084
0.000140533565
0.0001406783013
0.0001414511709
0.0001401954188
0.0001396675781
0.0001403076694
0.0001412387678
0.0001418850476
0.0001418686143
0.0001410082988
0.000141502544
0.0001412731451
0.0001407423338
0.0001412548963
0.0001416157057
0.0001412683512
0.0001419334232
0.0001421250095
0.0001412218003
0.0001407473048
0.0001408024975
0.0001392841663
0.0001396497401
0.0001398036936
0.0001403547551
0.0001398537819
0.000139882631
0.0001404054102
0.0001408118404
0.0001412213908
0.0001394839221
0.0001396867745
0.0001403407894
0.000139555616
0.000139093139
0.000139977478
0.0001393953139
0.0001387215873
0.0001400475093
0.0001404014774
0.0001406426206
0.0001407305259
0.0001399785874
0.0001407033984
0.0001411601948
0.0001413938939
0.0001402301153
0.0001393036985
0.0001394012806
0.0001397221246
0.0001395724832
0.0001400275782
0.0001392233475
0.0001397308492
0.0001386479822
0.0001389671215
0.0001394800836
0.0001406881681
0.0001404968547
0.0001411660965
0.0001408914342
0.000140542583
0.0001405074993
0.0001415377255
0.0001403023919
0.0001400298965
0.0001396935316
0.0001397871417
0.0001392310386
0.0001392124087
0.000140084774
0.0001400916814
0.0001397280163
0.0001397226412
0.0001398124813
0.0001403592847
0.0001402639314
0.0001386087236
0.0001387012727
0.0001385798838
0.0001382490074
0.0001379994579
0.0001382811581
0.0001384204796
0.0001386233116
0.0001392177379
0.0001398195875
0.0001389978992
0.0001388010093
0.0001393390683
0.0001406029192
0.00014113009
0.0001404712655
0.0001405793652
0.0001399298169
0.0001399094182
0.0001402470013
0.0001400178643
0.000140266281
0.0001403652119
0.0001399647215
0.0001399422099
0.0001410520646
0.0001406058665
0.0001409862899
0.0001405829029
0.0001403070166
0.0001400812691
0.0001402302738
0.0001403373794
0.0001409389914
0.0001409549599
0.0001410678515
0.0001409025697
0.0001407817801
0.0001415902673
0.0001411352117
0.0001406447478
0.0001407442748
0.0001407347225
0.0001405572132
0.0001407121796
0.0001409315401
0.0001408006046
0.0001409043397
0.0001411426903
0.000140780084
0.0001413401186
0.0001412134467
0.000141289078
0.0001414244983
0.0001409005207
0.0001405090468
0.0001406035239
0.0001412087953
0.000140965488
0.0001408693161
0.0001414742199
0.0001411199364
0.0001424983669
0.0001429462602
0.0001418666512
0.0001411648766
0.0001412561057
0.0001420140714
0.0001419887026
0.0001413480694
0.0001411503867
0.000141417387
0.0001414878349
0.0001389212864
0.0001393817782
0.000140118232
0.000140500553
0.0001403044775
0.0001408892591
0.000140539396
0.0001412010388
0.000141949683
0.0001420860103
0.0001419144697
0.0001418617674
0.0001411024141
0.000140869207
0.0001405845938
0.0001411936805
0.0001411624155
0.0001409133349
0.0001398092304
0.0001395647329
0.0001408442604
0.0001415292776
0.0001415512697
0.000141401924
0.0001412974476
0.0001414292854
0.0001410421204
0.0001399832845
0.00013968753
0.0001404986114
0.0001415817411
0.000141142545
0.0001402402654
0.0001401986944
0.0001401985682
0.0001402807083
0.0001395348359
0.0001392085764
0.0001394536249
0.0001406743241
0.000140360243
0.000140584498
0.0001416232615
0.0001419559884
0.0001421539948
0.0001416861484
0.0001413643725
0.0001413821515
0.000140882943
0.0001413326868
0.0001413086377
0.0001415930078