/*--------------------------------*- C++ -*----------------------------------*\
| =========                 |                                                 |
| \\      /  F ield         | OpenFOAM: The Open Source CFD Toolbox           |
|  \\    /   O peration     | Version:  v1706                                 |
|   \\  /    A nd           | Web:      www.OpenFOAM.com                      |
|    \\/     M anipulation  |                                                 |
\*---------------------------------------------------------------------------*/
FoamFile
{
    version     2.0;
    format      ascii;
    class       volScalarField;
    location    "0.02";
    object      mfpCellRatio_N2;
}
// * * * * * * * * * * * * * * * * * * * * * * * * * * * * * * * * * * * * * //

dimensions      [0 0 0 0 0 0 0];


internalField   nonuniform List<scalar> 
5120
(
3.379179146
3.3837945
3.387173541
3.380705839
3.379549273
3.374125823
3.381952791
3.38620146
3.396357846
3.398495269
3.403711041
3.406103518
3.40180698
3.401345159
3.397298631
3.397907023
3.404856176
3.393108339
3.390201923
3.388173967
3.405933038
3.404815887
3.396163568
3.393433231
3.404129673
3.416226385
3.41314203
3.412112843
3.400995369
3.407964822
3.393475472
3.394850526
3.405508335
3.403653558
3.408041305
3.393714005
3.400521332
3.393002349
3.403417828
3.397771812
3.411192132
3.416497882
3.415246049
3.415138558
3.402131337
3.397230896
3.409765031
3.40653019
3.403287899
3.400465301
3.400443464
3.396526357
3.396698254
3.393824713
3.384343936
3.395205168
3.39412592
3.405649883
3.406352043
3.410110856
3.408808217
3.408922565
3.405327672
3.405763546
3.403161269
3.404804506
3.403812586
3.403745137
3.406842329
3.410028119
3.40894344
3.408871689
3.409599268
3.42338656
3.417142392
3.419801337
3.418919085
3.402324538
3.405162225
3.411637032
3.407308112
3.40585669
3.398192641
3.406941834
3.410832136
3.416004992
3.422958109
3.421268345
3.427298738
3.425605772
3.424618317
3.406951563
3.412005894
3.401818906
3.403365004
3.41079932
3.409780292
3.41156963
3.407825166
3.409195105
3.41078899
3.410080485
3.411473284
3.416539213
3.398161454
3.40554825
3.41985125
3.429141799
3.433243309
3.422419257
3.42254313
3.410998736
3.415931748
3.401074088
3.410680207
3.408745958
3.411901572
3.410120007
3.419257377
3.412949101
3.421058976
3.425572372
3.418592673
3.408668113
3.417838081
3.415806446
3.417979489
3.418039796
3.417013134
3.426305394
3.427943195
3.412394286
3.410569403
3.411755435
3.413032617
3.413195044
3.416465693
3.415892852
3.412232394
3.428456771
3.420971167
3.424918654
3.432223466
3.43293836
3.428943828
3.43437838
3.438144567
3.435255116
3.437225098
3.429127237
3.431101999
3.436105308
3.43006114
3.413321284
3.410745038
3.410208435
3.407751787
3.4117194
3.41742147
3.410372606
3.41681743
3.421683226
3.416820036
3.42068092
3.422422995
3.412649241
3.41534328
3.422003654
3.411954469
3.415488774
3.410609665
3.410171993
3.413608731
3.416622954
3.418010756
3.412407033
3.404770235
3.40665645
3.408431743
3.407748676
3.412808683
3.406034843
3.409119078
3.422974758
3.414904571
3.418718284
3.406267487
3.399787378
3.402359283
3.422114964
3.433636012
3.42539732
3.423228761
3.420523389
3.414763029
3.430383182
3.428827123
3.432456591
3.416085245
3.410505854
3.393370546
3.38641187
3.386802814
3.385239379
3.396477159
3.40122058
3.413121525
3.414334159
3.415553169
3.415719385
3.408990535
3.399118051
3.39924766
3.396897598
3.405705474
3.40833336
3.396858548
3.400798126
3.402582656
3.400701436
3.41990729
3.427924848
3.419308812
3.421658499
3.413139173
3.40910192
3.400598906
3.401144745
3.401112104
3.403664054
3.402887585
3.401805279
3.405231687
3.398990882
3.396301441
3.402513543
3.404540308
3.405321883
3.413575419
3.419637231
3.39842944
3.402855823
3.399285551
3.40586262
3.412395875
3.413207147
3.41386306
3.421244625
3.414920498
3.418548339
3.417730116
3.405827806
3.406672499
3.400383494
3.392155106
3.397685395
3.394800484
3.395059323
3.393341174
3.394821102
3.394598987
3.401369183
3.402655037
3.40129985
3.404595014
3.410324684
3.407214538
3.39813385
3.40236044
3.397529289
3.390376597
3.390792996
3.38457682
3.390817816
3.393647377
3.397074716
3.399180641
3.399264688
3.39991341
3.409798123
3.409986508
3.416383083
3.423357627
3.424963899
3.420066141
3.420018995
3.422726948
3.424506539
3.40430922
3.403355359
3.391197176
3.403798949
3.398601207
3.4072508
3.408863324
3.430535961
3.424213248
3.412286057
3.401334768
3.401924378
3.405079372
3.402205719
3.410044197
3.409402891
3.418629958
3.406741964
3.400569932
3.391670713
3.389470116
3.395445982
3.407870777
3.408794638
3.414552438
3.416624665
3.413753221
3.398951787
3.391732447
3.392721667
3.397561817
3.400455231
3.406149638
3.397544564
3.398839474
3.395796165
3.390830005
3.388967232
3.393900944
3.398178324
3.401271739
3.390839322
3.380136102
3.398558598
3.413862602
3.40836241
3.395882463
3.402046298
3.406513067
3.404075115
3.411306833
3.411486235
3.404223711
3.406025412
3.40743993
3.412813824
3.412672013
3.400056135
3.414582269
3.410460307
3.416743382
3.411538847
3.417100186
3.407420726
3.401236531
3.405235335
3.414633323
3.413818169
3.414218915
3.42177905
3.416969485
3.410291756
3.397021683
3.390538589
3.400616239
3.400232926
3.402710584
3.408303883
3.400055196
3.400677724
3.40129167
3.406662269
3.412609301
3.411788495
3.401111408
3.404320859
3.404117444
3.398236634
3.391200486
3.387769006
3.396803638
3.392788406
3.416682199
3.417966953
3.417759864
3.414659174
3.421418675
3.407314997
3.408152598
3.402967242
3.404672475
3.40693168
3.406865617
3.409913163
3.407888169
3.40842176
3.41117269
3.40812137
3.404253707
3.419228723
3.410751771
3.415605669
3.39977776
3.401211758
3.40133097
3.401346958
3.400207663
3.390254547
3.39361813
3.391928667
3.396504619
3.392495452
3.399605243
3.398430243
3.406277579
3.406434494
3.420459413
3.414472738
3.418000825
3.419075574
3.413123699
3.403368398
3.410061611
3.407649536
3.403519054
3.402298258
3.403796258
3.399788275
3.393043042
3.382633946
3.388945807
3.393625679
3.392428775
3.413095658
3.409861961
3.407952932
3.411427225
3.410865855
3.403437021
3.413152807
3.404983324
3.411835051
3.404902449
3.407220252
3.403272041
3.412369208
3.40440031
3.398796827
3.396702565
3.399929695
3.390394896
3.392836544
3.396943747
3.410476519
3.4135538
3.409131143
3.405735295
3.404609586
3.407877091
3.408511295
3.405905725
3.408804792
3.388137231
3.391913873
3.385308494
3.384603826
3.392933129
3.397430221
3.394587241
3.407011802
3.415793855
3.411216375
3.404123167
3.406523555
3.398047872
3.405181704
3.405387843
3.395152937
3.404233734
3.404503127
3.406322983
3.3929933
3.406452405
3.400745528
3.411393036
3.409078244
3.419008925
3.417442176
3.413018557
3.405447218
3.413839482
3.411293864
3.421183129
3.4128675
3.408518598
3.408001134
3.397786564
3.399502193
3.401134749
3.399007808
3.399462428
3.402907078
3.428207402
3.429583845
3.430252122
3.418424542
3.407441837
3.403905034
3.405581119
3.405813822
3.406914636
3.407486679
3.399518031
3.404065684
3.410560286
3.417719464
3.432056833
3.430940383
3.424866555
3.429092729
3.423374691
3.429371316
3.409212282
3.413335477
3.411258346
3.402252398
3.403570899
3.404666134
3.412979004
3.404459566
3.411512341
3.408500946
3.419527344
3.431907002
3.429765982
3.430025578
3.423554341
3.419854086
3.413309503
3.407725403
3.405548157
3.403023406
3.390111789
3.392157719
3.389939779
3.395616426
3.399883738
3.394050615
3.388814887
3.389819653
3.395791615
3.391175372
3.395616253
3.394132198
3.406265893
3.413543302
3.414027043
3.406133042
3.401160204
3.403325877
3.397248924
3.394689559
3.395469788
3.396644788
3.387296855
3.392370547
3.392040566
3.399028768
3.408585736
3.401139224
3.395688669
3.392042183
3.398163101
3.397952865
3.396864265
3.397060845
3.396331113
3.403543025
3.405372978
3.398968276
3.401943137
3.400558362
3.417100145
3.406677351
3.409932766
3.405794201
3.397592302
3.40491346
3.404133255
3.405877845
3.407897544
3.403903509
3.406547711
3.407549543
3.410072381
3.408024987
3.400030369
3.402477166
3.400898571
3.408817894
3.420175257
3.412455623
3.396034878
3.396513151
3.386988197
3.387999231
3.384547363
3.385673119
3.393671005
3.398272917
3.406810267
3.410790983
3.410754299
3.398225799
3.385932244
3.397381701
3.403697043
3.395296797
3.403338543
3.395656411
3.398252762
3.405818709
3.390048736
3.396002386
3.397635166
3.400336716
3.396229352
3.398979009
3.402812788
3.391735951
3.397923363
3.404553079
3.40366577
3.402294542
3.404816318
3.399506894
3.398439581
3.402980265
3.39863948
3.398052149
3.387078941
3.386146593
3.411578793
3.4158039
3.408401564
3.409972283
3.401703297
3.395641659
3.397162952
3.403206957
3.405382534
3.394348808
3.392982988
3.398293014
3.388029227
3.392346342
3.395713795
3.410478848
3.411133251
3.408789115
3.411664584
3.410173239
3.42043859
3.418412513
3.421663811
3.419561123
3.42035273
3.429533286
3.425654372
3.428338525
3.427439415
3.418357101
3.412218108
3.403439389
3.410211086
3.406941661
3.405059099
3.40361609
3.410247212
3.403270691
3.411641252
3.411284873
3.404473087
3.40007753
3.398214114
3.393712279
3.394868848
3.400914583
3.39976448
3.418415447
3.420793892
3.422893743
3.429984623
3.428698624
3.437239866
3.422378116
3.43802305
3.421417667
3.416146305
3.413219771
3.403578591
3.401531902
3.421987449
3.412589496
3.416836594
3.418130494
3.404915402
3.404129093
3.401919278
3.400371339
3.408625136
3.411874325
3.40526329
3.410865533
3.416084918
3.403191058
3.399872415
3.408112321
3.413230241
3.409800097
3.418692776
3.421192014
3.408601999
3.404338939
3.406914989
3.407191327
3.409724781
3.404063053
3.409339073
3.407407097
3.398963467
3.387099672
3.389531287
3.394804047
3.398723178
3.401171641
3.413768086
3.42357215
3.417142223
3.414687743
3.41191321
3.400754268
3.406560665
3.400974346
3.398321546
3.405722782
3.405392433
3.406593797
3.41143621
3.419411095
3.421458746
3.424453789
3.420667586
3.408855206
3.411862516
3.408336301
3.407900508
3.402913895
3.408929978
3.401487186
3.410388272
3.412685643
3.420283683
3.423142034
3.425410673
3.414346549
3.399375591
3.407369514
3.41132165
3.399712508
3.394547233
3.38668842
3.389809626
3.391724968
3.403540301
3.413567358
3.420518967
3.412691563
3.409656755
3.405098926
3.411458757
3.419600722
3.418888924
3.406854437
3.406783201
3.406718666
3.413139939
3.413248293
3.396151543
3.403763329
3.407128249
3.408881166
3.402116637
3.403247313
3.410498967
3.42017779
3.412334879
3.420953225
3.422217618
3.431758222
3.428849978
3.427455359
3.403700699
3.411054985
3.41613778
3.417812796
3.414351655
3.4112458
3.412374363
3.412680652
3.411842645
3.403050801
3.399613757
3.397574517
3.400723922
3.399026856
3.409110928
3.404838745
3.403726781
3.404610925
3.398905581
3.399868872
3.429375486
3.434753444
3.423140518
3.422761957
3.424255142
3.423888306
3.424906476
3.427956934
3.421273674
3.414031272
3.40909313
3.411404611
3.407707953
3.402130663
3.401471136
3.409034918
3.410997934
3.412405552
3.41954233
3.427836102
3.407703257
3.392496224
3.401519401
3.410461227
3.409933098
3.402339987
3.396713143
3.400089089
3.401386897
3.408400689
3.403480654
3.409613603
3.403364138
3.40878553
3.407472613
3.402349064
3.402352875
3.406782797
3.407060422
3.402511364
3.405137462
3.39933334
3.396883023
3.387377012
3.385201669
3.398716109
3.401889688
3.398372065
3.399601227
3.396760856
3.396639178
3.398485713
3.401213628
3.390664479
3.393967725
3.405223163
3.407374553
3.409442829
3.409058181
3.405081412
3.402358127
3.399439859
3.402361935
3.405260854
3.399492866
3.388345556
3.391385867
3.385714622
3.389288043
3.396491534
3.391949964
3.38512337
3.387872303
3.396397881
3.398564461
3.404072537
3.400789893
3.400633916
3.40590499
3.406690173
3.394831297
3.410763697
3.415586741
3.424646789
3.417041277
3.41587644
3.410347283
3.399768535
3.401160365
3.392829125
3.391487982
3.391642843
3.388555108
3.382049982
3.381124567
3.374176302
3.37680599
3.377520002
3.380652687
3.394285913
3.396734575
3.408922826
3.396189777
3.403206427
3.40249672
3.392516949
3.377212618
3.388311892
3.401822402
3.393053328
3.405968399
3.409014838
3.41556595
3.404333076
3.393977393
3.398786625
3.388196042
3.401173051
3.398881182
3.397507115
3.404189782
3.390213088
3.398872221
3.387497541
3.395132346
3.40272651
3.40365168
3.400241953
3.39714226
3.402724894
3.40140257
3.393530005
3.398264257
3.403380167
3.409929516
3.4062191
3.405103906
3.401435518
3.400492553
3.405338269
3.412049986
3.416524543
3.417502558
3.42831528
3.418734171
3.418454468
3.410264101
3.397702635
3.392742867
3.392265908
3.382356264
3.372865047
3.370778081
3.372804355
3.378549336
3.383278453
3.393454494
3.399809879
3.404463195
3.415909939
3.413039598
3.413574573
3.412913418
3.414685749
3.409347662
3.413855136
3.404833176
3.404549469
3.403638742
3.406287453
3.408736169
3.415425261
3.42180847
3.410247368
3.408998381
3.403598297
3.400468066
3.388157894
3.394709129
3.40316512
3.398600396
3.404058148
3.399362056
3.407826931
3.408641671
3.412476744
3.419878931
3.414074455
3.417696588
3.416100112
3.414465962
3.423318099
3.420252522
3.42719463
3.422866195
3.416807706
3.419731613
3.42026916
3.414283403
3.39330082
3.405089892
3.398836631
3.394835574
3.404226309
3.407048764
3.411388077
3.419748223
3.427967742
3.417319858
3.416423213
3.409311901
3.414146461
3.421635687
3.421960935
3.424691243
3.431224505
3.418089894
3.417060663
3.422843727
3.421461781
3.414708937
3.408397688
3.412878528
3.414283239
3.418264744
3.425718492
3.413676887
3.420391253
3.420594838
3.42349346
3.426558436
3.418447297
3.408255903
3.403405749
3.394607312
3.395863861
3.403514635
3.406247387
3.401266344
3.404837203
3.413033781
3.427695302
3.419660157
3.418395094
3.421273832
3.423634302
3.428994526
3.420860426
3.42469024
3.42312003
3.425888773
3.416405752
3.405232436
3.397821835
3.395088698
3.406856493
3.40369861
3.403374051
3.41454079
3.412652849
3.409502844
3.411959934
3.423874973
3.431677403
3.425121945
3.415219384
3.403156548
3.406341869
3.412435186
3.411883549
3.403651292
3.401049207
3.409352694
3.411790578
3.403161301
3.400841416
3.414331555
3.418293378
3.409710943
3.41045147
3.410461942
3.4100299
3.405724238
3.401158234
3.408171297
3.413709239
3.41842992
3.410629507
3.417818303
3.424550537
3.419333625
3.415596576
3.411452068
3.408865851
3.409976869
3.406322397
3.413546778
3.408712284
3.407314299
3.407390526
3.397419129
3.40106931
3.396371921
3.3954941
3.392333226
3.400123515
3.40524423
3.414270138
3.412989238
3.408341424
3.414297354
3.405076734
3.406830791
3.408603946
3.400530974
3.406338805
3.406106323
3.389587498
3.391193285
3.385581671
3.399072761
3.385542276
3.387467991
3.400512625
3.407083043
3.42050575
3.421219012
3.410040712
3.415377159
3.41188998
3.423990461
3.428095165
3.427930637
3.418708324
3.411179575
3.40254538
3.390991422
3.386819003
3.386020327
3.388644811
3.429704955
3.43514444
3.436337786
3.429914182
3.422004763
3.41077512
3.404973101
3.412886095
3.402506243
3.401334
3.40003222
3.393851818
3.390931515
3.395505525
3.39727936
3.40882641
3.419543083
3.415233984
3.426826023
3.428630971
3.418843766
3.425267596
3.426791049
3.418113681
3.424205462
3.429185801
3.423497427
3.415297443
3.419012118
3.414852823
3.407504555
3.403517637
3.408225876
3.411441103
3.414229965
3.411797529
3.418017067
3.40562876
3.415428724
3.408804396
3.403420427
3.410282384
3.405222904
3.405974676
3.416166715
3.423672202
3.413927547
3.406230849
3.41245462
3.400708814
3.407871983
3.427492891
3.415692505
3.415458043
3.404985206
3.413640609
3.418491405
3.41641801
3.406947276
3.406599914
3.398105549
3.395413261
3.39410717
3.38375295
3.395005318
3.397877271
3.415952657
3.425944975
3.418361034
3.424155773
3.426807364
3.417106952
3.417838096
3.416809794
3.41735455
3.414000351
3.409271951
3.408887623
3.410100794
3.403134391
3.405344396
3.393346946
3.401485353
3.403488313
3.406025125
3.409372366
3.419359192
3.407561031
3.409090189
3.403789883
3.398397353
3.395196735
3.392562355
3.393453958
3.402328473
3.412299936
3.416114153
3.404625582
3.399741915
3.393198287
3.406620777
3.42624243
3.424484841
3.426492796
3.415231833
3.411750097
3.412344189
3.399771642
3.400297692
3.404063566
3.405922565
3.408250655
3.408122273
3.399030811
3.399480919
3.389728553
3.391602996
3.399260522
3.402269781
3.400191527
3.395914632
3.381178069
3.39513149
3.395864333
3.398945877
3.404982077
3.402172734
3.400728411
3.409538645
3.415266843
3.424914479
3.434916799
3.429635598
3.41410594
3.415640275
3.400856908
3.400940646
3.401141606
3.40588025
3.408038345
3.398182894
3.40432297
3.403784517
3.404982043
3.418680149
3.425430325
3.430533288
3.423480066
3.421626474
3.412534172
3.413470952
3.403624096
3.401873727
3.400917351
3.40596938
3.41500231
3.417157522
3.406940364
3.397559638
3.396564101
3.421011968
3.420923287
3.431077372
3.426628052
3.421752113
3.41237916
3.408695871
3.41436787
3.426408246
3.430064583
3.419526007
3.415428736
3.416299178
3.398689202
3.396829144
3.400028607
3.41072442
3.419879805
3.424274635
3.423091962
3.432275435
3.430156469
3.427737997
3.425110802
3.414023875
3.416337526
3.418250186
3.415869533
3.416210341
3.414360042
3.41620868
3.423644954
3.409217575
3.41997715
3.417870816
3.421706275
3.42984954
3.426828683
3.423513681
3.423353612
3.415167659
3.420970655
3.425474702
3.422715719
3.411094363
3.411987049
3.412233646
3.417532672
3.413507646
3.414903339
3.412672635
3.409625958
3.417074487
3.42769651
3.438555991
3.431552434
3.418955944
3.419745074
3.407562576
3.418422138
3.414932416
3.417065106
3.420015873
3.415748955
3.432253048
3.426139952
3.419648346
3.423333515
3.428456806
3.426598744
3.421184
3.417334272
3.414544943
3.413996912
3.40590626
3.413034385
3.414794171
3.421989854
3.417770785
3.418187525
3.419505787
3.415744778
3.40705824
3.396745379
3.4025791
3.402909698
3.417508494
3.410211441
3.399439931
3.407610482
3.416377253
3.419334025
3.419055439
3.424526397
3.424253215
3.42152838
3.409840621
3.406365918
3.416724181
3.422047857
3.396764807
3.401580219
3.404142472
3.399797654
3.40193811
3.404255824
3.406232389
3.406999565
3.408319555
3.403860019
3.402861475
3.405618082
3.410034024
3.413755993
3.41758831
3.409958954
3.407369882
3.40803627
3.402629255
3.395881005
3.411372458
3.406263729
3.408842093
3.421146305
3.415103499
3.41738811
3.420577925
3.414524822
3.410283952
3.419343247
3.427832391
3.420776097
3.403149669
3.408919063
3.401807216
3.39539916
3.400541722
3.40872606
3.408214674
3.416600154
3.411882643
3.417945463
3.416107459
3.423163856
3.4215585
3.421785831
3.417526326
3.419481548
3.412093433
3.421431403
3.399313792
3.402445233
3.415738514
3.410925388
3.414347214
3.408710506
3.405191146
3.41104662
3.413972785
3.410577763
3.393860276
3.393697774
3.3961775
3.392109362
3.395812827
3.399067344
3.392873787
3.386354256
3.394553559
3.402717925
3.421306779
3.431176971
3.436470533
3.433293889
3.429033174
3.418842832
3.407539426
3.405873086
3.402526509
3.396051735
3.431260514
3.432555315
3.43397332
3.43158778
3.416605119
3.415390664
3.418656602
3.420825736
3.42363522
3.412252872
3.415513565
3.423897564
3.421948626
3.418120602
3.412878953
3.419695426
3.426285324
3.447412858
3.434362999
3.431821864
3.429523882
3.422098942
3.426170257
3.42345314
3.416697403
3.402112589
3.406251678
3.398974596
3.404877915
3.409199559
3.413890835
3.40327444
3.408065214
3.411794102
3.41994267
3.42315544
3.416371646
3.40490357
3.415568266
3.430716835
3.394986798
3.409360337
3.4048966
3.412491977
3.420864574
3.42557746
3.426322622
3.427060592
3.439869592
3.436698134
3.426469634
3.430071662
3.425027529
3.418867477
3.417987971
3.411412383
3.411238061
3.404114015
3.405280059
3.405918991
3.414975411
3.404474343
3.402425821
3.411466482
3.409562542
3.418220089
3.422149211
3.421508047
3.419815236
3.421013037
3.431661106
3.433781196
3.431402535
3.424017381
3.418089536
3.405798014
3.412112264
3.420379676
3.411095966
3.412261145
3.403543836
3.398889494
3.399710944
3.392638148
3.3978695
3.392634053
3.39864102
3.398685941
3.395867809
3.394898131
3.3913342
3.390306998
3.404673357
3.400653385
3.403856942
3.414816968
3.410491098
3.409077341
3.411094732
3.409186651
3.393571657
3.404259017
3.393200104
3.382247607
3.378338582
3.379866597
3.384618103
3.388816551
3.384283761
3.389118346
3.389377831
3.383957902
3.378643562
3.390450062
3.395988979
3.398625991
3.391170344
3.38056256
3.38984641
3.390797982
3.415720647
3.418035679
3.411066028
3.414708218
3.410854654
3.409666448
3.407040316
3.409447061
3.405001728
3.405202204
3.394148037
3.396448053
3.399771414
3.407205713
3.402639475
3.398506069
3.411631417
3.405412382
3.411255436
3.401827659
3.411644061
3.415739491
3.416579447
3.420154281
3.424943388
3.423957775
3.43000504
3.422591554
3.414938648
3.411140295
3.40742849
3.410855702
3.416242328
3.414715705
3.414352875
3.416260396
3.420290094
3.423472321
3.416879476
3.417764273
3.425434702
3.422902075
3.422023554
3.412201528
3.421166948
3.430470287
3.420139046
3.428117841
3.419653392
3.42316823
3.428140531
3.421282727
3.414404021
3.414983044
3.413361008
3.420576535
3.416129941
3.41608141
3.419112624
3.424008019
3.412783832
3.419908566
3.419134495
3.423376044
3.419607896
3.417639237
3.422378704
3.412058564
3.405359264
3.404582496
3.413075819
3.424914723
3.425090778
3.425910899
3.413670749
3.412908164
3.409740061
3.414787046
3.411990082
3.412493548
3.426436537
3.426007379
3.421552965
3.431135572
3.418597039
3.41513545
3.411721875
3.417173164
3.415464467
3.411476678
3.405804324
3.413021751
3.412387565
3.413834797
3.410709165
3.412295944
3.415729896
3.432499001
3.434634527
3.423460207
3.418661789
3.412540438
3.415996925
3.407041352
3.410220379
3.416059547
3.405569595
3.40575077
3.399649296
3.400456061
3.399662647
3.417762764
3.412037688
3.417181091
3.418049045
3.427743602
3.426513025
3.437399814
3.434673292
3.431079418
3.408028113
3.411553572
3.405626483
3.413655795
3.415911804
3.4126772
3.406738255
3.404082524
3.416401593
3.414916389
3.427398898
3.418822599
3.422683966
3.410752629
3.408510785
3.412109552
3.4029539
3.404099524
3.410898256
3.412024301
3.415442139
3.413669858
3.415458556
3.409704082
3.41179442
3.404111005
3.412626323
3.424180767
3.420158029
3.420018817
3.412875189
3.415694146
3.425848885
3.424450345
3.430518351
3.418961977
3.416084037
3.414924435
3.401269889
3.405873119
3.425333786
3.418002303
3.419074567
3.414481425
3.409390846
3.423482662
3.424085169
3.420329158
3.419382631
3.420604535
3.412241491
3.41449713
3.4117111
3.412136091
3.424138351
3.429021196
3.444235299
3.442737256
3.446496664
3.4344916
3.420505002
3.412598701
3.418256209
3.421872858
3.424815149
3.424627291
3.431856288
3.442820701
3.439060301
3.434221233
3.426114621
3.425479176
3.419141524
3.419760105
3.413747373
3.412735948
3.405374312
3.414643521
3.419863249
3.420221095
3.414914155
3.415504496
3.411604353
3.405975953
3.407537754
3.413896672
3.416868869
3.419956656
3.418372468
3.419631213
3.425021548
3.415845275
3.417203755
3.425944377
3.422039642
3.423559463
3.413438139
3.409883403
3.412311924
3.411333038
3.409936686
3.413403512
3.420071991
3.418137971
3.419067251
3.415034227
3.412097257
3.415118
3.416707875
3.42478141
3.420949677
3.422020821
3.414682375
3.411417922
3.420072843
3.420819494
3.422489989
3.43166335
3.430940599
3.409431504
3.435369332
3.438512037
3.422047454
3.418354461
3.422604784
3.425420839
3.42811515
3.423624152
3.41866674
3.41758417
3.424359275
3.428905305
3.42022185
3.430251329
3.422528487
3.425773215
3.42116857
3.426357361
3.428380583
3.42901569
3.430047927
3.430975909
3.42731134
3.429594645
3.416976179
3.406300262
3.404977084
3.411858293
3.408928301
3.403655528
3.405782653
3.398463456
3.392667517
3.399278782
3.405046658
3.416687994
3.417077664
3.418985211
3.417469253
3.428872699
3.397209273
3.392054393
3.395708429
3.397837506
3.397818284
3.395480611
3.389665816
3.385029174
3.381426796
3.391853442
3.404460683
3.407148473
3.414747537
3.412370128
3.412138798
3.415397104
3.420481715
3.417459925
3.409312813
3.404519866
3.401512225
3.394830859
3.405229662
3.409519733
3.407269691
3.407809745
3.398496471
3.404384777
3.416582988
3.412406935
3.423907186
3.42503623
3.422359473
3.406229634
3.416870066
3.409149132
3.412187157
3.396133068
3.405888656
3.405353855
3.423436237
3.424913303
3.426941792
3.423382097
3.427272679
3.42149216
3.418135104
3.408842189
3.408952289
3.409202026
3.412452166
3.420982823
3.420981379
3.428612325
3.414589217
3.412921697
3.420500662
3.429594671
3.433150885
3.427847308
3.424162103
3.432705053
3.432348665
3.431409928
3.416934747
3.421715353
3.41034492
3.4101327
3.414757221
3.425640157
3.423229497
3.419441595
3.415510477
3.417154009
3.421758801
3.423679565
3.42298662
3.419152946
3.419475333
3.421224482
3.406538418
3.410109686
3.410866116
3.416352693
3.418689764
3.41981576
3.418093353
3.410460736
3.410144401
3.412285721
3.410181221
3.411019267
3.416223792
3.419364296
3.42340032
3.425482735
3.420528108
3.420290871
3.412629604
3.403955908
3.426322296
3.426312982
3.419583019
3.406021619
3.412954741
3.412889334
3.412212872
3.419874768
3.424771282
3.425445216
3.418329178
3.421081042
3.424796656
3.421750751
3.425276765
3.415471675
3.416344848
3.419342702
3.421858433
3.42556367
3.410896169
3.416687633
3.415379815
3.416006198
3.413204628
3.413647653
3.414320187
3.403040251
3.405984555
3.416531318
3.419037466
3.412334706
3.420040989
3.421530768
3.423824003
3.426350109
3.410361085
3.408780693
3.411768084
3.405701032
3.407485266
3.407070013
3.414658488
3.410334725
3.405150554
3.398768759
3.398283714
3.403574838
3.410029592
3.425069984
3.423096475
3.426739582
3.429316902
3.426655666
3.417948456
3.419955251
3.413821681
3.405634917
3.399738282
3.406420233
3.404995135
3.399849065
3.411461168
3.406294242
3.410147161
3.413928999
3.412054896
3.424303761
3.437467207
3.437507879
3.436054933
3.425815211
3.423483777
3.420886583
3.417519136
3.417198894
3.411428201
3.402470415
3.411549489
3.407998676
3.419753417
3.416516046
3.410121577
3.401295203
3.397182594
3.398342426
3.411950153
3.410615926
3.415375362
3.416514789
3.418092937
3.423505802
3.417415192
3.412458787
3.414724731
3.427366064
3.428269177
3.421254996
3.414297515
3.418654649
3.41800873
3.418449934
3.4172955
3.409355585
3.418130439
3.419570176
3.409467631
3.409213226
3.407548443
3.405875171
3.40542701
3.40982656
3.408392801
3.419151045
3.415880676
3.400823563
3.402704558
3.400074147
3.410437857
3.418362733
3.425070927
3.435736503
3.433640123
3.433044334
3.424060293
3.422385486
3.419237146
3.410093531
3.408170542
3.402168397
3.414566293
3.415943275
3.421597347
3.415547113
3.415452823
3.421686719
3.412143688
3.402112903
3.409997012
3.414794471
3.395474866
3.397372268
3.401837757
3.413337335
3.404821857
3.403769893
3.40192288
3.39444294
3.398493445
3.405668722
3.392823621
3.394033604
3.391283845
3.386793107
3.38906024
3.378287872
3.386104398
3.397883349
3.394172167
3.405285652
3.394447341
3.39707587
3.384013155
3.392124601
3.398426709
3.407417209
3.420885067
3.422954256
3.424620036
3.411681625
3.418002702
3.412406367
3.418155209
3.410555333
3.404701689
3.410969616
3.398265411
3.3919371
3.394727409
3.394355507
3.427629275
3.413693032
3.43027316
3.432645304
3.432110355
3.426867094
3.413670805
3.397224659
3.394809045
3.400886798
3.400227068
3.399024813
3.399042146
3.399239539
3.409495692
3.41434612
3.41894446
3.422152148
3.414747769
3.426479348
3.404690594
3.405747325
3.408403407
3.401165925
3.401690664
3.401269691
3.401303779
3.412417704
3.418779628
3.423296911
3.421540297
3.415983925
3.417504135
3.412673046
3.411186636
3.412810688
3.418427422
3.406809893
3.411962071
3.408443109
3.406360793
3.398649011
3.396775079
3.397441306
3.406019606
3.41288643
3.418988575
3.422699188
3.417936989
3.408324498
3.405658099
3.407372648
3.424325783
3.423740988
3.411369255
3.408697846
3.398584881
3.409704257
3.417896315
3.410575285
3.416239809
3.415998851
3.406685808
3.405560142
3.411563362
3.421125962
3.426888572
3.419663162
3.421499423
3.421674097
3.414719258
3.409219662
3.417769481
3.422071152
3.41500964
3.421736035
3.416579568
3.421725912
3.429082688
3.42623634
3.422780905
3.421746501
3.431314083
3.43506214
3.425155516
3.429389825
3.435531745
3.433464894
3.434320573
3.435001488
3.433975221
3.430566198
3.416678774
3.419257135
3.42095191
3.424882083
3.420684954
3.422335428
3.421687685
3.419952619
3.430969599
3.426371804
3.421056216
3.432365751
3.427578945
3.426959899
3.418848959
3.419304273
3.415587887
3.410212554
3.409009257
3.40597359
3.412072555
3.419730193
3.415586816
3.406755226
3.414363072
3.412879885
3.425178197
3.432595574
3.399318563
3.388393108
3.388605641
3.395130531
3.399371576
3.40335443
3.406452671
3.399351254
3.401292828
3.397824865
3.395077699
3.395253193
3.397042955
3.396772447
3.394123223
3.392656294
3.395530887
3.39856079
3.397268049
3.396372896
3.399895029
3.404771355
3.399279692
3.395415442
3.404806738
3.405317508
3.402589898
3.40473675
3.40849138
3.406900775
3.404848244
3.409508755
3.405533866
3.400163416
3.386407728
3.395045368
3.400481734
3.395132572
3.405634411
3.406958192
3.417424973
3.410560317
3.414797341
3.420103788
3.419035693
3.411337304
3.406538267
3.402288347
3.386367736
3.397782823
3.389793983
3.392111718
3.395738975
3.40509978
3.41324665
3.41159782
3.412980749
3.414051775
3.410544261
3.41705524
3.428315839
3.422071149
3.415232402
3.416946011
3.423791176
3.422051675
3.422878708
3.420768437
3.42380455
3.413196788
3.406767703
3.407915736
3.407820983
3.422514752
3.418809068
3.412889026
3.422943489
3.431035652
3.433677452
3.433978099
3.423427757
3.423766513
3.425265163
3.427986213
3.425863979
3.443132288
3.446009816
3.441691001
3.431097799
3.426303414
3.428618003
3.427908289
3.422575737
3.420588818
3.423626185
3.424103182
3.422105699
3.420527652
3.420612935
3.422460881
3.414964675
3.414560149
3.410565426
3.41281665
3.422721665
3.418485385
3.404556164
3.409096731
3.401652673
3.39522589
3.384732012
3.4036558
3.406663197
3.424285462
3.419285389
3.41876717
3.420442811
3.409656229
3.410540735
3.414913115
3.409432342
3.40308525
3.412468231
3.415283001
3.410949553
3.406379865
3.408379076
3.412189914
3.397963385
3.41272933
3.41568955
3.420124446
3.420717031
3.415110249
3.420429244
3.416690917
3.413617493
3.416153379
3.409700511
3.411506955
3.405887213
3.393508748
3.397805335
3.401942487
3.404522145
3.411515153
3.407564306
3.406298287
3.415652875