/*--------------------------------*- C++ -*----------------------------------*\
| =========                 |                                                 |
| \\      /  F ield         | OpenFOAM: The Open Source CFD Toolbox           |
|  \\    /   O peration     | Version:  v1706                                 |
|   \\  /    A nd           | Web:      www.OpenFOAM.com                      |
|    \\/     M anipulation  |                                                 |
\*---------------------------------------------------------------------------*/
FoamFile
{
    version     2.0;
    format      ascii;
    class       volScalarField;
    location    "0.02";
    object      mfpCellRatio_O2;
}
// * * * * * * * * * * * * * * * * * * * * * * * * * * * * * * * * * * * * * //

dimensions      [0 0 0 0 0 0 0];


internalField   nonuniform List<scalar> 
5120
(
12.59874221
12.6142109
12.57222371
12.54771066
12.48798301
12.52204094
12.58611612
12.65051526
12.62850643
12.70762655
12.73910729
12.69470397
12.63106423
12.60417124
12.60542753
12.59965611
12.62495582
12.56616462
12.55918952
12.55713402
12.58006226
12.5780478
12.54686235
12.55421205
12.58545499
12.55192899
12.47921374
12.54618973
12.55876576
12.56113692
12.52487621
12.56081215
12.55527193
12.53838666
12.530081
12.54375455
12.58031774
12.61320142
12.60514542
12.58692937
12.57984546
12.54849512
12.58109397
12.56511051
12.48293007
12.55139777
12.51257479
12.51668978
12.50032652
12.53568099
12.58383701
12.56608204
12.50503059
12.50503099
12.50421607
12.52863667
12.54192094
12.55248975
12.50862606
12.5209609
12.60563407
12.49174995
12.49119524
12.46903286
12.44815669
12.41144792
12.44299661
12.53513229
12.51540455
12.60051078
12.44543491
12.46560415
12.45875748
12.50084249
12.61990497
12.61415981
12.61995667
12.61111659
12.55686974
12.54808256
12.62430029
12.71357263
12.67359418
12.64508395
12.63316873
12.63454029
12.57750948
12.56498249
12.52775885
12.55584775
12.5359228
12.527234
12.53130592
12.60801549
12.58437837
12.56765986
12.60659588
12.57460631
12.60483491
12.59004339
12.60483484
12.5683316
12.58206358
12.6813922
12.72068869
12.67785736
12.70149152
12.59595375
12.51012711
12.49233323
12.44906322
12.52639403
12.49593752
12.51827803
12.5860892
12.57760467
12.55148152
12.56685276
12.60057037
12.57098573
12.68576375
12.60876131
12.59973242
12.51028633
12.51501713
12.52796193
12.49015765
12.51315823
12.56785034
12.51663764
12.59315801
12.56729743
12.56985853
12.55835419
12.5811398
12.5713776
12.56956154
12.57302075
12.64087958
12.65789143
12.58066359
12.58332046
12.63078229
12.63642423
12.60759849
12.54396826
12.48371873
12.51091314
12.50289342
12.55448965
12.56528678
12.65340487
12.66073726
12.63354334
12.62429866
12.59886105
12.61042776
12.53664489
12.59403631
12.5755985
12.53327613
12.54828136
12.54237036
12.53221257
12.52108977
12.55484735
12.54309379
12.54684771
12.54328597
12.53838739
12.54811271
12.50095867
12.44464818
12.44524122
12.41322998
12.51281374
12.4517094
12.47578168
12.54450146
12.52735368
12.52069039
12.47731517
12.49277216
12.55183898
12.58417622
12.55008822
12.65214084
12.65986475
12.61864352
12.65211886
12.56528426
12.57835488
12.51907614
12.48812666
12.48054514
12.45210396
12.47082452
12.46967107
12.5166076
12.54283708
12.54704156
12.61200211
12.63607505
12.6814495
12.69391071
12.69051341
12.68874766
12.58952045
12.57254002
12.53011903
12.48870735
12.44252631
12.50326948
12.58004129
12.59008134
12.52525048
12.54735947
12.53933688
12.51768949
12.54137659
12.61098274
12.64264376
12.55282677
12.52899913
12.52982163
12.50112486
12.4983507
12.58299136
12.59148186
12.66186359
12.62294999
12.69793353
12.67420809
12.62110048
12.64662821
12.67547722
12.66464255
12.69980291
12.69208086
12.6208128
12.52326076
12.5113556
12.57345571
12.59172352
12.59574142
12.61769219
12.62359382
12.62168389
12.63433186
12.58420573
12.57898008
12.5936259
12.62722916
12.66923743
12.64609147
12.6548806
12.62423968
12.64536357
12.52216521
12.48644006
12.56856231
12.6304017
12.58891471
12.55048962
12.52844159
12.55145832
12.55792257
12.5675332
12.5587806
12.53614305
12.49019908
12.51273515
12.4552235
12.47308481
12.43775763
12.48312122
12.55524633
12.57423834
12.59685994
12.62150364
12.59267339
12.63629447
12.64547156
12.56474224
12.60009769
12.66123625
12.62512528
12.59582189
12.59727076
12.58756533
12.5364513
12.54745537
12.55920126
12.55117428
12.6181299
12.64251517
12.59045813
12.5590923
12.56245428
12.51935667
12.50720808
12.46370534
12.4806215
12.50230312
12.50722013
12.53599135
12.51631037
12.53186238
12.57555233
12.56841736
12.63617835
12.57199519
12.55706669
12.5520932
12.55582184
12.55659871
12.60411719
12.56382732
12.55944357
12.56237917
12.66682977
12.67297702
12.6875564
12.66472175
12.56411753
12.55499848
12.58386082
12.62091171
12.5544809
12.52125443
12.58639373
12.57675972
12.56506917
12.62029765
12.66760139
12.63589496
12.60724272
12.65128373
12.64915392
12.70014422
12.37044331
12.33605978
12.31775835
12.38667424
12.49194896
12.49156295
12.49608178
12.42055144
12.48384006
12.53906049
12.46922244
12.49872262
12.45249771
12.42630602
12.39986783
12.37730678
12.42205471
12.38569923
12.35655754
12.4032942
12.5800143
12.62165747
12.61735301
12.60149342
12.63143068
12.6470359
12.61768304
12.56666708
12.56806665
12.4853049
12.46758787
12.5078714
12.57202677
12.62481683
12.57636175
12.61386756
12.56395415
12.59383431
12.60302758
12.60567974
12.64540333
12.60696749
12.57311117
12.5846773
12.61721092
12.53567143
12.57298084
12.60499009
12.70222084
12.6505934
12.72160219
12.75350633
12.68559737
12.62043417
12.6875758
12.71238891
12.65370039
12.64304728
12.72080913
12.66298631
12.52222976
12.50925487
12.5368848
12.58005773
12.5967181
12.53276105
12.51451556
12.46817454
12.51793079
12.61698348
12.63908239
12.64140469
12.61958855
12.6284651
12.6281078
12.65563336
12.70698862
12.67935909
12.59014525
12.56032304
12.52910398
12.55582794
12.63605181
12.60567985
12.53808751
12.53777748
12.55863592
12.55685195
12.50431922
12.5833896
12.54568592
12.48722105
12.49953061
12.41164943
12.45371834
12.48536662
12.45395175
12.44635787
12.46867602
12.44305429
12.43465916
12.44103498
12.34679563
12.33827919
12.40862532
12.42249388
12.48300225
12.49973205
12.54128483
12.53352379
12.49600435
12.45978802
12.45790569
12.56843201
12.55020287
12.56782112
12.62846541
12.60958862
12.52670217
12.4787544
12.45220968
12.46332436
12.4524023
12.48993084
12.46596432
12.45034676
12.49077581
12.4987007
12.49154805
12.48517543
12.52518918
12.58150456
12.60899926
12.57683383
12.56476073
12.60099563
12.58953029
12.53319758
12.5352012
12.50226196
12.49159569
12.49857645
12.42197315
12.42669277
12.48783295
12.48616134
12.51341002
12.55463408
12.5856348
12.5226774
12.47072623
12.46272998
12.45951242
12.50342193
12.46496631
12.42506722
12.40980316
12.41180404
12.42427051
12.51277001
12.6692882
12.6329338
12.60840562
12.70171861
12.67165709
12.68685362
12.59548442
12.61330589
12.6123751
12.65763458
12.66051925
12.6493476
12.60206677
12.66233404
12.67903587
12.68682737
12.63674277
12.60166766
12.57337858
12.53089616
12.56706856
12.5207788
12.45072111
12.45596475
12.4840526
12.49115847
12.51695903
12.54886977
12.54020353
12.60902454
12.6819598
12.67674472
12.63295783
12.53988091
12.50316091
12.55821214
12.59743755
12.58157078
12.62022754
12.59025023
12.642079
12.67464433
12.62216171
12.59209262
12.62906583
12.59542363
12.58313597
12.54307306
12.56305929
12.58789953
12.62332774
12.58913315
12.59357913
12.59032792
12.56093463
12.62872939
12.64047806
12.60446281
12.60565113
12.65354978
12.62169197
12.57208637
12.55067715
12.53962681
12.5722364
12.54539023
12.54281475
12.52192053
12.58891947
12.53304583
12.59945006
12.50258543
12.57128456
12.56744085
12.5990368
12.6358895
12.6758842
12.69562174
12.6689718
12.64964902
12.54815528
12.54465542
12.55364249
12.58768236
12.56847572
12.56559036
12.57187914
12.53428656
12.57227483
12.57163072
12.50553776
12.50641051
12.55867607
12.59669718
12.62570839
12.63333976
12.57901359
12.58743362
12.5629204
12.50355355
12.63872741
12.57852933
12.55199522
12.60183055
12.5749262
12.54258738
12.52823544
12.54044639
12.54950264
12.59026891
12.62991116
12.60836467
12.58533067
12.65410212
12.68181666
12.63567733
12.63002017
12.5912784
12.60530731
12.66246188
12.45794672
12.47765129
12.53674824
12.56230355
12.59678924
12.56900456
12.59164122
12.50617912
12.48354125
12.53066915
12.53519672
12.55102751
12.54648044
12.48170897
12.48229851
12.55756494
12.53050842
12.55193822
12.49000003
12.42954646
12.50975409
12.48526121
12.51507359
12.61637191
12.57586186
12.53748026
12.46629765
12.47213878
12.54717157
12.60819092
12.60513556
12.58641297
12.61766875
12.55857129
12.61024022
12.63707209
12.71617481
12.64282802
12.57399632
12.5781156
12.53761074
12.5645675
12.61245046
12.60235081
12.59569866
12.62037774
12.64984787
12.64909916
12.62135812
12.60549665
12.59107892
12.56706154
12.57032852
12.57050233
12.59145746
12.54127708
12.51749874
12.4443755
12.50389831
12.49245904
12.57956279
12.58669595
12.54751977
12.47900729
12.52891006
12.55465473
12.58027249
12.57398229
12.60418224
12.62315183
12.59217853
12.60882543
12.54182119
12.52449861
12.50453647
12.5680597
12.5480795
12.57957177
12.57855714
12.59191641
12.61472999
12.70343756
12.67857965
12.67322315
12.66833052
12.61004085
12.66778037
12.67895029
12.6464437
12.58123379
12.56120759
12.61095356
12.65119052
12.61067207
12.60862557
12.5978438
12.57724578
12.55152902
12.54068693
12.55121458
12.60046621
12.57484549
12.59982572
12.65234776
12.615603
12.6241114
12.62655905
12.656062
12.60398515
12.53102534
12.51987385
12.54701734
12.57674711
12.56440953
12.55482009
12.47436711
12.50182891
12.57757485
12.60194363
12.6053503
12.64007763
12.60155415
12.53542711
12.50207616
12.48848102
12.51553998
12.49739441
12.51166486
12.55111622
12.60407845
12.6203489
12.61995234
12.59057755
12.62035579
12.6078115
12.62159883
12.58344553
12.57475784
12.56310509
12.63145184
12.63031275
12.61727983
12.70541867
12.70084983
12.68373436
12.6226035
12.55839368
12.55144339
12.49572163
12.49928381
12.53464574
12.62360343
12.6231799
12.5996882
12.58148962
12.63044932
12.61642212
12.68981086
12.66733386
12.59178977
12.57231819
12.60995077
12.55072195
12.54437273
12.54448029
12.55199161
12.55199648
12.483335
12.52244505
12.47765601
12.48967006
12.51094035
12.43119833
12.50085343
12.54476597
12.49868724
12.51712123
12.49940901
12.51212966
12.55149844
12.43803419
12.44360219
12.43016274
12.40177139
12.42202164
12.4541944
12.42862065
12.42652479
12.36855153
12.41130202
12.40878063
12.39326971
12.37043394
12.34465766
12.36106283
12.40183426
12.43938015
12.42785408
12.49183266
12.46735256
12.43247028
12.43607441
12.44684157
12.46589365
12.44475077
12.51216029
12.5358033
12.55331434
12.59423586
12.576596
12.54815928
12.57175843
12.59806185
12.55197336
12.48657169
12.41512488
12.38091391
12.47331721
12.42218417
12.47330904
12.59146995
12.62615188
12.62370311
12.62185956
12.55954658
12.53454213
12.48513589
12.44292351
12.42457461
12.41725104
12.43850804
12.46387486
12.50622285
12.50328152
12.54589799
12.55562885
12.55741999
12.53191673
12.55069172
12.54218834
12.50968541
12.51934842
12.55116386
12.57046474
12.57534891
12.69277934
12.68704804
12.66682079
12.68038711
12.62683584
12.59282545
12.64712697
12.59229359
12.58242896
12.54158568
12.47728048
12.42917597
12.43347839
12.46771691
12.48292152
12.55496791
12.63996676
12.55485572
12.56205904
12.55126546
12.55738877
12.52690791
12.46378032
12.4263271
12.52202227
12.47230259
12.48120068
12.53280671
12.48606419
12.54102468
12.52533614
12.54825913
12.62901945
12.67037454
12.65503365
12.43376079
12.48589532
12.44982227
12.51286757
12.53400217
12.53855397
12.52543983
12.49774667
12.48074942
12.51856183
12.58661831
12.55757875
12.54644729
12.54519658
12.51039291
12.4996126
12.52764862
12.43827622
12.40568489
12.43959688
12.56444905
12.5570279
12.58864095
12.55080039
12.52332708
12.49440452
12.48338099
12.53384645
12.56580897
12.63319191
12.55926728
12.58481427
12.58417887
12.53583763
12.54696166
12.49083035
12.53823199
12.55572966
12.57084606
12.55836015
12.54156582
12.61819483
12.52586811
12.52993888
12.58958301
12.57881636
12.57194715
12.63462507
12.63246568
12.65109884
12.60202069
12.63253357
12.6489214
12.63263063
12.60655654
12.6513649
12.6234896
12.62335819
12.58504032
12.59104719
12.58922053
12.61078756
12.51339225
12.44642264
12.46187154
12.45723135
12.46922795
12.44577093
12.49008402
12.43331553
12.49680999
12.50669842
12.53359781
12.58884631
12.55686662
12.5773425
12.53466335
12.59569181
12.6552493
12.60828666
12.68862268
12.62551097
12.53366107
12.52018808
12.54056843
12.57555884
12.64020365
12.61300973
12.55102789
12.56452501
12.63433439
12.6142188
12.60918578
12.53613462
12.55085894
12.55631098
12.57666722
12.67006506
12.67772407
12.71368236
12.51806198
12.59531309
12.62250806
12.67141182
12.63489186
12.64986371
12.59059925
12.4667205
12.52233329
12.56094531
12.60716312
12.63125323
12.5775125
12.59864954
12.59523692
12.57159664
12.56201545
12.56690751
12.58981098
12.57342564
12.57494707
12.60243787
12.56815127
12.59633195
12.62012084
12.67878764
12.69056944
12.71117334
12.69803106
12.743663
12.71258155
12.7257296
12.67566401
12.61573841
12.61553207
12.62262325
12.66698249
12.62281513
12.60673362
12.58858275
12.64871113
12.6377426
12.64704572
12.64363048
12.59520591
12.56368565
12.57159558
12.48850206
12.54222052
12.48244689
12.45992043
12.48945427
12.51739937
12.52303513
12.53332913
12.56075985
12.61785301
12.70006078
12.66620115
12.63811334
12.50174956
12.55442607
12.57335054
12.56501922
12.62275838
12.65499616
12.64498137
12.60391976
12.61426992
12.49335179
12.53404119
12.57323096
12.61509685
12.59362908
12.59789805
12.61017884
12.61368397
12.59446103
12.51513338
12.48135264
12.69230659
12.65453501
12.61112257
12.60798402
12.55999127
12.55279022
12.53533722
12.50562326
12.52839345
12.58783066
12.61036512
12.61544607
12.61918062
12.67331001
12.76313201
12.76350208
12.70001945
12.63664143
12.66254186
12.68153452
12.42267225
12.39919827
12.51559883
12.53336785
12.52163391
12.44744532
12.5359616
12.57980677
12.54875302
12.5575022
12.57315132
12.59267224
12.60869329
12.58826931
12.56903128
12.51935238
12.52573555
12.5327299
12.51910697
12.4876408
12.51776959
12.52178286
12.49940101
12.49929601
12.50385726
12.51749462
12.47801089
12.44590153
12.44799792
12.4375209
12.46203636
12.46813469
12.48327612
12.50527134
12.54116833
12.54311602
12.59877067
12.5436328
12.50203124
12.51012565
12.54477153
12.611046
12.67238078
12.57394317
12.56253597
12.56679963
12.61820071
12.65579824
12.64799983
12.59421803
12.53431787
12.51131413
12.46754399
12.50949734
12.57316383
12.6322066
12.61151153
12.55300294
12.51955488
12.48312053
12.60532585
12.59625847
12.49017996
12.50711872
12.49099034
12.47906144
12.44028514
12.42129138
12.4483527
12.46264909
12.53170445
12.5110219
12.47509524
12.54133022
12.54213739
12.56806934
12.5701878
12.58826835
12.57685905
12.61366031
12.52547349
12.51437453
12.4529194
12.41834259
12.39772587
12.39607291
12.39638223
12.36873276
12.4320237
12.46863639
12.54883423
12.53183888
12.52160768
12.45720805
12.45493442
12.46319036
12.55204069
12.54863144
12.57980904
12.61997702
12.57700517
12.60608447
12.51246765
12.59199614
12.50296137
12.47907638
12.51802703
12.5022364
12.51768971
12.49755111
12.47107599
12.54062061
12.58018491
12.61062478
12.54888062
12.58239804
12.54467697
12.53701199
12.53087756
12.51858575
12.5843562
12.50838777
12.56324589
12.60269206
12.61838736
12.6455957
12.62602854
12.56095335
12.5604761
12.53166638
12.51215862
12.41549977
12.44390007
12.5320598
12.53764218
12.54430155
12.52978793
12.54368736
12.59165877
12.57870595
12.67065823
12.60426113
12.54796947
12.49989055
12.51815718
12.5804254
12.69178761
12.70428655
12.58581934
12.62335183
12.67817621
12.69265221
12.71806959
12.64399321
12.63859922
12.69210024
12.68573429
12.68245713
12.70670558
12.68828834
12.72897037
12.71240748
12.79492885
12.8596698
12.78044743
12.70845304
12.65901136
12.56917563
12.55699199
12.51790453
12.49530359
12.56061095
12.49500059
12.48757981
12.53056325
12.50226802
12.51195553
12.60619045
12.61478189
12.66982259
12.51970539
12.52784768
12.56539509
12.63126071
12.63572046
12.64312073
12.64516189
12.69106448
12.67719116
12.65151404
12.60197085
12.55655622
12.56453374
12.56548936
12.57407959
12.51870368
12.55649119
12.49987963
12.47975025
12.48674712
12.56672705
12.65356023
12.63609232
12.60013244
12.58012924
12.58408896
12.56989932
12.60699286
12.54631279
12.48285097
12.49619936
12.53736806
12.60900285
12.65339611
12.62255713
12.62090966
12.53347351
12.50181568
12.48939068
12.51029995
12.63687418
12.66621063
12.63821779
12.63903041
12.6450302
12.58107448
12.59525293
12.59054764
12.65904723
12.64515086
12.57264689
12.56624593
12.54054377
12.48967373
12.50835774
12.57585798
12.59331191
12.62585834
12.66872738
12.69665268
12.61501577
12.57843656
12.62252383
12.63917034
12.62119944
12.66417952
12.69701831
12.67799036
12.60700848
12.62487748
12.61616245
12.63666434
12.76593031
12.74603148
12.69165781
12.69395706
12.67014877
12.73185266
12.64086823
12.59355115
12.47794291
12.47709603
12.44770469
12.50504534
12.48136826
12.49625253
12.499836
12.49955715
12.55329932
12.58442763
12.65255837
12.66916316
12.61514465
12.5574631
12.49509016
12.49260328
12.50843752
12.54470133
12.53625157
12.61673512
12.4918861
12.46888667
12.54437398
12.57665094
12.55340902
12.5602156
12.52217201
12.61524649
12.6174182
12.64615924
12.61364925
12.61644747
12.5446932
12.46906886
12.4457391
12.43623304
12.38113224
12.40761359
12.46985589
12.52100134
12.48730016
12.47454015
12.58609216
12.50532363
12.47651716
12.56197814
12.57614106
12.62256795
12.65926467
12.61085372
12.66219453
12.59687272
12.58766613
12.63008
12.53139112
12.47852109
12.57855576
12.5299041
12.51991219
12.47896262
12.55091521
12.60025957
12.64485152
12.55847709
12.56774262
12.57464867
12.59546953
12.56862032
12.49731646
12.5745085
12.46711889
12.44135394
12.48810816
12.49706792
12.49747997
12.44886799
12.43244068
12.49159739
12.45902913
12.51360907
12.56564352
12.55138173
12.45365472
12.54960698
12.57972912
12.52072704
12.55729692
12.44087686
12.48530696
12.4597293
12.50356064
12.56015585
12.56291036
12.50668541
12.44428932
12.4637859
12.5112961
12.49470217
12.56805219
12.58387294
12.57081181
12.5654485
12.56676042
12.58512208
12.61618441
12.65525778
12.6932001
12.64553418
12.70489654
12.75128182
12.66024173
12.64177269
12.62135177
12.57409402
12.5616642
12.58164844
12.5308517
12.55135957
12.62607545
12.59658691
12.60917161
12.57928776
12.59862278
12.58186698
12.52238887
12.47314596
12.48392317
12.46765063
12.46560165
12.38657555
12.37157519
12.3586338
12.4664217
12.42303476
12.46964801
12.49220673
12.58929307
12.59713354
12.56823479
12.50451381
12.57992982
12.56108005
12.55224917
12.52876826
12.63680986
12.63320073
12.71843756
12.7373666
12.73519287
12.66527711
12.61174972
12.60357574
12.65511725
12.65645639
12.69276951
12.64648283
12.62765064
12.6424129
12.55605251
12.56546343
12.61473563
12.6207931
12.65137763
12.58731657
12.52389356
12.55658441
12.5759305
12.5466142
12.51312076
12.54439686
12.62201106
12.58800575
12.55521473
12.6124369
12.70835021
12.66489636
12.71797475
12.64616305
12.60468506
12.56173841
12.67823488
12.72498395
12.73856977
12.72046234
12.65299336
12.611846
12.60883878
12.65400251
12.6906132
12.66342811
12.73577721
12.72942194
12.74651268
12.69658869
12.64286322
12.56127608
12.52352984
12.54499727
12.58589762
12.65652906
12.4891006
12.48363975
12.57690246
12.54372414
12.60864464
12.63311016
12.6659274
12.67379474
12.62355862
12.62495836
12.62186101
12.58276126
12.53245623
12.5036913
12.49442444
12.55631874
12.5549237
12.53150112
12.54032325
12.5442115
12.6162047
12.5710233
12.60064919
12.58772581
12.53923488
12.60496318
12.62533362
12.63664971
12.67800936
12.64700531
12.60497452
12.63183953
12.66281349
12.69920809
12.71329321
12.71879959
12.63029959
12.6015177
12.5458111
12.54931915
12.60407309
12.64823228
12.59132728
12.58565126
12.55177927
12.50128422
12.52495317
12.51574837
12.54945441
12.61914793
12.65367625
12.61567299
12.59763797
12.61936506
12.61455722
12.65090803
12.67613708
12.60996235
12.54565936
12.58830311
12.51094447
12.46957154
12.54508432
12.58023652
12.61112402
12.60245845
12.6055865
12.59800336
12.53607111
12.57564312
12.58350213
12.56754842
12.60855184
12.53291839
12.50653997
12.59476727
12.63119598
12.63734996
12.63331959
12.55835563
12.61080692
12.57655023
12.52874179
12.59746907
12.61844343
12.59529942
12.62922894
12.61383659
12.5690107
12.55275356
12.56550813
12.44170445
12.4706833
12.48028967
12.57920186
12.49297728
12.48584038
12.50716175
12.53467553
12.59146412
12.46162651
12.48209424
12.54327342
12.46266961
12.41655423
12.48973864
12.40932979
12.36965055
12.4644814
12.52410916
12.55200409
12.55677877
12.51209568
12.58803118
12.59444829
12.59586945
12.49436626
12.46379994
12.45913512
12.47390985
12.43303045
12.43416381
12.37343864
12.41241559
12.36231523
12.42163693
12.48737212
12.55365566
12.52390762
12.59877628
12.57551242
12.55002564
12.54879648
12.62278237
12.53901206
12.5172171
12.47839966
12.46896353
12.41098369
12.41108556
12.480752
12.4897541
12.50580409
12.52323458
12.49319487
12.50410306
12.47960176
12.36349231
12.36920804
12.34783183
12.31091904
12.34982765
12.38612394
12.40897497
12.38582514
12.43161663
12.45625242
12.40806715
12.44168141
12.45785518
12.55049846
12.6040726
12.54844451
12.59803209
12.52434692
12.46287946
12.49522276
12.49973124
12.52097457
12.56524233
12.53796634
12.48371071
12.56021717
12.53170591
12.60659439
12.58400233
12.54832614
12.51820893
12.49997102
12.51089926
12.62413692
12.60798025
12.62241852
12.58990362
12.6063879
12.64253347
12.62679224
12.56009578
12.567445
12.54311652
12.50444026
12.53679574
12.54708788
12.54264343
12.57529774
12.60694063
12.57694914
12.65499374
12.65298569
12.65422712
12.64574754
12.60380253
12.56828231
12.59017813
12.58441839
12.56321169
12.55737663
12.59546921
12.58725855
12.70185661
12.74158148
12.66461438
12.63934021
12.62021145
12.67033078
12.67953682
12.63233813
12.65042896
12.67757687
12.66747814
12.42238149
12.46341367
12.52747961
12.53858591
12.52637156
12.59471921
12.59806119
12.63898129
12.64938872
12.61330909
12.60901765
12.63710111
12.57580174
12.56950291
12.53883281
12.59817018
12.60182648
12.59181323
12.48942299
12.46171392
12.5569724
12.58971736
12.59199006
12.59998099
12.60977464
12.61313157
12.55709157
12.47941073
12.45331834
12.52598194
12.59871373
12.60238623
12.54214181
12.52918896
12.49954058
12.55561628
12.51788501
12.49280469
12.48343619
12.57440253
12.57332688
12.57890818
12.65325946
12.65487433
12.66030722
12.63976751
12.63139252
12.65555999
12.63079603
12.63930705
12.62768442
12.64033083
12.65704048
12.63701866
12.63595581
12.52712198
12.55816569
12.59381039
12.51857335
12.52780627
12.65932754
12.5839691
12.61520591
12.64619799
12.64014714
12.67388985
12.68027742
12.66612533
12.70501082
12.63628903
12.64318551
12.60344135
12.61533052
12.59704003
12.6190738
12.67017196
12.6417007
12.57967549
12.66918318
12.66882321
12.48185773
12.51379015
12.49036209
12.52623826
12.48014031
12.46832342
12.47016068
12.51093215
12.52793874
12.5295465
12.53951889
12.60608637
12.57168522
12.58799054
12.53370374
12.55782737
12.49381879
12.47637782
12.52310575
12.50208984
12.60431668
12.64883628
12.66374529
12.65847223
12.62077286
12.60645615
12.52089584
12.52687676
12.5909665
12.5802494
12.60769604
12.57837006
12.55874456
12.52998076
12.51078537
12.50185105
12.52683765
12.52617011
12.56325889
12.58789549
12.58819139
12.49751966
12.55657628
12.5257634
12.55833652
12.67774146
12.66169389
12.62457355
12.63352241
12.60341077
12.63630207
12.6015429
12.58785259
12.63410486
12.64839624
12.625656
12.6786001
12.69571235
12.69974467
12.71935389
12.50747001
12.62759297
12.63926563
12.6562195
12.57308418
12.6432514
12.58457308
12.58482895
12.55853931
12.54394518
12.5401185
12.59491608
12.60235108
12.56061676
12.59630129
12.58092255
12.55324753
12.59630162
12.57768392
12.51675405
12.60792288
12.56121661
12.61608501
12.58751788
12.55903018
12.56653972
12.65586252
12.66408033
12.6170616
12.67631916
12.67999736
12.61885104
12.56112274
12.55789304
12.50329557
12.54836484
12.48665597
12.47935512
12.45875717
12.57582276
12.45245204
12.44046846
12.42782595
12.46630762
12.55097189
12.56268445
12.52639384
12.5772901
12.54881017
12.61450903
12.63792063
12.64651845
12.61670277
12.58386573
12.5382955
12.54564974
12.57381575
12.58451804
12.54275128
12.52741259
12.69081712
12.75417364
12.69108453
12.63171783
12.66424313
12.59710223
12.60693885
12.62299862
12.64947776
12.65177087
12.65594888
12.68686154
12.6814917
12.69221415
12.70039448
12.65626091
12.67565165
12.73832511
12.69365009
12.71358463
12.62176668
12.53990576
12.57081859
12.56359141
12.57719921
12.60465829
12.62291909
12.60943638
12.60945519
12.55285669
12.57613207
12.56523544
12.49514021
12.55306627
12.54455343
12.5857823
12.5802323
12.64036864
12.60821904
12.59854314
12.53121724
12.52901214
12.56828236
12.536156
12.59888496
12.6020795
12.66895156
12.65573488
12.60798701
12.60803646
12.52549933
12.50213371
12.53747134
12.54297074
12.60933051
12.62059439
12.64942853
12.69570258
12.63973427
12.5625224
12.48573125
12.51115078
12.49659816
12.59307084
12.60383842
12.62301367
12.5846253
12.57881435
12.60657476
12.58702397
12.61124257
12.60853803
12.61733326
12.66118304
12.68587221
12.60268094
12.56768076
12.55977936
12.49059885
12.54788403
12.63285325
12.67743765
12.63957307
12.51718566
12.5421276
12.53326442
12.60755541
12.62198166
12.62688506
12.63110553
12.55099646
12.55907141
12.53843812
12.49539877
12.50441414
12.57087525
12.55974432
12.53969782
12.55179934
12.55928526
12.61612453
12.62021312
12.62507372
12.64150463
12.61393138
12.55785973
12.50775808
12.61316705
12.56315167
12.54620472
12.56578245
12.64161779
12.65988392
12.71875451
12.6699944
12.68765443
12.65676771
12.69241881
12.64822759
12.66752766
12.55494345
12.52108942
12.43559831
12.49886324
12.46915317
12.44447762
12.47206476
12.45158902
12.52478826
12.55145181
12.49950409
12.49166279
12.50368211
12.55438436
12.59020566
12.56946476
12.52609335
12.56164568
12.58281386
12.60450619
12.60334318
12.60103952
12.5844196
12.64156502
12.66313478
12.65886033
12.68607704
12.66404991
12.64756095
12.65680201
12.65877546
12.60110695
12.59284876
12.57355674
12.60130938
12.62986574
12.64036716
12.5896559
12.59104591
12.59223968
12.6673265
12.60618674
12.60941477
12.61721143
12.52453725
12.56740832
12.52250527
12.58509539
12.55500433
12.56901595
12.57482502
12.68427161
12.59576312
12.55749006
12.61496639
12.60997352
12.60208821
12.67076469
12.73665222
12.62179822
12.60033431
12.57467566
12.63097185
12.63461213
12.62406415
12.5888815
12.54155833
12.55714579
12.45869172
12.46253129
12.50637395
12.49297618
12.58851853
12.62579465
12.62230974
12.62323677
12.58625161
12.61945078
12.61642267
12.676508
12.43221436
12.44855477
12.41522585
12.41134119
12.45219115
12.53978137
12.54533352
12.53650324
12.58064357
12.55765326
12.55041094
12.49859648
12.47470328
12.51821411
12.52253484
12.58314749
12.58309819
12.61883649
12.54504747
12.48054029
12.56072439
12.57809427
12.61072843
12.66785358
12.64681142
12.58360086
12.63147755
12.61984718
12.69913896
12.73696429
12.67700644
12.70712844
12.72553031
12.70063678
12.67709951
12.68216926
12.69734105
12.70437897
12.6977728
12.65427235
12.63241462
12.55697502
12.48781615
12.50703706
12.56047816
12.52536658
12.59760227
12.58550102
12.50455333
12.51333608
12.51350329
12.4984762
12.4641452
12.56800438
12.52651611
12.57253221
12.53870118
12.55589528
12.52517751
12.60232555
12.65542389
12.6245206
12.61207314
12.55822053
12.58559725
12.51824306
12.53036423
12.53283753
12.5464416
12.6294453
12.65194858
12.69054481
12.64563698
12.65196641
12.66725608
12.62592727
12.63826028
12.61311521
12.6374672
12.6711942
12.63998278
12.59283643
12.62783505
12.57811903
12.5872105
12.59173213
12.54546441
12.57471568
12.50335147
12.46955195
12.41778261
12.42695092
12.42396523
12.50390656
12.52521262
12.54172711
12.5198376
12.6130916
12.63348109
12.64198552
12.67813658
12.67019376
12.6687672
12.73237777
12.69221241
12.66680262
12.58124382
12.5900118
12.53446991
12.51235828
12.49633421
12.46642051
12.44919606
12.52595809
12.567006
12.60415285
12.58866251
12.61986261
12.59371782
12.59369195
12.56090319
12.55927567
12.59177115
12.57404295
12.54938519
12.56527204
12.68256568
12.71503361
12.69699051
12.68411295
12.67036151
12.69329897
12.67863636
12.69618048
12.62645346
12.62498059
12.61418026
12.56683399
12.56657536
12.6226433
12.65516545
12.6931786
12.65355385
12.63415029
12.63755531
12.59585062
12.57191628
12.54329674
12.55858034
12.59494948
12.53124734
12.5696874
12.57452305
12.60001847
12.62780786
12.69339564
12.68370465
12.68965308
12.731501
12.64190365
12.5881299
12.54903848
12.59896333
12.58706185
12.64877638
12.66857352
12.65690576
12.60805279
12.64428358
12.63578759
12.62617082
12.64499156
12.58482287
12.59460141
12.58647697
12.5029613
12.51264394
12.55027873
12.46326308
12.5311808
12.6094689
12.6126389
12.59942336
12.61058893
12.55989794
12.64028029
12.59417701
12.61668905
12.66275863
12.66943373
12.70052437
12.6705467
12.63963802
12.61246931
12.54626601
12.59188482
12.59274815
12.65358961
12.62391503
12.6531633
12.63699646
12.6882497
12.71927249
12.68047062
12.66272969
12.65577313
12.58856023
12.59080733
12.63871649
12.62976045
12.58943568
12.57470226
12.49847262
12.48456935
12.56110071
12.56314447
12.5591258
12.55524606
12.54380487
12.63008732
12.61069625
12.59504583
12.55542874
12.55392403
12.52160282
12.55531761
12.59585089
12.61919042
12.56677091
12.58584772
12.60408556
12.67327827
12.73814251
12.69564205
12.76050399
12.73512592
12.68382205
12.73580281
12.70139275
12.6579901
12.61213829
12.62727542
12.59329755
12.54267351
12.56879455
12.49834294
12.48773128
12.50118012
12.52238842
12.48065424
12.47691754
12.43371826
12.46805838
12.50329861
12.55574883
12.56209158
12.59631943
12.63189863
12.63642506
12.62542511
12.47220424
12.50221614
12.57261909
12.56571538
12.60046776
12.64089484
12.60978818
12.65723084