/*--------------------------------*- C++ -*----------------------------------*\
| =========                 |                                                 |
| \\      /  F ield         | OpenFOAM: The Open Source CFD Toolbox           |
|  \\    /   O peration     | Version:  v1706                                 |
|   \\  /    A nd           | Web:      www.OpenFOAM.com                      |
|    \\/     M anipulation  |                                                 |
\*---------------------------------------------------------------------------*/
FoamFile
{
    version     2.0;
    format      ascii;
    class       volScalarField;
    location    "0.02";
    object      overallT_mixture;
}
// * * * * * * * * * * * * * * * * * * * * * * * * * * * * * * * * * * * * * //

dimensions      [0 0 0 1 0 0 0];


internalField   nonuniform List<scalar> 
5120
(
300.6312817
300.8631007
301.3757275
301.0344781
301.0359849
300.7178186
300.9688782
300.9744315
300.6676251
300.5573471
300.8485518
301.2750603
300.7513909
300.5072873
300.5292184
300.288147
300.3409297
300.1677177
300.1367764
300.5992614
300.8384042
300.7615444
300.9543552
300.7681176
300.8980924
301.0752322
301.2005166
301.3967006
301.1326292
301.1414186
301.023029
301.2456231
300.6139099
301.121614
297.8300041
297.0178336
299.8898329
300.6349824
300.568053
300.2709564
301.2095418
301.6792546
301.0432032
302.1075691
301.4867887
300.8581366
297.8656349
301.4772484
301.1401476
301.0365543
300.9753428
300.9451963
300.6045302
300.209968
300.2768202
300.9092197
300.564233
300.8339639
301.2074465
300.9050017
296.4299111
294.8825418
294.9029034
294.6730682
292.5734931
300.1831147
301.2387882
301.073756
300.7063937
301.5156503
300.9922318
300.6145273
300.1518105
300.3476709
300.1110008
300.7670356
301.2837271
301.1997832
298.0248362
297.0691512
300.4341681
300.9176546
300.4206166
300.1757737
300.7758022
300.7603961
301.5524421
301.1184672
301.322162
301.1775938
301.0839195
301.100757
301.0143385
300.9473044
301.1670637
300.4169124
296.2658065
300.4249337
300.0079023
300.7926279
300.6785757
301.0766408
301.2089613
300.7129519
301.1888928
301.460378
301.2409444
301.0565127
300.270248
300.5095409
296.1817845
300.9223602
300.7465549
300.9311746
300.6748403
300.6022263
300.7769669
300.9191428
301.1768033
301.0368254
300.2559979
294.0504238
299.3640607
300.155266
300.3180364
292.8952903
299.1864641
300.6916722
300.6779779
300.5791213
300.6745357
300.6483368
300.9620454
301.5994253
301.2039656
301.0117131
300.9344249
300.0331202
299.9512195
299.8207718
296.9172392
297.1907533
297.001397
301.0480004
300.0703082
300.4630274
300.8499437
300.6244662
300.4561434
300.5467233
301.1175236
301.0189253
301.2365312
297.1780587
297.0397245
296.7783627
296.0291203
297.0335135
301.5579891
297.89586
301.885618
301.1830605
301.0803941
300.5303357
300.2013926
300.8857094
300.9559673
300.6425606
297.8697971
299.8694564
296.8040529
297.5359107
300.5236877
300.7698808
300.7677377
300.6600882
301.0844942
300.9405288
300.7510092
301.6092712
296.7920372
296.4121962
296.5724465
297.0039958
296.722174
297.1013439
298.6345694
298.2903474
297.3980814
300.4966441
300.0094836
300.4802599
300.646216
295.0483392
295.0153208
294.1834662
293.4105144
295.0939017
300.0868865
299.9301368
300.5959857
301.8596606
301.1769872
301.5329107
301.8448313
300.9087137
301.2534863
300.717992
300.2453815
300.3097874
300.6575577
294.5342393
293.0769679
299.0387337
299.4255698
299.8200716
300.0892954
300.1534365
300.2442784
299.7684264
300.9833067
301.1308858
301.3103714
301.6818189
301.4961845
301.2359817
301.3479992
300.5148203
300.0231965
300.2908648
300.6088536
301.5403497
300.8339314
300.6209001
300.6365901
300.4379197
300.6640802
300.6306388
300.5106465
301.0214567
300.1365935
300.2088064
300.477767
300.7222887
300.8625148
300.6925224
296.4027345
300.6182151
300.5775442
300.5336171
300.7052229
301.2194593
301.295939
301.3609842
300.7940378
300.4156877
300.7160343
300.351665
300.6316163
300.6227706
296.4614989
301.4428165
301.1555288
301.0253698
300.7209257
300.0841475
299.8896657
299.0964194
299.7049291
293.5892843
295.3015611
299.9459144
300.7772337
301.0118489
300.8013766
300.8743901
300.0565021
294.5459064
294.7877987
294.7771588
297.1624555
297.8732575
300.8500311
300.6704539
300.9890756
300.9447212
300.4104233
300.5608311
300.5979735
301.0619133
301.2910706
301.1409033
301.1717165
296.7187498
297.4888458
300.5632058
300.9573558
301.2579057
301.2517181
297.2025554
296.0296151
296.7043513
298.2005224
296.8803947
299.7420132
299.4297367
300.5224205
300.6283693
301.0240135
300.8719595
299.5477841
296.5344981
297.123067
300.2172644
294.7880612
299.6243461
299.994921
299.7621212
299.4397364
299.3021717
301.4969094
301.0787584
300.0608904
299.8455796
300.0550172
300.4822912
300.2783878
299.7181086
296.1021287
297.4519121
296.8043648
296.3537879
296.190439
295.6746106
296.0800547
297.8292646
300.5013642
301.1348606
301.0709732
301.1099578
300.5222022
300.0604521
300.2707067
301.3470673
301.7662095
301.5896114
295.5848193
296.999182
296.2538448
296.9204577
297.3257688
298.350356
301.2640626
301.3528155
300.9662915
300.7984878
301.3426003
300.8544397
300.5921236
299.9669801
300.111981
301.0975538
301.4861642
301.1232761
301.2812145
301.3285413
300.9642427
300.0798422
296.9632607
296.0663612
296.2785093
296.042833
296.8966818
297.3053427
297.774451
298.707598
300.9466228
300.6640158
300.9716349
296.3190492
300.5382536
296.6241824
296.9361779
295.6582877
296.1693695
295.8045816
300.5898184
301.1516666
301.4063409
301.7719805
300.7920547
299.5948588
299.9713598
299.6386868
300.9335168
300.8766765
300.7215715
300.6006417
300.3152323
300.7550443
300.5025814
300.7389158
299.7207051
299.835978
300.0757473
300.4964293
300.9873352
302.0286519
301.4410579
301.1375562
297.769185
297.3837683
297.1250061
298.0213805
297.082392
300.6296612
300.0896707
299.6269852
299.7262821
300.1134443
301.1505661
300.8146811
300.9603478
301.3319532
300.5151221
300.0047545
300.3871587
299.9569602
299.9661296
299.9740529
300.7832003
300.3689537
300.0472567
300.0958374
300.3135662
299.8764802
299.3086998
299.5601413
299.9486432
300.5871887
299.6613461
300.0731951
300.4417504
301.2040754
300.6673832
301.202724
301.4095176
301.1920896
300.9359711
300.7190744
301.5044186
301.4360721
300.6538668
300.5251624
300.1829003
300.4190744
300.6690977
300.4148971
300.1291574
294.5298663
300.4969507
301.1889763
300.8469616
300.4857182
300.5202766
300.0312047
296.0459824
296.0826583
295.033438
300.7920915
300.620735
295.6567088
296.6868415
300.641323
300.8832866
300.6072063
300.8763344
300.2406238
300.0641974
300.5117726
297.4489064
300.0102131
300.5687591
300.8375437
300.8375059
300.1711802
300.5024574
300.475335
300.0927332
299.7697863
299.8588719
300.057232
300.0422925
300.5676771
300.9662803
300.9500035
301.0048933
301.123034
301.5820245
301.1474125
296.0365602
296.8557338
296.7958679
294.7333607
293.107998
291.491346
290.5143937
290.6999845
293.3780546
293.3841885
296.0014415
296.0039822
301.2316477
301.362659
301.6972491
301.8978313
301.6023823
302.038229
294.6470052
295.1967768
300.6978849
300.1233848
293.7831966
295.2305378
294.0288755
294.8823196
294.5959808
296.4906578
301.5267884
301.3778867
301.8237378
301.0856408
301.6552283
301.2927145
301.7111072
301.3427465
300.773342
300.3210865
300.5877074
300.5036401
296.1954954
293.9875943
293.3652664
301.0210281
301.0823411
300.456698
300.7632868
301.1403077
300.0441503
299.8347318
299.7818894
300.4891247
292.469094
300.0286097
300.0223193
299.7866203
299.629597
300.2014568
296.6641429
296.0234572
300.8279465
300.8730575
300.8562334
300.7124707
300.6553489
300.7331892
300.4633036
301.0351483
301.9414289
301.995647
301.2962663
300.1098102
300.3450983
300.3128214
296.7117195
296.5963345
296.6963932
296.8416291
300.5968544
300.1443383
300.7594702
300.7459659
300.5757256
301.2358795
300.0132149
300.3683301
295.8831946
297.0425324
296.9241484
300.9086971
301.2211795
301.7314904
301.1469972
300.8083506
295.4564082
294.8382066
295.2731526
296.2802259
300.8157217
301.2976585
300.8369884
301.1373876
300.9975746
301.3968034
300.9798592
300.9893318
301.1539239
301.348614
301.0759504
301.0292943
301.7861891
301.3267205
300.9647216
300.7065964
300.7638456
301.1724876
301.7070382
301.8364056
301.2012158
301.6268155
299.8363153
299.1260085
296.1592596
296.9463648
296.8985043
299.6935218
299.6337758
300.0588366
299.7544084
298.7529607
296.1249326
299.8130475
299.8897628
299.7502452
299.6389764
296.6484489
296.0967135
297.3253475
296.6468438
299.8530813
294.1423753
294.2328678
294.1319261
293.7693345
295.7047035
296.7396953
296.7165677
300.0417816
300.0547023
299.8634443
300.4407251
300.6742834
300.69712
295.8755199
297.0557814
300.9175996
301.7323328
301.6440934
301.2168922
295.6619232
300.5543977
300.5230648
296.5046823
296.0364972
295.1034802
295.8824151
297.7991311
300.8425528
301.5655251
301.563922
301.7100611
301.3815504
301.0862184
300.602926
301.0865839
300.1369119
300.0982635
300.0254037
301.2300612
301.2937618
300.7908034
300.7722962
300.763639
300.823968
300.9641654
300.8536768
301.0927964
301.0149536
300.7312417
300.2936822
300.6020006
300.7397171
301.4273821
300.8090742
300.7614603
301.6024316
301.5295416
298.6322023
298.0821592
300.3833551
300.7989396
301.6949549
301.9419522
302.1457439
301.4934715
301.8530799
301.2821151
300.1674738
300.6551255
300.4807313
301.3590219
301.2736704
300.865668
301.1536544
301.2153671
300.876651
300.9945138
300.9702845
301.2799772
301.0617228
300.9142544
301.0472293
301.7149253
302.1691661
301.643009
301.9036713
300.8955222
301.1257434
301.4109572
301.0955193
301.2922803
300.9218415
299.9764509
295.99193
295.8903284
299.9494374
300.4588482
301.1721579
301.5411604
300.8423051
296.1221922
296.2532797
296.4631235
295.5089256
296.3075036
297.5163979
296.5310314
295.1515566
295.1719518
295.9179707
296.9088221
300.4388896
300.8985172
301.4660025
301.0889436
300.5433232
300.5034936
295.5837292
299.9210316
299.6498965
301.483603
300.943021
300.5064119
298.547014
296.7769848
296.0014095
295.1068854
295.7682156
294.6083676
300.3071256
301.3822198
301.0014401
301.5132993
301.5059777
301.2255477
301.3904428
302.0365192
301.7218968
301.9039946
301.7398525
301.0304403
301.3565251
300.5504877
300.444379
300.3222443
300.7464966
301.2195019
301.2638769
301.2196417
300.9742212
299.0119885
300.3075599
299.783723
299.9310361
300.2159486
298.3398921
298.488431
300.61939
301.3448546
301.0715473
297.6924419
297.3862935
297.2777587
296.7448863
301.2752898
300.6719224
300.7356486
300.2131161
301.162015
300.2890212
300.1196872
296.0116946
295.0553548
294.9466228
294.4572347
294.4169494
295.2593
296.9522596
296.66402
301.2730566
292.9873034
292.1692862
292.1529311
293.4751173
295.0122819
295.8257618
294.4835362
295.0594435
300.5233778
301.2056264
300.81499
301.0387529
300.7674285
300.5676893
300.8167008
300.0336899
292.2055668
300.3772463
301.0853511
300.4239582
301.0581554
301.3691159
300.9431175
300.3925129
299.9037919
300.4956004
300.6175172
300.8402228
300.8872426
301.0063421
300.7993477
300.9245959
300.2006652
300.0930813
299.4180495
299.6443826
300.4260474
299.9583014
299.9945176
300.4020978
300.1207971
300.0322959
299.7638158
300.5454256
300.8002447
300.9520991
300.5892038
300.7488053
301.1586816
301.4268335
301.4347956
300.5711421
300.5862353
300.941448
300.9213722
300.7494853
300.6023349
300.7428574
301.1867564
300.5750046
297.3965211
296.7624124
295.4140249
299.3370797
300.6234513
300.7362783
300.4725685
300.7645741
300.0944253
300.0010652
299.9003474
300.2965956
295.7895234
295.0713836
300.1696713
294.4838329
294.6353047
295.2860445
296.4195087
298.1487343
295.4348541
298.0385291
298.6224413
298.139563
298.3882137
300.6488787
300.6361098
300.6018998
300.6245418
300.0616285
293.9210932
294.6322552
294.1291623
294.7795756
295.6324901
296.5887356
297.1573875
295.4223924
294.9204296
295.0087615
300.5371349
300.8220425
295.798885
297.341309
298.2136726
298.3820259
298.0316803
297.0367184
296.0056949
295.4578893
301.1379642
301.6110174
301.5084121
301.8132686
301.8540891
301.5329599
301.0750945
300.7938283
301.1808428
301.1843997
295.4779222
296.6952169
296.8908858
297.3612314
300.8661359
301.4600137
300.3516396
297.6991623
298.4855655
298.3449917
297.6870213
298.4709925
299.7804309
299.6513911
300.6718291
300.8405979
297.697701
295.9953808
294.8808436
295.6643235
301.2314415
301.3072899
300.4217023
300.4507608
301.3946543
300.6463028
294.3365171
293.6679911
292.8948307
292.782493
293.9714839
293.1165375
300.9485529
300.6176491
300.6497697
300.6702448
300.6520659
300.6031045
300.7111145
301.3235763
300.711997
300.6863393
300.9437355
300.7038952
300.7755917
301.1798825
301.1621914
301.5207175
301.1358561
300.6499416
300.4292642
296.8257467
295.6364708
296.335357
295.6893761
300.8292931
301.6090562
301.1098523
298.0861609
300.5230676
301.4821147
300.9263988
300.5510475
300.6008723
293.922136
294.93407
295.1350026
296.4145448
299.8752925
299.7657171
300.0135877
300.6048271
300.6615263
300.9564894
301.3129516
301.2199927
301.1673985
301.7167752
302.5846399
302.467282
302.4122932
301.6039338
301.2139975
301.0036278
301.0729996
300.8199077
300.471154
302.0074733
302.575314
302.2149642
302.3478059
302.1848504
302.1413905
301.996951
301.3596306
301.186929
301.0783469
301.3804766
300.8293707
301.7563556
300.7970156
300.5940053
300.2579674
300.6271928
298.9661996
299.1387584
298.0760032
298.0385131
300.4091699
300.4943523
300.4181001
300.9101219
301.8537367
302.1547309
301.8092941
301.2517568
301.2989552
300.83715
301.3648109
301.1140136
301.4289461
301.4550588
301.7653449
301.6257949
301.9231856
301.4520369
301.3148917
301.1288563
300.7944506
301.0821196
300.9178054
299.8611327
300.0231777
300.4997294
300.2503457
300.7999944
301.1679088
301.3222196
301.603872
301.9737016
296.7240855
301.1203071
300.9241389
300.8675263
301.0143883
300.5572756
301.4421903
301.9064097
301.6518692
300.8818732
300.4937777
300.8316135
300.6594193
295.4079376
293.9774381
294.3144798
300.4170165
301.0519545
301.269281
296.2356836
299.802083
299.4088395
299.9901459
300.4181377
300.805202
300.8782717
296.0658212
300.339088
296.3904092
297.0761459
297.6157279
301.2134808
298.0045314
298.5472746
298.9403171
297.8055892
299.7942292
295.3292359
299.4777957
299.9056262
301.0366349
301.0335772
301.4264671
300.8560943
301.1048567
300.9637273
300.5909674
300.543249
300.5939148
300.5994342
300.7097137
297.2581437
296.1622848
293.4100073
293.5610389
295.6829509
299.7542149
299.9676967
300.4308658
300.7787892
300.5439531
300.2187935
299.6199407
293.1557043
299.9350911
299.9174513
300.4288193
300.3279858
295.4989255
301.1267102
302.105586
301.6458441
301.7151756
301.4636852
301.351458
301.8303658
301.6518033
301.4722587
300.694622
300.47135
294.9890821
301.0189057
301.4989846
301.1057053
301.1651507
300.7063779
300.9880865
300.9092524
300.7496154
295.8183154
295.4151378
294.3459772
294.058066
300.6995162
300.3708845
300.2471527
300.9566826
302.0841614
301.2982877
300.783772
295.0181317
294.8973523
295.2566587
295.4833792
301.157614
300.9683344
301.9607805
301.1929156
300.8281242
300.787881
300.6682416
300.8738712
294.781246
300.026045
299.8978857
299.8900825
300.465947
296.369066
296.9742226
296.0146978
301.3257699
301.7308979
302.2770665
302.1813415
301.6582416
300.8846131
300.9878158
301.44441
301.8746728
301.8703864
301.4568704
300.7322234
301.0617393
300.50922
299.9437112
299.9427545
300.0135652
300.926558
300.9997727
301.2172444
300.8404483
300.6692025
300.5301107
301.309382
300.6431259
300.7207677
295.8461673
295.0668831
297.5096966
296.6892314
296.8700396
297.3877887
296.488078
295.3448117
294.1050739
294.294069
295.3424527
294.1674004
294.0607461
294.5193286
296.3992117
295.9039806
300.3243076
300.6241891
300.9070619
300.5885023
300.6825672
300.8402805
300.6366782
300.9040298
300.8999499
300.7813467
296.957539
296.3244749
295.354718
294.6780096
295.1569048
295.5097247
296.7865309
296.4052007
300.5794605
300.2900892
296.8057167
295.4193955
296.0195433
300.4761252
300.4191318
300.0091475
299.7709911
299.9611933
300.821022
301.0424285
300.8468104
300.5718576
300.9265482
300.4552031
300.6030977
301.0347364
300.9536126
300.5568288
301.29165
301.1484671
301.59479
300.8676773
300.6402048
297.0021096
297.7516405
298.5899175
298.8208775
297.6894976
297.1802108
296.2556029
296.4585207
296.0744346
297.1667376
298.2699504
299.7573368
299.8299291
300.5154915
301.2246928
300.9417082
301.0671095
300.7803305
296.8259816
300.4069575
300.7721815
300.4944066
300.9679831
301.1282071
301.2988155
297.0198335
300.9866857
301.1639762
300.9647188
301.3869093
301.4972616
301.4093308
301.7194031
300.986154
300.8451604
300.5497034
300.842736
300.6836824
301.6156238
300.8779066
300.7421635
300.8534629
300.8754039
301.1431121
300.8474615
300.9757593
301.0954594
301.3127634
301.2196567
301.3992942
301.73428
301.2905535
301.2416721
301.0763649
300.600625
300.4938867
301.1291584
301.2920923
300.9897395
300.5166062
300.7464082
301.1831275
300.205179
300.0909783
300.1066042
300.9381371
300.9298372
293.2286744
300.5689185
300.3710088
300.7096211
300.7644812
301.1038181
300.4932775
300.4733275
301.4778958
301.0432912
300.5302842
300.7274718
301.4122917
301.3371673
300.9450796
300.9933112
301.0338765
300.8622464
300.5711565
300.0138134
300.2991499
299.8858541
300.4436283
301.4597094
301.4258905
301.0652762
301.1196881
301.7394662
301.573389
301.7301456
300.9366133
300.9690956
300.3777812
299.5343611
299.8796086
300.4262906
300.3435619
300.4032899
300.268163
300.8418788
300.8484293
300.3002582
300.7306548
301.1380582
301.0845402
301.9043239
301.7207057
301.3110883
300.4547708
300.5397988
300.7468656
300.1878405
300.0211742
300.3389409
300.5232061
299.729914
299.9504654
299.7800357
300.0982679
300.5501413
300.4249064
300.361486
300.3024135
300.0285852
300.4441426
300.3120067
299.6981244
300.4535805
296.4889863
296.7298202
295.9042737
300.8197531
301.280726
301.5878957
300.8659166
294.7874436
294.5959203
292.5274446
292.8926105
293.7406694
300.0411549
300.2043942
299.9808404
300.1986028
300.602465
300.4130971
300.0346285
299.8867343
300.2618459
300.3601126
296.956952
295.9351547
300.3299288
296.5853429
296.0781232
294.9777413
294.7715317
294.5057068
300.7589214
301.4885722
301.2668018
301.2811123
301.2538291
300.1296245
300.1675577
299.9187917
294.0389498
293.3952894
299.0217831
301.1068438
300.7434201
300.7262988
300.7909658
301.0135309
300.2907396
300.2627257
301.0074957
300.4739085
300.0133621
296.230315
296.7250922
296.6132032
297.2488266
298.4792641
298.6438734
299.2450697
298.5312089
299.0487363
300.0313523
300.663505
300.0118226
300.2357254
300.7957216
300.446179
300.4773247
300.7666237
300.8532135
300.9417536
300.692684
300.4347457
300.1461563
299.74316
301.0804533
301.7050413
301.4145078
300.4821147
300.5067304
300.2902621
301.1587782
300.8281889
300.9820547
301.3375304
301.4296876
300.9785311
297.7989996
295.8657428
297.6825357
297.2014223
300.8335995
301.6110829
301.9655502
302.361092
302.4197863
301.8095887
300.9684173
301.7149738
301.4542902
301.2630884
301.6080471
301.7283944
301.3347124
296.0869079
295.7360638
295.1298563
295.0746489
295.5272053
295.2548427
294.7500263
295.4244077
296.1309156
300.7413146
300.6951261
300.6897118
300.5740895
301.1417135
300.7905346
300.3809058
301.6733724
301.899242
301.2065751
301.596873
301.8773072
301.5487022
301.8138916
300.9928803
297.1085153
297.7967167
297.6087309
296.674608
296.4445812
296.1636201
300.6948162
301.3941919
301.1919422
301.0252881
301.1576115
301.1520828
301.2165606
301.0686855
300.9578188
301.319298
301.1109419
300.6892927
300.5619124
300.8030908
300.6165168
301.2967194
301.7976276
301.9113096
301.7150419
301.4092565
301.6091152
301.6269124
301.0910645
301.314782
301.7065377
301.2854443
300.9123614
300.3937196
300.9068987
301.2130931
301.1001438
300.946648
300.9970578
300.6335821
301.6945508
301.7315149
301.0378986
300.4219123
300.582279
301.3378536
300.9351292
301.019398
301.0001219
300.1428951
300.4233484
300.4986851
300.6107837
296.8438234
296.7345924
294.6137892
294.2679454
300.8884886
301.7007918
301.321365
300.9753748
300.9883654
300.2549559
295.254224
296.7996894
297.4412385
299.9475341
300.132404
300.0376366
300.4730841
300.4870732
296.818924
297.5534424
300.611668
300.6170333
301.441418
301.1327859
300.8797499
300.8652633
300.5978134
300.9093555
300.8164928
301.3887551
301.209498
297.2360564
296.6944454
300.326314
300.3680704
300.7865376
295.4773346
296.457853
300.4859378
300.6936978
300.4307323
300.3130445
299.8354556
300.3126487
300.7700939
300.8118743
299.9708098
297.3603288
297.4357476
298.2984471
300.5594345
300.7832854
300.3429531
300.9779522
300.5660592
296.2592265
300.4599368
300.0823473
300.4288419
300.7133761
301.0450146
300.8671031
301.4884036
301.2278967
295.3010456
294.4962877
295.3759949
296.0562273
296.1324272
294.516488
300.0458186
300.0087406
300.4944416
300.2724314
300.5025175
300.6121524
300.5557425
300.5276222
300.7080561
301.2931475
300.4354175
300.9886473
301.3876551
300.8058283
300.8212174
301.7830374
301.6917567
300.4676485
300.5364577
300.644149
300.2584298
299.994567
299.8588113
299.4711135
291.6244701
299.168359
299.6284564
299.8927408
300.0504999
300.0653063
291.9361892
292.589372
293.1871524
301.4177585
301.6514598
301.7517457
301.4202767
301.5183556
301.2881742
301.3600148
301.2331136
301.3108765
301.2203978
301.5012677
301.0185506
301.2716184
300.7837093
300.8893213
300.7352817
293.7326381
300.545877
299.8955239
300.397182
300.4758252
294.6301605
294.4903443
299.7165471
300.5517336
301.099243
301.3915234
301.556359
301.1925602
300.7371942
300.9769764
302.016759
300.7014413
300.6042708
300.1022236
300.1376596
300.4422917
301.2039495
300.6850794
300.7576521
300.6871872
294.7637668
293.8168694
295.3854884
301.9081848
301.5953817
301.3508147
300.7340086
300.2327604
299.8204642
294.7613274
293.1822286
299.7393101
300.1444369
300.5487702
300.4569886
300.8235791
300.6260798
301.0893419
301.3838126
301.5520256
301.1286061
301.832523
301.1461581
300.7572287
300.7687375
300.2000191
300.4909182
295.7401563
296.6831819
294.7519949
295.9354063
295.4813535
296.6176585
300.7201223
300.8510267
300.5494143
301.2668642
301.2949889
301.2748404
301.0346548
297.6617167
294.8694398
295.4737267
295.2859027
295.0376429
295.9636808
296.5247731
296.9425276
296.8498723
298.688382
300.9147427
300.8882119
301.1711084
301.7303469
301.1223618
301.0272658
300.3633442
299.8222247
300.4411522
300.2418517
296.2194389
293.7302004
294.2295321
293.4200313
293.2087907
300.4148784
300.2945534
300.9126788
301.3134662
300.7907592
298.0645943
296.7506752
297.7608915
297.3571266
297.7649793
298.1653086
300.034659
300.0479648
300.4373695
300.647688
300.7476145
301.3230878
301.0991322
301.5508275
301.2336396
301.4377974
301.5008908
295.9716361
296.0934741
296.088593
296.43317
297.1809114
300.6049513
300.9078923
300.4315336
300.2684324
300.0080157
299.7815625
299.8754386
296.7110874
295.8618832
296.4538377
296.2113906
296.1778509
297.5019423
297.6853283
295.7348395
296.4598166
296.3885268
296.0764796
301.2739075
301.24733
301.1880879
301.1812712
301.1827819
300.7953674
301.4380925
301.2226066
301.4428566
301.3267357
301.62067
301.6408051
301.5319465
301.5651015
301.4080138
300.7226379
296.5674707
301.6500937
301.5308494
301.8609581
297.7111369
297.3263505
296.6826029
301.0637545
300.7964003
301.188679
301.8340929
301.6110191
300.536634
296.4526035
297.1830825
298.5844292
297.540733
296.3762399
300.1305017
300.8016808
301.120882
301.0365065
301.1325079
301.1393962
300.6812346
300.6451338
300.5408282
300.0639575
297.0744157
301.3568124
294.9776951
295.267088
300.9239842
300.7344439
301.2555631
300.8355622
301.3206299
300.9105453
296.4486268
300.7908698
301.6679788
300.8932338
300.5422079
297.3964407
300.057178
300.5945477
300.5537171
300.5326658
297.0819945
296.1545635
299.383354
299.5686717
300.1594472
300.4868516
300.1686883
299.4687878
296.7665423
296.068119
300.4478044
300.5956247
301.0643759
300.9166331
300.4569538
300.9908887
300.7508207
300.8733839
300.8994011
300.416789
300.0819891
299.282534
294.7678675
300.2037672
300.695516
301.0529305
301.2436416
297.1002939
295.5245819
296.0660233
300.6483152
301.9128004
301.8467548
301.4657581
301.356585
301.6452505
299.2492093
299.5444895
297.9476396
296.8669971
295.5746155
295.5244644
300.6872245
300.1631545
300.0335336
299.7289523
300.5232791
300.9580498
301.1530292
300.9897321
300.9496531
295.6925061
297.0340233
298.8056166
298.1364327
298.0441106
296.8709783
300.6947681
300.9593758
300.6653367
300.6687021
300.3922934
295.9850244
295.3342711
294.6768949
292.641921
293.1431744
295.1546113
296.6000863
294.6718216
299.9385314
299.9856875
300.3217371
300.0848335
300.1710818
300.6176504
300.9373337
300.6747461
297.2730194
295.8612347
296.6240522
296.5757009
300.5252244
300.0246074
300.5595859
300.7561708
301.0437415
300.8295896
301.4289776
301.1292906
295.621235
293.4215432
291.7218249
294.2215225
294.0268201
300.7024561
301.520218
300.7442048
300.4190688
301.3116899
300.2165097
300.6583522
300.7784666
297.2702939
297.5789614
300.1330984
300.0956191
300.2573595
301.0097586
301.5903108
301.7191527
301.3442253
301.2837553
300.7843807
301.5103077
301.2608249
301.6136579
301.5096931
301.4240615
300.3183071
300.3865022
300.1238134
301.1207746
301.1663784
300.7616555
300.3737518
300.9848016
300.7720555
300.7132036
301.2600179
301.0325119
301.0505808
301.0949596
301.4446315
301.7752423
302.1920556
301.5541087
300.9598756
300.6607848
300.4536909
300.4223005
300.9289216
300.8666533
300.8333676
301.092728
300.8856144
300.834654
301.2141255
295.8519948
295.5279237
294.0630266
293.4086963
301.7273747
302.6477598
301.9525116
301.0645609
300.9919651
300.5470423
299.7902767
300.7848053
301.0484467
301.2733468
295.9504286
295.7831058
296.5029934
296.6273356
296.1390966
297.0638732
298.0673064
300.7626881
301.0751977
301.8276762
298.6085775
297.8671177
297.4974167
295.9473505
295.18275
295.1656617
296.5461565
294.9883344
295.4965361
295.8485882
296.8686284
297.0728788
296.2635953
295.0071898
294.3870921
300.2669734
300.7227075
300.684798
299.9332994
300.0141636
300.4038128
300.1005167
300.4645645
300.4796067
299.9944068
294.4896265
295.3621027
295.914137
297.5982854
296.2788075
301.2447764
297.329178
296.3736508
295.9353622
295.4219107
296.1504302
296.0072907
299.3225838
299.7072855
299.1379342
299.212554
300.1627188
296.821425
300.6501419
301.3902066
300.9728472
297.9667628
297.5532841
297.2871342
301.8880934
295.3632906
294.7613424
300.6379092
300.7728201
300.8635343
301.4765404
301.5330106
300.818735
300.6187138
300.8884716
296.244064
299.8076434
300.0509008
300.6998306
301.1446866
301.5727774
301.3094437
301.2011707
301.2773568
300.7500362
295.0360703
295.6465029
300.8233524
300.1786353
300.1405216
295.5838644
295.909261
296.8843646
297.0206018
296.652694
301.594291
301.9317272
301.2521296
300.4339607
300.6697772
301.0276177
301.7273727
300.8030642
300.4723879
294.1211285
301.6018878
301.9505519
301.1649672
298.3620515
297.3953268
297.6425514
301.2562281
301.8135864
301.5631934
301.1326428
300.2596199
295.9731696
296.9391295
295.7529852
301.6469323
301.6389835
301.3686605
301.0212703
301.6827872
301.8419033
295.4949121
296.4313467
297.1206452
296.2907238
296.7380426
295.90763
297.258018
298.201023
297.3455058
298.7542263
297.2797032
296.8531378
296.5108782
298.7514862
299.9531518
299.441265
300.9929877
300.4409579
300.1307682
300.11765
301.0859097
301.0936099
300.8717002
300.9353896
300.2920474
300.2909417
300.3095427
300.7454949
300.8825267
300.4196605
296.0545246
296.981898
301.0497893
300.8593156
300.9406186
300.0633797
300.0461715
300.5572161
300.5835326
301.4370001
300.6071917
300.3681953
300.6110373
300.0105717
300.6412856
300.9926972
301.0333525
301.5312134
301.0461014
300.7446804
300.1363968
300.0184712
300.5012364
300.6204289
300.4342957
301.2748991
300.8968027
300.2510178
300.3102862
300.0181052
300.6967276
300.4530176
300.4791556
301.2714631
301.2274842
301.5535541
301.7895443
301.8022237
301.5376756
301.0790948
301.4681756
300.4968629
300.8594231
300.4943429
300.8775994
300.4567119
300.8131818
301.2419764
301.7012542
301.458167
301.3242246
301.3485248
300.789638
300.4444566
300.828208
296.5257605
300.5274608
300.4789387
297.6497167
298.7866795
298.1475257
295.9978207
295.9999734
295.4517424
295.0856882
294.8555666
299.4314746
299.8813898
300.1429914
300.7521955
299.8561761
299.3518138
300.4321221
300.4695205
299.5817133
294.6767437
294.4321948
293.0090576
300.170129
300.5086341
300.3968124
299.9317924
300.3077921
300.1797877
300.0470089
295.6309028
297.1823629
297.0119071
300.0213439
300.1079105
297.4952314
297.6346097
296.6622418
295.9441127
300.3421469
299.734849
300.3364388
300.2896511
300.0011278
299.8766564
299.7887469
300.6134902
299.6512239
300.2326432
300.2021775
300.7444671
300.3140709
300.3522681
299.8609116
297.6460509
299.9358322
300.690895
300.5409427
300.0950388
297.148379
298.2697985
296.2375421
300.5230629
300.9750551
301.455882
300.9091772
301.0708582
300.8719952
299.7136114
300.8022634
301.1441073
300.7985986
301.0947548
300.948082
300.2019065
301.2515406
301.5746012
301.7099509
301.0941735
300.7476361
301.3628722
300.9394236
300.7819743
300.0299431
300.6249858
299.9341373
300.4944447
301.4407484
301.8143102
301.3297522
301.0256273
302.04049
301.6990163
301.8486937
301.4801217
295.9891717
294.1727503
295.583813
301.5574921
301.843847
301.4543448
301.6532281
301.6239445
301.46317
301.294784
301.4467661
301.4839869
301.5167403
301.6257183
301.3028182
301.7862464
301.3926941
301.211887
300.6963092
300.0123851
301.8807859
302.2002168
302.2158711
301.845376
301.5915838
300.7938644
300.5891323
300.9582077
300.40003
300.2093587
300.1881453
300.2261
300.169647
300.8901166
301.3705053
300.9884023
301.3879623
301.2920557
301.8805221
301.7761212
301.8907818
302.3774132
302.1653588
302.0305373
301.5317941
301.26672
300.3313351
296.6704116
297.8242157
298.0135787
296.7402492
300.5814412
300.4401714
300.2960725
299.8670696
300.089033
300.941765
300.8813863
301.139741
301.5150288
299.9969673
300.3223488
300.3972894
300.1068395
299.9697802
299.3442574
300.6747708
301.0848334