/*--------------------------------*- C++ -*----------------------------------*\
| =========                 |                                                 |
| \\      /  F ield         | OpenFOAM: The Open Source CFD Toolbox           |
|  \\    /   O peration     | Version:  v1706                                 |
|   \\  /    A nd           | Web:      www.OpenFOAM.com                      |
|    \\/     M anipulation  |                                                 |
\*---------------------------------------------------------------------------*/
FoamFile
{
    version     2.0;
    format      ascii;
    class       volScalarField;
    location    "0.02";
    object      p_mixture;
}
// * * * * * * * * * * * * * * * * * * * * * * * * * * * * * * * * * * * * * //

dimensions      [1 -1 -2 0 0 0 0];


internalField   nonuniform List<scalar> 
5120
(
0.4176019292
0.4174803052
0.4183538632
0.4179000714
0.4176856459
0.4185459378
0.4181927574
0.4178865225
0.4163055115
0.4156314151
0.4163891549
0.4165623827
0.4155763677
0.4155622382
0.4165064866
0.4159238815
0.4149512185
0.4157105872
0.4157528176
0.4168591595
0.4145168384
0.4139145181
0.4153506588
0.4156984522
0.4153044547
0.4141196185
0.415372588
0.4151746464
0.4161285884
0.4141412208
0.4163940927
0.4165278288
0.4149318965
0.4154306574
0.4148550049
0.4147073652
0.4138674092
0.4161153773
0.4148099354
0.4148976791
0.4149783171
0.41666337
0.414995895
0.416809435
0.4175057388
0.41666324
0.4162009168
0.417584471
0.4167476747
0.4163694499
0.4155376118
0.4169348986
0.4174567498
0.4163466598
0.4174227908
0.4169322163
0.4172747855
0.4159073755
0.4160582259
0.4154801529
0.4154063287
0.4141685576
0.4157697207
0.4173449163
0.4154106935
0.4147722857
0.415046408
0.4150388098
0.4156957548
0.415526139
0.416532436
0.4152470128
0.4134230333
0.4128133465
0.4124997471
0.4130249228
0.4137656639
0.4154759099
0.4150283936
0.4141851653
0.4146938594
0.4151751135
0.4155797956
0.4145735106
0.4153498895
0.4145632857
0.4149320747
0.413940731
0.4141388413
0.4137461853
0.4146211733
0.4166869691
0.4150894704
0.4157509222
0.4162123809
0.4142973997
0.4139839053
0.4140426246
0.4133688058
0.4150126499
0.4124809464
0.4141332593
0.4152525239
0.4125564973
0.4151715665
0.4156670879
0.4146314458
0.4143942146
0.4132940914
0.4144732446
0.4144272244
0.4154107212
0.414984208
0.4157935021
0.4145693456
0.4149252549
0.4146185093
0.4140595708
0.4141502563
0.4132596806
0.4122796672
0.4106053397
0.4109304987
0.4132652023
0.4136669796
0.4139558248
0.4136774717
0.4145405957
0.4142897593
0.4139488177
0.4123665618
0.4147171053
0.4146575308
0.4153679023
0.4147327602
0.4151503203
0.4145797207
0.4140223494
0.4134954247
0.4120864796
0.413660203
0.4149048567
0.4141579869
0.413465244
0.4121046533
0.4127324153
0.4131477486
0.4129822767
0.4126345207
0.4132971045
0.4130194387
0.4117083464
0.4127913556
0.4151598157
0.4159787963
0.4164015067
0.4160530021
0.416190332
0.4156885174
0.4148724561
0.4171083146
0.4153165429
0.4156380669
0.4136220212
0.4139249117
0.4159094964
0.4149740381
0.4133472709
0.4139081209
0.4129494626
0.4147040468
0.4150802376
0.4147308977
0.4149611822
0.41508885
0.4147727894
0.4173462517
0.4162946292
0.4161137594
0.4180988654
0.4134260231
0.4133442635
0.4138182251
0.4139317379
0.4143591906
0.4126157352
0.415998011
0.4163773106
0.4154259605
0.4134892448
0.4109719007
0.4120014908
0.4139751195
0.4151927083
0.4152129803
0.4141891926
0.4113257771
0.4120149827
0.4134391508
0.4141880219
0.4156445908
0.4182731681
0.416763655
0.4181184402
0.4164820939
0.4150691939
0.4142988494
0.4132816665
0.4117983903
0.4126347385
0.41529983
0.4159768071
0.4144832745
0.4148223044
0.4133326411
0.4131811888
0.415213728
0.4143210091
0.4133302378
0.4126837032
0.4144153757
0.4137094112
0.4146511259
0.4152965527
0.4158548718
0.4169902896
0.4172452312
0.4144151174
0.4134183792
0.4137093477
0.4138877414
0.4151908574
0.4141520408
0.4139659961
0.4156865633
0.4152566556
0.4152351947
0.4150024188
0.414135853
0.4138011692
0.4143937923
0.4151607443
0.4161712415
0.415205039
0.4146930586
0.4146139547
0.4147412833
0.4133377634
0.4136341195
0.4145083961
0.4146190667
0.4151523547
0.4150084942
0.4158841765
0.4153471457
0.4142213412
0.4149412929
0.4138196696
0.4156398885
0.4156194838
0.418345944
0.4179947553
0.4169954187
0.4176460966
0.4164319372
0.4150227473
0.4135413729
0.4143167146
0.4145688951
0.4151187295
0.4166669423
0.4166725843
0.41846743
0.4187902667
0.4178537252
0.4173101449
0.4152651538
0.415889563
0.4159280108
0.4136804107
0.4136259027
0.4138590043
0.4128415821
0.4127967917
0.4140912434
0.4138858409
0.4132455914
0.4143163985
0.4169300072
0.4170052226
0.418198649
0.4167829103
0.4170740548
0.41656042
0.4156532691
0.4126372459
0.4142907473
0.4168415375
0.4174743421
0.4167392737
0.4158134969
0.4164410073
0.4158431502
0.4151565778
0.4145978424
0.4139153826
0.4157041921
0.4165847869
0.4173252633
0.4166037415
0.4124666825
0.4136880045
0.4145566136
0.4151587094
0.4135826677
0.4142074873
0.4146956107
0.4147091808
0.4139990846
0.4140597629
0.4169287138
0.4174626697
0.4150961175
0.4146588903
0.4158168545
0.4171660373
0.4145068481
0.4140493312
0.4153276025
0.4175390129
0.4179640925
0.4161977594
0.414682848
0.4134669644
0.4157705827
0.4162683648
0.4142773034
0.4157239593
0.4152091965
0.4145476048
0.4165355359
0.4158976209
0.4173269293
0.4185015137
0.4180423866
0.4179975318
0.4163374999
0.4168461066
0.415717262
0.4158518451
0.4147668004
0.4159342273
0.4180239578
0.4175714185
0.415386146
0.4157659219
0.416829519
0.4159907173
0.4150222642
0.4148391744
0.4146689862
0.416858581
0.4164886849
0.4164942731
0.4162645599
0.4157922366
0.4154342075
0.4145183203
0.4154549114
0.4140081938
0.4144126817
0.4148671561
0.4159289092
0.4153032622
0.4161302433
0.4173458393
0.4177070391
0.4165658811
0.416657525
0.416636207
0.4137469184
0.4146216601
0.4150991494
0.4133763487
0.4142267336
0.4164962233
0.4178400162
0.4173453466
0.4161554632
0.4168483084
0.4143645077
0.4113528419
0.4126955711
0.4132704279
0.4138435469
0.4146664806
0.4152398471
0.4126534714
0.4122938389
0.4125533523
0.4169926861
0.416541311
0.4149458959
0.4144689833
0.4148494614
0.4167578399
0.418680987
0.4209938574
0.4182036031
0.4167125749
0.4154518892
0.416560182
0.4168698774
0.4148004101
0.4126794034
0.4134002137
0.4124362421
0.4122475291
0.4136284035
0.4158522152
0.4160960845
0.4160908695
0.4151515959
0.4153832846
0.4142931996
0.4140305655
0.415419663
0.4149836339
0.4148058211
0.4147354925
0.416836069
0.4144626032
0.4142578321
0.4157735391
0.4152538427
0.4135922583
0.4137658606
0.4131580504
0.4139196232
0.415400655
0.4140515236
0.41302492
0.415567663
0.4161525319
0.4156289882
0.415437973
0.4162491797
0.4167720478
0.4168344048
0.4158961956
0.4169399179
0.4164871699
0.4150624354
0.4152758235
0.4145989484
0.4155607192
0.4155428129
0.4151705632
0.415389989
0.4152315895
0.4160825136
0.4166200785
0.4157722961
0.4161329494
0.4160634763
0.4159386235
0.415061824
0.4136904269
0.4134263209
0.4145393611
0.4159379445
0.4149017044
0.4162428806
0.416436353
0.4165878464
0.4165094892
0.4158111863
0.4145708045
0.4139997733
0.4163307633
0.4148236523
0.4147953893
0.4147282278
0.4144642316
0.4138733466
0.4129323682
0.4141453921
0.414182131
0.4119821413
0.4132051875
0.4129807865
0.4126226278
0.4142450872
0.4149481541
0.4164904694
0.4174725733
0.4178459317
0.4175301434
0.4179131808
0.4171259624
0.4121782
0.4130308132
0.4134277602
0.4127349981
0.4137634405
0.4142077049
0.4128538111
0.4140614508
0.4153002837
0.4141050508
0.4153118144
0.4154952608
0.4144403447
0.4126504749
0.4122231854
0.4133176785
0.4138813397
0.4155275566
0.4152201603
0.413779325
0.4152383725
0.4143911163
0.4150973367
0.4161599154
0.4155329607
0.4155494358
0.4145040148
0.417130366
0.4175304881
0.4161552192
0.4132243596
0.4107138764
0.4130136525
0.4141926164
0.4154013279
0.4152497224
0.4138922435
0.4136745871
0.4146872428
0.4150936043
0.4146033128
0.4129649478
0.4155354499
0.415906409
0.4152221754
0.4150368301
0.4161077363
0.4163258542
0.4141926936
0.4130913626
0.4141347711
0.4168588655
0.414955364
0.4138522662
0.4133957309
0.4143995084
0.4150620144
0.4156406165
0.4159890921
0.4145018871
0.4165449956
0.4167720456
0.4170186066
0.4169941865
0.4164915002
0.4159713594
0.4145004276
0.415779093
0.4186053938
0.4198580361
0.4179074261
0.4161750153
0.4152309766
0.4148949073
0.4152121757
0.4142845794
0.4147213271
0.4154427096
0.4147300149
0.4150672142
0.4130769308
0.4141043615
0.4143155747
0.4151188268
0.4147950572
0.4148129953
0.4148471201
0.4145747572
0.4136866194
0.4161342651
0.4166558121
0.4175382716
0.4158808807
0.4161092948
0.415817584
0.4148668253
0.4159992928
0.4167412277
0.415939785
0.41673027
0.4147224455
0.4156145904
0.416126437
0.4162923102
0.4167177812
0.4174568206
0.4175079175
0.4179880735
0.41595903
0.414742481
0.4148314268
0.4154730422
0.4164554868
0.4139550346
0.4134951283
0.4157433954
0.4160206569
0.4168829813
0.4158481797
0.4151290125
0.4166314679
0.414887128
0.4144133013
0.4147726357
0.4146020741
0.4142455546
0.4144393911
0.4163961109
0.4154386855
0.4140859
0.4153663213
0.4160706918
0.4148472758
0.4158298949
0.4162683305
0.4148778058
0.4145788091
0.4144192199
0.4151445679
0.4168643892
0.4137235771
0.4140667511
0.4150702549
0.4137199508
0.4138555634
0.4159056557
0.4172273562
0.4157902692
0.4153759755
0.4149884007
0.415500131
0.4154651335
0.4179677356
0.4182147889
0.4177126325
0.4156847321
0.4158251737
0.4159321403
0.4151139193
0.4150260451
0.4145573475
0.4143705339
0.4144823255
0.4147135191
0.4138603204
0.4142615961
0.415237943
0.4138478415
0.414372564
0.4147588584
0.4169102654
0.4172895083
0.4164088588
0.4160841558
0.4163576333
0.4142067811
0.4138710927
0.4144097283
0.4152133902
0.4161657859
0.4153061847
0.4152389204
0.415382705
0.4167340894
0.4165678189
0.4155143781
0.4160586756
0.413825784
0.4122991043
0.4119199522
0.4113758058
0.4120949722
0.4131902685
0.4134966923
0.4117932418
0.4141992817
0.4159943977
0.416703297
0.4161459776
0.4148163875
0.4141111605
0.4162165744
0.4163945623
0.416324201
0.4161064428
0.4157470984
0.4140687294
0.4138633073
0.4149625116
0.4148259982
0.4162299914
0.4148482444
0.4115695134
0.4143326468
0.4152969254
0.4151890106
0.4148763655
0.4139467305
0.4143351729
0.4143850183
0.4141426076
0.4147710568
0.4141967372
0.415224871
0.4148297757
0.4153035738
0.4134906924
0.4139447909
0.4162132901
0.4175473534
0.4183453773
0.416897973
0.4154574225
0.4154115165
0.4138064425
0.4128842139
0.4135085907
0.4138554744
0.4141509396
0.4147204942
0.4132239752
0.4153510693
0.417556853
0.4158340616
0.4170876878
0.4162525225
0.416384914
0.415534645
0.4169091472
0.415897461
0.4143743294
0.4148188434
0.4154487883
0.4152755292
0.4155308662
0.4156744556
0.4157970918
0.4164639641
0.4141967056
0.4120377398
0.4144511064
0.4135680978
0.4124176299
0.4141602388
0.4154707687
0.4140281865
0.4141539589
0.4160513458
0.4179774514
0.4179691045
0.4177446645
0.415248414
0.415417187
0.4145789091
0.4135400273
0.4137538627
0.4154983651
0.4151791413
0.4147908696
0.4147578343
0.4145562015
0.4162240513
0.4153467901
0.4139093341
0.4131748377
0.4140675571
0.4171493625
0.4166502638
0.4154438548
0.4168196638
0.4166056066
0.4159621481
0.4139273322
0.4123269407
0.4129135932
0.4137356663
0.4139566546
0.4121451403
0.4131561124
0.4129580484
0.4166883558
0.4167498078
0.4157730562
0.4162871982
0.4161453462
0.4152145169
0.4141619079
0.4130637066
0.4168385441
0.415100598
0.4149146863
0.4149512934
0.4152509205
0.4159881254
0.4140296216
0.4147697072
0.4150947194
0.4164150734
0.4164946873
0.4163419562
0.4121807775
0.4123640828
0.4140686375
0.4143398939
0.414389424
0.4137619585
0.4130596797
0.4125617757
0.4127717441
0.4150157947
0.4147121069
0.4145551736
0.4132414341
0.4135131003
0.4155289545
0.4154003065
0.4140472801
0.414134486
0.4145991824
0.4141169235
0.4157906629
0.4168730047
0.4143890211
0.4130645752
0.4135116348
0.4162267632
0.417622751
0.4179168799
0.4181579976
0.4167172607
0.4161672492
0.4156454762
0.4147701796
0.4149217779
0.4148168092
0.4153914237
0.4159396683
0.4145979391
0.4140556253
0.4147064611
0.4144537278
0.4149348926
0.4152619135
0.4171495151
0.4169070355
0.4151906598
0.4142664157
0.4149450599
0.415104772
0.4168363171
0.4176502287
0.4150922801
0.414860871
0.4167520434
0.4164691479
0.4153458224
0.4152246947
0.4158198714
0.4161970841
0.4154305146
0.4154337021
0.4147880364
0.4141282407
0.4131157736
0.416912142
0.4176036115
0.4168682237
0.4182200506
0.416665951
0.4149118582
0.4152097491
0.4165294801
0.4153622415
0.4154712831
0.4151180603
0.4145309263
0.4140175927
0.4141103597
0.4133058564
0.414240231
0.4164049546
0.4168404314
0.4168410018
0.4141689999
0.4144397726
0.4142830774
0.4142545943
0.4150313246
0.4162124496
0.4161020559
0.4145440983
0.4156830886
0.41752745
0.4169644191
0.4169957923
0.418403883
0.4176706416
0.4172785347
0.4169609328
0.4151708659
0.4160622515
0.415759317
0.4173655228
0.4168295895
0.4173257718
0.4179953946
0.4193843977
0.4172432312
0.4149738882
0.415316043
0.4157157092
0.4160131891
0.4142147582
0.4164171464
0.418174591
0.417704406
0.4180430699
0.4169685244
0.4181470839
0.4174126516
0.4152393881
0.4159923417
0.416397445
0.418381121
0.4163086327
0.4157380633
0.4144511331
0.4155281397
0.4167131988
0.4162043665
0.4148671077
0.4148345436
0.4155860334
0.4158236442
0.4145852392
0.4157166605
0.4161144394
0.4149357493
0.4146482846
0.4142176521
0.4149289436
0.4149555412
0.4132445999
0.4132119521
0.4156650978
0.4143540873
0.4151563433
0.4159718128
0.4168015211
0.4168406614
0.418296232
0.4190482738
0.4190878836
0.4177825756
0.4183137707
0.4189994019
0.4183683724
0.4168360881
0.41525079
0.4152287725
0.4132954103
0.4126830103
0.4142034052
0.4143854576
0.4149216536
0.4144708926
0.4148340311
0.4159162519
0.4158596357
0.4137154242
0.4137845849
0.4134214236
0.41301435
0.4169861115
0.4165363126
0.4166665734
0.417431418
0.4177410939
0.4163773475
0.4144243155
0.4169153895
0.4149775806
0.4155718197
0.4135141271
0.4136321585
0.4133416073
0.4132410235
0.414167204
0.4128029466
0.4128245816
0.4124051389
0.4126976059
0.4128877424
0.4127279583
0.4140420901
0.4150027646
0.4142412049
0.4146480389
0.4164966324
0.4185863671
0.4179630635
0.4171246387
0.4167188519
0.4153423415
0.4143118905
0.413768809
0.4119042555
0.4125232338
0.4146686827
0.4131992692
0.4140027194
0.4137448016
0.4143178941
0.4149190701
0.4126222093
0.4116472003
0.4120852638
0.4144674808
0.4138654265
0.4153060644
0.4136039431
0.4137615147
0.4135398613
0.4139446162
0.4145602741
0.4146826198
0.4153004449
0.4133026823
0.4124062578
0.4132557247
0.4124773757
0.4145220755
0.4164938198
0.4161263615
0.4171492524
0.4169755561
0.4156918173
0.4140974648
0.4164609949
0.415072236
0.4149801961
0.4133805059
0.4147407808
0.4156612404
0.4138746847
0.4123335289
0.4118762832
0.4128695037
0.4115294128
0.4126029793
0.4135602325
0.4128171333
0.4147604651
0.416395433
0.4155086218
0.4152802337
0.4156796105
0.4157509546
0.4152834023
0.4160919971
0.4148241134
0.4146380796
0.4131459417
0.4126407708
0.4142290128
0.4152573526
0.4175576725
0.417043185
0.4149370791
0.4137867548
0.4133344593
0.4137188351
0.4134702397
0.4137234978
0.4141675269
0.4130955372
0.4128482905
0.4134711626
0.4148568731
0.415297128
0.4136757288
0.4132596274
0.4135739029
0.4139314289
0.414743198
0.4152064271
0.4140511514
0.4150784131
0.414355422
0.4137722418
0.4149801772
0.4147825597
0.4131914118
0.4139084682
0.4132599868
0.4139645572
0.4121332699
0.4125892722
0.4141408724
0.4142359915
0.4161296273
0.4160544519
0.4169154059
0.4180827561
0.4182321677
0.4172771176
0.4158544265
0.4147552776
0.4142751272
0.415648224
0.4152417944
0.4168044316
0.4164218326
0.4144373602
0.4151967034
0.4152309406
0.413655104
0.4157655333
0.4167241528
0.418331136
0.4154679534
0.4164461971
0.4149688693
0.4143666423
0.414147199
0.411578207
0.4116339947
0.4130474527
0.4123872212
0.4142725422
0.4144891143
0.4136109364
0.4145996685
0.4142746232
0.4144239985
0.416132508
0.4178684831
0.418176099
0.4178084748
0.4167320923
0.4145208405
0.4139174837
0.4131993912
0.4134026774
0.4147014703
0.4166590361
0.4170730047
0.4168092719
0.4169341482
0.4161579486
0.4142777455
0.4151849804
0.4169342076
0.4170076444
0.4158210679
0.4144611795
0.4142861012
0.41590457
0.4138136456
0.4133891332
0.4156021936
0.414897412
0.4154370274
0.4163211728
0.4161643961
0.415209224
0.4170589058
0.4172090694
0.4155635048
0.415154496
0.415350394
0.4175734375
0.4167362462
0.4153034227
0.4151787202
0.4146413483
0.4140904379
0.4149294939
0.4151530443
0.4156064979
0.4175985036
0.4165802185
0.4174695266
0.4166202725
0.4148094977
0.4131861494
0.4143691423
0.4168391186
0.4175781995
0.4194740074
0.4175488733
0.4138565223
0.4138376297
0.4137931529
0.4147392311
0.4131749922
0.4132981619
0.4150751714
0.4164772196
0.4171238454
0.4167256184
0.4178132789
0.4167379693
0.4188270018
0.4166684357
0.4168250004
0.415506543
0.4151832371
0.4162871058
0.4143632263
0.4145899748
0.4173209714
0.4164267034
0.414424804
0.414334254
0.4167968692
0.416797918
0.4164901772
0.4156939831
0.4173957543
0.4157062517
0.4177316619
0.4168289555
0.4157541225
0.4166364644
0.4168778368
0.4147915042
0.4147287135
0.4144453064
0.4157726665
0.4160793684
0.4157284371
0.4155236106
0.4170177598
0.4160819417
0.4154755759
0.4145319565
0.4153098966
0.4160425695
0.4169977817
0.4145631038
0.4123814406
0.4115160214
0.4112040799
0.4134714682
0.4148294185
0.4136597468
0.4153347139
0.4148667782
0.416018638
0.4171030214
0.4158839833
0.4158580689
0.4159243485
0.4162789089
0.4165941675
0.4162734714
0.4158069499
0.4159768754
0.4149138344
0.4174118706
0.4188333601
0.4177556689
0.415739504
0.415271734
0.4156068714
0.4177813141
0.4185280523
0.4188272735
0.4169444246
0.4159977851
0.4149461727
0.4144350395
0.4153119484
0.415288737
0.4172162951
0.41535428
0.4162202584
0.4162630706
0.4170845909
0.417489566
0.4164514131
0.4163830241
0.4164079465
0.4144287553
0.4130451122
0.4132787085
0.4139716933
0.4154236795
0.417534859
0.416917277
0.4166761786
0.4165736896
0.4163591302
0.4164542451
0.4158238975
0.4157369782
0.4176639216
0.4172328538
0.4177996794
0.4133577804
0.4134321694
0.4125615032
0.4145636694
0.4143405147
0.4153531348
0.415077632
0.4137199409
0.4142381569
0.4139809773
0.4148617117
0.4144400182
0.4150998785
0.4168407932
0.4174078604
0.4164662306
0.4143819948
0.4129918564
0.4125279254
0.4124147321
0.4138176802
0.4152710352
0.4152625259
0.4143486374
0.4154801539
0.4146918254
0.4142939707
0.4134451098
0.4127771093
0.4130986633
0.415268824
0.4160307783
0.4156425158
0.4136118224
0.4131194561
0.4130017497
0.4134875731
0.4137419212
0.4136783942
0.4144660289
0.4161660264
0.4147769218
0.4142104801
0.4141693838
0.4164459203
0.4157191709
0.4155132748
0.4152665401
0.4153197976
0.4146058041
0.4145009044
0.412555874
0.4116456948
0.4127169827
0.4126697315
0.4149939261
0.4162301234
0.4148081889
0.4157703801
0.4153122522
0.4158023147
0.4162137693
0.4140011398
0.4137894793
0.4127700129
0.41280884
0.4135095536
0.4129035246
0.4130691909
0.413411783
0.4128053706
0.4143644409
0.4154893823
0.4144865087
0.4152883252
0.4148288069
0.4151029563
0.4160327146
0.4153426484
0.4141174542
0.4146734081
0.4152972158
0.4156839079
0.4154686139
0.4141471943
0.4145957704
0.4140539929
0.4139567473
0.4150818659
0.4137055952
0.4124123598
0.4140406163
0.4133404169
0.4122060203
0.4132693955
0.414046134
0.4154904662
0.4165031359
0.4146459328
0.4152339402
0.4146749341
0.4155175213
0.413670316
0.4162338068
0.416531026
0.4164218772
0.4149088054
0.4148135233
0.4152566183
0.4154850324
0.4158596711
0.4151129944
0.4151981949
0.4151067146
0.4144482686
0.4153506582
0.4162612331
0.4141078681
0.4143929691
0.4153380183
0.4151190935
0.4161986911
0.4173240679
0.4134894303
0.4143061672
0.4148524061
0.4150766435
0.4155775871
0.4150324198
0.4134677658
0.4138719277
0.414241629
0.4153722527
0.4165792305
0.4172372526
0.4158120111
0.4154509302
0.4155479295
0.4147744216
0.4135071234
0.4170590376
0.4160420253
0.4154545398
0.4138388266
0.4132268206
0.4141706561
0.4124795861
0.4125889006
0.4149947545
0.4131074955
0.4149515914
0.414490607
0.4138914379
0.4161625474
0.4154103135
0.4165233559
0.4163607815
0.4162384889
0.4157872697
0.4162417376
0.4159332569
0.416349173
0.4157913469
0.416621866
0.4163618365
0.414887445
0.4150654116
0.4170891467
0.41787075
0.4182055075
0.4159945362
0.4153631335
0.4129279975
0.4132540608
0.4159986495
0.4179719593
0.4165942499
0.4150497095
0.4155906767
0.4167089527
0.4129246062
0.4132786267
0.4139763669
0.415575357
0.4157882395
0.4145250598
0.4151444055
0.4127612737
0.4127685138
0.4144466313
0.4154269516
0.4152351783
0.4150316535
0.416625271
0.4175208184
0.4162550413
0.4138912829
0.4127047618
0.4131940719
0.4133477138
0.4141421164
0.4154740906
0.4158419723
0.4146688478
0.414893957
0.4175678061
0.4166540243
0.4174476257
0.4159879024
0.4150087885
0.4143482056
0.4152993275
0.4165712243
0.4156093434
0.4130414741
0.4125417934
0.4146459583
0.4153547439
0.4140457763
0.4144255319
0.4179759725
0.4150689087
0.4160858142
0.4152178009
0.4155092431
0.4168488236
0.4150645121
0.4138016054
0.4126578469
0.4135949948
0.4128184208
0.412259695
0.4127532646
0.4139205317
0.4156039477
0.4163954594
0.4161298466
0.4177140459
0.4170063334
0.4155774276
0.4154882351
0.4164029913
0.4153035057
0.4157086311
0.4147149151
0.4133198146
0.4126594769
0.4124189975
0.4140829048
0.4139307575
0.4134796458
0.4140225039
0.4139980569
0.4155223505
0.4163504445
0.416273275
0.4169704335
0.4160323362
0.4158428018
0.4153772788
0.4153648648
0.4167233714
0.4167954317
0.4173159442
0.4161541248
0.4158391027
0.4151246061
0.4164576928
0.4162165783
0.4165581762
0.4167296792
0.4168799066
0.4168037359
0.4158953252
0.4153137732
0.4133168678
0.412837651
0.4141659168
0.4151036606
0.4163043519
0.4158956611
0.4153569736
0.416281718
0.4178166
0.4191369606
0.4187954275
0.4179085651
0.4174273545
0.4178237602
0.4163596919
0.4161619822
0.4184515739
0.419066822
0.4157158176
0.4151980008
0.4144010978
0.4168096323
0.4173213321
0.4171504484
0.4160023333
0.4141046971
0.4146323558
0.4161164508
0.414419209
0.4141480376
0.4148142774
0.4143704547
0.4144233876
0.4159243579
0.4156824895
0.4161263792
0.4170747004
0.4158852008
0.4146740934
0.4151440458
0.4162278894
0.4142836343
0.4156622257
0.4144318083
0.4152212023
0.4138033761
0.413952702
0.4130684288
0.4137689576
0.4137216418
0.4142164108
0.4125954817
0.4119794795
0.413457318
0.4160950383
0.4162192842
0.4169198683
0.41553885
0.416483832
0.4153102569
0.4150439537
0.4150156498
0.4138410581
0.4142059024
0.414220447
0.4151446931
0.4154397545
0.4164575751
0.4179963401
0.416772581
0.4136309979
0.414441794
0.4155496168
0.414655317
0.4140846176
0.4128459599
0.4133936301
0.4152201051
0.4146723941
0.4148814561
0.4138976637
0.4156092269
0.4158289266
0.4156671581
0.4154811727
0.4147615879
0.4148709503
0.4155685368
0.413849254
0.415776557
0.4182658461
0.4174388021
0.4151929611
0.4161687132
0.4157264013
0.4135485353
0.4122149421
0.4125151991
0.4114150894
0.4135752013
0.4145262027
0.4143439687
0.4144434583
0.4146775807
0.4146064403
0.4120631187
0.4132685872
0.4152497464
0.4151023051
0.4163406579
0.4152620037
0.4160118313
0.4177008739
0.4168487847
0.4184244599
0.4188180894
0.4187476698
0.4173704448
0.4170764783
0.4175939795
0.4172561918
0.4166610508
0.4154346021
0.41543913
0.4141311878
0.4157906479
0.4134443331
0.4150971226
0.4158920225
0.4160938445
0.4152133859
0.4158949126
0.416445223
0.4174958722
0.4181092904
0.4185406666
0.4158371747
0.414621129
0.4157436575
0.4158640591
0.4142490768
0.4134671986
0.4121014019
0.4122144932
0.4141614213
0.4162600236
0.4157247865
0.4160348392
0.416272743
0.4166519106
0.4151030247
0.4169988125
0.4164586551
0.4147509104
0.4150724633
0.4143224056
0.4154329552
0.4143592613
0.4150080372
0.4147016916
0.4135340108
0.4156058211
0.4152535175
0.4149911317
0.4160683265
0.4142469184
0.4157464443
0.4165503975
0.4161340965
0.4148293889
0.4162500968
0.4149109731
0.4140595208
0.4145185333
0.4127879041
0.4133546145
0.4144091663
0.4155049217
0.414471434
0.4131217956
0.414589092
0.4149104368
0.4152032899
0.4150307928
0.4151177779
0.4164642156
0.4163762424
0.4164177477
0.4166753942
0.4173289845
0.4138421784
0.4151926264
0.4143581366
0.4136439367
0.4133437626
0.4158031389
0.414850215
0.4154724284
0.4160745656
0.4155571637
0.4137065491
0.4130466315
0.4141858607
0.413389682
0.4148095985
0.4141746422
0.4131555059
0.413807921
0.4129930686
0.4133114353
0.4138630729
0.4134344035
0.4119288727
0.4124505312
0.4127561204
0.4128956306
0.4137359392
0.4152292905
0.4153233257
0.4141877665
0.4140745394
0.4157907622
0.4156306188
0.4164429107
0.4157422769
0.4138636358
0.4134373499
0.4139912444
0.4147755924
0.4150328235
0.4151632937
0.4141508542
0.4144304948
0.4147161752
0.4147287439
0.4149894521
0.415039933
0.4170194743
0.4159418225
0.4163270459
0.4156289933
0.4159871413
0.4168741944
0.4160311597
0.4147198619
0.4137582583
0.4134071194
0.4130850809
0.414196933
0.4143974522
0.415254988
0.4142119675
0.4144596808
0.4151285064
0.4150573885
0.4151560466
0.4154526811
0.4150058434
0.4159987341
0.4153901983
0.4154391589
0.4147541531
0.4139579623
0.4135080366
0.4143365571
0.4145455975
0.4145302972
0.4161141124
0.4166059604
0.4171354608
0.416364845
0.4162109364
0.416967669
0.4166277291
0.4161929292
0.4161427228
0.4149302377
0.415726087
0.414123423
0.4145589775
0.4141837324
0.4153062947
0.4145756483
0.4130959762
0.4139885239
0.4142871521
0.4129526457
0.4132766483
0.4135105041
0.4144539825
0.4165243428
0.4171618125
0.4150645588
0.4143271244
0.4161599992
0.416590924
0.4162741462
0.4166300077
0.4174590412
0.4162622119
0.4158671034
0.4146295738
0.4139425994
0.4151991076
0.4143086818
0.4170909022
0.4183779808
0.4169316191
0.4168531066
0.4169308183
0.4163123464
0.4170724912
0.4169478659
0.417588225
0.4165372271
0.4156264704
0.4146405145
0.4136182412
0.4143145729
0.4132444015
0.414690523
0.4133920759
0.4141659303
0.4141630116
0.414443757
0.414166266
0.4154093213
0.4144200901
0.4143401283
0.4147564808
0.4148547698
0.4170207444
0.4167092001
0.4151112341
0.4146545769
0.4141386822
0.4123325801
0.412269361
0.4158374525
0.4146758949
0.4160517298
0.4161116647
0.4164571524
0.4151167819
0.4141343756
0.4142053143
0.4146487134
0.4124828487
0.4142712024
0.414902269
0.4150819963
0.4149306274
0.4164196245
0.4166184028
0.4161865352
0.415583791
0.4159255484
0.4154971918
0.4158144381
0.4177434329
0.4163453021
0.4151302841
0.4142721158
0.4141548658
0.4136576933
0.4144310529
0.4125510027
0.4117152773
0.4109993041
0.4141740276
0.4129470363
0.4158024686
0.4152053366
0.4155453018
0.4137499738
0.4144689425
0.4163952353
0.4175536495
0.4162051182
0.4151746136
0.4136475421
0.4138386433
0.4140918715
0.4149984012
0.4140326704
0.4150863534
0.4151674457
0.4154396742
0.414531047
0.4123764146
0.413828615
0.4136269242
0.4138103195
0.4133849513
0.4136077372
0.413945063
0.413434482
0.4133070688
0.4146267654
0.414360398
0.4146439223
0.4143885436
0.4136487763
0.414810049
0.4157117889
0.4136310869
0.4127134568
0.4141696953
0.4158410266
0.4143817353
0.4144700604
0.4156015244
0.4159297659
0.4161380015
0.4150236493
0.4149797949
0.4154882052
0.4151155395
0.4153131049
0.4158712167
0.4154275029
0.4146586658
0.4155543673
0.4134762285
0.4138568694
0.4167140862
0.4151791613
0.4141571338
0.4127940482
0.4124602229
0.4133059516
0.4149119182
0.4163039327
0.4170828668
0.4161016244
0.416315558
0.4171795156
0.4165741884
0.4157697981
0.41461247
0.414764351
0.4164646487
0.414691948
0.4143858173
0.41587562
0.4162950147
0.4168822815
0.4146398881
0.414440734
0.4146654192
0.4157709146
0.4158959284
0.4176277816
0.4163700852
0.4144015013
0.4139674088
0.4133201422
0.4146436687
0.415368143
0.4153427874
0.4146891737
0.41489028
0.4144690728
0.4160349066
0.4155053475
0.4162106538
0.4160916332
0.415671609
0.4166557768
0.4172686775
0.4179143375
0.4162679354
0.4139769795
0.4125370997
0.4123904088
0.4151580944
0.4171332039
0.4168864889
0.4164511217
0.4161031681
0.4149254918
0.4147815374
0.4179741938
0.4169514527
0.4169745377
0.4145763893
0.4137138872
0.4149061991
0.4144169305
0.4149547196
0.415399636
0.4162855698
0.4138893186
0.4145457379
0.4166351046
0.4161333121
0.4142541575
0.4139245379
0.4145625037
0.4167706318
0.4141021324
0.4139883779
0.4127587033
0.4139281881
0.4137787323
0.4146524719
0.4153371109
0.4142041984
0.4145196482
0.4144625483
0.4158263111
0.4166832134
0.4155597371
0.4140604979
0.4134844676
0.4147085212
0.4150660179
0.4153089603
0.4129019198
0.4131428176
0.4169096226
0.4174544538
0.4165919701
0.4168124766
0.4144069172
0.4147690164
0.4129263992
0.4127977279
0.413234684
0.4131647289
0.4115625518
0.4105446774
0.4136125611
0.4146443863
0.4139778953
0.4128099607
0.4152250253
0.4140365313
0.4147476295
0.4147892664
0.4132972765
0.4146928623
0.4163274119
0.4149945667
0.4160254473
0.415110239
0.4154534558
0.4141699458
0.4134045436
0.4148339867
0.4158483858
0.4163393731
0.4153081087
0.4151996525
0.4157106498
0.4166259495
0.4141508668
0.4152114573
0.4181680343
0.4188843461
0.4195362251
0.4185632393
0.4157063894
0.4159025825
0.4145729225
0.4158340548
0.4161546172
0.4172120742
0.415089835
0.414183886
0.4146663056
0.4142865479
0.4146959981
0.4151076583
0.416227118
0.4171034314
0.4175100999
0.4154141935
0.4136007829
0.4144063738
0.4152633355
0.4183563739
0.4168896079
0.4148692428
0.4149125217
0.41518068
0.4176525453
0.4159978197
0.4151250465
0.4143576625
0.4143125342
0.4159956476
0.4181199067
0.4175622224
0.4169628782
0.4148512069
0.4160466208
0.4174644022
0.4171524597
0.4179035378
0.4160735736
0.4145937328
0.4127481091
0.4157145799
0.4157412077
0.4161133561
0.4145290993
0.4138311252
0.4143253376
0.4152351272
0.4160854097
0.4157162654
0.4158758645
0.4147085505
0.4133104492
0.4133771
0.4132184492
0.4127174472
0.4137221778
0.4144667841
0.4145516198
0.414799996
0.4145588175
0.4133154801
0.4144028611
0.4148415074
0.4155599482
0.4175789435
0.4176340135
0.4148710499
0.4143736908
0.4134875255
0.414274796
0.4146610611
0.4149896573
0.4154438997
0.4174500072
0.4160604676
0.4140546079
0.4147526009
0.4132170003
0.4139128477
0.4132525893
0.413795541
0.4154299059
0.4143462901
0.4136570547
0.4144329745
0.4130724083
0.4140622881
0.4155989583
0.414650828
0.4160322378
0.4146733804
0.4126160169
0.4146990268
0.4148342954
0.4145464499
0.4134359065
0.4124084033
0.4139070979
0.4151329327
0.4138412055
0.4119766128