/*--------------------------------*- C++ -*----------------------------------*\
| =========                 |                                                 |
| \\      /  F ield         | OpenFOAM: The Open Source CFD Toolbox           |
|  \\    /   O peration     | Version:  v1706                                 |
|   \\  /    A nd           | Web:      www.OpenFOAM.com                      |
|    \\/     M anipulation  |                                                 |
\*---------------------------------------------------------------------------*/
FoamFile
{
    version     2.0;
    format      ascii;
    class       volScalarField;
    location    "0.02";
    object      rhoM_N2;
}
// * * * * * * * * * * * * * * * * * * * * * * * * * * * * * * * * * * * * * //

dimensions      [1 -3 0 0 0 0 0];


internalField   nonuniform List<scalar> 
5120
(
3.645828923e-06
3.642051692e-06
3.639290308e-06
3.643596923e-06
3.643067538e-06
3.648876462e-06
3.643410923e-06
3.640778308e-06
3.628988769e-06
3.628244769e-06
3.624610615e-06
3.622450154e-06
3.623823692e-06
3.623795077e-06
3.629503846e-06
3.627658154e-06
3.619459846e-06
3.631778769e-06
3.632551385e-06
3.635327077e-06
3.616655538e-06
3.615668308e-06
3.625082769e-06
3.629360769e-06
3.620203846e-06
3.605624308e-06
3.608028e-06
3.610961077e-06
3.623136923e-06
3.614337692e-06
3.631907538e-06
3.631464e-06
3.617285077e-06
3.619831846e-06
3.615181846e-06
3.628945846e-06
3.620060769e-06
3.630505385e-06
3.619374e-06
3.624911077e-06
3.612105692e-06
3.610717846e-06
3.608843538e-06
3.612077077e-06
3.624081231e-06
3.627486462e-06
3.615439385e-06
3.620289692e-06
3.622049538e-06
3.625340308e-06
3.623852308e-06
3.629146154e-06
3.629332154e-06
3.629632615e-06
3.639276e-06
3.628430769e-06
3.630033231e-06
3.617313692e-06
3.617542615e-06
3.613836923e-06
3.617299385e-06
3.613221692e-06
3.618830308e-06
3.620676e-06
3.619216615e-06
3.616340769e-06
3.618672923e-06
3.619173692e-06
3.617170615e-06
3.614766923e-06
3.615153231e-06
3.613407692e-06
3.610531846e-06
3.597511846e-06
3.603292154e-06
3.600774e-06
3.602991692e-06
3.621405692e-06
3.617184923e-06
3.610288615e-06
3.616126154e-06
3.619059231e-06
3.626885538e-06
3.615625385e-06
3.614051538e-06
3.607842e-06
3.601231846e-06
3.601417846e-06
3.597683538e-06
3.599371846e-06
3.601546615e-06
3.619588615e-06
3.610918154e-06
3.621978e-06
3.621219692e-06
3.611118462e-06
3.612048462e-06
3.610660615e-06
3.612678e-06
3.615224769e-06
3.607970769e-06
3.610574769e-06
3.613121538e-06
3.605323846e-06
3.628545231e-06
3.621663231e-06
3.605552769e-06
3.594650308e-06
3.588283385e-06
3.599500615e-06
3.598198615e-06
3.611175692e-06
3.606354e-06
3.621391385e-06
3.610918154e-06
3.612706615e-06
3.608228308e-06
3.609258462e-06
3.603177692e-06
3.607799077e-06
3.600187385e-06
3.592332462e-06
3.599085692e-06
3.611275846e-06
3.603335077e-06
3.605223692e-06
3.602777077e-06
3.605080615e-06
3.605395385e-06
3.595780615e-06
3.592332462e-06
3.609802154e-06
3.613593692e-06
3.612234462e-06
3.609115385e-06
3.611132769e-06
3.606711692e-06
3.605381077e-06
3.609773538e-06
3.592518462e-06
3.602304923e-06
3.600774e-06
3.594221077e-06
3.592389692e-06
3.592318154e-06
3.587510769e-06
3.582245538e-06
3.585636462e-06
3.583361538e-06
3.592747385e-06
3.591888923e-06
3.585407538e-06
3.592919077e-06
3.611919692e-06
3.617156308e-06
3.61677e-06
3.618587077e-06
3.614180308e-06
3.608614615e-06
3.612506308e-06
3.611118462e-06
3.604293692e-06
3.609516e-06
3.600816923e-06
3.599243077e-06
3.611733692e-06
3.609101077e-06
3.600559385e-06
3.609086769e-06
3.603192e-06
3.611161385e-06
3.611204308e-06
3.608013692e-06
3.605180769e-06
3.603921692e-06
3.611175692e-06
3.621992308e-06
3.618401077e-06
3.616612615e-06
3.621090923e-06
3.608643231e-06
3.613636615e-06
3.611032615e-06
3.598799538e-06
3.607169538e-06
3.601317692e-06
3.620962154e-06
3.626484923e-06
3.62235e-06
3.600473538e-06
3.584620615e-06
3.595709077e-06
3.600402e-06
3.603864462e-06
3.610231385e-06
3.593448462e-06
3.590172e-06
3.588726923e-06
3.606511385e-06
3.612878308e-06
3.629432308e-06
3.639891231e-06
3.637358769e-06
3.641951538e-06
3.628116e-06
3.621076615e-06
3.609287077e-06
3.605524154e-06
3.601203231e-06
3.602719846e-06
3.614409231e-06
3.624653538e-06
3.624038308e-06
3.627500769e-06
3.616097538e-06
3.612091385e-06
3.625125692e-06
3.620819077e-06
3.616340769e-06
3.618315231e-06
3.604308e-06
3.596624769e-06
3.604880308e-06
3.603764308e-06
3.612134308e-06
3.617127692e-06
3.625841077e-06
3.621734769e-06
3.618887538e-06
3.616956e-06
3.616512462e-06
3.621462923e-06
3.616240615e-06
3.620203846e-06
3.625454769e-06
3.619331077e-06
3.618215077e-06
3.6177e-06
3.608958e-06
3.602118923e-06
3.623022462e-06
3.620847692e-06
3.624481846e-06
3.617313692e-06
3.611361692e-06
3.610732154e-06
3.611147077e-06
3.602176154e-06
3.608214e-06
3.604894615e-06
3.606797538e-06
3.618901846e-06
3.617828769e-06
3.625969846e-06
3.632336769e-06
3.625154308e-06
3.629060308e-06
3.626656615e-06
3.629332154e-06
3.628802769e-06
3.634640308e-06
3.628201846e-06
3.624167077e-06
3.626384769e-06
3.621477231e-06
3.613007077e-06
3.611948308e-06
3.622578923e-06
3.619831846e-06
3.625969846e-06
3.634683231e-06
3.633753231e-06
3.641307692e-06
3.636886615e-06
3.631478308e-06
3.628316308e-06
3.622707692e-06
3.624038308e-06
3.624567692e-06
3.612663692e-06
3.611418923e-06
3.607155231e-06
3.600144462e-06
3.598527692e-06
3.605924769e-06
3.607140923e-06
3.601861385e-06
3.600731077e-06
3.622106769e-06
3.622493077e-06
3.635699077e-06
3.622249846e-06
3.627329077e-06
3.618100615e-06
3.616140462e-06
3.592919077e-06
3.601274769e-06
3.615954462e-06
3.627329077e-06
3.623866615e-06
3.621777692e-06
3.624481846e-06
3.617428154e-06
3.617184923e-06
3.607427077e-06
3.616226308e-06
3.625397538e-06
3.634482923e-06
3.637745077e-06
3.631063385e-06
3.612992769e-06
3.612792462e-06
3.608557385e-06
3.607498615e-06
3.607555846e-06
3.622636154e-06
3.631664308e-06
3.630047538e-06
3.624081231e-06
3.622507385e-06
3.620633077e-06
3.628588154e-06
3.623122615e-06
3.624911077e-06
3.632036308e-06
3.636886615e-06
3.629375077e-06
3.622979538e-06
3.620962154e-06
3.633953538e-06
3.646286769e-06
3.627171692e-06
3.611333077e-06
3.613422e-06
3.628201846e-06
3.622478769e-06
3.615310615e-06
3.620747538e-06
3.614523692e-06
3.613164462e-06
3.619102154e-06
3.614852769e-06
3.615911538e-06
3.613336154e-06
3.614695385e-06
3.627128769e-06
3.611876769e-06
3.614609538e-06
3.608385692e-06
3.614237538e-06
3.606611538e-06
3.6177e-06
3.627128769e-06
3.622578923e-06
3.609401538e-06
3.609229846e-06
3.612177231e-06
3.603864462e-06
3.605595692e-06
3.611790923e-06
3.622936615e-06
3.634296923e-06
3.625383231e-06
3.624825231e-06
3.623251385e-06
3.617728615e-06
3.623265692e-06
3.622092462e-06
3.622049538e-06
3.612477692e-06
3.608614615e-06
3.611547692e-06
3.623008154e-06
3.620332615e-06
3.620804769e-06
3.629232e-06
3.635026615e-06
3.635742e-06
3.627257538e-06
3.630247846e-06
3.604479692e-06
3.605352462e-06
3.607269692e-06
3.607083692e-06
3.601961538e-06
3.618401077e-06
3.619788923e-06
3.623208462e-06
3.620475692e-06
3.618272308e-06
3.615110308e-06
3.608013692e-06
3.611433231e-06
3.610617692e-06
3.610403077e-06
3.614352e-06
3.61863e-06
3.600874154e-06
3.609487385e-06
3.604107692e-06
3.624295846e-06
3.623580462e-06
3.620447077e-06
3.619230923e-06
3.621477231e-06
3.632537077e-06
3.633123692e-06
3.638946923e-06
3.630061846e-06
3.632551385e-06
3.624496154e-06
3.626055692e-06
3.619316769e-06
3.616326462e-06
3.599944154e-06
3.607512923e-06
3.602076e-06
3.600745385e-06
3.607584462e-06
3.619917692e-06
3.614466462e-06
3.616698462e-06
3.620332615e-06
3.620761846e-06
3.616784308e-06
3.621090923e-06
3.630018923e-06
3.638532e-06
3.632107846e-06
3.626828308e-06
3.630648462e-06
3.607756154e-06
3.611433231e-06
3.615468e-06
3.611805231e-06
3.609988154e-06
3.615811385e-06
3.608228308e-06
3.614981538e-06
3.610317231e-06
3.614623846e-06
3.610689231e-06
3.616426615e-06
3.608342769e-06
3.616612615e-06
3.622478769e-06
3.62607e-06
3.622822154e-06
3.632522769e-06
3.629375077e-06
3.627772615e-06
3.614037231e-06
3.608414308e-06
3.614437846e-06
3.615267692e-06
3.618830308e-06
3.617556923e-06
3.615768462e-06
3.617685692e-06
3.613722462e-06
3.63351e-06
3.630047538e-06
3.634268308e-06
3.636500308e-06
3.629418e-06
3.624252923e-06
3.624109846e-06
3.611418923e-06
3.604551231e-06
3.610803692e-06
3.618687231e-06
3.615725538e-06
3.626728154e-06
3.620089385e-06
3.618930462e-06
3.628831385e-06
3.619030615e-06
3.616684154e-06
3.613364769e-06
3.630648462e-06
3.615038769e-06
3.620418462e-06
3.609802154e-06
3.612191538e-06
3.602533846e-06
3.602848615e-06
3.607770462e-06
3.615654e-06
3.605538462e-06
3.608757692e-06
3.600459231e-06
3.606053538e-06
3.611919692e-06
3.614681077e-06
3.626442e-06
3.626585077e-06
3.624066923e-06
3.626527846e-06
3.626699538e-06
3.622364308e-06
3.592804615e-06
3.593934923e-06
3.594264e-06
3.604765846e-06
3.616498154e-06
3.619545692e-06
3.612549231e-06
3.615267692e-06
3.617142e-06
3.616569692e-06
3.624882462e-06
3.620003538e-06
3.611476154e-06
3.603778615e-06
3.588812769e-06
3.592103538e-06
3.597955385e-06
3.597340154e-06
3.601618154e-06
3.593448462e-06
3.615410769e-06
3.609659077e-06
3.611647846e-06
3.622435846e-06
3.620318308e-06
3.619116462e-06
3.610617692e-06
3.622693385e-06
3.616154769e-06
3.618043385e-06
3.603821538e-06
3.587382e-06
3.593205231e-06
3.593777538e-06
3.601861385e-06
3.605581385e-06
3.610860923e-06
3.615310615e-06
3.618787385e-06
3.620389846e-06
3.629718462e-06
3.625755231e-06
3.632537077e-06
3.627457846e-06
3.622707692e-06
3.627901385e-06
3.634053692e-06
3.633095077e-06
3.625426154e-06
3.628602462e-06
3.626227385e-06
3.631535538e-06
3.616355077e-06
3.608528769e-06
3.606468462e-06
3.615067385e-06
3.619273846e-06
3.620146615e-06
3.627758308e-06
3.627543692e-06
3.629375077e-06
3.627658154e-06
3.636028154e-06
3.630634154e-06
3.630276462e-06
3.622822154e-06
3.611976923e-06
3.622893692e-06
3.633781846e-06
3.638303077e-06
3.629904462e-06
3.626270308e-06
3.626341846e-06
3.626499231e-06
3.628559538e-06
3.619917692e-06
3.618901846e-06
3.626127231e-06
3.621133846e-06
3.622979538e-06
3.603435231e-06
3.613765385e-06
3.611247231e-06
3.618029077e-06
3.624796615e-06
3.617900308e-06
3.618773077e-06
3.614895692e-06
3.612091385e-06
3.620089385e-06
3.618000462e-06
3.618830308e-06
3.615024462e-06
3.617256462e-06
3.625240154e-06
3.621362769e-06
3.623895231e-06
3.618243692e-06
3.606354e-06
3.613035692e-06
3.627128769e-06
3.627715385e-06
3.635970923e-06
3.635913692e-06
3.639519231e-06
3.640821231e-06
3.632036308e-06
3.630104769e-06
3.618744462e-06
3.613965692e-06
3.613608e-06
3.626628e-06
3.639276e-06
3.625082769e-06
3.619245231e-06
3.629832923e-06
3.622679077e-06
3.629460923e-06
3.625855385e-06
3.618830308e-06
3.635312769e-06
3.625755231e-06
3.623265692e-06
3.621162462e-06
3.624066923e-06
3.620676e-06
3.618587077e-06
3.632923385e-06
3.625540615e-06
3.616655538e-06
3.620776154e-06
3.622607538e-06
3.6177e-06
3.623709231e-06
3.625869692e-06
3.619803231e-06
3.623194154e-06
3.623322923e-06
3.634554462e-06
3.639490615e-06
3.608757692e-06
3.605538462e-06
3.613536462e-06
3.611647846e-06
3.618014769e-06
3.627300462e-06
3.626985692e-06
3.618415385e-06
3.615983077e-06
3.627257538e-06
3.629503846e-06
3.625426154e-06
3.638202923e-06
3.634139538e-06
3.632980615e-06
3.616541077e-06
3.617213538e-06
3.617528308e-06
3.611347385e-06
3.613207385e-06
3.604164923e-06
3.603792923e-06
3.603249231e-06
3.604579846e-06
3.602877231e-06
3.595952308e-06
3.601002923e-06
3.597311538e-06
3.597282923e-06
3.605381077e-06
3.614280462e-06
3.623437385e-06
3.615997385e-06
3.619145077e-06
3.622521692e-06
3.619617231e-06
3.611891077e-06
3.617900308e-06
3.612906923e-06
3.614981538e-06
3.620160923e-06
3.624353077e-06
3.625211538e-06
3.630247846e-06
3.629460923e-06
3.622679077e-06
3.625197231e-06
3.604236462e-06
3.601188923e-06
3.600201692e-06
3.591445385e-06
3.592632923e-06
3.585894e-06
3.598770923e-06
3.582617538e-06
3.600902769e-06
3.609158308e-06
3.613021385e-06
3.620575846e-06
3.621105231e-06
3.600931385e-06
3.614609538e-06
3.611619231e-06
3.611590615e-06
3.622335692e-06
3.619474154e-06
3.618887538e-06
3.621133846e-06
3.615725538e-06
3.610660615e-06
3.618672923e-06
3.611662154e-06
3.602090308e-06
3.618272308e-06
3.623237077e-06
3.616712769e-06
3.610674923e-06
3.611161385e-06
3.603420923e-06
3.600359077e-06
3.615239077e-06
3.618816e-06
3.615253385e-06
3.616340769e-06
3.612077077e-06
3.620418462e-06
3.613407692e-06
3.615682615e-06
3.625182923e-06
3.637501846e-06
3.637330154e-06
3.630662769e-06
3.624095538e-06
3.620862e-06
3.607584462e-06
3.595995231e-06
3.604107692e-06
3.607913538e-06
3.612964154e-06
3.623165538e-06
3.614752615e-06
3.621849231e-06
3.627028615e-06
3.616612615e-06
3.61956e-06
3.617685692e-06
3.612034154e-06
3.605581385e-06
3.605910462e-06
3.603020308e-06
3.603506769e-06
3.614151692e-06
3.612778154e-06
3.615754154e-06
3.616212e-06
3.619817538e-06
3.614724e-06
3.622979538e-06
3.610388769e-06
3.607169538e-06
3.603120462e-06
3.598828154e-06
3.595480154e-06
3.608328462e-06
3.622764923e-06
3.611934e-06
3.608471538e-06
3.623666308e-06
3.630634154e-06
3.636672e-06
3.634783385e-06
3.631249385e-06
3.621176769e-06
3.609287077e-06
3.600588e-06
3.609358615e-06
3.614752615e-06
3.619416923e-06
3.612234462e-06
3.604694308e-06
3.604408154e-06
3.619059231e-06
3.616011692e-06
3.613593692e-06
3.605424e-06
3.607441385e-06
3.628688308e-06
3.619674462e-06
3.615010154e-06
3.616040308e-06
3.620332615e-06
3.61863e-06
3.608471538e-06
3.598427538e-06
3.609215538e-06
3.602891538e-06
3.600444923e-06
3.587582308e-06
3.592361077e-06
3.593462769e-06
3.619202308e-06
3.614251846e-06
3.608657538e-06
3.607012154e-06
3.610789385e-06
3.612091385e-06
3.609229846e-06
3.606296769e-06
3.611390308e-06
3.617070462e-06
3.620146615e-06
3.623652e-06
3.619760308e-06
3.621520154e-06
3.607684615e-06
3.613321846e-06
3.617328e-06
3.61863e-06
3.624024e-06
3.621620308e-06
3.590071846e-06
3.585665077e-06
3.599786769e-06
3.600416308e-06
3.600044308e-06
3.600144462e-06
3.598785231e-06
3.594321231e-06
3.600216e-06
3.609501692e-06
3.612992769e-06
3.611891077e-06
3.614724e-06
3.617614154e-06
3.620890615e-06
3.613636615e-06
3.608729077e-06
3.609516e-06
3.603764308e-06
3.594950769e-06
3.618200769e-06
3.634998e-06
3.621606e-06
3.610403077e-06
3.611504769e-06
3.622335692e-06
3.628502308e-06
3.625612154e-06
3.625039846e-06
3.616054615e-06
3.621162462e-06
3.614881385e-06
3.618501231e-06
3.61398e-06
3.615553846e-06
3.621448615e-06
3.621720462e-06
3.614638154e-06
3.613937077e-06
3.619688769e-06
3.617556923e-06
3.623981077e-06
3.626699538e-06
3.637516154e-06
3.637144154e-06
3.624424615e-06
3.619917692e-06
3.623823692e-06
3.622908e-06
3.628187538e-06
3.629847231e-06
3.625368923e-06
3.621448615e-06
3.635327077e-06
3.630634154e-06
3.619431231e-06
3.616011692e-06
3.614495077e-06
3.615282e-06
3.619002e-06
3.619774615e-06
3.622435846e-06
3.617528308e-06
3.615339231e-06
3.626041385e-06
3.637373077e-06
3.631836e-06
3.639834e-06
3.633853385e-06
3.625497692e-06
3.630061846e-06
3.641236154e-06
3.637416e-06
3.627257538e-06
3.624596308e-06
3.618472615e-06
3.621119538e-06
3.622321385e-06
3.615239077e-06
3.615310615e-06
3.625698e-06
3.613679538e-06
3.610961077e-06
3.598341692e-06
3.608042308e-06
3.609272769e-06
3.613393385e-06
3.622836462e-06
3.623537538e-06
3.630791538e-06
3.629604e-06
3.630219231e-06
3.634897846e-06
3.641007231e-06
3.642294923e-06
3.651623538e-06
3.649792154e-06
3.646487077e-06
3.640234615e-06
3.624996923e-06
3.62793e-06
3.616812923e-06
3.631120615e-06
3.622364308e-06
3.623694923e-06
3.633467077e-06
3.650493231e-06
3.637344462e-06
3.621019385e-06
3.631449692e-06
3.619688769e-06
3.617599846e-06
3.609058154e-06
3.623222769e-06
3.635355692e-06
3.628602462e-06
3.638503385e-06
3.626871231e-06
3.631878923e-06
3.630233538e-06
3.61956e-06
3.633910615e-06
3.625497692e-06
3.639032769e-06
3.628273385e-06
3.620833385e-06
3.617757231e-06
3.623079692e-06
3.630076154e-06
3.624310154e-06
3.62142e-06
3.629017385e-06
3.626484923e-06
3.621663231e-06
3.612563538e-06
3.618558462e-06
3.619517077e-06
3.621949385e-06
3.621405692e-06
3.617313692e-06
3.612792462e-06
3.610045385e-06
3.606282462e-06
3.596109692e-06
3.607656e-06
3.603835846e-06
3.611862462e-06
3.625125692e-06
3.631506923e-06
3.632193692e-06
3.643239231e-06
3.652195846e-06
3.655787077e-06
3.651838154e-06
3.646086462e-06
3.643768615e-06
3.633338308e-06
3.626685231e-06
3.621334154e-06
3.610045385e-06
3.608900769e-06
3.606554308e-06
3.609673385e-06
3.606854769e-06
3.613851231e-06
3.609730615e-06
3.619474154e-06
3.620304e-06
3.62049e-06
3.614223231e-06
3.613221692e-06
3.606869077e-06
3.602204769e-06
3.618014769e-06
3.617499692e-06
3.622621846e-06
3.627171692e-06
3.639490615e-06
3.631878923e-06
3.620919231e-06
3.627600923e-06
3.619588615e-06
3.624353077e-06
3.615138923e-06
3.612992769e-06
3.609616154e-06
3.601518e-06
3.607012154e-06
3.602533846e-06
3.603850154e-06
3.604780154e-06
3.597468923e-06
3.600802615e-06
3.594006462e-06
3.600487846e-06
3.608686154e-06
3.604007538e-06
3.605395385e-06
3.614366308e-06
3.636672e-06
3.622793538e-06
3.626084308e-06
3.629518154e-06
3.619331077e-06
3.614752615e-06
3.610274308e-06
3.599686615e-06
3.592632923e-06
3.605538462e-06
3.605352462e-06
3.613021385e-06
3.608199692e-06
3.601689692e-06
3.601675385e-06
3.595050923e-06
3.586452e-06
3.600444923e-06
3.605624308e-06
3.600244615e-06
3.604107692e-06
3.609144e-06
3.614952923e-06
3.610288615e-06
3.610317231e-06
3.608700462e-06
3.600044308e-06
3.611204308e-06
3.601260462e-06
3.599214462e-06
3.598627846e-06
3.593577231e-06
3.604694308e-06
3.617142e-06
3.620661692e-06
3.630519692e-06
3.631278e-06
3.621105231e-06
3.617156308e-06
3.624739385e-06
3.619946308e-06
3.610875231e-06
3.595065231e-06
3.603721385e-06
3.607584462e-06
3.602562462e-06
3.596667692e-06
3.591559846e-06
3.601546615e-06
3.596267077e-06
3.597969692e-06
3.596410154e-06
3.603721385e-06
3.616555385e-06
3.626112923e-06
3.625984154e-06
3.616140462e-06
3.619860462e-06
3.619331077e-06
3.608543077e-06
3.611347385e-06
3.613364769e-06
3.610603385e-06
3.597869538e-06
3.590916e-06
3.598456154e-06
3.608614615e-06
3.622392923e-06
3.618973385e-06
3.611132769e-06
3.610989692e-06
3.618258e-06
3.619588615e-06
3.612191538e-06
3.610717846e-06
3.619774615e-06
3.618587077e-06
3.604923231e-06
3.603277846e-06
3.612620769e-06
3.613221692e-06
3.609859385e-06
3.608571692e-06
3.614280462e-06
3.619416923e-06
3.614967231e-06
3.610131231e-06
3.604379538e-06
3.613336154e-06
3.605624308e-06
3.596939538e-06
3.604508308e-06
3.607613077e-06
3.608829231e-06
3.610989692e-06
3.609415846e-06
3.614895692e-06
3.605109231e-06
3.609973846e-06
3.613736769e-06
3.613207385e-06
3.625526308e-06
3.621019385e-06
3.626384769e-06
3.629146154e-06
3.633352615e-06
3.625039846e-06
3.618129231e-06
3.608972308e-06
3.609272769e-06
3.615868615e-06
3.607784769e-06
3.617256462e-06
3.615897231e-06
3.612162923e-06
3.621148154e-06
3.616054615e-06
3.613622308e-06
3.631020462e-06
3.631149231e-06
3.640678154e-06
3.623909538e-06
3.638059846e-06
3.633681692e-06
3.621634615e-06
3.614566615e-06
3.597583385e-06
3.599672308e-06
3.612277385e-06
3.606468462e-06
3.610932462e-06
3.599128615e-06
3.592804615e-06
3.594507231e-06
3.603220615e-06
3.612048462e-06
3.622865077e-06
3.636028154e-06
3.638331692e-06
3.638489077e-06
3.633009231e-06
3.596209846e-06
3.590472462e-06
3.587596615e-06
3.592046308e-06
3.601432154e-06
3.615782769e-06
3.620361231e-06
3.613193077e-06
3.622807846e-06
3.623637692e-06
3.621491538e-06
3.627744e-06
3.634568769e-06
3.631063385e-06
3.626885538e-06
3.614738308e-06
3.604823077e-06
3.611447538e-06
3.598041231e-06
3.596338615e-06
3.609129692e-06
3.600888462e-06
3.599801077e-06
3.610074e-06
3.603936e-06
3.596038154e-06
3.603936e-06
3.610918154e-06
3.605209385e-06
3.608972308e-06
3.616712769e-06
3.624782308e-06
3.619102154e-06
3.612892615e-06
3.609988154e-06
3.611046923e-06
3.606411231e-06
3.619760308e-06
3.613851231e-06
3.61863e-06
3.624553385e-06
3.617370923e-06
3.621191077e-06
3.618830308e-06
3.606454154e-06
3.598327385e-06
3.608829231e-06
3.61863e-06
3.615510923e-06
3.629532462e-06
3.618930462e-06
3.595580308e-06
3.606396923e-06
3.607598769e-06
3.618172154e-06
3.608357077e-06
3.604308e-06
3.609558923e-06
3.621434308e-06
3.621763385e-06
3.627515077e-06
3.630204923e-06
3.631449692e-06
3.644512615e-06
3.629775692e-06
3.627414923e-06
3.609744923e-06
3.599257385e-06
3.608743385e-06
3.599185846e-06
3.596882308e-06
3.607741846e-06
3.608757692e-06
3.608171077e-06
3.607384154e-06
3.615539538e-06
3.61863e-06
3.616855846e-06
3.614366308e-06
3.622893692e-06
3.620203846e-06
3.634668923e-06
3.625111385e-06
3.620246769e-06
3.619531385e-06
3.618186462e-06
3.607369846e-06
3.617442462e-06
3.614852769e-06
3.621191077e-06
3.627e-06
3.629446615e-06
3.630920308e-06
3.631206462e-06
3.622850769e-06
3.613379077e-06
3.607799077e-06
3.619030615e-06
3.626198769e-06
3.634640308e-06
3.617871692e-06
3.596624769e-06
3.598127077e-06
3.596267077e-06
3.609673385e-06
3.614280462e-06
3.610574769e-06
3.623923846e-06
3.621362769e-06
3.619230923e-06
3.618415385e-06
3.617041846e-06
3.617943231e-06
3.624682154e-06
3.625712308e-06
3.634583077e-06
3.633109385e-06
3.625225846e-06
3.621834923e-06
3.622493077e-06
3.630290769e-06
3.646601538e-06
3.632107846e-06
3.629503846e-06
3.624696462e-06
3.619688769e-06
3.625912615e-06
3.628087385e-06
3.620261077e-06
3.611790923e-06
3.602047385e-06
3.590615538e-06
3.594936462e-06
3.610331538e-06
3.60933e-06
3.624954e-06
3.622421538e-06
3.621763385e-06
3.617027538e-06
3.617642769e-06
3.628559538e-06
3.622536e-06
3.623022462e-06
3.621105231e-06
3.605881846e-06
3.596624769e-06
3.593319692e-06
3.602691231e-06
3.604150615e-06
3.614924308e-06
3.613007077e-06
3.621949385e-06
3.623337231e-06
3.624109846e-06
3.619645846e-06
3.609415846e-06
3.606625846e-06
3.618100615e-06
3.626213077e-06
3.629460923e-06
3.602691231e-06
3.602519538e-06
3.591059077e-06
3.598570615e-06
3.603521077e-06
3.613121538e-06
3.615181846e-06
3.607412769e-06
3.599429077e-06
3.595651846e-06
3.605381077e-06
3.608028e-06
3.607241077e-06
3.624982615e-06
3.629947385e-06
3.626055692e-06
3.612792462e-06
3.601389231e-06
3.596596154e-06
3.598799538e-06
3.592404e-06
3.596467385e-06
3.598699385e-06
3.597697846e-06
3.609487385e-06
3.607899231e-06
3.607584462e-06
3.608557385e-06
3.604694308e-06
3.606196615e-06
3.607827692e-06
3.602562462e-06
3.617027538e-06
3.604823077e-06
3.604851692e-06
3.600373385e-06
3.593391231e-06
3.597111231e-06
3.599486308e-06
3.600917077e-06
3.609387231e-06
3.603134769e-06
3.598112769e-06
3.599715231e-06
3.614008615e-06
3.613522154e-06
3.612463385e-06
3.606325385e-06
3.610431692e-06
3.609272769e-06
3.612463385e-06
3.611790923e-06
3.601789846e-06
3.593348308e-06
3.582417231e-06
3.592919077e-06
3.607441385e-06
3.604708615e-06
3.616498154e-06
3.606568615e-06
3.610059692e-06
3.609258462e-06
3.603678462e-06
3.607155231e-06
3.590544e-06
3.595966615e-06
3.602047385e-06
3.598184308e-06
3.594407077e-06
3.596481692e-06
3.601603846e-06
3.607970769e-06
3.611748e-06
3.609144e-06
3.617614154e-06
3.609802154e-06
3.606654462e-06
3.601646769e-06
3.605166462e-06
3.604594154e-06
3.603392308e-06
3.606225231e-06
3.617413846e-06
3.625440462e-06
3.617027538e-06
3.618358154e-06
3.605824615e-06
3.612348923e-06
3.624281538e-06
3.612964154e-06
3.603721385e-06
3.603606923e-06
3.602047385e-06
3.595995231e-06
3.597282923e-06
3.600144462e-06
3.614194615e-06
3.619803231e-06
3.607584462e-06
3.603964615e-06
3.624553385e-06
3.622593231e-06
3.616956e-06
3.624410308e-06
3.622879385e-06
3.619760308e-06
3.616569692e-06
3.616054615e-06
3.613436308e-06
3.618300923e-06
3.620246769e-06
3.615854308e-06
3.611018308e-06
3.608056615e-06
3.603120462e-06
3.612935538e-06
3.617170615e-06
3.613178769e-06
3.617771538e-06
3.624539077e-06
3.611275846e-06
3.618415385e-06
3.616612615e-06
3.601718308e-06
3.608929385e-06
3.606368308e-06
3.603120462e-06
3.607140923e-06
3.611848154e-06
3.600359077e-06
3.594006462e-06
3.601847077e-06
3.620404154e-06
3.616054615e-06
3.622664769e-06
3.625898308e-06
3.621048e-06
3.61398e-06
3.614223231e-06
3.604694308e-06
3.615053077e-06
3.608085231e-06
3.608643231e-06
3.598313077e-06
3.600487846e-06
3.602362154e-06
3.603807231e-06
3.600130154e-06
3.611161385e-06
3.600387692e-06
3.623337231e-06
3.620304e-06
3.607541538e-06
3.613393385e-06
3.608314154e-06
3.616755692e-06
3.61956e-06
3.614194615e-06
3.611976923e-06
3.615496615e-06
3.629918769e-06
3.630433846e-06
3.626914154e-06
3.631993385e-06
3.625669385e-06
3.620718923e-06
3.628845692e-06
3.637816615e-06
3.632165077e-06
3.624152769e-06
3.602290615e-06
3.592904769e-06
3.585221538e-06
3.588326308e-06
3.596796462e-06
3.610116923e-06
3.620289692e-06
3.618730154e-06
3.620990769e-06
3.627515077e-06
3.591516923e-06
3.591087692e-06
3.590987538e-06
3.595279846e-06
3.610345846e-06
3.608600308e-06
3.607598769e-06
3.60096e-06
3.598599231e-06
3.610488923e-06
3.608242615e-06
3.600487846e-06
3.602748462e-06
3.609129692e-06
3.615611077e-06
3.608042308e-06
3.597526154e-06
3.576436615e-06
3.589256308e-06
3.593348308e-06
3.595709077e-06
3.605080615e-06
3.601875692e-06
3.601446462e-06
3.606754615e-06
3.624911077e-06
3.619860462e-06
3.627772615e-06
3.618114923e-06
3.612005538e-06
3.608543077e-06
3.619788923e-06
3.616455231e-06
3.612477692e-06
3.602862923e-06
3.599057077e-06
3.609058154e-06
3.619359692e-06
3.606354e-06
3.593419846e-06
3.634139538e-06
3.617399538e-06
3.621906462e-06
3.612864e-06
3.604808769e-06
3.603034615e-06
3.599071385e-06
3.597511846e-06
3.583962462e-06
3.587396308e-06
3.596767846e-06
3.593033538e-06
3.598742308e-06
3.605509846e-06
3.606740308e-06
3.612234462e-06
3.612492e-06
3.622593231e-06
3.621935077e-06
3.619788923e-06
3.609358615e-06
3.619731692e-06
3.621620308e-06
3.614337692e-06
3.614623846e-06
3.604923231e-06
3.601160308e-06
3.601503692e-06
3.605638615e-06
3.604808769e-06
3.593448462e-06
3.590830154e-06
3.592132154e-06
3.600402e-06
3.605338154e-06
3.617027538e-06
3.614380615e-06
3.605767385e-06
3.614237538e-06
3.613007077e-06
3.619002e-06
3.625640769e-06
3.627372e-06
3.632994923e-06
3.627214615e-06
3.631621385e-06
3.624996923e-06
3.627028615e-06
3.628874308e-06
3.630348e-06
3.633753231e-06
3.635613231e-06
3.621377077e-06
3.624138462e-06
3.619703077e-06
3.606625846e-06
3.608028e-06
3.612348923e-06
3.612577846e-06
3.61584e-06
3.630476769e-06
3.620747538e-06
3.631120615e-06
3.643768615e-06
3.649134e-06
3.645914769e-06
3.640620923e-06
3.636085385e-06
3.641508e-06
3.633939231e-06
3.633552923e-06
3.641379231e-06
3.646673077e-06
3.632293846e-06
3.625440462e-06
3.623237077e-06
3.634826308e-06
3.643382308e-06
3.635026615e-06
3.633996462e-06
3.606082154e-06
3.604894615e-06
3.615868615e-06
3.609802154e-06
3.614652462e-06
3.615196154e-06
3.615654e-06
3.612420462e-06
3.618415385e-06
3.617928923e-06
3.628073077e-06
3.629060308e-06
3.625397538e-06
3.613722462e-06
3.617370923e-06
3.623437385e-06
3.610460308e-06
3.620919231e-06
3.613293231e-06
3.621834923e-06
3.610846615e-06
3.607684615e-06
3.604322308e-06
3.602963077e-06
3.599572154e-06
3.600802615e-06
3.593720308e-06
3.599700923e-06
3.607298308e-06
3.614938615e-06
3.618272308e-06
3.614394923e-06
3.607427077e-06
3.611089846e-06
3.608428615e-06
3.60654e-06
3.603335077e-06
3.599457692e-06
3.606640154e-06
3.605996308e-06
3.598384615e-06
3.601403538e-06
3.605223692e-06
3.616040308e-06
3.605195077e-06
3.591946154e-06
3.602333538e-06
3.596481692e-06
3.604222154e-06
3.599815385e-06
3.593105077e-06
3.600301846e-06
3.608485846e-06
3.607570154e-06
3.610889538e-06
3.603420923e-06
3.609201231e-06
3.607083692e-06
3.604637077e-06
3.600888462e-06
3.609344308e-06
3.605137846e-06
3.605896154e-06
3.599457692e-06
3.604107692e-06
3.610846615e-06
3.605280923e-06
3.611976923e-06
3.619860462e-06
3.620146615e-06
3.607741846e-06
3.594149538e-06
3.594550154e-06
3.593362615e-06
3.606053538e-06
3.608314154e-06
3.610345846e-06
3.606826154e-06
3.609129692e-06
3.608471538e-06
3.592575692e-06
3.595365692e-06
3.601704e-06
3.592818923e-06
3.607198154e-06
3.609530308e-06
3.614323385e-06
3.610159846e-06
3.609973846e-06
3.616870154e-06
3.622278462e-06
3.614022923e-06
3.611719385e-06
3.609802154e-06
3.614938615e-06
3.613894154e-06
3.611261538e-06
3.59259e-06
3.589227692e-06
3.597426e-06
3.607412769e-06
3.608128154e-06
3.607756154e-06
3.616297846e-06
3.613464923e-06
3.608028e-06
3.618887538e-06
3.618973385e-06
3.626871231e-06
3.626771077e-06
3.627600923e-06
3.607527231e-06
3.611905385e-06
3.609043846e-06
3.608099538e-06
3.595480154e-06
3.594693231e-06
3.582474462e-06
3.586008462e-06
3.593376923e-06
3.616913077e-06
3.613193077e-06
3.618987692e-06
3.612835385e-06
3.610889538e-06
3.612320308e-06
3.620246769e-06
3.621219692e-06
3.607183846e-06
3.609702e-06
3.597783692e-06
3.607226769e-06
3.602161846e-06
3.613364769e-06
3.614194615e-06
3.608671846e-06
3.620418462e-06
3.618787385e-06
3.611991231e-06
3.613608e-06
3.607441385e-06
3.611333077e-06
3.611004e-06
3.614824154e-06
3.612534923e-06
3.621820615e-06
3.611433231e-06
3.601002923e-06
3.604350923e-06
3.602848615e-06
3.610775077e-06
3.608700462e-06
3.600545077e-06
3.600287538e-06
3.593720308e-06
3.606382615e-06
3.608385692e-06
3.608857846e-06
3.620461385e-06
3.617199231e-06
3.600230308e-06
3.606940615e-06
3.607212462e-06
3.612792462e-06
3.618143538e-06
3.599042769e-06
3.600115846e-06
3.602891538e-06
3.604565538e-06
3.604222154e-06
3.616154769e-06
3.611318769e-06
3.613822615e-06
3.614080154e-06
3.602462308e-06
3.595079538e-06
3.580643077e-06
3.583704923e-06
3.577352308e-06
3.590300769e-06
3.603063231e-06
3.609229846e-06
3.605853231e-06
3.600287538e-06
3.597869538e-06
3.599615077e-06
3.592547077e-06
3.578153538e-06
3.582002308e-06
3.587882769e-06
3.597125538e-06
3.597840923e-06
3.60468e-06
3.604522615e-06
3.607913538e-06
3.607441385e-06
3.615654e-06
3.606811846e-06
3.605266615e-06
3.605652923e-06
3.604980462e-06
3.604222154e-06
3.610689231e-06
3.618343846e-06
3.618129231e-06
3.611819538e-06
3.606153692e-06
3.603606923e-06
3.604379538e-06
3.604751538e-06
3.600931385e-06
3.609544615e-06
3.611490462e-06
3.601904308e-06
3.606268154e-06
3.602562462e-06
3.612549231e-06
3.616784308e-06
3.612291692e-06
3.608958e-06
3.612635077e-06
3.607956462e-06
3.601818462e-06
3.606196615e-06
3.605695846e-06
3.610760769e-06
3.610546154e-06
3.609272769e-06