/*--------------------------------*- C++ -*----------------------------------*\
| =========                 |                                                 |
| \\      /  F ield         | OpenFOAM: The Open Source CFD Toolbox           |
|  \\    /   O peration     | Version:  v1706                                 |
|   \\  /    A nd           | Web:      www.OpenFOAM.com                      |
|    \\/     M anipulation  |                                                 |
\*---------------------------------------------------------------------------*/
FoamFile
{
    version     2.0;
    format      ascii;
    class       volScalarField;
    location    "0.02";
    object      rhoM_O2;
}
// * * * * * * * * * * * * * * * * * * * * * * * * * * * * * * * * * * * * * //

dimensions      [1 -3 0 0 0 0 0];


internalField   nonuniform List<scalar> 
5120
(
1.176665206e-06
1.174899988e-06
1.180146609e-06
1.182369477e-06
1.188155471e-06
1.186586388e-06
1.179198622e-06
1.172317538e-06
1.173412628e-06
1.164423089e-06
1.163164554e-06
1.166972849e-06
1.171843545e-06
1.174311582e-06
1.173984689e-06
1.174491372e-06
1.172791532e-06
1.176387348e-06
1.179214966e-06
1.181094597e-06
1.177269957e-06
1.178217945e-06
1.181944517e-06
1.179934129e-06
1.17650176e-06
1.181078252e-06
1.190165858e-06
1.182075274e-06
1.180408123e-06
1.178365046e-06
1.18075136e-06
1.177515126e-06
1.17990144e-06
1.181307077e-06
1.181470523e-06
1.178217945e-06
1.177024788e-06
1.175749908e-06
1.175504738e-06
1.176223902e-06
1.178610215e-06
1.181552246e-06
1.178316012e-06
1.180473502e-06
1.187387274e-06
1.181012874e-06
1.184265452e-06
1.185099028e-06
1.185327852e-06
1.180571569e-06
1.176648862e-06
1.179345723e-06
1.184870203e-06
1.184592345e-06
1.185769157e-06
1.184428898e-06
1.1835136e-06
1.182549268e-06
1.185197095e-06
1.183317465e-06
1.173902966e-06
1.183971249e-06
1.185197095e-06
1.188351606e-06
1.189283249e-06
1.192159902e-06
1.188662154e-06
1.181209009e-06
1.183644357e-06
1.176485415e-06
1.191440738e-06
1.188694843e-06
1.187060382e-06
1.183873182e-06
1.173608763e-06
1.175782597e-06
1.175537428e-06
1.175521083e-06
1.18053888e-06
1.180604258e-06
1.173690486e-06
1.166384443e-06
1.168819791e-06
1.172856911e-06
1.173641452e-06
1.173657797e-06
1.179721649e-06
1.179525514e-06
1.181094597e-06
1.177613194e-06
1.179787028e-06
1.182287754e-06
1.183104985e-06
1.176305625e-06
1.178593871e-06
1.179313034e-06
1.175521083e-06
1.177858363e-06
1.175275914e-06
1.176174868e-06
1.175586462e-06
1.180261022e-06
1.177613194e-06
1.167381465e-06
1.162232911e-06
1.16736512e-06
1.167741046e-06
1.178593871e-06
1.185605711e-06
1.18755072e-06
1.192176246e-06
1.185099028e-06
1.186995003e-06
1.184608689e-06
1.179067865e-06
1.180489846e-06
1.183807803e-06
1.181764726e-06
1.177400714e-06
1.178103532e-06
1.167937182e-06
1.174033723e-06
1.174540406e-06
1.182843471e-06
1.183742425e-06
1.183366498e-06
1.186177772e-06
1.183856837e-06
1.179803372e-06
1.184837514e-06
1.177466092e-06
1.180424468e-06
1.177269957e-06
1.180489846e-06
1.179623582e-06
1.178773662e-06
1.179411102e-06
1.179917785e-06
1.171908923e-06
1.17118976e-06
1.176812308e-06
1.177711262e-06
1.172660775e-06
1.171908923e-06
1.174654818e-06
1.181339766e-06
1.189577452e-06
1.185899914e-06
1.186324874e-06
1.181078252e-06
1.178495803e-06
1.171320517e-06
1.170699422e-06
1.17310208e-06
1.172186782e-06
1.176272935e-06
1.174834609e-06
1.181928172e-06
1.177204578e-06
1.179002486e-06
1.183039606e-06
1.180440812e-06
1.180391778e-06
1.182467545e-06
1.184232763e-06
1.181879138e-06
1.180636948e-06
1.179541858e-06
1.181356111e-06
1.182729058e-06
1.182009895e-06
1.186945969e-06
1.190541785e-06
1.191457083e-06
1.194333735e-06
1.18287616e-06
1.189070769e-06
1.186880591e-06
1.18160128e-06
1.183366498e-06
1.181372455e-06
1.185376886e-06
1.185474954e-06
1.181944517e-06
1.178822695e-06
1.179868751e-06
1.170241772e-06
1.1707648e-06
1.173608763e-06
1.172186782e-06
1.179378412e-06
1.176027766e-06
1.182206031e-06
1.186373908e-06
1.185148062e-06
1.188940012e-06
1.185491298e-06
1.18542592e-06
1.180882117e-06
1.178953452e-06
1.180293711e-06
1.177073822e-06
1.173952e-06
1.170274462e-06
1.170094671e-06
1.170209083e-06
1.170258117e-06
1.178168911e-06
1.17947648e-06
1.182827126e-06
1.185720123e-06
1.188792911e-06
1.180784049e-06
1.174213514e-06
1.174246203e-06
1.180833083e-06
1.180735015e-06
1.180048542e-06
1.182647335e-06
1.178659249e-06
1.175243225e-06
1.172121403e-06
1.180097575e-06
1.182516578e-06
1.182565612e-06
1.18585088e-06
1.184968271e-06
1.175553772e-06
1.175815286e-06
1.171140726e-06
1.175847975e-06
1.168901514e-06
1.170650388e-06
1.175749908e-06
1.174867298e-06
1.172579052e-06
1.172546363e-06
1.169179372e-06
1.169506265e-06
1.175897009e-06
1.181225354e-06
1.182156997e-06
1.179590892e-06
1.177531471e-06
1.176305625e-06
1.17437696e-06
1.173085735e-06
1.172791532e-06
1.171843545e-06
1.178185255e-06
1.177335335e-06
1.175275914e-06
1.172873255e-06
1.168738068e-06
1.169865846e-06
1.169195717e-06
1.17161472e-06
1.169751434e-06
1.182287754e-06
1.183954905e-06
1.178168911e-06
1.173428972e-06
1.177449748e-06
1.180735015e-06
1.181683003e-06
1.180620603e-06
1.180767705e-06
1.178610215e-06
1.17883904e-06
1.179509169e-06
1.183954905e-06
1.183006917e-06
1.18946304e-06
1.1877632e-06
1.191604185e-06
1.186978658e-06
1.180816738e-06
1.179345723e-06
1.176420037e-06
1.172807877e-06
1.176109489e-06
1.172056025e-06
1.169996603e-06
1.176109489e-06
1.172954978e-06
1.166433477e-06
1.171091692e-06
1.175684529e-06
1.177466092e-06
1.178920763e-06
1.182516578e-06
1.181110942e-06
1.180261022e-06
1.181715692e-06
1.175063434e-06
1.171108037e-06
1.175635495e-06
1.179182277e-06
1.178136222e-06
1.183055951e-06
1.180653292e-06
1.185327852e-06
1.182843471e-06
1.180342745e-06
1.180833083e-06
1.178544837e-06
1.179999508e-06
1.179460135e-06
1.176550794e-06
1.177024788e-06
1.170078326e-06
1.177384369e-06
1.179999508e-06
1.181110942e-06
1.179541858e-06
1.178152566e-06
1.172448295e-06
1.176420037e-06
1.177073822e-06
1.17586432e-06
1.172235815e-06
1.172530018e-06
1.170503286e-06
1.172006991e-06
1.178986142e-06
1.179264e-06
1.173952e-06
1.173396283e-06
1.18096384e-06
1.184428898e-06
1.17692672e-06
1.176828652e-06
1.176992098e-06
1.172905945e-06
1.170617698e-06
1.17480192e-06
1.175668185e-06
1.172186782e-06
1.170993625e-06
1.167005538e-06
1.197243077e-06
1.201509022e-06
1.203977058e-06
1.199351532e-06
1.18861312e-06
1.18648832e-06
1.185164406e-06
1.193205957e-06
1.186471975e-06
1.180947495e-06
1.186831557e-06
1.184249108e-06
1.188204505e-06
1.190345649e-06
1.192879065e-06
1.196720049e-06
1.192078178e-06
1.194922142e-06
1.197471902e-06
1.192780997e-06
1.179394757e-06
1.175063434e-06
1.174654818e-06
1.176943065e-06
1.173428972e-06
1.171925268e-06
1.175030745e-06
1.177090166e-06
1.178937108e-06
1.187370929e-06
1.188253538e-06
1.183677046e-06
1.178920763e-06
1.173232837e-06
1.178659249e-06
1.174965366e-06
1.179966818e-06
1.177498782e-06
1.177923742e-06
1.178266978e-06
1.174131791e-06
1.176861342e-06
1.178463114e-06
1.176469071e-06
1.175602806e-06
1.18223872e-06
1.180489846e-06
1.178070843e-06
1.169342818e-06
1.175308603e-06
1.167463188e-06
1.162592492e-06
1.169032271e-06
1.175798942e-06
1.169800468e-06
1.168541932e-06
1.173151114e-06
1.173134769e-06
1.164766326e-06
1.171222449e-06
1.185295163e-06
1.184396209e-06
1.18181376e-06
1.178822695e-06
1.177057477e-06
1.183856837e-06
1.18606336e-06
1.19031296e-06
1.185229785e-06
1.175079778e-06
1.172448295e-06
1.174605785e-06
1.177041132e-06
1.174360615e-06
1.17416448e-06
1.171009969e-06
1.167708357e-06
1.169718745e-06
1.17777664e-06
1.181012874e-06
1.183644357e-06
1.181437834e-06
1.172873255e-06
1.17650176e-06
1.181895483e-06
1.18011392e-06
1.178446769e-06
1.178005465e-06
1.182614646e-06
1.178119877e-06
1.183121329e-06
1.187501686e-06
1.184870203e-06
1.192584862e-06
1.188858289e-06
1.184853858e-06
1.188351606e-06
1.186341218e-06
1.187044037e-06
1.191506117e-06
1.190492751e-06
1.189659175e-06
1.200789858e-06
1.203404997e-06
1.194807729e-06
1.191914732e-06
1.187321895e-06
1.188073748e-06
1.18330112e-06
1.182630991e-06
1.185834535e-06
1.189986068e-06
1.190018757e-06
1.179541858e-06
1.181650314e-06
1.179705305e-06
1.173281871e-06
1.175210535e-06
1.182320443e-06
1.18733824e-06
1.189119803e-06
1.190002412e-06
1.190378338e-06
1.186521009e-06
1.18797568e-06
1.190427372e-06
1.188237194e-06
1.186455631e-06
1.185491298e-06
1.186047015e-06
1.184592345e-06
1.178740972e-06
1.175684529e-06
1.179214966e-06
1.181732037e-06
1.177482437e-06
1.178937108e-06
1.182385822e-06
1.18287616e-06
1.18436352e-06
1.186145083e-06
1.184935582e-06
1.192372382e-06
1.190786954e-06
1.186079705e-06
1.184919237e-06
1.184739446e-06
1.180015852e-06
1.175423015e-06
1.182091618e-06
1.18521344e-06
1.1867008e-06
1.188662154e-06
1.184379865e-06
1.187697822e-06
1.191342671e-06
1.194905797e-06
1.193091545e-06
1.192486794e-06
1.185442265e-06
1.170519631e-06
1.172611742e-06
1.174360615e-06
1.165076874e-06
1.167087262e-06
1.167168985e-06
1.177122855e-06
1.175455705e-06
1.175357637e-06
1.168901514e-06
1.17012736e-06
1.172660775e-06
1.176975754e-06
1.1697024e-06
1.170862868e-06
1.170323495e-06
1.174605785e-06
1.177923742e-06
1.179885095e-06
1.183006917e-06
1.178234289e-06
1.182156997e-06
1.189054425e-06
1.187681477e-06
1.185099028e-06
1.184951926e-06
1.181928172e-06
1.180685982e-06
1.183039606e-06
1.175079778e-06
1.167839114e-06
1.168868825e-06
1.173281871e-06
1.182353132e-06
1.185099028e-06
1.179868751e-06
1.173641452e-06
1.174605785e-06
1.172513674e-06
1.176534449e-06
1.173625108e-06
1.169538954e-06
1.174278892e-06
1.177727606e-06
1.174507717e-06
1.176256591e-06
1.178021809e-06
1.181683003e-06
1.177547815e-06
1.173723175e-06
1.172154092e-06
1.177024788e-06
1.177482437e-06
1.176746929e-06
1.179737994e-06
1.175145157e-06
1.176142178e-06
1.176943065e-06
1.17480192e-06
1.170290806e-06
1.175047089e-06
1.180195643e-06
1.182075274e-06
1.184085662e-06
1.181110942e-06
1.183480911e-06
1.182990572e-06
1.182320443e-06
1.177237268e-06
1.183055951e-06
1.176779618e-06
1.184036628e-06
1.177466092e-06
1.176420037e-06
1.173151114e-06
1.171009969e-06
1.168590966e-06
1.166956505e-06
1.170012948e-06
1.171516652e-06
1.1803264e-06
1.181584935e-06
1.181143631e-06
1.176763274e-06
1.177645883e-06
1.178675594e-06
1.178054498e-06
1.183072295e-06
1.179198622e-06
1.180162954e-06
1.186259495e-06
1.186471975e-06
1.180162954e-06
1.177368025e-06
1.173036702e-06
1.172121403e-06
1.177711262e-06
1.177678572e-06
1.180081231e-06
1.186504665e-06
1.171042658e-06
1.176616172e-06
1.179917785e-06
1.175668185e-06
1.178054498e-06
1.179590892e-06
1.183154018e-06
1.180996529e-06
1.179885095e-06
1.175292258e-06
1.173118425e-06
1.173576074e-06
1.175390326e-06
1.168950548e-06
1.166188308e-06
1.171451274e-06
1.172922289e-06
1.177891052e-06
1.175766252e-06
1.170290806e-06
1.185834535e-06
1.185164406e-06
1.180816738e-06
1.179639926e-06
1.177417058e-06
1.179770683e-06
1.1771392e-06
1.182761748e-06
1.184412554e-06
1.181225354e-06
1.180146609e-06
1.180081231e-06
1.18053888e-06
1.186210462e-06
1.185801846e-06
1.179133243e-06
1.18075136e-06
1.179198622e-06
1.183562634e-06
1.187583409e-06
1.184167385e-06
1.186455631e-06
1.184853858e-06
1.17437696e-06
1.178610215e-06
1.181928172e-06
1.189593797e-06
1.189479385e-06
1.183464566e-06
1.175668185e-06
1.175946043e-06
1.176599828e-06
1.176191212e-06
1.181633969e-06
1.174262548e-06
1.171516652e-06
1.16460288e-06
1.172350228e-06
1.179852406e-06
1.178577526e-06
1.180653292e-06
1.180784049e-06
1.174785575e-06
1.176730585e-06
1.176191212e-06
1.174393305e-06
1.172660775e-06
1.170732111e-06
1.175177846e-06
1.176894031e-06
1.179182277e-06
1.179934129e-06
1.179362068e-06
1.178021809e-06
1.174998055e-06
1.178054498e-06
1.181486868e-06
1.188384295e-06
1.183382843e-06
1.184608689e-06
1.176616172e-06
1.175373982e-06
1.179590892e-06
1.186929625e-06
1.182500234e-06
1.17968896e-06
1.177368025e-06
1.178054498e-06
1.172954978e-06
1.169522609e-06
1.173788554e-06
1.174409649e-06
1.181748382e-06
1.183464566e-06
1.184003938e-06
1.180489846e-06
1.182107963e-06
1.179966818e-06
1.179394757e-06
1.176338314e-06
1.176174868e-06
1.168296763e-06
1.169784123e-06
1.168623655e-06
1.169081305e-06
1.176812308e-06
1.171140726e-06
1.168623655e-06
1.171892578e-06
1.179165932e-06
1.181503212e-06
1.176861342e-06
1.171418585e-06
1.17543936e-06
1.175553772e-06
1.175373982e-06
1.178136222e-06
1.180571569e-06
1.182630991e-06
1.183154018e-06
1.173657797e-06
1.17735168e-06
1.17565184e-06
1.172938634e-06
1.177171889e-06
1.173461662e-06
1.171467618e-06
1.169784123e-06
1.17692672e-06
1.183333809e-06
1.183905871e-06
1.180604258e-06
1.178495803e-06
1.180702326e-06
1.180179298e-06
1.187746855e-06
1.184052972e-06
1.177237268e-06
1.172856911e-06
1.173363594e-06
1.171059003e-06
1.176779618e-06
1.184020283e-06
1.18691328e-06
1.187992025e-06
1.184772135e-06
1.188367951e-06
1.184576e-06
1.182761748e-06
1.176550794e-06
1.174654818e-06
1.175161502e-06
1.177531471e-06
1.174916332e-06
1.176420037e-06
1.176632517e-06
1.179705305e-06
1.179803372e-06
1.180718671e-06
1.17140224e-06
1.1750144e-06
1.175897009e-06
1.168149662e-06
1.168901514e-06
1.171663754e-06
1.177171889e-06
1.182353132e-06
1.181454178e-06
1.187665132e-06
1.188318917e-06
1.184069317e-06
1.173085735e-06
1.173445317e-06
1.177041132e-06
1.17905152e-06
1.173396283e-06
1.17565184e-06
1.168476554e-06
1.171238794e-06
1.177433403e-06
1.179443791e-06
1.175700874e-06
1.181584935e-06
1.181241698e-06
1.182598302e-06
1.181830105e-06
1.181944517e-06
1.188792911e-06
1.184837514e-06
1.188727532e-06
1.189136148e-06
1.186717145e-06
1.192127212e-06
1.184804825e-06
1.177972775e-06
1.182369477e-06
1.183333809e-06
1.185736468e-06
1.184625034e-06
1.181258043e-06
1.192960788e-06
1.191032123e-06
1.190966745e-06
1.194791385e-06
1.191816665e-06
1.188564086e-06
1.190002412e-06
1.19052544e-06
1.199711114e-06
1.194039532e-06
1.193565538e-06
1.192633895e-06
1.19668736e-06
1.200283175e-06
1.200185108e-06
1.196621982e-06
1.190852332e-06
1.192731963e-06
1.187518031e-06
1.190901366e-06
1.190247582e-06
1.19031296e-06
1.188743877e-06
1.187665132e-06
1.188253538e-06
1.181764726e-06
1.178708283e-06
1.178430425e-06
1.175684529e-06
1.179149588e-06
1.181339766e-06
1.178070843e-06
1.172971323e-06
1.17947648e-06
1.186455631e-06
1.192454105e-06
1.19541248e-06
1.186177772e-06
1.190868677e-06
1.187959335e-06
1.176044111e-06
1.171761822e-06
1.17225216e-06
1.173232837e-06
1.178217945e-06
1.18202624e-06
1.187828578e-06
1.191783975e-06
1.193140578e-06
1.193516505e-06
1.189283249e-06
1.187256517e-06
1.183873182e-06
1.184347175e-06
1.180342745e-06
1.179296689e-06
1.180310055e-06
1.18266368e-06
1.180375434e-06
1.180457157e-06
1.18202624e-06
1.180800394e-06
1.178577526e-06
1.179018831e-06
1.180816738e-06
1.168885169e-06
1.169015926e-06
1.171222449e-06
1.170486942e-06
1.175537428e-06
1.178299668e-06
1.171009969e-06
1.176371003e-06
1.176223902e-06
1.180784049e-06
1.184428898e-06
1.189708209e-06
1.190688886e-06
1.188564086e-06
1.184935582e-06
1.181535902e-06
1.173330905e-06
1.180800394e-06
1.1771392e-06
1.181061908e-06
1.180342745e-06
1.184249108e-06
1.188760222e-06
1.190983089e-06
1.181715692e-06
1.185409575e-06
1.181683003e-06
1.176469071e-06
1.183807803e-06
1.179754338e-06
1.181078252e-06
1.178185255e-06
1.171157071e-06
1.169163028e-06
1.171892578e-06
1.19392512e-06
1.189119803e-06
1.190084135e-06
1.184281797e-06
1.179362068e-06
1.178283323e-06
1.179917785e-06
1.183644357e-06
1.185752812e-06
1.182532923e-06
1.176191212e-06
1.180506191e-06
1.183807803e-06
1.181797415e-06
1.183856837e-06
1.184379865e-06
1.17968896e-06
1.188678498e-06
1.194726006e-06
1.191604185e-06
1.178381391e-06
1.178920763e-06
1.17671424e-06
1.181486868e-06
1.183971249e-06
1.186471975e-06
1.186357563e-06
1.18117632e-06
1.178495803e-06
1.170862868e-06
1.178217945e-06
1.176485415e-06
1.175341292e-06
1.179165932e-06
1.179067865e-06
1.185262474e-06
1.181699348e-06
1.178021809e-06
1.176272935e-06
1.178773662e-06
1.180310055e-06
1.173804898e-06
1.182908849e-06
1.183333809e-06
1.178479458e-06
1.178871729e-06
1.178757317e-06
1.174082757e-06
1.172023335e-06
1.170486942e-06
1.175504738e-06
1.172137748e-06
1.171059003e-06
1.173428972e-06
1.176354658e-06
1.172611742e-06
1.175717218e-06
1.173428972e-06
1.177155545e-06
1.175455705e-06
1.175995077e-06
1.173134769e-06
1.179329378e-06
1.185507643e-06
1.186749834e-06
1.188645809e-06
1.18861312e-06
1.189446695e-06
1.185736468e-06
1.189773588e-06
1.185883569e-06
1.186324874e-06
1.182206031e-06
1.177286302e-06
1.18202624e-06
1.180130265e-06
1.183611668e-06
1.176403692e-06
1.169424542e-06
1.174703852e-06
1.168116972e-06
1.173412628e-06
1.181127286e-06
1.184265452e-06
1.181143631e-06
1.177662228e-06
1.171353206e-06
1.175553772e-06
1.180718671e-06
1.178904418e-06
1.172595397e-06
1.173886622e-06
1.172170437e-06
1.180865772e-06
1.180555225e-06
1.179885095e-06
1.178119877e-06
1.169996603e-06
1.168182351e-06
1.164897083e-06
1.182549268e-06
1.175733563e-06
1.174425994e-06
1.167708357e-06
1.172513674e-06
1.1707648e-06
1.177090166e-06
1.188122782e-06
1.181993551e-06
1.179231311e-06
1.175275914e-06
1.174050068e-06
1.177596849e-06
1.176746929e-06
1.177024788e-06
1.177547815e-06
1.178953452e-06
1.177368025e-06
1.175815286e-06
1.177302646e-06
1.180195643e-06
1.178512148e-06
1.179966818e-06
1.176795963e-06
1.174949022e-06
1.170160049e-06
1.168574622e-06
1.168868825e-06
1.170797489e-06
1.164717292e-06
1.167119951e-06
1.166335409e-06
1.171696443e-06
1.177368025e-06
1.176550794e-06
1.177220923e-06
1.171598375e-06
1.175913354e-06
1.176044111e-06
1.177907397e-06
1.169767778e-06
1.170470597e-06
1.170241772e-06
1.170045637e-06
1.173020357e-06
1.17862656e-06
1.178561182e-06
1.184608689e-06
1.180506191e-06
1.184919237e-06
1.187583409e-06
1.185622055e-06
1.184183729e-06
1.183562634e-06
1.182696369e-06
1.177874708e-06
1.174703852e-06
1.166400788e-06
1.171124382e-06
1.171565686e-06
1.183971249e-06
1.179917785e-06
1.17990144e-06
1.179525514e-06
1.173657797e-06
1.171990646e-06
1.172186782e-06
1.174017378e-06
1.172154092e-06
1.183562634e-06
1.182156997e-06
1.178152566e-06
1.176223902e-06
1.178250634e-06
1.17862656e-06
1.176779618e-06
1.176338314e-06
1.178953452e-06
1.185115372e-06
1.188335262e-06
1.170192738e-06
1.173265526e-06
1.17565184e-06
1.174949022e-06
1.180293711e-06
1.181437834e-06
1.184625034e-06
1.186308529e-06
1.182189686e-06
1.175423015e-06
1.172235815e-06
1.174066412e-06
1.173478006e-06
1.169457231e-06
1.162085809e-06
1.16311552e-06
1.169669711e-06
1.173821243e-06
1.173151114e-06
1.171418585e-06
1.190378338e-06
1.193107889e-06
1.182680025e-06
1.180800394e-06
1.181928172e-06
1.188874634e-06
1.181290732e-06
1.177940086e-06
1.180261022e-06
1.181748382e-06
1.179934129e-06
1.178054498e-06
1.175455705e-06
1.178953452e-06
1.179394757e-06
1.182042585e-06
1.181110942e-06
1.180914806e-06
1.182941538e-06
1.186128738e-06
1.184314486e-06
1.185507643e-06
1.187861268e-06
1.188531397e-06
1.186749834e-06
1.185148062e-06
1.187387274e-06
1.18861312e-06
1.188139126e-06
1.189364972e-06
1.190182203e-06
1.191963766e-06
1.189610142e-06
1.185360542e-06
1.182156997e-06
1.182255065e-06
1.177155545e-06
1.182974228e-06
1.186782523e-06
1.184690412e-06
1.18075136e-06
1.175423015e-06
1.170323495e-06
1.176894031e-06
1.178937108e-06
1.178577526e-06
1.171565686e-06
1.168803446e-06
1.169146683e-06
1.176354658e-06
1.183268431e-06
1.186161428e-06
1.190165858e-06
1.185017305e-06
1.177662228e-06
1.173674142e-06
1.175880665e-06
1.18266368e-06
1.184821169e-06
1.188629465e-06
1.175684529e-06
1.176158523e-06
1.184428898e-06
1.184935582e-06
1.186292185e-06
1.18648832e-06
1.191015778e-06
1.192241625e-06
1.189626486e-06
1.186651766e-06
1.180473502e-06
1.183317465e-06
1.185360542e-06
1.180064886e-06
1.180097575e-06
1.177286302e-06
1.177645883e-06
1.176992098e-06
1.176616172e-06
1.172971323e-06
1.179836062e-06
1.182271409e-06
1.188090092e-06
1.189414006e-06
1.191767631e-06
1.193957809e-06
1.195085588e-06
1.197586314e-06
1.191522462e-06
1.187370929e-06
1.180081231e-06
1.181535902e-06
1.182091618e-06
1.187354585e-06
1.187844923e-06
1.187044037e-06
1.178087188e-06
1.177122855e-06
1.172268505e-06
1.171696443e-06
1.178642905e-06
1.175390326e-06
1.185376886e-06
1.179329378e-06
1.185622055e-06
1.185180751e-06
1.182712714e-06
1.186553698e-06
1.184625034e-06
1.186292185e-06
1.188645809e-06
1.181781071e-06
1.177825674e-06
1.174213514e-06
1.179296689e-06
1.175586462e-06
1.178610215e-06
1.179623582e-06
1.179116898e-06
1.181764726e-06
1.177760295e-06
1.185867225e-06
1.178724628e-06
1.176338314e-06
1.175619151e-06
1.173902966e-06
1.174507717e-06
1.180931151e-06
1.180130265e-06
1.18287616e-06
1.185017305e-06
1.196393157e-06
1.189757243e-06
1.179541858e-06
1.179296689e-06
1.178822695e-06
1.181110942e-06
1.181895483e-06
1.178005465e-06
1.180359089e-06
1.170045637e-06
1.175194191e-06
1.180097575e-06
1.184706757e-06
1.183905871e-06
1.178038154e-06
1.167119951e-06
1.166041206e-06
1.175521083e-06
1.174115446e-06
1.169473575e-06
1.167855458e-06
1.166466166e-06
1.174573095e-06
1.173330905e-06
1.168966892e-06
1.169784123e-06
1.170356185e-06
1.166858437e-06
1.167267052e-06
1.164275988e-06
1.165223975e-06
1.156937255e-06
1.151706978e-06
1.158669785e-06
1.165469145e-06
1.169898535e-06
1.177809329e-06
1.180081231e-06
1.184739446e-06
1.188384295e-06
1.179443791e-06
1.183235742e-06
1.185327852e-06
1.181307077e-06
1.183693391e-06
1.181911828e-06
1.175292258e-06
1.176125834e-06
1.170634043e-06
1.18330112e-06
1.182091618e-06
1.179411102e-06
1.171565686e-06
1.17267712e-06
1.172824222e-06
1.173788554e-06
1.171287828e-06
1.173428972e-06
1.174703852e-06
1.177711262e-06
1.181944517e-06
1.180146609e-06
1.179672615e-06
1.178593871e-06
1.184200074e-06
1.179411102e-06
1.186586388e-06
1.189054425e-06
1.187681477e-06
1.179737994e-06
1.171483963e-06
1.172546363e-06
1.176371003e-06
1.176894031e-06
1.177269957e-06
1.177678572e-06
1.172546363e-06
1.181127286e-06
1.187779545e-06
1.186504665e-06
1.182140652e-06
1.17671424e-06
1.172938634e-06
1.175619151e-06
1.177171889e-06
1.184592345e-06
1.188711188e-06
1.18840064e-06
1.185393231e-06
1.171320517e-06
1.1697024e-06
1.172971323e-06
1.173641452e-06
1.171565686e-06
1.176975754e-06
1.176550794e-06
1.176877686e-06
1.170454252e-06
1.171631065e-06
1.178348702e-06
1.178724628e-06
1.182467545e-06
1.187648788e-06
1.183562634e-06
1.177417058e-06
1.175619151e-06
1.173984689e-06
1.170928246e-06
1.167087262e-06
1.175128812e-06
1.178904418e-06
1.175406671e-06
1.175749908e-06
1.177171889e-06
1.171418585e-06
1.16630272e-06
1.166694991e-06
1.174540406e-06
1.174197169e-06
1.17671424e-06
1.175946043e-06
1.162821317e-06
1.162543458e-06
1.167332431e-06
1.168378486e-06
1.171516652e-06
1.166270031e-06
1.173265526e-06
1.177253612e-06
1.188564086e-06
1.186504665e-06
1.188678498e-06
1.185197095e-06
1.187632443e-06
1.184183729e-06
1.184428898e-06
1.185818191e-06
1.181110942e-06
1.176828652e-06
1.169931225e-06
1.167544911e-06
1.173592418e-06
1.180048542e-06
1.186782523e-06
1.187501686e-06
1.184853858e-06
1.180882117e-06
1.182369477e-06
1.176011422e-06
1.185932603e-06
1.187501686e-06
1.179705305e-06
1.176943065e-06
1.179182277e-06
1.178463114e-06
1.182467545e-06
1.174867298e-06
1.174442338e-06
1.172644431e-06
1.172709809e-06
1.172856911e-06
1.179443791e-06
1.186210462e-06
1.18818816e-06
1.189822622e-06
1.196818117e-06
1.195935508e-06
1.189446695e-06
1.182565612e-06
1.1867008e-06
1.189806277e-06
1.177842018e-06
1.184281797e-06
1.187093071e-06
1.179934129e-06
1.177482437e-06
1.173412628e-06
1.170405218e-06
1.175619151e-06
1.170568665e-06
1.176763274e-06
1.177792985e-06
1.173363594e-06
1.182206031e-06
1.187567065e-06
1.178920763e-06
1.181960862e-06
1.181895483e-06
1.185409575e-06
1.179819717e-06
1.175733563e-06
1.171761822e-06
1.180408123e-06
1.180146609e-06
1.18075136e-06
1.176992098e-06
1.178528492e-06
1.186896935e-06
1.180473502e-06
1.188122782e-06
1.190574474e-06
1.18861312e-06
1.187419963e-06
1.187697822e-06
1.189659175e-06
1.190835988e-06
1.184821169e-06
1.188090092e-06
1.185360542e-06
1.180882117e-06
1.1813888e-06
1.191228258e-06
1.179182277e-06
1.176583483e-06
1.183219397e-06
1.181781071e-06
1.193254991e-06
1.187076726e-06
1.18946304e-06
1.186226806e-06
1.180685982e-06
1.179149588e-06
1.185867225e-06
1.191685908e-06
1.189201526e-06
1.185197095e-06
1.186766178e-06
1.179460135e-06
1.177825674e-06
1.180473502e-06
1.180375434e-06
1.179950474e-06
1.179623582e-06
1.174671163e-06
1.171794511e-06
1.167168985e-06
1.173445317e-06
1.169718745e-06
1.164799015e-06
1.171320517e-06
1.171843545e-06
1.173461662e-06
1.180914806e-06
1.182483889e-06
1.17947648e-06
1.183072295e-06
1.181666658e-06
1.17458944e-06
1.177204578e-06
1.175357637e-06
1.178217945e-06
1.177008443e-06
1.178528492e-06
1.186145083e-06
1.188515052e-06
1.184690412e-06
1.187240172e-06
1.187714166e-06
1.19583744e-06
1.198485268e-06
1.199057329e-06
1.188318917e-06
1.191931077e-06
1.189757243e-06
1.187534375e-06
1.175929698e-06
1.174916332e-06
1.179280345e-06
1.18585088e-06
1.177466092e-06
1.178986142e-06
1.180162954e-06
1.183382843e-06
1.173036702e-06
1.173363594e-06
1.166613268e-06
1.164799015e-06
1.164946117e-06
1.171794511e-06
1.177694917e-06
1.178561182e-06
1.173478006e-06
1.173772209e-06
1.171026314e-06
1.173183803e-06
1.174327926e-06
1.174180825e-06
1.179525514e-06
1.176779618e-06
1.17480192e-06
1.174099102e-06
1.172546363e-06
1.177498782e-06
1.183350154e-06
1.181045563e-06
1.179018831e-06
1.181241698e-06
1.185523988e-06
1.183562634e-06
1.175373982e-06
1.177743951e-06
1.182647335e-06
1.176812308e-06
1.166204652e-06
1.169342818e-06
1.165894105e-06
1.172399262e-06
1.176763274e-06
1.181078252e-06
1.169342818e-06
1.163573169e-06
1.164488468e-06
1.166645957e-06
1.173494351e-06
1.177335335e-06
1.176910375e-06
1.171353206e-06
1.169032271e-06
1.172579052e-06
1.164325022e-06
1.164128886e-06
1.162429046e-06
1.167267052e-06
1.175128812e-06
1.183399188e-06
1.185360542e-06
1.183039606e-06
1.177678572e-06
1.170634043e-06
1.186128738e-06
1.187272862e-06
1.177188234e-06
1.180162954e-06
1.174360615e-06
1.171680098e-06
1.168018905e-06
1.167038228e-06
1.171843545e-06
1.171091692e-06
1.173036702e-06
1.178430425e-06
1.182974228e-06
1.186717145e-06
1.189757243e-06
1.183448222e-06
1.182009895e-06
1.183170363e-06
1.181307077e-06
1.180048542e-06
1.176534449e-06
1.180244677e-06
1.175194191e-06
1.178152566e-06
1.180179298e-06
1.174605785e-06
1.172987668e-06
1.173183803e-06
1.170241772e-06
1.172628086e-06
1.175749908e-06
1.172971323e-06
1.172840566e-06
1.168607311e-06
1.168116972e-06
1.16694016e-06
1.174932677e-06
1.176763274e-06
1.180980185e-06
1.181928172e-06
1.175243225e-06
1.171222449e-06
1.176828652e-06
1.177449748e-06
1.181061908e-06
1.186259495e-06
1.183546289e-06
1.184052972e-06
1.18075136e-06
1.175880665e-06
1.173020357e-06
1.178087188e-06
1.180228332e-06
1.174736542e-06
1.176272935e-06
1.171369551e-06
1.169604332e-06
1.176632517e-06
1.181290732e-06
1.175275914e-06
1.184052972e-06
1.187599754e-06
1.179672615e-06
1.176174868e-06
1.17118976e-06
1.174246203e-06
1.175063434e-06
1.177220923e-06
1.183121329e-06
1.179934129e-06
1.179770683e-06
1.179803372e-06
1.174556751e-06
1.183497255e-06
1.187060382e-06
1.180310055e-06
1.174540406e-06
1.171385895e-06
1.171631065e-06
1.178708283e-06
1.174229858e-06
1.176730585e-06
1.181192665e-06
1.175913354e-06
1.173396283e-06
1.175946043e-06
1.171516652e-06
1.171320517e-06
1.177286302e-06
1.180130265e-06
1.179329378e-06
1.191669563e-06
1.188711188e-06
1.187583409e-06
1.180767705e-06
1.186798868e-06
1.186978658e-06
1.183660702e-06
1.180620603e-06
1.176321969e-06
1.189871655e-06
1.188041058e-06
1.182385822e-06
1.189495729e-06
1.193663606e-06
1.186373908e-06
1.192584862e-06
1.197471902e-06
1.187158449e-06
1.182941538e-06
1.180636948e-06
1.180032197e-06
1.185393231e-06
1.178806351e-06
1.176469071e-06
1.175357637e-06
1.185017305e-06
1.190607163e-06
1.190361994e-06
1.188237194e-06
1.190721575e-06
1.188580431e-06
1.194971175e-06
1.190901366e-06
1.198142031e-06
1.194023188e-06
1.188760222e-06
1.180359089e-06
1.182516578e-06
1.176256591e-06
1.178495803e-06
1.18117632e-06
1.1813888e-06
1.173559729e-06
1.182745403e-06
1.184935582e-06
1.188171815e-06
1.188155471e-06
1.193271335e-06
1.193353058e-06
1.18627584e-06
1.18585088e-06
1.186815212e-06
1.186079705e-06
1.186978658e-06
1.184003938e-06
1.185507643e-06
1.198272788e-06
1.197586314e-06
1.199106363e-06
1.202309908e-06
1.201737846e-06
1.198795815e-06
1.197128665e-06
1.197210388e-06
1.192421415e-06
1.188564086e-06
1.194480837e-06
1.193908775e-06
1.190705231e-06
1.180882117e-06
1.176191212e-06
1.181568591e-06
1.178937108e-06
1.185082683e-06
1.187861268e-06
1.184902892e-06
1.185752812e-06
1.183693391e-06
1.181323422e-06
1.184330831e-06
1.186798868e-06
1.178430425e-06
1.181683003e-06
1.176730585e-06
1.179525514e-06
1.182320443e-06
1.184657723e-06
1.184772135e-06
1.183807803e-06
1.176191212e-06
1.176812308e-06
1.175684529e-06
1.177825674e-06
1.177662228e-06
1.172480985e-06
1.175194191e-06
1.180277366e-06
1.179509169e-06
1.180604258e-06
1.18308864e-06
1.180980185e-06
1.179541858e-06
1.1803264e-06
1.178446769e-06
1.176011422e-06
1.178937108e-06
1.173069391e-06
1.173723175e-06
1.173330905e-06
1.173085735e-06
1.177237268e-06
1.18053888e-06
1.179165932e-06
1.176681551e-06
1.178691938e-06
1.179378412e-06
1.1750144e-06
1.176959409e-06
1.165926794e-06
1.162281945e-06
1.170307151e-06
1.174524062e-06
1.174932677e-06
1.169408197e-06
1.169130338e-06
1.174001034e-06
1.174115446e-06
1.171761822e-06
1.171876234e-06
1.194202978e-06
1.190263926e-06
1.184085662e-06
1.181862794e-06
1.183284775e-06
1.177678572e-06
1.179116898e-06
1.17437696e-06
1.170585009e-06
1.171516652e-06
1.17246464e-06
1.171500308e-06
1.177531471e-06
1.178855385e-06
1.181470523e-06
1.176158523e-06
1.176142178e-06
1.177694917e-06
1.187158449e-06
1.189495729e-06
1.179509169e-06
1.1750144e-06
1.174818265e-06
1.175145157e-06
1.175194191e-06
1.174458683e-06
1.178610215e-06
1.186798868e-06
1.189299594e-06
1.182418511e-06
1.174393305e-06
1.176207557e-06
1.182892505e-06
1.183644357e-06
1.184935582e-06
1.182124308e-06
1.187174794e-06
1.189773588e-06
1.189054425e-06
1.179525514e-06
1.180996529e-06
1.179737994e-06
1.171876234e-06
1.170323495e-06
1.169212062e-06
1.172170437e-06
1.173968345e-06
1.172856911e-06
1.176158523e-06
1.173772209e-06