/*--------------------------------*- C++ -*----------------------------------*\
| =========                 |                                                 |
| \\      /  F ield         | OpenFOAM: The Open Source CFD Toolbox           |
|  \\    /   O peration     | Version:  v1706                                 |
|   \\  /    A nd           | Web:      www.OpenFOAM.com                      |
|    \\/     M anipulation  |                                                 |
\*---------------------------------------------------------------------------*/
FoamFile
{
    version     2.0;
    format      ascii;
    class       volScalarField;
    location    "0.02";
    object      rhoM_mixture;
}
// * * * * * * * * * * * * * * * * * * * * * * * * * * * * * * * * * * * * * //

dimensions      [1 -3 0 0 0 0 0];


internalField   nonuniform List<scalar> 
5120
(
4.822494129e-06
4.81695168e-06
4.819436917e-06
4.8259664e-06
4.831223009e-06
4.835462849e-06
4.822609545e-06
4.813095846e-06
4.802401397e-06
4.792667858e-06
4.787775169e-06
4.789423003e-06
4.795667237e-06
4.798106658e-06
4.803488535e-06
4.802149526e-06
4.792251378e-06
4.808166117e-06
4.811766351e-06
4.816421674e-06
4.793925495e-06
4.793886252e-06
4.807027286e-06
4.809294898e-06
4.796705606e-06
4.78670256e-06
4.798193858e-06
4.793036351e-06
4.803545046e-06
4.792702738e-06
4.812658898e-06
4.808979126e-06
4.797186517e-06
4.801138923e-06
4.796652369e-06
4.807163791e-06
4.797085557e-06
4.806255292e-06
4.794878738e-06
4.801134978e-06
4.790715908e-06
4.792270092e-06
4.787159551e-06
4.792550578e-06
4.811468505e-06
4.808499335e-06
4.799704837e-06
4.80538872e-06
4.807377391e-06
4.805911877e-06
4.800501169e-06
4.808491877e-06
4.814202357e-06
4.81422496e-06
4.825045157e-06
4.812859668e-06
4.813546831e-06
4.79986296e-06
4.802739711e-06
4.797154388e-06
4.791202351e-06
4.797192942e-06
4.804027403e-06
4.809027606e-06
4.808499865e-06
4.808500671e-06
4.807335077e-06
4.800382702e-06
4.800814972e-06
4.791252338e-06
4.806593969e-06
4.802102535e-06
4.797592228e-06
4.781385028e-06
4.776900917e-06
4.776556597e-06
4.77852912e-06
4.796926775e-06
4.797723803e-06
4.790892874e-06
4.78981664e-06
4.785443674e-06
4.795705329e-06
4.788482295e-06
4.787692991e-06
4.781499797e-06
4.780953495e-06
4.78094336e-06
4.778778135e-06
4.77698504e-06
4.781333643e-06
4.801876369e-06
4.794023138e-06
4.798283625e-06
4.799813563e-06
4.790431495e-06
4.787569545e-06
4.788518978e-06
4.787953914e-06
4.791399637e-06
4.783557231e-06
4.790835791e-06
4.790734732e-06
4.772705311e-06
4.790778142e-06
4.789028351e-06
4.773293815e-06
4.773244178e-06
4.773889095e-06
4.787051335e-06
4.790374862e-06
4.79627472e-06
4.793349003e-06
4.806000074e-06
4.789986018e-06
4.793196462e-06
4.792036111e-06
4.791023188e-06
4.780578406e-06
4.785902609e-06
4.768124566e-06
4.766366185e-06
4.773626098e-06
4.794119317e-06
4.787077502e-06
4.788590191e-06
4.788954849e-06
4.788937452e-06
4.785198757e-06
4.780618129e-06
4.769798554e-06
4.790226622e-06
4.790863649e-06
4.792724308e-06
4.788738966e-06
4.789906431e-06
4.786122794e-06
4.785298862e-06
4.781682462e-06
4.763708222e-06
4.779117231e-06
4.778485262e-06
4.766881852e-06
4.764298615e-06
4.766972972e-06
4.768850535e-06
4.771822991e-06
4.771536375e-06
4.769686412e-06
4.773825637e-06
4.770384726e-06
4.756728055e-06
4.763618498e-06
4.785021772e-06
4.789343089e-06
4.793042935e-06
4.793421686e-06
4.79610848e-06
4.785819194e-06
4.791508794e-06
4.794158068e-06
4.784734505e-06
4.789907778e-06
4.783284468e-06
4.78347584e-06
4.793612831e-06
4.789738025e-06
4.780101243e-06
4.79044288e-06
4.785921058e-06
4.79317128e-06
4.798150277e-06
4.798555477e-06
4.796637852e-06
4.798255428e-06
4.794051852e-06
4.811063077e-06
4.805281668e-06
4.798213895e-06
4.804457422e-06
4.790015686e-06
4.799013502e-06
4.796507569e-06
4.780744055e-06
4.785992234e-06
4.781186443e-06
4.791203926e-06
4.797249723e-06
4.795958763e-06
4.77266032e-06
4.763999028e-06
4.771736843e-06
4.782608031e-06
4.790238369e-06
4.795379446e-06
4.782388474e-06
4.775663298e-06
4.774152843e-06
4.787393502e-06
4.79183176e-06
4.809726018e-06
4.816965052e-06
4.811310769e-06
4.812226e-06
4.798210671e-06
4.791285698e-06
4.779545194e-06
4.783693065e-06
4.780679711e-06
4.785546972e-06
4.800129354e-06
4.813446449e-06
4.804822357e-06
4.801714283e-06
4.790343742e-06
4.792924468e-06
4.805860708e-06
4.800867618e-06
4.798988105e-06
4.79697448e-06
4.779551225e-06
4.768746172e-06
4.784977883e-06
4.786280886e-06
4.79469992e-06
4.802978572e-06
4.810809348e-06
4.797288542e-06
4.794702825e-06
4.788096726e-06
4.792360437e-06
4.790364437e-06
4.786891003e-06
4.795953754e-06
4.800322068e-06
4.791910129e-06
4.79076144e-06
4.786879372e-06
4.778464265e-06
4.778015932e-06
4.804247815e-06
4.803004689e-06
4.804072738e-06
4.794845163e-06
4.787667317e-06
4.785109114e-06
4.784232812e-06
4.774967686e-06
4.780057545e-06
4.783079871e-06
4.784132874e-06
4.79417776e-06
4.790702025e-06
4.794707914e-06
4.802202615e-06
4.794350025e-06
4.800675028e-06
4.796408049e-06
4.811619908e-06
4.812757674e-06
4.812809218e-06
4.801630818e-06
4.801616825e-06
4.807119785e-06
4.803160234e-06
4.79362768e-06
4.792716012e-06
4.801189138e-06
4.798670886e-06
4.805479015e-06
4.818638135e-06
4.816760148e-06
4.830770732e-06
4.824649815e-06
4.823082492e-06
4.815294966e-06
4.803524431e-06
4.803384031e-06
4.800987729e-06
4.785471569e-06
4.787528412e-06
4.779211255e-06
4.770141065e-06
4.774637182e-06
4.778879748e-06
4.7735744e-06
4.772953077e-06
4.776415606e-06
4.799572862e-06
4.80141384e-06
4.818215655e-06
4.803360788e-06
4.807590098e-06
4.799816308e-06
4.791203895e-06
4.764027114e-06
4.776910265e-06
4.795136738e-06
4.805465298e-06
4.806922566e-06
4.802430985e-06
4.809809698e-06
4.800271625e-06
4.797527668e-06
4.78826016e-06
4.794771145e-06
4.805397046e-06
4.813943058e-06
4.814295871e-06
4.808088172e-06
4.783071095e-06
4.790176831e-06
4.788556892e-06
4.788609557e-06
4.787097705e-06
4.80078872e-06
4.804112603e-06
4.806467575e-06
4.801155052e-06
4.798371705e-06
4.792868892e-06
4.801118172e-06
4.793625902e-06
4.796918068e-06
4.811022449e-06
4.816150615e-06
4.803327077e-06
4.796375822e-06
4.801925994e-06
4.818382437e-06
4.823213489e-06
4.804000345e-06
4.788325175e-06
4.786327945e-06
4.798819545e-06
4.797280689e-06
4.7909788e-06
4.79293432e-06
4.785517317e-06
4.78017e-06
4.816345231e-06
4.816361791e-06
4.819888597e-06
4.812687686e-06
4.803308505e-06
4.813617089e-06
4.797041175e-06
4.807815495e-06
4.794857668e-06
4.795185034e-06
4.793443095e-06
4.801949108e-06
4.815333274e-06
4.812924572e-06
4.802280603e-06
4.805949895e-06
4.804255409e-06
4.798786603e-06
4.803067594e-06
4.80457192e-06
4.802331372e-06
4.809360357e-06
4.800038049e-06
4.801768295e-06
4.796680357e-06
4.789653883e-06
4.798296437e-06
4.799182628e-06
4.800986646e-06
4.799848622e-06
4.796868154e-06
4.795224738e-06
4.801928917e-06
4.793565452e-06
4.799464018e-06
4.804197366e-06
4.814993434e-06
4.813240782e-06
4.80518128e-06
4.808514825e-06
4.778611483e-06
4.782213803e-06
4.785732806e-06
4.783552763e-06
4.777564345e-06
4.800639797e-06
4.800278769e-06
4.801279305e-06
4.789818511e-06
4.793580911e-06
4.782573495e-06
4.770606185e-06
4.780465502e-06
4.786416634e-06
4.780203545e-06
4.782893932e-06
4.791781114e-06
4.774008923e-06
4.774253711e-06
4.775330142e-06
4.809591009e-06
4.807976671e-06
4.802260837e-06
4.798053618e-06
4.798534708e-06
4.816393914e-06
4.819187052e-06
4.829259883e-06
4.815291631e-06
4.807631163e-06
4.796944449e-06
4.800661477e-06
4.796357902e-06
4.790687077e-06
4.774108634e-06
4.778522892e-06
4.769784357e-06
4.770464129e-06
4.785361102e-06
4.800930566e-06
4.798110818e-06
4.798136295e-06
4.793205871e-06
4.797263606e-06
4.798679791e-06
4.801204843e-06
4.808465692e-06
4.816537465e-06
4.814722492e-06
4.804948185e-06
4.813769791e-06
4.79525784e-06
4.796303434e-06
4.808052862e-06
4.80066352e-06
4.794842012e-06
4.804162991e-06
4.794569526e-06
4.802025575e-06
4.801823348e-06
4.805116597e-06
4.800348406e-06
4.817216474e-06
4.811747766e-06
4.811420345e-06
4.814393502e-06
4.813391895e-06
4.810895902e-06
4.815823889e-06
4.812006068e-06
4.813607151e-06
4.804023298e-06
4.798433065e-06
4.793979705e-06
4.796918006e-06
4.798535612e-06
4.790838794e-06
4.790978997e-06
4.800006135e-06
4.801060702e-06
4.822629803e-06
4.820049951e-06
4.824646646e-06
4.823021317e-06
4.81739368e-06
4.814680295e-06
4.81234704e-06
4.797874554e-06
4.790042529e-06
4.796850708e-06
4.803279575e-06
4.794466511e-06
4.802412683e-06
4.799304351e-06
4.800662498e-06
4.806313822e-06
4.797967723e-06
4.799069975e-06
4.796240929e-06
4.815011982e-06
4.801183852e-06
4.805354043e-06
4.802174535e-06
4.802978492e-06
4.788613551e-06
4.787767852e-06
4.792509908e-06
4.795669852e-06
4.780961477e-06
4.790849311e-06
4.785672671e-06
4.792754338e-06
4.800581846e-06
4.799060942e-06
4.814139822e-06
4.817927748e-06
4.81897272e-06
4.819619391e-06
4.819186332e-06
4.807806572e-06
4.763324246e-06
4.766546665e-06
4.768624615e-06
4.76984272e-06
4.783585415e-06
4.786714677e-06
4.789672086e-06
4.790723397e-06
4.792499637e-06
4.785471206e-06
4.795009822e-06
4.792664314e-06
4.788451908e-06
4.773481015e-06
4.759675637e-06
4.762427034e-06
4.772561169e-06
4.775263895e-06
4.781503249e-06
4.776455378e-06
4.793645058e-06
4.791816074e-06
4.800702271e-06
4.810117323e-06
4.805417335e-06
4.804068388e-06
4.792545865e-06
4.803379366e-06
4.799194375e-06
4.793123163e-06
4.771660652e-06
4.756250825e-06
4.766487102e-06
4.776130671e-06
4.786960412e-06
4.785450135e-06
4.784502375e-06
4.7899164e-06
4.791301058e-06
4.796924295e-06
4.803343569e-06
4.795294185e-06
4.806815969e-06
4.805185452e-06
4.797215409e-06
4.804157975e-06
4.812075502e-06
4.81477808e-06
4.802973969e-06
4.802325637e-06
4.798381477e-06
4.808560326e-06
4.793837514e-06
4.785275698e-06
4.786206455e-06
4.790212542e-06
4.795416025e-06
4.79708968e-06
4.802560228e-06
4.797834498e-06
4.804422166e-06
4.807853797e-06
4.818103428e-06
4.814719815e-06
4.811387403e-06
4.806303065e-06
4.794967495e-06
4.805214135e-06
4.811019114e-06
4.821359028e-06
4.80668408e-06
4.810306935e-06
4.803807938e-06
4.802919268e-06
4.801710652e-06
4.790927662e-06
4.787492812e-06
4.793083735e-06
4.791146794e-06
4.794496191e-06
4.783761631e-06
4.79535032e-06
4.792390862e-06
4.794792351e-06
4.802442498e-06
4.796575902e-06
4.796827575e-06
4.797967988e-06
4.791290006e-06
4.800252338e-06
4.804259957e-06
4.805302283e-06
4.795187415e-06
4.794624486e-06
4.798276855e-06
4.793484172e-06
4.801606492e-06
4.795922265e-06
4.786435231e-06
4.799540357e-06
4.798171428e-06
4.804331557e-06
4.815888708e-06
4.811581877e-06
4.817573729e-06
4.820412123e-06
4.815190326e-06
4.811101298e-06
4.798629557e-06
4.789257951e-06
4.786726425e-06
4.800204074e-06
4.814666326e-06
4.794033317e-06
4.785433538e-06
4.801284197e-06
4.795601366e-06
4.807351975e-06
4.801621637e-06
4.789121114e-06
4.821147305e-06
4.810919637e-06
4.804082431e-06
4.800802388e-06
4.801483982e-06
4.800446683e-06
4.795726277e-06
4.815685132e-06
4.809953169e-06
4.797880892e-06
4.800922763e-06
4.802688769e-06
4.79823888e-06
4.809919692e-06
4.811671538e-06
4.798936474e-06
4.803945514e-06
4.802521545e-06
4.818117095e-06
4.827074025e-06
4.792925077e-06
4.791994092e-06
4.79839032e-06
4.786024806e-06
4.796624985e-06
4.809228634e-06
4.816579489e-06
4.807894769e-06
4.799447643e-06
4.802925723e-06
4.805449889e-06
4.802025982e-06
4.814394135e-06
4.815773508e-06
4.807243163e-06
4.788057729e-06
4.781816418e-06
4.789878535e-06
4.791199791e-06
4.791784911e-06
4.784818215e-06
4.784576972e-06
4.778034806e-06
4.781310431e-06
4.779068443e-06
4.770345612e-06
4.773663698e-06
4.768043649e-06
4.772460769e-06
4.782275108e-06
4.793462738e-06
4.803371514e-06
4.795359452e-06
4.797166886e-06
4.797519748e-06
4.797671729e-06
4.793377945e-06
4.806284603e-06
4.796289766e-06
4.799590228e-06
4.796777095e-06
4.799727058e-06
4.804802431e-06
4.817177471e-06
4.811961157e-06
4.802368037e-06
4.802565255e-06
4.78229096e-06
4.774143902e-06
4.769724302e-06
4.765233938e-06
4.767042572e-06
4.767642382e-06
4.782235489e-06
4.766621477e-06
4.781392615e-06
4.791266271e-06
4.792988203e-06
4.799970603e-06
4.797443545e-06
4.777106252e-06
4.782906302e-06
4.781403354e-06
4.780214271e-06
4.791416997e-06
4.796286462e-06
4.790028265e-06
4.789757502e-06
4.787618117e-06
4.789826548e-06
4.800176135e-06
4.788523495e-06
4.773508892e-06
4.793711668e-06
4.798790849e-06
4.792086751e-06
4.788811145e-06
4.791732954e-06
4.786051914e-06
4.783513095e-06
4.788896874e-06
4.79616768e-06
4.790905225e-06
4.789279403e-06
4.789248966e-06
4.793880123e-06
4.784875311e-06
4.785466738e-06
4.802109643e-06
4.820835655e-06
4.821236025e-06
4.811267028e-06
4.802591342e-06
4.801564326e-06
4.78776376e-06
4.783742086e-06
4.788160665e-06
4.785150806e-06
4.785821065e-06
4.796529132e-06
4.785811618e-06
4.798628849e-06
4.811048898e-06
4.803525895e-06
4.807552025e-06
4.802457828e-06
4.800402105e-06
4.790157385e-06
4.788672209e-06
4.779571102e-06
4.778161588e-06
4.789313194e-06
4.790309625e-06
4.790670486e-06
4.792632037e-06
4.796450055e-06
4.794429305e-06
4.802782911e-06
4.79110744e-06
4.778571778e-06
4.778134862e-06
4.774725163e-06
4.763629815e-06
4.777229975e-06
4.794428677e-06
4.789105889e-06
4.790824671e-06
4.805120486e-06
4.818299286e-06
4.824990917e-06
4.818852702e-06
4.80433512e-06
4.794622086e-06
4.786328209e-06
4.77963952e-06
4.782754898e-06
4.790404455e-06
4.787893477e-06
4.783473255e-06
4.782127711e-06
4.783851945e-06
4.794760105e-06
4.797596628e-06
4.794835391e-06
4.788022302e-06
4.789271489e-06
4.810632825e-06
4.808467372e-06
4.799847668e-06
4.80476784e-06
4.809468763e-06
4.805347145e-06
4.800598751e-06
4.783232363e-06
4.787188314e-06
4.785261015e-06
4.783778732e-06
4.773318775e-06
4.776986111e-06
4.774720812e-06
4.812163095e-06
4.805283969e-06
4.799624283e-06
4.801803538e-06
4.802606049e-06
4.800655471e-06
4.799232258e-06
4.796822209e-06
4.811101422e-06
4.811109994e-06
4.813712154e-06
4.816285895e-06
4.816447668e-06
4.821803329e-06
4.807869723e-06
4.809943828e-06
4.808180332e-06
4.811361963e-06
4.811542031e-06
4.812521674e-06
4.780319428e-06
4.775978037e-06
4.788530646e-06
4.78808144e-06
4.788297846e-06
4.781909188e-06
4.777493514e-06
4.772751655e-06
4.775900529e-06
4.78865128e-06
4.794332535e-06
4.78996192e-06
4.787695323e-06
4.797090634e-06
4.807346246e-06
4.80609072e-06
4.804141557e-06
4.795693772e-06
4.794632985e-06
4.782910105e-06
4.79424488e-06
4.806759822e-06
4.79385816e-06
4.783635914e-06
4.789722714e-06
4.804361932e-06
4.816330886e-06
4.817396129e-06
4.818180425e-06
4.80957112e-06
4.810445711e-06
4.802137902e-06
4.802374412e-06
4.798327175e-06
4.795896591e-06
4.800745305e-06
4.802030517e-06
4.797301834e-06
4.794312511e-06
4.800145926e-06
4.799583163e-06
4.804781471e-06
4.805277065e-06
4.816534985e-06
4.817960892e-06
4.793309785e-06
4.788933618e-06
4.795046142e-06
4.793394942e-06
4.803724966e-06
4.808146898e-06
4.796378892e-06
4.797819618e-06
4.811550978e-06
4.811418203e-06
4.803860129e-06
4.805719902e-06
4.805183963e-06
4.803846086e-06
4.803937582e-06
4.801310517e-06
4.795766751e-06
4.798328702e-06
4.792478431e-06
4.807103292e-06
4.817715822e-06
4.816085108e-06
4.828594222e-06
4.824836474e-06
4.807213385e-06
4.815471422e-06
4.822919157e-06
4.813885071e-06
4.811065342e-06
4.804350646e-06
4.799550868e-06
4.799304794e-06
4.793478455e-06
4.784402105e-06
4.787203194e-06
4.81962312e-06
4.802799342e-06
4.801045212e-06
4.782623489e-06
4.787404375e-06
4.787556092e-06
4.793311169e-06
4.806480818e-06
4.809290351e-06
4.813324462e-06
4.805795212e-06
4.810725422e-06
4.818705649e-06
4.822804646e-06
4.82615176e-06
4.836003403e-06
4.829481114e-06
4.835165575e-06
4.834960622e-06
4.816601108e-06
4.806311391e-06
4.795733686e-06
4.807834855e-06
4.803851175e-06
4.807666172e-06
4.819939052e-06
4.836850794e-06
4.818520782e-06
4.799515188e-06
4.80231256e-06
4.797906714e-06
4.794085262e-06
4.784399446e-06
4.802388702e-06
4.814423557e-06
4.813864935e-06
4.820202732e-06
4.80489304e-06
4.808151858e-06
4.8090072e-06
4.799870055e-06
4.807715514e-06
4.808406542e-06
4.822366578e-06
4.806752843e-06
4.799705114e-06
4.796514548e-06
4.797162449e-06
4.802099489e-06
4.794797095e-06
4.796924738e-06
4.801155132e-06
4.797543926e-06
4.795092203e-06
4.788918197e-06
4.791170203e-06
4.795234295e-06
4.795378357e-06
4.798561237e-06
4.792769397e-06
4.788787538e-06
4.783180154e-06
4.78561184e-06
4.781617335e-06
4.794405834e-06
4.792481655e-06
4.800475582e-06
4.814572388e-06
4.817243391e-06
4.82196728e-06
4.8291228e-06
4.83852072e-06
4.837993108e-06
4.829124455e-06
4.828112702e-06
4.82389888e-06
4.816949975e-06
4.803088923e-06
4.790758695e-06
4.784749237e-06
4.777017742e-06
4.779966935e-06
4.790800671e-06
4.791120222e-06
4.794994862e-06
4.787392843e-06
4.79082736e-06
4.795857772e-06
4.801208671e-06
4.793127649e-06
4.785817089e-06
4.780755698e-06
4.774375206e-06
4.798880542e-06
4.798054917e-06
4.802506942e-06
4.805291569e-06
4.809487218e-06
4.800061274e-06
4.785816314e-06
4.810150191e-06
4.795322178e-06
4.798779071e-06
4.78284728e-06
4.785506443e-06
4.780380954e-06
4.778608166e-06
4.795134935e-06
4.784527397e-06
4.783081465e-06
4.780056068e-06
4.771518991e-06
4.778399465e-06
4.770753391e-06
4.777512634e-06
4.786233969e-06
4.782960991e-06
4.782763409e-06
4.790181594e-06
4.813974646e-06
4.802989182e-06
4.804596455e-06
4.809484972e-06
4.79612704e-06
4.789701637e-06
4.780434357e-06
4.768261237e-06
4.761501748e-06
4.776335951e-06
4.770069754e-06
4.780141335e-06
4.774535102e-06
4.773386135e-06
4.779043409e-06
4.771601717e-06
4.763672923e-06
4.772043298e-06
4.781537662e-06
4.776288726e-06
4.782015089e-06
4.778911778e-06
4.78542352e-06
4.780530388e-06
4.780362868e-06
4.781720818e-06
4.778670868e-06
4.789765489e-06
4.785869151e-06
4.779720652e-06
4.783547083e-06
4.78116064e-06
4.790316363e-06
4.801325729e-06
4.804224326e-06
4.813216062e-06
4.809152708e-06
4.795809083e-06
4.783557095e-06
4.795863766e-06
4.791511994e-06
4.79484648e-06
4.774983015e-06
4.783622825e-06
4.787109975e-06
4.776220258e-06
4.768658338e-06
4.763746628e-06
4.775563994e-06
4.768421169e-06
4.781532326e-06
4.778567151e-06
4.781873951e-06
4.792779286e-06
4.804363557e-06
4.804610714e-06
4.79292008e-06
4.796198775e-06
4.798284529e-06
4.793658449e-06
4.799682646e-06
4.783557508e-06
4.783868911e-06
4.773521378e-06
4.765865022e-06
4.778749865e-06
4.790052449e-06
4.807017957e-06
4.805281914e-06
4.793322455e-06
4.786412708e-06
4.790493815e-06
4.793655028e-06
4.785669545e-06
4.780175077e-06
4.781860425e-06
4.781702597e-06
4.774592942e-06
4.777099089e-06
4.785771883e-06
4.784640277e-06
4.800237723e-06
4.801679582e-06
4.796960486e-06
4.800217317e-06
4.796895403e-06
4.799005865e-06
4.785670271e-06
4.79127624e-06
4.785885329e-06
4.77868792e-06
4.784442437e-06
4.785667575e-06
4.784284935e-06
4.789943145e-06
4.788810603e-06
4.796938277e-06
4.786220172e-06
4.790888652e-06
4.796678308e-06
4.799336123e-06
4.809840794e-06
4.806527028e-06
4.814246037e-06
4.817677551e-06
4.820102449e-06
4.810187908e-06
4.805516505e-06
4.797585428e-06
4.797411895e-06
4.805233588e-06
4.797966972e-06
4.809220228e-06
4.805507372e-06
4.797523465e-06
4.803305151e-06
4.79830968e-06
4.790777852e-06
4.813994689e-06
4.817931754e-06
4.825368566e-06
4.804660898e-06
4.813482862e-06
4.804005188e-06
4.798528646e-06
4.793503723e-06
4.776160911e-06
4.771237994e-06
4.781080831e-06
4.775615145e-06
4.78728712e-06
4.782397046e-06
4.778966043e-06
4.784673089e-06
4.78823792e-06
4.789710689e-06
4.796539218e-06
4.811908818e-06
4.820995372e-06
4.823310246e-06
4.821638695e-06
4.771894375e-06
4.766630985e-06
4.772025514e-06
4.776981889e-06
4.787724338e-06
4.802271089e-06
4.811377009e-06
4.805434702e-06
4.812434332e-06
4.810289458e-06
4.80196504e-06
4.811061465e-06
4.819929311e-06
4.811128271e-06
4.806983114e-06
4.792024609e-06
4.78246896e-06
4.788439637e-06
4.774657403e-06
4.769309938e-06
4.788965754e-06
4.783159871e-06
4.787891169e-06
4.799488006e-06
4.795703631e-06
4.789995963e-06
4.799021588e-06
4.808504468e-06
4.796731846e-06
4.796343237e-06
4.796794e-06
4.806318209e-06
4.801193772e-06
4.8002472e-06
4.797833077e-06
4.79809096e-06
4.784498418e-06
4.796883163e-06
4.786119735e-06
4.790326443e-06
4.803196289e-06
4.792761249e-06
4.806567963e-06
4.798159686e-06
4.792076209e-06
4.783508135e-06
4.791541945e-06
4.805183698e-06
4.800135957e-06
4.815824646e-06
4.807576271e-06
4.777361378e-06
4.784222597e-06
4.781812283e-06
4.797468843e-06
4.783943538e-06
4.782918215e-06
4.789182505e-06
4.800551206e-06
4.803528111e-06
4.805275372e-06
4.816072148e-06
4.81017432e-06
4.820850929e-06
4.805394843e-06
4.801317889e-06
4.78425264e-06
4.780188535e-06
4.788873649e-06
4.782062006e-06
4.781899612e-06
4.804135003e-06
4.798514935e-06
4.787712935e-06
4.786680843e-06
4.794362234e-06
4.799740942e-06
4.798751329e-06
4.792371772e-06
4.803252782e-06
4.790249483e-06
4.809863114e-06
4.80520896e-06
4.804953526e-06
4.803437255e-06
4.796224615e-06
4.774489797e-06
4.783483668e-06
4.790373852e-06
4.795306523e-06
4.796473575e-06
4.797302074e-06
4.797386474e-06
4.805779557e-06
4.796181674e-06
4.782345969e-06
4.7775832e-06
4.7893868e-06
4.793057206e-06
4.80190736e-06
4.78214768e-06
4.761848745e-06
4.755064332e-06
4.747974055e-06
4.768343169e-06
4.779749606e-06
4.780473305e-06
4.801733175e-06
4.801444e-06
4.803970369e-06
4.80679968e-06
4.796485637e-06
4.801178972e-06
4.810010006e-06
4.807019385e-06
4.818276468e-06
4.815021212e-06
4.800518105e-06
4.797960757e-06
4.79312712e-06
4.813591889e-06
4.828693157e-06
4.811518948e-06
4.801069532e-06
4.797373582e-06
4.792512991e-06
4.799701169e-06
4.799375212e-06
4.793690049e-06
4.786494775e-06
4.779758646e-06
4.772560055e-06
4.775083071e-06
4.790004154e-06
4.787923871e-06
4.809154074e-06
4.80183264e-06
4.808349772e-06
4.806081963e-06
4.805324246e-06
4.808297532e-06
4.794019963e-06
4.795568825e-06
4.797476234e-06
4.782775877e-06
4.773894726e-06
4.770998265e-06
4.775237594e-06
4.785277902e-06
4.802703852e-06
4.799511742e-06
4.804090037e-06
4.800051471e-06
4.79704848e-06
4.795264997e-06
4.786587735e-06
4.791218191e-06
4.806811803e-06
4.814613717e-06
4.814854154e-06
4.774011748e-06
4.772221938e-06
4.7640304e-06
4.772212068e-06
4.775086763e-06
4.790097292e-06
4.79173264e-06
4.784290455e-06
4.769883329e-06
4.767282911e-06
4.783729778e-06
4.786752628e-06
4.789708622e-06
4.812631403e-06
4.813510018e-06
4.803472751e-06
4.788411612e-06
4.77537392e-06
4.7675244e-06
4.7658868e-06
4.767532812e-06
4.775371803e-06
4.774106055e-06
4.773447754e-06
4.786659274e-06
4.779317815e-06
4.773887182e-06
4.775252375e-06
4.779234714e-06
4.780393785e-06
4.784541932e-06
4.778508505e-06
4.779848855e-06
4.767366535e-06
4.772184123e-06
4.768751871e-06
4.764907883e-06
4.763381262e-06
4.772751834e-06
4.778170689e-06
4.797951317e-06
4.789639434e-06
4.786791268e-06
4.784912326e-06
4.801641058e-06
4.797705883e-06
4.796892283e-06
4.792143575e-06
4.791542634e-06
4.786101422e-06
4.782394609e-06
4.779335834e-06
4.775382265e-06
4.773396849e-06
4.769199754e-06
4.780420763e-06
4.792295243e-06
4.785590732e-06
4.798867631e-06
4.782580037e-06
4.795992295e-06
4.796760148e-06
4.783383766e-06
4.784098295e-06
4.769726277e-06
4.774429729e-06
4.784514929e-06
4.773051606e-06
4.768849415e-06
4.769126123e-06
4.774313655e-06
4.78082768e-06
4.791191791e-06
4.795354462e-06
4.805802314e-06
4.799624775e-06
4.803472578e-06
4.797582277e-06
4.794613157e-06
4.787159766e-06
4.790093108e-06
4.796031508e-06
4.795255865e-06
4.809722258e-06
4.804120609e-06
4.798292283e-06
4.783307052e-06
4.785761551e-06
4.794686757e-06
4.788583305e-06
4.774290049e-06
4.780370197e-06
4.779840369e-06
4.769358825e-06
4.779488954e-06
4.787711526e-06
4.793115378e-06
4.801764092e-06
4.789479945e-06
4.789374191e-06
4.804373102e-06
4.798326794e-06
4.788717822e-06
4.804818431e-06
4.803025994e-06
4.800511668e-06
4.793561791e-06
4.794583108e-06
4.800333243e-06
4.798774425e-06
4.808369551e-06
4.806428782e-06
4.799631428e-06
4.795476578e-06
4.790818283e-06
4.802594714e-06
4.808006603e-06
4.797999938e-06
4.805861631e-06
4.809899618e-06
4.792157963e-06
4.799804185e-06
4.807840874e-06
4.780900585e-06
4.785512868e-06
4.789587705e-06
4.784901532e-06
4.800395914e-06
4.79892488e-06
4.789822117e-06
4.780233268e-06
4.782533058e-06
4.799553742e-06
4.80192184e-06
4.814350677e-06
4.815099834e-06
4.806245095e-06
4.800746178e-06
4.793683366e-06
4.782519982e-06
4.795526578e-06
4.788460665e-06
4.788593705e-06
4.777936658e-06
4.775159009e-06
4.774156665e-06
4.770976215e-06
4.773575471e-06
4.780880129e-06
4.765186708e-06
4.794657748e-06
4.792147545e-06
4.7810032e-06
4.794308191e-06
4.790798043e-06
4.796232172e-06
4.802632295e-06
4.795861274e-06
4.786566363e-06
4.792701194e-06
4.805276406e-06
4.808651791e-06
4.803922597e-06
4.810521877e-06
4.811814468e-06
4.809233975e-06
4.813536105e-06
4.825056788e-06
4.819879243e-06
4.819990209e-06
4.800775883e-06
4.791962098e-06
4.773540455e-06
4.780257385e-06
4.786553705e-06
4.797651298e-06
4.796219391e-06
4.793646486e-06
4.800271114e-06
4.813365957e-06
4.768983015e-06
4.770073834e-06
4.771150492e-06
4.778662689e-06
4.783382548e-06
4.781963902e-06
4.774212037e-06
4.765759015e-06
4.763545348e-06
4.782283434e-06
4.785937532e-06
4.779049028e-06
4.776226468e-06
4.782901902e-06
4.786637391e-06
4.781226111e-06
4.77185408e-06
4.75061744e-06
4.768781822e-06
4.770127926e-06
4.770510997e-06
4.779179717e-06
4.774422055e-06
4.778945243e-06
4.790104769e-06
4.80595664e-06
4.798879292e-06
4.809014314e-06
4.803638911e-06
4.795568172e-06
4.783917058e-06
4.797532874e-06
4.799102566e-06
4.78929e-06
4.769067575e-06
4.768399895e-06
4.774952258e-06
4.791758954e-06
4.783117274e-06
4.774498098e-06
4.803482357e-06
4.780972708e-06
4.786394929e-06
4.779509957e-06
4.77830312e-06
4.780369951e-06
4.77598176e-06
4.768865052e-06
4.752994732e-06
4.75997536e-06
4.761092868e-06
4.757162425e-06
4.761171354e-06
4.772776898e-06
4.78186912e-06
4.795633649e-06
4.797852542e-06
4.805632837e-06
4.799613649e-06
4.790422966e-06
4.795487354e-06
4.807004554e-06
4.798808542e-06
4.794500646e-06
4.788984462e-06
4.776603329e-06
4.769179212e-06
4.76854192e-06
4.77748216e-06
4.775900462e-06
4.766485163e-06
4.769260578e-06
4.775106382e-06
4.787119145e-06
4.795095397e-06
4.80047576e-06
4.796390511e-06
4.788937748e-06
4.795544615e-06
4.793055618e-06
4.795536449e-06
4.805885446e-06
4.802566191e-06
4.811147489e-06
4.807393914e-06
4.806227169e-06
4.797984591e-06
4.800212418e-06
4.79911608e-06
4.802976086e-06
4.809503138e-06
4.808584554e-06
4.794217643e-06
4.792745772e-06
4.787820049e-06
4.773566006e-06
4.782960677e-06
4.789112197e-06
4.793558031e-06
4.797768172e-06
4.805719994e-06
4.791969988e-06
4.807949268e-06
4.821218363e-06
4.830195908e-06
4.832174265e-06
4.824167212e-06
4.820138357e-06
4.82225936e-06
4.809819895e-06
4.80657328e-06
4.819466418e-06
4.826901409e-06
4.807030388e-06
4.801713397e-06
4.794606628e-06
4.80443064e-06
4.820014825e-06
4.816317348e-06
4.809272375e-06
4.790135126e-06
4.792494369e-06
4.795541231e-06
4.785977022e-06
4.785842222e-06
4.789442357e-06
4.790717434e-06
4.789641385e-06
4.801536714e-06
4.797863052e-06
4.80784376e-06
4.80886368e-06
4.799954289e-06
4.797219717e-06
4.804431305e-06
4.80374744e-06
4.785000714e-06
4.792305126e-06
4.784924295e-06
4.800543206e-06
4.785076474e-06
4.7844152e-06
4.785514972e-06
4.778876431e-06
4.772968437e-06
4.776748658e-06
4.76523696e-06
4.77102144e-06
4.784584609e-06
4.79506888e-06
4.797601686e-06
4.806064486e-06
4.796138265e-06
4.798673255e-06
4.78919632e-06
4.793338868e-06
4.790313735e-06
4.783118394e-06
4.787260757e-06
4.782318277e-06
4.788256271e-06
4.789444597e-06
4.787609514e-06
4.805536037e-06
4.798858683e-06
4.778320062e-06
4.7949184e-06
4.793953594e-06
4.791380603e-06
4.782756923e-06
4.773742025e-06
4.780334043e-06
4.793879077e-06
4.786376505e-06
4.787358609e-06
4.77877856e-06
4.794218535e-06
4.797690855e-06
4.794999071e-06
4.789125655e-06
4.800065883e-06
4.793718277e-06
4.800867329e-06
4.790359058e-06
4.802249723e-06
4.804869803e-06
4.794041145e-06
4.792336012e-06
4.80237704e-06
4.796403206e-06
4.786237649e-06
4.775325858e-06
4.775938954e-06
4.766922345e-06
4.788798942e-06
4.793249735e-06
4.798517662e-06
4.794981625e-06
4.802401028e-06
4.801824597e-06
4.778851532e-06
4.781216572e-06
4.788519212e-06
4.778898628e-06
4.794176812e-06
4.793534246e-06
4.799831028e-06
4.808432634e-06
4.80756016e-06
4.815976517e-06
4.824588369e-06
4.815760769e-06
4.8105152e-06
4.806930818e-06
4.812149003e-06
4.806315569e-06
4.799825625e-06
4.787070837e-06
4.783136468e-06
4.788131231e-06
4.788294886e-06
4.784319366e-06
4.789324745e-06
4.795234954e-06
4.798547606e-06
4.795889268e-06
4.803790431e-06
4.804726197e-06
4.810564622e-06
4.808094498e-06
4.811931754e-06
4.794326098e-06
4.790335809e-06
4.790726849e-06
4.784830123e-06
4.775005668e-06
4.777013674e-06
4.767132185e-06
4.770780597e-06
4.777184726e-06
4.793104289e-06
4.790005385e-06
4.794672222e-06
4.790661058e-06
4.788551766e-06
4.784801292e-06
4.79544096e-06
4.801497058e-06
4.786693015e-06
4.790306258e-06
4.780872332e-06
4.788206954e-06
4.781703705e-06
4.793691169e-06
4.792641385e-06
4.784683268e-06
4.799355569e-06
4.791856775e-06
4.785714406e-06
4.786938905e-06
4.78052712e-06
4.788570345e-06
4.79154288e-06
4.793990086e-06
4.789216474e-06
4.800512554e-06
4.790811643e-06
4.776017323e-06
4.781310332e-06
4.768775409e-06
4.773057022e-06
4.779007612e-06
4.775069138e-06
4.775220215e-06
4.763128505e-06
4.775512954e-06
4.782386726e-06
4.782973292e-06
4.792223206e-06
4.789075465e-06
4.794433286e-06
4.797204542e-06
4.791298123e-06
4.794655255e-06
4.801428314e-06
4.776721342e-06
4.779232745e-06
4.777268498e-06
4.775150548e-06
4.775738806e-06
4.788619409e-06
4.782819077e-06
4.791354086e-06
4.792935538e-06
4.783932831e-06
4.771238062e-06
4.756785255e-06
4.76139984e-06
4.764510757e-06
4.779796498e-06
4.7825724e-06
4.784244246e-06
4.780671495e-06
4.775432695e-06
4.773063729e-06
4.77407376e-06
4.771157292e-06
4.764952406e-06
4.771301902e-06
4.77030128e-06
4.771518843e-06
4.77404848e-06
4.787572505e-06
4.788166972e-06
4.79284912e-06
4.789565692e-06
4.802828794e-06
4.796585434e-06
4.79432104e-06
4.785178437e-06
4.785976991e-06
4.783960148e-06
4.782565465e-06
4.788667342e-06
4.787341292e-06
4.783989975e-06
4.780122037e-06
4.776463834e-06
4.780538062e-06
4.778523748e-06
4.775308345e-06