/*--------------------------------*- C++ -*----------------------------------*\
| =========                 |                                                 |
| \\      /  F ield         | OpenFOAM: The Open Source CFD Toolbox           |
|  \\    /   O peration     | Version:  v1706                                 |
|   \\  /    A nd           | Web:      www.OpenFOAM.com                      |
|    \\/     M anipulation  |                                                 |
\*---------------------------------------------------------------------------*/
FoamFile
{
    version     2.0;
    format      ascii;
    class       volScalarField;
    location    "0.02";
    object      rhoN_mixture;
}
// * * * * * * * * * * * * * * * * * * * * * * * * * * * * * * * * * * * * * //

dimensions      [0 -3 0 0 0 0 0];


internalField   nonuniform List<scalar> 
5120
(
1.00556e+20
1.004415385e+20
1.004809231e+20
1.006153846e+20
1.007129231e+20
1.008083077e+20
1.005516923e+20
1.003655385e+20
1.001326154e+20
9.994738462e+19
9.984553846e+19
9.987076923e+19
9.9992e+19
1.000378462e+20
1.001544615e+20
1.001243077e+20
9.9916e+19
1.002486154e+20
1.003184615e+20
1.004135385e+20
9.994e+19
9.993661538e+19
1.002092308e+20
1.002633846e+20
1.000018462e+20
9.977446154e+19
9.999723077e+19
9.9908e+19
1.001384615e+20
9.991076923e+19
1.003335385e+20
1.002630769e+20
1.000030769e+20
1.000843077e+20
9.998738462e+19
1.002221538e+20
1.000086154e+20
1.002092308e+20
9.996523077e+19
1.000978462e+20
9.986738462e+19
9.989292308e+19
9.979169231e+19
9.990184615e+19
1.002901538e+20
1.002433846e+20
1.000455385e+20
1.001655385e+20
1.002076923e+20
1.001889231e+20
1.000830769e+20
1.002476923e+20
1.003556923e+20
1.003569231e+20
1.005864615e+20
1.00328e+20
1.003452308e+20
1.000535385e+20
1.001083077e+20
9.999323077e+19
9.989046154e+19
9.999230769e+19
1.00136e+20
1.002350769e+20
1.002212308e+20
1.002135385e+20
1.001978462e+20
1.000683077e+20
1.000710769e+20
9.988461538e+19
1.001744615e+20
1.000852308e+20
9.999261538e+19
9.965261538e+19
9.958369231e+19
9.957046154e+19
9.961353846e+19
1.000092308e+20
1.000129231e+20
9.986584615e+19
9.986123077e+19
9.978676923e+19
1.000009231e+20
9.983476923e+19
9.981569231e+19
9.968246154e+19
9.965446154e+19
9.965476923e+19
9.9604e+19
9.957476923e+19
9.966246154e+19
1.000975385e+20
9.992646154e+19
1.000363077e+20
1.000630769e+20
9.985938462e+19
9.9808e+19
9.982215385e+19
9.981692308e+19
9.988861538e+19
9.972153846e+19
9.986553846e+19
9.987046154e+19
9.951015385e+19
9.991261538e+19
9.986123077e+19
9.952184615e+19
9.949169231e+19
9.948676923e+19
9.976461538e+19
9.982369231e+19
9.996953846e+19
9.990153846e+19
1.0018e+20
9.985046154e+19
9.991569231e+19
9.988184615e+19
9.986553846e+19
9.965261538e+19
9.976523077e+19
9.941015385e+19
9.9356e+19
9.951076923e+19
9.992923077e+19
9.977538462e+19
9.980892308e+19
9.980923077e+19
9.981507692e+19
9.974553846e+19
9.963353846e+19
9.942061538e+19
9.9852e+19
9.987415385e+19
9.990553846e+19
9.982215385e+19
9.984953846e+19
9.976646154e+19
9.974738462e+19
9.969107692e+19
9.930646154e+19
9.962276923e+19
9.960676923e+19
9.937076923e+19
9.931723077e+19
9.936738462e+19
9.938984615e+19
9.943169231e+19
9.943538462e+19
9.939446154e+19
9.949753846e+19
9.943046154e+19
9.9156e+19
9.930584615e+19
9.975969231e+19
9.985507692e+19
9.992369231e+19
9.993569231e+19
9.997446154e+19
9.976584615e+19
9.988338462e+19
9.992953846e+19
9.973384615e+19
9.984523077e+19
9.969723077e+19
9.969661538e+19
9.992092308e+19
9.984092308e+19
9.963661538e+19
9.985415385e+19
9.975323077e+19
9.991107692e+19
1.000049231e+20
1.00004e+20
9.996030769e+19
9.998738462e+19
9.992769231e+19
1.002769231e+20
1.001584615e+20
1.000206154e+20
1.001501538e+20
9.984492308e+19
1.000276923e+20
9.997353846e+19
9.9644e+19
9.976523077e+19
9.965907692e+19
9.990030769e+19
1.000289231e+20
9.999353846e+19
9.949630769e+19
9.929076923e+19
9.946615385e+19
9.968338462e+19
9.983630769e+19
9.995015385e+19
9.966061538e+19
9.952523077e+19
9.949292308e+19
9.978984615e+19
9.989046154e+19
1.002716923e+20
1.00436e+20
1.003227692e+20
1.003523077e+20
1.000513846e+20
9.990215385e+19
9.964953846e+19
9.971753846e+19
9.964923077e+19
9.974492308e+19
1.000507692e+20
1.003289231e+20
1.001649231e+20
1.001156923e+20
9.987107692e+19
9.990892308e+19
1.001873846e+20
1.000818462e+20
1.000344615e+20
1.000018462e+20
9.963630769e+19
9.941230769e+19
9.974e+19
9.976153846e+19
9.994246154e+19
1.001116923e+20
1.002824615e+20
1.000169231e+20
9.996061538e+19
9.983107692e+19
9.991015385e+19
9.988584615e+19
9.980646154e+19
9.998769231e+19
1.00084e+20
9.990923077e+19
9.988461538e+19
9.981015385e+19
9.962830769e+19
9.960153846e+19
1.001513846e+20
1.001221538e+20
1.00152e+20
9.995907692e+19
9.9808e+19
9.975815385e+19
9.974276923e+19
9.954430769e+19
9.965630769e+19
9.970430769e+19
9.972923077e+19
9.995076923e+19
9.988246154e+19
9.997969231e+19
1.001378462e+20
9.997076923e+19
1.001003077e+20
1.000135385e+20
1.003070769e+20
1.003270769e+20
1.003436923e+20
1.00116e+20
1.001049231e+20
1.002144615e+20
1.001267692e+20
9.992461538e+19
9.990461538e+19
1.000926154e+20
1.000378462e+20
1.001824615e+20
1.004535385e+20
1.004156923e+20
1.006996923e+20
1.005726154e+20
1.005286154e+20
1.003735385e+20
1.001369231e+20
1.001378462e+20
1.000941538e+20
9.977015385e+19
9.980553846e+19
9.963753846e+19
9.9448e+19
9.952830769e+19
9.9628e+19
9.953138462e+19
9.950553846e+19
9.956769231e+19
1.000609231e+20
1.000966154e+20
1.004483077e+20
1.001326154e+20
1.002258462e+20
1.000547692e+20
9.988738462e+19
9.931353846e+19
9.957846154e+19
9.996092308e+19
1.001858462e+20
1.00204e+20
1.001138462e+20
1.0026e+20
1.000615385e+20
1.000092308e+20
9.980861538e+19
9.995476923e+19
1.001793846e+20
1.003646154e+20
1.0038e+20
1.002452308e+20
9.972584615e+19
9.985907692e+19
9.981723077e+19
9.981538462e+19
9.978707692e+19
1.000852308e+20
1.00172e+20
1.00212e+20
1.00096e+20
1.000393846e+20
9.993076923e+19
1.001073846e+20
9.995169231e+19
1.000184615e+20
1.003030769e+20
1.004126154e+20
1.001510769e+20
1.000030769e+20
1.001021538e+20
1.004467692e+20
1.005707692e+20
1.001578462e+20
9.982030769e+19
9.978830769e+19
1.000630769e+20
1.000187692e+20
9.988092308e+19
9.993230769e+19
9.9776e+19
9.967169231e+19
1.003686154e+20
1.003575385e+20
1.004267692e+20
1.002843077e+20
1.001113846e+20
1.003387692e+20
9.998584615e+19
1.00196e+20
9.993538462e+19
9.995723077e+19
9.9904e+19
1.000938462e+20
1.003710769e+20
1.003135385e+20
1.000778462e+20
1.001464615e+20
1.001224615e+20
9.999723077e+19
1.000824615e+20
1.001273846e+20
1.001150769e+20
1.002778462e+20
1.000784615e+20
1.001095385e+20
1.000095385e+20
9.986246154e+19
1.0004e+20
1.000535385e+20
1.000873846e+20
1.000403077e+20
9.997384615e+19
9.995076923e+19
1.001076923e+20
9.994307692e+19
1.000553846e+20
1.001670769e+20
1.003858462e+20
1.003547692e+20
1.001803077e+20
1.002510769e+20
9.961907692e+19
9.968923077e+19
9.976061538e+19
9.971907692e+19
9.959261538e+19
1.000710769e+20
1.00068e+20
1.00096e+20
9.987292308e+19
9.993784615e+19
9.972215385e+19
9.947784615e+19
9.967261538e+19
9.978246154e+19
9.966492308e+19
9.972615385e+19
9.990492308e+19
9.952276923e+19
9.955046154e+19
9.955630769e+19
1.002553846e+20
1.002230769e+20
1.001070769e+20
1.000246154e+20
1.000396923e+20
1.004055385e+20
1.004596923e+20
1.006649231e+20
1.003781538e+20
1.002406154e+20
1.000178462e+20
1.00092e+20
9.999292308e+19
9.987815385e+19
9.952215385e+19
9.962553846e+19
9.944646154e+19
9.945569231e+19
9.975446154e+19
1.000806154e+20
1.000129231e+20
1.000193846e+20
9.993630769e+19
1.000138462e+20
1.000298462e+20
1.000889231e+20
1.002495385e+20
1.004243077e+20
1.003729231e+20
1.001747692e+20
1.003510769e+20
9.994123077e+19
9.997076923e+19
1.002027692e+20
1.000538462e+20
9.993938462e+19
1.001304615e+20
9.992953846e+19
1.00088e+20
1.000716923e+20
1.001452308e+20
1.000449231e+20
1.003778462e+20
1.002532308e+20
1.002692308e+20
1.003409231e+20
1.003316923e+20
1.00276e+20
1.003947692e+20
1.003144615e+20
1.003403077e+20
1.001230769e+20
1.000027692e+20
9.993507692e+19
9.999261538e+19
1.000326154e+20
9.988430769e+19
9.988215385e+19
1.000572308e+20
1.000664615e+20
1.005255385e+20
1.004676923e+20
1.005655385e+20
1.005409231e+20
1.00416e+20
1.003510769e+20
1.003067692e+20
1.000003077e+20
9.983446154e+19
9.997938462e+19
1.001215385e+20
9.994769231e+19
1.001267692e+20
1.000504615e+20
1.000729231e+20
1.002058462e+20
1.000224615e+20
1.000369231e+20
9.997476923e+19
1.003744615e+20
1.000723077e+20
1.001652308e+20
1.000769231e+20
1.000984615e+20
9.980215385e+19
9.978707692e+19
9.988953846e+19
9.997015385e+19
9.966615385e+19
9.986092308e+19
9.974123077e+19
9.988953846e+19
1.000526154e+20
1.000313846e+20
1.003467692e+20
1.004184615e+20
1.004313846e+20
1.004501538e+20
1.004424615e+20
1.002166154e+20
9.93e+19
9.936369231e+19
9.940369231e+19
9.945476923e+19
9.974492308e+19
9.9812e+19
9.984892308e+19
9.9876e+19
9.991446154e+19
9.978061538e+19
9.998246154e+19
9.992523077e+19
9.982307692e+19
9.952061538e+19
9.922061538e+19
9.928123077e+19
9.948769231e+19
9.953692308e+19
9.966584615e+19
9.954892308e+19
9.993138462e+19
9.988153846e+19
1.000541538e+20
1.002603077e+20
1.001661538e+20
1.001375385e+20
9.989784615e+19
1.001341538e+20
1.000378462e+20
9.992861538e+19
9.948646154e+19
9.915230769e+19
9.936061538e+19
9.954369231e+19
9.976923077e+19
9.975076923e+19
9.974707692e+19
9.986092308e+19
9.989630769e+19
1.000064615e+20
1.001523077e+20
9.999015385e+19
1.002252308e+20
1.001809231e+20
1.000181538e+20
1.001627692e+20
1.003283077e+20
1.003766154e+20
1.001338462e+20
1.001301538e+20
1.000495385e+20
1.002553846e+20
9.993753846e+19
9.975538462e+19
9.976738462e+19
9.986584615e+19
9.997507692e+19
1.000089231e+20
1.001323077e+20
1.000427692e+20
1.001716923e+20
1.002316923e+20
1.004470769e+20
1.003689231e+20
1.003052308e+20
1.001895385e+20
9.994707692e+19
1.001692308e+20
1.003076923e+20
1.005144615e+20
1.002156923e+20
1.002741538e+20
1.00152e+20
1.001356923e+20
1.001184615e+20
9.989230769e+19
9.982492308e+19
9.994953846e+19
9.989969231e+19
9.996769231e+19
9.971323077e+19
9.995907692e+19
9.989661538e+19
9.996e+19
1.001221538e+20
9.999323077e+19
1.000003077e+20
1.000113846e+20
9.987815385e+19
1.000683077e+20
1.001381538e+20
1.0016e+20
9.995938462e+19
9.995476923e+19
1.000449231e+20
9.994430769e+19
1.00104e+20
9.998184615e+19
9.977138462e+19
1.00036e+20
1.00048e+20
1.001655385e+20
1.004052308e+20
1.00324e+20
1.004464615e+20
1.005033846e+20
1.003815385e+20
1.002993846e+20
1.000341538e+20
9.984492308e+19
9.979630769e+19
1.000849231e+20
1.003910769e+20
9.996461538e+19
9.978707692e+19
1.001138462e+20
9.998769231e+19
1.002270769e+20
1.001095385e+20
9.985538462e+19
1.005024615e+20
1.002843077e+20
1.001489231e+20
1.000815385e+20
1.001021538e+20
1.000735385e+20
9.997907692e+19
1.003932308e+20
1.002655385e+20
1.000144615e+20
1.000827692e+20
1.001209231e+20
1.00024e+20
1.0026e+20
1.002987692e+20
1.000427692e+20
1.001461538e+20
1.001196923e+20
1.004433846e+20
1.006252308e+20
9.99e+19
9.987384615e+19
1.000156923e+20
9.977784615e+19
9.999446154e+19
1.002566154e+20
1.003941538e+20
1.002076923e+20
1.000421538e+20
1.001378462e+20
1.001913846e+20
1.00116e+20
1.003830769e+20
1.003981538e+20
1.002344615e+20
9.982923077e+19
9.971353846e+19
9.986615385e+19
9.987446154e+19
9.989046154e+19
9.973507692e+19
9.972953846e+19
9.960492308e+19
9.967015385e+19
9.962338462e+19
9.944061538e+19
9.951661538e+19
9.940092308e+19
9.9484e+19
9.969046154e+19
9.992492308e+19
1.00136e+20
9.996523077e+19
1.000076923e+20
1.000233846e+20
1.000184615e+20
9.991692308e+19
1.00176e+20
9.997446154e+19
1.000421538e+20
1.000030769e+20
1.000698462e+20
1.001676923e+20
1.004141538e+20
1.003138462e+20
1.001150769e+20
1.001255385e+20
9.968769231e+19
9.952615385e+19
9.944030769e+19
9.933230769e+19
9.936953846e+19
9.936276923e+19
9.9672e+19
9.933476923e+19
9.966184615e+19
9.986984615e+19
9.991261538e+19
1.000643077e+20
1.000181538e+20
9.958123077e+19
9.972707692e+19
9.969076923e+19
9.966830769e+19
9.9908e+19
9.9992e+19
9.987261538e+19
9.987353846e+19
9.981876923e+19
9.984676923e+19
1.000630769e+20
9.982492308e+19
9.951661538e+19
9.994030769e+19
1.000492308e+20
9.990553846e+19
9.982769231e+19
9.9884e+19
9.975630769e+19
9.970030769e+19
9.984153846e+19
9.9988e+19
9.987938462e+19
9.985169231e+19
9.983969231e+19
9.994923077e+19
9.976092308e+19
9.977815385e+19
1.001169231e+20
1.005024615e+20
1.005095385e+20
1.00304e+20
1.001230769e+20
1.000950769e+20
9.979969231e+19
9.969292308e+19
9.979784615e+19
9.975138462e+19
9.977753846e+19
1.000064615e+20
9.978215385e+19
1.000424615e+20
1.002901538e+20
1.001206154e+20
1.002043077e+20
1.001033846e+20
1.000495385e+20
9.983938462e+19
9.981230769e+19
9.963323077e+19
9.9608e+19
9.984646154e+19
9.986153846e+19
9.987630769e+19
9.991446154e+19
9.9996e+19
9.994430769e+19
1.001236923e+20
9.987015385e+19
9.962553846e+19
9.960646154e+19
9.953076923e+19
9.931292308e+19
9.960338462e+19
9.996584615e+19
9.983661538e+19
9.985969231e+19
1.001695385e+20
1.004363077e+20
1.005784615e+20
1.004578462e+20
1.001750769e+20
9.996523077e+19
9.977723077e+19
9.9628e+19
9.971015385e+19
9.986861538e+19
9.983384615e+19
9.973138462e+19
9.968584615e+19
9.971753846e+19
9.996215385e+19
1.000073846e+20
9.994892308e+19
9.979876923e+19
9.982769231e+19
1.002867692e+20
1.002218462e+20
1.000470769e+20
1.001424615e+20
1.002424615e+20
1.001603077e+20
1.000436923e+20
9.968984615e+19
9.979323077e+19
9.974e+19
9.970553846e+19
9.947415385e+19
9.9556e+19
9.951630769e+19
1.002901538e+20
1.001473846e+20
1.000258462e+20
1.000624615e+20
1.000876923e+20
1.000544615e+20
1.0002e+20
9.996676923e+19
1.002492308e+20
1.002646154e+20
1.003218462e+20
1.003796923e+20
1.003723077e+20
1.004778462e+20
1.001784615e+20
1.002326154e+20
1.002101538e+20
1.002735385e+20
1.002913846e+20
1.003033846e+20
9.961261538e+19
9.951907692e+19
9.979323077e+19
9.978646154e+19
9.978953846e+19
9.966953846e+19
9.958276923e+19
9.948153846e+19
9.955661538e+19
9.982153846e+19
9.993784615e+19
9.985261538e+19
9.981753846e+19
1.000021538e+20
1.00204e+20
1.001609231e+20
1.001110769e+20
9.995415385e+19
9.991876923e+19
9.967446154e+19
9.995015385e+19
1.002307692e+20
9.9952e+19
9.972953846e+19
9.984707692e+19
1.001516923e+20
1.003935385e+20
1.004058462e+20
1.004190769e+20
1.002329231e+20
1.002630769e+20
1.000898462e+20
1.00104e+20
1.000156923e+20
9.997415385e+19
1.000812308e+20
1.001061538e+20
9.999815385e+19
9.994e+19
1.000652308e+20
1.000489231e+20
1.00164e+20
1.001806154e+20
1.004215385e+20
1.004473846e+20
9.994923077e+19
9.985476923e+19
9.998030769e+19
9.994676923e+19
1.001553846e+20
1.002430769e+20
1.000095385e+20
1.000261538e+20
1.003218462e+20
1.003067692e+20
1.001344615e+20
1.001603077e+20
1.001461538e+20
1.001230769e+20
1.001347692e+20
1.000873846e+20
9.999015385e+19
1.000252308e+20
9.990923077e+19
1.002132308e+20
1.004433846e+20
1.003978462e+20
1.006547692e+20
1.00568e+20
1.002138462e+20
1.003815385e+20
1.005516923e+20
1.003713846e+20
1.002910769e+20
1.001575385e+20
1.000507692e+20
1.000532308e+20
9.994676923e+19
9.975692308e+19
9.980984615e+19
1.00448e+20
1.000990769e+20
1.000587692e+20
9.967815385e+19
9.979415385e+19
9.980030769e+19
9.991969231e+19
1.001929231e+20
1.002476923e+20
1.003430769e+20
1.001981538e+20
1.002926154e+20
1.004553846e+20
1.005489231e+20
1.006153846e+20
1.008258462e+20
1.006981538e+20
1.007963077e+20
1.007756923e+20
1.003892308e+20
1.002033846e+20
9.997446154e+19
1.002406154e+20
1.001421538e+20
1.002175385e+20
1.004747692e+20
1.008387692e+20
1.004584615e+20
1.000569231e+20
1.001375385e+20
1.000230769e+20
9.994553846e+19
9.974030769e+19
1.001169231e+20
1.00376e+20
1.003473846e+20
1.004932308e+20
1.001738462e+20
1.002486154e+20
1.002603077e+20
1.000596923e+20
1.002458462e+20
1.002363077e+20
1.005353846e+20
1.002126154e+20
1.0006e+20
9.999169231e+19
1.000181538e+20
1.001298462e+20
9.997692308e+19
1.000092308e+20
1.001092308e+20
1.000344615e+20
9.997538462e+19
9.983476923e+19
9.989323077e+19
9.997230769e+19
9.998153846e+19
1.0004e+20
9.992e+19
9.983292308e+19
9.972e+19
9.975569231e+19
9.965323077e+19
9.992492308e+19
9.987846154e+19
1.000504615e+20
1.003513846e+20
1.004187692e+20
1.005095385e+20
1.006738462e+20
1.008747692e+20
1.008744615e+20
1.006969231e+20
1.006624615e+20
1.005769231e+20
1.004181538e+20
1.001393846e+20
9.989292308e+19
9.974953846e+19
9.960092308e+19
9.965015385e+19
9.986246154e+19
9.986092308e+19
9.995261538e+19
9.979846154e+19
9.988923077e+19
9.998615385e+19
1.000873846e+20
9.991846154e+19
9.977815385e+19
9.966584615e+19
9.953323077e+19
1.000369231e+20
1.0002e+20
1.001175385e+20
1.001821538e+20
1.002941538e+20
1.000963077e+20
9.979876923e+19
1.002747692e+20
9.997415385e+19
1.00052e+20
9.972738462e+19
9.977169231e+19
9.966615385e+19
9.961107692e+19
9.993692308e+19
9.972523077e+19
9.970153846e+19
9.964707692e+19
9.946676923e+19
9.960523077e+19
9.944307692e+19
9.958769231e+19
9.977384615e+19
9.969969231e+19
9.969969231e+19
9.986338462e+19
1.003710769e+20
1.001270769e+20
1.001661538e+20
1.002673846e+20
9.998861538e+19
9.985538462e+19
9.966892308e+19
9.941138462e+19
9.926523077e+19
9.957907692e+19
9.946061538e+19
9.967076923e+19
9.955230769e+19
9.951323077e+19
9.961969231e+19
9.946184615e+19
9.928953846e+19
9.948461538e+19
9.967723077e+19
9.9564e+19
9.968215385e+19
9.963723077e+19
9.977538462e+19
9.967076923e+19
9.966769231e+19
9.968892308e+19
9.960830769e+19
9.984707692e+19
9.974707692e+19
9.962584615e+19
9.969630769e+19
9.963784615e+19
9.984e+19
1.000806154e+20
1.001446154e+20
1.003403077e+20
1.002658462e+20
9.998738462e+19
9.974615385e+19
9.999815385e+19
9.990338462e+19
9.994184615e+19
9.952553846e+19
9.971138462e+19
9.978738462e+19
9.956892308e+19
9.941076923e+19
9.930461538e+19
9.955384615e+19
9.940523077e+19
9.965661538e+19
9.959661538e+19
9.967846154e+19
9.991815385e+19
1.001618462e+20
1.001661538e+20
9.991969231e+19
9.999138462e+19
1.000292308e+20
9.991323077e+19
1.000341538e+20
9.9736e+19
9.973446154e+19
9.950553846e+19
9.934276923e+19
9.960553846e+19
9.984553846e+19
1.002018462e+20
1.0016e+20
9.991384615e+19
9.978338462e+19
9.987969231e+19
9.994276923e+19
9.977261538e+19
9.966523077e+19
9.972123077e+19
9.971507692e+19
9.954461538e+19
9.958738462e+19
9.977569231e+19
9.9756e+19
1.000406154e+20
1.000643077e+20
9.999076923e+19
1.000658462e+20
9.999138462e+19
1.000181538e+20
9.975169231e+19
9.988123077e+19
9.975907692e+19
9.960030769e+19
9.972892308e+19
9.976030769e+19
9.973753846e+19
9.984984615e+19
9.982430769e+19
9.9992e+19
9.9764e+19
9.986492308e+19
9.9984e+19
1.000326154e+20
1.002633846e+20
1.001889231e+20
1.003486154e+20
1.004206154e+20
1.004775385e+20
1.002686154e+20
1.001621538e+20
9.998830769e+19
9.998584615e+19
1.001507692e+20
9.999230769e+19
1.002295385e+20
1.00156e+20
9.999569231e+19
1.001286154e+20
1.000209231e+20
9.987261538e+19
1.003563077e+20
1.004307692e+20
1.005963077e+20
1.001615385e+20
1.003655385e+20
1.001753846e+20
1.0004e+20
9.992646154e+19
9.955446154e+19
9.946738462e+19
9.968646154e+19
9.9568e+19
9.979969231e+19
9.9676e+19
9.959446154e+19
9.970646154e+19
9.979692308e+19
9.984830769e+19
1.000058462e+20
1.003304615e+20
1.005076923e+20
1.005516923e+20
1.005055385e+20
9.947046154e+19
9.9356e+19
9.944984615e+19
9.955507692e+19
9.978246154e+19
1.000947692e+20
1.002784615e+20
1.001473846e+20
1.003049231e+20
1.002667692e+20
1.001043077e+20
1.002923077e+20
1.004775385e+20
1.003024615e+20
1.002132308e+20
9.989907692e+19
9.969261538e+19
9.982276923e+19
9.952738462e+19
9.942215385e+19
9.982646154e+19
9.969507692e+19
9.978123077e+19
1.000270769e+20
9.993938462e+19
9.981076923e+19
1.000018462e+20
1.001990769e+20
9.996215385e+19
9.996492308e+19
9.999415385e+19
1.001950769e+20
1.000833846e+20
1.000489231e+20
9.999569231e+19
1.000033846e+20
9.973507692e+19
1.00004e+20
9.978553846e+19
9.987753846e+19
1.001356923e+20
9.992e+19
1.001901538e+20
1.000255385e+20
9.987784615e+19
9.969476923e+19
9.987415385e+19
1.001572308e+20
1.000538462e+20
1.003867692e+20
1.002030769e+20
9.957169231e+19
9.972984615e+19
9.968769231e+19
1.000107692e+20
9.972984615e+19
9.969969231e+19
9.983169231e+19
1.000775385e+20
1.001344615e+20
1.001827692e+20
1.003932308e+20
1.002855385e+20
1.005215385e+20
1.001910769e+20
1.00108e+20
9.973938462e+19
9.963476923e+19
9.982369231e+19
9.966984615e+19
9.966061538e+19
1.001083077e+20
1.000052308e+20
9.980030769e+19
9.977876923e+19
9.994523077e+19
1.000547692e+20
1.000313846e+20
9.990461538e+19
1.001323077e+20
9.988030769e+19
1.002883077e+20
1.001750769e+20
1.001572308e+20
1.001267692e+20
9.998738462e+19
9.954923077e+19
9.974553846e+19
9.986830769e+19
9.997815385e+19
1.000156923e+20
1.000378462e+20
1.000433846e+20
1.002021538e+20
9.999907692e+19
9.971323077e+19
9.960861538e+19
9.986092308e+19
9.994923077e+19
1.001384615e+20
9.972153846e+19
9.928246154e+19
9.915876923e+19
9.902030769e+19
9.943969231e+19
9.966676923e+19
9.967046154e+19
1.001064615e+20
1.000941538e+20
1.00136e+20
1.001870769e+20
9.998923077e+19
1.0008e+20
1.002643077e+20
1.002107692e+20
1.004464615e+20
1.003812308e+20
1.000870769e+20
1.000298462e+20
9.994061538e+19
1.003467692e+20
1.006747692e+20
1.003126154e+20
1.001089231e+20
1.000264615e+20
9.992153846e+19
1.000735385e+20
1.000732308e+20
9.994523077e+19
9.978707692e+19
9.963415385e+19
9.9468e+19
9.952707692e+19
9.984923077e+19
9.980738462e+19
1.002489231e+20
1.001043077e+20
1.002252308e+20
1.001698462e+20
1.001572308e+20
1.002424615e+20
9.995753846e+19
9.9988e+19
1.000187692e+20
9.970123077e+19
9.950923077e+19
9.944584615e+19
9.955076923e+19
9.974369231e+19
1.001006154e+20
1.000353846e+20
1.001455385e+20
1.000732308e+20
1.000187692e+20
9.997323077e+19
9.978246154e+19
9.986215385e+19
1.001864615e+20
1.003550769e+20
1.003683077e+20
9.952769231e+19
9.949353846e+19
9.930861538e+19
9.948276923e+19
9.955015385e+19
9.985846154e+19
9.989476923e+19
9.973384615e+19
9.944123077e+19
9.938215385e+19
9.971784615e+19
9.978184615e+19
9.983538462e+19
1.003144615e+20
1.003443077e+20
1.001449231e+20
9.982584615e+19
9.954984615e+19
9.938923077e+19
9.936430769e+19
9.937815385e+19
9.953661538e+19
9.951876923e+19
9.950369231e+19
9.9784e+19
9.964153846e+19
9.953846154e+19
9.956676923e+19
9.963138462e+19
9.965723077e+19
9.973969231e+19
9.9612e+19
9.9676e+19
9.940830769e+19
9.949907692e+19
9.942246154e+19
9.933138462e+19
9.931261538e+19
9.949538462e+19
9.960123077e+19
9.999630769e+19
9.982307692e+19
9.9756e+19
9.972492308e+19
1.000781538e+20
1.000027692e+20
9.998461538e+19
9.987876923e+19
9.987846154e+19
9.977292308e+19
9.971169231e+19
9.965230769e+19
9.955107692e+19
9.949107692e+19
9.938276923e+19
9.962215385e+19
9.988461538e+19
9.975107692e+19
1.000326154e+20
9.969938462e+19
9.996123077e+19
9.997353846e+19
9.970676923e+19
9.972953846e+19
9.941446154e+19
9.951753846e+19
9.972369231e+19
9.949753846e+19
9.940830769e+19
9.941907692e+19
9.953046154e+19
9.967015385e+19
9.987538462e+19
9.994676923e+19
1.001661538e+20
1.000289231e+20
1.000929231e+20
9.996861538e+19
9.992215385e+19
9.978030769e+19
9.983230769e+19
9.995169231e+19
9.996707692e+19
1.002609231e+20
1.001329231e+20
1.000267692e+20
9.971107692e+19
9.977476923e+19
9.997476923e+19
9.982953846e+19
9.953569231e+19
9.964984615e+19
9.963569231e+19
9.942215385e+19
9.961630769e+19
9.977876923e+19
9.991815385e+19
1.00096e+20
9.9832e+19
9.982030769e+19
1.001578462e+20
1.000387692e+20
9.984276923e+19
1.001658462e+20
1.00128e+20
1.000723077e+20
9.993292308e+19
9.995076923e+19
1.00052e+20
1.000356923e+20
1.002215385e+20
1.001732308e+20
1.000323077e+20
9.994615385e+19
9.984523077e+19
1.000932308e+20
1.002064615e+20
1.000073846e+20
1.001676923e+20
1.002618462e+20
9.989230769e+19
1.000553846e+20
1.002018462e+20
9.965476923e+19
9.976092308e+19
9.983076923e+19
9.973384615e+19
1.000363077e+20
1.000212308e+20
9.981907692e+19
9.962153846e+19
9.968584615e+19
1.00056e+20
1.000889231e+20
1.003406154e+20
1.003633846e+20
1.001836923e+20
1.000612308e+20
9.992892308e+19
9.969323077e+19
9.996584615e+19
9.981415385e+19
9.981815385e+19
9.958984615e+19
9.954338462e+19
9.952953846e+19
9.947353846e+19
9.951261538e+19
9.967969231e+19
9.935538462e+19
9.997169231e+19
9.991630769e+19
9.967230769e+19
9.993846154e+19
9.985876923e+19
9.998369231e+19
1.001116923e+20
9.996984615e+19
9.978892308e+19
9.991384615e+19
1.001892308e+20
1.002541538e+20
1.001556923e+20
1.002935385e+20
1.003009231e+20
1.002390769e+20
1.003418462e+20
1.005827692e+20
1.004701538e+20
1.004507692e+20
1.000304615e+20
9.983938462e+19
9.9472e+19
9.960676923e+19
9.9748e+19
9.999261538e+19
9.999292308e+19
9.994030769e+19
1.000710769e+20
1.003350769e+20
9.940307692e+19
9.942246154e+19
9.944246154e+19
9.959538462e+19
9.972461538e+19
9.969323077e+19
9.954461538e+19
9.936769231e+19
9.931969231e+19
9.970430769e+19
9.976707692e+19
9.961661538e+19
9.956953846e+19
9.971230769e+19
9.98e+19
9.967784615e+19
9.947323077e+19
9.901692308e+19
9.939323077e+19
9.942953846e+19
9.944307692e+19
9.963138462e+19
9.953323077e+19
9.961723077e+19
9.984153846e+19
1.001886154e+20
1.000418462e+20
1.002538462e+20
1.001267692e+20
9.995846154e+19
9.972984615e+19
1.000163077e+20
1.000369231e+20
9.984153846e+19
9.943507692e+19
9.941230769e+19
9.956246154e+19
9.990646154e+19
9.970892308e+19
9.9512e+19
1.001667692e+20
9.969815385e+19
9.981230769e+19
9.965846154e+19
9.961415385e+19
9.964830769e+19
9.955507692e+19
9.941692308e+19
9.908184615e+19
9.922246154e+19
9.926861538e+19
9.918461538e+19
9.927538462e+19
9.9512e+19
9.968646154e+19
9.996030769e+19
1.000027692e+20
1.001763077e+20
1.000612308e+20
9.988246154e+19
9.994984615e+19
1.001944615e+20
1.000452308e+20
9.994461538e+19
9.984153846e+19
9.958246154e+19
9.943261538e+19
9.942153846e+19
9.960092308e+19
9.956892308e+19
9.936123077e+19
9.940646154e+19
9.952e+19
9.976830769e+19
9.993169231e+19
1.000643077e+20
9.998030769e+19
9.981692308e+19
9.9964e+19
9.991384615e+19
9.997661538e+19
1.001892308e+20
1.001313846e+20
1.00308e+20
1.002218462e+20
1.002116923e+20
1.000387692e+20
1.000861538e+20
1.000704615e+20
1.001470769e+20
1.002790769e+20
1.002667692e+20
9.995815385e+19
9.993784615e+19
9.983323077e+19
9.952984615e+19
9.971046154e+19
9.983784615e+19
9.992215385e+19
1.000101538e+20
1.001990769e+20
9.991415385e+19
1.002427692e+20
1.005264615e+20
1.007098462e+20
1.007384615e+20
1.005735385e+20
1.004855385e+20
1.0054e+20
1.002855385e+20
1.002233846e+20
1.004870769e+20
1.006412308e+20
1.002286154e+20
1.001101538e+20
9.997046154e+19
1.001864615e+20
1.005027692e+20
1.004107692e+20
1.002753846e+20
9.984030769e+19
9.988153846e+19
9.996830769e+19
9.9772e+19
9.978246154e+19
9.985169231e+19
9.987692308e+19
9.9848e+19
1.00088e+20
1.000175385e+20
1.002326154e+20
1.002544615e+20
1.000769231e+20
9.999415385e+19
1.001396923e+20
1.001430769e+20
9.975538462e+19
9.992092308e+19
9.976153846e+19
1.000784615e+20
9.975784615e+19
9.973692308e+19
9.974861538e+19
9.962e+19
9.949969231e+19
9.957415385e+19
9.933846154e+19
9.946338462e+19
9.973907692e+19
9.995692308e+19
1.000135385e+20
1.001624615e+20
9.995692308e+19
1.000144615e+20
9.982892308e+19
9.990184615e+19
9.983630769e+19
9.969046154e+19
9.978769231e+19
9.969292308e+19
9.978430769e+19
9.981476923e+19
9.979046154e+19
1.001569231e+20
1.000021538e+20
9.958e+19
9.992030769e+19
9.988646154e+19
9.985876923e+19
9.968461538e+19
9.949692308e+19
9.964030769e+19
9.991723077e+19
9.977353846e+19
9.980092308e+19
9.961938462e+19
9.992553846e+19
9.998523077e+19
9.9928e+19
9.980738462e+19
1.00036e+20
9.990523077e+19
1.000418462e+20
9.982676923e+19
1.000630769e+20
1.001304615e+20
9.991169231e+19
9.989753846e+19
1.001076923e+20
9.9996e+19
9.977138462e+19
9.952953846e+19
9.954215385e+19
9.936923077e+19
9.981507692e+19
9.990492308e+19
1.000095385e+20
9.993353846e+19
1.000793846e+20
1.000667692e+20
9.959169231e+19
9.964369231e+19
9.979815385e+19
9.959323077e+19
9.991938462e+19
9.991353846e+19
1.000449231e+20
1.001956923e+20
1.001787692e+20
1.003556923e+20
1.005323077e+20
1.00344e+20
1.002390769e+20
1.001664615e+20
1.002784615e+20
1.001658462e+20
1.000366154e+20
9.974646154e+19
9.966338462e+19
9.977938462e+19
9.980923077e+19
9.973630769e+19
9.982953846e+19
9.996369231e+19
1.000184615e+20
9.995384615e+19
1.001316923e+20
1.001495385e+20
1.002806154e+20
1.002338462e+20
1.003083077e+20
9.992307692e+19
9.985969231e+19
9.985938462e+19
9.974584615e+19
9.952707692e+19
9.956276923e+19
9.9344e+19
9.942215385e+19
9.956246154e+19
9.992523077e+19
9.985692308e+19
9.996030769e+19
9.986830769e+19
9.982338462e+19
9.975661538e+19
9.997815385e+19
1.000947692e+20
9.977846154e+19
9.985323077e+19
9.964369231e+19
9.980707692e+19
9.967107692e+19
9.992676923e+19
9.990923077e+19
9.974461538e+19
1.000523077e+20
9.990676923e+19
9.977292308e+19
9.980030769e+19
9.966307692e+19
9.982492308e+19
9.988e+19
9.993630769e+19
9.984030769e+19
1.000778462e+20
9.986738462e+19
9.956092308e+19
9.966953846e+19
9.942953846e+19
9.953138462e+19
9.963784615e+19
9.954184615e+19
9.9544e+19
9.929876923e+19
9.956584615e+19
9.970061538e+19
9.971292308e+19
9.991815385e+19
9.985015385e+19
9.990553846e+19
9.997569231e+19
9.986523077e+19
9.994338462e+19
1.000852308e+20
9.956892308e+19
9.961907692e+19
9.958953846e+19
9.955415385e+19
9.956430769e+19
9.983876923e+19
9.971661538e+19
9.9884e+19
9.991446154e+19
9.971384615e+19
9.945507692e+19
9.914430769e+19
9.923938462e+19
9.928092308e+19
9.960338462e+19
9.968984615e+19
9.973784615e+19
9.966153846e+19
9.9548e+19
9.949692308e+19
9.952061538e+19
9.944676923e+19
9.929138462e+19
9.942123077e+19
9.941815385e+19
9.946584615e+19
9.951538462e+19
9.978830769e+19
9.979907692e+19
9.989630769e+19
9.983323077e+19
1.001049231e+20
9.996369231e+19
9.991692308e+19
9.974584615e+19
9.975907692e+19
9.971907692e+19
9.971015385e+19
9.984553846e+19
9.982e+19
9.974e+19
9.9652e+19
9.957630769e+19
9.965507692e+19
9.961815385e+19
9.954738462e+19
9.969846154e+19
9.974492308e+19
9.956246154e+19
9.965261538e+19
9.974553846e+19
9.990276923e+19
9.996123077e+19
9.998369231e+19
9.993015385e+19
9.971938462e+19
9.974523077e+19
9.956461538e+19
9.960830769e+19
9.960923077e+19
9.967723077e+19
9.967476923e+19
9.964861538e+19
9.959784615e+19
9.954123077e+19
9.960953846e+19
9.966153846e+19
9.975630769e+19
9.988923077e+19
9.966923077e+19
9.958523077e+19
9.956615385e+19
9.945076923e+19
9.931692308e+19
9.974492308e+19
9.9548e+19
9.9444e+19