/*--------------------------------*- C++ -*----------------------------------*\
| =========                 |                                                 |
| \\      /  F ield         | OpenFOAM: The Open Source CFD Toolbox           |
|  \\    /   O peration     | Version:  v1706                                 |
|   \\  /    A nd           | Web:      www.OpenFOAM.com                      |
|    \\/     M anipulation  |                                                 |
\*---------------------------------------------------------------------------*/
FoamFile
{
    version     2.0;
    format      ascii;
    class       volScalarField;
    location    "0.02";
    object      rotationalT_mixture;
}
// * * * * * * * * * * * * * * * * * * * * * * * * * * * * * * * * * * * * * //

dimensions      [0 0 0 1 0 0 0];


internalField   nonuniform List<scalar> 
5120
(
299.6051812
299.8029622
300.3681656
300.2858345
300.9987428
300.0138841
299.9614636
299.7461081
299.7568349
299.3987667
299.2338879
300.0709777
300.321926
299.593946
299.2816418
299.0639828
299.4260643
299.4237452
299.7342611
299.8326406
300.8759109
301.2393198
301.4622375
301.0620433
300.9334898
301.6123747
301.2711885
301.180187
301.0637797
301.9636668
301.2265602
301.4465288
301.3575128
301.4599673
301.2046747
300.865938
301.0398932
300.653818
300.3315829
300.9060508
301.4355859
301.1973778
300.9866807
301.9014634
301.2702051
300.8428309
301.128113
301.4948198
300.8037682
301.0266929
300.8716547
300.4554027
299.782024
299.7338424
299.7078372
300.1679915
300.3287701
300.640024
300.8047882
300.5329753
300.7085612
300.203156
300.5518252
300.5233994
300.4951279
300.704202
301.6422016
300.7363779
300.4495724
300.3401266
300.2051049
300.3704552
300.2604816
300.4752091
300.8381321
301.3576072
301.7172036
301.5399709
301.4520471
300.4956809
300.4760726
300.5171949
299.7315678
299.4433443
299.6804751
300.301721
301.7217566
301.3511251
301.7252122
301.9543167
300.8273815
300.5682514
301.2963333
301.2658913
301.1741989
301.2216288
301.8429732
300.9475969
300.5498163
300.7541856
301.5753175
301.2240227
300.7748407
300.7933435
300.643162
300.3773323
299.8977608
300.3092584
299.9522455
301.0483375
301.3417952
300.9407383
300.1469043
299.8650752
299.5490496
300.4235657
300.6649648
300.8506304
300.8505045
301.9876281
300.1155799
301.5264772
301.0949127
300.6162837
300.3839311
299.5556701
299.1039737
299.4281891
299.9523559
299.410901
299.8066308
299.9646661
301.0066271
301.6986829
301.329676
300.3658286
299.9383649
299.8683984
298.8025174
298.756248
301.1735876
301.0216822
300.3495812
300.5318008
300.1267936
299.8455733
300.1883731
299.7453893
299.562162
300.2321929
301.0803068
301.1630311
301.0626257
301.0344172
301.0985018
300.7740374
300.8041389
300.7834017
301.7896858
301.4736003
300.3755536
300.1230173
300.1589791
300.6460462
299.9185415
300.0959036
300.9505682
301.0054384
300.3333715
300.2809424
300.1185355
301.043377
301.3057573
300.8925556
300.7560248
300.4697723
300.7379807
300.585833
300.0797429
299.9947895
299.3302511
299.5934691
300.1406183
300.5037122
301.1347103
302.032868
301.0915873
299.9782436
299.9055329
299.8851759
299.9949957
300.4030318
301.039268
301.1549262
300.800949
300.4329087
300.2723798
300.0174298
300.2282757
300.1179367
300.6455213
300.8741894
300.8191729
300.8317692
301.5217029
301.5447355
301.1959977
301.2123206
301.117324
300.8452794
300.4474502
299.4872997
298.1559033
298.0867883
298.5607929
299.8181332
300.0098787
299.9484167
300.049183
300.2539683
301.4197446
300.9248767
300.9970245
301.279468
300.864172
300.1406063
299.6154463
299.548179
299.3129119
299.9681936
300.4542347
300.8491008
300.4607057
300.9378289
300.5258613
300.1889903
300.5960602
301.0151481
300.3342578
300.9155281
300.5716444
299.8971788
300.2546913
300.5612718
300.9299447
300.4203007
300.2786961
300.6046452
300.6993297
299.837405
300.1569084
301.5177042
301.7332821
301.5497884
301.2500004
300.7549437
300.7999263
300.8802012
300.8131714
301.0778016
300.4740155
300.7062487
300.5193744
300.422745
299.3137229
298.4685854
299.3891846
298.5685054
299.0718023
300.54031
300.3073992
300.2165162
300.5183358
300.0288433
300.2097113
300.9612108
299.7962256
299.5024183
299.9584265
299.2668217
300.4574856
300.9147436
301.0688729
300.0402754
300.3646323
300.026778
299.6022854
299.1342581
298.6907533
299.153774
299.6488009
299.6998911
300.6876692
300.2388663
300.9386932
300.5334676
300.5276526
300.6709465
300.6691273
301.0063392
300.211151
299.9303921
300.592936
300.2083241
298.9541229
299.0827418
299.9592184
300.119429
300.5291942
300.3446887
299.6132031
298.9248555
299.3228785
299.0404658
299.3553903
299.4623423
300.2463204
300.2511972
299.3704235
299.5188359
300.815957
299.9520994
299.3170457
299.6372766
299.7945131
299.9145205
300.876769
299.9501321
300.5771153
302.0834877
301.4846323
301.3823156
301.5125711
301.8952974
302.3328662
302.2867491
301.1385101
301.1057752
300.8132021
301.2470855
300.6183175
299.8465703
299.2231072
299.8504472
301.0316118
301.9814393
300.9835552
300.4034524
299.8763305
299.323153
299.7181566
299.6775764
301.0559594
301.5643484
302.0690737
300.5892235
300.9351736
300.9165475
301.1245084
299.7012751
300.8838022
301.3773933
301.8887265
300.7971155
300.6370132
300.7078421
301.0536316
300.5024619
300.0807536
301.0598373
300.4915179
300.5851912
300.4735115
299.8963966
299.9872047
300.4101559
300.7270873
301.1895086
300.808598
300.67185
301.2587487
300.3946254
300.7805976
300.4028087
299.3701124
298.9754553
298.9550456
299.2177699
299.9446848
300.2340048
299.9835113
300.1750229
300.1573316
300.193794
300.7555
300.5012946
300.8377419
301.103136
300.8985936
301.7703844
298.9203054
299.4287414
298.8762642
299.5027157
300.0892668
300.2848588
300.0967949
300.8315375
301.3242897
301.3230635
301.4876226
301.5204502
301.6504233
302.0569067
301.4141392
301.1554417
299.6923605
299.1413463
298.9700185
298.638609
300.5716681
299.9509145
300.9846094
302.0547778
301.4726315
300.7397697
300.7421758
300.6803845
300.7050038
299.7433555
299.974879
300.0888123
300.0180901
299.980975
299.8270079
299.8922228
299.4126616
300.1627508
300.6149672
300.3794203
299.9629579
300.9853253
301.2513469
301.3823363
300.9197464
301.4687908
301.2195829
300.3771244
299.8769898
300.3411068
300.9605587
301.5446092
300.485033
300.4178694
300.1182827
300.2258284
300.1091239
299.6937563
299.8963831
299.6216452
300.5045067
301.0694733
301.3038894
300.6219012
300.7023854
300.6031499
301.2971007
300.9160466
300.9322325
301.2871179
300.7598152
300.8772669
300.7709342
299.7723423
300.0456423
300.321573
301.0030273
300.8753941
300.3590292
300.0459433
301.6108153
300.6771991
301.387935
301.7675925
301.6446238
300.8890475
300.8332632
300.9796042
301.011509
301.260008
301.0989558
301.3272526
300.8413049
302.0864444
302.775202
301.3345903
301.0324523
301.4061793
301.8903534
301.7264512
301.2531231
301.6244679
300.9720094
300.4049139
300.6179376
300.6926613
301.3019928
302.2143656
303.095007
302.8697714
303.5154901
303.0974007
303.1942866
302.7457752
302.1004699
301.8465867
301.3738975
300.5652759
300.2013573
300.8948038
300.2611847
300.1090797
300.234748
300.0447504
300.385319
300.5354238
300.6361568
300.9648087
300.948301
300.4271963
301.4337758
301.9094408
301.7880873
301.0828261
301.774196
301.5865087
300.8192325
300.0299202
299.910013
299.7180525
301.2789618
301.1621685
301.9177198
301.9862841
302.1740469
301.4669415
301.8402965
302.068189
302.1568299
301.8330973
301.2038264
300.9973168
300.7624544
300.7520849
300.271521
299.0251612
299.0351082
300.0950904
300.331475
300.7477047
300.4725381
301.0392937
301.5555839
301.4190811
301.4496789
301.3051589
301.3372755
301.278725
301.4883111
301.77849
301.2049882
300.556902
300.6270474
301.1687992
302.0368108
302.2770226
302.2997555
302.0489787
301.435984
299.9569251
301.1489667
301.1604006
300.7329182
301.527022
301.119274
301.4817011
301.2816624
302.3696984
302.1993438
301.4115043
301.2048703
301.5945998
301.293358
300.9550852
301.1494563
300.2142516
299.9512778
299.4956321
300.2728079
301.2821534
300.8106745
300.7268569
300.7058987
301.1043163
300.240957
301.1133243
301.2214042
300.8848562
301.2018151
301.206278
302.2700232
301.557777
301.4212733
301.596905
301.0578295
301.2506805
301.6210528
301.5512085
300.7190732
300.9952688
299.4127995
299.4127316
298.5449059
299.3508068
299.5723487
299.988274
298.6534346
299.3500624
299.0499502
298.1378956
298.42128
298.2395088
298.8926844
298.2458577
298.6418665
299.0611953
299.9327155
299.5567969
300.2363598
299.9828019
301.3174646
300.7348246
300.8335547
300.757758
301.0592068
300.6907765
299.9566079
299.7544268
298.714076
299.2124912
300.1258923
300.2278301
300.9473783
300.5266638
300.3840784
300.4711465
301.3237539
301.6318727
301.7545251
301.7240333
300.5011569
301.2791242
301.9874218
302.0341522
301.0628118
300.1380302
299.9339458
300.7134345
301.8980799
301.7550825
301.0632072
300.6228857
300.2786731
299.8978278
300.6125624
301.3594305
300.8114295
301.1620325
301.7904064
301.8901416
300.9425451
300.9567271
301.2424909
301.2989483
301.0512142
301.0899422
301.144367
300.9888216
301.0810593
300.4341996
301.1052171
300.7436597
301.494803
301.9166346
302.1032014
302.4836916
301.8326412
301.1621419
300.713091
300.8437557
300.3547582
300.5326787
300.9067054
300.9761887
301.1930982
302.2638229
302.394478
301.6492029
301.2327813
300.6082631
301.8180554
301.6789775
301.6662349
301.4008831
301.001738
299.9859352
300.2814403
301.2126124
300.8577266
300.4617807
300.8035012
300.6906105
301.6079739
301.4788073
300.5824239
301.5850709
300.8434968
301.3119039
301.1815357
301.2183796
300.7429554
300.2513482
299.9914676
299.8154961
300.0130201
300.4073603
300.9391036
301.8223475
302.1695003
300.8219756
300.8633557
300.7437362
300.4423387
299.9718128
300.3209414
300.9518448
301.2978896
300.5743039
300.1583237
299.2910845
299.8038831
299.9106741
300.4760214
301.3583125
301.1084187
300.3617219
299.8510759
300.1620366
300.3981468
300.5626733
300.7930824
300.1720661
300.3425841
300.3924206
300.374813
300.0162907
300.436259
300.3075561
300.032702
300.2558374
300.5940626
300.0522624
300.2922795
300.1086788
300.4805281
300.0204938
300.4150549
300.0330487
300.2612179
300.5428811
301.4598848
300.9238088
299.5657117
300.421178
300.564631
300.9490804
300.9134827
301.2651035
301.8646012
300.5676889
300.418283
300.3356863
300.1002071
300.5952569
301.1106224
301.689316
302.1530147
301.5703907
302.6609494
301.94904
301.135809
300.5698045
301.1546167
300.6154305
301.3431177
300.5296098
300.7276824
300.5184128
300.7815302
300.8281654
301.4351388
300.9023544
300.6443874
300.7445683
300.5974616
300.8820002
301.6982823
302.3608787
302.3903836
301.9329828
300.9897917
300.0694937
300.0398813
301.1071552
301.1914263
301.5814157
300.9579401
300.7528691
300.339834
299.99777
299.6160401
300.2978281
301.039982
301.2610797
301.5545395
301.1132965
301.315538
301.5400136
302.0095491
301.3421939
299.5301244
300.0281295
300.3279233
299.7863482
299.129459
299.5106855
299.3118122
299.7225623
299.6354255
299.8852738
299.6826756
299.905744
299.6092862
299.4527611
298.9517684
299.6016762
299.5785925
299.8503757
300.3413134
300.1560689
300.624805
299.8273044
299.4762892
299.8792546
300.8128604
300.0495609
301.2416944
301.0569476
301.2319247
301.5542543
301.0530987
300.9494403
301.3254567
300.5435535
301.2959341
301.2621444
301.1959127
300.7151824
301.350905
300.5367445
301.6229178
301.8283495
300.6621531
300.3278795
300.2147149
300.7947887
300.5903689
301.0467517
300.7116679
300.274042
300.1548401
300.8632421
301.8441109
302.2554207
301.5136424
301.0979143
301.9239051
300.6845439
300.9755074
301.363425
299.8817408
300.383289
300.6711638
300.4338925
301.167792
301.0200484
300.7662757
301.230578
299.9818359
300.0338242
300.1735326
300.1534242
299.5824384
300.1576805
299.8897248
301.3116619
301.2214489
301.3907428
301.1075922
301.4046728
300.7311117
300.7523428
300.9174984
300.8387076
301.1873886
301.3991062
302.1357108
302.6422643
302.8001326
302.2137444
301.3913267
301.9958159
302.2213739
301.9116667
301.8168521
301.3203022
301.1704246
300.1220335
300.2484409
300.5403433
300.2166172
300.8429107
300.5006746
301.1368083
301.7855112
302.1190862
301.4940089
301.0808267
300.5816422
300.5243485
300.6793285
300.7920549
301.8783777
301.0202655
300.6660703
300.3601479
299.7499679
300.0276215
300.392633
299.9962386
301.3450396
301.26827
301.0767707
301.1704813
302.2125385
301.544088
302.1067183
301.7468014
302.3383606
302.1682487
301.2730969
301.3608815
300.8003324
300.3368932
299.8928741
298.6421863
298.7750997
299.0363101
299.5211979
300.6446141
300.9954326
301.6470324
301.7395757
300.7763411
300.631565
301.4696368
301.3849242
301.5169574
301.6364761
301.9470966
300.6671466
300.9512709
301.6734026
301.6081179
300.9070851
301.4519081
301.9618991
301.3090569
301.3814849
300.1406993
302.6141708
301.9397373
300.8580488
301.3285327
300.5537607
300.7811697
300.0487661
300.4194406
300.1486742
300.1665556
300.5541203
300.725104
300.8010277
300.7402569
301.2870661
301.4612412
301.0357532
301.7712929
302.4419552
302.5953135
300.9114499
300.5015586
300.8351894
300.5431595
301.163498
300.4978781
300.3082628
300.8213281
301.3149414
301.5983834
301.8719726
302.2479163
301.9361205
302.0309258
302.3017349
301.908936
301.6786935
300.9049387
300.2291743
300.9697394
300.6511
300.3027748
299.8048487
300.3178951
300.790797
300.437104
300.3942999
301.0893082
301.6880687
301.3076923
301.5860002
301.5104214
302.171825
303.0297588
302.1393085
301.4641831
301.0110782
300.9026406
300.7248413
301.0580153
302.1069636
302.1766017
302.0057517
301.5344216
301.3634719
300.817974
300.9223593
300.9979936
301.4935963
301.5413497
300.560721
299.6466501
299.6287377
299.7925251
299.4412626
299.6555294
300.2819799
301.2036043
301.5967975
302.3450143
301.5457203
301.4214153
300.7063332
300.3670584
300.0080826
299.2020363
300.1084863
301.20107
301.6120078
301.2690009
301.2744977
302.3062701
301.4438934
301.2213812
301.1403268
301.2832513
301.8167774
302.22596
302.037713
301.4068122
300.8144466
300.4502019
301.196357
301.358227
302.0134692
301.4106851
300.9220313
300.396466
300.3217012
301.427168
302.304828
301.9799131
301.9730248
301.8312507
302.1358707
301.3614333
301.1176956
300.5035718
299.9349845
300.5167178
301.1982733
301.6055251
301.7299227
300.4400299
300.7398808
300.7781025
301.0374639
300.9913028
301.6023669
300.8559325
300.803438
301.1086737
301.0975239
301.1298374
300.9259257
301.3013045
300.7873878
300.4498224
300.9221061
300.7822596
299.8538114
299.4840802
299.6024228
299.4786553
300.2036142
300.503916
301.4601112
301.1150356
301.8416432
301.9048835
302.781337
302.0761226
301.6908905
301.6258218
301.8360852
301.3068674
301.0336554
300.5030122
299.6616418
299.995568
301.3140142
301.3364958
300.9710117
300.7053834
301.0147387
300.134041
300.7386999
300.6785047
300.7710582
300.7144221
300.4306391
300.7389215
300.0576094
300.6246124
300.7106718
300.5336266
300.9652897
301.5464365
301.0813643
300.8724246
300.2154532
300.3050422
301.3385075
301.892647
300.5255961
300.4811294
300.1717801
299.2799857
299.5752673
299.4617017
299.5800477
299.4924352
299.1958413
299.1365677
299.1084621
299.3425763
300.2157587
299.2781906
299.5087339
300.0303048
300.3865066
301.2168504
301.8771898
302.2644937
302.3409337
301.8908703
301.6089093
301.4471667
301.4486076
301.3983661
301.0690335
300.9167439
300.7499624
300.411398
299.8570492
299.7754626
299.613595
300.6051357
300.4473589
300.5869417
301.533957
301.0631317
300.540226
300.7474773
300.5207867
300.1807998
299.6106275
299.3163942
298.9743564
299.7050519
300.9213315
301.3600613
301.0801479
300.130341
300.2218256
300.9739853
300.9064662
301.0904566
300.8041495
300.8354663
300.7304255
300.8937371
299.9065099
300.2529953
299.8144032
299.1247425
298.77773
299.4314574
299.6887067
299.9229234
300.3262094
300.6619375
300.7136029
301.1657692
301.1897847
300.6941512
300.7006446
300.5712674
300.1234642
300.1166561
300.2377189
299.5883842
299.926462
299.5447
299.1340283
299.4579582
300.0229126
299.7349995
299.2023813
298.9906858
299.9263581
300.150148
300.3880933
300.5124705
300.4086443
300.4648242
300.8510168
301.4270372
300.781066
300.778543
300.8812698
300.2054275
300.8113944
300.2710034
300.4280725
300.753223
300.9013821
301.0058552
299.8090941
299.8808498
299.566919
299.5409547
299.4438031
299.4271291
298.8925636
299.6216715
299.2324291
298.7116852
299.9456068
300.8219749
300.5934485
299.9831618
299.6899485
300.9439713
300.611064
300.7776401
300.2071619
301.1273856
300.8978791
300.6554425
300.7118803
301.0645139
300.4797617
299.8002775
300.8316747
301.1747255
301.4809709
301.7097121
301.0696495
300.1539397
301.5704053
301.3298654
301.0600361
301.2800306
299.893346
299.7130719
300.6894175
301.0748749
300.4995821
300.2099205
300.4342843
300.3964423
301.0466761
301.4058174
301.0233997
301.4398476
302.0326115
301.7118465
301.6469162
300.7949143
299.150939
299.18632
299.4823204
298.9534084
298.7346191
299.540244
299.8603134
298.8204845
299.7996374
299.3071648
299.6009866
300.0095923
299.7493101
299.9270048
300.4663186
301.1063672
301.058173
300.6676353
300.1364851
299.3430141
301.0412351
301.4633213
300.4946329
300.5878201
300.3637807
300.5314159
300.0522595
300.2549995
300.6602831
300.9805481
300.5700839
300.0545094
299.7858872
299.1590001
299.7644837
300.0803475
300.7613307
299.8085642
299.7038491
300.6462361
299.665991
299.7225686
299.8037762
299.9861255
299.8593701
298.6605948
299.1932263
299.8809055
299.0712408
298.1390527
298.5798502
298.9332468
298.5667043
298.323576
298.6680347
299.3539625
299.1927234
299.4508318
299.6361518
298.8634719
299.36982
299.4798741
299.5167639
299.8831898
299.6848475
299.052837
298.464799
298.1742055
298.0612137
298.4978306
299.092815
298.3811186
298.8766563
299.4923816
299.6601346
299.3663134
299.5478261
299.2078568
298.4649227
299.3778744
300.4154681
300.9585478
300.893994
301.1723275
301.4555019
302.1551284
301.7701495
300.695342
300.7883638
300.4082691
299.9999514
299.647962
299.8535351
299.2995564
298.8046913
299.1771634
300.165354
300.6271388
300.7641418
300.6506849
301.0685795
300.5890555
301.4550546
301.515319
300.594692
299.8491723
300.5534817
301.100767
300.9366404
301.6305681
301.2795851
302.2316343
301.3745282
300.8546338
301.1782042
300.7594929
300.0196145
299.2862342
300.0858279
300.1405578
300.4998396
300.0997823
299.5315578
299.6885436
300.4510085
300.4704262
299.7289504
299.9688909
299.90186
299.1344492
299.546833
299.9956728
300.3785063
300.9978003
301.3630459
301.7417962
302.2077863
302.3579926
302.1204385
302.0093155
298.5467961
299.9311522
300.3114376
300.4192284
300.5470793
301.3126042
301.9680124
301.620668
300.2880209
300.3593078
300.1907436
299.1944408
299.4235626
299.0210818
299.3504069
299.672874
299.943932
300.415737
299.5053803
299.039428
301.0585568
300.3170347
300.2807129
300.625169
300.8217508
300.9195294
299.9463217
300.1356429
301.3967039
300.7310678
300.6579401
300.573049
301.3593681
301.2092251
300.6614392
300.7888216
300.2700738
300.5357192
301.4712457
300.6142336
300.4281483
301.1249465
300.5480846
300.6308859
300.8919862
301.2305672
301.8701711
301.0657952
300.6826142
300.2194968
300.5707814
300.811336
299.954064
300.0052195
300.3394035
300.2581608
300.1124674
299.65342
299.1439563
300.7370151
301.1440298
301.2808367
301.6666731
301.2312608
300.6250288
300.2097241
300.6326848
300.9015693
300.9257431
301.0768018
300.7016575
300.0767904
299.7910581
300.0118777
300.214807
300.603434
301.0093829
300.5005699
300.724763
300.9472162
300.665497
300.2640551
301.5758573
300.5746058
300.5942553
300.3372224
300.0046766
300.2308265
301.7359906
301.7330851
301.7170289
301.0409182
300.2703351
300.9706079
300.9284641
300.6048478
300.1099087
300.7407003
300.8142987
300.465171
300.191576
300.6612126
300.8407229
300.5127303
300.7512554
300.8332272
300.1632803
301.1033443
301.7067621
301.3123752
300.8907514
300.3891357
300.5657418
300.9618483
301.371522
301.5528988
301.7644609
300.9452032
300.5212103
299.9683806
300.5293222
300.6097629
301.0939706
301.5536165
301.6125191
302.1617606
301.6837839
300.9688902
301.0782973
300.1272739
299.8615472
300.6339225
300.6734197
299.7566698
300.3503122
300.3209681
299.6922855
300.1782103
300.3971843
300.2133513
301.3859523
301.6201224
301.4992084
301.7187229
301.3513523
301.3106945
300.6497981
300.679197
300.6443981
301.8554544
301.4117475
300.9283951
301.6257706
301.6885388
301.2355363
301.1698143
301.5494704
301.1539807
300.4863996
301.5425109
300.4585844
300.3748432
300.171696
300.1379514
300.7510764
300.2468421
299.1428232
300.4024026
300.1966479
300.2963586
300.0089206
299.8978792
299.3566715
300.2066151
299.8870431
300.0490267
299.5836759
299.7322124
299.7896953
300.0125242
300.0701058
299.1117957
299.8028781
300.3077498
300.2861632
299.8139661
300.1636295
299.2761391
299.5941576
298.9569177
299.4444379
299.8497359
299.8183944
299.2204656
300.6577021
299.897902
299.672698
299.6209352
300.4410977
301.008484
298.5162403
299.7333815
300.778186
300.659304
299.8100692
299.9367835
299.5535179
299.033821
298.6501733
298.9572443
299.2961336
298.494187
298.4360227
298.707195
298.1835973
298.5529819
299.0757535
299.2801783
298.9880805
298.869652
299.9445342
299.9632988
299.8430814
300.1516404
300.9202727
301.5974588
301.323575
300.1468022
300.4915744
299.8243731
299.9977076
299.6243707
299.9095014
299.386132
298.8046551
299.0285734
298.7104486
299.5680089
299.7156822
300.2911279
298.4910338
298.4519928
298.5247617
298.7999744
299.2298111
299.1424842
299.3394974
299.0608849
299.6176273
299.5865586
299.7533126
299.9114866
300.2450056
299.4637616
299.9397864
299.2813548
299.6634291
299.2089749
299.0278658
298.1006876
300.3260014
300.1113955
300.44571
300.594087
299.8630564
300.3943804
301.3099584
301.743475
300.7482974
300.3288031
299.8111863
298.9756309
299.1855637
299.2291481
298.7777083
299.545535
299.6989732
299.926948
299.7770825
299.3620087
300.715309
300.8520929
300.9937455
301.7566463
301.0301046
300.8692584
299.9036427
299.7898602
300.1291983
299.8607561
300.1581074
300.0807313
300.4041249
300.5478581
300.4524831
299.9084243
300.3279692
300.7977235
301.1223039
300.3271171
300.653264
301.0219782
300.7480994
299.9297978
299.7036555
299.3618378
299.8892971
299.5462005
300.1601984
301.1553798
300.3714846
299.8154894
299.4694894
299.4688038
299.9057515
300.3678458
300.076621
300.7619853
300.3090944
300.3125233
299.9265274
299.9170866
300.1323797
300.3177568
300.6324488
299.4668687
300.4264346
300.1955071
300.0945327
300.1321503
299.956994
301.106354
301.4335843
300.5913468
300.9176198
299.6103225
299.1623047
298.6575276
299.6125342
299.9250768
299.3843446
299.7724795
299.4892047
299.7554053
300.1105127
301.1520987
300.9856704
300.9817226
300.3775012
301.4048537
301.341261
301.2212607
300.962279
300.932761
300.909976
300.7253543
300.1900906
299.6011867
298.5660007
299.529814
300.2838043
299.7836175
300.069199
300.01518
299.4250272
299.1006833
299.4140341
300.5618982
300.8766349
300.5008873
299.9756785
300.2106195
300.821383
300.6258424
300.4757005
300.5791222
300.4782069
300.8634853
301.2339654
300.6820389
301.5161714
300.4424996
300.8789112
300.7547736
301.0538237
301.6544866
301.243869
300.8327795
300.9678071
300.7291982
300.655614
301.24481
301.5537585
302.6792714
302.3245499
302.3140828
302.1228076
302.1873774
301.7790222
302.0426305
301.4924202
301.8044975
300.8620196
301.1457711
301.4193636
302.1869687
301.8330933
300.3731472
300.4296021
300.0902183
300.1809018
300.7832263
301.8501243
301.1449232
300.5829425
300.5728469
300.1643104
300.3226424
300.4507378
301.0417478
300.5253919
300.8543544
300.7879007
300.8268593
300.8033041
300.2295435
301.002008
301.4653908
301.6851796
301.8527343
302.2622193
301.8461493
300.9488657
300.5069041
300.6338962
299.63915
300.4715948
300.5312891
301.4190265
301.8460026
298.978591
299.7171711
300.1433414
300.1646767
299.8134939
298.6767558
299.2048071
299.7086519
299.8814384
300.631461
300.3488895
300.8248493
300.5517481
300.5650221
300.600138
300.5058897
300.5135023
299.3650761
299.6501492
298.9542222
299.9159603
299.8427058
300.4829002
300.1397115
301.0711111
301.4519862
300.680293
300.5855799
300.0508267
301.5453241
302.2504779
301.0751577
301.0656221
301.0869532
300.7299759
300.8297962
300.8232724
300.1459101
300.2732377
300.5089053
300.6498604
300.7249634
301.6599885
301.4697053
300.407661
301.292178
301.2530979
301.6333247
300.9392112
300.3292285
300.4719784
300.4092783
300.6195268
300.7358615
300.7721827
300.5033096
300.4383144
300.0332278
299.56407
300.434514
299.5784413
299.8762526
299.3672985
298.8883731
299.9318301
299.6577825
300.0636414
299.8759624
299.2504909
299.8481013
299.9602512
300.1929403
299.5061956
299.64984
299.4282404
300.2551527
300.1996082
299.8574457
299.0221601
299.2150992
300.0685003
299.257973
299.3648389
299.7456959
300.8096989
300.1736533
300.3261428
300.3585898
300.4603996
299.5210354
299.6140025
300.4197024
300.3880258
300.2468244
299.9217632
299.6032065
300.0812418
300.4082036
299.9343196
300.4236272
299.5550338
300.125116
300.4662956
300.4633804
299.9987621
300.243057
300.185349
299.9097154
300.2538078
300.3466024
300.8243694
300.4911979
300.0883791
300.1904589
300.5886326
300.598099
300.0270706
299.5695952
299.7833289
299.1741845
300.0956192
298.9019453
298.4560167
297.9582554
298.5758959
298.3248432
298.6461338
299.4451949
299.5071693
299.6660385
299.3690084
300.5755391
300.2944199
301.0010773
300.9386074
300.1913713
299.788701
299.968493
299.9035201
300.3842351
299.409925
299.3915453
299.5415151
299.5972894
299.5717924
299.6925592
299.0897495
299.2041503
299.9768953
300.2929976
300.7026078
301.0970147
300.2325729
299.4628824
299.4213723
299.31844
298.3732026
298.7716145
299.5638479
300.1749742
300.8270909
300.2185388
300.0089544
300.4181849
301.1640842
300.8486638
301.309178
301.7061698
301.6133843
301.6580381
301.1638125
300.1705593
299.6902124
299.9273929
299.4664765
300.7994047
302.0026534
300.6196921
300.6401729
300.3561785
301.1621763
300.8762499
300.4656287
300.1637971
299.5320835
299.2309084
300.2852489
300.7435091
300.3344776
300.412483
300.318181
299.9384537
300.0924674
301.0414246
301.2337551
300.1394694
299.639201
300.2485843
300.78995
300.0497489
301.6883167
300.8512486
299.8781849
299.9615346
300.3390467
300.1219188
299.103873
298.4826075
298.0659655
297.3593315
297.876993
299.2830386
300.5155983
300.9095708
301.9224432
302.1988206
303.64389
302.7063502
303.2848343
302.4919578
300.7919495
301.1223702
301.4938373
301.5490627
301.2356509
301.221369
301.8761386
301.5586807
301.2035939
300.7021468
300.6861923
300.5271
300.4498607
300.2079581
299.7998522
300.5348377
300.315176
300.9006765
301.0695164
301.191628
301.583802
301.1829527
301.073345
300.2148133
300.8685984
301.4726749
301.8783243
301.3210828
300.8613651
300.9284704
301.0549879
301.1564284
299.8611029
299.9024156
300.7443022
300.7306752
301.1850572
300.4126631
301.5519399
301.1051178
301.7894682
301.7769827
300.9631205
300.9554035
300.6427417
301.0157365
301.2772607
301.979376
301.9027693
300.8040698
300.9299984
300.8693151
301.3636571
301.3147805
300.6175308
301.2704247
301.5287186
302.1662023
301.9410409
301.7934583
299.977843
300.8939899
301.6716417
301.495484
301.2081574
300.5556945
301.2701178
301.331779
301.5650684
302.0279313
301.8907517
301.7483921
300.3385645
301.4549692
301.4271202
300.0180499
299.9981235
300.03316
299.957023
300.3152908
300.8572487
300.7868746
299.939681
300.1568292
300.1097173
300.4894033
300.1128087
300.2551218
300.5994352
300.3865029
300.4070154
299.8024338
300.0763902
300.2234571
300.9267517
301.1004251
301.5122482
300.5414082
299.9265085
300.7197568
300.2799739
300.5013139
300.5800059
300.3345944
300.436938
300.1981168
300.1476278
299.9680454
299.6092221
299.6288782
298.1377435
297.9439221
298.6168049
299.4036872
299.0929627
299.3080601
298.7679061
298.822163
299.8870558
299.2973809
300.9216148
300.4397574
300.196017
300.7312448
300.4939581
299.8009998
300.4867057
301.0643643
300.1472201
299.5763535
299.9869859
299.7018587
300.4114149
300.7667898
301.2549332
301.274768
301.3575692
301.6567547
301.7113199
301.6339799
300.9062185
301.1722238
299.7701478
300.1057491
300.9836341
301.2835897
300.8700813
300.8111319
301.081745
301.5874968
301.5050131
300.4134164
300.1318328
300.2700156
299.7616051
299.8128214
300.1657744
300.1289276
299.9157865
300.2206181
299.2020758
299.4803125
300.2966755
299.8096991
298.9532044
299.1175929
300.0746487
300.2504765
299.9260766
299.9312517
299.3879982
299.1127052
299.4611044
299.0890614
299.4895706
299.3027276
299.6261643
299.8285978
299.6059635
299.606441
300.2592506
300.5712042
300.586355
300.2967704
300.0380798
298.8996345
299.4549479
299.0226612
298.5874757
298.9897626
299.5111214
299.8978416
299.1650924
299.8491889
300.2353435
300.0164529
299.4618688
299.7476371
299.1476877
299.6687677
299.5808535
299.198414
299.2042002
298.9611828
299.1149713
299.9309104
299.7670979
300.8569213
300.4799159
301.0416803
300.630471
300.791077
300.7789973
299.3194791
300.4252601
300.374928
299.872042
299.6373838
300.0802093
299.9278509
300.8926289
301.4118384
301.4569825
301.2647629
301.1763565
300.6016406
299.7516541
299.634359
299.5405764
299.010458
298.8156402
299.375947
300.1686043
301.3275205
300.6856496
300.3630415
301.2885579
301.1969802
301.3527188
300.5518049
300.2617869
300.0766068
299.6575545
299.7241839
300.2911492
301.0484796
300.7907104
300.3113661
300.002843
299.9046408
300.2441855
301.0055838
300.5915786
301.3091071
300.8585345
301.5867579
301.513556
301.2416112
300.1189714
300.0711334
301.9483052
301.7730666
302.4615355
302.4982641
302.1536676
301.6902586
301.4285529
300.5840343
300.4775644
299.8509773
299.612561
300.3439218
300.2808388
300.8968868
300.8397821
300.3238524
300.2765188
300.2055492
301.1734363
301.7852232
300.7051885
301.6324622
301.8043858
301.8141411
302.0117831
302.4228478
301.4585556
301.1342865
301.5054624
301.6437468
301.4175338
301.3181552
300.9094565
299.6818344
299.3834861
300.1753774
300.8347328
300.861598
300.6337391
300.6870835
300.7854186
300.1144655
300.2118751
300.1959121
300.176984
300.210283
300.8831745
301.0262306
300.7719475
300.7353092
300.6175868
300.0183942