/*--------------------------------*- C++ -*----------------------------------*\
| =========                 |                                                 |
| \\      /  F ield         | OpenFOAM: The Open Source CFD Toolbox           |
|  \\    /   O peration     | Version:  v1706                                 |
|   \\  /    A nd           | Web:      www.OpenFOAM.com                      |
|    \\/     M anipulation  |                                                 |
\*---------------------------------------------------------------------------*/
FoamFile
{
    version     2.0;
    format      ascii;
    class       volScalarField;
    location    "0.02";
    object      translationalT_N2;
}
// * * * * * * * * * * * * * * * * * * * * * * * * * * * * * * * * * * * * * //

dimensions      [0 0 0 1 0 0 0];


internalField   nonuniform List<scalar> 
5120
(
300.6669598
301.0785418
301.3792867
300.4657032
299.856041
299.840012
300.8637408
301.5322221
301.220059
301.7528019
302.4217016
302.555836
301.4445803
301.2641905
301.7462521
301.3321522
301.0567305
300.9833096
300.1764827
300.3835059
300.4816801
299.7300896
299.8000063
300.2689905
301.04687
300.4351633
300.138838
300.7785878
300.907303
300.4256932
301.1635137
301.5188364
300.5434708
300.7426708
300.7462829
300.2294658
299.6701366
300.5047238
300.4974763
300.3327136
300.8375723
302.3075994
301.1940074
302.2804215
301.6536662
301.0230274
301.4700584
301.9622398
301.3761824
301.4746573
300.9513623
301.3367813
301.4646993
300.5071194
300.3267175
300.6016649
300.7565374
300.6054321
300.943098
301.0408838
301.7637309
300.3908624
301.0122291
301.8133388
300.3486787
299.958253
300.4001585
300.548592
300.9946199
301.3333472
301.0682001
300.4366152
299.7079591
300.2365114
299.9611988
300.0596082
300.5071389
300.7979936
300.3815648
300.3706798
300.8039474
301.2865197
301.1702945
300.4957871
301.3808445
301.1245341
301.3749992
300.8203146
301.7286944
301.6973656
302.0945184
301.8742021
300.724413
300.8097721
301.1170098
300.3509733
300.299286
300.4749226
299.8001052
301.1856527
299.2578433
299.8991018
301.2937007
300.4454683
301.7334139
302.0767987
301.740715
301.3444268
300.6202734
300.5745526
300.1670642
300.4439875
300.5805407
300.3326856
300.2378697
300.1476791
299.7539243
299.4582658
300.6957219
299.9888346
300.315715
299.2343219
299.0330673
299.6241864
300.2306342
300.1423229
300.088689
300.9110792
300.6440114
300.700869
300.0981791
300.4798156
301.1251247
301.0893394
300.4757788
301.2359437
300.9006755
300.2285625
300.4104997
300.3503486
301.0201971
301.9348902
302.3239422
301.9445136
300.4583622
300.7646281
300.2979022
300.4297873
300.3529873
300.6749776
301.0971479
300.6597207
301.0762636
301.5560229
302.4289289
302.0962585
301.8215224
301.7524335
301.9143883
300.6754494
302.5652654
301.9750064
302.0071779
300.3962263
300.4863234
301.2440674
301.3193174
300.7908655
300.0705728
299.3221746
300.296265
300.1505958
300.3049126
300.4264714
300.4975892
300.9611759
301.9036303
301.3529572
301.3863569
302.6915018
300.2299342
299.4752703
299.7052649
300.5338648
300.4870833
299.8524271
302.0989215
301.6207757
301.1377554
300.8017499
299.4864438
300.3440482
301.1849493
301.3991361
301.4991881
301.3790148
299.6686416
300.4880624
300.6914937
300.8534526
300.2705399
301.3042185
300.5762498
301.5800149
300.962376
300.2778149
300.5679639
299.7077097
298.6578622
299.2429529
300.8274337
300.7397955
300.57491
300.9049375
300.2049707
299.7835221
300.0705184
300.0335146
299.1435049
299.1345325
301.3274754
301.5883371
301.3070841
301.7811584
301.5636402
301.8123829
301.6975927
300.4773699
299.4823658
299.7522286
299.3144252
300.6265537
300.0804621
299.1578368
299.9789514
300.1501096
300.5093766
300.6185503
300.6203135
300.4667794
299.9230169
300.8005577
300.7421856
300.6836798
301.0216696
301.1011717
301.4866496
301.0756224
300.855623
301.0329423
301.3948459
301.2212866
301.1603194
301.6626059
300.8236557
300.3848555
300.6696669
299.9360245
300.2251887
300.5883785
302.5258079
302.8025298
301.8769834
302.1454939
301.6600887
300.8315395
299.3242984
299.6614332
300.2668808
300.6089706
300.9757926
300.8089346
301.1122495
301.9003999
301.0787808
301.2523514
300.0906897
300.5811836
301.0034071
300.5190132
300.1568933
301.0245567
301.1424235
301.1674122
301.9494954
302.356676
301.5097215
301.7685492
301.7730721
301.5548879
301.6304366
301.6342872
301.4747652
301.4677586
301.3814011
301.2499592
301.850711
302.5794159
302.4863942
301.5028081
301.943303
301.820124
302.2647171
301.9433257
301.9451154
300.6304403
301.5331433
301.3855466
301.6972896
301.6005846
299.9256841
300.1952598
300.8397999
301.2327134
300.199101
299.9818314
300.4356483
300.2433408
299.9690802
300.4905838
301.9410113
301.5201087
300.1083893
299.6057601
300.2308218
301.214467
300.4464037
299.8158861
300.2570849
300.8951599
301.1794379
301.4045214
301.5511894
300.2545938
300.7725207
301.0669376
300.2293147
301.2151828
301.7198361
301.3133807
300.6999381
299.8919804
300.778048
301.862012
302.2830841
301.9433963
302.0055233
301.4378175
301.5851283
301.7058065
301.0987455
301.3913202
302.3804097
302.279406
301.1628642
300.8037894
301.9762875
301.8604143
300.6976085
300.3977573
299.3761338
300.9024253
301.5452939
301.2104485
301.579818
301.7268833
300.6053702
300.4290911
300.640304
299.304909
300.1469406
300.8630412
300.9055187
301.161955
301.250629
301.999275
301.399273
300.3767483
300.7862099
300.3369935
300.2048103
300.9789072
301.5702108
300.3673351
301.0646971
301.5957612
302.3875737
301.6597197
301.3411992
301.4097182
300.2894675
298.9526093
299.3929938
299.3065766
300.2400332
300.4881548
300.5475486
299.8850735
299.7687013
299.6819837
300.8593327
301.1406389
300.1009364
299.6869971
300.0436571
300.1909711
301.6367555
303.0269429
301.6456643
301.0235331
300.865001
300.9709451
301.5310746
300.5520832
300.0120057
300.447931
299.853249
299.784438
299.97842
300.6674084
301.241326
301.1280518
300.866518
300.5655557
299.7414513
299.7562196
300.3519951
299.4397513
299.5608888
299.4677131
300.3424303
300.0276397
300.1161711
300.8129799
300.8196862
299.9838316
299.2739899
300.2122224
299.5543182
300.4532511
299.4012044
298.8918751
299.4257351
299.9647912
299.9038259
299.8705624
300.3388697
300.4058676
300.2378271
300.0539885
301.0159454
301.2449706
300.4237277
300.8890624
299.9289631
300.7478388
301.509858
301.1226366
300.8284056
300.5211036
299.7448622
299.9455913
298.9633404
299.4692513
300.1043687
299.9798806
298.886163
299.0673901
299.9045195
300.3948991
300.5193343
300.3767641
301.0623976
301.3950059
301.069107
300.720702
300.6788616
299.9662885
299.4869532
300.5507318
300.1129936
299.8758947
300.1126301
300.0912717
300.3809463
299.9169898
300.0043583
299.956782
299.5317772
299.7146779
300.4556399
299.3547167
299.7920326
300.5579804
300.8670129
301.5500668
301.2806993
301.3475686
301.5750262
301.3447852
300.3589985
301.2563804
301.6160915
300.9427274
300.9821175
300.7361881
298.9339873
299.9577789
301.0113166
301.023431
300.9664632
300.9538988
300.3872232
300.3412116
300.3722091
301.1130109
300.9322489
302.2670738
301.6626483
301.0087782
301.2565479
300.7756094
300.7030394
301.1280732
300.8806598
300.8677606
300.9775647
302.0323355
302.3634311
301.909006
301.0186722
299.8190183
301.068218
301.363094
301.8135269
301.751736
301.1835469
300.6747652
301.0785646
300.703805
299.1691301
298.5599906
300.074858
300.4175363
300.3494062
299.9935357
300.1818212
300.222635
299.7815099
299.1768247
299.9931011
301.2778228
300.5000133
300.4595866
299.9224753
300.005671
299.6332483
300.7309861
301.1236916
300.1056001
301.0255048
300.8660216
300.3008173
300.3160201
300.0711101
300.0743284
299.8364325
300.876163
302.6326391
302.8458352
302.2052516
300.8690148
300.492296
300.6191162
301.0617637
300.7316938
301.0537121
301.194291
300.5634934
300.6918025
299.9953754
299.7552279
300.0777337
300.9063414
300.2271026
300.537674
300.5527515
299.852682
299.6238352
300.9238945
301.1739034
301.8314133
301.439113
301.4600343
301.2793423
300.8393643
301.1340865
302.0956749
302.139446
301.625495
300.4582245
300.8372154
300.1671302
300.5209358
300.4856062
301.3510427
301.2803289
302.3154465
301.5288554
301.3358679
301.1981193
301.0934393
300.9144309
300.2483107
300.5556504
301.1198324
301.6131987
301.1241239
300.8362047
301.1931246
301.0717189
299.972471
299.7148765
299.9824452
299.4742803
299.3160836
300.0030226
300.8711787
300.6059615
299.9747381
301.0742024
301.2030922
300.4326325
300.5566898
300.9100686
300.4849702
300.0595019
299.8879058
299.7136538
301.0677785
299.818999
300.2505938
300.308599
300.2309602
299.3982838
300.3725311
300.8248461
300.0885119
300.0468026
299.8815179
300.1523235
300.7026846
301.3212248
301.517053
302.3640206
302.116393
302.5923298
301.8362633
300.7480032
300.8453662
301.4727078
300.6000302
301.6034302
301.2950764
300.9926872
301.9430608
302.2852926
301.9801551
301.6403077
301.1320397
301.9711263
301.9136187
301.8284358
301.7164482
302.1943337
300.6545928
300.4161165
299.9339668
301.2809391
301.8710143
301.1585537
300.9896835
300.5994401
300.6779042
300.8332287
300.7191327
301.1663269
300.7552882
300.5669126
300.9923691
300.5341152
300.4785264
301.2438197
300.3057063
300.383619
300.6957675
301.634552
301.9020413
300.9726861
300.4022441
300.914436
302.2227224
302.7472038
303.2151691
302.0765655
300.7939065
299.7786231
299.9852949
301.1496476
300.5867552
300.9339791
300.5637494
299.1584961
300.0332334
300.5281528
301.3034529
301.0897752
299.9993741
300.5734199
300.4240682
300.972351
300.6432832
300.3571257
300.8353734
300.2888284
301.0966855
300.6082869
300.6866405
300.8658342
300.7353242
301.5766099
301.224558
300.4014862
300.1856703
300.2144697
299.7771866
300.2441162
300.6658486
301.4009132
300.8283301
300.0537532
300.4542112
301.2674137
300.3895432
301.2890804
301.081713
300.90244
301.5889053
302.4571161
302.5493309
301.3274344
300.6883907
301.3176115
301.0532624
301.0516924
300.4655007
300.9143347
301.0341613
299.9475109
299.6743793
301.0520394
300.6050228
300.2692599
300.6847315
300.1821663
299.3760891
299.6258353
300.6176045
301.1197328
300.2975885
300.8006644
300.2898935
301.166764
300.731586
300.2574206
300.4350411
301.1916692
301.1312936
300.9802627
301.3494825
300.9886308
301.6544488
300.5712656
299.7110372
299.2365326
299.974474
301.039955
300.7286004
300.35126
301.3531947
300.3503056
300.1775118
299.3248732
299.3829963
300.2546295
301.2179152
300.829386
299.8346121
300.4390561
300.3136688
300.5421439
301.5325231
301.4570739
301.4999664
301.5419941
300.8523283
300.2740655
299.3705562
300.8283089
299.5667577
299.3666064
299.8257446
299.6408852
299.6245353
298.5461799
298.9288008
299.9037326
300.6789759
300.4439545
299.9684854
299.8335265
300.2570067
300.9382409
301.0188428
301.4365822
301.3369807
301.2361853
300.7960548
300.4042011
300.9764735
300.3741844
300.8411691
300.4651269
299.4168607
300.3057127
300.5758928
299.5964596
300.3847126
301.004251
300.9714235
301.6693883
301.8694998
300.5707757
299.9792003
300.1670331
301.1256836
301.1830962
301.4298676
301.7110336
301.1812193
301.1398156
301.2204928
300.1759375
300.6032746
300.6661102
300.8218845
300.9173891
300.0956879
299.9550692
300.2729251
300.5011967
300.5866991
300.6227307
300.8428707
299.9108644
300.5125534
300.123469
300.178363
300.3146091
301.091869
301.6211477
300.7539549
300.403811
301.3045773
300.9055979
301.182036
300.7887142
301.0235603
301.1551174
300.9810311
300.2462502
300.0922071
299.4720656
299.779625
301.3583002
301.1520855
300.3669146
301.0260924
300.2875188
300.063718
299.9638159
301.2902379
300.9916642
300.6365311
300.515996
300.4264599
300.1342394
300.4920851
299.9813424
300.2943575
299.5219916
301.2264236
302.0565831
300.986413
301.575095
301.5751281
300.9738944
300.3514831
301.1068179
300.5394861
299.6361057
299.904837
300.3765049
300.0734876
300.1734516
300.8004513
301.1483291
300.2780925
299.2924934
299.0804647
300.9931241
301.6369287
301.8957874
301.4552541
301.6546618
301.34779
301.5406784
301.1297479
300.4794718
300.8493676
301.5461574
301.9444295
301.386245
302.1694949
302.5430463
301.9846219
301.4867675
302.2674538
303.1575462
302.0763294
300.8459804
300.6488866
300.9410339
301.4105336
300.5204821
300.7479804
300.024453
300.6098667
301.8866479
301.9524715
300.4634574
300.1863031
301.0581435
301.2763065
300.5325492
301.2463792
301.1678499
300.6586433
300.1237149
300.490844
301.3915755
302.0828994
301.131992
301.551482
302.063325
300.630322
300.4123988
300.3813268
300.7544354
300.8152243
300.9542257
300.5098484
300.965818
300.3647142
300.5219727
301.4787256
301.6503925
301.6985178
301.5617792
301.8565383
300.4038971
299.7866181
300.6256426
300.2976525
300.7652202
300.9913061
301.0532157
301.2363092
300.9651138
299.7705025
300.3224309
300.5736922
301.2923961
302.5440998
301.9035278
301.6892678
302.1107452
301.8135965
301.6100594
300.9392666
301.568617
300.8074204
300.7258676
300.6525932
300.2084779
300.4455583
300.3464146
300.1282809
299.9008343
299.773513
299.4982756
300.1965707
300.2345331
300.407801
301.0819668
301.7134424
301.1583585
301.8394788
302.7633698
302.7481572
302.3002256
301.1308349
300.8407085
300.7801546
300.2329284
300.2744037
299.6628374
300.2117342
300.8062063
300.4129016
300.4644238
300.5666216
301.0495825
301.1638516
299.8573766
299.2472053
299.3204092
300.7409871
300.9889954
301.8286761
301.1011188
300.7979671
300.8263798
301.3525743
302.2548825
301.973689
301.4380543
300.4444001
299.8081617
300.6638921
300.0261686
300.9261895
301.5053953
300.9387367
301.1023832
301.8295945
301.1325124
300.7707104
301.5623123
301.2183665
301.0871594
300.9598399
301.0325288
301.9135681
301.2208938
300.03353
300.2126771
300.7156936
300.2798924
300.2983172
300.7678569
299.8406383
300.1895856
300.76628
299.7151694
300.6428145
300.7691643
300.4665241
300.8305539
301.1111631
300.6535769
300.5983286
300.5395053
300.9676848
301.2003719
301.1046116
301.4467671
301.4355971
300.9566162
300.7043073
300.1973873
299.7010864
300.1919471
300.5758647
300.5416827
299.2795092
299.4986816
300.3774334
300.4721243
300.952618
299.791282
299.1879747
299.5837981
299.6818825
300.7196871
301.0768981
300.8103436
301.057819
301.0189228
300.4628406
301.1866579
300.8949888
299.797359
299.5976793
299.4602991
300.0157914
299.2762872
299.19049
299.9789218
299.8238084
300.4151975
300.202403
300.3256752
300.9553777
301.2402543
301.2443707
300.7386174
300.8802875
300.5144633
301.0948596
300.4779604
300.3748947
300.5491172
299.9074473
300.0489188
300.4227914
299.4965172
299.4235024
300.0593185
301.2677943
300.4659888
300.3514831
299.5572149
300.210156
300.1811476
299.2099879
300.1952362
300.4741953
300.4169837
300.6868114
301.0202756
300.3180278
300.8513005
300.5095022
300.8130983
301.3848888
301.6679338
300.9173777
300.6760006
299.7598129
302.0961735
302.08115
301.5103111
300.7179598
301.0951853
301.9618089
301.4123727
301.838843
301.350609
301.2055594
299.9840937
299.8661197
301.141587
301.6226226
300.833184
300.8812062
301.3731726
302.0961364
301.6802734
301.7472219
302.6182005
302.1030967
302.2827095
302.6787804
302.77834
301.8456322
302.5175648
301.9350428
301.3127442
301.0942985
301.0796361
302.4097869
302.1756699
301.2023298
301.2185566
300.692576
301.3657687
301.4457089
303.0067825
302.2251017
302.294239
302.3327661
301.792582
301.2505993
300.7014918
300.6246982
300.7048359
301.2755251
302.4870533
303.0202578
301.9852556
301.0654574
300.5077368
300.8391707
300.6581731
300.4357073
300.8080102
301.8741022
302.5145131
302.5005256
301.3559873
301.2914944
301.2388937
301.9116596
300.9923621
301.2369873
301.767595
301.7818702
302.3053423
301.1007848
301.2687667
301.4946111
302.1176862
301.534816
301.4610783
303.0683605
302.3978623
301.6388653
301.2209687
301.6122598
301.4947272
302.0710649
301.7722365
300.8254715
301.5124535
302.280548
302.1935978
301.3536293
301.0179413
301.2637535
301.285512
300.9493682
300.4854369
300.9134122
301.2998854
301.6876008
301.1497019
300.823096
301.5048222
302.0060225
301.1561554
300.9720706
300.8523351
300.9389823
301.4774625
301.7985906
300.7294789
300.7284306
300.0372442
300.6855747
301.0875121
301.4686784
301.734471
300.7175277
301.2399497
300.7016336
300.8862187
300.990258
300.9263929
300.3885565
301.5066152
301.6749547
301.8457082
301.2158001
300.6911648
301.1824757
302.3046547
302.525148
303.0649632
302.2279533
302.378507
302.0478947
301.625301
301.2923514
301.5081816
301.4854514
300.6396658
300.4861063
300.5910668
301.599127
301.7463035
301.9271854
301.8971181
301.6738475
301.4250138
300.6749411
301.3889625
302.0760573
301.9041977
302.3119753
301.9896407
301.4655153
301.3006396
301.2153316
301.5316206
301.3034631
301.1247743
301.35333
300.7041915
301.4596544
301.1696908
301.0773705
300.79841
301.7926049
301.7306937
301.6271947
300.9870348
300.3747356
302.0119612
302.0328355
301.5613219
300.9775786
301.0236019
300.6954543
301.7261267
301.5611923
300.9040037
300.3019927
300.2425327
300.5767437
301.7066464
302.3521206
302.2451901
300.9319123
300.9687857
301.2666031
301.8602453
301.3236074
300.1065416
299.950161
301.1943783
302.0916896
301.8202248
301.5326023
300.7695073
300.6172516
301.1637289
301.3564791
300.9702622
301.4103222
301.3542989
301.3090509
301.2098544
300.7577607
301.4624808
301.6221134
301.3447815
301.1579831
301.1072182
301.2173251
301.5063496
300.1534692
299.4156596
300.3618515
300.5076648
301.6220538
302.0700929
301.4074745
301.0265574
301.5694386
301.5017569
302.0076427
301.1480782
300.7918154
301.0481171
300.7051777
300.4459854
300.4510213
301.0088115
301.0526019
300.854148
301.6579314
301.9469101
300.8396021
300.8038166
300.7147362
300.2678925
301.1644865
300.8422611
300.7960938
300.8614118
300.4672895
301.1584743
300.1374288
299.3789785
299.9595427
300.974906
300.5616827
300.7298397
299.8203494
299.8302168
300.8731031
300.2289947
300.125492
300.4736533
300.4725185
301.0656271
301.7325796
301.2991459
301.9941996
299.8387012
300.9347332
299.9278222
300.9062614
301.1657841
300.9396819
300.5620076
300.665682
300.2438174
300.2889431
300.5946867
300.0887558
300.0356017
300.3737846
300.0647486
300.6723315
301.1888733
300.0507298
299.6540507
299.5088471
300.6159052
301.2131957
301.5375719
300.8801757
301.1714779
301.1198401
301.1599668
300.3379502
300.4147265
299.7482083
300.6407963
300.7893411
300.7552475
301.3721225
301.0431872
299.799807
300.0182932
300.5814236
300.4778244
300.2492516
302.1163928
301.9226999
301.4409454
300.4337781
300.6029759
301.3389419
300.2804338
299.7193095
300.8409832
300.5216191
300.3570522
300.4613018
300.9222271
301.186533
300.6800077
301.5387753
301.2148843
301.5095483
301.8158459
301.7894783
300.6189715
300.7367433
300.4367232
300.6882838
299.8731252
299.3632836
299.885387
300.5680011
301.6514813
301.8952648
301.1382803
301.4795671
300.7278859
300.6537119
302.0549107
302.9629102
302.3351684
301.1784289
300.7287922
300.5977986
301.025177
301.3486563
301.8326207
302.4616618
302.2173684
301.1625622
302.0148059
300.4989649
300.7058067
300.6661595
301.0833374
301.4601525
301.5333765
302.3515784
302.6787413
302.5523174
301.3022014
301.6387067
301.369224
301.8709581
301.8545232
302.4028462
302.7805922
301.6315328
301.0006414
301.9346419
301.7102931
301.7664938
300.5988888
300.0713808
300.5920305
300.588267
301.1967192
301.1880453
300.8373817
300.689611
301.6825802
301.0394807
300.447296
301.4911689
302.4961247
302.0022723
301.9205018
301.5791636
301.8537542
302.9682083
301.8554974
301.5813718
301.5276026
301.5719053
301.1051431
301.1200792
301.2655788
301.3642627
301.4696711
300.9632153
300.9885384
301.8698464
302.0721469
301.5626958
301.2736698
301.0102637
300.9095973
301.7139758
301.1122962
300.922475
301.0534423
300.9380291
301.7574098
301.9083426
301.847095
301.7071619
301.2920487
301.4741587
301.0189088
300.5608266
301.9669626
302.0099215
301.5426442
301.543926
300.4151487
300.9968953
301.900028
301.2294973
301.1648133
300.7537404
300.6826375
301.4020377
300.9994523
301.1505316
301.0090355
301.2710277
301.6542499
301.1278372
300.7729708
300.2663183
299.1687276
300.1454235
300.9656464
301.3961592
300.7049925
301.2829922
300.7899987
301.0961722
301.4915991
300.9514286
300.8909811
300.8823176
301.0726281
300.2544311
300.2172145
300.9075192
300.7584328
300.1793475
299.8590445
300.0693514
301.3189171
300.3389257
300.8981479
300.8946831
300.4087787
300.8448864
302.0990177
301.3297036
301.597995
301.3492557
300.5418921
300.3058559
300.7484777
300.6537893
300.0885835
301.2781403
301.2382295
299.9341431
299.5195637
300.0943537
300.4281427
301.768148
301.2731864
300.7634882
300.5667438
300.9723174
300.1125882
300.949805
301.5242758
301.5920772
301.3355798
300.7073225
300.5442769
301.8027779
301.5928961
301.508856
301.0674047
301.7805912
300.7218292
300.7656802
301.129114
300.9451434
301.0276723
301.1285113
301.2900274
301.4143121
302.4250948
302.5781152
302.0997977
300.8862062
300.7251828
301.6090933
301.2043808
300.9583597
300.4392538
300.4373606
300.7604742
300.6549447
301.2124295
301.2641103
301.6434789
300.8889527
301.1503784
301.64048
300.4639251
301.6171198
301.5969507
300.909881
301.1478321
302.7736106
302.5759073
301.1113517
301.3810715
301.1939222
300.0154157
299.6256922
299.8290821
299.7154058
299.6483918
300.1523267
299.6951907
300.3248447
300.0984937
300.054948
299.6334958
300.4474093
301.0242404
301.4343996
301.8531744
301.3922322
301.8031224
302.361871
301.66764
302.5995646
302.3853908
302.1778375
301.142863
301.0086891
301.6438744
301.865356
302.2140915
301.8536493
301.4585011
300.2335711
301.9518399
299.953166
301.0917183
300.7653277
300.9520568
301.2092668
301.1211833
301.2177079
301.7036106
301.9672959
301.9615483
301.6609974
301.0788279
301.9755285
301.9658154
301.1222752
300.3979979
300.1068541
300.3476301
301.608945
301.3419645
301.3481067
301.1768699
301.9979805
302.1514367
301.4582764
302.0241738
301.3816128
301.0413026
301.3714103
301.8004414
301.9461479
301.5987514
301.1130409
300.5766982
299.9836635
300.6881172
300.5452942
300.6898933
301.6656941
300.7786539
301.4802569
302.0243111
301.2339275
301.2080444
301.600568
301.1312356
301.7438561
301.4344953
300.8603142
300.9940814
301.3089212
302.1966698
301.5930752
301.5235234
301.7030816
301.3427094
301.0808175
300.0834231
300.6479001
301.8973988
301.5447071
302.0338901
302.2874722
302.2724331
300.8044097
301.3991967
300.9890245
301.2245716
301.5536055
302.6327925
301.7798126
301.6249613
301.8711662
302.2381178
301.4502053
301.9572559
302.4857764
301.6263952
301.7818787
301.113287
300.3563271
301.2593381
300.6483659
300.8835147
301.4233169
301.6032037
300.5685394
300.546262
300.8372334
301.0999104
301.1166828
301.1759274
301.3481973
300.3209975
299.7869037
299.9300259
300.26729
301.6453557
301.9116466
299.731501
299.684652
300.4975882
301.0823736
301.5834992
301.7330229
300.85464
301.1014456
300.7892795
301.3806151
302.0276861
301.6583145
302.8377839
302.7074474
302.7962559
302.0602598
301.818131
301.9812822
301.3139095
299.7983449
300.5599803
300.2098536
300.5215098
301.3354589
301.5024415
301.7832838
300.628886
301.2962266
301.8561668
302.3195511
301.6055634
301.4152015
300.9521293
301.2186523
301.7972372
302.2816906
301.1634171
300.7227905
300.7584372
300.5976078
301.4467692
301.9043209
302.0689904
302.4977323
303.0497526
302.3845915
302.2485544
302.7694816
302.2431889
301.7897445
301.8793623
302.0079817
302.0117725
302.1113752
301.6115432
301.6188978
301.1424106
300.7049157
300.1531318
300.9885686
302.0367398
301.676115
301.2386385
301.3652889
300.6155513
301.8077386
302.1441166
301.1321329
300.5069787
301.3332393
302.0888406
301.0772321
301.1958767
301.5319313
301.7324713
301.529884
300.5135807
300.2182063
301.1297204
301.5707797
301.2575205
301.1469813
300.925763
301.2520028
301.8642284
301.6183534
301.7451504
301.0876459
301.0576638
301.0232568
300.6930369
300.0220119
299.6804826
300.5106522
299.7318009
300.7323087
301.0250415
301.6941794
300.8715004
300.4672014
299.8069272
300.3451432
300.3172437
300.9029198
300.4527591
300.680982
301.1141688
301.2499959
301.1626515
300.9213944
300.9249653
300.396356
300.2193046
300.8534145
301.1486308
301.4220926
301.3425938
300.6969702
300.8122095
299.9472455
301.0515641
301.3784359
300.3055059
300.9220654
301.3793058
301.4406258
301.2845943
301.4729963
301.7721111
302.0682678
301.7237706
302.231884
301.2830752
302.0155818
302.6316673
302.0163487
301.1166774
301.3103182
301.4214184
301.1901988
301.4723396
300.7634931
300.58847
299.7227792
300.7147017
300.7002261
302.0819007
301.6105005
301.7859149
301.6450261
301.6592694
302.4387667
302.7122009
301.7012825
301.5035962
300.5277914
301.0612945
301.0705522
301.4978303
300.9984857
300.8381309
301.363381
301.1498206
300.9089417
300.691679
301.0149013
300.582535
299.6967838
299.8284446
300.0184637
299.9558265
299.7676307
300.578293
301.7213227
301.8468658
302.1821664
301.7001292
301.5880117
301.6547317
301.4093265
301.106091
300.2900684
301.148666
301.3175326
300.8593391
300.9943098
301.7899272
302.4684594
302.9517772
301.8833288
301.8494039
302.2730386
301.6102804
301.5904496
301.9364481
301.1475475
300.6177055
301.768255
300.4539589
300.7037753
301.7376704
300.8577759
300.2938281
299.3526161
299.3987392
299.625084
301.3164025
301.547723
302.1286486
302.0853955
302.2499052
302.138681
302.5047242
301.8140926
301.2684979
301.9455977
302.5761657
301.7088234
301.2033274
301.2589234
300.9336041
301.3713195
300.3770124
300.745891
300.7388316
301.2394631
300.7981604
302.1823435
301.7714601
301.6456423
301.5455375
300.934501
302.1590616
302.2379582
301.7641983
300.647901
300.3134988
300.0256748
300.4589785
300.8392664
301.2517801
301.2025017
301.7468544
301.6812828
302.3326395
302.8771104
301.5824152
301.110119
301.6325472
301.3366929
302.5655691
302.7400546
302.5175434
302.5613572
302.1349517
301.4835728
301.0038014
301.823636
301.6450375
301.7236795
301.3108553
300.8196885
300.9951689
300.0235553
300.0368032
300.0588328
301.8325019
300.8889475
300.9878186
302.0144613
301.7226012
301.6458731
301.3638117
301.5420627
302.3173623
301.188771
301.3296896
301.00469
301.1588274
301.0370998
300.8847566
301.5298091
300.4492809
300.2673301
300.6408761
301.7621003
301.8378411
300.7951873
300.1192782
299.9061
300.4392844
301.4579278
301.3918813
300.7711898
300.9346278
301.5921441
301.4932473
300.7904521
302.0016783
300.9748019
301.4412258
301.2605102
301.4302169
302.0735682
300.8215291
299.543031
299.1688987
300.6374312
300.8186068
299.9738535
299.8818554
301.4253968
301.7337279
301.5585775
301.7131749
301.1580008
301.0283524
301.101408
300.5424568
301.8345105
300.4245966
300.28434
300.015428
299.7047705
300.0981574
301.0084812
301.2444214
300.5624297
300.1440231
300.6668614
300.5275853
299.3912481
299.3248657
300.8289113
301.787524
301.5909639
301.7085503
300.7988588
300.6550812
300.0458611
300.0163885
300.4616068
300.33723
300.0528075
299.7493221
300.4574114
301.2626883
301.6830239
301.9001787
301.2510531
302.4179995
302.299698
301.5759948
300.023599
300.4498961
301.1481465
302.3921077
301.6721501
300.6180081
300.3820979
301.2302212
302.0117068
301.9340947
301.3065342
300.8710518
301.1408664
301.485582
301.4909762
301.5331846
301.4717013
300.3571484
300.9676371
300.8701137
301.007265
302.3111666
301.5847667
301.1932527
300.7406636
301.6130769
301.5131602
301.1891275
300.2302413
300.1061958
300.0600288
300.9061114
300.7856306
300.4369889
300.9154151
301.0232115
301.0005169
300.7904691
300.8084292
300.7593957
301.1533859
301.25284
300.9654108
301.1578521
300.4225327
300.3411084
301.0429334
300.6835553
300.4137037
301.1367032
301.2987038
300.5135034
300.5065269
300.5027545
301.3348899
301.2118406
300.4091321
300.6976397
301.6369017
301.3377106
300.6249612
300.4113155
299.8478295
299.6643992
300.1425542
299.9540103
300.7399851
301.1013087
300.4610639
300.5404188
299.5038967
300.7207543
301.9498686
302.1233454
302.070809
300.5614435
300.1279249
301.3785538
301.0109661
301.439203
300.7209653
299.5037774
300.8223293
301.4700917
301.3668241
300.8533174
301.3791251
300.6421765
300.3383903
300.9448313
301.910595
301.7369869
301.8103665
302.0625426
301.9821228
302.4363326
303.2945187
302.9975372
301.941424
301.9451824
301.3080411
301.855912
300.3699024
301.0746648
301.0369717
302.0465784
301.2593941
302.2246753
302.3038071
302.2289187
301.4644197
301.1019459
301.5594437
300.6256658
300.852241
301.3594626
301.5006888
301.2265022
300.8583399
299.8759672
301.3471825
301.7774468
301.9160665
300.6709232
300.9759293
300.7521723
301.6937129
300.5416998
299.8391947
299.7994842
300.3322216
300.2202085
300.3751829
300.7669193
299.6746291
300.2598988
300.5745978
300.6879961
299.9531522
301.0575246
301.2396497
300.6715832
301.1175934
301.6320097
300.9795305
301.195091
300.5729698
301.7399232
301.7798356
301.6760314
300.7286486
300.7956331
300.4485476
300.7867991
301.0821518
301.3089752
301.2692337
300.8109117
301.9724386
300.8799137
300.9471002
300.7355826
301.6157036
300.7328402
300.3033623
300.6245132
301.5088935
300.1390424
301.6188703
301.8006888
302.0182633
302.1044446
301.6912556
300.7190926
301.1512429
301.2434483
301.5289455
301.05644
301.5884351
301.1496857
300.8589059
301.7675078
301.6628437
301.2764875
301.4963615
301.5234336
300.217239
300.9472633
301.6232789
301.9908444
301.2860472
300.3196897
301.5762035
301.7301747
301.1102642
300.2847635
301.5052208
301.0614062
301.350229
301.2656607
301.1575391
301.2232471
301.1631978
301.8538567
301.9833827
301.9547614
302.0599239
301.113275
301.3122778
301.887195
303.0532485
302.0571381
300.5316387
301.273119
302.2838953
302.2667194
301.9584584
302.0627165
302.0874706
302.5834439
302.2517262
301.7500032
302.1451693
301.9755043
301.8846182
301.4519594
300.6047204
301.9171365
302.7008193
301.8993962
301.0868781
300.7948056
300.1992772
300.5795817
301.1593748
301.0555563
301.1974912
300.7311886
300.8078902
300.4974262
300.8391639
301.1440505
301.0435336
301.5141528
301.0772434
301.3133343
301.5195515
301.8546752
301.9019252
302.0683491
301.7353637
300.9271749
300.5270464
300.1170771
300.3502704
301.2341413
301.7512046
301.7305509
300.4263206
299.3266811
300.3241376
300.7916895
300.0938186
300.8096048
300.8109402
301.2475171
302.0176477
300.3855994
300.5188647
300.0339952
300.0687407
299.918884
299.8452241
301.1909812
301.5436794