/*--------------------------------*- C++ -*----------------------------------*\
| =========                 |                                                 |
| \\      /  F ield         | OpenFOAM: The Open Source CFD Toolbox           |
|  \\    /   O peration     | Version:  v1706                                 |
|   \\  /    A nd           | Web:      www.OpenFOAM.com                      |
|    \\/     M anipulation  |                                                 |
\*---------------------------------------------------------------------------*/
FoamFile
{
    version     2.0;
    format      ascii;
    class       volScalarField;
    location    "0.02";
    object      translationalT_O2;
}
// * * * * * * * * * * * * * * * * * * * * * * * * * * * * * * * * * * * * * //

dimensions      [0 0 0 1 0 0 0];


internalField   nonuniform List<scalar> 
5120
(
301.2482995
300.9424412
302.1951053
302.1168788
302.240229
303.8137972
302.5319559
301.694044
300.7930082
299.1876619
300.7350588
300.4868354
299.530585
299.5000954
299.3018913
299.2725644
299.8912652
298.1124514
300.1571272
301.7499702
300.1680197
300.8856931
301.6393664
300.3943234
299.9189216
301.2715371
303.3483771
301.7030665
301.2458543
299.5286071
298.5673848
298.7006288
300.4574301
300.2848042
299.7022756
297.8585571
299.9591244
301.6601023
300.7147725
299.7866992
301.4163774
301.4139858
301.2485158
301.8718258
301.0655038
301.162565
300.7750498
301.9273737
300.6829803
299.3535549
299.9149859
300.891219
300.6719277
300.4109011
301.4449438
302.362013
302.6832198
302.7136999
301.299908
300.6293582
299.242891
298.6502548
299.7477883
300.7288325
299.7369844
299.1409922
298.6985981
299.9040113
300.4427479
301.2344175
301.5115441
300.7441782
298.607225
299.3643132
300.2206972
301.776077
302.0566451
301.2582212
301.2009866
300.4826923
300.6856828
301.5804726
300.3946561
301.7281906
301.4221098
301.5588843
302.2624781
300.9635898
299.1438199
298.3556327
298.6387604
300.2180163
301.3498334
301.7286
301.8033303
301.0002681
300.8584446
300.2412795
300.4706095
300.0151592
300.7647623
301.9571529
300.6693685
299.7098367
298.2413849
299.3850146
301.8170304
302.8327766
301.8189253
302.0602588
302.52793
302.7952667
301.8594183
301.6066549
302.4053313
303.0005894
303.8182226
303.2522569
302.1086176
300.1525069
300.6221027
299.6415183
299.3255562
299.2368451
300.5004979
301.2986409
300.574929
300.4427443
301.4809729
301.6760309
301.5129294
302.0199959
299.2672776
301.2865351
302.4925791
300.8200658
301.2617576
302.0490583
300.4556384
301.2702178
299.7891417
300.8734057
300.2801531
300.0636136
300.1265074
300.8110229
303.1983379
302.1667146
301.8502275
301.4992334
300.0185443
300.9993391
301.0538795
300.9424216
299.2612254
300.8870206
300.5463459
300.7151944
301.3428106
301.4109214
301.4636411
300.346271
299.7764754
300.8295251
301.5030017
302.289032
300.071242
299.3732951
300.7658401
301.6258028
301.8125377
302.2626497
300.5994456
301.5094838
301.326409
299.4914623
299.8554386
299.9529208
301.1051279
301.2444653
298.7793567
298.6837774
300.1484391
302.0827275
302.0024382
299.9674593
299.862943
301.0393032
300.1095667
301.7110399
300.8513584
298.8463826
299.4178945
300.577953
298.7565499
299.7685095
298.2153042
298.0522736
297.9601879
298.4669358
300.0978309
302.8134083
301.9747709
302.4750126
303.4045966
303.2137449
303.1045533
301.8568706
301.5881492
300.9821862
300.0165849
298.7784834
296.6946196
297.2900033
298.200457
298.6769813
300.5418159
299.1855971
299.7090811
298.0625947
300.9827387
300.8128879
300.4256573
300.5900925
300.7093621
301.2459149
300.1694958
298.8081018
299.8024239
301.5737526
302.6179865
302.6152326
302.1950623
302.3603822
303.7855194
304.1559153
303.162817
303.0469236
302.6782412
302.4749781
298.8687202
298.688681
301.7779049
301.4477271
300.642117
300.7537721
300.0500699
299.6035104
299.817678
301.4006621
300.1341197
299.4821787
300.1687718
299.934685
298.9762911
299.1111672
298.7154941
298.8043018
299.7683557
298.1651027
299.9999074
300.9757639
301.1213389
300.8195954
299.7566495
300.797622
301.5108852
300.3252113
299.7667275
298.3977631
298.4976901
299.6071269
300.535905
300.5391449
300.9761208
300.6990116
301.3193102
301.615188
300.8493603
299.6031281
300.1855339
300.1917192
299.0457759
297.726897
297.8638279
297.0541779
298.2993886
300.0617082
301.8777938
302.3969395
301.252807
300.9048843
301.1455107
301.8069767
301.4441382
299.8394959
299.5424574
300.1177062
299.4295162
300.2408439
296.9191069
297.4333378
296.6172552
296.1993332
297.0876649
297.4818684
297.1100736
297.9746738
299.0919912
298.9095526
298.3097815
299.5635305
300.7090855
301.3170215
300.167124
298.9282783
297.7390706
297.937799
298.1658716
297.2899247
303.0593153
303.8867051
303.2343442
302.6536477
300.3775888
299.8324906
297.37902
300.1080867
301.3902973
301.7026842
300.4033231
299.4601472
298.5840229
299.5898788
301.5808528
302.7693008
301.0551119
301.6372874
300.3143672
300.9952714
300.1904091
301.0515724
301.6848189
303.6240154
303.0277868
300.9918781
300.1516545
300.9303881
300.2879188
300.0061142
299.3234475
299.5283392
299.1172824
298.7793986
298.7751671
300.3213191
300.0127374
299.4043276
299.1559625
298.9899981
302.1751699
301.7563772
300.9874382
301.7557833
301.0665881
301.0134952
301.3735475
298.8168763
300.6810983
301.2623342
300.507911
299.8041811
301.0166896
300.2971759
301.1537425
300.9741259
301.2895006
301.6039152
302.8245804
303.38787
302.9730374
302.1638378
300.6801652
299.8194313
301.8754863
300.9213773
302.5882371
303.1394342
303.4177191
304.5617689
303.3232728
301.4462211
301.6527415
302.3479622
302.5622556
303.5470222
302.7714949
301.8129117
300.6668157
301.7507771
302.608032
300.6024812
300.6287013
301.6365338
301.440989
302.189649
302.6435238
302.4941306
302.1617056
301.3582394
300.8096748
303.0710738
303.4573711
301.6903621
301.4721939
300.9000719
302.2697645
301.7590776
301.5402245
301.9564977
301.6625747
301.95853
300.9462763
301.7078788
300.8125613
299.1091851
299.3846728
298.8123851
298.4945944
301.2663482
302.6480724
301.5565743
300.182434
299.5541305
299.836132
298.9092566
299.3838972
296.8409906
299.4733603
301.359229
299.6610558
299.45267
301.3540851
303.0166299
301.3551744
299.8996807
301.0105586
303.2174841
302.4251873
301.1002129
300.7738074
301.4344324
301.2964581
301.2851838
301.6586526
301.3855742
300.6652677
300.8285307
300.2015534
300.6466873
299.9458677
301.7667679
301.1405643
300.8769499
300.1029488
301.0024119
302.5677137
301.5985871
300.0548486
300.0085886
302.2083844
301.6875646
301.2260035
301.7219045
303.034277
302.2240623
302.5873472
300.8400882
301.4808566
299.949909
300.6724295
300.1589071
300.2797592
299.2243475
300.2758183
299.0408355
301.2956312
300.5088005
298.9174876
299.6295991
297.9478128
298.624741
300.1696347
300.0683306
299.7541639
299.5966718
301.5527848
300.0396093
300.5922966
301.9009533
301.6360056
300.4231082
299.9192991
299.2943777
298.5797191
299.9858535
301.3936565
301.3898754
301.214417
299.073435
300.4902239
301.9180921
301.8376845
300.2455823
302.8251014
302.9973811
302.6573273
302.7035759
302.0499024
301.2208467
299.9295101
299.5227294
299.752041
298.9379794
299.0218084
299.5149368
298.9700045
300.6295779
302.0812331
300.6547646
300.1949945
300.7180447
301.0615985
301.4038118
300.7204599
300.6872555
298.276641
297.7920632
299.2127943
300.3732833
302.1946633
301.1721907
301.0554055
301.666483
301.8835297
300.5676166
301.1509957
301.055268
298.9293283
297.5177799
299.145091
300.738345
301.5657775
300.5811162
300.8052559
302.4609489
304.4592208
302.01922
300.0939958
300.0331954
301.7438869
302.2293824
302.1029291
303.0200676
303.1118132
302.962441
302.2678629
299.7773584
300.9205513
301.4585502
301.4195153
299.6721144
299.5778229
298.2552965
297.9554079
299.1651072
300.377838
300.5517108
301.1248443
300.8550776
300.2272956
301.1033882
301.4856912
300.3627074
299.4993027
300.2149628
300.1852417
301.5845273
301.3015543
302.1578165
302.0250879
302.3036261
301.0062227
301.7337949
300.1897868
299.9937965
300.4921771
301.2068504
301.3058771
302.0787565
299.4449915
299.4159249
300.1825106
300.5767222
300.4547971
299.0430121
301.1226669
300.1750992
299.9310123
299.202026
300.6376083
299.1742826
298.8599502
298.8108429
298.6138733
299.5642555
300.4610915
301.7492938
300.9769409
300.8166003
297.3950414
298.5153129
299.6783433
300.8340522
301.7885078
301.5525854
301.0686763
298.7966778
298.33553
299.524066
298.9118821
300.2507979
300.2790282
299.8531947
299.5232057
299.9363512
299.0649474
299.5003941
298.1139651
296.5057576
300.431842
300.3992201
301.5518425
300.6372333
301.0630175
300.7894158
301.6495511
302.0657364
303.1062939
301.1389816
301.1322361
300.0961115
302.476116
302.3888131
299.9881603
299.7486941
300.1053033
301.046697
302.0738701
301.23195
299.601067
302.1176933
300.6784463
301.6300606
300.5300498
301.0064386
301.9623183
300.0612304
301.8386954
302.0643646
302.9584552
301.5346391
301.2834506
300.0326637
299.0292519
297.4878343
298.6044557
298.5625841
299.1760522
299.3091284
299.5070469
298.9646473
299.4787958
300.2861965
300.5667912
300.2024182
300.2792237
300.3712764
298.2216068
296.6499853
297.9539865
300.0026757
301.00567
301.0826568
299.8146922
302.1498219
301.9023318
302.6789358
302.0455556
300.335027
302.1997209
302.5209488
301.7528363
300.1754522
300.1814581
302.3900833
302.0960188
300.6781736
300.9302041
302.066514
302.4999719
302.5178335
300.8975801
301.1413426
301.0688932
299.9465204
300.7373713
300.7576301
301.738055
303.1733581
298.5577242
299.784321
300.3841857
302.4486697
303.2272934
300.4519703
298.779829
299.7726914
301.9613003
301.5407497
301.0865576
300.3882278
301.0332601
302.0261927
300.6794914
300.6382714
299.620279
299.9174137
297.9332051
298.7090678
299.5789775
301.6059892
302.5824792
302.3318954
302.1308891
301.5164297
303.2855099
300.9861903
302.7924542
301.6124989
301.2522161
301.6986571
301.3461301
301.5013005
301.8192219
303.2462287
302.7756299
302.0951288
301.9255536
299.147016
302.4767393
302.1614947
302.5545853
302.872723
304.0098694
303.8509584
303.0551255
301.5836293
302.4717213
303.4089938
302.5590323
300.0509159
300.3543741
301.6887963
301.9807183
300.9489128
301.8522189
301.4925894
302.1502723
301.3606272
301.5374868
301.3257172
301.643045
300.7544607
302.0453096
301.9880392
302.0967668
302.4239617
302.1947635
301.8532262
303.316911
302.9410953
300.8772855
300.2387455
297.7179585
297.7682171
300.303415
300.9852252
301.0737582
301.4031356
302.2720475
300.96453
299.7014583
300.723901
299.7660925
299.6038253
298.666392
298.9660662
302.3174452
300.8784469
300.2103272
297.9598484
299.6738271
300.6904737
302.0816918
302.4396109
300.4184785
301.1427337
301.9846437
302.974332
299.2373834
299.6197437
299.1167452
299.8062023
298.4742667
298.3928307
297.6181618
298.8997326
299.9217955
301.6388266
301.1834235
300.1899922
297.7009826
299.7649646
300.5160166
299.7431618
299.4307591
299.0766839
298.8984208
300.7430168
300.0175199
299.0221173
299.2707549
300.0367312
299.249777
300.6207916
301.6774917
301.6078543
301.230427
300.9242288
298.877411
299.2447958
299.841799
300.0251794
300.0427022
299.9190401
301.0336663
300.9880588
300.4983533
299.8218595
298.418747
298.1254837
298.8482573
300.970901
303.1100375
302.1448937
301.764896
302.0893343
302.5845614
302.666916
302.2746868
300.151686
300.3992633
299.3898996
300.0760723
297.7969708
298.4423881
299.738506
300.8104233
298.7688177
301.9747523
301.7274015
301.2691461
298.4572968
301.1971179
301.0617737
302.0376504
300.6424763
299.3742972
299.2188492
298.270067
295.5916828
295.2679353
297.9946932
299.0584657
298.9142935
298.2242649
298.7020595
300.4386533
301.6879491
302.7923929
302.9621028
300.6341881
300.8164931
298.0713477
297.4625655
297.8370981
298.8757693
299.3397067
299.6790442
299.7284063
301.233085
303.3671434
301.3521215
300.1969082
299.7298789
297.8176597
298.29432
301.014506
301.1409957
299.8366326
299.6887458
300.4010684
301.5573114
301.4558971
301.2301771
300.1398029
299.7593601
300.0647259
298.7895733
299.2251302
299.8469452
298.7125037
298.0493879
298.9380299
299.7765973
300.6405456
298.7288337
298.4164735
299.6679978
299.6284186
300.2558219
300.6811045
301.4439316
302.1572221
301.5727642
300.8550942
301.9709904
299.8240026
300.0041564
300.4387723
299.9383898
300.3560216
301.1725297
301.6458721
302.0496792
302.5412647
300.354591
300.4999919
299.4247078
299.7727639
298.9705172
296.2296894
296.0749365
298.5942563
299.9508732
300.9914571
299.676764
300.1544148
298.8715117
300.8917098
302.1905975
300.7062599
300.9604979
302.6085966
302.6355314
302.1277169
300.7305715
299.3603376
300.2335986
301.0446809
300.5288427
299.6968563
301.4534109
300.3244244
300.1403424
299.8688954
301.4567978
300.8519571
300.3365544
300.5309717
299.9828998
297.9211207
299.6701048
300.6827478
300.5341152
300.6706879
301.2055126
300.1503163
300.16818
299.6500675
300.063165
301.2257187
299.1472031
300.5025077
300.1594475
300.9299822
300.3080624
299.5070596
300.3279896
300.6762132
301.6415171
300.2513315
301.3175885
301.2787412
299.6823917
300.1606732
299.0994024
299.6551034
299.6127525
302.4841659
303.3326428
301.6624427
301.1588205
301.5115795
302.1305058
301.6530943
303.7540434
304.4458332
302.6251199
302.1981508
302.6027976
303.3254048
303.4265175
302.6288667
303.8995976
302.4629066
302.6683321
301.3667223
301.5255954
299.1128534
298.8173163
299.4159376
298.9309492
297.4971603
300.0002253
300.6385894
298.9581448
299.8708382
298.7114855
299.1982218
299.991134
301.1278258
301.0447517
301.1445441
299.0339909
301.0781603
300.4106698
301.9409513
299.8866628
299.5366531
300.3978787
302.0629052
300.9668484
300.518684
301.778153
301.0811302
299.2001734
298.3508602
298.4103712
300.6994629
300.3974066
302.2789413
302.299541
303.0370699
302.3712283
302.2624409
303.0420642
301.8037629
301.8154065
303.3567651
302.95487
301.3828798
300.4390309
301.2465762
301.6880445
303.1472205
302.0789776
300.2286898
299.1106934
298.0859051
300.261273
300.0330407
300.9768721
301.8020775
302.8262391
303.5370764
301.9003307
303.5557703
303.5792427
298.4862889
298.9277013
299.5543932
299.3638277
299.3837709
299.292384
300.0543784
300.7787055
300.2186699
302.4019039
302.0761734
302.0281995
300.9818687
302.4906444
301.1992296
299.2890614
298.9802437
299.4148215
300.1111469
300.3046829
301.2839948
302.7689702
302.9869643
303.6110725
302.3372005
302.0455658
300.6263242
298.9112791
298.6562814
298.865621
301.8201122
304.0472212
303.1893816
301.1545027
301.3332264
301.5992364
301.7160333
302.3254136
302.2045343
300.9567074
300.3276924
301.1589049
301.7214742
299.2734083
300.1913262
300.2294476
298.1403793
298.8198955
298.4628976
300.5538654
301.7725395
302.4494795
302.2990688
301.2083529
299.9286878
301.3681828
301.6346508
302.868043
301.9210983
302.2507569
300.9011065
300.5485841
298.9388384
300.919411
300.7565699
299.8777144
300.6522189
300.0968083
300.075003
298.5718666
298.9100211
299.7464685
298.4717636
299.377143
299.4792363
299.1249192
299.6504342
300.6309122
299.2686959
299.0684637
297.7636662
299.0628778
299.0481261
297.2077289
297.5549958
299.4374318
300.5140972
300.3554049
300.3862283
299.7753895
300.0565166
299.9194921
299.5348128
298.7437739
298.998755
298.98567
298.4652347
297.2621546
295.450022
298.4191788
301.1953403
300.6893351
301.812278
303.1802405
301.1945012
298.6568603
299.8003896
302.0071363
301.5695709
301.3420583
301.1873864
300.9297929
300.7039942
299.975647
299.3224502
298.7866915
298.3072423
298.5816197
297.5670122
298.9607647
301.0115507
301.9100503
300.0537842
301.2880348
301.9952983
302.7714644
301.6147175
301.9352291
301.1351478
301.1661054
301.4457524
303.4607137
299.7996786
298.0685392
298.3308175
298.4733866
299.33865
301.3104581
301.8916383
302.9745362
301.3045074
300.3425925
299.9953293
300.0610977
300.9336834
300.926263
300.3714366
300.4377632
299.026104
301.0053297
301.4207219
301.1490815
302.0541172
303.2697222
301.6065138
302.1632566
302.3839915
302.6422978
301.4308527
300.2049214
300.9122327
300.3686914
299.6279398
300.2012069
300.0320922
300.2566469
300.140208
299.7150945
300.7796
301.6966338
303.1130671
300.4988349
298.2509669
299.548954
299.5914456
299.3223497
298.5123263
300.6057876
302.1576671
301.7923599
300.5023523
300.0880364
300.8920732
299.2848651
300.7307163
301.5235993
302.6237324
304.2992086
305.1259984
304.0637022
302.5283473
302.5034186
301.5110717
301.1476166
300.8895666
301.2594551
300.1031495
301.8271315
302.3486501
301.6832965
301.3193353
301.1686245
300.6393076
301.0924471
299.8190858
300.524024
299.6557696
298.0830664
300.8188305
301.42697
301.4212315
300.9797627
302.2046119
302.5414961
302.3650743
303.6999707
302.9493607
304.0080779
302.5975746
301.6340716
299.5454938
300.5861692
301.2306457
301.9404243
300.4949951
299.979668
300.8310449
300.7242736
300.6717417
300.5677296
300.5309566
300.3192449
301.5708817
301.9144807
299.7400286
299.9354082
299.7785607
301.1025244
301.9766674
300.766898
301.2307557
301.5700101
302.1597675
303.9668029
303.7257972
302.0433616
300.050756
298.7605872
299.9662556
301.2177288
302.8406436
303.9313542
302.755873
300.7453921
300.5626348
301.7637751
302.6648129
303.0794736
301.7448297
301.3463013
301.7252298
299.7181184
299.132635
300.9805867
301.1562084
299.2479619
299.7956844
301.0752796
301.4242696
300.1369173
299.6049432
298.7956828
299.7860194
300.7905348
301.5835831
302.0382497
300.9600568
300.4446634
301.0962667
302.2220681
300.4988658
299.9199714
299.3083045
299.5583933
299.6150129
299.5395569
299.9378299
301.0029371
300.7915963
301.6207626
298.8206144
299.2051738
299.090825
298.7300718
298.5012326
299.1770005
300.7565069
302.3187224
301.8302866
299.9260988
300.8110651
302.588989
301.2427743
300.1453347
300.2173941
301.0831405
300.0221078
300.2694664
300.644218
301.3280508
301.0576682
301.1757209
301.335859
300.8852748
300.5102217
300.840505
301.5960816
300.1475193
299.2006845
298.860389
299.9944952
300.4998485
300.6656228
301.2202097
301.7963683
302.9853915
301.2683583
300.3442968
301.8904146
302.708905
300.3436074
300.3353799
302.6828579
302.3611525
302.660241
300.1515556
299.7829946
299.4315098
299.5918978
301.8988434
302.3065033
301.5163372
302.0501613
299.2790613
299.4908952
300.516303
302.4145765
302.8044089
300.9861449
300.9387757
301.8174676
301.6321928
300.4249162
301.757896
301.6385415
301.056545
301.5381777
301.5335197
301.1741676
301.0306231
302.3794389
301.8090206
301.5233495
302.8473509
300.8997096
301.6142389
300.5420262
302.3290763
304.0162205
303.3745802
301.6021327
300.472176
300.2087868
303.0912372
303.4718045
302.3981692
301.2785473
301.7770972
301.6966042
301.5689066
300.9311544
300.9955662
301.5633032
301.5183644
303.4267427
301.249814
298.6286635
299.5654079
299.8260361
300.3333057
301.4477187
300.81267
300.4650405
299.9632797
302.1036006
302.0335337
299.7174406
299.4516601
301.0203652
301.5484896
300.3415667
300.1087178
300.4360995
301.3858882
301.1685399
301.1607184
302.2276054
302.1502153
302.1005424
302.4995997
303.3831309
303.4808528
303.2097896
303.6103935
304.1989694
302.163547
301.5872107
302.7545823
300.1721434
298.4191094
300.8957712
300.7639086
301.9884365
301.0262076
300.9210184
301.6546702
301.4558712
300.953545
302.0093977
302.9510692
302.0831902
301.3195055
303.0502228
302.6029434
300.9500299
300.1287055
301.4975085
301.3876054
301.8680914
302.1444805
301.3010852
299.8919115
301.9575828
302.4372312
303.0369932
303.0487636
302.3766427
301.0831163
302.0947265
303.0864547
301.5556724
300.8109669
300.677823
300.9329218
303.7009372
304.3078947
302.7862569
302.5091451
301.0707427
300.6212482
300.4347237
301.0214505
299.8117795
299.6810698
299.9403573
299.5555199
298.9622314
298.7198262
298.8719048
298.2847816
299.851128
301.5048063
301.3289232
302.2914969
304.3327699
303.9099671
302.4197275
301.428904
300.4566169
299.6165916
302.6730578
302.1812364
300.0239467
301.6820309
299.299382
299.8478626
300.1103192
301.2942995
302.1399624
301.6799338
300.9320171
300.667974
303.2823601
302.4456444
303.2182452
302.5732733
302.3976629
301.5872431
300.6355661
301.8427197
300.37241
300.4506818
300.7468348
300.8323278
301.2427873
301.6447871
301.2001521
300.8576788
300.7431257
302.3116598
302.6443897
304.1076877
304.5418917
301.2428555
302.2777198
300.8260536
301.3659699
302.212045
300.9149844
299.013638
300.4302047
300.0727529
299.3403589
299.1505394
297.1681357
299.2876638
300.3357813
301.7100346
301.7899085
302.2979613
302.8428266
301.4541501
300.1177533
301.863875
302.8708731
304.3629855
302.1033008
299.6492036
299.527482
299.6060453
300.0071601
299.3492641
299.3227899
300.4235294
299.8907648
300.2628506
299.0602425
297.5279371
299.2079081
300.4499903
300.824884
301.391241
301.2136165
301.0137979
303.4074739
301.4101227
300.9416768
299.7258572
299.3106755
300.2796215
301.4918134
301.6051126
301.7368219
301.2325452
300.9990512
300.7216776
299.3468333
300.3316668
299.2071808
300.5555115
300.8614941
300.7144022
301.7944609
302.3296975
300.6825061
299.7570151
299.8611805
302.3778731
301.7287046
301.0573285
299.7289879
297.8381855
298.3534321
298.0590981
300.2941583
301.792124
302.7555217
300.7458467
300.1379216
300.8640379
300.9238185
301.194979
301.286385
300.4278074
301.6969043
301.820266
301.397435
300.5388519
300.1336209
300.2188845
299.829253
300.2323208
302.5733112
303.4406932
301.5987275
299.7762065
299.0086845
300.5215092
300.398154
299.8854465
299.5237542
302.5111566
303.0534205
303.560655
301.5447096
301.1899212
299.7872314
300.9997681
303.4920138
301.9361514
300.9592095
301.2707152
301.4249256
303.3448514
302.5965762
299.7210544
299.8300803
301.029333
300.9844546
302.6893422
303.1038092
300.5829207
299.5089235
300.0460197
302.0064092
302.6543564
302.1253587
301.6467285
300.1295878
300.1958558
303.0508018
302.2071104
302.4150576
301.5652858
302.8745565
301.1450887
302.3358691
301.2404088
301.1666478
300.0424856
298.9486523
299.8362123
299.3945205
299.7391535
300.8584254
301.354025
301.4689115
302.8079896
303.2552239
302.9900947
302.0049661
302.2402832
302.216132
302.8626388
299.9971752
300.0199402
300.1507213
299.3976927
300.5106902
300.1158971
300.1065261
301.0216075
302.8097574
301.5040628
300.6682104
301.2128951
301.690813
303.4035957
303.5576987
302.7725431
302.0275053
302.0204718
301.9343161
300.8260325
301.0799819
301.8530523
303.5188199
302.6374865
299.9470448
297.6663903
298.1834337
299.7357549
300.0383992
300.73116
300.4783085
300.717558
301.0254344
301.6106855
301.4306587
301.1469996
300.2381915
298.8916232
298.9066444
299.9186728
300.829471
300.4287711
299.402091
300.1996367
300.2128428
300.2298449
299.0971549
301.1369488
302.1150269
301.6701528
300.2446716
302.5899727
303.9981828
304.2021505
302.679522
301.8001188
303.1004307
302.4025081
301.5157528
300.180586
299.6020048
300.6060697
301.5760758
302.6550498
303.6120308
302.0895217
301.6368413
301.028511
302.739321
302.167344
301.8863691
300.9157602
300.7911408
302.31566
301.6021817
303.3397145
300.4010197
300.1272913
300.4413998
300.628856
300.6860923
301.5892241
302.2620116
301.0767603
302.0015959
300.9050705
302.8075019
303.7339375
302.6109598
303.1162679
302.0872573
301.6983391
303.6288023
304.1192876
304.3656338
301.8290344
302.1990828
301.976703
301.0536238
300.6524623
300.2952759
301.0332175
301.7654446
301.6443127
301.6820789
301.8718037
303.2738426
302.0856272
301.3574923
299.6334535
299.5777707
299.8209931
301.9931103
302.5077305
301.9605124
301.1782518
300.5796293
299.4180346
301.1475236
301.773327
302.9856054
301.3731801
299.916739
299.7868782
300.529338
300.9261345
300.4755325
300.7905791
299.5019364
301.555625
298.8524169
301.1876991
302.0313764
301.7248682
302.1870046
301.6195911
302.142155
302.8335266
301.901406
300.5179547
299.2198626
300.1362873
299.9253448
300.0434095
301.0648296
300.484148
302.9927105
302.7547052
302.873082
302.1273674
302.2549113
302.9206978
300.7876044
300.0766035
300.9758126
302.2925739
299.1251619
301.1004551
301.4164732
300.5629297
301.0795482
302.00232
302.7052004
302.883391
301.5502714
299.9159065
301.286092
299.7501718
299.6795608
301.9981303
301.264562
301.6978477
302.3321433
302.3196562
300.5135297
299.6721503
302.1864729
301.6956137
301.2942861
302.3927179
302.8637865
301.8596595
302.8693599
303.9431983
302.5778911
301.6316581
302.127853
302.1919567
303.2370009
303.3518291
301.76297
300.7235046
301.3370005
300.5316876
300.3162748
300.7658588
298.5802027
297.9877577
296.1121478
297.7090133
300.5848526
298.865566
298.0587124
299.0449869
299.9158799
299.6527845
301.3132423
302.8532993
303.3720063
303.1395177
301.4169745
301.4233178
300.4645948
300.3611116
300.5180822
299.8804498
302.64495
303.0933076
303.5310704
302.227401
298.5982586
300.2674356
300.9972388
302.9496081
301.8205085
302.3039675
302.9551721
303.0630994
301.1197271
301.5790953
301.5953823
300.8620002
301.0114331
300.5884431
300.6594454
302.0826989
301.4863142
300.3579968
300.1377261
300.423539
300.1773356
300.4395411
300.8119683
300.9545587
301.0337304
300.9063313
299.6204744
299.9523659
300.8195997
301.7589982
302.7017301
302.65756
302.5980453
302.8385809
301.9796374
302.8144291
301.8047546
302.2256017
301.9527711
301.2111056
300.703358
302.2737291
302.0433005
301.8278116
301.6639699
301.8702326
300.9099597
301.4282702
301.173945
301.9107138
302.6070254
301.5224128
300.3850969
299.2512007
299.8896402
300.6065145
301.7769095
302.1725474
301.3799656
300.3751821
299.9187433
299.8442191
300.8342926
301.7274736
302.0202036
300.6754541
299.87543
301.1231689
301.1408347
302.9187638
302.8189014
303.8688408
303.3728818
301.1505114
300.9365542
300.989235
302.6553559
302.0895032
301.2725498
300.4627975
301.2179953
301.7712275
302.9161665
301.8783773
299.6585346
300.3706311
301.451165
303.5970805
302.7743409
300.0755699
299.9878111
300.3587085
300.0213456
302.8405602
303.272221
302.3440392
301.5151393
300.2633364
301.2816626
301.5053413
301.3210572
301.6135139
300.1929479
298.9171389
300.4925653
302.3074172
302.768563
300.9399792
299.9062652
300.8307105
303.527856
303.9179389
302.7776628
299.6639379
299.6280535
301.0911845
301.601425
300.6254074
299.5010923
300.199752
300.3414542
299.8969889
299.9125308
300.1348417
299.5864604
298.9350609
299.1691214
297.52939
298.2549939
297.7518949
297.6736402
301.0522048
302.4282449
302.6630741
302.0209094
301.681453
302.6037159
301.0177817
299.3033532
299.1521961
301.4832308
301.231046
299.6224046
299.8835871
301.1531002
301.034117
301.3948847
301.5818627
298.6895396
299.2855231
299.3717362
299.4717424
301.38932
301.9464585
302.3804584
301.8036018
300.9644586
301.6596667
300.4259756
302.4666461
300.9783054
301.0243069
300.1670802
299.2088083
300.7883866
302.3279785
302.1321095
302.0203249
302.6447498
303.2381602
303.4201465
303.0067599
301.9016892
301.8754812
303.187899
302.422297
302.7249468
302.180828
303.1747363
300.7572029
300.8199558
301.1648427
299.8122045
300.2227285
299.0889597
301.0822192
301.7300638
301.5637946
301.860948
301.3453869
300.4791265
301.8340376
301.7216671
299.4845119
298.5394837
300.4948464
301.7485457
302.3439596
301.7504733
302.1500058
302.3178174
301.7036898
301.7658594
303.0038019
301.6730704
301.4096615
299.5037826
299.211047
302.7114315
302.325967
302.3881125
302.4850544
301.1321721
299.3841606
300.8606305
302.8662823
301.1571958
300.9671147
300.8672568
301.6030904
300.7760959
302.0908788
303.2509213
304.5118178
304.1822167
302.444727
301.785911
300.5150748
300.0956785
299.6977486
300.4845143
302.1944526
303.8340955
303.0275523
301.2086503
299.9259376
301.4021091
300.8706801
301.7943483
301.9125845
300.6258971
300.3750528
300.9459985
300.8035616
299.5403607
300.9504932
300.4734305
302.5336329
303.4403553
302.5789561
301.3239689
299.5185083
298.8379714
298.5285612
301.9757532
303.182429
301.5354184
301.3104332
300.5367029
299.30187
299.6537835
300.4492149
299.0522023
301.0699761
303.4131757
301.2330012
301.0421347
302.0417704
301.0767479
301.8378253
301.9248306
302.1346304
302.0591754
299.8547793
299.040527
298.9576319
300.4077325
298.8116334
299.1234171
301.07756
299.8732234
300.1024394
299.5890832
299.5879407
300.062068
302.7564532
300.8498382
299.4451841
299.0571754
298.6720522
296.9928302
298.7369769
299.8535637
301.4174754
302.3836815
302.1240447
298.8973857
297.5088204
298.0800894
298.2302122
299.863684
300.4359883
301.3082397
300.1204728
302.3577445
302.0337616
300.6343366
298.8913969
299.204437
298.8926594
297.925615
297.6499634
296.7259845
296.9932272
297.8122817
298.3326837
299.6156842
300.8433128
303.6896006
303.5530417
302.7772432
302.0565248
301.8542863
301.0204371
300.484617
300.7420843
299.8934188
301.8465485
302.6801938
301.9126508
301.4036282
301.5375516
302.228712
301.6846114
300.9040782
300.1367091
303.7932151
302.3366226
301.3237181
300.6544047
301.5609289
300.0333439
300.0188808
298.7374253
299.3028786
299.1052561
300.5590048
298.7754479
298.6630228
299.4278755
300.5452541
302.0427565
302.0797546
303.1533014
302.5925563
303.6468566
301.0053868
301.5704568
300.9425257
300.2151916
300.1104493
302.3379212
301.5259628
301.5456134
303.5613358
303.4467726
302.0005848
300.8799426
300.944593
298.6279534
298.6067973
298.6801326
299.5530486
300.3230734
301.8533874
301.6626053
301.4847874
301.2687827
301.3396299
300.4366957
300.4665033
299.6742099
300.2101191
300.9132724
299.9411219
300.4338026
299.4856382
298.653165
302.4773474
303.4628452
302.0035324
301.1367037
302.4386705
301.2957363
301.2103197
301.850057
300.1139431
300.6221064
302.630641
303.9870928
304.1053851
304.7254866
301.105416
300.2061641
299.8931816
299.2923712
299.313623
301.3004271
302.5795831
302.4577099
303.126362
302.192301
301.3705557
300.8715541
300.7348605
300.8859208
299.5336942
301.3392908
301.6446041
302.3305521
300.7941367
299.2300962
298.2451818
299.1217336
298.8106534
300.3396117
301.0083495
301.7694046
302.281221
302.2877492
303.4772145
302.738785
302.1682915
302.6883203
299.3281429
298.5782203
299.6914835
300.9171741
301.8664873
300.7268615
299.8509046
300.2454852
298.9509121
298.7670675
299.0060538
298.415381
298.8621029
299.3182005
300.503984
300.1187196
299.8218977
299.5975367
301.7933676
300.5800903
300.451368
299.5921013
299.4053079
300.7745423
300.6211406
300.4419525
300.1779738
298.8924168
300.3350895
301.3521335
301.905201
301.7812761