/*--------------------------------*- C++ -*----------------------------------*\
| =========                 |                                                 |
| \\      /  F ield         | OpenFOAM: The Open Source CFD Toolbox           |
|  \\    /   O peration     | Version:  v1706                                 |
|   \\  /    A nd           | Web:      www.OpenFOAM.com                      |
|    \\/     M anipulation  |                                                 |
\*---------------------------------------------------------------------------*/
FoamFile
{
    version     2.0;
    format      ascii;
    class       volScalarField;
    location    "0.02";
    object      translationalT_mixture;
}
// * * * * * * * * * * * * * * * * * * * * * * * * * * * * * * * * * * * * * //

dimensions      [0 0 0 1 0 0 0];


internalField   nonuniform List<scalar> 
5120
(
300.7952056
301.0502824
301.5619691
300.8322947
300.3867363
300.7206212
301.2336787
301.5713975
301.1292924
301.1988674
302.0557788
302.1050998
301.0246018
300.8764157
301.2089497
300.8782081
300.8003988
300.3510157
300.1723883
300.6861884
300.4133544
299.9869935
300.2089102
300.2980065
300.798021
300.6234229
300.8612544
300.986462
300.9837447
300.2289445
300.5902112
300.8980664
300.5244846
300.6415185
300.5159505
299.7052975
299.7369036
300.7616367
300.5498944
300.215199
300.9664817
302.1113233
301.2075239
302.1902375
301.5230758
301.0550161
301.3156641
301.9551302
301.2232759
301.0062762
300.7226179
301.2383548
301.2908058
300.4859361
300.5751202
300.9952917
301.1908744
301.0790745
301.0234965
300.9512038
301.207299
300.0039251
300.7315698
301.5725459
300.2163516
299.7779847
300.0230877
300.4059681
300.8731401
301.3118068
301.1675752
300.5058458
299.4629814
300.0415715
300.0211453
300.4430356
300.8517095
300.8999832
300.5647819
300.3958694
300.7787104
301.352469
301.0002242
300.7711203
301.391971
301.2232477
301.5759214
300.8544761
301.1518859
300.9546769
301.3257662
301.5108355
300.8691163
301.0176565
301.2711494
300.4967124
300.4239187
300.4239274
299.950731
300.9274078
299.5927675
300.359149
301.1560738
300.2841686
300.9703255
301.484596
301.7589884
301.6777416
300.891744
300.9098271
300.6983536
300.9722234
300.8678598
300.6166795
300.7208305
300.7825039
300.66199
300.3057048
301.0132661
300.0269223
300.3845378
299.3276918
299.0988165
299.5385319
300.2920588
300.4007628
300.1978412
300.8065745
300.834141
300.9244635
300.416234
300.8233776
300.7134458
301.1339848
300.9246808
301.1450426
300.9815596
300.6343985
300.421371
300.5572864
300.7471592
301.7005261
301.8726672
301.5301957
300.3862589
300.7758504
300.9518118
300.8201053
300.6905471
300.8613701
300.8620703
300.737147
301.0732569
301.4231557
301.7292728
301.8284835
301.5396577
301.5222161
301.7883986
300.8415066
302.3231252
301.6150898
301.5118559
300.4947993
300.7167042
301.480205
301.0431447
300.4778831
300.2300885
299.8377689
300.6360356
300.6263745
300.3761338
300.6742877
300.685345
300.6358737
301.4476625
301.0437156
301.3276309
302.3735307
299.908121
299.3009312
299.8064367
300.8804546
300.8251676
299.878499
301.6065932
301.4934388
300.9110239
301.0049628
299.7917356
300.012856
300.7930986
301.2157036
300.8873004
301.0174005
299.3430204
299.9419575
300.0831774
300.323916
300.2342203
301.6386584
300.8892898
301.7785451
301.5016087
300.9276217
301.1305645
300.1863868
299.3140455
299.6342057
300.6475881
300.3027915
299.7144978
300.1071535
299.7618586
299.5385105
300.1753787
299.8458557
299.2705225
298.8998548
301.2552596
301.4197102
301.1132649
301.5168526
301.3756463
301.6876567
301.3580513
300.1086427
299.555475
300.1552752
300.0470344
301.0649733
300.5505657
299.8710405
300.8276389
301.0422072
301.1008335
301.1565447
301.0762373
300.9137753
299.6902995
300.3326174
300.9739045
300.8546868
300.9385441
301.0314805
301.170374
300.7495993
300.626988
301.1173726
301.1224971
300.8415153
300.9429348
301.2846486
300.4203772
300.1068023
300.2393742
299.6875764
300.1249133
300.0503532
301.9686712
302.401364
301.7117683
301.8522603
301.2383283
300.8263113
299.8125553
299.8104868
300.1572129
300.1214478
300.4278633
300.5451626
300.9885128
301.6013201
301.0585601
301.1314468
300.3638413
300.8127074
300.9718372
300.3175531
300.171523
300.8470945
300.6794748
300.4042664
301.0447359
301.187488
300.7996854
301.3908644
301.7970921
301.7439035
301.5479663
301.4746127
301.4045787
301.5481099
301.3956371
300.9375446
301.3396118
302.0349039
301.8143058
301.2283029
300.8297885
300.8445794
301.0085134
300.6687134
300.8675917
299.9331362
300.553955
300.6347538
301.1229716
301.0064826
299.5694669
300.0556325
300.8117067
301.254173
300.1956757
299.7535622
299.846854
299.736977
299.5705115
299.7839795
302.1892273
302.0424147
300.7979849
300.2805577
300.2646707
300.9103098
299.7729827
299.8852654
300.5133541
301.0769378
301.0118576
300.9755134
300.89403
300.1079919
300.9513582
301.445152
300.4173398
301.3113845
301.4097368
301.244399
300.5872312
300.1600149
300.9839387
302.259845
302.4497663
301.7319854
301.5944925
301.3295813
301.2972534
301.3289232
300.7028278
300.9772607
301.6539327
301.5002091
300.628715
300.6974072
301.5389038
301.3089757
300.3515101
300.084312
299.998078
301.0926481
301.4248055
301.3352775
301.4702194
301.57165
300.7772428
300.073525
300.6498277
299.7438771
300.2361894
300.6348452
300.931784
300.9740342
301.2348523
301.7779407
301.3808911
300.6506051
301.2404386
301.0123851
300.821354
301.2452058
301.3763208
300.2505267
301.2502317
301.4525049
302.4344171
301.9918729
301.8034792
302.1095548
300.9589768
299.5053133
299.8957815
299.9829139
300.7531983
301.1662239
301.0430016
300.3166798
299.9714828
300.1426702
301.2569903
301.0279011
300.2224024
300.1245683
300.3548064
300.6370571
301.8615505
302.9102685
301.7622916
301.0989803
300.8566691
301.4357722
301.9587738
300.8050158
300.3374094
300.5497824
300.3889059
300.2235937
300.3270345
300.957697
301.3380068
301.314763
300.8844993
300.8190185
299.9815926
299.6144743
300.1380593
299.3012466
299.3261592
299.8674009
300.8566787
300.3703494
300.1332403
300.5339401
300.6050519
299.745128
299.2987061
299.4599451
299.536953
300.6577033
299.4611708
299.018187
299.861201
300.6564789
300.2303203
299.8779279
300.4911293
301.0356883
300.7245438
300.2878802
300.9639311
301.289393
300.6199556
300.978241
300.3147555
300.8910489
301.3248258
301.0613863
300.6934372
300.5510474
299.7915994
300.3517539
299.4489312
299.7820596
300.1048945
300.2089362
299.7084244
299.6336175
299.9397641
300.3113299
300.8967034
300.6691366
301.1015687
301.4712772
301.5132576
301.0566629
301.1029658
300.1613651
299.9342737
300.4219613
300.2382353
299.9392679
300.1553263
299.8997177
300.3612808
299.723661
300.2957805
300.0802415
299.3967587
299.6998956
299.8965895
299.1916279
299.8784957
300.4512115
300.6201423
301.1138891
301.3444037
301.0603978
301.3596649
301.4698558
300.643745
301.0725312
301.2406118
300.5813879
300.4538113
300.5742818
299.4810283
300.2756125
301.0580736
300.5943078
300.8616713
301.1669546
300.7097272
300.3209985
300.9171233
301.5318774
301.3164844
302.3653503
301.750832
301.0569263
300.9622175
300.4980209
300.490832
300.6405908
300.4698381
300.5676171
300.5308221
301.7213047
302.301473
301.635101
300.8419074
300.0218968
301.0693452
301.3734639
301.5696691
301.5154009
300.5408517
300.0403536
300.6682996
300.6314306
299.8390616
299.1385311
300.2945276
300.69554
300.6893929
300.1212296
300.3991547
300.4119726
299.59733
298.8117243
299.8078562
301.1603114
300.7385749
300.4867961
300.1192156
300.5513259
300.7029199
301.0201947
300.901339
300.0939294
301.1849822
301.1687603
300.7007648
300.9172878
300.7453797
300.7166372
300.3801906
300.6385801
302.2643886
302.5452385
302.0374258
300.6099843
300.2939075
300.0997281
300.380901
300.3883772
300.9080374
301.0556291
300.6891238
300.7289003
300.0506393
300.0571435
300.397897
300.7894403
300.0680746
300.4679512
300.4714038
300.2408756
299.9973169
301.198861
301.3660089
301.9384186
301.3434693
301.5228982
301.0399955
300.6540419
300.9938095
301.8990302
301.9540551
301.7276653
300.2379127
300.5307105
300.1825013
300.5453077
300.4856887
300.8481023
301.2501495
301.8436365
301.174818
300.8631078
301.0742268
300.670343
300.4622243
299.9323238
300.132136
300.779072
301.3594073
301.2627973
300.8678263
301.1119562
300.256054
299.6493796
299.7117749
300.1736226
299.9883927
299.8161363
300.239831
300.4129409
300.1039058
299.8776123
300.59958
300.9945851
300.400345
300.4031006
300.603595
300.3660896
299.8397643
299.8035599
299.3604506
300.0573783
299.9585085
300.285932
300.5867751
300.3231029
299.7707499
300.4679749
301.0098831
300.5312676
300.7286078
300.1608971
300.370439
300.5712906
301.5773062
301.7102482
301.84011
301.5940376
302.0459747
301.6619676
301.0434954
300.9315589
301.0600245
300.9410684
301.3988663
301.3696177
300.8907937
301.7361006
302.216267
301.5551013
301.6853052
301.3411675
302.1935349
301.8308516
301.7083919
301.3451286
301.4958841
299.953157
300.014638
299.6281814
300.8144398
301.3004237
300.795572
300.5461879
300.3565757
300.5941315
300.7746548
300.6096886
300.9720182
300.6715987
300.0485779
300.0314437
299.9608832
300.3726914
301.1915618
300.4797919
300.2578223
301.0210154
301.6959664
302.0807229
301.2193791
300.3955355
301.2006108
302.2892364
302.528647
302.5456937
301.6619804
301.1482713
300.2910672
300.1393169
301.1015947
300.9181289
301.2838966
301.0001244
299.5463301
300.2789405
300.6501084
301.0042917
301.0121778
300.1683746
300.8346376
301.0398228
300.4381313
300.4532903
300.3635429
301.1926238
300.9421993
300.9557291
300.2075995
300.4853897
301.1097737
300.9161102
301.4699982
301.0425845
300.5444673
300.5953219
300.3201335
299.9717462
300.1095191
300.501175
300.6368887
300.3612057
299.9501199
300.709651
301.5599906
300.8243262
301.4792185
301.1788838
301.43682
301.4544825
302.5336798
302.341984
301.3110269
300.9138661
301.3253342
301.1551293
301.2252267
301.0836079
301.3282062
301.2707541
300.3912819
299.559238
301.3715097
300.9581251
300.7792418
301.1693064
301.0268471
300.3699358
300.3917468
300.8345146
301.4244783
300.9924452
301.1920136
300.2373378
300.9898777
300.9484846
300.6440012
300.5516231
301.3399372
301.2132876
301.2407653
301.3543753
301.112143
301.5837727
300.8120237
299.9462965
299.8645197
300.4253495
301.275868
301.1103374
300.7629512
301.4715539
301.0161456
300.7977373
299.6751941
299.576118
299.6915514
300.4484723
300.7128509
300.0933229
300.582122
300.5578555
300.932761
301.406212
301.0651668
301.3271583
301.1485449
300.5747349
299.9160483
299.2800612
301.1641162
299.8624394
299.5571531
299.4109404
299.6491826
299.865857
299.3459995
299.7190658
300.0211576
300.7852282
300.789202
300.6429285
299.7021055
300.117206
300.5298794
300.747157
300.7738339
300.6799812
300.4311828
300.374387
300.3006275
301.1319034
300.5613492
300.704064
299.8564582
299.4996516
300.3534576
300.3896031
299.5602647
300.0937514
300.5368763
300.9230698
301.3059225
301.2444899
300.2846655
299.9926018
299.9637548
301.0149824
301.2969886
301.4722312
301.6064225
301.1254739
300.6375852
300.7803353
300.1044919
300.4792506
300.5280492
300.6223677
300.9441934
300.2973913
300.0790988
300.1746433
300.0406066
300.0438298
300.2304993
300.8716553
300.619393
300.8739043
300.4881274
300.6024614
300.819073
301.4446981
301.7690791
300.6212222
300.4037209
300.8836751
300.7246268
300.4295745
300.2644573
300.7373495
301.0795431
300.489911
300.6344794
300.4591179
299.8759854
299.490165
301.3254978
301.1336651
300.7397252
300.9448359
300.0852172
299.8779405
299.5919209
300.0355826
299.7322694
300.0510281
300.1956457
300.0909564
299.7119655
300.09844
300.0854348
300.6043715
300.2555177
301.6172437
301.7391601
300.9497634
300.7964659
300.6641974
300.2843153
300.0269258
300.7163804
300.3508395
299.6590647
300.1993878
301.0427794
300.3571509
300.1813344
300.5662644
300.4200013
299.8456991
299.6787704
299.5409109
300.7407833
301.2099538
301.570773
301.4796591
301.6114862
301.3220283
301.2320212
300.8286397
300.393153
300.3988037
301.0319755
301.4810993
300.7954535
301.2572537
301.7478321
301.494505
301.3010343
301.4847345
302.1113853
301.5455875
300.5770253
300.562886
300.8842107
301.418246
300.891156
300.9370732
300.2104569
300.9109615
301.4325241
301.5249598
300.4590706
300.135379
300.9038246
301.2537761
300.7796294
301.4239614
301.4737283
300.5920161
300.2082292
300.2566121
301.0345521
301.3947627
300.0446607
300.3294319
301.2909867
300.4804257
300.5446381
300.2319704
300.6289526
300.3856629
300.9426179
300.8831759
300.9125342
300.5041855
300.9892731
301.7390097
301.7609342
301.4926965
301.0870998
301.5039092
300.5478474
299.9542496
300.4192799
300.5559517
300.6687834
300.806068
300.7960375
301.2884136
300.9427122
299.8971765
300.3690951
300.4436453
300.5477236
301.9101179
301.6354775
301.435849
301.7943962
301.6810172
301.2905008
300.7713369
301.1429206
300.6445254
300.8407885
300.3255799
300.2778934
300.3847135
300.4776651
300.1692049
299.8155414
299.9025043
299.7615375
300.5178966
300.2384067
300.6116022
301.1308335
301.2663866
300.9372036
301.2327596
302.0797518
302.0597778
302.3449846
301.6207726
301.0231276
300.8652678
300.5192605
300.686816
300.1072994
301.0008069
301.612644
300.9018138
300.8512266
301.0215733
301.5568979
301.6717223
300.4778663
300.2880688
300.0181729
301.1694392
301.0739736
301.763885
300.662611
300.3606844
300.5148727
300.8182902
301.2015352
301.5342678
301.2613681
300.1127518
299.8262316
300.231466
299.8418194
300.7180485
301.4220347
300.9636387
301.1150372
301.2131835
301.1221273
300.6926524
301.6468211
300.9261199
300.7436088
300.8374226
301.2648037
301.7034608
301.0658221
300.4219213
300.4095633
300.380105
299.8527563
299.8766352
300.7534332
299.9665237
300.6556395
301.1064368
300.4522388
301.0277795
301.1012393
301.0389765
301.0495444
301.2710928
301.2509672
301.1205118
300.7271508
300.8515663
301.212804
301.2347501
301.8263471
301.5804019
300.7966332
300.3549244
299.7373204
299.8267085
300.1575708
300.6650266
300.8186913
300.0585991
300.3925244
300.7165298
301.154906
301.5340105
299.5022497
299.1301492
299.5777949
299.6118135
300.4229405
300.6779885
300.642329
300.9973452
300.8409885
300.8964577
301.3856882
301.1473946
300.0606483
300.2432929
299.8495859
299.8570797
299.2128383
299.2411827
300.0087969
299.9318661
300.6094847
300.7785544
300.9213225
301.5475329
301.4844026
301.4226994
300.714297
300.4409356
300.1005117
300.5993537
300.7813266
301.1986355
301.1431039
300.1884719
300.3392478
300.6874151
299.9910977
300.0683652
300.5372347
301.1997119
300.4366749
300.5319743
300.0342968
300.0043182
300.1861301
299.4387809
299.7415423
300.1097951
299.9865741
300.6584055
301.1888779
300.7968115
301.1771708
300.6682587
300.6218831
301.3857108
301.6638082
301.3535474
300.9568713
300.3193772
301.834334
301.7422157
300.9344867
300.7642933
301.0216726
301.4989645
301.2456755
301.4492183
301.065936
300.6197958
299.7472728
299.8405823
300.5487626
301.1263971
300.5369181
300.4960628
300.9911849
301.7730703
301.1470536
301.1565349
301.5425177
301.4278777
301.5593151
301.4583539
301.6092483
301.3047602
302.0687404
301.5826984
301.10516
300.8004711
300.8544363
301.858135
301.5891368
300.6557367
300.7254595
300.3131241
300.7209452
300.5199706
301.3401669
301.3914316
302.05528
301.9691808
301.797848
301.6795722
300.8125326
300.1855517
300.5043038
301.4411677
302.2876694
302.6529981
301.8162796
301.0442374
300.5531137
300.64789
300.361838
300.0718676
300.2521035
301.1443542
301.4192878
301.715661
301.2822668
301.4353702
300.9824432
301.7810386
301.2159467
301.5791946
301.7363173
301.8181093
302.0478386
301.1159918
301.3086742
301.9371091
301.600639
300.7670549
300.7662487
302.0499552
301.7200347
301.567743
301.3731719
301.9188334
301.4554133
301.6917913
301.3801178
300.6565424
301.3862791
301.9812655
301.7924333
301.1528851
300.577133
301.2085008
301.3175578
300.9967475
300.8317933
301.4351523
301.3694872
301.792966
301.4237827
301.2264522
301.4912529
301.6124278
301.1050781
300.8451247
300.5882661
300.7804095
301.1633901
301.4640782
300.6029202
300.505568
300.2039131
300.9116149
301.542154
301.2557676
300.963784
300.4584264
300.8752156
300.3965536
300.3603635
300.9055105
301.2007093
300.6992183
301.2852039
301.326291
301.6360195
300.791048
300.7003048
301.258986
302.3751928
302.9165866
303.521376
302.6357801
302.4121141
302.1515179
301.6001967
301.263214
301.3726801
301.4379649
300.5261905
300.7894173
300.9866821
301.6186833
301.6548457
301.7624451
301.6209728
301.5462315
301.0688091
300.6426016
301.0043605
301.1913038
301.6631141
302.115074
301.8649221
301.3585165
301.5020844
301.5108807
301.7171307
301.8364151
301.5325004
301.9495082
301.1310601
301.5004076
300.8143742
300.9717908
300.897221
301.8281742
301.4615088
301.2652392
300.9559856
300.4555905
301.7171611
301.709082
301.3331199
300.8337462
301.1511415
300.9699042
301.2897
301.2085238
300.659049
300.4811949
300.6286912
300.6215865
301.6022103
302.1796224
302.2276176
301.6081836
301.5822502
301.4403968
301.463052
300.7598413
300.0791646
300.2350405
301.5627581
302.5033609
302.0269981
301.3607348
300.7274002
300.8733925
301.503512
301.7459921
301.1454505
301.3981886
301.4387376
300.9539409
300.7450301
300.8089022
301.3947822
301.0956137
301.0011297
301.1411886
301.1807375
300.9810024
301.0896301
299.8553608
299.498063
300.4585803
300.7515846
301.7186919
301.8222893
301.1938716
301.0428561
301.7162273
301.2809768
301.5419803
300.7414542
300.5190712
300.7287694
300.4455433
300.3333778
300.5748619
300.9653693
301.1823564
300.4040086
301.1159448
301.312999
300.3710286
300.2929434
300.3721872
300.3785086
301.4256516
301.0656058
300.6042382
300.8510134
300.94371
301.1775678
300.1393413
299.5671806
300.2099128
300.7668539
300.5042624
300.7182274
300.1571783
300.1022377
300.9419402
300.4756845
300.2946299
300.4825162
300.5571017
301.1848099
301.3824476
300.8320069
301.2939027
299.8742746
300.8412638
300.0918099
300.977541
301.3063034
301.3949876
300.7187196
300.59598
300.6126079
300.8269939
300.539904
300.1449567
300.6294841
300.822333
300.6487533
300.5568278
300.8753735
299.9147431
299.6409136
300.0422351
300.9934645
301.2844013
301.657489
300.5264682
300.7996606
300.9855171
301.4408678
300.892156
300.5427327
300.0160651
300.9048088
300.9793113
300.6842968
301.4588234
301.1776357
300.0807482
300.3579315
300.7957426
300.633354
300.4233799
302.1776178
301.8988614
301.4604746
300.9764915
300.6716641
301.4003405
300.3386994
300.3003254
301.5451317
301.1536067
300.6330988
300.4655737
300.7657171
301.6106943
301.3057838
301.7356262
301.2322148
301.5710272
301.7902851
301.7424076
300.6900154
300.795776
300.6880803
300.874588
300.6646628
299.7848192
299.6062437
300.3458969
301.2460133
301.5455222
301.2116441
301.3300574
300.6698513
300.50014
302.0675874
302.757996
301.7591236
300.7986168
300.7970865
300.8128926
300.8758556
301.0750985
301.5227501
302.222627
301.9855997
301.1629364
302.0632005
300.8639428
301.0146267
301.0725039
301.5947821
301.9108774
301.9055726
302.6308826
303.0149085
302.4664882
301.3675302
301.8884211
301.1020257
301.103996
301.6416083
302.0398061
302.6053651
301.497245
300.9831947
301.8735319
301.6548318
301.5902901
300.9171226
300.7143363
300.9239238
300.750815
301.6097274
301.502169
300.8641562
300.5690092
301.6464468
301.1216631
300.7673823
301.6389716
302.2345111
301.5431655
301.9362212
301.7714768
302.1176109
302.9877398
301.9733336
301.4728845
301.6563144
301.9129073
301.2059222
301.0530052
301.1378472
301.271408
301.9672795
301.7135421
301.3930564
302.0163547
301.8514131
301.3554962
301.0876928
301.0138842
300.6668929
301.2631712
300.8533095
300.6213159
300.5933464
300.4516448
301.1205123
301.1066112
301.4071677
301.6655628
301.3036121
301.6603191
301.7673112
301.3115209
302.0697214
301.8834552
301.3019658
301.1157432
300.9176974
301.2612117
301.4873756
301.3323853
300.751781
300.554567
300.5567869
301.3792108
301.2519554
301.2685438
300.9958494
301.1413162
302.0158804
301.418883
301.3128207
300.7780917
299.8851597
300.4661525
300.8923729
301.4971827
300.6332914
301.1000963
300.7811984
301.0382617
301.4396869
301.1085032
300.9635804
300.8802936
301.0028828
300.7092383
300.7528428
301.6139298
301.5947256
300.4147286
300.3955727
300.2379616
301.331901
300.7523014
300.9045975
300.4815652
300.4143325
300.6729571
301.4872484
300.848328
300.6199493
300.8947906
300.4969236
300.6223663
300.9876988
301.0245884
300.6994181
301.319016
300.9926737
300.3645654
300.2679393
301.0416936
300.8000006
301.300966
300.8890241
300.5074919
300.4438846
300.615354
299.9380264
300.8345904
301.1638944
301.2985761
300.8315912
300.0051802
300.2491187
301.5060707
301.4253737
301.4838174
301.1030519
301.614175
301.3232713
300.9102492
301.0872505
300.6743439
300.6461915
300.9425563
301.3378219
301.459968
302.2721517
302.278952
301.8604314
300.8550866
300.4181622
301.323262
300.758169
300.8689447
300.5348162
300.5004476
300.9916085
301.0274864
301.0966116
300.9300263
301.248634
301.2279364
301.2832029
301.5123296
300.3022688
300.7746303
300.8689459
300.269737
300.9556826
302.5537834
302.6167084
301.031261
301.1052864
301.1212335
300.2181127
299.9771279
300.157586
299.8780589
300.1060473
300.5256195
300.0792746
300.3795944
300.1112893
300.0976319
299.6795002
300.3993484
301.3722574
301.8851337
301.7973877
301.0331049
301.180625
301.9484025
301.3833463
301.9892307
301.7422902
302.2577164
301.5789579
301.5850217
301.6219678
301.7168249
301.6756923
301.6626704
301.9174195
300.6169883
301.7313328
300.2480255
301.1667778
301.3385566
301.3196982
300.8764795
300.8350641
301.1794496
301.5446296
302.1285908
302.2157967
301.421284
300.7305919
301.5457069
301.9763783
301.4648645
300.7879936
300.4545963
300.3008025
301.293956
301.7212841
301.5394524
301.4522425
301.9024844
302.3134639
301.391219
302.0967882
301.3539667
301.069629
301.0774327
301.1653548
301.4782678
301.1093922
300.8091649
300.6398835
300.2881375
300.8644776
301.0473493
301.260729
301.9598344
301.0519177
301.6518285
302.0684884
301.5965747
300.9400638
301.2539848
300.9176399
301.22448
301.2297826
300.6962015
300.8009111
301.2460942
302.3339263
301.575404
301.3357407
301.594825
301.4205953
301.5961137
300.8515973
301.119581
301.9287916
301.6531912
302.0169543
301.967501
302.0125265
301.0421759
301.8724793
301.3551061
300.9426078
300.6935504
301.6511238
301.3284885
301.2747156
301.6193634
301.8503669
301.2880046
301.7502947
302.2926649
301.5853416
301.6415082
300.9185654
300.0336478
300.7375209
300.4876494
300.8736631
301.2035096
301.1149632
300.4879558
300.4755473
300.7074794
300.6648843
301.1268107
301.3871464
301.4228705
300.3061552
300.4137485
300.8401543
301.149154
301.8789457
301.8879471
300.4839292
300.2948342
300.7240576
300.8852731
301.1489006
301.4851933
301.0155595
301.4477791
301.4171427
301.5380001
301.9420551
301.5211844
302.8181762
302.5891614
302.5954033
301.8066181
301.5912813
302.0576366
301.3790721
300.5901062
300.5269945
300.1941431
300.5044395
301.1811033
301.3241174
301.7416749
300.9912055
301.2502544
301.8901985
302.0101547
301.8747876
301.9328607
301.3215886
301.6405633
301.8641517
302.1543833
301.7139671
301.4841582
301.5623375
300.8699792
301.6172465
301.9215383
301.8469563
302.0883071
302.4340608
302.0828283
302.1462401
302.5192594
302.1199131
301.8120536
302.1927106
302.0268661
301.8696725
301.5636101
301.1587642
301.2208199
301.335257
301.1151185
300.5653105
301.0360691
301.7127043
301.1768977
301.2190822
301.4567341
301.1475458
301.7131286
301.6522859
300.8353121
300.5127165
301.243423
301.7335026
301.0141076
300.8223251
301.5383824
301.0933461
301.4550454
300.857229
300.5588739
301.3680264
301.5846951
301.4556233
301.5239542
301.1454028
301.0933134
301.2853428
301.2962579
301.3479407
300.8580364
301.0617012
300.9085495
301.2054841
300.6316414
300.3947078
300.8716498
300.2918221
301.2190017
300.9751811
301.3382121
300.8971132
300.870788
299.6592442
300.5161354
300.563475
300.8308124
300.5925836
300.974245
301.4678586
301.6140728
301.2503682
300.6983341
301.0067126
300.2530211
300.1011552
301.1080918
301.1749198
301.4839694
301.5654613
301.0604331
300.7500027
299.8896528
301.3072638
301.4500171
300.5288538
301.2546501
301.7135566
301.5377836
301.640995
302.0266907
301.9550171
301.9730054
301.8138289
302.2270663
301.7220801
302.3143061
302.4379755
301.7301389
301.1676312
301.1380987
301.1756335
301.0987215
300.8263109
300.1437437
299.5903574
299.2765992
300.6953761
300.2991488
301.1911594
301.0430154
301.3702639
301.2031472
301.5829131
302.5310035
302.8603902
302.0227952
301.4869031
300.7295948
300.9298706
300.9132256
301.2818015
300.7495092
301.2369555
301.7479226
301.6821738
301.2091204
300.2310735
300.8500882
300.6746741
300.4192743
300.2706728
300.5270873
300.6227906
300.5004487
300.7003109
301.691223
301.793124
301.8912719
301.5486471
301.3680708
301.4360431
301.5579008
301.1920479
300.3074135
300.9251881
301.1199426
300.7107659
300.8750369
301.5754955
302.1340682
302.5271251
301.6676271
301.3565876
301.7574443
301.4356363
301.6293432
302.1092509
301.4854644
301.0602288
302.0067618
300.7945626
301.176647
301.7530731
301.1650355
300.665492
299.7674579
299.688679
300.2142161
301.477496
301.6100874
302.02662
302.0380103
301.9512118
301.980486
302.2086314
301.8408916
301.5717572
301.8538472
302.0928551
301.169853
300.9159603
301.1172037
301.1226249
301.5501981
300.6015591
300.6673783
300.5599005
300.9330912
300.8108414
302.0857396
301.827084
301.4304156
301.1751542
300.977732
301.9349794
302.3914345
301.9993791
301.3677421
300.9990797
300.2770439
300.5678085
300.8759442
301.5629264
301.3987641
301.6430887
301.4104379
302.0859002
302.6315146
301.8794659
301.2826833
301.1939118
301.1241711
302.3207961
302.9372062
302.577867
302.0067309
301.6568193
301.2353737
300.7857699
302.051368
302.0094988
301.8627425
301.3602084
300.6998175
301.0588777
300.3520446
300.3220176
300.4057294
301.4687403
300.4534607
300.8780129
302.0805936
301.9567258
301.4899996
301.0434781
301.3864117
302.5852084
301.7945767
301.6519023
300.7102918
300.8258545
301.0527731
301.0445894
301.3288235
300.2366899
300.2554666
300.5757467
301.3475259
301.4099078
300.6498963
300.0022736
299.690998
300.1567523
300.5846314
300.6948865
300.1013154
300.2170775
301.4773347
301.705414
301.2078449
302.00641
301.1328677
301.7070643
301.2100166
300.9566804
301.427423
300.9697689
299.9196066
299.2714211
300.4730891
300.8939471
300.211319
300.2198704
301.4649216
301.0616781
301.0579635
301.194997
300.7861515
301.1110614
301.2904875
300.9532314
301.830075
300.5454605
300.5887091
300.1074367
300.3182653
300.2946509
301.0123033
301.008568
300.2648202
300.2897053
301.0375724
300.8830755
299.9708034
300.0603882
301.3643423
302.1525384
301.9076246
301.7526268
301.0372655
301.2154793
300.5770796
300.6182994
300.8444995
300.9665732
300.2102807
299.986412
300.6151561
300.9413527
301.3606066
301.271922
301.2188322
302.2674661
302.137094
301.642268
300.3227276
300.4591034
301.3050156
302.2458991
301.1917652
300.1614067
300.4087783
301.3490757
302.0943692
301.8984259
301.4974131
301.197493
301.2679539
301.5482249
301.8295776
301.566644
301.4584291
300.1695772
300.579039
301.2833964
301.3030646
302.3288679
301.7915098
301.1868008
300.4431444
301.447523
301.8201356
301.1902098
300.398194
300.2760196
300.4021998
300.8783407
301.0755527
301.060162
301.715042
301.7227524
301.3202222
301.0126902
300.7464497
300.6160384
300.8358876
301.0862146
301.2380172
301.7510457
300.9988751
300.5383028
300.8039919
300.8431599
300.5161235
301.2856981
301.4372265
300.5386715
300.4779796
300.6030472
301.2181811
300.8392738
300.5311814
300.6529503
301.8421369
301.813623
301.0618026
300.6156868
299.7777393
299.4850951
299.7887754
300.4066925
301.2837894
301.1975973
300.6501551
300.5404105
299.4596494
300.4854321
301.6191925
301.4422446
301.8517475
301.2046909
300.3739296
301.3088569
301.2407039
301.3607798
300.9698575
300.0418529
301.115455
301.6017789
301.034026
300.4520195
300.8439797
300.592781
300.0017975
300.5414989
301.7276013
301.3241082
301.4337001
301.5120325
301.4489732
301.9049269
303.1755978
302.5154902
301.3823195
301.301155
300.7212582
300.7747567
300.0063975
300.8061343
301.1232876
302.1234023
301.4520225
301.4896146
301.2454033
301.3141116
300.7549575
300.8339131
301.3157867
300.7872543
300.69546
301.5842399
301.620305
301.0957593
300.4201075
299.7280679
300.8033718
300.9282425
300.9783781
299.7989384
300.0967435
300.1011575
300.9466279
300.3382479
300.0654547
300.6637671
301.048868
300.7904064
300.7517484
301.0097304
299.9708436
300.3100179
300.6121588
300.5133411
300.3700312
301.4172584
301.3887632
300.8367572
301.214082
301.7643544
301.1375361
301.1321473
300.4767973
302.1982949
301.907489
301.5992977
300.7137782
300.9661536
300.357113
300.6187769
300.5634502
300.8721086
300.8003117
300.7611287
301.2708588
300.3966688
300.6173119
300.698728
301.712002
301.0321098
300.9312349
301.0585528
301.9851835
300.334307
301.613477
301.613027
301.6217652
301.6670147
301.8397527
300.8978139
301.2391646
301.7555552
301.9536817
301.2654904
301.4385648
301.1082221
300.3665851
301.0680868
300.9988547
300.8929094
301.2358529
301.597492
300.5405386
301.0680759
301.5469071
301.8467841
301.097915
300.3543229
301.1553684
301.3926244
301.068228
300.2087709
301.2720863
300.7206377
300.7639823
301.5401968
301.676536
301.4005932
301.1580178
301.9848376
301.833574
301.7942946
302.0137052
300.893615
301.1624028
302.0517847
303.2604602
302.5128083
301.4712344
301.2378834
301.8214637
301.7404124
301.3682248
301.4530616
301.913009
302.5825825
302.2979544
302.058925
302.1595401
301.8419781
301.6592096
301.2944891
300.6695257
301.3937471
302.4029218
301.8441846
301.3664334
300.7959189
299.9842926
300.0649942
300.7099972
300.5595517
301.0081523
300.7945848
301.0215129
300.8919999
301.1616106
301.6601631
301.4178045
301.6614946
301.4322336
300.8797863
300.8736082
301.3809431
301.6926719
302.0258046
301.5109054
300.6905034
300.4689124
299.8608474
299.9995327
300.7417456
301.0074442
301.0908914
300.1781689
299.5908173
300.278584
300.5758946
299.9891424
301.033813
300.762266
301.0750405
301.4834544
300.1683559
300.5765382
300.1657276
300.1556763
299.9773411
299.6354255
301.0036474
301.5022781
301.5555064
300.8471601