/*--------------------------------*- C++ -*----------------------------------*\
| =========                 |                                                 |
| \\      /  F ield         | OpenFOAM: The Open Source CFD Toolbox           |
|  \\    /   O peration     | Version:  v1706                                 |
|   \\  /    A nd           | Web:      www.OpenFOAM.com                      |
|    \\/     M anipulation  |                                                 |
\*---------------------------------------------------------------------------*/
FoamFile
{
    version     2.0;
    format      ascii;
    class       volVectorField;
    location    "0.02";
    object      UMean_mixture;
}
// * * * * * * * * * * * * * * * * * * * * * * * * * * * * * * * * * * * * * //

dimensions      [0 1 -1 0 0 0 0];


internalField   nonuniform List<vector> 
5120
(
(1949.563609 1.225935652 1.060445636)
(1949.475232 0.9327840915 1.615859954)
(1949.510693 2.331365448 1.862957666)
(1949.505099 2.16902072 1.034152036)
(1949.778432 1.878265066 2.033821628)
(1949.424792 1.170519879 2.055492096)
(1950.506288 0.9946553515 1.358011563)
(1950.117144 0.4092485059 1.143114361)
(1949.819447 0.4281896893 0.8826159102)
(1949.622921 1.019941 0.4862476245)
(1949.154885 1.006328069 0.06999368475)
(1949.492771 0.8299913012 0.1885367642)
(1950.339199 0.6637622545 0.1207476145)
(1949.460594 0.1383681268 0.5666918168)
(1948.635188 1.153655508 1.10269773)
(1949.883339 0.293957278 1.942959002)
(1950.636836 1.073173498 1.081515035)
(1950.343051 0.7999020688 1.061027438)
(1950.564038 0.7022856461 0.7946450875)
(1949.943596 0.6331536851 0.662484845)
(1950.513471 0.9785961619 0.8518513658)
(1949.516754 1.055975086 1.176616036)
(1948.895991 0.708246278 1.404867144)
(1949.321824 1.505371505 0.8675818772)
(1950.475717 1.390076571 -0.1569871703)
(1950.750673 2.247814536 0.5428712365)
(1950.262031 2.060271594 0.6641788273)
(1950.102428 2.13511145 0.4105821059)
(1949.952873 1.808228598 0.5721713872)
(1950.690356 1.561882264 0.9870078813)
(1950.36276 1.521621852 0.8588221421)
(1949.672229 0.5313354184 1.109530372)
(1949.34046 -0.1619123001 0.7108210113)
(1949.689336 0.8054991709 1.519861237)
(1950.589364 1.631292457 0.1700132251)
(1951.286505 1.166030012 0.3504596458)
(1951.275463 0.8957541374 0.250346485)
(1951.397899 1.369194799 0.7252321625)
(1951.057054 1.728963732 0.9708518289)
(1950.831703 2.057386424 1.243070306)
(1950.023489 3.02096669 0.6217136733)
(1950.076562 2.812650566 0.07131619307)
(1950.600106 2.680560208 0.1874423004)
(1949.245394 2.749061447 0.4914246804)
(1948.85628 2.168965038 0.5726009172)
(1949.569394 2.08379442 0.7348007053)
(1950.086743 1.784199842 -0.4621333005)
(1949.608794 1.658398736 -1.116207819)
(1949.685939 1.995608522 -1.661352167)
(1949.51627 0.9210175861 -2.061502104)
(1950.13835 0.2087036538 -0.7230614588)
(1950.347448 1.412880409 0.0610100885)
(1950.579948 2.711992386 0.5661860456)
(1950.906895 2.79809911 -0.1533832903)
(1950.688803 2.172412697 -0.3634331897)
(1949.499996 2.195213541 -0.657953343)
(1949.601761 1.739778182 -1.11021761)
(1948.959056 2.158278152 -0.8251118194)
(1949.492388 3.152233824 0.5699055188)
(1949.52798 2.937394101 0.3362913678)
(1951.450147 2.924485409 0.2862396329)
(1951.731753 3.566541562 0.2502544961)
(1950.95082 3.67720779 0.9957834089)
(1951.078047 2.378835502 0.8519698777)
(1950.943275 1.538504541 1.812308645)
(1950.633683 2.036241008 1.395751535)
(1951.110199 1.917173334 0.1450489663)
(1950.88539 2.465345073 0.166706835)
(1950.742794 1.882097114 -1.039757993)
(1950.044762 2.869703028 -0.3988987265)
(1950.822686 2.432282818 0.3818692506)
(1951.022894 2.893171057 0.6517712965)
(1951.202378 1.626185937 0.3473875608)
(1951.070886 1.279055664 1.093028979)
(1951.789946 1.307085954 1.286623488)
(1951.827707 2.589935274 0.5328637369)
(1951.099345 2.530756709 0.4332763109)
(1951.199431 2.005040047 -0.5373369827)
(1951.463274 1.800385098 -0.1546672408)
(1951.53241 2.783400339 -0.4522150165)
(1951.376302 2.12017873 2.950645376)
(1951.88757 1.590839473 2.35399145)
(1951.234112 1.485260552 1.160190593)
(1951.050827 2.03587581 0.848729678)
(1950.569631 2.352705459 1.854116825)
(1951.017476 2.814579127 1.954949592)
(1950.321641 3.032730613 2.371236423)
(1950.083767 2.2719028 1.845033389)
(1950.948516 2.946849061 1.313902507)
(1950.465155 2.690244481 0.82183926)
(1949.994679 1.922313838 -0.1892262336)
(1949.600515 2.310332978 -0.1956565885)
(1949.775343 1.643998246 -0.02670390345)
(1949.911221 1.496800684 0.3248604298)
(1949.678678 1.30189466 0.1082736042)
(1950.447211 0.9795228532 -0.4837862133)
(1950.051907 1.48670479 0.6601300687)
(1950.985465 2.327515168 1.483528361)
(1950.848943 2.163186357 1.868845764)
(1951.633194 2.494795436 2.682323772)
(1950.371126 1.632690807 1.313060927)
(1950.506543 1.955394169 1.265504157)
(1951.345552 1.782292894 1.697258453)
(1951.820313 1.578955845 3.181316295)
(1952.224585 2.328150339 2.716536313)
(1951.156492 1.924309655 2.60830802)
(1951.147961 1.181270911 1.79179519)
(1951.280796 1.662325373 1.90183187)
(1950.980585 1.537842912 1.147637576)
(1950.805356 1.147470305 0.6737415757)
(1950.783746 1.333404362 1.370781977)
(1950.546538 1.11455212 1.507608701)
(1951.194506 1.677615314 1.620871977)
(1950.708688 2.144396539 1.346442269)
(1950.013208 3.173234591 1.454006517)
(1950.038038 2.280676134 1.237544484)
(1949.755712 1.242957677 0.8662261759)
(1949.768508 1.548720399 0.1252739916)
(1950.3924 0.6551387927 1.404588071)
(1950.365027 1.398740025 0.8324753013)
(1951.132006 1.374821574 2.135112417)
(1951.233109 1.766534498 1.701840078)
(1951.389042 1.487625072 2.649367434)
(1951.061091 1.026079627 2.176698245)
(1950.691996 1.240133205 1.544518145)
(1950.478714 1.410171597 0.3650860992)
(1951.190445 0.6182940188 -0.1902071951)
(1951.90963 1.544763035 0.4324715114)
(1951.970448 2.363030238 0.848544594)
(1952.846077 2.224411017 2.462940166)
(1953.768835 2.628620961 1.270038477)
(1952.639305 3.21774498 1.490710772)
(1951.897374 3.562316214 0.8395792653)
(1951.505139 2.836596763 0.6639145136)
(1950.836285 1.982587766 -0.01651578633)
(1950.358279 1.50834863 0.03002723515)
(1951.268364 2.548877107 0.2231370099)
(1951.046558 2.090250865 1.186291386)
(1950.285778 1.861607271 1.841543116)
(1950.362245 1.602744763 2.143235114)
(1952.137969 1.893592427 0.4703242702)
(1952.011978 0.882707095 1.218800186)
(1951.785454 0.9770814642 1.137364845)
(1952.935082 0.9196416806 0.7087526141)
(1952.981623 0.9129426934 -0.05165000832)
(1953.343241 1.08964833 0.421435751)
(1953.09799 1.572104973 0.4007140532)
(1953.052004 1.475159062 -0.06283589292)
(1953.440305 1.470085829 -0.6581678759)
(1952.474514 2.272946222 -1.351068537)
(1952.039169 2.62240893 -0.86260687)
(1952.185487 2.090166979 0.6767959866)
(1952.094114 1.696878301 0.8279793389)
(1951.965245 1.671417534 1.36920592)
(1952.190129 1.489357345 0.5546369312)
(1951.978152 2.346097093 1.07018497)
(1951.277195 2.875950105 2.17368544)
(1951.488287 2.555811145 0.9703430171)
(1951.635153 1.353901849 0.8227553836)
(1951.848019 1.786530984 -0.05012596454)
(1950.909596 1.756742616 0.6744126285)
(1951.90857 1.755100259 0.9783439126)
(1952.080972 2.153969875 0.6663143069)
(1952.500044 2.818818536 0.4316478783)
(1951.972572 2.269846962 0.3893153352)
(1951.406892 1.912064518 0.618689918)
(1951.77539 1.766833973 1.229046093)
(1951.893453 1.662661245 1.255354959)
(1951.623548 2.208928317 1.508307141)
(1951.016256 1.759070968 1.098233095)
(1950.010567 0.5632661485 1.720494351)
(1950.666847 0.4832951493 1.03038578)
(1951.074269 0.4562899804 0.9766379728)
(1951.515805 0.03008788025 1.140120663)
(1951.674554 0.8384545795 1.549755076)
(1951.259165 0.6763035397 1.926242059)
(1951.404296 0.7874559946 1.047239696)
(1950.3531 1.440570929 1.579299265)
(1950.658933 2.662984533 1.45399424)
(1949.898343 2.089668889 1.674603605)
(1951.93218 1.916218373 0.9365395803)
(1951.725105 2.483846766 1.127648285)
(1952.032471 2.102430065 1.244444598)
(1951.642788 1.580975538 1.677324418)
(1952.262164 1.950332485 1.565229784)
(1952.171258 1.442221361 1.145667783)
(1950.988985 1.281959674 1.276509478)
(1950.875752 1.15708611 0.608302264)
(1950.365113 1.755461883 1.469672568)
(1950.391588 1.952769073 1.033841056)
(1951.399758 1.901091464 1.651243178)
(1951.029492 1.826760727 1.276351687)
(1950.933224 1.792907959 1.045051794)
(1950.343517 2.181740205 0.6444166834)
(1950.639126 1.532970503 0.4695850789)
(1951.508391 1.993558099 1.577063433)
(1951.044868 1.175108886 1.528549742)
(1952.351485 1.283271322 1.099370392)
(1951.85838 1.047126392 0.4553118423)
(1952.307848 1.857875635 -0.04975890658)
(1950.780175 0.3802321042 1.479083776)
(1949.954969 1.206225241 1.532907784)
(1949.957171 2.054537911 1.415000124)
(1950.075825 2.444377697 1.253245379)
(1949.965835 2.057799366 2.032369361)
(1950.379958 1.422522816 2.131196454)
(1950.697981 0.9535802599 0.6307192321)
(1950.79795 1.622879616 1.740871011)
(1951.437482 1.747990532 1.161906257)
(1951.65937 1.668050423 1.311250197)
(1951.600825 2.677714878 1.149475733)
(1952.103097 2.724544512 1.399505)
(1952.144895 1.194050193 0.7820543705)
(1951.942846 -0.8107380713 2.086152138)
(1951.269309 -0.337925703 3.265357824)
(1950.777291 0.1173893335 2.827392124)
(1950.345619 0.5759861992 2.160279718)
(1950.385529 0.7425807895 0.3209419899)
(1951.191026 0.9020345697 1.36736342)
(1951.573318 0.2320687825 0.9973510185)
(1950.622711 1.46086666 0.5080707187)
(1951.044338 0.7470819896 0.7101640671)
(1950.483326 1.033889764 0.01007110767)
(1950.399917 1.560483745 -0.1959730821)
(1949.916198 1.123908676 -1.162038523)
(1950.216085 1.698802818 -0.7366455771)
(1950.558899 1.568180273 -1.313696039)
(1952.080726 1.714174463 -0.7170497525)
(1951.812369 1.228348776 -0.9627359207)
(1950.578621 1.683187745 -0.112472024)
(1950.219811 0.4680249853 0.1831364889)
(1950.235757 -0.4604539928 0.8867772767)
(1950.855671 -0.6357344739 1.21027977)
(1951.049261 0.6973722504 1.217621638)
(1951.174092 -0.2082468417 0.7019716601)
(1951.077059 0.2076857507 0.440419814)
(1950.747611 1.194377845 -0.02624269907)
(1950.080348 0.9168679465 0.8429174588)
(1950.183208 1.512214764 0.9922343512)
(1950.02694 1.239771154 0.8428326641)
(1950.938319 1.022932743 1.259307739)
(1951.097537 1.101543408 1.384144533)
(1950.958372 1.537197425 1.121137097)
(1951.122764 0.9052053293 1.113726076)
(1950.938395 0.4831052709 1.325229937)
(1950.804444 0.2186498207 1.169189371)
(1950.567318 0.7523014341 1.117777675)
(1950.604887 0.7670520028 1.205102501)
(1950.840512 0.7298121135 1.577343527)
(1950.434995 0.9240990276 1.327869846)
(1949.671901 2.017162068 1.09831116)
(1948.919253 2.919531885 0.8241094659)
(1949.577622 2.595340998 0.7125727372)
(1948.922984 0.9719311953 0.6315275275)
(1948.970189 1.040771751 -0.019709175)
(1949.397559 -0.4451746607 0.1573412028)
(1949.806087 -0.025967289 0.1518341692)
(1950.666128 0.1221172017 -0.3662581893)
(1950.836704 0.2885591633 0.5944192333)
(1950.8311 1.052930965 0.6767821268)
(1950.404431 1.569628028 1.2132514)
(1949.62794 0.9114939179 0.2105264747)
(1949.426775 0.6889693551 -0.07881040598)
(1950.057609 0.574096113 0.2090830672)
(1950.822073 0.256842153 0.8894578669)
(1951.522747 0.735299606 0.8252938782)
(1951.906171 0.3964565242 1.256186797)
(1951.927381 0.1528380567 1.705911295)
(1951.577195 0.9120223895 1.480037256)
(1951.387173 0.9297901459 1.595024628)
(1950.913547 0.8306594027 1.563267605)
(1950.282531 0.8192776439 0.7619585904)
(1949.34836 0.9243078453 0.3061113366)
(1949.94186 0.7999204603 0.4142938044)
(1949.554544 0.02547045808 1.208326254)
(1950.234591 0.8997090755 1.260700655)
(1951.60573 1.023595913 0.7184083305)
(1951.611476 2.114602697 0.2526982526)
(1951.461635 1.673734529 -0.01471198962)
(1951.258791 1.044073331 0.1711697643)
(1949.390822 1.383863255 2.653141528)
(1950.079913 1.073638622 2.569038337)
(1951.292704 1.170209642 1.604640638)
(1950.673317 0.9172626887 1.271750681)
(1950.464248 1.202977436 0.6972388786)
(1950.42245 0.8684805167 1.140574768)
(1950.86769 1.248677884 0.9434678953)
(1951.243069 0.7207196613 0.7756383177)
(1951.13126 0.519057192 0.6788219642)
(1950.553174 0.2258257432 0.7425282776)
(1950.542609 0.1227200367 0.4138517199)
(1950.872194 0.8576754755 0.2247016651)
(1951.257093 1.286638601 0.5019640034)
(1950.900904 2.046368609 0.6354341894)
(1951.543491 1.635607678 0.05154520634)
(1951.929593 1.672299966 0.6901043566)
(1951.468497 0.05767381291 0.5209091555)
(1950.458249 1.366487127 0.74244687)
(1950.001073 1.99480829 0.8022047267)
(1949.781888 1.783153945 1.295070044)
(1951.574768 0.8464146416 -0.04669393569)
(1951.84022 0.007259730272 0.2329181035)
(1951.444393 -0.0179996332 -0.2454200502)
(1951.346825 0.1300053347 0.09568598571)
(1950.356231 -0.7121948501 -0.5262547916)
(1949.613518 0.2176037154 -0.4887027234)
(1949.733812 -0.3520231636 0.1443624164)
(1949.110653 0.04563959059 0.245530819)
(1948.922203 0.8742704739 0.7066920791)
(1949.485856 1.074203721 0.7013203897)
(1951.082744 1.634615346 1.989462493)
(1950.681297 0.07850362927 0.9644651008)
(1950.512225 0.03554142924 0.6710511558)
(1950.333397 1.302360819 -0.08676433277)
(1950.884955 2.365679424 0.06907530886)
(1950.649718 2.722026701 0.06287292199)
(1950.217902 2.98207504 -0.1131354926)
(1950.458048 2.55688992 -0.4096886399)
(1951.088476 1.848480985 0.5605110082)
(1951.025209 1.470898234 0.3804500974)
(1949.690019 1.660689525 1.367294444)
(1949.871805 1.506858058 1.054070665)
(1949.778232 1.578457063 1.007514586)
(1950.171734 1.098290139 1.540020235)
(1949.921952 1.053851442 0.5257005091)
(1949.600485 0.8078007948 1.060188319)
(1950.173794 1.906122709 1.15923801)
(1950.497574 1.94702024 1.444274442)
(1950.677087 1.304211782 0.2165876204)
(1951.062636 1.420814279 0.9884061336)
(1951.163056 0.7147003435 1.343854964)
(1951.229434 0.5265562545 1.036871513)
(1949.96993 0.8054306414 0.3422000663)
(1950.675583 1.359651457 0.1929589632)
(1950.557894 0.8815260798 -0.2963227411)
(1950.717291 1.953982086 -0.5246496927)
(1950.471903 1.28730418 -0.07036059188)
(1950.435558 0.3249724558 -0.05073388422)
(1950.491756 0.6670790117 0.5034669879)
(1950.296143 1.408367661 0.821483684)
(1948.982959 0.5165936096 0.5446071839)
(1949.866875 1.286876423 0.291340607)
(1950.207408 0.1044953045 0.2039237317)
(1949.669118 0.6989855128 0.4378201753)
(1949.666884 1.161393649 0.6045625097)
(1950.074033 0.9401015586 0.2765834007)
(1950.025945 0.28926668 -0.41816925)
(1950.224189 0.7018563659 -0.146181547)
(1950.377679 1.840546826 0.5883532726)
(1950.519314 1.681468368 0.6256642185)
(1950.578017 1.528978156 1.348789416)
(1950.524412 2.409001432 1.271585851)
(1950.589196 2.502400729 1.9266793)
(1950.748823 1.898692857 1.492019344)
(1950.840857 1.325736089 0.7993360493)
(1949.970713 0.6881977775 -0.06939025075)
(1949.912767 1.125853508 -0.5332312028)
(1949.642431 1.098047842 -0.08784758369)
(1949.820807 0.9838586819 -0.5849533642)
(1948.895541 0.6331783815 -0.5298368385)
(1951.275204 0.4228846001 -0.9364265065)
(1950.197915 0.7982118554 -0.9506347313)
(1949.470648 1.507088473 -0.7960681131)
(1950.343089 1.921424357 -0.6187427286)
(1950.301229 2.158399357 -0.5883871542)
(1950.366966 1.556970415 -0.5457937607)
(1949.889564 1.916333768 0.2750717798)
(1949.756626 2.082352128 -0.194975468)
(1949.963723 0.5035208137 -0.4510806123)
(1950.048007 0.7357939334 -1.630350147)
(1950.175637 0.02330773346 -2.34143228)
(1949.699127 0.09506315853 -1.995744983)
(1950.012586 -0.1207241755 -1.769418098)
(1949.974893 0.3374231236 0.121249119)
(1950.334381 1.338447733 1.316927775)
(1951.007574 1.486673048 2.147806427)
(1950.888989 1.168647829 1.938278387)
(1951.288227 1.106408339 1.478493622)
(1951.391459 0.6454745492 0.8357302611)
(1951.515955 0.9368194785 -0.3406277727)
(1950.349691 1.126561873 0.4161983699)
(1949.817579 0.8009029374 0.1459482369)
(1951.30678 0.7292388743 0.346008051)
(1951.783536 0.3837816269 0.02087340841)
(1952.062964 0.4284083118 -0.6848204378)
(1950.795116 1.039190385 -0.4319573159)
(1950.288992 1.026105212 -0.03854688535)
(1949.891531 1.06272786 0.1627022559)
(1950.025806 1.511901109 1.108367311)
(1949.750998 0.5968719449 0.3116312373)
(1949.761041 1.191566278 0.6053900174)
(1950.590194 1.359623571 0.4075710618)
(1950.759416 1.226107919 1.569950521)
(1950.540335 0.04407348061 0.9809053776)
(1950.894003 -0.6498878554 0.8113278358)
(1950.629207 -0.9457740646 0.9376096933)
(1951.026995 0.2062969013 0.7709511597)
(1950.134029 1.237361594 1.257812499)
(1950.10062 1.499647635 1.173042124)
(1950.211433 0.7166817345 0.8123608083)
(1950.402731 2.309617423 0.6517955333)
(1949.905117 0.7384220622 1.213141438)
(1949.862349 0.5846080534 1.039882835)
(1949.690488 0.4644862363 0.8216844556)
(1949.908256 2.066933903 0.5035599008)
(1950.502415 1.224650777 0.4279229746)
(1950.175937 0.6662513227 1.295433128)
(1949.471095 1.20177517 1.363609903)
(1949.768261 0.7556241268 1.342986595)
(1951.166346 1.239397379 1.673773933)
(1950.957287 1.362984056 1.383862719)
(1950.426059 1.06028811 1.209199596)
(1950.154039 0.5927727947 0.10676181)
(1950.950852 0.8118330386 -0.06988906262)
(1950.980079 0.7803401276 0.4521857951)
(1951.855365 1.086077993 0.4932056888)
(1952.954566 1.016787354 0.9622280891)
(1952.509367 1.557012393 0.245319521)
(1951.709658 2.111509504 0.573254655)
(1951.084432 2.551861637 0.3938683645)
(1949.733072 2.113628037 1.667678574)
(1950.099776 2.692282347 1.714543248)
(1949.861137 2.088029225 2.028266475)
(1949.617008 2.200866531 1.027972501)
(1949.213414 1.543703699 1.426610749)
(1949.868934 1.571398035 1.849025637)
(1950.455289 2.138496232 2.660396955)
(1951.245759 1.968437783 1.475969974)
(1951.848881 1.738580409 1.594149255)
(1950.679459 2.023880885 1.442075858)
(1949.861867 0.9118260522 0.5655417553)
(1951.355139 0.7494175359 0.3866014427)
(1951.239611 1.552390742 1.515564843)
(1950.674662 1.248795515 1.613277783)
(1951.946613 1.614752922 1.26260989)
(1951.363355 1.67678598 2.055855633)
(1950.13539 2.364843322 2.524723793)
(1950.264749 2.342333039 2.261433451)
(1950.469045 2.193227473 1.008652806)
(1949.663085 1.476718859 1.418322812)
(1951.511888 1.297075765 1.538909029)
(1951.173812 0.6914602543 1.745666993)
(1950.762216 1.672396364 1.98972402)
(1951.431174 1.386778669 1.898195441)
(1951.452763 1.15474205 1.744986757)
(1951.114383 1.738928985 2.508939188)
(1950.746953 1.51726117 1.895771643)
(1950.529786 1.743818719 1.362981186)
(1949.980973 1.444914186 1.886377822)
(1950.152383 0.8785646396 0.9753602392)
(1949.912839 0.7627805262 0.2848840634)
(1950.500398 2.407058775 -0.183711375)
(1950.832461 2.427292465 -0.232398399)
(1950.327274 2.514341955 0.6913057756)
(1950.485691 2.76628626 1.711786992)
(1950.449951 1.9032429 1.716372021)
(1949.738644 2.195264356 0.5491482327)
(1949.966681 2.84144991 0.1907511701)
(1950.757105 2.438008687 0.9127875662)
(1952.404019 2.285709781 1.504568833)
(1950.693962 1.07439398 1.601558521)
(1951.709255 0.7325507927 0.9045403863)
(1951.509942 -0.6159703161 0.4414567057)
(1950.775574 -0.1023806264 0.8062609904)
(1950.623429 0.5212132599 1.042994924)
(1950.924979 1.620136986 0.9316003696)
(1950.865277 1.845728582 0.8025344187)
(1950.534978 1.559750514 0.475226215)
(1950.121669 1.674797911 0.5750796432)
(1950.418327 1.947883861 1.045906655)
(1950.543005 1.291758118 -0.5317586674)
(1950.667141 1.788147375 0.02682904537)
(1951.321674 2.161351832 0.06633048674)
(1951.304336 2.211995157 -0.09549757209)
(1951.598892 2.788989883 0.7351904336)
(1951.309216 2.575983613 1.029039295)
(1951.83302 1.655352731 2.101872142)
(1950.530567 0.5852302988 1.968977139)
(1949.780867 0.9263341291 2.069870993)
(1949.834585 0.5043770793 2.131243705)
(1950.463675 1.755459769 1.006892152)
(1950.189606 1.864892283 1.83112898)
(1950.078706 2.666057027 1.532886755)
(1950.101867 2.269278264 1.594473524)
(1951.227057 1.699816125 0.2629033847)
(1951.242642 1.641204915 0.8656308957)
(1951.689237 1.745527254 0.9021038113)
(1951.737154 1.152922652 0.7984878036)
(1951.678852 0.9377596386 1.702419204)
(1952.591721 1.469065561 1.10764491)
(1952.251575 1.924278935 0.7651543351)
(1951.865787 0.9829275509 1.371624675)
(1950.741598 1.239194158 1.845545326)
(1949.766042 1.80457669 1.766192205)
(1949.787563 1.221786793 0.9798643152)
(1950.122657 1.645452175 0.6838779219)
(1950.699005 0.4260179851 0.7346955452)
(1951.606981 1.168659377 0.9390225913)
(1951.930844 0.278968858 0.9108987199)
(1951.679388 0.9219068952 1.01712368)
(1951.052846 1.837614776 1.070725212)
(1950.77083 3.079820293 1.528716605)
(1950.258126 2.740268767 1.565259804)
(1950.533772 2.534998912 1.056369146)
(1950.629149 1.991790148 1.015086542)
(1950.318716 2.402646724 1.021975042)
(1950.597077 2.144352334 1.938192617)
(1951.32521 1.650752444 1.441880678)
(1951.140882 0.09662275562 0.8218166701)
(1950.821605 -0.2796861651 1.463172673)
(1951.053983 -0.9445276677 2.222168807)
(1951.122853 -0.7087957088 1.842889618)
(1951.120522 -0.08753799181 1.960682594)
(1950.73097 0.2889609022 1.897397736)
(1950.227358 0.4706239728 0.8417019421)
(1949.63391 1.58504325 0.2076634655)
(1949.531945 0.8913460433 0.8767600686)
(1949.349757 1.94582166 0.6271010408)
(1950.160309 2.147940513 0.5937379435)
(1950.567321 1.692182769 0.7469976197)
(1950.463124 3.218857999 0.275471465)
(1951.610732 3.011667695 0.4644181928)
(1951.42148 3.406245625 0.6982906646)
(1951.10119 2.476854698 1.746553209)
(1949.843967 1.955466547 2.995489645)
(1950.558451 2.230883775 3.395575624)
(1951.71971 1.731614425 3.734973041)
(1951.719488 0.6871347691 2.91161437)
(1951.136779 1.225931978 1.211558265)
(1950.805414 0.9076756024 0.5941779893)
(1951.875019 0.9441668726 -0.09255645309)
(1951.998858 1.623985899 0.08093735949)
(1951.741887 1.96698847 1.196938996)
(1950.890612 2.201961909 0.9499244986)
(1950.982164 0.7345896075 0.8607664437)
(1950.361955 0.03831160549 0.2852340602)
(1950.307493 1.121300077 0.6907098497)
(1951.328775 2.17014401 1.679160416)
(1950.51804 2.064381102 0.6511430302)
(1950.268542 3.087123528 0.6750898558)
(1950.000275 1.173758976 0.5639784965)
(1949.328125 1.245368407 0.2317833735)
(1949.702229 0.4366357554 0.9483030192)
(1951.034088 1.095280094 0.8623842634)
(1951.131124 1.179593705 1.358911773)
(1951.382307 1.815954104 0.4347370296)
(1950.55305 1.625235669 0.5614062697)
(1949.991052 1.670895567 1.434597992)
(1950.504353 2.288372398 1.617509632)
(1951.035426 2.463984816 1.134973848)
(1949.776098 2.10871286 0.5341351661)
(1949.383045 1.087657607 0.04185468437)
(1950.073915 1.745250557 0.2998862169)
(1951.025057 2.208833403 0.9556830071)
(1950.197517 3.052438365 1.18867205)
(1950.435496 2.859713317 0.5718168348)
(1951.455865 2.812456177 1.02394506)
(1950.683141 1.622298665 1.15551874)
(1950.305589 1.694665193 0.9517310277)
(1950.859753 1.836177806 0.7699181061)
(1949.520024 0.5082828255 1.568157157)
(1950.240815 1.041415236 1.777002454)
(1949.92382 0.6383115197 1.215506517)
(1949.568787 0.3993613538 0.8829111879)
(1949.587687 0.06188282318 1.381291951)
(1949.23123 0.9690450928 2.965747528)
(1949.726703 1.466894825 2.563237517)
(1949.604876 1.792718975 0.4914800445)
(1948.934977 1.877907745 -0.2106041967)
(1949.705159 1.326152939 0.1200683543)
(1949.140224 1.661808337 0.2163458358)
(1949.178233 1.521243026 0.7792141756)
(1949.244487 1.267148356 1.143824048)
(1949.250489 1.160471465 0.3025311327)
(1950.037128 0.5422662687 1.145037292)
(1950.284963 1.254186165 1.318907524)
(1949.22085 1.479217202 1.24240341)
(1949.515614 1.342560386 1.400257283)
(1950.494925 2.165778937 1.702620717)
(1949.961626 1.535642022 1.37576871)
(1950.96143 1.82833364 -0.1351219741)
(1950.238045 0.7123142008 -0.4345450397)
(1949.739063 1.228645031 1.008902565)
(1949.632759 1.419352877 1.04787035)
(1949.171826 0.9617565709 1.106816265)
(1949.961148 1.45007184 1.258178059)
(1950.059165 1.692615287 0.7881212078)
(1950.898895 1.684438984 0.2384821235)
(1950.634901 1.780587455 0.5935587633)
(1949.943361 1.774492653 -0.1317950394)
(1950.443044 1.074255259 -0.3557755541)
(1950.450987 1.58774472 -0.2506381789)
(1950.943592 1.276631718 0.3046919774)
(1950.842926 1.681881497 0.69786012)
(1950.340126 1.964789378 0.2245188735)
(1950.308727 1.633432866 0.5417498636)
(1950.404894 1.117921087 0.4155126162)
(1950.159658 0.9017000134 0.8136168105)
(1950.442607 1.541363055 0.553953666)
(1950.119041 1.41722429 -0.07433877793)
(1950.915203 1.497446177 -0.2645219767)
(1951.379659 2.214847057 0.5719414986)
(1950.863821 1.805891851 0.8425969292)
(1950.088049 2.033348402 0.7647358967)
(1950.574536 1.872008137 0.804106855)
(1949.757534 1.552611509 0.7261939706)
(1949.487475 1.290875314 0.008608049551)
(1949.365832 1.475535996 -1.091334765)
(1949.87579 0.6718333382 -0.7270584032)
(1950.797608 0.6971075716 0.3896756203)
(1951.282321 0.3939207532 0.5898587788)
(1952.004518 0.05994154646 1.281558709)
(1951.36946 0.9504477443 1.270196255)
(1951.427063 1.805029568 1.361070295)
(1951.422647 2.56434656 1.530133444)
(1950.890859 1.976729164 2.00195354)
(1950.342647 2.251178492 1.940473683)
(1950.11618 1.563637746 0.4546048159)
(1949.470489 0.6844920228 -0.123297838)
(1950.079775 0.9580468557 -0.5677132527)
(1950.406995 1.792030356 0.4788421512)
(1949.818558 1.989783871 0.3241825102)
(1949.762644 2.025667379 0.7989898551)
(1949.736244 1.714850231 -0.04031175867)
(1950.46367 1.694205411 0.1468792161)
(1951.304385 1.616722296 0.3917643843)
(1950.761676 1.556328624 1.211129488)
(1950.776914 0.6659986247 2.117861126)
(1951.5086 0.8627146497 1.809240411)
(1950.830798 0.466623403 1.716588973)
(1950.097057 1.16928368 1.036346257)
(1950.712008 1.544835474 1.104100629)
(1951.42293 0.5061063775 1.176514901)
(1951.429315 0.1338903057 1.28950624)
(1950.534691 -0.4492753371 0.3143536636)
(1950.416583 0.410977589 -0.6110731411)
(1950.908848 0.2485849806 -0.2144545743)
(1951.434278 0.8223572779 1.316828752)
(1951.512693 2.57612454 1.059967875)
(1950.651269 2.182132614 0.1208964411)
(1950.818421 -0.06104775666 -0.2045823941)
(1951.528 0.6214681066 0.03618160974)
(1951.934879 0.4358393438 0.09661413201)
(1951.488473 0.8153502986 0.09020952883)
(1951.150262 0.4881212294 1.068178934)
(1950.633102 0.7940135882 1.21416626)
(1950.486301 0.6868860193 2.317891584)
(1950.844555 0.67679296 1.482317536)
(1950.605764 1.428436865 0.9109804705)
(1950.256929 2.301087191 0.6402525358)
(1950.701688 1.542266669 0.1195997697)
(1951.177779 1.999400953 0.1282596957)
(1950.477935 2.34021424 0.6135513427)
(1949.815348 2.009428964 0.3638239017)
(1949.709391 0.8828929781 0.06545889082)
(1949.728057 0.1490397219 -0.5063564813)
(1948.797277 0.03094359662 -0.2286949838)
(1949.324145 -0.1745865466 -0.4684315059)
(1949.813733 -0.111016404 -0.6799978869)
(1950.542476 -0.3933220359 0.7301759291)
(1950.539994 0.7259609404 -1.2593306)
(1950.738998 0.5017297865 -0.6266435679)
(1950.64308 1.141665303 -0.2045922872)
(1950.063249 0.696452902 0.5605646174)
(1949.714353 0.8319376158 0.0915615187)
(1949.654829 1.063842866 -0.397335932)
(1950.459666 0.2154402056 -0.5640043684)
(1951.190306 -0.07427815448 -0.1325335239)
(1951.624362 -0.07088731934 1.003498484)
(1951.934216 0.2588941731 0.7263798225)
(1951.953699 1.628975737 0.5844515167)
(1951.512309 2.212888986 0.8930526893)
(1950.319446 1.921925208 0.3260543952)
(1950.827993 2.121568497 0.8150382005)
(1949.388883 2.045272805 0.8568109891)
(1949.250449 3.181580718 0.7520600415)
(1949.87852 3.306577258 -0.02508244476)
(1950.515529 3.035648875 0.3616931153)
(1949.914301 2.132077129 -0.1494206648)
(1949.713 1.320975062 -0.4106638755)
(1950.99844 0.9819303673 0.7792655317)
(1950.652818 2.038108105 -0.1430224086)
(1951.154122 1.615802819 -0.3725545964)
(1951.210366 2.145682556 -0.9834155669)
(1951.630464 1.502078757 -0.5626714364)
(1950.902166 0.7292636762 0.1087775076)
(1951.353095 1.415280544 0.5336539273)
(1951.390067 1.687970297 0.7204068093)
(1951.327694 1.573419305 0.5900921267)
(1951.34688 0.6124116843 0.9644098667)
(1951.095866 0.5360372407 0.862645896)
(1951.122689 0.01613267353 1.527707673)
(1951.309299 0.1921588885 0.4129814006)
(1950.991104 1.003978448 0.1348422339)
(1950.93151 1.377541383 -0.2279771016)
(1950.815294 -0.1997741074 -0.09600541577)
(1949.901191 0.4514755657 -0.194039239)
(1950.253686 1.295094647 0.1195533537)
(1951.032787 2.089147342 0.8593392052)
(1951.494633 1.346617315 0.3980404953)
(1949.740608 2.236003776 0.9438214164)
(1950.709738 1.796785265 0.3553198768)
(1951.159608 1.69740715 -0.8183144468)
(1951.3254 0.9067732226 -0.8845371223)
(1951.18985 2.499560757 -0.6338938971)
(1951.097818 2.840197319 -0.5831205728)
(1951.293478 1.787042675 0.2558006351)
(1951.105055 1.878297712 0.3461655454)
(1951.100776 1.576939133 1.039129526)
(1950.575802 1.672189198 1.6932232)
(1950.279843 1.577582754 1.696542838)
(1950.828591 0.6725411598 0.7085159211)
(1951.27692 0.3458589898 0.1409438353)
(1950.370665 0.09249291516 -0.1542767575)
(1949.138289 -0.1850200188 -0.3526762279)
(1949.606381 1.240135256 -0.7773737725)
(1949.346392 1.286522597 -0.4178641167)
(1949.729488 2.085500461 1.066116794)
(1949.46394 1.371736879 1.135306659)
(1949.532785 2.079691506 1.453431933)
(1950.707075 0.405999435 0.4240197981)
(1950.035641 0.6278020004 -0.2945669475)
(1949.093988 1.454325002 0.4502517097)
(1949.146744 2.424222515 0.7666171013)
(1949.27552 1.747370617 0.7670969568)
(1949.388507 0.9293614161 0.2868752249)
(1949.404794 1.371506103 0.144472778)
(1949.365005 2.17972299 0.04557431978)
(1948.718083 1.772665433 1.323206204)
(1949.658851 2.353597484 1.85765147)
(1949.174636 2.582371222 0.8506370492)
(1949.516758 2.527874304 0.8299885718)
(1950.042669 1.331749275 1.17195669)
(1950.576922 0.5468052956 1.715850054)
(1951.252523 0.9216080099 2.342169354)
(1951.463828 0.3651761781 1.252485955)
(1950.761698 0.8136465803 0.5296521191)
(1950.547461 0.1612958607 -0.603268262)
(1950.837011 -0.02974347743 -0.6526891647)
(1949.892852 0.6794933055 0.5647222492)
(1950.021797 0.8082410589 0.5011271989)
(1950.055535 0.7721329706 -0.06276583398)
(1949.880505 1.605188181 -0.8423192262)
(1950.610583 1.851474862 -0.09287249561)
(1950.560133 1.747334599 0.6527813129)
(1949.896686 1.796187731 1.794696566)
(1950.738311 1.374318661 1.825053437)
(1950.841123 2.418335188 1.306767199)