/*--------------------------------*- C++ -*----------------------------------*\
| =========                 |                                                 |
| \\      /  F ield         | OpenFOAM: The Open Source CFD Toolbox           |
|  \\    /   O peration     | Version:  v1706                                 |
|   \\  /    A nd           | Web:      www.OpenFOAM.com                      |
|    \\/     M anipulation  |                                                 |
\*---------------------------------------------------------------------------*/
FoamFile
{
    version     2.0;
    format      ascii;
    class       volVectorField;
    location    "0.02";
    object      UMean_N2;
}
// * * * * * * * * * * * * * * * * * * * * * * * * * * * * * * * * * * * * * //

dimensions      [0 1 -1 0 0 0 0];


internalField   nonuniform List<vector> 
5120
(
(1949.690067 1.320768364 0.8975538203)
(1950.029339 1.342487718 1.574066019)
(1950.220641 2.7065592 1.864781124)
(1949.76495 2.580349154 1.396418563)
(1950.160149 1.934869642 2.465258756)
(1949.523478 1.177005022 2.152965034)
(1950.109393 1.332377729 0.9236785003)
(1949.178188 0.53592469 0.8245831933)
(1948.950683 0.882890793 0.8766361553)
(1948.50139 2.08664534 0.5483292462)
(1948.44467 1.763979323 0.2196087933)
(1948.661981 1.422914645 0.6100656158)
(1949.745377 0.2137658644 0.4105763355)
(1948.710618 0.05788379494 0.6568523338)
(1948.145624 0.5759782468 1.010244085)
(1949.429219 0.2535468741 1.755897759)
(1950.444119 1.6190823 1.0784136)
(1950.366803 1.030922081 1.753124032)
(1950.456575 0.8872459085 0.8791889963)
(1950.079309 0.5288559501 0.6317298747)
(1950.312178 1.52672586 0.7810274855)
(1949.731921 0.9219985568 0.941402571)
(1949.265471 0.7538197459 1.405277398)
(1949.110224 1.397849044 1.410188564)
(1950.058458 1.637012956 0.03158103495)
(1950.343717 2.139610909 1.13780852)
(1949.926068 1.904649847 1.558749241)
(1950.012884 2.284955139 1.134355519)
(1949.406576 2.049055165 0.4567541438)
(1949.889685 1.438254559 0.8202691159)
(1949.660478 1.400540245 0.7559548964)
(1948.880889 0.6251301475 1.211768021)
(1949.170251 -0.1337713312 0.7838400326)
(1949.427557 1.050370859 1.710033534)
(1950.194901 2.240382459 0.07219745185)
(1951.268216 1.445717071 0.08013204347)
(1952.021493 0.4613757423 0.09617421482)
(1952.025682 1.536839214 0.4843263582)
(1951.851612 2.270507169 0.4363395916)
(1951.39859 2.805304493 1.054633798)
(1949.813486 3.063928129 0.4145408294)
(1949.250768 2.769525515 -0.2118688115)
(1950.019713 2.687000329 -0.05303555408)
(1948.852326 2.960489737 0.4788957025)
(1949.016367 2.343856774 0.8648825528)
(1950.058336 2.020502036 0.9572889427)
(1950.382324 1.639395396 -0.6289341455)
(1949.318899 1.44246229 -1.350226883)
(1949.143714 2.203517825 -1.38955461)
(1948.863639 0.8334078459 -1.652552343)
(1949.842101 0.2520150355 -0.427908787)
(1950.166132 1.58930995 0.1408559361)
(1950.871069 3.393650835 0.8859358402)
(1951.029782 2.637910977 -0.03151870966)
(1950.736225 1.951358861 -0.4942007428)
(1949.391279 2.208716625 -1.473279573)
(1949.74075 1.316125871 -2.392726457)
(1948.803395 1.77381478 -1.8802995)
(1949.112768 3.044840437 0.26717273)
(1948.792621 2.787103551 0.3783315643)
(1950.912828 2.70496046 0.4150063512)
(1951.250523 3.440882939 0.4730458144)
(1950.899478 3.487593128 1.511104071)
(1950.80085 2.188019585 0.3599950122)
(1951.070559 1.050600882 0.8267230735)
(1950.83146 1.982080092 0.5340878821)
(1951.501489 2.459590441 -0.4752353162)
(1950.927993 2.867013926 0.2620764646)
(1950.466141 2.376643013 -0.7651332192)
(1949.752566 2.824169519 -0.5528557395)
(1950.682807 2.477664636 0.4796946029)
(1950.974144 2.785303508 0.3085429043)
(1951.058319 1.150423699 0.1421662347)
(1951.139108 1.17394186 0.954899982)
(1952.185942 1.281983533 0.5722545079)
(1952.284468 2.542189096 -0.02634922386)
(1951.282292 2.748442375 0.551931726)
(1951.119059 1.818667513 -0.4968035829)
(1951.339638 1.606485195 -0.670598762)
(1951.447482 2.593110795 -0.6262955568)
(1951.509826 1.640547008 3.063755212)
(1951.298971 1.524550768 2.395178702)
(1950.986618 1.163689327 1.130319265)
(1951.342845 2.152491621 0.02489668225)
(1950.794879 2.630337803 1.197658512)
(1950.815544 2.237707044 1.396376587)
(1950.002255 2.273878655 1.912140754)
(1950.572875 1.759174271 1.483838069)
(1950.741195 3.072453858 1.338013063)
(1950.057027 3.138568892 0.821823714)
(1949.389497 2.038192832 -0.1080705476)
(1948.505132 2.205909098 -0.6060115233)
(1948.691304 1.926234561 -0.5225956596)
(1948.951536 1.008891876 0.008301417622)
(1949.084084 0.9500421925 -0.162286745)
(1949.8644 0.7530899155 -0.4762537433)
(1949.732402 1.387928897 0.9291139369)
(1950.66305 2.468951644 1.845046441)
(1950.450852 2.78136272 2.019344176)
(1951.410014 3.023292897 2.790254902)
(1950.557835 1.538231979 1.00169956)
(1950.511983 1.446445048 0.6739240191)
(1950.897093 1.533854389 1.611033315)
(1951.565137 1.078718175 3.085214872)
(1951.784329 1.825449494 2.726760161)
(1951.037414 2.003866289 2.768422474)
(1951.594774 1.455483708 1.443510826)
(1951.669561 2.087064796 1.64640155)
(1951.26321 1.511160168 0.3419290439)
(1950.840699 0.9110041522 -0.1079539164)
(1951.03622 1.565298661 1.208784653)
(1951.011249 1.973669074 1.307069454)
(1951.290455 2.262833231 1.532344553)
(1950.591949 2.230999361 1.042750242)
(1949.470463 3.1397307 1.290307093)
(1950.194153 2.513171994 1.283212675)
(1949.964716 0.8475274718 0.4761452398)
(1949.542273 0.9475104942 -0.3475049188)
(1950.439949 -0.07552607204 0.7794841195)
(1950.535228 1.079599961 0.2414738217)
(1951.076536 1.278997493 1.60198323)
(1951.612214 1.556174733 0.927722961)
(1951.683344 1.30763001 2.341472465)
(1950.72665 0.9294090336 2.431034973)
(1950.500348 1.353291515 2.070975232)
(1950.373402 1.524744073 0.09074194782)
(1950.968622 0.4268948899 -0.3256109298)
(1952.023609 1.571754274 0.3661120111)
(1952.413255 3.219227594 1.215344486)
(1953.467084 3.199209217 2.872187901)
(1954.256421 3.309811665 1.477234052)
(1953.020849 3.49987112 1.504870049)
(1951.941067 3.332520703 0.5083340961)
(1951.598292 2.600849047 0.2687798558)
(1950.829969 1.774605813 -0.1709341199)
(1950.037514 0.9853578871 -0.2007480285)
(1950.967794 2.358199397 0.3709617308)
(1950.995019 2.305119862 0.9126352595)
(1950.26261 1.946402007 1.352085736)
(1950.010141 0.980582797 1.641850018)
(1952.375265 1.700671544 0.8016860148)
(1952.128065 1.48928599 1.614179225)
(1951.285463 0.8816116899 1.857870577)
(1952.224656 0.5174364006 1.271436618)
(1952.306161 0.8947754898 0.1402211057)
(1953.056584 0.7283351681 0.2589619366)
(1953.325428 1.827580811 0.1272773243)
(1953.339518 1.459236938 -0.1915178292)
(1953.528699 0.9645682396 -0.4054249964)
(1952.312951 1.521457853 -1.167491472)
(1951.310188 1.597441765 -0.8868067226)
(1951.98789 1.422753343 0.9044853319)
(1951.784544 1.586589705 1.494080028)
(1952.184023 2.178476712 2.095252158)
(1952.492593 1.463366645 0.6589922621)
(1952.18626 2.455146128 1.042135987)
(1951.203142 2.72834841 1.911403754)
(1951.556131 2.139907802 0.9711659266)
(1951.803125 0.8904627524 1.001638743)
(1952.173134 1.065481651 0.2889294105)
(1950.602007 1.993327296 1.571292478)
(1951.195323 1.326257123 1.369049865)
(1951.889009 1.901106318 1.135276399)
(1952.223291 3.476191673 0.5267045605)
(1951.393805 2.892260586 0.7639994309)
(1950.645729 2.349456187 1.072586691)
(1951.111938 1.872499521 1.366199596)
(1951.138999 1.231440518 1.531925348)
(1950.617167 2.311785477 2.051844525)
(1950.395387 1.689487731 1.204638523)
(1949.835867 -0.1363970567 1.463454396)
(1950.843691 -0.497835235 0.7068832978)
(1950.994475 -0.7358781977 0.7379741781)
(1951.213906 -1.03121556 0.7486874447)
(1951.416674 0.3416078658 1.262989017)
(1950.81602 0.3821352852 1.341244579)
(1950.878968 0.7894497399 1.32498759)
(1950.112987 2.038331235 2.25527565)
(1950.074635 3.340302935 1.980087416)
(1949.401308 2.914192498 2.09294036)
(1951.687764 2.445026721 1.096974722)
(1951.588928 3.257466665 1.252923524)
(1951.848135 2.829374476 0.9738960561)
(1951.585901 2.00297432 1.517667093)
(1951.829434 2.108844028 1.834715983)
(1951.846146 1.571381124 1.124582214)
(1950.582194 1.131700965 1.128082399)
(1950.855641 1.278385059 0.1576476391)
(1950.65151 1.957858956 1.425941099)
(1950.853166 1.482123446 1.023352578)
(1951.361647 1.828439915 1.517372213)
(1950.364663 1.770344767 0.8715977047)
(1950.392817 1.864948522 0.3685192844)
(1950.304645 2.123417142 0.3764359035)
(1950.507948 1.261609753 0.4826341302)
(1951.509519 1.847656485 1.612566635)
(1951.061643 1.429366881 1.639116329)
(1952.399535 1.176947408 1.331084957)
(1951.739951 1.154682946 0.332047612)
(1951.955416 1.843040635 0.2259363493)
(1950.628046 0.5673897825 0.7792544041)
(1949.541711 1.351500369 1.064179993)
(1949.096531 1.980965961 0.6169944376)
(1949.408885 2.433312185 0.902030532)
(1949.793845 1.674886018 1.526416132)
(1950.297208 0.63333937 1.929711923)
(1951.21781 0.4665699693 0.6157876728)
(1951.200377 1.703267739 1.870245228)
(1952.079402 1.55745585 0.4754521048)
(1952.293894 1.494058976 0.6682510436)
(1952.098528 2.630896662 0.9274223486)
(1952.347468 2.658365093 1.128038624)
(1952.515827 1.328728648 0.577342379)
(1952.1809 -0.7987871164 1.869554518)
(1951.103989 -0.6979167005 3.215432466)
(1950.600251 -0.4340914459 2.798162783)
(1950.107811 0.5564962128 2.323961854)
(1950.231105 0.6199518196 -0.01947486345)
(1951.215653 0.7327009238 0.825694917)
(1951.612902 0.2514166517 0.05469577436)
(1950.73735 1.286023309 1.592627486)
(1951.485936 0.2774944172 1.463167972)
(1951.098118 0.6559332729 0.4431334199)
(1950.985773 1.288192095 -0.1839790832)
(1950.720944 1.147824566 -1.132468495)
(1950.872147 1.815331074 -0.8160634821)
(1950.66257 1.768895014 -1.078527782)
(1952.497955 1.728483851 -0.7225190372)
(1952.56174 1.039954873 -0.7885320347)
(1951.006847 1.557073677 -0.2437177469)
(1950.598366 0.2584703415 0.1108976637)
(1950.4667 -0.5525034747 0.7279938948)
(1951.726413 -0.4651920183 1.532559963)
(1951.934833 0.58569221 1.85070936)
(1951.994849 0.1541279734 1.837832529)
(1951.413084 0.3055354719 1.800190447)
(1950.659144 0.8585204424 1.113421838)
(1949.927018 0.7415250821 1.643212627)
(1949.928482 1.320048735 1.46240253)
(1949.981478 0.8985690917 1.108242751)
(1950.885366 1.286382904 1.819539381)
(1951.051225 1.675384489 1.094628543)
(1951.165171 1.416637196 0.3960861745)
(1951.538354 0.4126311108 1.273362511)
(1950.937624 -0.05248626878 1.460984433)
(1951.131644 -1.147016343 0.8906966463)
(1950.757429 0.07043611407 1.1592041)
(1950.910331 0.6572651472 1.033145292)
(1950.886044 1.045696097 2.040643181)
(1950.929759 1.014234538 2.027173455)
(1950.373315 2.073044065 2.406985162)
(1949.401188 2.547826061 1.866375684)
(1949.628768 2.484049785 1.412542943)
(1948.436929 1.014432141 1.264530436)
(1948.424368 1.67333448 0.3526665304)
(1948.969817 0.2392427666 0.2561006553)
(1949.640984 -0.08979450377 -0.0692901107)
(1950.497492 0.5386692564 -0.3161833571)
(1950.413473 0.6441885932 0.6276384801)
(1950.603252 1.123253212 0.860052257)
(1950.664345 1.07613685 1.081221084)
(1949.961238 0.6227513604 -0.369814191)
(1949.769593 0.4803177598 -0.734025536)
(1950.018473 0.1217640993 0.0260671926)
(1950.734837 -0.2427831612 1.138872344)
(1951.13578 0.02568823754 0.8163929875)
(1951.439566 -0.1294513713 1.264498427)
(1951.241007 -0.009387418817 1.905795145)
(1951.0577 1.133463019 1.685477511)
(1950.6493 0.5587500028 1.796615105)
(1950.341571 0.5657295959 1.935037987)
(1949.762777 0.6461621054 1.453373284)
(1948.715563 0.8964002519 1.225817879)
(1949.016719 0.7183130682 0.7916531115)
(1949.564452 -0.6554090547 1.753792408)
(1950.319284 0.1928624716 1.631212253)
(1951.639765 1.288691279 0.5073053379)
(1951.863489 2.174605006 -0.5036912023)
(1951.905781 1.944292369 -0.6735957432)
(1951.472841 0.8837835166 -0.3486814915)
(1948.512332 0.3201931947 2.001892095)
(1949.691848 -0.1145824847 1.942869833)
(1951.148832 0.6483399871 1.283170447)
(1950.829524 0.4673140516 0.6405994798)
(1950.270583 1.062811635 0.2966820788)
(1950.051601 0.8754416573 0.9370100441)
(1951.012204 1.774915013 1.165163706)
(1951.846355 0.97186942 1.018534324)
(1951.449421 0.159641286 0.6661326207)
(1951.249634 0.3083525673 1.140854542)
(1950.706095 0.03711318615 0.9692434822)
(1951.225969 0.9791257711 0.9355696656)
(1951.341037 1.327156278 1.384797026)
(1950.606524 2.02738127 1.77698555)
(1951.474834 1.732883811 0.3376894182)
(1951.741534 1.5035101 0.32828957)
(1951.326846 -0.6433636162 0.6922898309)
(1949.855464 0.9194570725 0.5281573073)
(1949.197603 1.196955176 0.6719620258)
(1948.738856 1.117080679 0.902766761)
(1951.295713 0.8842394156 -0.7218470093)
(1951.411556 0.05390720151 0.0393964474)
(1951.472305 -0.4100634724 -0.3163305798)
(1951.111095 -0.03700210527 0.7024160851)
(1950.462637 -0.9182917612 0.5560962573)
(1949.810533 0.6549652348 -0.02898510286)
(1949.864119 0.298275638 0.06721872029)
(1949.602062 0.6939388667 -0.3884166209)
(1949.003934 1.222616247 0.5528693978)
(1949.363555 1.155623904 0.2790804728)
(1950.836339 1.814110216 1.669934769)
(1950.273987 0.07232195219 0.9477685457)
(1950.51698 -0.08108606874 1.188529757)
(1950.879923 0.7604940925 0.3194578632)
(1951.65287 1.990389904 0.6269903158)
(1950.6258 2.301754025 1.19563763)
(1949.616648 2.059917237 0.4195367202)
(1949.765534 1.92692883 -0.3342116925)
(1950.742329 1.6230188 0.5118027368)
(1950.51727 1.142802151 0.08559776804)
(1949.689602 1.532601277 1.9471254)
(1949.590204 1.372524544 1.246953605)
(1949.85411 1.459999987 0.6797067475)
(1950.873733 1.482502944 1.327998437)
(1950.452035 1.275927422 0.75909538)
(1949.707156 0.9664485407 1.651883757)
(1950.471845 1.385016139 1.935669172)
(1951.094615 1.462987193 2.317035257)
(1951.59541 1.392899262 0.8810754791)
(1951.464941 1.372554904 1.727280456)
(1951.513942 0.6367287558 2.248578033)
(1951.539403 0.5450843355 1.488713993)
(1949.936959 1.363357777 0.02565958375)
(1950.924367 1.56390687 0.01663335202)
(1950.384531 1.090559871 -0.688208607)
(1950.909934 2.578005941 -0.79832951)
(1950.75802 2.345026124 -0.5333898707)
(1950.135056 0.5212187821 -0.8922705322)
(1950.591183 0.3396012921 0.4718879384)
(1950.721201 1.327961384 1.181143694)
(1949.346147 1.077644317 0.7494805737)
(1950.603895 2.454113072 0.3990037886)
(1950.660183 0.494260001 0.2118616632)
(1950.167936 0.6655359041 0.7110048756)
(1949.866607 1.023328991 0.6891892539)
(1950.208991 0.700878201 0.08089982415)
(1949.81085 0.5125382968 -1.226498502)
(1950.200254 1.84285366 -0.6667568442)
(1950.627241 2.358112952 0.08569891269)
(1950.624041 1.936040609 0.127371524)
(1950.729718 1.246730135 0.8880659087)
(1950.599773 2.213868882 0.8184921279)
(1950.987824 2.71593893 1.879793802)
(1951.007991 2.667766804 1.184658315)
(1950.709504 1.986582129 0.8933408083)
(1949.282182 1.06477215 -0.05537163016)
(1949.034484 1.189634199 -0.5378324033)
(1949.115588 1.229625882 0.01562575569)
(1949.421581 1.245353419 -0.2680573668)
(1948.337108 1.040156204 -0.1224001148)
(1951.206181 -0.1395223174 -1.067839239)
(1949.57261 1.12667191 -0.8239199129)
(1948.903267 2.139165196 -0.5616259017)
(1949.718102 2.303842406 0.170279205)
(1949.973717 2.897081588 0.0438952075)
(1950.065013 2.238922504 -0.2190299703)
(1949.795457 2.473356739 0.7708890515)
(1949.501112 1.493694693 -0.2823248153)
(1949.647523 0.3420406952 -0.5418393868)
(1950.440953 0.9087617363 -2.152015416)
(1950.371834 1.070624451 -3.47079808)
(1949.768767 0.9325142799 -3.228548176)
(1949.802519 0.200198473 -2.32424433)
(1950.026004 1.189042293 -0.2837671529)
(1950.665568 2.5325127 1.580135826)
(1950.988092 2.241847724 3.063626976)
(1951.060467 1.876846896 2.999063251)
(1950.992527 1.393818088 2.260632692)
(1950.869833 0.4562402013 1.573360795)
(1951.266133 0.7637661125 -0.241597769)
(1949.828624 1.501654939 -0.07751278312)
(1949.265724 0.8368145593 -0.5812881792)
(1950.358195 1.061420854 -0.01360231675)
(1950.812983 0.856413824 -0.4361862269)
(1951.128126 1.215018824 -0.8225825627)
(1949.700618 1.681374092 -0.9682786475)
(1949.822725 1.642957436 -0.2486543007)
(1949.475643 2.04210933 -0.1132871702)
(1950.071371 2.624141411 0.9059331018)
(1949.786023 1.228533434 -0.08745518023)
(1949.999712 0.9103774075 0.2719076694)
(1951.112982 1.206090125 -0.5087304166)
(1951.080329 0.7721676791 0.6951864987)
(1950.976094 -0.07672924561 0.4671423134)
(1950.814665 -0.6523581159 0.8982533748)
(1950.283103 -0.4965947302 0.1582603933)
(1950.365333 0.5955681638 0.07627186292)
(1949.650385 1.692834377 0.463985628)
(1949.183902 2.171995926 0.8722459931)
(1949.628034 1.310361194 0.7006674848)
(1949.554925 3.59669777 0.7613158305)
(1948.947097 1.764407339 1.246158609)
(1949.279982 1.483308956 0.8674670007)
(1949.084199 1.480528593 0.9567041369)
(1949.532437 2.313718568 1.012985039)
(1950.000387 1.726629529 0.8587246072)
(1949.697604 0.4451301761 1.410756367)
(1949.199759 0.5510777674 1.144751611)
(1950.029664 0.1114815436 1.101907658)
(1951.387433 0.7404386276 1.293493762)
(1951.183383 0.7526951867 0.5717071679)
(1950.534774 0.7446356411 0.8471200564)
(1950.139577 0.8492265415 -0.3045212731)
(1950.788256 1.226557738 0.2056396022)
(1950.993104 1.335196531 0.4445880584)
(1952.337908 1.501870237 0.8093607556)
(1952.746775 1.5938271 1.164948434)
(1951.789765 1.440126202 0.3745448638)
(1951.2925 1.912092391 0.1226007586)
(1950.054001 2.70092173 0.2543459932)
(1950.092895 1.882298012 0.8823924699)
(1950.281004 2.505154547 1.001959598)
(1949.859255 2.303314444 1.795282524)
(1949.802195 2.013862469 0.7634801774)
(1949.689051 1.949303292 1.047101971)
(1950.416171 1.841716482 1.456235549)
(1950.58379 2.059273318 2.773285694)
(1951.169114 1.972542517 1.536382219)
(1951.182703 1.967179199 1.531396031)
(1950.22791 2.266935097 1.054067007)
(1949.331932 0.7361045637 -0.06441900331)
(1951.298281 0.7972538384 -0.05771740429)
(1951.380503 1.98964699 0.8552120504)
(1950.719546 2.026385344 1.112980448)
(1952.038411 2.820917573 1.010867347)
(1951.144468 2.141914122 1.820427477)
(1950.200048 2.561703565 2.472748344)
(1950.579139 2.801586437 2.399541291)
(1950.725114 2.56066683 0.9816303264)
(1950.182585 1.712673708 1.156847825)
(1951.286573 1.057394351 0.9004110568)
(1951.589142 0.4763208792 1.707233721)
(1950.929256 1.271059672 2.382875655)
(1951.668204 1.528286895 2.61628409)
(1951.380685 0.9457370391 2.208451592)
(1950.868786 1.530942182 2.881824013)
(1950.321994 1.205245916 2.576434289)
(1950.361601 1.418718033 2.15871427)
(1949.963471 1.910487125 2.298740223)
(1949.832934 1.067853069 1.558071012)
(1950.246386 1.214519048 0.7416474639)
(1950.828336 3.021009907 0.1212050386)
(1950.972987 2.856734047 -0.2617189828)
(1950.626636 2.523407943 1.178815411)
(1950.997844 2.665050874 1.619604886)
(1950.810914 2.093770749 1.176835631)
(1949.265967 2.522738831 0.1562291915)
(1949.37961 3.391753899 -0.4765392175)
(1950.65723 2.745185014 -0.163326036)
(1952.264902 2.140524614 0.8001461235)
(1950.418462 1.324267427 2.249687862)
(1951.617817 0.8287174469 0.9735443064)
(1951.247314 -0.4861852243 0.2482859122)
(1950.863816 -0.2006398398 0.8469230277)
(1951.017535 0.2338872889 1.052837054)
(1951.28765 1.619661437 1.193875827)
(1951.324399 2.193585499 0.6478417537)
(1950.614592 1.869083018 0.09235795587)
(1950.19093 1.314233718 -3.72527943e-06)
(1950.874072 1.204410927 0.9686458115)
(1950.740531 0.7739837948 -0.6786296991)
(1950.928753 2.189838702 -0.3613496855)
(1951.605806 3.032618322 0.109586033)
(1951.280367 3.156031532 -0.4954916976)
(1951.011025 4.088439666 0.5911699897)
(1950.642024 3.28352218 0.9397191321)
(1951.628343 1.955200096 2.316906231)
(1950.388804 0.8441564979 2.279963442)
(1949.780305 1.42405473 2.881304453)
(1949.760234 1.381170816 2.870484353)
(1950.256415 1.699841422 0.7408068991)
(1950.307848 2.054071913 2.050497708)
(1950.348818 3.829271007 1.289082223)
(1949.980701 3.119588045 1.601068214)
(1951.524039 2.484327766 -0.3630298124)
(1951.313877 2.190515599 0.2247629747)
(1952.258808 2.487278287 0.9865158829)
(1952.193594 1.267451909 0.8534958228)
(1952.190387 1.210183415 1.922230278)
(1952.792466 2.273208876 1.810704359)
(1952.236316 2.580739267 1.114849347)
(1951.836105 0.7664279246 1.373712133)
(1950.802162 0.4889638417 1.774587597)
(1949.987207 1.095327719 1.421717997)
(1950.10463 0.8468394413 0.7214529825)
(1950.119559 1.619866968 0.5243031618)
(1950.142447 0.8762299981 0.2112476102)
(1951.247517 2.112842634 0.2461272584)
(1951.374664 1.168374734 0.5729256167)
(1951.113579 1.067968807 1.080166083)
(1951.484971 2.212686104 0.830282397)
(1951.091446 3.503670524 1.253370254)
(1950.800628 3.229547965 1.575740887)
(1950.595145 3.077667879 0.5009383369)
(1950.544345 2.471177868 1.087199926)
(1949.780643 3.179017925 0.8861574019)
(1950.205888 2.403510248 2.264518401)
(1951.021627 1.688844858 1.683535879)
(1950.443612 0.0864714556 0.7075997695)
(1950.406009 -0.3560259617 1.18577993)
(1950.989637 -0.7811269252 2.144030894)
(1951.101376 -0.6037846621 1.813620758)
(1951.485105 0.05328513154 2.023381813)
(1950.556674 0.7726484711 1.925225119)
(1950.200379 0.4853464857 0.8601519221)
(1949.477532 1.872941443 0.5080054932)
(1949.707063 0.8157671251 1.316984295)
(1949.811265 1.670576 0.6839563459)
(1950.686188 2.162558773 0.08890295195)
(1951.011367 1.635479753 0.7572273379)
(1950.41287 3.333532423 0.06253591565)
(1951.486018 3.593705419 0.1679906974)
(1951.507983 3.06030749 0.5260511576)
(1951.261523 2.006364068 1.634107801)
(1950.025988 1.061538915 2.728308205)
(1951.032472 1.950210105 3.597271386)
(1951.905369 1.451891378 3.721656692)
(1951.856185 0.5824239383 3.168147488)
(1951.431887 1.472957682 0.9006318182)
(1950.760813 1.885097644 0.8999617284)
(1951.690989 2.038920114 0.395492356)
(1952.312932 2.227721811 0.7758659121)
(1952.039175 2.588757216 1.704543549)
(1951.185173 2.168084615 1.470931041)
(1951.170134 0.9833778821 1.113845392)
(1950.304365 0.4517033147 0.1397988043)
(1950.347358 1.681148784 0.5533851745)
(1951.650161 2.816602325 0.920709049)
(1950.8113 2.457526299 0.0881443533)
(1950.319376 3.219180201 0.2146420876)
(1949.399967 1.519540723 1.028465633)
(1948.800484 1.216463016 1.041849894)
(1949.499917 0.3245873685 1.89405118)
(1951.269841 1.303742642 1.453333044)
(1951.386476 1.430710531 1.688638843)
(1951.460252 1.842752246 0.8946037244)
(1951.291066 2.139248823 0.3148202006)
(1950.709991 2.583939232 1.44315855)
(1951.337527 2.946264496 1.976060357)
(1951.438055 2.797664173 1.057226719)
(1949.999059 2.472322455 -0.02851723296)
(1949.298993 1.775427259 0.002480788022)
(1949.761914 2.449206134 0.4329150432)
(1950.889773 2.376271249 0.8291417858)
(1949.96982 3.1066342 1.09184681)
(1949.81129 2.538941092 0.5443952556)
(1951.040558 2.752252881 1.287738644)
(1949.934449 1.726249896 1.86120253)
(1949.419291 1.7666958 1.744385591)
(1949.992504 1.921814575 1.426734002)
(1949.492411 0.1499408312 1.243397185)
(1950.506545 0.8117715776 1.613961184)
(1950.087898 0.7087060809 0.8063886252)
(1949.175793 0.427135382 1.107422822)
(1949.520757 0.27054647 1.248574845)
(1949.214937 0.889314502 3.083235961)
(1949.465912 0.8578564763 2.914249087)
(1949.04454 0.6940100616 1.066238349)
(1947.489902 1.098191929 -0.5361456494)
(1948.410745 1.387095057 -0.3565442235)
(1948.014058 1.585919777 -0.3903853464)
(1948.036904 2.126936375 0.2209445149)
(1948.5768 1.988758993 0.7474776284)
(1948.856905 2.010894329 0.02737774194)
(1949.326116 1.221739203 1.645721794)
(1949.826326 1.677808377 1.849691481)
(1948.440725 1.61178165 1.777541173)
(1949.128165 1.088682509 2.107865019)
(1950.076979 2.026141133 2.273545074)
(1949.709375 1.671712128 1.843382173)
(1951.158864 2.812281786 -0.05695718732)
(1950.846947 0.6733887719 -0.02524843881)
(1950.530462 0.9967755407 2.119300515)
(1949.911683 1.497531445 2.007534546)
(1949.386946 1.322671066 1.754617106)
(1950.293398 1.442662434 1.906813699)
(1950.155191 1.822019223 0.9213685959)
(1951.39825 2.262633885 0.5992279565)
(1950.582311 1.80937956 0.9984505827)
(1949.456335 1.698965464 0.07450483433)
(1950.166454 1.628420306 0.1569420567)
(1950.267987 2.255213514 -0.1988114637)
(1950.864164 1.617064335 0.5010254736)
(1950.522865 1.487588262 1.380997441)
(1950.063981 1.908176587 0.7161110657)
(1950.130437 1.705550223 -0.04422318274)
(1949.904242 1.218108484 -0.1041882992)
(1950.017738 0.7209707774 1.082348619)
(1950.433832 1.626575135 0.7844030224)
(1949.980254 1.806662343 0.2460089628)
(1950.049023 1.616761092 -0.5058142104)
(1950.242867 2.646217892 -0.2672737979)
(1949.454851 2.099817243 -0.289821282)
(1948.436157 1.850273696 -0.01427848321)
(1949.248037 2.277961352 0.7944819111)
(1948.76934 2.49532272 1.039489134)
(1948.829721 2.163968716 0.4038122495)
(1948.707609 2.023806048 -1.032063218)
(1949.792965 1.116527554 -0.8068227979)
(1950.805754 0.7878361661 0.258724879)
(1951.208104 0.2064768301 0.584278311)
(1951.640077 -6.995273689e-05 1.403943227)
(1951.175469 1.077974872 1.61486615)
(1951.755785 1.740343486 1.477852923)
(1952.08725 3.011598273 2.150753691)
(1951.030977 2.438745972 2.546374337)
(1950.558813 2.600899909 2.028625086)
(1950.123545 1.821730273 0.6405929858)
(1949.240158 0.9801239926 -0.1541529196)
(1949.442482 1.312347245 -0.5565421023)
(1949.953455 2.008197132 0.3063796157)
(1949.269742 2.029008207 0.2454521498)
(1948.832506 2.754891278 0.68884182)
(1949.299796 2.125941464 -0.5535498535)
(1950.149895 1.802274269 -0.4545808463)
(1951.428072 1.652203127 -0.6205208478)
(1950.669082 1.905760304 1.009338856)
(1950.270905 0.9699735578 2.534883939)
(1951.071529 1.039411108 2.570027511)
(1951.119257 0.9952758685 2.426898576)
(1950.777803 2.032575342 1.587642198)
(1951.092839 1.838034455 1.848874796)
(1951.824941 1.000833489 1.511823398)
(1951.836081 0.9767641523 1.293984284)
(1950.784025 -0.3065674721 -0.41856406)
(1950.774031 0.1238523311 -1.379606512)
(1951.27926 0.5372001878 -0.4664652357)
(1951.712653 1.412619998 1.445037407)
(1951.290938 3.180158383 0.8373092855)
(1950.257273 2.739826047 -0.5337615294)
(1950.974321 -0.9306062064 -0.2208629373)
(1951.988702 0.008170117273 -0.05416946581)
(1952.326012 0.3946712147 -0.2247775005)
(1951.672406 1.389561875 -0.3922756799)
(1951.455963 1.226029097 0.5903700767)
(1951.444354 1.17412043 1.072798685)
(1950.968992 0.8352768001 2.096435604)
(1951.321922 0.8617110483 1.514619249)
(1950.84575 1.685832243 0.9993604977)
(1950.484844 2.87585461 0.7996115379)
(1950.527426 2.046449096 -0.2847357518)
(1950.892776 2.824251508 -0.02863022135)
(1950.497777 2.939343311 0.7344942823)
(1949.88315 2.097158815 0.3492249897)
(1949.577615 0.9102852598 0.0682802933)
(1949.388461 0.4141822378 -0.624955262)
(1948.459759 0.01933883719 -0.1028936304)
(1949.34573 0.03488740596 -0.568039604)
(1949.934975 -0.2232823102 -1.068802276)
(1950.622387 -0.6844322492 0.6991894987)
(1950.412599 1.790094262 -1.575811188)
(1950.611077 1.361122391 -0.459233826)
(1950.237607 1.290440657 0.001872421588)
(1950.041693 0.648878491 0.7100577508)
(1950.007843 1.244844346 0.01422221495)
(1949.897796 1.542057099 -0.6658274802)
(1951.156923 0.715839968 -0.5654123858)
(1951.397116 0.1873021855 -0.2048041731)
(1951.472619 -0.2821952962 0.5784835114)
(1951.560884 -0.3567318503 0.883043457)
(1951.30967 0.9696625895 0.4581380939)
(1951.324473 1.639379063 0.8569355387)
(1950.138224 1.430140072 0.4002557356)
(1950.865337 2.04839899 1.571134967)
(1949.114795 2.211141727 1.418583351)
(1949.117258 3.59265408 0.6122644269)
(1950.058823 3.983713125 0.1101097118)
(1950.749486 3.263826427 0.5304565325)
(1950.267447 2.879296157 -0.3352390255)
(1949.693448 1.65157429 -0.5766186216)
(1951.643835 1.587287934 0.8686584907)
(1951.428316 2.563495232 -0.7064880145)
(1951.831512 2.635241933 -0.631703851)
(1952.048404 2.61273397 -1.175040081)
(1951.85728 1.188107092 -0.6352005984)
(1950.327448 -0.3242590118 0.2319778828)
(1950.948668 0.8234694294 0.7892519642)
(1951.455514 0.9922060493 0.6674040981)
(1951.764585 0.9631853784 0.5776682583)
(1951.156906 0.6134244533 1.287838432)
(1950.974232 0.2191975059 0.5616037181)
(1951.165411 0.07119500099 1.453889487)
(1951.777477 -0.03978385966 0.5840540295)
(1950.950666 0.709514404 -0.03973232826)
(1951.362165 1.120165906 -0.7565879465)
(1951.254054 -0.4439958334 -0.2840397332)
(1950.529266 0.5616479296 -0.4893010645)
(1951.386731 1.832832281 0.4464928304)
(1952.414546 2.75993539 1.127130878)
(1952.545067 2.410540951 0.6380205539)
(1949.762498 2.561693072 1.007624187)
(1950.88179 2.101346555 0.06322737699)
(1951.250923 1.938756656 -1.308596177)
(1951.110981 1.478453307 -1.085371313)
(1950.490793 2.936852684 -0.9844239594)
(1950.885184 3.095319579 -0.8870911217)
(1951.026924 1.876422978 -0.1508250577)
(1950.735003 1.99116722 -0.1436653653)
(1950.952825 1.779628936 0.7898796681)
(1951.134736 1.09825671 1.513646843)
(1950.594523 1.102734203 2.132906679)
(1951.288181 0.2666407567 1.326332052)
(1951.694305 -0.1545928645 0.6576573833)
(1950.408704 -0.03002268564 0.13562982)
(1948.596261 -0.7721429792 -0.2138281293)
(1949.121684 0.8922033638 -0.9444364563)
(1949.035107 0.9801883941 -0.4916288884)
(1949.861503 2.204243898 0.8447479765)
(1949.697577 1.70095594 0.6830292586)
(1949.509804 2.063944226 0.7891344708)
(1950.679566 0.2271914221 0.3737096071)
(1949.896924 0.4227851459 -0.062168961)
(1949.055152 1.410061597 0.7890285664)
(1949.247831 2.070965051 0.7177086147)
(1949.280326 1.342772633 0.3695504582)
(1948.896729 0.8011178111 -0.128262677)
(1948.805829 1.210082591 -0.6292850265)
(1949.069885 2.110426385 0.2386701339)
(1948.225491 1.396998109 1.52312688)
(1948.869157 2.300471474 1.763793545)
(1948.578128 2.992369438 1.081932235)
(1948.701025 3.036782404 0.9453063277)
(1949.763151 2.11411049 0.7851138571)
(1950.508204 0.322541765 1.256180072)
(1951.738673 0.6305814754 1.809429413)
(1952.007204 0.2695394271 0.9308213776)
(1950.989043 1.593109853 -0.2978425188)
(1950.885546 0.7175891675 -0.4332451953)
(1950.393659 0.7912161976 -0.4011565433)
(1949.803854 1.18374448 0.6563427958)
(1950.607804 0.7635309003 0.5888361213)
(1950.359463 0.6942565958 0.04477427507)
(1950.12072 1.490836806 -0.9631010184)
(1951.198286 1.711186264 -0.1644425206)
(1950.818774 0.9971935603 0.5528940511)
(1950.174124 1.794466537 1.902134187)
(1951.017953 1.963334803 1.902888299)
(1951.017881 2.278691579 1.231491795)