/*--------------------------------*- C++ -*----------------------------------*\
| =========                 |                                                 |
| \\      /  F ield         | OpenFOAM: The Open Source CFD Toolbox           |
|  \\    /   O peration     | Version:  v1706                                 |
|   \\  /    A nd           | Web:      www.OpenFOAM.com                      |
|    \\/     M anipulation  |                                                 |
\*---------------------------------------------------------------------------*/
FoamFile
{
    version     2.0;
    format      ascii;
    class       volScalarField;
    location    "0.02";
    object      variableHardSphereMeanFreePath_mixture;
}
// * * * * * * * * * * * * * * * * * * * * * * * * * * * * * * * * * * * * * //

dimensions      [0 1 0 0 0 0 0];


internalField   nonuniform List<scalar> 
5120
(
0.01331599784
0.01333390536
0.01333484619
0.01330915538
0.01329197492
0.01328270673
0.01332166614
0.01334948233
0.01337616996
0.01340087719
0.01342393169
0.01342151785
0.01339384233
0.01338631841
0.01337416307
0.01337467527
0.01340179706
0.01335237231
0.0133413661
0.01333444676
0.01339484715
0.0133907345
0.01335680295
0.01335023946
0.01339060075
0.01342009855
0.01339361147
0.01340607657
0.01337465094
0.01339691651
0.01334410228
0.01335655319
0.01338785232
0.01337832558
0.01339007678
0.01334907831
0.01337809149
0.01336209693
0.01339271103
0.01337119135
0.01341093861
0.01342039224
0.01342383416
0.01341991005
0.01336095595
0.01336135375
0.01339132428
0.01338220048
0.01336853827
0.01336810803
0.01337880585
0.01336257281
0.01334928877
0.01334028995
0.01331063363
0.01334972978
0.01334943708
0.01338743682
0.01337975096
0.01339429184
0.0134098656
0.01338409217
0.01337281143
0.01336903779
0.01335617097
0.01335275017
0.01335712512
0.01337789096
0.01338294292
0.01341212651
0.013373167
0.01337762483
0.01337847841
0.01343061906
0.01343851229
0.01344524465
0.01344384022
0.01339059838
0.01338704121
0.01340512269
0.01340910038
0.01342461039
0.01339199256
0.0134125062
0.01342201478
0.01343829661
0.01344674852
0.01343874505
0.01344914138
0.01345052546
0.01344291521
0.01338618313
0.01340241202
0.01338832178
0.01338776161
0.01340694862
0.01341265454
0.01341102221
0.01340620235
0.01340732574
0.01341525437
0.01340471793
0.01341247892
0.01345067944
0.01340281215
0.01341606322
0.01346537645
0.01346996857
0.01346285943
0.01342539401
0.0134156106
0.01339795247
0.01340626115
0.01336554216
0.01341059371
0.01340259676
0.01340627525
0.01340431635
0.01344052183
0.01341441479
0.0134655352
0.01346201691
0.01343838076
0.01338736881
0.0134166559
0.01341324824
0.01341132104
0.01341693764
0.01342619284
0.01344307366
0.01346564517
0.01341168039
0.01340707348
0.01340783316
0.01341674822
0.01341534322
0.01342491869
0.01342375784
0.01342807948
0.0134820664
0.01344158831
0.01345437608
0.01348794169
0.01349142198
0.01347225412
0.01347431821
0.01347155979
0.01346913933
0.01347336821
0.01346048468
0.01346934925
0.0135047555
0.0134877906
0.01342990652
0.0134201815
0.01341246068
0.01340748974
0.01340292314
0.01343358958
0.01340744292
0.01341792399
0.01343644802
0.01342015595
0.0134293644
0.01343211225
0.01340971648
0.01341562589
0.01343707287
0.01340497845
0.01341453462
0.01340180193
0.01338959284
0.01338741391
0.01339671985
0.01339352972
0.01339965478
0.01336212187
0.01337340714
0.01339449863
0.01338863331
0.01340268782
0.01337174363
0.01338464525
0.01344080119
0.01342329302
0.01342744091
0.01341245326
0.01339384719
0.01339260698
0.01346112391
0.0134767718
0.01345477583
0.01343450338
0.0134188617
0.01339965324
0.01344091618
0.01344047349
0.0134515054
0.01341203431
0.01340078736
0.01334846661
0.01334133369
0.01334798559
0.01335326908
0.01339081413
0.01340475131
0.01344134107
0.01342266665
0.01342249791
0.01341343036
0.01338347131
0.01334256428
0.01335720494
0.01336734827
0.01339664665
0.01338987095
0.01335923043
0.01336976661
0.01337015772
0.01336998944
0.01344513948
0.01347718727
0.01343005313
0.01343185752
0.01340573382
0.01338664555
0.01335989062
0.01338087377
0.01338243864
0.0134060208
0.01339468715
0.01340830904
0.01341365224
0.01338223962
0.01337961238
0.01340534319
0.01340932211
0.01341962778
0.01344354488
0.01344620617
0.01335881864
0.01336992997
0.01337261459
0.01339714205
0.01341841154
0.01342597119
0.01342943061
0.0134518235
0.01343507259
0.01343472028
0.01343127661
0.01339784364
0.0134079215
0.01339797502
0.01336725929
0.01338631239
0.01337055596
0.01337598607
0.0133427539
0.01333945277
0.01335747412
0.01339232197
0.01338678395
0.01337393296
0.01337917531
0.01340188419
0.01339346534
0.01336774656
0.01337898399
0.01335915148
0.01332660655
0.01333285053
0.01330045972
0.01332391934
0.01332436857
0.01334540823
0.01336811384
0.01337272908
0.01338001248
0.01341628975
0.01341028352
0.01344008167
0.01346386891
0.01345061428
0.01344367051
0.01345761944
0.01345746155
0.01345605397
0.01339367014
0.01338844077
0.01333936176
0.01338090077
0.01336744754
0.01339230496
0.01341249354
0.01348528709
0.01345401266
0.01341003182
0.01337705852
0.0133688108
0.01337631851
0.01335734455
0.01338561777
0.01338865752
0.0134181108
0.01338772391
0.01336436949
0.01334025411
0.01334316501
0.01336008255
0.01341372827
0.01340189784
0.01341622202
0.01342147312
0.01341348356
0.01336806151
0.01335667922
0.01335057243
0.01336446247
0.01337430669
0.01341494726
0.01338945583
0.01339664949
0.01338211633
0.01334441746
0.01333679493
0.01335887356
0.01338002444
0.01337446633
0.01333466422
0.01331641581
0.01337150216
0.01341633516
0.0134115271
0.01338327117
0.01339519326
0.01340270139
0.01340511773
0.01342727769
0.0134391672
0.01334138127
0.01333871543
0.01333873475
0.01337126393
0.01339535858
0.01335658092
0.01340257385
0.01337225156
0.01340631879
0.01340301827
0.01340409365
0.01338108132
0.01335159451
0.01335792218
0.01338048831
0.01337244716
0.01338433345
0.01339911281
0.01337738874
0.01336780797
0.01336687215
0.01335639058
0.01338687592
0.01338197839
0.01339654741
0.01341741773
0.01338502844
0.01337572761
0.01337770821
0.01337516012
0.0133896746
0.0133966151
0.01337805348
0.01340008722
0.01338841256
0.01337880284
0.01334561529
0.01334150962
0.01337150602
0.01335951262
0.01344257493
0.01343801513
0.01342993446
0.0134229529
0.01345109201
0.01338911686
0.01340005346
0.01339112971
0.01341821678
0.01341349746
0.01342921254
0.01344588897
0.01342444108
0.01341130226
0.0134350339
0.01343108077
0.01340600717
0.01345003281
0.01344139673
0.01344329341
0.01336247379
0.01336421115
0.01337071343
0.01338041221
0.01338068464
0.01333532266
0.01334168731
0.01332609869
0.01335145843
0.01336147638
0.01338857711
0.01338515949
0.01340459449
0.01340717583
0.01345047425
0.01343831246
0.01346058528
0.01345774764
0.01341914485
0.01338225504
0.01339590707
0.01339450399
0.01339997752
0.01338920699
0.01337851284
0.01336627547
0.01335016732
0.0133174613
0.01332518998
0.01335722919
0.01334495027
0.01339547449
0.01338854071
0.01336254814
0.01338297638
0.01338851764
0.01335821107
0.01338689329
0.01336640099
0.0133814686
0.01335826984
0.01336682796
0.01333262384
0.01335842366
0.0133505397
0.01333667864
0.01334407353
0.01335761909
0.01333765701
0.01334358846
0.01334790453
0.01338126007
0.01339019421
0.01340200008
0.01338718066
0.01338785381
0.01341191309
0.01340955393
0.01338268033
0.01338049009
0.01331063146
0.01332461734
0.01330168232
0.01330815069
0.01332860129
0.01333875924
0.01333895874
0.0133792422
0.01340496669
0.0133894778
0.01337649949
0.0133967972
0.01337693659
0.01339173678
0.01338946948
0.01336599616
0.01339145636
0.01337959237
0.01338556425
0.01333720547
0.01337611814
0.0133601429
0.01337535245
0.01336943867
0.01341407021
0.01340894812
0.01340132
0.013387441
0.01342060485
0.01339831185
0.01341712344
0.01338939778
0.01337513657
0.01338377155
0.01334350475
0.01333971735
0.01334093666
0.01333509318
0.01333931836
0.01337004565
0.01348382508
0.01348008484
0.01347667451
0.01346124474
0.0134205098
0.01341272852
0.01339691193
0.01340178406
0.01340515263
0.0134174284
0.01339313431
0.01340455221
0.01341393089
0.01344994636
0.01349779768
0.01349618655
0.01346603814
0.01347125498
0.01344713803
0.01345585694
0.01340216261
0.01340430953
0.01338170516
0.01335535971
0.01336586046
0.01337077591
0.01340242968
0.01338333839
0.01340300089
0.01340952596
0.01346012901
0.01349703114
0.01348055577
0.01345997676
0.01343171245
0.01343297747
0.01342198956
0.013401135
0.01340298207
0.01338815191
0.01335939305
0.01337307716
0.01335464295
0.01336543338
0.01338695521
0.01336140358
0.01334237918
0.01333647788
0.01335970962
0.01335109487
0.0133727397
0.013360397
0.01339877986
0.01342065057
0.01341534198
0.01340615528
0.0133931368
0.01339213443
0.01337388685
0.01337656819
0.01337170655
0.01336407284
0.01333022565
0.01334333263
0.01334965138
0.01336521201
0.01339423203
0.01336695264
0.01336542912
0.01334140584
0.0133752994
0.01335271167
0.01336489944
0.01336483984
0.01336984748
0.01340026173
0.01341481826
0.01339932869
0.01340244181
0.01339384939
0.01342202437
0.01338888065
0.01340103783
0.01339620563
0.01336647017
0.01338841245
0.01338741576
0.01338400485
0.01339889289
0.01338645656
0.01337960101
0.01338293598
0.01340278844
0.01340503388
0.01338699667
0.01339627012
0.01337908243
0.01340552113
0.01343501179
0.01339740485
0.01337753534
0.0133655651
0.01332990844
0.01334426876
0.01332746475
0.01332398031
0.01334515903
0.013362424
0.01339077897
0.01341244061
0.01342109551
0.01337760363
0.01333431358
0.0133851966
0.01341112691
0.01337462635
0.01339822932
0.01336543905
0.01337671356
0.01341313197
0.01331840078
0.01334095395
0.01335933623
0.01337335865
0.01336826643
0.01337052767
0.01338763195
0.0133343896
0.0133483726
0.01337936706
0.01337793008
0.01337709772
0.01338373703
0.01335261859
0.01334954607
0.01338064893
0.01336110764
0.0133640884
0.01331623268
0.01330001797
0.01339611867
0.01340355308
0.01338744169
0.01341550012
0.01338057375
0.01335325815
0.01334163133
0.01336147244
0.01338524661
0.01336512797
0.01336024066
0.01337269332
0.01334766594
0.01334775939
0.01337030297
0.01342212732
0.01344196632
0.01341795935
0.01341097799
0.01340741902
0.0134302071
0.01342966897
0.01345094503
0.01344196702
0.01344300903
0.01347707861
0.01347173561
0.01348006535
0.01347067639
0.01343890653
0.01341665225
0.01338419341
0.01340589533
0.01339599642
0.01339514831
0.01337926542
0.01339411104
0.0133556983
0.01339534107
0.01339165784
0.01339042144
0.01337850121
0.01336373202
0.01333407379
0.01334898352
0.01337362028
0.013375892
0.01343206147
0.01344658749
0.01345770404
0.01347224799
0.01347177822
0.01348267203
0.01343275992
0.0134764767
0.01343973394
0.01341904466
0.01341718578
0.0133871272
0.01338395584
0.01345217186
0.01344324989
0.01345100939
0.01345411529
0.01341187209
0.01339581389
0.01340187854
0.01339977221
0.01341819084
0.01341327559
0.01338826142
0.01341685766
0.013442147
0.01339310145
0.01338245024
0.01340577463
0.0134167723
0.01340015291
0.01342508487
0.0134350315
0.01340802521
0.01338879569
0.01340231644
0.0134148479
0.01341425349
0.01339908073
0.01341616727
0.01341667427
0.01337850982
0.01332530507
0.01333046776
0.01335300511
0.01337167766
0.01337628913
0.01341321907
0.01342484052
0.01341163106
0.01342141386
0.01341880654
0.0133847929
0.01341039483
0.01338417035
0.01336094384
0.01337611762
0.01337212321
0.01338206596
0.01339261852
0.0134208415
0.01343612792
0.01345766224
0.0134495423
0.01341277314
0.01341553819
0.01341133991
0.01340711859
0.01339454094
0.01340460822
0.01337971354
0.01340450189
0.01342743161
0.01345046266
0.01345636008
0.01348325142
0.01344789413
0.01339738686
0.01340837922
0.01340612933
0.01336895109
0.01334025904
0.01331656936
0.01333438965
0.0133606274
0.01339728547
0.01342279539
0.01344001748
0.01342710193
0.01341450376
0.01341694415
0.01343152383
0.01343974804
0.01343301757
0.01340449279
0.01339063391
0.0133889937
0.01340862527
0.0134107786
0.01335803965
0.01336582157
0.01338512734
0.01338047942
0.01336205434
0.01337044319
0.0133745337
0.01342052627
0.0134068971
0.0134230203
0.01343074257
0.01345578392
0.01344985727
0.01345459224
0.01335518931
0.01337938447
0.01339207374
0.01339046439
0.01338472634
0.01338252402
0.01338012445
0.01338038715
0.01336406562
0.01334703117
0.0133359257
0.01332643805
0.01333053961
0.01331919723
0.01335371509
0.01335008234
0.01335571495
0.01335578363
0.01335278255
0.01334998296
0.01343311516
0.01345047828
0.01341747
0.01342064733
0.01342059562
0.01343508932
0.01344379894
0.01345696693
0.01344555133
0.01341904977
0.01339726931
0.01340999322
0.01340479461
0.0133766567
0.01335964833
0.01336659294
0.01336457302
0.01339051802
0.01340076716
0.01343786764
0.01340311697
0.01336398518
0.01339118637
0.01341828479
0.01340261757
0.0133734067
0.01334463282
0.01334537852
0.01334523187
0.01336507667
0.01335515109
0.01337983477
0.01337008817
0.01338619832
0.01339186151
0.01337828295
0.01337856897
0.0133863656
0.01339155619
0.01337567391
0.0133765988
0.01336094766
0.01336048193
0.01333514468
0.01332914087
0.01339761574
0.01340620354
0.01339071679
0.01339754595
0.01337680936
0.01336886455
0.01338694023
0.0133829677
0.01334832777
0.01334917714
0.01336961264
0.01336496432
0.013372182
0.01337878587
0.01337029546
0.01337786087
0.01338807087
0.01337784054
0.01338884008
0.01336838284
0.01333523592
0.01333752616
0.01330589878
0.01330838885
0.01335252195
0.01332729102
0.01330889182
0.01332909765
0.01334428254
0.01336335629
0.01337678555
0.01337193007
0.01338971207
0.0134150792
0.01341393845
0.01332668601
0.01338798568
0.01339489237
0.01343719968
0.01341911153
0.0134166863
0.01339650828
0.01335721321
0.01335765123
0.01334041907
0.01335155368
0.01334529605
0.01333305899
0.01331279063
0.01330223306
0.01327842214
0.0132932762
0.01327502272
0.01327668039
0.01332645771
0.01336298093
0.01339912728
0.01336683481
0.01337971403
0.01337128751
0.0133338326
0.01328418496
0.01332998512
0.01337895392
0.01336718714
0.01339050575
0.01340571776
0.01342592372
0.01338040143
0.01335083129
0.01335267869
0.0133305415
0.01337506208
0.01337160322
0.01336415991
0.01338082179
0.01335474815
0.01336067198
0.01332636922
0.01336339512
0.01338455134
0.01338580174
0.01338933315
0.01337969051
0.01340119989
0.01338575762
0.01336827441
0.01338667442
0.01339880174
0.01341303407
0.01341170606
0.01340191297
0.01339070851
0.01337904538
0.01339560953
0.01341604134
0.01343500247
0.01341605913
0.01343391433
0.01340770353
0.01340533823
0.0133827406
0.01333884981
0.01333368855
0.01331935175
0.01330297422
0.01327559657
0.01327545563
0.01329406541
0.01330453207
0.01332390504
0.01334586796
0.01337960202
0.01340765658
0.01343237494
0.01344128767
0.01342868956
0.01340590437
0.01340800572
0.0133964239
0.01341842027
0.01340520127
0.01339798596
0.01338113947
0.01339229027
0.01341574342
0.0134320074
0.01345103287
0.01339857678
0.01339782411
0.01338236199
0.01337733739
0.01335999695
0.0133821927
0.01341641044
0.01335827681
0.01339257012
0.01338402769
0.01342156064
0.0134156074
0.01343092749
0.01344024754
0.0133939229
0.01341800571
0.01342184554
0.01342721323
0.01346002414
0.01343846911
0.01346463811
0.01345062749
0.01342681252
0.01343346268
0.01343651601
0.01342334482
0.01335467619
0.013391048
0.01337764841
0.01335764309
0.01339316622
0.01340719817
0.01343380278
0.01346238227
0.01349233893
0.01345632708
0.01346393481
0.01343498241
0.01345292112
0.01346482703
0.01345225208
0.01346056832
0.01348216747
0.01345175771
0.01343869905
0.01345311438
0.01344481028
0.01343780663
0.01341576339
0.01343166776
0.01343540367
0.01343709786
0.01345245242
0.01341692835
0.0134186368
0.01343147079
0.01342689279
0.01343088801
0.0134127976
0.01338773408
0.01337398947
0.01334916999
0.01335967062
0.01339589103
0.01342288536
0.01339973717
0.01340473616
0.01339905547
0.01345624707
0.01343559137
0.01343001579
0.01345205396
0.01346637111
0.01348081112
0.01344659853
0.01346085655
0.01342821497
0.01344589278
0.0134255591
0.01340034058
0.01337257124
0.01336486965
0.01340428719
0.01339532282
0.01338984079
0.01340643692
0.01339288087
0.01343087731
0.01343003573
0.01345723164
0.01348080832
0.01344950192
0.0134172028
0.01337583309
0.01337900212
0.01340321312
0.01341522761
0.01339495961
0.01338762415
0.0134142765
0.01343397838
0.01342712611
0.01341972301
0.01344745359
0.01344570559
0.01342478928
0.01343141643
0.01337283041
0.01336586824
0.0133794519
0.01336944681
0.01338857024
0.01338860747
0.01342342986
0.01340931495
0.01342448309
0.01344691388
0.01343453531
0.01342741007
0.0134182229
0.01340541054
0.01340459584
0.01338228033
0.01340597308
0.01339256586
0.01338514275
0.01337811426
0.01335419026
0.01336622325
0.01334657086
0.01334381558
0.01333526598
0.01336248438
0.01336936234
0.01339001154
0.01338654397
0.01336988265
0.01339340277
0.01336614189
0.01337516501
0.01338583502
0.01336913052
0.01338751715
0.01339932257
0.0133356021
0.01333120356
0.01331599618
0.01336558344
0.01333851025
0.01335801876
0.0133767727
0.01339438971
0.01343668296
0.01345105047
0.01342488792
0.0134397157
0.01341646661
0.01343999818
0.0134471648
0.01343657842
0.01341802782
0.01340962385
0.01339615212
0.01335564736
0.01332929343
0.01331933675
0.01331902296
0.01347423369
0.01348897123
0.01346823721
0.01345203144
0.01342403972
0.01338694772
0.01335994666
0.01338000473
0.0133542472
0.01335413515
0.01336570303
0.01334174922
0.01332488231
0.01335406195
0.0133596321
0.01340130529
0.01343485775
0.01342565096
0.01345899453
0.01347304342
0.0134229741
0.01343990168
0.01343033849
0.01339602461
0.01340985543
0.01342425542
0.01340683055
0.01337514649
0.01340120858
0.01339697403
0.01339270428
0.01337671186
0.01338892958
0.0133840125
0.01339204167
0.01338637222
0.01342615735
0.01338733418
0.01342537513
0.01341336559
0.01338652734
0.01341439275
0.01337719277
0.01339740483
0.01340869781
0.01342662852
0.01340544949
0.01337788339
0.01340088013
0.01336013391
0.01337605425
0.01345245314
0.01342498916
0.01343132211
0.0133849504
0.01341940904
0.01342587481
0.01341786569
0.01338749274
0.01338336864
0.0133716113
0.01334594343
0.01335460089
0.01333131789
0.01336950072
0.01338447902
0.01343628445
0.01345224842
0.01342892877
0.01343998622
0.01344363198
0.01339113798
0.01340058472
0.01341797396
0.0134208627
0.01341228036
0.01339411172
0.01339570723
0.01341027417
0.01338570652
0.01341348621
0.01336154281
0.01337400836
0.0133690629
0.0133810697
0.01340571505
0.01346192199
0.01342798436
0.0134061516
0.01339801537
0.01339355199
0.01338683891
0.01338410992
0.01337027454
0.0133968485
0.01343977733
0.01345009001
0.01341364482
0.01340413348
0.01337990601
0.01343050572
0.01348779399
0.01350091657
0.01352146811
0.01346892505
0.01344206117
0.01343263674
0.0133734098
0.01337204181
0.01337472809
0.01337518502
0.01339769362
0.01338267982
0.01335253619
0.0133638181
0.01332718127
0.01333532138
0.01338010259
0.0133911801
0.01339708226
0.01335023444
0.01330656546
0.01335818116
0.01337543656
0.01338572464
0.01340608266
0.013397825
0.01340346388
0.01342768247
0.01343967354
0.01345845097
0.01347884628
0.01346446832
0.01341679423
0.01342354879
0.01336518781
0.01337412458
0.01336158015
0.01337151439
0.01337996459
0.01336787761
0.01340655171
0.01340100609
0.01339649469
0.01343444434
0.01345599637
0.01346871015
0.01345577684
0.01343572006
0.01339305578
0.01339899039
0.01337801234
0.0133886841
0.01339568208
0.01340444179
0.01343185088
0.0134186059
0.01337976071
0.0133480609
0.01334994525
0.013454624
0.01346082618
0.01348575141
0.01347222437
0.01345871262
0.01341522743
0.01340685126
0.01342325311
0.01347629139
0.0134844485
0.01343526855
0.01342111554
0.01341779219
0.01335166987
0.01335064681
0.01337587014
0.01341282903
0.01344825598
0.01347147258
0.01347432858
0.01348425907
0.0134693798
0.01347191017
0.01346720425
0.01342885274
0.01344598438
0.0134596691
0.01344810766
0.01343276565
0.01343092035
0.01343461236
0.0134622568
0.01344665259
0.01347588397
0.01345707788
0.01346930256
0.013489135
0.01349372573
0.01346293351
0.01345175016
0.01339987157
0.01341779977
0.01342489327
0.01342939253
0.01338819563
0.01339469157
0.01339614413
0.01341220705
0.01341209816
0.0134237123
0.01343238088
0.01342657548
0.01343718007
0.01345679454
0.01347570261
0.01345369995
0.01341876514
0.01342952924
0.01338984824
0.01344170113
0.01340256891
0.01340395673
0.01343043804
0.01342454641
0.0134701551
0.01345283527
0.01342398355
0.01345654711
0.01347301599
0.01347370871
0.01344989282
0.013438694
0.01341376036
0.01339457164
0.01336430095
0.01338390938
0.01337619084
0.01340439606
0.0134059405
0.01341927742
0.01341543846
0.01340064162
0.01339963896
0.01334936622
0.0133606772
0.01338119598
0.0134298543
0.01341779274
0.01339263629
0.01340680577
0.01344557997
0.01344003477
0.01343695656
0.01346357754
0.01344022532
0.01341958949
0.01340648476
0.01338494536
0.01341467422
0.01342177515
0.01335979525
0.01338598396
0.01340381224
0.01337088663
0.01337956319
0.01338813646
0.0133991266
0.01339555047
0.01338306647
0.01338683002
0.01335953377
0.01336201657
0.01338612748
0.01339976369
0.01341158294
0.01337722244
0.01336557577
0.01338117655
0.01335692185
0.01334830979
0.01340813439
0.01338929332
0.01337480435
0.01343508897
0.01342331985
0.01341669315
0.01343470147
0.01338904342
0.01338648364
0.0134083887
0.01344466768
0.01343602833
0.0133823545
0.01338722188
0.01335091922
0.01333555102
0.01336228003
0.01338381146
0.01339903693
0.0134285445
0.01341108627
0.0134286235
0.01342321731
0.01344895829
0.01345132504
0.01346088603
0.01345625982
0.01345127834
0.01344172043
0.01348113847
0.01339223177
0.01339795979
0.01343462163
0.01340864788
0.01341631545
0.01340370537
0.01338131712
0.01340405107
0.01343014372
0.01341296969
0.01336396043
0.01335672211
0.01336866647
0.01335232039
0.01334996695
0.01334893799
0.01333268934
0.01330880445
0.01333377508
0.01334064263
0.01339398691
0.01342127781
0.01346277095
0.01344293383
0.01344064991
0.01341467882
0.01340227147
0.01339874583
0.01338156944
0.01334695837
0.01347312373
0.01347285709
0.01347519998
0.01346237809
0.01344084801
0.0134361293
0.01346546521
0.01347625416
0.01348452006
0.01343343038
0.01343135828
0.0134554496
0.01346118614
0.01344969119
0.01344160175
0.01345251648
0.0134685448
0.01353703768
0.01347722763
0.01347192981
0.01347575219
0.01345429071
0.01347372018
0.01345068611
0.01341522086
0.01337769153
0.01339488781
0.01336582355
0.01337613189
0.01339643177
0.01342876483
0.0133882793
0.01339551037
0.01342010598
0.01346720108
0.01346745383
0.01345835527
0.01340656843
0.01343006384
0.01346707427
0.01338313388
0.01343841604
0.01342730423
0.01344671767
0.013457422
0.01346278064
0.01346433778
0.01347704435
0.01352485449
0.01350875639
0.01349356808
0.01350340512
0.0134916481
0.01346129788
0.01344610882
0.01340712069
0.01339809826
0.0133811599
0.013394249
0.01341217114
0.0134020161
0.01336827123
0.01338337729
0.01340391011
0.01341267687
0.01344506089
0.01346477648
0.01346460539
0.01344806046
0.01345218249
0.01348416756
0.0134814898
0.01346252474
0.01343303518
0.01341238161
0.01338863835
0.0134081358
0.01342842632
0.01340184979
0.01340645116
0.01339533417
0.01337081598
0.01338047481
0.01335533182
0.01336083458
0.01335935642
0.01338252375
0.01338515478
0.01338551914
0.01337564446
0.01335525105
0.01335815643
0.01340941088
0.01340510094
0.01341807551
0.01345338243
0.0134199061
0.01340921997
0.01340298797
0.01339781327
0.01336199757
0.01340514241
0.01335792485
0.01332270072
0.01330298817
0.01329620032
0.01331632915
0.01332727083
0.01332090592
0.01335126226
0.01335975692
0.01333433391
0.01331374145
0.01335556058
0.01337151501
0.01338806429
0.01337064896
0.01332265454
0.01333722928
0.01335006224
0.01340922014
0.01340690806
0.01340309408
0.01342229773
0.01341774381
0.01341173964
0.01340404409
0.01340961617
0.01338184641
0.01339138683
0.01335875977
0.01336259893
0.01338233918
0.01338774814
0.01336745765
0.01337465033
0.01342382283
0.01340644798
0.01342360291
0.01337732421
0.0134195306
0.01342457516
0.01341607707
0.01344281705
0.01346256389
0.01345418823
0.01348074799
0.01345448194
0.013420318
0.0134049004
0.01339624606
0.01337827631
0.0134015457
0.01339921282
0.01342034902
0.0134066607
0.01341752585
0.01343241272
0.01341849337
0.01343411578
0.01342770902
0.01342467931
0.01343618983
0.01338744583
0.01340433188
0.01344980809
0.01339946592
0.01341461023
0.01341088072
0.0134352624
0.01345691035
0.01343687932
0.01340529274
0.0134243857
0.01342113077
0.01344388273
0.01340694025
0.01339931467
0.01340764934
0.01342628287
0.01338229514
0.01340493268
0.0133882518
0.01341031678
0.01338672363
0.01339458531
0.01342427178
0.01340777471
0.01338039876
0.01339490692
0.01341573358
0.01344636109
0.01344665829
0.01346624214
0.01340909006
0.01340178552
0.01338310845
0.01339669955
0.01337464695
0.01337621165
0.01343522412
0.01343602827
0.01342582306
0.0134593022
0.01341403591
0.01340607674
0.01339008166
0.01337968583
0.01337570679
0.01335866631
0.01333264253
0.01336349307
0.01336985867
0.01337951862
0.01336482368
0.01338046072
0.01339700804
0.01343700435
0.0134510576
0.0134205552
0.01342751886
0.01342054657
0.01341864651
0.01340199862
0.0133951348
0.01339937039
0.01337449109
0.01337595872
0.01336202049
0.01337440716
0.01336569278
0.01340938936
0.01340936871
0.01341876498
0.01343831593
0.01346290085
0.01345091531
0.01347746951
0.01346507287
0.01345671804
0.01341106749
0.0134184248
0.01340329985
0.01342098429
0.01343157288
0.01342989715
0.01340787682
0.01338459159
0.01342426678
0.01341432676
0.01344412242
0.01342504691
0.01343932987
0.01340136739
0.01340165284
0.01341983615
0.0133848037
0.01340579433
0.01342639973
0.01343029719
0.01343898277
0.01342405893
0.01342155233
0.01340856802
0.01341408552
0.01338558851
0.0134104975
0.01345506344
0.01344054178
0.01346607127
0.01345284188
0.01344421258
0.01346980969
0.01346122844
0.01349149771
0.0134577301
0.01343803498
0.01343830055
0.01340193952
0.01341412294
0.01341825463
0.0134052264
0.01342343629
0.01341200626
0.01339345862
0.01345229596
0.01345476115
0.01345251305
0.01345233003
0.01344831497
0.01342157508
0.01343453146
0.01341193304
0.013411743
0.01344188472
0.01347038322
0.01351817646
0.01351125925
0.0134989383
0.01345566389
0.01343466812
0.01341782863
0.01343594771
0.01344872414
0.01345996836
0.01346027199
0.01346992035
0.01348532801
0.01346769755
0.01346981961
0.01346181587
0.01346036104
0.0134268373
0.01342585844
0.01340054038
0.01340993533
0.01337844327
0.01340126583
0.01341552192
0.01343769464
0.01342064506
0.01342384753
0.01342881105
0.01341198356
0.01341820987
0.01343315215
0.01344020284
0.01345514962
0.01344447403
0.01345054244
0.01346472827
0.01343925421
0.0134471751
0.01346973418
0.01345745903
0.01343728262
0.01341316218
0.01341012304
0.01340043206
0.01339914836
0.0134251698
0.01341882251
0.01344653245
0.01344768886
0.01344921405
0.01344425558
0.01343635651
0.0134427794
0.01345641515
0.01346612162
0.01345546926
0.01344959416
0.01342968121
0.01341539195
0.0134473919
0.0134614023
0.01345975314
0.0134738008
0.01349200373
0.01342554604
0.01346286561
0.01348004182
0.01342415288
0.01342113687
0.01342370517
0.01342942388
0.0134380669
0.01343373857
0.01342230966
0.01341927704
0.01344227072
0.01347173903
0.01343717426
0.013472131
0.01343573556
0.01345127511
0.01342196742
0.01343380644
0.0134508784
0.01344814576
0.0134750555
0.01348822313
0.01347996242
0.01348576596
0.01343797833
0.01340199465
0.01337870193
0.01340117758
0.01340654158
0.01338784892
0.01340083527
0.01337133267
0.0133491446
0.01336283389
0.0133766773
0.01341016831
0.01341691616
0.01342263727
0.0134265147
0.01346748919
0.01336954232
0.01333290516
0.01335773652
0.01335755136
0.01336519679
0.01338462421
0.01336300323
0.01334016381
0.01333085329
0.01335657597
0.01340272003
0.01340313293
0.01342348163
0.01342679924
0.0134291887
0.01343417154
0.01346221999
0.01345688396
0.01343228959
0.01342156283
0.01336471314
0.01337108102
0.01340590615
0.01342321138
0.01339726707
0.0134147532
0.01337261354
0.01339090249
0.01342276699
0.01340671018
0.01344113308
0.01345731449
0.01345074525
0.01339114699
0.01343230273
0.01340491097
0.01340792072
0.01336797117
0.01339419952
0.01337864087
0.01345514671
0.01344909111
0.01346785687
0.01345029501
0.01345573974
0.01343977649
0.01344961102
0.0134225898
0.01341247874
0.01342674566
0.01343754218
0.01345021615
0.01343676367
0.01345960123
0.01340409265
0.01340936217
0.01341832616
0.0134447503
0.01345092322
0.01346161771
0.01342209984
0.01344554072
0.01344180031
0.01344749958
0.01342227563
0.01343992652
0.01339681225
0.0134075299
0.01341520172
0.01346385249
0.01346150045
0.01345163461
0.01343268968
0.01343019257
0.01343416763
0.01344164292
0.01344616316
0.01343677743
0.01342826697
0.0134301311
0.01342143986
0.01344674638
0.01343493726
0.01343868087
0.01345367648
0.01344171234
0.01343846109
0.01341816456
0.01342331535
0.01343044938
0.01342479591
0.013434336
0.0134495695
0.01346180389
0.0134761805
0.01347278671
0.01346174036
0.01347514709
0.01344134624
0.013418649
0.01346729817
0.01344854651
0.01343502696
0.01339145246
0.01341597814
0.01342201731
0.01342410922
0.01344482125
0.01346001612
0.01344900019
0.01343255811
0.0134385565
0.01343365739
0.01343748946
0.01344633689
0.01342542652
0.01342679729
0.01344985776
0.01345026707
0.01345945114
0.01339898861
0.01341620162
0.01342112935
0.01341565502
0.01342139718
0.01342334254
0.01344079885
0.01340290053
0.01340136037
0.0134339719
0.01342298021
0.01339685306
0.01342883169
0.01343454518
0.01345666677
0.01346723473
0.01342452453
0.01343008202
0.0134265936
0.01339020967
0.01337792603
0.01338248447
0.01340251261
0.01341145564
0.01339790102
0.01338252398
0.01337219595
0.01338732449
0.01341346463
0.01345566436
0.01345519845
0.0134655892
0.01347573804
0.01347727645
0.01345584063
0.01344294933
0.01341604042
0.01338912903
0.013355207
0.01338899224
0.01340367263
0.01339778639
0.01342547149
0.01338174085
0.01339934162
0.01340898214
0.01341982581
0.01346106371
0.01350320523
0.0135041734
0.01348130825
0.0134513721
0.01343948126
0.0134219097
0.01341356967
0.01342769977
0.01340729188
0.01337479493
0.01340553967
0.01339639009
0.01344575839
0.01343676771
0.0134179306
0.01339413945
0.01337520364
0.01336609035
0.01339710458
0.01341708095
0.01342019704
0.01341974055
0.01342900354
0.01346324679
0.01344865066
0.01344640994
0.01344223009