/*--------------------------------*- C++ -*----------------------------------*\
| =========                 |                                                 |
| \\      /  F ield         | OpenFOAM: The Open Source CFD Toolbox           |
|  \\    /   O peration     | Version:  v1706                                 |
|   \\  /    A nd           | Web:      www.OpenFOAM.com                      |
|    \\/     M anipulation  |                                                 |
\*---------------------------------------------------------------------------*/
FoamFile
{
    version     2.0;
    format      ascii;
    class       volScalarField;
    location    "0.02";
    object      vibrationalT_mixture;
}
// * * * * * * * * * * * * * * * * * * * * * * * * * * * * * * * * * * * * * //

dimensions      [0 0 0 1 0 0 0];


internalField   nonuniform List<scalar> 
5120
(
320.2223842
320.4743424
316.5655984
317.7808768
315.6269504
311.2838476
310.8235408
308.4142499
306.4668478
307.9274628
292.8614321
299.8865315
301.3370027
311.1699012
307.7508492
311.6586648
307.0580957
311.6168913
308.6248616
315.1657473
309.3936229
313.6866027
314.4322079
311.0808574
304.6924595
305.3451398
311.3438077
320.6305511
310.006763
318.5960968
313.2831074
309.0943138
287.2985452
310.2993517
62.96642053
61.32600758
274.8585392
295.7919615
304.9236225
292.0618588
305.9359986
298.2728507
296.6669965
304.6877515
305.1875268
293.7053974
62.06511499
287.2476424
305.8161593
302.0631329
311.1446644
302.0539044
294.8890343
301.4669805
302.4549561
309.6844238
289.4968157
298.4443015
314.1608279
309.4232711
67.03978448
67.46855039
68.46454358
68.35408978
70.96758405
301.0986167
313.9439231
317.1962307
300.7880261
318.5973533
309.0583963
307.4479627
313.2634526
304.7773883
291.22896
299.2179141
305.2268887
303.8299715
65.6789049
66.02235298
288.160914
293.5480803
296.8863553
297.3988639
303.6588518
295.3793301
297.4303002
304.1363214
298.570295
291.8330336
297.8920718
299.0613406
299.7083889
290.4734491
296.8446216
276.4777371
66.05150698
290.9559149
291.5642786
297.3768839
315.3722322
319.0181167
314.5433863
314.9663519
321.3111385
320.0264865
309.7551815
297.7105194
289.2519325
273.7241784
63.56924529
298.7298902
307.7519483
321.3057305
315.1687779
299.3175608
306.4684255
320.090814
311.7592218
314.5651469
299.2731025
70.11437195
280.8787154
306.6629864
299.9454781
70.61892584
278.9523413
315.1612272
310.9412527
315.3334162
318.1313189
305.9417649
305.7483241
312.6427218
309.177131
314.6684376
318.3020643
287.0750426
310.4542432
299.0921341
64.72610414
66.29197433
65.96338171
296.5529927
289.9970768
303.2695813
310.1184475
310.5362889
309.7206614
297.7033651
311.5532124
309.3882254
308.6978095
65.23717792
65.8577931
67.34729054
67.47682107
68.00905062
290.3322358
63.82428028
318.9830638
309.4369576
305.7499748
299.5775101
291.9963443
298.2646301
296.896624
296.4486954
64.79325379
288.939481
65.0537583
64.12140715
287.2761413
301.2492469
304.5743236
308.4767946
294.5969256
306.3849137
296.3450896
311.6010098
64.52729515
65.65394489
66.42658663
68.02846357
66.92929721
65.37580471
63.96161285
63.90425271
64.85627187
295.9811829
307.1769328
310.9506228
290.9962019
69.12097569
70.08888548
71.01035961
69.48464618
67.66073688
297.1529681
275.1688145
306.5667375
316.4349288
311.2735184
305.4325684
313.7556086
290.0759844
304.6030183
304.7753229
307.6031774
307.3075004
303.5559216
64.84014756
66.5338548
289.7923031
305.1583386
305.3345487
299.4396781
307.3285734
317.364359
307.6936866
290.7987341
298.2003935
308.3089136
308.7567085
309.7960257
306.2362513
321.8563886
323.283739
318.769238
307.0660178
314.5841122
321.8576299
317.0144508
316.4944849
297.5609962
289.8494232
289.8561716
276.22915
288.7389553
306.0147092
308.099983
303.6016549
284.727542
299.475422
295.0530433
295.0724231
65.24745614
296.7461689
295.9423516
294.1621384
298.0838782
308.8608962
304.414022
299.1842777
304.039921
304.4201801
313.1059764
312.5129892
313.5707344
312.9580768
65.59020731
290.8714743
298.0023785
289.5337903
309.9548546
309.3849495
310.4217371
291.2871627
299.0824666
67.33323919
65.05415489
272.5761602
299.5712378
303.465363
307.582749
286.9061068
296.0586619
67.76979979
67.02753891
67.48791846
63.44352324
64.21693387
301.7555676
321.2960315
314.0835871
314.154202
307.6812178
308.3734946
303.5814482
324.7789557
329.3981327
320.5204003
304.2017993
67.31519108
65.49631523
290.2386166
298.369422
290.0570125
295.7899508
64.09705073
67.43594659
65.24549447
63.29502784
64.91010394
276.9763021
291.3268046
309.9461785
312.9818007
311.8302151
311.3613767
296.454121
66.79568223
67.60392355
290.7485195
69.19036439
299.0700298
299.452271
289.3045453
296.3394284
277.3646827
285.8249426
284.7631592
285.1567492
284.4203573
297.9538671
297.1238492
305.3045035
285.8046237
64.34207607
65.58245968
66.94615839
67.63122159
65.87691127
66.16991786
67.38629734
67.82637684
276.4665482
288.9033794
287.0879178
288.2196934
297.4357629
301.6619618
299.5470161
304.7982728
292.6700006
286.0080419
66.86739445
65.13610115
65.51240093
64.15539691
61.16466136
59.23433385
283.8992504
283.0905418
286.0510518
307.1362505
303.0405553
290.2638301
297.9690331
301.4837818
285.4305074
295.7771823
294.7016836
301.2842739
309.7914419
311.5063623
310.3025142
284.7585571
62.46560052
65.22619483
66.56153248
67.69566436
66.48078578
63.79876348
63.10318805
61.56290257
286.0152584
288.786658
296.0568266
64.9129809
276.2875346
66.65871193
65.24156511
66.39033181
66.88655604
67.11311279
275.6612033
313.0589564
316.784507
318.3946861
310.3164797
290.8422625
298.3553725
280.9709268
307.2921098
299.9715104
292.303203
299.4375003
299.0323167
299.0219066
309.2783405
316.8296063
302.0779759
296.8539545
290.6850047
300.5087946
291.774022
298.6866735
288.0111341
297.0498149
65.03726583
65.81957581
67.12606461
66.4100202
67.08385476
292.0065381
298.8485944
289.2750294
296.164202
304.2385552
307.2369587
304.3243111
304.7315288
303.6664978
295.5439166
294.971025
300.9583762
306.3713122
306.0794644
310.0138794
314.9145928
304.8989538
298.2456228
285.7002745
301.2397076
302.8706099
297.7487165
290.716561
299.0578681
302.5610759
299.6388322
312.7892442
301.660342
313.9954389
309.8782598
323.9260518
328.0155942
317.4361621
320.6471112
315.3971717
323.7602701
303.9783598
304.6646773
289.3764695
297.7996127
290.8965151
286.1520844
294.4444844
288.0974867
68.21536589
316.7246299
321.9678443
328.777846
316.9512852
311.5086344
276.603675
65.85748314
66.21733336
66.51992008
304.46821
291.6780213
67.66271803
67.9958813
290.469351
297.7779478
290.426051
289.1154875
288.8650818
297.572337
310.4756732
66.39359124
288.5799143
295.76959
309.7239792
299.1393138
299.3487788
300.1030415
301.6854572
301.7774128
281.64598
280.4942852
300.4766489
291.3030131
280.4004066
278.997134
289.4721116
289.922283
296.4570141
302.2094342
278.4201967
69.97321263
67.75418591
66.26332723
68.87144502
71.11781917
70.44455183
70.43914104
71.30525125
70.46873021
68.84067595
67.81594065
68.74702339
279.3168907
304.8524549
317.1330368
312.1418495
312.3089592
315.2619431
70.36979848
70.95484579
301.1838789
292.3196879
71.07433725
69.64197788
70.11094618
69.76971119
69.60283331
68.63011409
294.506618
308.0499649
319.2233554
309.3983948
309.4828155
302.3148723
303.1910311
296.5199696
304.3483637
309.0197667
308.061544
308.1877021
68.82396861
70.1158306
72.75265204
296.5041177
295.7018853
295.3665616
295.1689181
302.8403222
281.3721202
292.6027084
279.801927
279.9408134
71.8284944
281.9796544
294.2642874
292.1294623
278.2566888
276.6761498
67.13424218
67.97837243
296.8258996
288.3151805
287.7336402
274.7694859
272.944555
285.0585925
286.1099962
306.6801006
301.2354627
288.2385017
276.6190937
275.8696241
295.8005416
288.0864745
65.49453633
66.67971664
67.24108847
66.65679935
276.6948971
290.7047409
315.5924253
314.1449206
303.6120139
310.0175496
278.8342362
279.6548628
67.79876504
65.29937694
65.2001708
274.2649635
294.6409989
297.2811251
289.8322398
277.3916362
66.67779513
65.31657578
65.72507682
65.56096423
274.9209262
289.3439691
314.7600955
321.1535325
323.7791267
321.7013674
322.031655
302.7474038
297.4639666
295.752441
294.6912613
302.4303074
315.1165535
321.2675386
311.0011944
311.1475034
317.7195666
316.0209077
319.2596677
327.6709384
323.6788186
322.0488575
293.6245639
274.7915945
62.51431636
63.72796818
63.89545124
285.4388132
302.5278786
304.2336516
303.9082675
273.9762328
62.52456626
293.7374956
305.887764
312.3230454
286.6328762
62.50255681
64.57552394
61.43358805
63.08790921
286.8435552
68.17121734
67.23156753
67.27894179
67.96889745
65.84069333
63.72436806
65.36231178
289.7599675
308.2158227
304.4549294
306.5966939
310.3759909
280.7822162
66.86482693
64.98401613
287.9077517
300.2539185
301.3647953
294.7292315
64.364856
286.1666348
277.2324572
66.15022692
67.32806028
67.33293556
67.36740928
63.75870079
273.1678207
285.9204723
307.8791351
296.3356594
305.2700138
296.3657943
290.0445208
297.8050843
275.6719462
287.8685634
288.8220021
302.3640896
288.0977736
297.8072167
303.5861882
303.3132023
298.7608262
304.3879474
303.326513
304.0173062
312.7116892
313.4548086
304.875062
308.9069539
311.8473107
306.8788313
289.2045833
289.0487289
301.374336
287.8794163
62.94339601
62.82132934
287.5803072
296.2128698
307.1283175
304.5931104
312.2957531
302.6924644
313.0924168
307.8358476
275.9589448
275.1828747
285.4927713
295.5371349
301.3528802
318.1621229
321.28016
324.3416377
318.0386466
317.771025
320.9146142
321.1891736
312.9119217
313.7963214
319.4895795
332.1408033
331.8364377
332.1407252
328.4366868
324.6836343
321.2850208
313.9162541
304.1185644
307.6139057
310.1120439
276.1568965
66.11398741
65.0385472
287.0705615
301.6045159
310.1182719
315.1228986
312.8816447
61.26801816
63.02337689
64.90382038
65.41236093
64.88267836
62.72607661
64.44735801
66.93665319
67.53042955
66.68091702
66.60460018
295.048171
295.8724635
312.4461586
296.6408415
289.1245995
289.3738665
65.57071963
273.0483891
283.7337318
318.2917672
317.6991619
287.2084084
63.23193356
61.8747852
62.20987844
63.39998743
63.16187788
65.49659091
289.6599676
311.023971
321.3683117
326.1870532
329.8757298
326.4476126
335.9611269
335.3826624
329.8921057
332.5277275
329.4053613
291.192464
303.3803899
309.781825
312.8569421
307.7992834
305.9259236
305.524576
305.7920408
302.84855
285.0510242
63.1624593
273.9394829
295.7786227
297.1691109
297.1594213
64.64269125
64.43068946
295.9413893
296.7094837
298.5941859
63.62260469
65.06426893
66.17428664
67.73590007
303.7557272
305.8676908
323.1881401
324.2363926
310.1381416
302.5023462
283.073715
61.8865149
63.10838157
62.87461439
64.33603205
66.05994395
66.04706263
65.84624329
65.83293508
306.3276284
69.27597572
70.10993703
70.5591746
69.78796753
67.5990114
66.44812114
68.91034261
68.17111953
307.4911728
316.9478956
320.3560556
321.6268668
318.6318101
312.7472479
300.1988231
278.0301344
69.76595107
291.1267853
299.898135
278.7933475
313.0961078
318.1020053
323.6072768
320.1060397
311.9406177
303.3647202
304.2998642
302.994734
303.1434379
314.2297776
317.7534118
316.5094079
310.5528897
300.9825461
280.5804333
282.510967
301.4751139
294.6761267
294.2109561
306.9846104
294.3412972
302.597612
294.7626523
302.9747737
304.1293481
314.3394886
293.0355218
298.4830057
310.4425006
298.4279216
299.0255825
292.2696958
292.4552995
310.7074864
299.6016114
300.2202626
299.0341372
301.2930022
301.1259723
302.9208538
65.92136578
65.34516274
66.16492416
276.2128729
289.7626151
290.1439132
289.7109137
291.5260594
291.7462963
298.8237353
303.4705833
296.9526205
67.05657192
69.05729844
280.6957137
68.3171057
67.35471391
64.7686863
63.14694505
63.82027748
63.87094687
60.33570864
61.21711313
62.29462255
65.76586064
289.1752183
311.4241811
307.6947857
310.5068658
292.7299451
70.63841575
69.78895252
68.56673818
67.20045812
64.94483024
65.33353724
64.69263149
66.03891266
64.5608158
64.38183682
290.4267
292.6563302
67.7714522
64.61314327
64.41063124
63.50561714
65.17272224
65.17092718
66.93847528
68.32404564
299.4889765
298.0472994
306.9099581
312.7130901
305.4069254
308.3628392
290.1299154
289.3135844
291.2412246
303.7530413
67.02587985
64.70244125
66.59021148
66.1845178
276.3802991
304.0301085
275.1423992
62.60269453
62.43693562
61.12245832
61.33241318
61.11718196
58.21284262
58.8263115
293.819822
287.8896583
62.38800126
64.85541146
66.66365095
64.19725112
305.5664588
299.3814209
298.3143048
289.682609
290.5038124
290.9417817
69.08537764
70.71668391
70.47970028
69.39192703
67.10551796
68.59664205
304.0225556
306.8020952
304.2952628
308.5535528
304.3566288
304.4524367
310.2625351
309.6675612
298.5537596
304.4612613
300.7418906
304.6710237
307.0049101
305.9578507
306.8077814
308.028411
295.255118
295.8537767
295.6380819
66.0658787
67.19441981
67.91376096
68.31197982
281.2213198
292.4107069
278.5595295
64.52900865
300.8411693
288.8023824
289.3688457
287.8463431
295.1052451
66.16173565
67.45654134
66.94748049
65.32966687
296.1582244
287.9270764
296.458794
300.8716916
312.2060647
316.435183
308.9276863
294.7623946
310.6849555
318.3332813
323.6201832
312.5392561
323.2244786
316.4324639
313.2248495
313.313637
317.5171355
309.277643
309.7822977
330.0626503
327.9192524
327.3548399
331.4172749
330.4467708
322.7800477
314.3325331
310.477524
312.1005205
316.4200939
312.9547401
304.3926881
315.6156274
312.5956022
318.0307773
302.6461064
301.8057163
61.04944351
61.35513408
62.91908906
62.26664041
285.871137
286.7805158
294.1356185
295.57742
308.7647688
314.4362952
312.6545901
296.7328799
315.0312148
304.8175918
306.5119572
312.8412143
306.9924988
304.3913914
306.7313961
301.4008803
321.7286177
325.6359141
320.9086513
316.7058053
311.3583037
317.1519247
308.1471923
300.7258532
290.2900836
295.5241928
311.1124227
319.2398257
320.6578245
311.1437052
318.4794385
314.1556885
63.20876235
296.9438329
308.3897311
308.8992381
310.3065709
305.3508496
313.219955
320.4827219
322.3742478
313.1474636
312.8410834
301.6161364
300.1446261
68.94860908
70.40479668
69.47447618
277.9363465
288.2310715
287.0832222
65.1581861
288.6055076
288.3401467
289.3591046
304.4598782
289.1210128
295.7958647
65.63820985
275.4426121
66.07632481
64.42338348
63.05780465
286.4793444
60.75041363
61.94218481
61.62436286
62.66930845
290.3319457
67.18640917
277.619933
288.3582822
306.5630711
298.6155981
308.1173028
288.7577167
296.7162145
286.9357817
286.9566936
293.3956362
294.9647768
293.0125956
296.5818618
65.32225489
66.97090925
68.56877666
67.70973843
65.75661457
276.2227963
289.2610544
291.3932493
291.9230687
317.0822177
304.3939462
290.4346984
66.42658706
291.9244887
301.6433082
300.4229163
291.3995837
67.44232059
299.9443212
312.1557951
312.8588391
314.3814488
317.5805061
311.0278561
316.2290482
310.120177
314.3917264
309.2009682
310.0300363
69.40052316
279.0580098
321.8999303
316.3225867
308.5046279
289.5624791
298.7926024
291.4779013
290.6112137
66.97769814
67.84855205
71.09993073
71.07400832
293.0909237
291.4522409
291.3422731
300.1652327
314.8001924
306.2333945
292.8156687
69.1779413
68.00987739
68.65193153
69.70845883
300.4594807
300.6806971
327.99851
320.2230272
311.8761554
316.3742791
311.1673079
299.6328779
68.34545727
299.0684076
289.8185043
298.0111521
296.9308562
67.12266414
65.42763537
67.36009866
299.4564909
304.2985365
323.8033206
316.2352473
311.9048186
301.8979361
303.139416
301.5059335
297.7770174
290.5881469
299.4270129
292.2228769
314.8229535
298.9809531
291.7066717
299.5753132
300.536366
300.860275
300.0522294
299.843411
277.9882423
278.5757357
291.6262179
299.3491901
290.4302369
288.8552723
65.064863
66.43060505
64.48186274
66.01836267
65.87838283
67.10294248
66.61374596
66.71601035
69.36924806
70.11873642
67.28536164
69.14012144
70.77687121
70.57239712
64.75827593
66.17912424
276.3928634
307.44998
308.192088
290.4870465
304.6392727
318.0970318
320.4107103
316.0277921
299.5111147
295.8602287
63.69052155
65.01991543
65.81866759
67.74212747
68.24914427
67.09619934
64.56025177
64.45788083
287.1160392
297.0827938
65.3340755
66.52064846
67.21010712
291.2020785
303.4770018
288.851632
298.2207074
288.0736106
297.2694563
312.3931224
306.9626257
305.8029718
312.0887471
301.9861536
302.7695665
296.5997553
295.5639342
286.7559316
308.824706
313.5349162
313.2155451
312.8639134
303.1372491
66.3058784
66.02439059
64.69312134
63.80668958
66.0254876
66.03501747
66.59154957
66.2247739
65.98807773
64.41921019
64.12236769
275.6505461
285.3821096
295.4846091
297.0399933
288.5661564
301.8952555
297.359131
67.7024929
278.5480531
304.403806
292.2565372
292.4083284
290.5550511
289.0865352
66.4355773
289.3180546
303.8091595
307.0320589
302.3967861
298.3108813
297.124674
296.0213961
295.44168
295.7209193
275.7956949
287.1603527
287.7651574
302.0024071
303.0216127
305.6541576
301.0517933
307.5949458
297.9710542
289.0496614
301.0846756
317.7774448
312.7680081
305.4829969
313.8384489
324.6029494
305.3682785
311.8047311
302.5631222
297.2992169
294.8663501
307.6343152
308.1487521
316.8454013
305.056873
305.4372814
322.0875072
314.0992702
309.0893092
315.105709
308.3243553
278.9808879
69.48659616
294.5000758
293.4895152
293.3421937
279.8325461
289.5542445
289.2612217
296.7189197
311.0927079
295.2979175
295.5872198
301.0482856
316.1726574
318.2097505
313.3339873
307.7634221
303.1442768
296.1625381
288.9640353
302.7635484
320.5063755
298.1635283
303.7274584
311.6245179
302.0462229
311.4206311
320.9554637
320.4525251
328.5985103
326.6132031
319.7399644
327.0434729
300.2454207
291.850405
299.9614703
305.4639353
305.4900386
314.9303053
319.2773834
319.2367156
319.333652
320.1672059
326.8820447
331.8574689
335.6977117
334.6049647
331.5571831
334.7361288
309.3862979
308.901941
310.4136227
306.1960066
315.9759037
320.9898783
322.9685134
305.3894665
311.3829974
314.4081539
317.9307124
323.79568
323.5830825
319.1768512
307.8473433
297.8444226
295.8537991
288.6016044
288.1557685
295.8564888
64.52360502
64.92904211
66.30606739
289.5471173
298.2113838
297.5511759
290.0654406
66.79060593
65.71118407
69.25059289
69.32238168
68.30323846
288.8594907
299.7509251
304.9735601
315.5446711
301.4739412
309.9768059
297.2752425
276.8585473
280.0668775
280.0184279
66.7890674
66.56607678
274.6358036
64.62438092
66.87035799
69.13306365
68.02639307
67.85702383
288.464394
301.9205709
314.1288179
304.6526869
304.5681859
290.1641727
297.9661919
290.8896884
67.07172448
66.70339605
62.93350368
295.3226874
303.6366981
310.710574
307.8366276
300.4044903
309.7704741
304.6313151
308.8325
309.1630141
287.871897
63.17241271
64.26162428
65.2433273
64.84413552
64.8851996
62.64210308
62.66574842
65.03649925
64.28444996
309.7542863
307.9481507
280.3329783
277.5225165
309.045978
304.880009
294.297272
293.9199998
300.2638856
294.5286563
295.7603628
298.6903339
299.0210799
291.4326195
305.9525723
310.7671378
316.3989819
292.6614604
311.147432
310.0861632
310.7699983
304.2002718
299.0412521
289.2250919
297.1897386
296.7062288
63.73886809
64.57968072
64.6179929
64.95693135
275.7382794
312.7274324
312.9952266
313.6179066
311.9706634
302.2672529
302.3320936
316.3433502
311.3415875
315.8544474
321.5607424
304.3802977
276.3087602
66.03588621
66.64526408
66.30214995
65.58643924
66.49718244
67.23723356
68.50442819
68.83127557
67.97480471
292.4593887
291.3586454
302.8242398
307.7134473
307.1816471
314.8357649
312.7129262
320.685868
307.2719121
289.9110473
291.5588802
314.690726
303.2408344
298.126171
279.3976178
66.34082163
66.2166888
66.05797884
66.09399833
65.66943891
65.5262025
296.5169768
309.8538889
296.3549843
288.8708426
286.9630339
287.0031299
302.4401986
307.9881795
312.9879923
313.2967774
305.7222654
298.0795207
303.2557588
320.5712617
309.7851668
299.0085383
315.0874284
314.5483513
310.9604576
316.6908669
310.4406035
309.5622255
303.5601753
302.6225337
312.8814866
308.4794886
303.6112409
287.0263981
293.3911848
299.7804886
308.7605576
314.7065811
316.4430266
308.7242661
315.1233293
313.3229533
289.7844238
276.1112504
286.6713839
297.5988838
288.6588507
289.8721396
297.0137208
277.455671
287.3459598
288.6481549
286.4094475
66.0125598
66.0042789
67.57392617
68.38983963
278.6707907
308.7098146
303.8790418
303.4480733
299.3396287
290.1882908
67.19325135
65.25100357
63.68552495
287.801109
289.3319497
290.0568127
292.029201
298.7504472
67.88394212
63.10716955
293.0626125
279.7194767
298.8949494
297.8701516
299.5646617
291.1522806
303.1670842
318.2982304
298.6471311
303.3509775
313.2349608
66.65070917
66.28771697
277.8394052
291.0741006
289.553328
66.27176908
66.23577566
291.3792779
292.0699454
299.5686775
291.3888019
290.5536662
288.9820559
286.5540893
296.7295858
287.7603604
65.34512114
63.54127
62.92311679
274.5723471
294.6133402
295.5378823
294.9600896
288.6727713
66.53870214
299.5330445
292.3781827
304.9593252
305.801822
308.9457925
313.3056642
309.4142279
291.2734052
67.93989767
67.86693538
66.56764912
67.06828355
66.34530896
67.62583345
297.7045254
292.0096275
299.3113972
298.7407952
278.5176146
305.2257031
297.8105212
298.2311326
290.9279731
300.6839901
323.166305
325.6653056
324.9031107
318.4589335
316.4185145
314.8952706
313.0545384
309.8161797
316.6494078
322.1913127
321.4723116
325.5947957
316.5773813
301.3540803
70.58270233
277.8682592
297.0771507
298.0277884
311.2932283
313.8575591
69.66726502
68.83559138
67.74039418
309.4529559
309.7864495
324.0531984
312.6970053
319.2876346
314.0163914
318.7666886
313.3684996
308.8971913
317.7834981
331.7042044
319.5051453
321.4651925
310.3598909
303.3688377
290.5759883
67.94540686
305.3623214
314.2288168
311.2104686
306.2911459
68.93027334
69.30600226
280.1907083
308.4592359
312.489065
311.8199608
314.8297378
316.3882934
310.4417474
311.5703163
332.7336675
304.8238409
312.4867806
308.1497593
316.8154616
318.4598673
303.3882685
291.354208
290.9161905
278.5015374
66.60840929
67.8885127
67.46601834
314.9047975
324.7437277
322.1863775
305.1996696
290.3200024
277.7016696
68.75447005
67.88010598
291.1835806
291.2989074
298.0643102
289.886221
295.0662701
287.6755596
284.0618883
285.1385681
293.4530657
310.1013681
326.3301038
321.219709
305.4328148
299.2009107
284.9387446
297.9632991
67.03148646
67.08837489
68.15642518
65.85217843
66.13253332
62.79825641
275.4837487
295.8773354
287.3528589
286.4017301
294.3589116
286.4383617
291.5969784
59.19687782
62.05806835
63.0890972
64.35875144
63.92192953
63.07848508
63.82894861
62.98137083
63.46061601
60.40080078
281.8884238
298.1489257
308.0004175
305.1764499
304.7796847
293.4774024
287.090088
287.9250743
296.7102917
289.4839978
66.93071688
70.53402808
70.1090006
69.9045428
68.75613779
298.1786351
295.7089157
286.5429393
293.4682229
275.4687097
64.09621793
65.10997093
63.7732208
65.90783688
65.3873524
64.77604606
299.5613986
298.1023119
309.4761236
307.7482682
301.2172284
300.1549746
305.4226345
314.8853035
311.0873158
299.001042
290.8238426
68.71087125
68.30793851
68.69009689
68.6180608
68.6244541
279.8749761
292.6594591
308.1900396
305.5177619
273.4213081
284.4614058
272.7842072
62.09384687
65.03944467
64.63145571
62.9448197
64.12238648
63.17445196
62.84290477
66.35037405
66.07177595
67.04419576
67.9107937
299.9826644
293.1203176
300.2038054
299.2443319
288.5616715
300.8234682
292.0369874
293.1884238
300.4121482
285.8032571
286.7266752
289.6323359
290.7607287
291.3653918
293.7405763
283.2043446
69.27726153
298.8183171
289.4269176
286.5558558
64.32146365
66.59841862
66.61686522
274.0478148
284.0912087
285.1825401
314.1028529
309.8043375
278.6268423
65.68347833
64.39781453
64.4523851
65.42896015
65.54756982
274.3166197
301.8408109
301.5976937
306.9694699
296.0216373
290.8289377
291.2769334
278.5079552
298.2878935
280.3047482
69.26289593
300.7784335
66.61908667
67.10314823
297.7240497
291.4355399
306.3995678
299.6777552
305.4647735
290.3782726
67.04302782
277.5246666
303.6205097
289.3878161
296.4255175
63.40026965
275.4932844
301.0977637
288.5247711
274.0932317
63.0856514
64.14137926
299.2606629
280.5081769
289.1621858
296.9445446
295.2980105
274.615968
63.35908359
64.84030189
289.8740681
297.3696107
315.5956823
319.6243185
308.6291216
305.3010703
289.8977226
291.7229424
292.3018331
301.4484587
293.7008949
291.5090167
68.23294427
278.7865904
306.2697751
310.5123139
291.630699
65.87270924
66.04717818
66.37396335
275.9518226
307.0960789
296.9528795
289.6821535
296.9178323
288.4691718
64.34827232
64.71083705
63.33419238
64.65439394
67.75912986
67.2994856
297.6127571
289.4716317
276.8225488
278.2133612
298.0888592
309.6979946
299.0940447
290.5125312
289.1551809
66.16189849
64.60061325
63.70654278
66.33421519
66.73283724
67.56579773
303.6808468
312.0155711
304.577617
303.8755817
290.7778277
62.52714475
64.10339661
64.34646351
67.00065115
67.22241118
66.41656282
63.82148264
65.87269932
302.9756758
291.601754
299.1755062
291.609851
298.3884167
287.1511349
305.5066237
274.4117958
61.33946748
63.36890939
60.79646481
61.72773187
290.4155404
305.4368265
310.4912431
308.7024818
313.5746073
310.0735804
314.8140271
289.2020891
66.3993318
68.16703432
70.5137872
69.54357225
67.51639942
290.9832946
309.8586328
301.0468222
293.4305157
299.5959909
291.2359556
291.4499167
294.0644516
62.86105185
62.05230507
305.3440934
311.5049881
301.6559357
302.9899867
323.9441571
314.9404922
300.6954971
293.0545828
279.8478995
306.6900886
305.1663468
320.6913685
309.0770901
308.5536064
287.9425903
296.4461735
286.4106098
317.0517659
322.0822425
327.1289838
325.1239689
337.2040198
330.0120457
327.3163235
310.1645777
306.1209484
313.8524915
323.6286644
320.9407069
319.8578344
316.4126657
300.2455724
304.7500209
308.8366164
312.6265503
304.8155403
310.1875361
310.0838286
314.2952759
318.0802292
312.0988036
287.8349903
288.1052166
64.86584078
64.16063606
66.0592598
68.0834749
303.7252365
324.9363577
317.7350111
305.2957668
312.3881594
304.3313953
298.4978278
302.8011362
301.833287
305.5818168
66.61593925
64.28291923
62.73499075
61.95280323
63.81309676
62.51331231
63.38331308
287.3694589
294.7512833
295.5738206
64.26496487
64.30684215
63.56631737
64.93690678
65.93110294
67.24800884
68.5463596
68.58824925
68.24190858
66.19108341
66.81949418
67.32516727
67.82410014
68.34995648
68.97905014
291.3344189
291.2801443
300.5932735
292.6623621
301.1838826
306.6198491
293.3565283
300.7983793
300.5504842
280.47042
67.74604648
67.13802568
66.10623404
65.63554595
65.95320768
277.5004748
66.42759403
68.13979031
68.10258588
69.00152542
66.10998875
63.58339027
276.5057778
294.7757046
304.4279084
293.8987615
274.3417141
64.89021664
274.034485
295.6395742
276.5590694
67.29852401
67.54604421
67.28080006
290.3134578
67.57286649
68.99532238
299.7067567
298.9737646
312.5890622
322.3568446
312.088763
302.8441554
298.6355067
300.0679693
69.22375918
279.4319415
289.984598
289.4551065
297.2363236
312.9169782
308.8182546
315.5774398
310.6952267
295.8690031
68.46124959
68.74200505
290.9947878
298.4349524
292.8209931
69.1878371
69.293195
68.09517055
66.64667973
68.0962791
289.1291817
313.017504
321.2582849
318.2558646
307.8173062
298.5199659
297.038248
297.0521872
291.6728744
69.01201162
305.5705385
300.9167617
274.3320069
64.09618534
64.86727502
65.0171791
287.8667493
297.4734159
287.2299998
295.5110159
289.0940213
66.16573271
65.40018984
66.45348231
301.7951016
306.4991333
305.0699097
295.1397299
303.380613
303.3813092
67.22933628
65.85622513
65.29627619
67.69964346
67.30556614
66.71431725
65.44512413
65.67872659
66.65799021
64.07208999
65.52517959
65.29277841
64.74042825
63.07284107
60.45853893
60.91618815
296.4947279
287.6602931
288.9938121
277.6490773
312.6857949
320.7284032
307.626492
301.4621998
292.7453376
286.1258814
293.8663723
296.2004476
307.7851746
297.7879821
67.40130565
66.15369311
297.5863223
306.0089234
307.0207747
292.8755802
290.2379595
318.4097455
317.1671155
317.3851555
289.4621
287.3966138
303.4060732
309.1809422
309.2169704
297.6175435
308.0948414
325.9458774
323.5228245
330.1750196
304.1528726
303.6940595
307.299009
310.3638103
325.5997342
331.4398056
319.8052662
304.3972582
303.800967
291.2937644
299.6543344
311.1296757
304.2592035
298.1942441
312.982828
332.0568632
331.812471
322.3049232
316.0917378
281.0578452
299.9409579
291.3967873
297.3015637
290.5411132
297.6495511
297.925435
287.91109
295.9522127
287.6813581
298.7971795
305.8508562
308.2285573
304.6515433
298.0829779
297.7925108
65.05558414
289.6811381
289.2197273
65.15105355
64.58865489
63.72167829
66.60748623
65.84382056
66.82113955
66.33322424
66.72895961
277.6856047
288.2130075
307.1695025
306.3720487
298.6459683
277.7287466
296.5212017
296.5394864
273.3036559
63.79202271
65.52701243
65.79331509
300.5013455
305.1479415
309.6114345
302.1649039
288.6252895
290.2606286
290.4374037
65.95564001
65.32951817
65.29233878
279.7750407
299.276596
63.16402015
64.44446245
65.92841095
64.99087383
291.1346981
298.2756306
305.8911933
311.3413207
301.350293
291.3352289
276.903678
296.6330158
289.8356935
297.1003953
288.2997226
286.4223451
295.8795368
294.4274106
273.0898876
62.05218171
295.9231356
302.3679712
296.1568518
276.0145511
63.31130119
61.63385584
63.50392447
275.6635083
286.3368563
297.0700658
297.2711123
296.3213923
296.558639
288.1433702
300.5052068
313.0730377
311.3618768
316.0728691
299.6404367
296.3988142
311.5675081
306.5818002
302.686754
298.1197395
303.7046733
314.9061303
309.7012889
315.1565574
305.5123588
316.7455951
297.7724558
316.1356448
321.7252209
314.8706046
311.1810085
308.3009189
315.6172841
306.9362163
313.2553478
303.3251562
66.55469454
68.08730741
66.81336405
289.7335439
309.5211898
307.7740234
322.8494482
316.6896243
321.3706281
324.2644432
320.724917
298.7964042
291.1471204
290.5017896
289.6697765
295.0609508
286.1693055
284.8135848
293.8183147
277.0495744
310.8747818
304.0843315
307.7567441
302.8891842
311.1977532
305.9842958
299.5086504
313.4633437
294.6940715
287.2501977
294.9083762
272.3614728
273.1022255
284.9382891
305.5331032
301.7722289
317.3085282
315.0795235
329.6385876
316.6980935
329.2815049
327.5617877
310.628827
318.1856186
316.7377079
302.3309899
289.5890041
66.59846369
65.81179383
65.88880922
65.96400602
298.2665682
313.7581951
310.0196069
291.6105552
300.9024757
300.5105234
304.3802948
309.8691639
314.4247257
276.4195544
297.4604812
308.4514087
297.3315508
295.8696278
274.0699691