/*--------------------------------*- C++ -*----------------------------------*\
| =========                 |                                                 |
| \\      /  F ield         | OpenFOAM: The Open Source CFD Toolbox           |
|  \\    /   O peration     | Version:  v1706                                 |
|   \\  /    A nd           | Web:      www.OpenFOAM.com                      |
|    \\/     M anipulation  |                                                 |
\*---------------------------------------------------------------------------*/
FoamFile
{
    version     2.0;
    format      ascii;
    class       volScalarField;
    location    "0.02";
    object      vibrationalT_O2;
}
// * * * * * * * * * * * * * * * * * * * * * * * * * * * * * * * * * * * * * //

dimensions      [0 0 0 1 0 0 0];


internalField   nonuniform List<scalar> 
5120
(
302.9322387
303.9532935
300.8431167
306.4748188
313.0823176
312.3299508
310.0981092
299.0639084
289.9463891
277.5040835
277.5409914
282.059677
288.7384771
292.3414499
295.7852633
294.6493039
292.3905042
294.5872731
299.8628385
294.4338088
302.9113515
287.249522
290.9010478
292.1606941
281.7732778
284.4784098
293.0003217
290.8969002
287.1816394
281.717614
285.8482375
283.1862114
288.4855603
288.441663
283.0670962
277.102764
288.5756016
291.0982068
304.8759212
310.2057349
287.2373523
301.7884167
294.5243019
281.6547584
284.2874956
281.6387016
278.5186597
288.3235688
287.0297309
292.1402699
292.2661782
292.1795596
287.0438285
289.5936072
294.2821713
304.5648221
298.6877526
302.7295875
289.5746433
284.4105043
303.0278159
302.6808052
307.2723235
306.2649809
317.6819332
314.5217654
323.400644
319.4619581
313.2475595
309.3375601
301.4525219
294.1876481
301.6008776
303.6422192
305.8709536
305.7942779
305.8029166
299.9878712
295.5696213
296.6618531
292.361484
280.5848414
295.9562685
297.9928201
299.0191924
288.6813423
297.763403
300.8642257
302.7795682
308.4256514
299.8435194
305.5658988
308.2297227
302.9446646
295.6334569
295.6098384
297.9035835
304.7935827
307.6243045
297.881724
294.6134604
296.6731911
291.0387659
292.5657465
293.9064615
301.2803749
304.2036426
298.852485
296.4971125
282.8849626
282.7471832
276.9047608
295.3586772
307.2930941
310.1028327
306.5410302
289.6182271
288.4273851
294.5541703
291.0231433
306.0718547
315.1945079
315.1755227
312.4665214
309.0771241
316.3947535
306.3410779
309.9302675
290.9690479
294.3123326
306.6478258
309.1959443
308.4379355
298.7888973
283.1226539
277.0867198
293.3460017
287.1968232
288.7364163
305.02742
291.0643006
297.8304144
296.925319
293.5894964
300.0172649
296.6375713
305.3118652
307.2475312
303.5577461
298.7691895
293.3756045
283.3737687
299.1186481
294.6948377
298.0153065
303.9055025
304.8994031
305.5784811
301.9372284
287.2251877
296.5815264
302.8020569
308.3263759
307.3687871
309.0596005
301.7772559
295.5664062
293.3417751
290.9197194
295.4978978
292.0942353
286.9799403
288.1548891
288.1266176
281.2450296
280.0958911
285.5942615
289.5219159
293.2752837
294.3600166
289.6947823
294.2948672
297.5724248
304.6511288
300.8881292
293.3312111
290.0472166
290.0305616
293.5341537
291.2122049
292.1785112
309.3540525
304.6420331
308.9831885
313.991634
316.1865559
309.8715749
301.656412
296.6526777
289.7710201
312.5598726
316.6313284
311.9698567
307.8031806
304.1211217
301.1825594
303.1543697
303.8396216
294.4864751
293.2357748
298.6141502
290.6845871
299.8098771
300.0322497
305.8484511
306.5289294
307.4301625
315.7494508
320.1315465
317.3321595
303.9413391
301.1169561
297.7508884
299.7515023
304.6295306
310.7031593
309.8903453
302.9706616
310.2205458
314.5116858
307.6039066
309.6119224
302.1628859
299.9801113
298.9778454
300.0878109
300.0889231
294.8237717
294.8130064
287.3216303
278.6070434
276.9892421
277.0631426
280.253415
287.3089223
287.368953
294.6953738
294.7050252
291.2232094
283.1659955
273.7634667
281.8099589
280.391436
278.9730791
278.939821
280.5008841
284.7671875
281.9758634
287.1235077
284.3912029
296.7423892
304.948713
300.9348764
298.7806842
305.5870627
302.795871
307.4290034
306.6073757
305.6867748
303.7931317
293.1994722
278.5552143
281.3883345
276.8284833
276.7188868
286.9789353
292.1324181
305.6689876
302.9407104
304.9705251
285.9909216
289.9894847
290.0550268
293.4529195
288.7034625
288.9095137
294.7608484
297.8981172
298.8903701
297.7900813
297.67048
303.7376584
301.8325401
302.7582186
295.7496668
301.1517034
301.991106
300.8758972
291.022102
288.3871381
303.7534982
293.1553363
284.424865
292.1476
297.7264179
306.6096858
305.6460508
300.8664485
295.7006544
293.4232411
293.6492093
300.9371042
303.7761399
303.7376584
310.9314326
305.710889
307.7253146
297.8735306
293.421652
299.9762321
281.9011346
277.2675243
278.9210406
275.6303107
273.7169387
270.065637
284.695595
281.8662961
289.7076465
295.4423471
303.8827697
305.7574455
296.7813813
299.0440267
305.9767502
306.7422107
295.7297293
295.8446826
287.4745605
292.5779615
298.2325752
290.2867899
280.9634461
282.5347718
276.8041942
282.9167029
299.6624967
290.5459306
293.1186056
288.4528863
273.4969161
265.9474843
273.4585979
269.7636609
282.726307
292.7915797
296.2852162
301.3351041
300.2598924
289.337853
280.1983973
291.1201359
286.0357813
288.5781636
286.0736385
277.2851004
272.0437119
277.1353531
281.7005462
291.9232711
297.4806097
303.6489866
299.8727787
288.6947153
284.5519489
278.7899341
283.1123208
295.6694565
292.2252001
293.3830097
294.6610826
299.9424479
293.3766622
298.9239009
300.9978716
301.7649835
292.1428876
300.9137203
301.2123219
308.5082181
307.0036168
304.3848953
302.2188433
315.9088379
315.3535369
309.6249872
311.164255
306.8014122
305.2542643
305.0262697
302.6354538
301.6914485
292.1005086
295.62594
303.8782251
312.4294916
308.9942603
304.3613247
291.9914358
296.8448486
294.716289
297.9342126
302.9192532
300.027254
302.041699
309.5354179
304.2047902
297.0234714
292.2299255
301.8068406
293.2094642
280.1381954
281.8819926
277.1523716
289.6783242
287.1907487
287.2424224
289.8009508
288.4008872
287.2525653
293.2263004
304.4583916
301.6753158
281.2964006
288.2069597
295.4284752
299.5556933
303.5571837
305.3999258
294.0970972
307.9679699
299.5119812
290.309146
289.0093036
286.7392342
306.1406323
301.5920011
304.438616
304.6039723
311.6526447
305.4420518
300.5105703
303.4308906
297.76939
299.7806762
304.729116
283.3142498
284.6571191
292.0843053
305.3896871
301.5310421
310.5537912
305.2840763
302.5935191
294.2108557
296.3391223
295.3182565
296.4692045
297.5718839
302.6097274
308.1768578
304.7627596
307.6097333
302.8442658
299.7779228
302.904016
296.7169625
295.509127
298.7090478
308.1849854
297.5502563
294.3091563
290.5720718
304.3449874
305.4335083
306.3852151
309.8985607
317.2808641
317.4548328
318.6950817
313.189993
311.5049164
306.2541243
313.2205631
307.1841942
298.4273806
300.3455995
294.0461493
292.9262379
304.529684
315.3264685
304.9774161
297.942422
312.2973462
322.86723
320.003329
317.3903445
321.8358752
318.2092727
312.1558292
307.8084564
311.1821854
308.4484684
304.1348605
287.4786496
295.906384
296.8605999
310.1441921
315.7555675
317.1680332
315.0374299
310.8366231
317.6905344
312.2900974
314.7822613
313.1995806
312.5000025
309.1865638
320.8328069
318.9629254
328.2057382
324.1802599
324.6850842
319.4182055
323.5397505
329.6185047
329.2446372
323.265491
319.0614599
319.6412846
311.9818629
318.4319927
329.8471272
330.3281693
326.6347871
325.2395383
324.4969741
322.987732
318.1258055
312.8016223
311.2007235
311.8572071
323.838918
320.3587209
319.5182912
310.2448498
303.910051
296.783007
303.9567098
308.6887059
295.7502059
293.3206509
290.8969002
288.355082
280.1478189
278.5414413
283.0214531
290.8891249
288.5689413
293.2284056
296.7884268
293.1968432
291.0434543
292.2735391
296.9089905
302.1504642
305.119006
303.2694381
297.0136422
304.0713673
295.5765885
305.5904959
298.7670005
305.7597463
306.6414661
310.1170073
305.7143354
293.2278792
293.3528712
285.8662853
285.6798347
297.5394481
299.8308304
299.9252928
302.0805414
295.8468454
296.7575469
295.6635432
288.4799419
297.5383675
308.6615995
306.6779068
305.648917
309.3670166
310.985475
295.6007179
298.6997635
290.9311356
285.8748118
293.4794427
293.5501076
281.8609025
275.5332977
275.7182504
277.4524003
283.3697969
284.7271137
299.907594
304.8667621
310.4214344
281.4955692
288.3215368
281.6445394
287.205431
288.563307
280.1873104
271.9849275
280.0992539
278.5143903
284.4739439
281.6644942
281.6664418
287.1775917
281.4844403
285.6937893
281.6946968
290.9389219
277.0744571
284.4030791
286.9603492
305.5002069
300.6294876
301.6758719
306.7572911
296.7277798
287.1346196
293.0186097
299.517988
297.6390253
302.9667041
312.7196434
307.577117
315.8940944
301.7856261
294.6567989
291.2336936
283.5785692
288.7225094
285.875815
289.7828856
283.0916659
298.7790418
297.9281938
302.92998
302.9486193
303.0108287
287.4224742
280.4551069
281.8128954
277.1410248
266.0819483
284.5131683
293.3475868
300.91539
300.0056151
292.2210004
290.9155692
295.3134734
293.2178811
292.0112378
299.9507522
298.9607713
297.7677571
304.4781793
302.731271
297.7644914
300.9376612
298.8705982
302.0833579
304.1411595
300.0466862
294.6519805
290.9072704
296.5675311
295.4562254
288.4671767
290.8958634
283.1123208
283.1295448
289.8536608
292.2814278
292.5360265
303.1708641
297.0600856
294.827002
300.956604
295.8793067
293.6967438
289.9946812
280.205148
289.6906669
288.5807258
292.4348801
281.8050653
284.6466346
292.3072121
291.022102
292.1402699
293.2420928
299.730052
303.9965941
313.479408
319.675246
318.3016923
309.3128367
303.043112
296.9650878
293.658817
304.82615
301.7276377
295.4594289
306.5369961
294.5184384
297.7307668
292.152837
286.955328
289.6105312
287.2799686
293.5586198
300.0611293
277.3102968
284.6092213
292.0300096
293.10445
290.7098201
281.5270443
288.2221434
299.6822539
302.7222934
299.952967
300.0172649
287.3445188
291.0413705
297.9238172
294.5862047
296.7933054
297.7639472
295.5937452
280.1593716
272.1451827
307.6336335
304.8621836
287.5636285
286.2138884
280.4273849
280.264045
284.4397285
284.4669983
294.2208826
299.5567868
310.7674628
307.7025165
304.0040066
309.3175445
304.7519214
307.6914155
314.3433374
320.679614
321.2904632
318.1301608
305.6655461
297.8975706
304.6636397
299.7944469
295.5021751
287.1376508
285.8116751
286.9232126
273.5526669
278.3894463
282.8376624
284.3077137
290.5797648
296.5234335
296.7488844
289.663417
288.3784846
290.7809995
294.3192157
302.7739485
284.1198915
290.6141511
295.2296242
301.3395063
299.4399891
308.9052081
302.4747232
295.2439366
287.8728942
294.0157263
269.6765711
276.6895804
281.1760428
279.5889476
285.2584137
293.9330042
295.2333342
294.057697
295.3416515
289.3963637
307.9766232
311.3743402
314.6475455
311.4700071
301.5603986
297.6954495
309.2575701
305.7011264
315.9131393
318.0648881
317.2308775
308.4092796
309.4644083
318.052469
310.6813595
302.3913282
310.3601357
305.4300916
308.8233514
305.3680828
319.660148
324.0652559
317.5754479
316.0054404
314.2479419
325.0104912
329.2953535
323.2792061
323.9034134
324.5586001
321.9998353
316.2493107
308.2024083
314.0211565
314.1691526
323.081148
316.5094597
321.5556939
319.4938692
314.1649153
320.1553911
321.6279111
322.415583
323.778371
328.9523336
325.5342864
314.5912677
303.1208383
307.7955616
302.971227
305.7057202
311.2426214
311.8811436
309.3469833
308.3123844
310.7544742
305.3073266
315.3535693
314.6541782
322.8607944
296.6310994
295.806857
297.7275051
294.5627096
299.8005079
301.8297457
299.6932356
308.0291686
308.8192928
304.6590897
298.6244986
296.6262464
303.898681
310.7769122
314.9807648
307.4179941
303.8390542
293.6140071
286.2057688
288.7369315
285.4470934
269.7968937
273.4062275
278.5181853
295.6082287
296.7386009
293.3296269
295.4679734
308.1356702
313.2883948
319.6544879
314.9527713
309.0747871
303.7139134
293.2026272
295.4439482
293.3370208
297.4665913
289.277429
288.1220765
302.8729996
312.6102453
306.6744345
290.9155692
289.6130963
285.6733581
294.2631375
294.4311513
301.8929598
310.4005763
307.519535
300.9677521
313.5538128
318.0642671
307.4893301
298.6294017
301.7833938
297.8200536
306.6900628
299.87775
301.8308634
293.5277746
299.7383004
298.6937575
295.6372161
300.8864609
289.7772102
283.2899821
283.3524267
277.3269486
277.1812327
277.2789238
264.1482482
266.2354983
281.777677
291.1985859
281.7967482
293.5400025
300.9449027
289.8816042
307.5986634
306.8014122
301.864414
298.6212303
302.5856974
304.4188524
308.9034644
316.9263425
317.0653856
311.3938059
302.6153183
309.8416814
301.766099
314.2825452
302.7475491
299.8319336
302.6931339
302.9412753
306.9335491
303.9601266
275.7422836
280.3754196
285.8367128
281.5420679
292.1219522
287.2667712
291.2389371
296.8291052
288.4600307
290.9976438
289.9723428
297.9582996
303.0879093
305.6156843
307.4365382
317.285805
311.8171513
305.998762
293.7111791
286.3385048
295.5037792
297.8964775
291.1405131
287.5774737
299.0572798
305.0423787
300.9471312
291.899372
292.0947581
290.9872421
293.4799734
286.0544513
280.2514827
284.6102183
281.7576418
285.9466343
289.7710201
293.4121192
292.2930017
298.8958645
302.8104943
299.8865897
301.8426021
301.9512502
289.8976577
302.1798323
304.1743923
320.664328
323.4158466
320.8264394
316.2366565
301.3158653
300.1178547
289.8210935
288.5904644
295.6785974
299.0882254
299.9745698
301.9770666
295.6560189
281.9753711
278.9220034
272.1777174
268.3704841
275.6012171
275.4408272
283.1546612
278.5086987
281.653785
285.7207207
282.8839866
289.5613246
281.5444919
290.8497612
283.0302815
268.1577938
278.7976008
282.0769637
290.0191168
283.366322
292.0315744
301.8442794
312.5742572
315.769028
308.5674884
312.8656551
319.0740319
316.746821
311.2007235
318.6391491
318.6925939
312.6384627
301.9708912
289.7932072
292.2026335
284.6092213
291.0794232
292.1921431
294.303334
289.4764309
286.17382
295.8090172
297.8992103
300.0072791
306.5479469
306.5076199
301.6836592
303.5583085
298.7319973
284.6506282
283.3459777
289.9256425
310.30539
312.1353161
320.9295796
316.3889631
302.1967878
292.3572652
287.4071724
294.7501052
294.1333905
292.9064434
297.6650545
302.7896862
296.6181597
290.6820135
294.4274312
291.0283499
296.6731911
288.4278949
283.1133048
284.5703632
273.8165431
278.6732789
277.0687993
281.6080731
301.80349
301.8101915
300.7483
293.1296201
312.4127817
303.5858792
297.4935554
295.308691
295.3666613
287.0352684
286.9663759
279.9277912
286.9432806
278.3710366
294.1397068
291.7775754
299.5136193
307.2665562
304.6437383
295.5134058
294.5621758
297.655291
307.2164233
309.9003214
302.7913728
302.9751849
303.1520953
299.9413409
309.2493467
316.5746493
311.2222645
306.955721
305.0993999
309.3422714
314.8501212
317.7994613
306.2016067
304.5444147
310.1536529
315.2079877
306.7039608
307.3618461
302.6516833
306.255267
311.9062953
306.6941158
309.0525936
298.6403001
298.5950964
298.5885663
304.3371034
307.0246663
303.4443382
300.6228693
305.6294317
320.1058375
320.0275715
314.9691995
307.4527729
306.6541868
310.1542443
308.4478832
310.1915227
312.8293953
310.9207531
304.6397595
306.2741261
311.4067893
311.3218979
312.0625845
312.021865
316.6232407
313.7575638
315.4765293
310.9118562
308.2855841
307.3820947
305.3891184
299.572648
300.609637
295.6501082
302.9164309
295.8419792
305.0095937
307.5044291
301.9995326
305.4580056
298.827802
295.4034149
290.7985626
296.5922964
289.5321469
299.680607
303.5588709
307.1508474
310.004956
308.4180492
304.921182
308.3654666
307.6132298
311.7992312
313.3955195
310.1010613
309.1478969
302.8944259
305.4409125
308.3859055
307.5864326
302.9684001
295.7879617
293.5049268
297.7231566
289.7339069
295.4930865
294.3065097
298.260561
297.4310346
299.8517975
311.7741591
315.7953524
302.7790062
310.846092
318.8509194
318.0189595
293.6502767
299.9989599
295.5840934
294.3165682
297.6243934
302.8848387
303.263732
307.0545095
302.9717923
283.288992
280.4925997
291.3513689
290.1677227
294.6466276
297.976925
306.9498849
308.7069858
304.1119657
293.7545262
293.7411409
287.6853838
296.0758868
297.4535372
303.8063267
306.4028101
306.1596659
298.0922118
295.6592434
301.8386887
292.0070679
297.4762957
297.7726561
292.055057
287.0297309
296.6386501
292.0404435
295.5246407
294.6230859
289.8603855
286.1601385
300.7361219
303.7037423
301.8616168
300.122308
296.9247746
300.0794704
299.0142278
293.6097429
288.6885424
297.9309295
296.7575469
297.6894768
296.6769714
296.6926374
289.7823696
288.3515223
292.1774628
279.987061
289.4539698
296.4289971
294.4779572
291.2347422
298.0032386
305.7735546
304.8272933
301.9349855
310.1530615
311.1863705
302.7784442
296.4257828
297.5383675
297.6829623
299.9474302
292.3857535
293.4688306
301.9383499
296.5304203
291.8806817
289.4743883
290.791846
292.4380523
287.5149657
289.9604013
291.1656118
295.865236
285.9642404
287.3013001
294.5712511
300.1601871
295.8630718
287.2454649
291.0033663
283.03715
285.6375139
288.3713601
285.9506576
284.644638
294.6659025
293.6214708
297.1115278
286.0211565
294.5051163
296.8339902
300.9928497
283.1965714
284.7732034
284.9305648
274.0653235
266.2057629
278.8124612
297.8637014
306.701644
316.4001794
320.9116206
316.2285936
315.407121
310.3767543
298.214552
296.9051818
294.5589734
291.8853532
288.2799129
289.4657087
287.0337581
298.5505014
293.1921117
285.7356935
295.3970198
296.6451236
292.2603958
295.9193896
294.8776552
303.0385791
300.8464488
298.5787738
312.2966373
318.590126
311.7163256
305.5630399
302.9548348
314.7514052
317.7489557
314.1927704
307.5648942
310.0986996
308.3952531
309.122729
306.7398913
306.7549706
308.6039248
312.0155028
312.0100941
312.5910469
316.2883614
319.1959089
318.4021168
315.8943909
320.339333
316.9263425
320.8510761
302.5873733
300.5166155
307.5329036
310.7597871
313.9200424
320.235828
314.2752574
306.7915378
312.1003518
306.7132294
305.9784874
304.831867
303.8526735
296.9019175
295.5150106
299.5819497
290.9971236
294.4056511
292.0978946
290.7913294
290.9685282
293.4651173
300.1156282
298.7916355
301.8364527
298.7801367
300.9504742
300.8981406
294.2457002
311.7312217
310.6213361
305.2772744
295.3060344
281.4486641
282.8805706
281.3825497
289.3984009
305.4773886
297.4860031
297.5762112
311.7163256
311.6978637
298.43117
298.8327371
287.3002839
289.6367055
299.7762709
307.8706324
304.4730898
302.4930994
293.1264727
290.9409985
305.6758718
303.5734976
303.3738006
301.528274
300.6719877
304.4838351
301.8599386
299.9098058
283.0970741
288.4707504
298.8069738
308.3537929
317.4833945
311.2138858
304.2237317
303.0436787
300.1852791
301.368893
291.2399859
286.122674
289.9448326
293.2974313
290.8839425
292.1753662
281.5774779
281.6192511
293.5022712
289.8262606
304.8810743
318.8427988
313.4920997
300.8981406
301.6319649
282.856183
284.3689483
282.8942369
284.2776383
285.3893237
290.3809007
303.1225821
304.4301444
306.140063
308.8628032
308.9418477
315.9039227
312.7575943
310.9409282
306.3525364
308.4309155
300.8825686
304.7131617
296.570222
296.9127997
294.6862615
288.9038137
292.6497578
292.6449661
293.593225
292.232551
298.8535825
300.0572401
303.0323473
314.5159663
319.7703859
319.7262494
314.3981428
310.932026
312.6889523
307.6412153
302.0439494
294.7130703
296.764587
298.6932115
298.770284
295.6194983
299.7944469
301.6530772
307.3300521
310.2365489
306.6379976
311.6520501
306.6709626
294.9219107
294.8183885
292.6141042
292.4031763
298.9140028
303.7387896
293.6732343
300.3957206
308.0113329
307.9335632
296.8975657
300.9387751
308.4508095
299.0965196
298.1213755
296.9280413
299.3352241
297.2108226
297.2680203
293.7411409
286.0211565
293.217355
295.4119438
287.1002874
287.2662637
293.6310697
296.4799354
300.6019206
301.9377891
308.3345403
301.0403105
296.9580019
303.2323662
304.2283252
305.0044202
309.5324561
306.8048979
309.2675583
316.4094539
307.2187266
303.439855
298.6899361
294.4040581
299.7295022
298.7615286
298.8036864
287.3018082
280.1733375
281.812406
281.723956
292.152837
300.0189296
300.0739114
310.316085
302.1770073
300.0861426
294.6081142
286.0877845
299.0462352
294.8426201
300.2399932
296.0187382
300.0078338
288.5838008
294.4375297
284.4526165
298.9651766
299.100944
305.7574455
310.1613417
306.5208647
300.6361072
300.7278214
298.6697449
307.429583
301.9826816
304.9630614
295.6501082
288.4753458
291.130584
297.8784464
301.1427327
310.4464812
304.8364412
306.512802
286.0166192
314.0320079
309.7960136
304.7302559
299.9657053
307.7703725
305.8484511
296.8453916
293.4168852
303.6681687
297.7563289
301.8493119
300.8547805
300.0205943
301.7220674
305.3993569
298.7949216
298.9888659
300.1284324
306.8549014
310.1158259
307.6616364
306.6738559
302.7761963
295.7216502
284.7126008
294.6017
290.0066365
294.7533278
285.9546815
283.1074016
287.2150544
285.5153811
289.4646878
286.9603492
294.4444411
297.5286437
307.2095144
310.7822287
304.6972153
308.4718868
300.5144171
301.5676035
302.7351994
306.2250009
302.3502666
302.5985484
296.2686897
297.1779313
296.4461459
302.7161229
298.7839692
309.2100202
306.368585
303.8175022
304.84216
305.809253
299.6674348
301.4807005
304.3596342
312.2698912
315.35236
301.5493175
298.3074394
294.1165534
285.3198574
292.8772963
300.5518104
304.7063266
300.7626982
285.9863891
294.5184384
300.8081512
299.7894887
315.2122778
316.418032
301.6730912
296.4129288
300.5721753
311.2677736
304.2566839
310.6878391
307.2492603
302.5834629
302.6086093
304.4764827
294.3393444
282.9460331
285.3159211
305.0350392
296.056765
286.5113818
282.464481
291.5621483
298.2363411
299.2607276
307.8999762
307.1537208
297.2758173
302.3419498
302.4507944
306.5272011
305.7798853
310.8579319
310.9533954
309.029248
309.7866536
312.3913097
320.7284119
317.1421891
314.1328494
309.0560968
315.4977737
307.5119812
312.5089763
311.8679764
303.7925652
297.6769919
296.5282704
300.6863513
308.2047321
297.8811777
306.6709626
304.8696241
304.7947249
299.915336
306.8246576
304.8868009
309.2012221
309.2287972
310.8928839
305.5378921
301.8079575
300.86367
309.1994627
305.7005522
305.7862173
306.5958277
301.084485
300.0489078
287.4015638
289.9567679
273.7662333
278.6270402
280.205148
287.2972357
304.7644712
306.5802444
284.6631119
278.7315449
277.4600509
300.4401145
303.1526639
302.0293244
306.737572
297.0338501
299.1718206
283.2924574
291.1504455
291.2258301
288.7374467
284.0826704
284.2008676
284.3872453
271.8537053
265.973021
278.7105167
283.1379145
289.915793
288.7781765
284.7701953
288.718905
284.7706966
285.9471372
271.9371762
263.8748259
273.7966848
277.162777
283.1807862
281.4563956
279.9020195
287.2094825
291.1217029
294.6386
297.9161597
301.0118255
317.4914706
314.2333825
310.668993
305.3215118
300.7660219
289.9152747
284.6266748
280.0954108
290.8471733
287.0418142
292.0905765
285.6519458
294.1528699
291.8697844
290.9778837
307.420891
300.8570026
303.098125
317.6490163
315.3756995
310.3529493
306.7717981
308.5962816
310.2081042
304.9366653
303.9715182
310.3386744
308.5980452
309.424827
309.4319127
307.3485467
310.9154147
312.6348592
319.3333556
307.2602133
281.9640509
275.4912265
278.8100639
280.4293294
293.5793782
292.4793215
284.8118354
290.0477372
286.2540123
283.3286221
299.0015443
296.7202073
301.9596663
305.6884967
309.367606
314.535541
310.2442568
305.5945019
293.5415978
286.1560859
273.4449261
278.4849964
284.3091937
281.584274
285.662401
298.5135685
303.4538671
306.370305
317.1391137
325.6039928
309.9120618
303.8850423
297.7770115
284.6341581
288.4513556
298.8393183
297.5108247
284.2225
273.5613599
278.477416
304.8782114
304.121694
305.0510119
295.8619898
289.8505577
291.08777
294.3860093
294.4088375
285.9748093
291.0247052
289.8955858
292.2199505
292.204732
304.598863
306.4742436
304.520056
301.6964568
312.4247165
310.8792542
312.6414659
300.8959156
301.5731467
299.7922431
307.3589545
311.8105795
308.7654311
307.8336745
303.0595493
304.9555995
301.0040105
298.9734383
297.8211441
293.34653
286.0468809
291.1828794
287.3211219
293.6919335
284.9260279
286.2723151
291.391927
306.4529696
314.411553
296.9117113
295.897175
288.5172479
287.4020736
285.8858498
292.1685533
299.8109796
297.7410979
295.5150106
298.9585689
298.9844573
306.5220167
299.9407874
308.3829848
310.8395819
316.5955851
317.3624779
307.3606894
306.6715412
305.6231301
310.2466288
307.4945559
307.3820947
295.5765885
297.9862418
300.0594624
293.4449671
292.4851461
295.9155957
298.9470086
295.5123361
293.2394602
288.2895522
290.9363262
282.891796
288.2596299
301.538794
301.8996802
298.5505014
297.484385
296.4407859
302.6326565
300.8331226
303.8623239
305.643758
302.9435348
296.6839931
297.9708979
291.1834029
287.3837252
298.898612
299.8346917
302.7307098
298.7440252
295.6474219
302.9186887
299.7977527
303.7099576
283.4264474
291.4679238
291.266743
302.0259503
304.2019213
298.9470086
287.3297664
296.8079457
295.8327895
307.7112831
305.8876964
307.7990778
302.2250669
287.5574771
284.8902625
286.1515275
277.3621887
287.7229889
275.7672819
280.5692023
302.0208899
306.5145296
307.5236031
299.867256
302.9017592
305.8127098
308.5569176
296.8356187
298.9585689
305.6248486
317.3928226
312.6282537
301.6380749
304.6670525
304.60454
314.2054944
315.7580144
307.6534664
305.7672251
306.6171947
283.0033144
281.5425527
278.6351383
284.4352686
293.45398
289.819027
295.8847203
305.9287235
309.3463943
312.7009847
314.0639793
310.6996233
312.4850515
305.5550362
303.876521
301.0213177
299.1070287
291.4246242
293.6054794
284.5300662
302.5471753
310.7019806
319.9869415
311.0503219
313.5744086
310.3255945
309.2993056
306.5923641
310.1867866
303.874817
303.9829139
304.8719138
300.0117168
299.053966
283.4070543
281.6971339
281.6148765
298.7982081
304.4923207
306.517409
287.3506254
290.0472166
292.387337
296.5664548
290.9010478
292.050881
292.235702
288.6340713
296.9351203
305.9021366
298.7598873
287.1058384
290.8378587
284.3551097
297.6146427
301.89856
302.8510244
295.4599629
290.8611506
285.824692
299.994524
289.9396449
283.285032
280.3890087
288.6289377
281.6425933
284.3867506
288.7065503
285.895888
289.6526268
288.4401329
289.9801334
287.5190605
294.9575776
298.0070779
303.1214063
308.5956937
310.5666084
308.686348
299.1385772
299.7977527
301.7287518
302.4669305
306.3840679
308.0586537
306.2141576
306.3055821
312.2283281
312.5029935
315.0221882
312.4318794
315.6474619
313.2926012
311.8542162
313.6156377
305.6741507
301.6797653
297.6997941
295.6211086
296.7949317
299.915336
297.8806314
305.7885201
306.8962408
311.2456161
298.0531861
287.6041572
295.9448747
286.1171091
280.4458632
281.9311007
285.969776
292.3351262
284.6042365
289.9137198
295.8544167
304.0216894
304.7798799
302.8662364
301.9148062
306.9131409
311.8799464
308.5263987
304.85074
298.6932115
298.8267055
296.5933736
295.7259588
303.7665153
310.0479629
312.5766552
309.5887746
300.9020348
298.7172421
297.8396876
300.9343195
300.9488026
295.8960918
290.1844548
291.0982068
309.2804887
310.0727317
305.7977331
303.0657864
313.6089649
311.8398636
310.8964404
305.664399
297.5027285
304.3945881
296.4885227
300.6123932
306.6195055
307.6610527
295.7960583
302.9898903
296.7369775
296.9182423
308.6215696
313.8023974
285.4762691
286.8240796
285.4268361
284.0469642
288.120563
290.8777248
290.8922348
298.6593815
288.5198049
289.7163974
296.7034462
297.6238516
293.008158
298.6255881
290.8032133
289.7560662
283.1714179
287.4173727
297.7112015
297.4385735
302.8127446
296.7380597
294.6278997
306.8909977
305.0095937
300.8831246
295.7281133
295.6490336
301.1752635
290.2100942
295.9183055
296.0546478
293.8569857
286.3165945
274.0112865
275.6904739
293.6444066
290.0951517
296.0018861
301.1859274
299.0175374
304.7125921
295.3358011
289.5495477
277.0631426
283.0322438
281.7747442
292.2409543
295.4658371
299.6888425
302.6847274
296.4359627
298.4154739
309.1771859
314.0513078
313.4818251
301.8504303
308.4192187
302.6679211
303.832814
298.0317702
288.6602665
297.9320238
301.8963198
301.9714525
298.6921197
296.6569952
302.7256597
303.6427831
300.0466862
301.1382483
299.1768101
315.2662563
306.8298901
312.9019537
305.8196244
300.0450201
302.05239
299.1175413
306.0863766
307.7434474
310.2632377
301.1309625
300.9020348
299.9618279
308.4795014
297.7574171
297.8489634
297.6086854
315.3620352
308.7341776
306.1725299
297.394443
302.7194885
298.8376729
299.8584217
290.8803153
291.1060368
289.9080194
304.000015
286.2784186
297.1449562
303.2740038
300.4789401
299.2595303
293.6684278
298.8601681
296.8046917
292.0347044
289.5613246
285.6982761
298.5836697
294.1902844
299.8027121
298.9360028
302.1042078
301.0934392
292.4745568
292.3678133
288.6690034
303.8288436
301.8437203
294.4731669
294.4237116
281.5823321
287.1740504
297.030026
299.2895633
312.2349816
306.0619834
304.1738191
292.5286011
294.7721327
302.2431787
303.0159239
298.9894171
295.710343
294.4657169
310.9397411
306.7967651
286.0534418
292.5116356
299.0865668
294.706634
305.8790353
301.9905443
309.2875438
311.7777397
315.8125047
306.7439504
297.6786201
294.5749889
299.9651514
296.8600567
293.5469162
284.85605
291.2935241
284.8098272
280.6024458
280.3235509
291.0455383
293.2731753
292.2766944
293.434897
286.1545664
278.8969819
287.4571881
292.2835319
284.6681069
296.8301907
297.9243643
293.5873659
294.546167
292.342504
311.9308662
319.3957254
311.640755
314.1733905
307.9818163
293.2157767
293.4592829
289.8836751
294.5771249
301.0285783
298.8228678
308.6580655
303.9151688
293.500678
284.8369489
286.2032319
272.3142488
283.4971702
295.7798673
292.2320259
292.0822152
297.847872
295.6372161
291.230548
284.6855963
296.9394774
300.1106193
307.8953348
302.290771
299.0766172
303.0346133
294.6327144
299.9219735
299.961274
293.6022821
294.7404396
303.932803
303.811833
305.3834318
302.5187322
298.732544
287.1634291
283.0960907
277.0414695
281.6309198
297.975829
309.4366374
300.946574
295.5498003
295.5214303
292.0487932
287.2378593
280.3652322
286.1019375
285.9612215
288.5791885
287.3211219
277.3326601
280.6303421
277.376965
284.999714
290.1949172
303.1725709
309.7356493
319.3460558
316.9621537
306.7787637
310.2988559
308.4180492
307.4075677
300.9165032
293.1642634
298.6490216
298.6981254
296.6337959
295.4311424
295.4039479
301.4939696
303.4931332
305.4905072
307.4852662
313.4425682
311.8410595
302.0861747
304.9877554
306.8264017
295.3703879
298.6299465
298.8574239
297.790626
291.1102136
284.8088232
284.6736024
300.1301029
302.8566576
312.5772547
301.8135428