/*--------------------------------*- C++ -*----------------------------------*\
| =========                 |                                                 |
| \\      /  F ield         | OpenFOAM: The Open Source CFD Toolbox           |
|  \\    /   O peration     | Version:  v1706                                 |
|   \\  /    A nd           | Web:      www.OpenFOAM.com                      |
|    \\/     M anipulation  |                                                 |
\*---------------------------------------------------------------------------*/
FoamFile
{
    version     2.0;
    format      ascii;
    class       scalarField;
    location    "5e-05/lagrangian/dsmc";
    object      ERot;
}
// * * * * * * * * * * * * * * * * * * * * * * * * * * * * * * * * * * * * * //


99997
(
2.370707713e-19
1.301021488e-19
2.463432088e-19
3.154438809e-19
1.069214911e-19
1.99097061e-19
3.491794718e-21
3.059254952e-20
1.332392866e-19
4.656668408e-20
1.087479668e-19
5.639768638e-20
1.471840571e-19
5.841371676e-20
2.967522774e-20
3.114777933e-20
2.006596957e-19
4.810012839e-20
1.798493816e-19
3.969297356e-20
1.541410855e-19
1.738030108e-21
1.409908395e-21
2.33528131e-19
1.660202785e-21
5.847437367e-20
3.3969858e-20
7.574987314e-21
2.840145674e-20
1.373890089e-19
2.797897145e-20
1.349765992e-19
1.048189623e-19
5.866193677e-19
1.583075037e-19
1.503994412e-19
1.83323609e-19
8.010943919e-20
1.068626532e-19
1.545780181e-20
1.327704247e-19
1.162254559e-19
1.525788803e-19
7.350860403e-21
3.695921569e-21
8.530159289e-21
1.528355618e-19
1.142775529e-19
1.288384562e-20
1.993884487e-20
3.49769376e-20
5.818582917e-20
1.515673633e-20
1.027027043e-19
7.694913194e-20
1.779485802e-19
4.127138875e-20
6.890636166e-20
1.799818917e-19
4.061804307e-20
1.108325232e-20
2.049171414e-20
1.050730275e-20
2.025062154e-19
2.300904675e-20
8.686621639e-20
2.268135378e-19
2.401624322e-21
3.697094032e-21
1.862524063e-19
4.445585655e-20
1.511826351e-21
5.539301694e-20
3.122334618e-19
4.850746861e-20
2.278259199e-20
1.469853726e-19
4.00224882e-21
1.282518911e-19
2.395297949e-21
1.74532264e-19
2.850896057e-20
1.375992358e-19
4.063462443e-19
8.821340498e-20
7.739799776e-20
2.115564447e-19
3.896020482e-20
1.27143439e-19
3.552173141e-20
9.160842561e-20
1.287416558e-20
1.960189588e-21
1.548140848e-19
2.909192756e-20
1.780985433e-20
8.719108872e-21
7.735866444e-20
6.546902306e-20
1.970550235e-20
4.643746195e-22
2.087059975e-20
2.540729061e-19
1.963905773e-19
1.553553975e-19
4.177946822e-19
7.926081991e-21
1.200822629e-19
2.960522143e-19
1.267673443e-19
9.994609991e-21
6.336812726e-20
8.048085933e-20
6.559314883e-20
5.076488402e-20
8.403007954e-20
4.31682586e-21
1.96859995e-20
7.01953288e-20
6.585910566e-21
1.215194024e-19
1.476852732e-20
3.965680946e-20
5.463988204e-21
2.320381014e-20
4.161700677e-20
4.215808712e-21
2.322203634e-20
1.706905836e-20
1.599415443e-19
9.543075933e-20
3.182710695e-19
1.211222611e-19
1.622095941e-19
1.570331352e-19
1.865701574e-19
4.199842175e-20
1.278765483e-20
1.066172454e-19
2.374418772e-19
3.361368333e-20
1.142701221e-19
1.371092055e-19
1.378012249e-19
1.09598873e-20
2.569322063e-20
5.391759108e-20
4.764180193e-20
9.878829136e-20
1.219230512e-19
2.599088992e-19
5.934804097e-20
1.511979929e-20
4.352769819e-20
1.939292368e-20
1.590352993e-20
8.167776818e-20
1.412251478e-19
2.170637732e-21
3.98694448e-20
1.496820249e-19
2.821137027e-19
1.37027299e-20
4.170732173e-20
2.826678734e-20
2.413088818e-20
3.012694111e-20
9.513785557e-20
1.43679979e-19
8.425884665e-20
1.522138728e-19
6.101944962e-20
4.106910116e-20
1.555931857e-20
1.594606935e-19
4.633410138e-20
9.332117413e-20
6.855571207e-20
8.138107352e-20
1.530969776e-19
3.481839302e-20
3.286941635e-20
2.397641643e-20
2.296555429e-19
9.08396577e-20
3.792882057e-19
3.587267317e-21
6.822116625e-20
2.701501998e-19
4.419543959e-20
8.234987624e-20
5.992038218e-20
5.660021666e-20
6.387052617e-20
2.40884725e-19
2.64828774e-19
2.618970082e-20
1.088380527e-20
1.011256315e-20
3.242770478e-20
5.190738872e-20
3.109646592e-19
1.009465467e-19
5.45570815e-20
9.666496875e-20
2.896853156e-20
5.234017065e-20
1.919853632e-20
6.327293353e-20
2.41750308e-20
1.321417791e-20
7.007808788e-21
1.691303104e-19
1.447327204e-20
2.53088382e-19
1.809795416e-20
2.627781008e-20
5.67390799e-21
6.224509759e-20
7.816350057e-20
4.323904671e-20
1.167848891e-19
9.443588916e-21
2.333804534e-20
1.268872724e-19
1.334126249e-20
3.700575571e-20
1.116222415e-20
3.82013051e-22
2.065196709e-19
2.042534667e-20
1.727435846e-19
1.446633771e-19
1.50398881e-20
1.452529903e-19
2.081086367e-20
1.75338809e-19
1.323385853e-21
2.458043183e-19
1.078379154e-19
2.934715108e-19
2.626840879e-20
3.793707484e-19
6.215955578e-21
3.664235142e-20
2.12934507e-19
1.013878449e-19
1.952924702e-20
7.81155387e-21
5.165842154e-20
3.780326714e-19
3.905350772e-20
7.079389945e-20
7.876178724e-21
6.992241918e-20
2.890954443e-20
8.193480651e-20
2.543344072e-19
4.460942249e-20
2.260364238e-20
4.312700186e-20
8.668634359e-20
6.373741137e-20
1.88228953e-19
2.347974003e-21
7.712491669e-20
7.888976734e-20
4.167564065e-20
2.181012924e-19
1.837919298e-20
5.611014053e-20
2.139817412e-19
5.934184693e-20
3.230381604e-20
1.162278315e-20
2.170196943e-19
7.205209756e-21
6.265253737e-20
3.737488462e-20
5.160481172e-19
1.738505918e-19
2.555507675e-19
4.170788202e-19
1.239745796e-19
3.930224727e-20
5.411911857e-20
5.999808251e-20
1.810169937e-19
3.46300051e-20
1.043872256e-19
3.282727093e-19
8.941893988e-20
8.424501303e-21
2.015242739e-19
5.026970952e-20
1.15807308e-19
1.853087242e-20
7.137187526e-20
2.793517536e-19
2.486114492e-20
9.347313814e-20
1.05888415e-20
7.797998784e-20
1.076423457e-19
7.280683403e-20
9.819951151e-21
8.793760529e-20
7.141532958e-21
1.515790977e-19
6.135509544e-20
3.254414512e-20
7.03068025e-20
2.176097387e-19
1.772224281e-19
6.629746232e-20
1.970917853e-19
1.021744681e-20
6.857068439e-20
1.713843522e-19
9.951726685e-20
1.786137374e-20
5.038490947e-20
4.54904335e-20
4.948249848e-21
1.037918595e-19
4.064458159e-21
1.846080113e-19
3.390919541e-20
1.274703942e-19
2.798113908e-20
3.03486968e-19
9.976167018e-20
2.974192229e-19
2.372804038e-20
1.257147182e-19
4.834010153e-20
3.157172786e-19
1.350508655e-19
1.594600178e-19
1.818100069e-19
3.706863124e-20
3.556915356e-20
1.705156636e-19
1.465035748e-19
2.622114123e-19
1.420400757e-19
1.210755776e-19
1.218141082e-19
6.963053369e-20
1.090517229e-21
2.179872256e-19
8.833451541e-20
6.579362764e-20
1.414499677e-20
2.274931651e-19
1.313217322e-20
1.41183188e-19
6.567271589e-20
5.963155865e-20
6.463789132e-20
5.42006144e-20
2.414835045e-20
5.939671797e-20
1.330484226e-19
3.07109717e-19
5.980973854e-20
2.653968033e-19
5.540538116e-20
3.616578613e-19
7.14899204e-20
2.268799702e-19
9.259124334e-20
1.835592333e-19
1.008155238e-19
1.044758428e-19
1.301905507e-19
6.438612125e-20
3.28311494e-19
1.057803056e-19
1.607377515e-20
4.215502009e-20
1.32930958e-19
4.653073747e-20
8.535321066e-20
3.325355078e-19
2.472703911e-20
1.276429573e-19
4.326903864e-20
6.568221424e-20
3.512012916e-19
2.345660939e-19
1.407233228e-20
2.414197133e-20
4.187185691e-19
2.429601364e-21
1.611331105e-19
2.606483442e-20
1.505491209e-20
4.085007337e-20
2.571140291e-20
7.773237336e-21
1.051768465e-19
2.880497085e-20
2.590487108e-19
1.076697543e-19
5.623770097e-20
8.487703181e-20
4.435413118e-20
1.732697067e-19
6.715360696e-21
1.846672985e-19
3.594414346e-20
4.00658411e-20
3.720369955e-20
1.0484353e-19
3.563913533e-20
1.919944394e-20
3.636466499e-20
3.396553138e-20
3.277450304e-20
7.285049535e-20
2.008919554e-19
6.615798386e-21
1.053734012e-19
1.22722202e-20
2.700817563e-19
6.783086476e-20
4.204641993e-19
4.329259747e-20
1.160892144e-19
6.688489616e-21
4.386224701e-20
2.506460539e-19
3.817134542e-20
2.648974012e-19
1.964197863e-19
9.72112983e-20
8.79102184e-20
1.216802977e-19
3.613141728e-20
2.240617155e-20
1.473705478e-20
8.535857123e-20
7.552206626e-20
1.711298239e-20
1.381127573e-19
1.109979381e-19
1.106027846e-19
1.005926673e-20
4.14162387e-20
1.194813781e-19
2.165218822e-19
2.272410068e-19
6.531140362e-20
4.603569519e-20
3.524084477e-19
1.409221633e-19
2.60316434e-19
1.358537569e-19
9.904499223e-20
2.283077478e-19
1.651315453e-19
6.748726555e-21
4.572488631e-20
4.676340596e-20
9.773759723e-20
1.058423628e-19
8.662912355e-20
1.350415212e-20
1.036793679e-19
5.738609899e-20
1.166921185e-19
2.204573792e-19
5.327964874e-20
8.826091292e-22
1.084649209e-19
1.048107301e-19
5.886517076e-21
3.975653886e-19
2.885674107e-21
6.941913087e-20
5.266814548e-21
2.553534657e-20
5.442250683e-21
3.915812325e-20
4.568114065e-20
9.095010949e-20
5.494608947e-20
5.725045579e-20
5.179917145e-21
3.393605166e-19
1.086110557e-19
6.223362736e-20
1.461563076e-19
2.373720338e-19
1.920315282e-19
8.901492709e-20
4.307941102e-20
1.720898658e-20
1.439932661e-20
5.851211106e-20
1.393133081e-20
2.097435555e-19
6.796306606e-20
7.95838026e-20
9.461877104e-20
1.342253618e-19
1.537105477e-20
4.867828837e-20
3.670113066e-20
1.22042685e-19
1.729525203e-19
6.484860674e-20
6.428925535e-20
3.87144902e-20
5.821917569e-20
9.380207317e-20
1.692252694e-19
7.757590441e-20
1.225238296e-20
2.89245959e-20
2.587271981e-19
4.069517586e-19
1.113470922e-20
2.305351349e-19
8.725140416e-21
1.749108256e-20
7.566198744e-20
8.395376904e-20
1.785870059e-20
1.802875537e-20
9.323090229e-21
7.12698401e-20
1.153572173e-20
6.777035404e-20
1.279902785e-19
7.283188162e-21
7.443572629e-20
4.63626179e-20
7.063251951e-21
4.047448691e-20
1.43627786e-20
4.734229483e-20
1.478586802e-19
1.440644151e-19
2.099590304e-20
9.077500996e-20
1.902922873e-20
2.912191414e-20
1.798192849e-19
4.976555973e-20
4.70580615e-20
8.090904287e-20
2.909418224e-21
2.050960969e-20
2.326120206e-20
2.182552324e-19
1.880772004e-19
8.870216733e-20
7.681537771e-20
2.376945411e-19
2.474029495e-20
4.254426217e-20
7.645376364e-22
9.940834626e-20
8.141697318e-20
7.14288315e-20
3.505066741e-20
3.296333946e-20
3.155546251e-20
4.399893812e-20
1.653433157e-19
8.865611176e-20
4.959384967e-20
2.525142468e-20
6.249678323e-20
1.450243938e-19
2.313413953e-19
1.060308165e-19
1.710886122e-19
5.846891088e-20
2.807003143e-19
9.844560137e-20
5.368664303e-21
2.889464793e-19
1.984353954e-21
1.090723997e-19
4.060963238e-20
2.092946665e-19
1.340550245e-19
1.322583502e-20
8.645029596e-20
8.481881403e-20
2.188097879e-20
1.331947472e-19
8.655843105e-20
2.1312405e-19
4.78828075e-21
8.5147539e-20
2.133045915e-19
3.02088017e-19
8.244071869e-21
2.954073162e-20
2.294642025e-20
1.529978717e-19
2.228220952e-20
3.892333709e-20
1.324601768e-19
3.742880441e-20
1.373286816e-19
1.469504522e-19
1.598058857e-21
2.811987209e-19
2.750160152e-20
1.105376067e-19
3.023917712e-20
1.760310566e-19
1.747126367e-20
9.639144984e-20
1.222517943e-19
1.562635039e-20
7.684587493e-20
7.803483005e-20
1.376610647e-19
6.890349019e-21
2.358589514e-19
1.562026032e-19
2.493400282e-20
3.032703786e-21
1.461137966e-19
8.221350191e-21
5.031383239e-20
1.748811286e-19
4.189095913e-20
3.373652161e-21
5.085936872e-20
6.461608713e-20
1.462528691e-19
2.652081715e-20
1.660225059e-19
2.077739063e-20
1.583422868e-19
8.802781977e-20
2.715391545e-21
9.849621101e-21
3.346478066e-20
9.958326313e-21
5.189676761e-20
1.072141479e-19
2.532182822e-20
4.421617364e-20
3.139308615e-20
9.715139933e-20
4.627453317e-20
1.099139205e-19
8.323960037e-20
3.096805048e-20
7.001871081e-20
9.017622278e-20
1.532222641e-19
6.60948897e-20
2.801627775e-20
4.456631027e-20
3.525468383e-20
5.339759057e-20
9.825967285e-21
3.942874085e-20
5.280316737e-20
1.967047526e-19
7.551924548e-20
2.300976663e-20
1.184244583e-19
1.846615804e-19
9.045499125e-20
1.718081401e-21
1.724541077e-19
1.29173345e-19
2.080014788e-20
1.616222919e-19
9.943718166e-20
4.014163463e-20
2.364132268e-20
2.46145988e-20
4.062050824e-20
2.980591805e-20
1.279866014e-20
5.853461591e-20
8.423467049e-20
9.018955822e-20
2.313453214e-20
1.036032595e-19
3.710073386e-21
1.129722665e-19
1.951851204e-19
2.941034926e-19
6.844501142e-21
7.648880613e-20
9.620918612e-20
1.709878022e-20
1.268563635e-19
2.998637453e-19
8.167467495e-20
2.405470263e-21
5.831047669e-19
1.098054869e-19
4.76266851e-19
1.586357091e-20
4.00435683e-20
2.439287758e-20
1.532616887e-19
1.517106773e-20
3.326961111e-20
5.536356225e-20
2.110223004e-19
2.988420195e-20
2.005420243e-20
5.94707038e-20
9.811803555e-20
4.202921595e-20
4.984611839e-20
3.705671724e-19
1.800274957e-20
5.695693741e-20
2.683810264e-19
1.886446064e-20
4.562556674e-20
1.59215899e-19
2.619556537e-20
3.361045716e-20
1.855171181e-19
2.732082798e-19
3.198927755e-19
2.028715668e-19
1.246566692e-19
2.577983736e-19
2.6003058e-20
1.073661465e-19
4.189865494e-20
2.035403234e-19
2.184695438e-19
2.629347093e-19
9.593561148e-21
3.671316612e-21
7.144445826e-20
1.230449419e-19
3.820504422e-21
9.449438229e-21
1.228256798e-19
4.252082252e-20
6.348451286e-20
1.934654901e-19
5.966575297e-20
9.832289284e-20
7.168152969e-20
2.347194252e-19
1.22319491e-19
2.518268173e-19
3.333310574e-19
8.898317679e-21
2.472380095e-19
2.610846827e-19
6.694663098e-20
6.495471397e-20
7.699249905e-20
2.133080465e-19
1.997269965e-19
9.476211618e-21
9.319296544e-21
1.974597201e-20
3.077829864e-20
2.777144064e-19
3.617538435e-21
1.292411513e-19
5.670520886e-20
3.913499571e-20
1.318996532e-19
1.07561688e-19
6.220485667e-19
5.508936586e-20
5.960291275e-20
7.343977638e-20
7.543673005e-20
2.032686405e-19
9.451517489e-20
3.191972442e-20
7.219397431e-20
1.106106243e-19
9.361263537e-20
2.50559877e-19
1.779263998e-19
4.767211846e-20
6.37669142e-21
4.441956322e-20
2.118593091e-20
7.604229777e-20
1.590569036e-19
1.527912866e-19
3.75334657e-20
5.771509138e-20
3.659648747e-20
3.525601012e-20
1.874982655e-19
4.218411428e-20
3.705500948e-22
3.682493621e-19
3.28790211e-20
8.493270496e-20
6.598403751e-20
9.789952479e-21
2.180219526e-20
1.417539451e-19
8.902150878e-21
2.511527684e-20
4.724936033e-20
2.107223242e-19
1.436693039e-19
1.271273043e-19
1.27110463e-20
2.52528041e-20
1.32199527e-19
1.960355282e-19
1.357435012e-21
1.361581905e-19
1.349242517e-19
9.299954234e-20
1.202598967e-19
2.138803107e-21
7.732875342e-20
5.649113745e-19
6.725583574e-20
4.105108828e-20
1.210427502e-19
2.38365699e-21
9.01745953e-20
1.143538632e-19
8.084958513e-20
3.451195958e-20
8.709072053e-20
8.791298154e-20
3.170936757e-20
1.116991867e-19
1.517318665e-19
6.020838221e-20
4.142181483e-19
1.001596078e-19
1.833286148e-19
1.755192367e-20
1.179650489e-19
1.432014576e-19
1.559674258e-19
4.55330478e-20
3.234756451e-20
1.330760244e-19
2.606204941e-20
4.741979387e-20
1.26490537e-19
1.451796377e-19
4.662273568e-19
4.900369325e-20
1.278813051e-19
2.241414583e-19
2.727531272e-20
1.015937157e-19
3.230541316e-19
5.958614842e-20
9.950395231e-20
2.199924325e-20
1.503177428e-20
1.373987469e-20
3.642810822e-20
4.584840173e-20
1.137427961e-19
7.168919376e-21
1.763310315e-21
1.267464425e-19
2.98620107e-19
1.302800083e-20
3.132496349e-20
1.764469738e-20
3.237512755e-20
2.233685197e-19
4.404105034e-20
1.918361051e-19
6.473241657e-20
7.394289192e-20
3.634117298e-20
7.649325877e-22
8.318057431e-20
6.831502799e-20
1.254413948e-19
3.865290238e-20
1.613370705e-20
3.882851481e-20
7.174369974e-20
9.112980542e-20
4.874909222e-20
6.421419048e-20
1.362561324e-19
3.809229421e-20
1.231466077e-19
9.766078799e-20
2.373609403e-20
1.78993833e-19
6.33361825e-20
2.462142123e-19
1.846814321e-19
6.369984511e-20
1.565889397e-19
3.182453777e-19
3.320205493e-19
7.985160743e-20
2.935109338e-20
1.238382551e-19
2.101225561e-19
7.49898533e-20
2.653802288e-20
6.14936295e-21
4.696924955e-20
1.276909165e-20
1.20977304e-19
7.699136152e-20
1.249899756e-19
2.134922478e-19
6.7114023e-20
8.652929498e-20
7.458485598e-21
7.696322747e-20
1.096718954e-19
2.380174006e-19
1.21431873e-19
5.556483918e-20
1.53933786e-19
6.97360509e-21
2.451402794e-19
5.337272296e-20
1.77394811e-20
6.764106136e-20
3.204828075e-20
2.644710494e-19
2.395249478e-19
2.117463834e-19
2.177190985e-21
2.761176467e-20
9.303087259e-20
1.334222848e-20
8.035761502e-20
5.5402571e-20
1.929222169e-20
1.334072298e-20
6.037470486e-22
1.55542365e-20
1.349621302e-20
9.922190079e-21
4.902883789e-20
6.093091855e-20
2.363942027e-21
3.973122001e-20
2.499165828e-20
8.317924614e-21
2.367872534e-19
9.932812402e-22
1.565497771e-19
4.03756698e-21
3.067471802e-20
1.58160731e-20
4.050162881e-20
3.09510516e-19
9.663503613e-20
1.214044155e-20
3.767934342e-20
3.183607825e-20
7.133334409e-20
4.062214921e-20
1.691550276e-19
2.48861859e-19
2.356237875e-20
9.292685668e-20
6.534346454e-20
1.215846578e-19
2.372469073e-20
1.2331914e-19
7.589907719e-20
4.553435856e-19
1.123619543e-19
4.267479442e-20
7.507380145e-20
1.301851161e-19
6.760391086e-20
5.593940746e-20
1.410039031e-19
5.409802682e-20
1.190125868e-20
2.305050684e-19
8.945579181e-20
7.498645913e-20
4.017260728e-19
1.694798024e-19
6.805976082e-20
1.341075815e-19
1.045177556e-20
2.161410452e-21
7.000206854e-20
9.085944698e-21
6.665314625e-20
1.352896064e-19
1.606024421e-19
3.771878864e-20
1.379192744e-20
5.168632095e-20
1.505303635e-20
9.695706135e-20
1.699762886e-19
4.453082269e-20
3.472790339e-19
1.551475148e-19
6.170865978e-21
1.273885199e-20
8.784955632e-21
2.414621517e-20
9.668484018e-20
1.777959377e-19
1.170228235e-19
1.400520355e-19
1.192798808e-19
1.06415123e-19
1.556178681e-19
5.073117317e-21
2.510080333e-21
2.377343545e-20
3.951868874e-20
8.184516038e-20
2.082303217e-19
7.375685708e-20
1.59028271e-19
3.198726966e-19
3.046429886e-20
1.035989588e-19
2.498299849e-19
4.621930069e-20
9.552825172e-20
4.220297443e-20
2.427092706e-19
2.014428724e-21
5.168951238e-20
4.153768352e-21
6.752653084e-20
7.628974813e-20
1.274616427e-20
1.535920722e-19
4.980378719e-20
1.924178271e-20
6.291461762e-20
1.244487133e-19
1.370216551e-19
4.619071628e-21
8.882805509e-20
1.943643067e-19
1.810480728e-19
1.941794201e-20
1.123307806e-19
2.151011833e-19
1.993073057e-19
1.25288904e-19
1.606145798e-21
8.247965093e-20
4.190873939e-20
3.781462671e-20
1.847435386e-19
2.786206098e-20
4.921658568e-20
1.517182224e-19
5.005742762e-20
1.064916233e-19
5.216400618e-21
1.792714906e-20
1.990000309e-19
1.010292037e-19
3.902330098e-20
7.480878048e-21
4.268035537e-19
1.832100322e-19
2.349939393e-19
2.219371379e-20
3.202057801e-20
4.028952541e-19
7.589239671e-20
7.321639267e-20
2.633588869e-20
2.529615154e-19
2.893814101e-20
1.258022962e-19
1.984030647e-19
1.653862891e-20
9.266541367e-20
5.795073759e-20
3.404421789e-20
8.052911147e-20
7.100240081e-20
1.435471379e-19
2.212178294e-19
3.151031841e-20
1.654847072e-19
1.037629778e-20
1.132496835e-19
2.863664066e-19
4.2842495e-20
1.707188692e-20
1.73765395e-20
4.583340092e-20
1.949029313e-19
1.857369367e-20
8.826935984e-20
9.233417741e-21
6.353854708e-20
2.182996031e-20
1.590160869e-19
2.08775643e-20
4.196438964e-19
1.390838265e-19
1.254068316e-19
3.67754659e-21
7.23435481e-20
5.66710547e-20
6.686809133e-20
5.577759433e-20
1.262465725e-20
8.810976111e-22
1.612369981e-20
2.148413154e-20
3.316240898e-19
1.743119153e-19
5.754580271e-20
1.846723664e-20
8.898903065e-20
1.064817913e-19
7.895817256e-20
1.037749614e-19
8.864385174e-21
6.288088395e-20
1.882169381e-19
1.330103675e-19
7.837562384e-20
1.643991746e-19
1.154078985e-19
5.873744211e-21
1.444164989e-20
2.791717432e-19
5.632905104e-20
5.044344744e-20
2.323968369e-19
2.080338472e-19
1.594215943e-19
1.782754122e-19
1.444335672e-19
1.495670952e-19
3.648700989e-20
5.808503621e-21
7.306160831e-20
1.140525254e-19
1.623582682e-19
1.397033512e-20
3.224075935e-19
5.937853607e-20
1.030852385e-19
7.528589377e-20
1.378706118e-19
8.430617674e-20
3.929052861e-20
2.520679553e-20
3.63363111e-19
6.603897858e-23
1.727862465e-19
1.463859217e-20
4.795649863e-20
5.677779936e-21
3.379615047e-19
8.538713552e-21
1.227215833e-19
1.34400414e-21
6.081337274e-20
1.841243818e-19
4.113788668e-20
2.022684244e-20
9.542952693e-20
6.224620601e-20
9.752016116e-21
2.135149692e-19
4.361431196e-20
1.750662525e-21
1.278476507e-19
3.91797755e-19
2.371560574e-20
4.045761515e-20
5.024637416e-20
4.86452669e-20
4.664841713e-20
3.163872155e-20
1.193183625e-20
1.782761195e-21
4.639581528e-20
3.440926274e-20
1.415454502e-19
5.984370095e-20
3.791674032e-20
3.249627291e-20
4.281822158e-20
2.318289571e-20
6.733386243e-20
1.544984071e-20
5.34014244e-20
3.625068949e-21
8.969691749e-21
2.102330244e-19
6.734567009e-20
2.395599157e-20
8.557300584e-21
9.024758242e-20
3.01704786e-19
1.417662634e-20
1.262890355e-19
1.438539348e-19
4.639228371e-20
5.977925679e-20
4.974976262e-20
6.173976569e-20
2.499621047e-19
6.469137993e-20
1.902629861e-20
5.241494555e-20
2.278556066e-19
2.106170349e-19
1.079739183e-19
3.016629415e-20
2.525419765e-20
1.867837915e-19
8.333058651e-20
2.089810262e-19
5.681843481e-20
3.14980558e-19
1.122324968e-19
2.761237053e-20
6.205624502e-20
1.479725274e-19
4.697346935e-20
2.924197996e-20
2.050864763e-19
1.733712289e-19
1.416141835e-19
1.589663972e-19
2.225992482e-20
5.39452665e-20
6.026504044e-21
1.452501583e-19
4.443802636e-20
2.157324678e-19
8.235472309e-20
1.479339188e-19
4.683989703e-20
2.521919518e-20
1.122277073e-19
1.019798714e-19
1.730601124e-20
8.772833435e-20
2.960069628e-19
3.424952757e-20
9.71315088e-20
2.639650203e-20
1.270118292e-19
2.190967956e-19
1.35947022e-20
1.820550823e-19
6.585816454e-20
2.144712706e-20
3.03935687e-19
2.403208482e-20
6.932342499e-21
8.59815395e-20
3.864687105e-21
5.89515879e-20
8.324805663e-20
1.009897236e-19
4.513598788e-20
3.084101426e-19
8.388660077e-20
8.675821761e-20
1.352957386e-20
2.866427022e-20
3.348363452e-19
5.671224356e-20
2.509839334e-19
6.967225811e-20
4.775632366e-20
2.912208821e-20
2.128546834e-19
2.18810918e-19
9.548669758e-22
2.166753766e-19
1.171930195e-19
3.368864069e-20
3.704505676e-20
7.995587247e-20
4.458886127e-20
1.918694899e-19
9.680483716e-20
4.92641165e-19
3.44338469e-20
2.817400301e-20
8.055539669e-20
1.133843774e-19
1.017794849e-19
1.689609401e-19
1.593687712e-20
9.692518055e-20
1.97191624e-19
6.705146071e-20
1.020734425e-19
1.856522524e-21
1.443421929e-19
2.237608384e-19
6.409026302e-20
9.785346709e-21
2.438286578e-19
2.616831949e-19
9.749544664e-20
9.432962095e-20
1.1657262e-19
1.079467539e-20
3.704115469e-20
3.725334261e-20
1.216582617e-19
1.903665706e-20
2.811742063e-20
8.07992045e-21
9.81743587e-20
2.448464529e-19
6.353351208e-20
6.401460718e-20
2.015522598e-20
2.742628371e-20
3.851967539e-20
2.690729493e-20
4.756429421e-20
4.773060412e-20
1.372041975e-21
4.195987409e-20
7.29047041e-20
5.424237618e-20
4.607007407e-20
3.65083011e-20
5.178359647e-20
5.39463125e-20
1.240032843e-19
1.606210672e-19
4.3659988e-20
9.724078949e-20
8.422922762e-20
5.303207686e-20
2.497347565e-19
1.880479954e-19
1.2423848e-19
2.084710956e-19
3.544500424e-21
1.590172703e-19
1.311465259e-20
1.069134173e-19
1.127938376e-19
9.13365639e-20
1.451499841e-20
3.748665615e-20
2.59182129e-20
2.580462101e-20
6.455979142e-20
2.629559161e-19
1.618582106e-20
1.294572831e-20
1.374525034e-19
3.388960004e-22
1.700234077e-19
4.614156468e-20
2.694108699e-20
9.026659535e-20
1.420887214e-19
3.899187352e-19
3.584272108e-19
5.020297653e-20
4.430596333e-20
2.438144691e-19
1.33544875e-19
1.228184211e-19
6.908920773e-21
6.206091889e-20
1.15485828e-20
2.35451685e-20
1.51352804e-20
3.383925032e-20
2.130847322e-20
8.479014409e-21
2.051327137e-19
2.995929248e-20
2.838141453e-19
1.841129823e-20
3.507276374e-19
8.83156615e-20
2.929292736e-20
1.936174938e-20
1.112932624e-19
9.047328238e-20
6.812193362e-20
9.374279685e-21
4.39304664e-20
3.40316865e-20
8.275101936e-20
1.81932572e-20
2.811836276e-20
3.739695963e-20
2.251230024e-19
1.951799325e-20
2.548577012e-19
1.22417249e-19
2.676149183e-20
3.867222698e-19
9.581309115e-20
3.81525151e-20
2.836997848e-20
2.226754555e-20
2.292728219e-19
1.195548439e-19
2.291127071e-20
1.07590992e-19
1.39258808e-20
2.149131271e-19
1.972542965e-19
4.503211981e-20
2.249221337e-20
1.450018926e-19
3.756257209e-19
3.058502601e-19
1.352043691e-19
8.610704363e-20
3.141982764e-20
2.177212415e-20
3.253140687e-20
1.759192235e-19
9.824694857e-20
2.293959621e-19
7.729271878e-19
4.206787549e-19
7.955039131e-20
2.359983712e-19
4.833722768e-20
2.998134713e-20
2.98656917e-20
2.354331942e-19
6.589252425e-20
3.239968816e-20
1.005229982e-19
2.203021761e-19
6.273471846e-21
1.05505628e-19
1.581816093e-20
7.277460881e-20
1.770010048e-20
9.899848578e-20
3.961578594e-20
1.478816988e-19
9.179253875e-20
1.055550921e-20
1.227710369e-21
8.16842881e-20
1.121618511e-19
5.673311665e-20
1.377728172e-19
6.725002999e-23
7.144717418e-21
6.113759751e-20
1.471738337e-19
1.020375959e-20
2.759676841e-21
8.393519671e-20
2.381863507e-19
4.125532621e-21
4.536131952e-20
7.790231467e-20
9.740114354e-20
3.170485027e-20
9.169492625e-20
1.155652086e-19
4.373699787e-21
2.27523411e-19
2.499614983e-20
4.486119597e-20
6.334770224e-20
7.59092621e-20
2.782699276e-21
1.297574215e-19
9.101911672e-21
9.783002422e-20
1.123799328e-19
1.267393354e-19
1.519270463e-19
1.225461055e-20
9.029599487e-20
4.871232157e-20
2.087757393e-20
5.606064713e-20
3.510274286e-20
3.371814492e-20
1.07993623e-19
7.667144471e-21
9.453439393e-20
4.924060179e-20
3.777324578e-19
2.503981435e-20
6.383762221e-20
2.863159037e-20
5.835679782e-20
2.572626575e-21
2.53520261e-19
2.253744336e-20
5.032203074e-20
1.492137794e-19
4.869312843e-20
9.91130667e-21
7.735712106e-20
4.452705176e-20
3.005110301e-20
3.844379979e-19
9.558296881e-21
4.856080959e-20
3.440886578e-19
8.13240045e-20
3.904753905e-20
1.160351786e-19
7.2031599e-21
2.691759086e-20
3.524884273e-20
4.115668654e-20
3.583779973e-20
1.516202042e-19
1.038576549e-20
1.359389326e-20
9.796677131e-20
1.57401621e-19
5.675292169e-20
1.323793976e-20
8.648740613e-20
1.441634085e-20
1.966735321e-19
4.057381585e-19
3.899804206e-19
7.878056325e-20
1.239240843e-19
2.24058944e-19
3.663922924e-20
1.800609966e-20
1.969233217e-20
6.234372664e-20
2.867857591e-19
1.366854282e-19
1.881723484e-20
1.894555805e-19
3.305448206e-20
1.591434052e-19
5.949173534e-21
1.898022282e-19
1.272265007e-19
6.009154717e-20
5.42964976e-20
7.858832302e-20
2.077629338e-19
7.271550067e-20
2.310239577e-20
7.486327228e-20
8.814104778e-21
5.22053644e-21
9.186581984e-20
3.869225827e-20
2.223854045e-19
3.699426352e-21
1.666016588e-20
2.549730977e-20
8.809267447e-20
2.129208017e-21
6.593081618e-20
2.823049198e-20
2.998463902e-20
3.803493101e-20
5.9920399e-20
1.686740308e-19
2.501056458e-19
1.546910053e-21
8.3258618e-20
2.103967348e-19
1.308473762e-20
2.680649958e-19
2.722678894e-21
9.582515004e-20
2.21764361e-20
2.916563045e-20
4.707256203e-19
9.334231115e-20
2.218843535e-20
6.589424258e-20
1.223177947e-19
2.287176649e-20
3.832600352e-20
3.384210846e-20
2.358629767e-21
2.035576058e-19
5.609484036e-20
1.072260869e-19
1.278892427e-19
6.730973704e-20
1.742805118e-20
6.673862233e-20
4.69599066e-20
3.82094448e-21
6.79137789e-20
2.045011145e-19
1.278818441e-20
3.292764484e-20
1.168344246e-19
1.035571898e-20
3.985043646e-20
1.146717959e-20
5.322689612e-21
1.988549605e-20
1.020502702e-19
2.139632326e-20
2.432093632e-20
1.718984535e-19
2.177403612e-20
4.763879601e-21
1.014035545e-20
1.14511481e-19
1.615336789e-19
1.430567672e-19
7.168653443e-20
2.957804434e-19
1.767216865e-19
6.889255126e-20
1.283946581e-20
2.208125702e-20
9.040402262e-20
5.400950806e-20
1.304523089e-19
1.542694918e-20
9.138948074e-20
8.847595739e-20
1.136790511e-20
3.28903761e-19
3.344198664e-19
3.154708314e-19
6.023792002e-20
1.507482672e-20
3.021350791e-20
2.559534962e-20
4.403325496e-20
5.260044903e-20
9.176800786e-20
2.160576237e-19
1.425528869e-20
4.12955098e-20
2.378355731e-20
3.23422521e-20
9.485868706e-21
5.052211436e-20
1.613426687e-20
4.252696376e-20
1.783475778e-19
1.515193999e-19
1.840409322e-19
2.041842179e-19
9.512879853e-21
2.992775359e-19
1.443107412e-19
1.007596614e-19
2.690775608e-19
4.270247056e-20
1.408200229e-19
1.203544724e-19
3.894737848e-20
4.068056283e-20
1.463100303e-20
4.78332873e-19
2.694376825e-19
4.529234101e-20
6.993426981e-21
7.857615763e-20
1.022619662e-19
8.328968018e-20
1.58644831e-19
1.790703376e-19
3.76576959e-19
4.02137977e-20
1.213580036e-19
7.981569947e-21
2.993374553e-19
1.090254551e-20
3.21700224e-19
2.622104214e-19
3.579730189e-20
4.174867036e-20
2.51387311e-20
8.855846491e-20
4.438393396e-21
8.966325599e-20
6.174747131e-21
4.332918437e-20
7.716555071e-20
3.278565641e-19
1.616535194e-19
7.219269921e-20
1.428065878e-19
1.306172492e-20
1.542023775e-21
5.467360714e-21
2.624560178e-19
6.804413989e-20
9.369836668e-20
2.606661244e-21
9.001296284e-20
1.02313546e-20
1.964496589e-19
3.501412943e-21
3.782269179e-20
4.480851329e-20
2.155711122e-19
2.917248544e-19
1.883952502e-19
3.817782436e-20
1.110167445e-19
2.840823519e-19
4.860463779e-20
1.967669192e-20
2.450643178e-19
8.727762074e-20
6.970903161e-20
4.756774927e-20
3.280674392e-21
4.452878657e-20
3.169494705e-20
7.997117901e-20
1.154210035e-19
4.592072873e-20
1.559937851e-20
8.146922631e-22
1.679661351e-19
2.14163442e-20
1.35720226e-20
2.027057389e-20
9.506523178e-20
1.559852525e-21
1.070222322e-19
5.687554695e-20
1.71633413e-20
3.099310339e-19
2.04706985e-19
1.418530549e-20
3.970220869e-20
2.13351908e-20
5.227191365e-21
1.908167889e-19
2.878299231e-20
1.555633495e-20
4.83872784e-22
1.166016633e-19
2.296335953e-19
9.839963458e-21
4.634863549e-20
4.936558383e-20
1.292772359e-20
2.972812926e-19
7.356755285e-20
3.359574592e-19
4.181124991e-20
1.077523766e-19
7.994440064e-20
6.433292829e-20
9.111085845e-20
1.26226479e-19
5.428376187e-20
3.442519408e-19
5.828489349e-20
1.635744783e-20
5.858159254e-21
2.125985917e-21
5.267059344e-20
5.17644401e-20
5.559414185e-20
2.444187423e-20
8.321055484e-20
8.74088646e-20
6.515985081e-20
6.917994354e-21
3.050628642e-20
3.687502001e-20
2.262458456e-19
5.745710282e-20
2.018523941e-19
4.341953055e-19
6.606246716e-20
4.725274494e-20
3.836869482e-20
1.312293756e-19
2.184767571e-21
1.000082337e-20
3.253804734e-21
2.075447402e-19
1.983153947e-20
3.293837026e-20
8.340769915e-20
1.062113436e-19
2.147758798e-19
5.480158955e-21
2.42893437e-20
5.570847768e-20
7.913025687e-21
2.50175851e-19
1.399297881e-19
1.441103256e-20
4.781884803e-20
4.441113595e-20
5.44180185e-20
6.948364212e-20
6.733135756e-20
2.750683434e-19
2.72509417e-19
3.934077518e-21
1.329318248e-19
1.085092328e-19
9.782534912e-20
7.174002169e-20
2.690464335e-20
4.361398959e-20
8.747717178e-20
3.160425522e-19