/*--------------------------------*- C++ -*----------------------------------*\
| =========                 |                                                 |
| \\      /  F ield         | OpenFOAM: The Open Source CFD Toolbox           |
|  \\    /   O peration     | Version:  v1706                                 |
|   \\  /    A nd           | Web:      www.OpenFOAM.com                      |
|    \\/     M anipulation  |                                                 |
\*---------------------------------------------------------------------------*/
FoamFile
{
    version     2.0;
    format      ascii;
    class       vectorField;
    location    "5e-05/lagrangian/dsmc";
    object      U;
}
// * * * * * * * * * * * * * * * * * * * * * * * * * * * * * * * * * * * * * //


99997
(
(-608.9517606 1696.383169 -619.9952466)
(-1470.202921 1711.783633 -263.5796247)
(-1402.703905 1021.171557 -784.4404738)
(1158.067181 1670.84376 319.058976)
(814.8441378 -833.0106852 115.6533523)
(-131.5664375 -889.1424871 -401.3993758)
(-918.3677135 -381.6086516 -2167.253431)
(574.772808 154.0451351 -494.7704357)
(-1467.213664 366.574197 -1485.545317)
(401.4669502 874.4455135 -1054.315962)
(-1012.569522 -1599.569804 -127.4127963)
(911.8095199 1072.809017 -839.7923488)
(-278.8018798 2223.523613 -1009.924836)
(-138.2244731 2108.564458 2130.375571)
(1283.174963 2057.073509 -3304.599689)
(1146.80741 -1842.609498 1663.553077)
(-699.6737373 -854.9643238 2474.868437)
(-86.14016105 1456.151577 -1261.200302)
(-416.8181213 -670.0196437 -388.8091017)
(-275.9683897 -2511.95096 1906.047724)
(-1925.065613 634.8220042 1233.134815)
(-882.1183175 1470.32518 2431.436952)
(-402.0871214 -3321.930982 960.2673505)
(650.3930411 3403.557338 40.66218544)
(3139.720363 -1632.086158 -414.5037006)
(335.0335934 -502.1369105 535.9319415)
(12.68560083 368.3110993 -307.8017181)
(-1044.641394 75.95832341 -1732.103744)
(1965.533267 911.8612699 1324.714736)
(-398.6843765 549.6802331 1710.081545)
(956.8089281 -1454.352109 -150.0010395)
(1027.984393 823.2159186 787.4185304)
(-1782.02528 854.2983414 1128.306272)
(-415.1494393 3055.920326 -905.8326827)
(1968.166275 -951.1914789 127.945795)
(-1328.718919 1719.053258 -68.77194254)
(505.3124928 981.6374032 1964.659952)
(-1041.626576 -799.0528056 -2865.159881)
(-488.4688207 -304.3592056 -187.3695849)
(1028.351258 1072.846099 1609.672337)
(-763.1354817 473.8242774 983.6225812)
(-1.221662914 216.9046763 -1211.4121)
(-2257.376199 -169.5656008 313.6916804)
(-490.4851473 -1658.611477 776.7677497)
(265.4778865 82.77194037 -44.32394992)
(1028.273307 -1056.969063 -1563.992694)
(417.6674087 -1611.057906 747.6315856)
(1888.770967 -744.5959444 1535.206761)
(135.925885 -423.0938887 1324.126633)
(-1134.95178 1482.00366 -59.88813791)
(-45.32799091 2358.763039 337.9931369)
(2209.811437 -99.75859642 867.9324158)
(-308.633993 1069.894338 850.5449463)
(-199.8536362 -1243.699678 -252.6624128)
(1598.041539 -2250.402991 1561.524778)
(-422.4046198 -1405.27455 1386.08777)
(143.5885001 278.3329055 -747.461334)
(-387.5938353 -1157.560079 704.8270986)
(-1434.716174 599.6183337 450.4874004)
(-1771.469469 706.3305179 -2156.634599)
(1752.338871 -1517.224813 -2149.394297)
(977.785092 -1039.016742 -1132.711515)
(35.13910714 -81.24462189 2368.309379)
(401.4148218 699.2769031 -1097.521256)
(1001.037659 -799.5144173 -1025.578793)
(147.6463625 262.6196815 -1594.746254)
(-1343.620094 -1148.450123 -678.8856268)
(389.3248519 957.306921 -833.1522206)
(-86.4101473 2538.733326 668.2627274)
(809.7222234 1949.416259 402.6323374)
(-141.3461886 634.1915963 -623.6755456)
(61.93979977 -832.8901785 1222.867051)
(-2720.434776 -17.54220243 -1546.876143)
(429.8294309 -1524.579864 809.8568064)
(-551.7728834 -1653.50154 -283.6023903)
(-1541.594138 23.96301364 996.770962)
(-656.4473371 878.6081029 922.7335299)
(-2114.390652 -541.3121351 -1036.340453)
(-1171.843623 420.38176 49.28910248)
(1439.403216 2632.925918 -57.54532529)
(2266.151202 -30.38189537 528.5532567)
(614.1593624 -184.9994621 131.9196755)
(-1345.50065 1408.689749 -547.5341637)
(2164.563489 -1510.808455 -1237.591465)
(615.3752651 31.57192761 -628.793879)
(2528.10408 385.3701646 -4029.30597)
(1137.862212 -4317.017021 -1348.657918)
(-892.6631329 -776.6393155 -1138.934235)
(-1684.383708 3.261117428 626.9057401)
(-2473.603852 464.2193961 1746.588469)
(-2373.333674 -502.9154924 1900.515016)
(683.2811275 701.5333161 -242.5982268)
(1471.262481 1781.214951 585.9626713)
(2412.067322 1636.208163 -940.1557053)
(923.94988 1634.571919 1424.275951)
(320.1885939 -945.886091 -432.8639832)
(-1187.999568 337.1321279 766.1604583)
(676.852295 -1116.615056 -286.6101119)
(-468.9712879 -386.5051848 1306.84594)
(-368.1866236 -1651.09574 -1671.041348)
(-450.9144198 1484.610771 308.4404817)
(-517.5607776 -1027.490597 4218.719034)
(-2167.875744 -610.5194259 -3286.610698)
(728.3976426 -1355.784197 1546.159517)
(474.0034407 -252.5318293 -689.1111643)
(1024.136763 23.01209297 252.8372868)
(-2252.691107 992.0593246 -625.3415623)
(-27.41713525 1630.461456 1239.230048)
(875.1557738 639.5960276 -1535.126166)
(458.2562202 78.96567043 408.5015475)
(-656.1515094 -240.9178385 -49.13135476)
(-136.6610485 -375.9274072 -2934.086823)
(-332.1054326 2028.351124 795.7989858)
(209.2909839 2549.944157 968.8211624)
(-233.1426437 -78.63371351 -519.5832918)
(804.0748181 1391.193847 -2224.212423)
(-524.756331 275.2406334 565.6983807)
(777.5868181 -2775.091522 -873.823723)
(101.5000688 667.5710408 897.6616352)
(818.1153084 -735.9195612 212.1797892)
(1536.259466 -1610.752081 -1530.660862)
(-2281.966697 2100.62207 4637.404319)
(27.84463035 3731.525936 -1531.213648)
(-353.9856433 -1236.114169 -1664.823942)
(1633.589709 -1212.723698 -1113.157989)
(1237.602701 2200.394738 -805.0706484)
(-1206.08257 2451.265027 1341.027838)
(495.112922 2988.157279 453.0654774)
(1729.869908 1101.001316 1307.924708)
(127.6798154 -1597.524179 205.2715232)
(-1950.482925 -1867.717192 984.253133)
(-1509.240428 316.6781236 438.6809064)
(-908.9040069 980.9621384 937.5464671)
(571.1173058 -1137.254369 -433.2361929)
(-1358.316169 1079.985944 1585.872099)
(400.7833442 -1512.989621 1920.329409)
(1162.617374 -2379.985963 -568.7147652)
(-842.5037032 626.780674 -656.1827958)
(-1046.061051 -3675.594367 658.9875364)
(-2338.986919 -2007.808868 -51.05425478)
(-1532.25713 -322.0803981 -2043.300353)
(-1955.368446 1377.75416 1542.123188)
(272.4161571 1911.848028 -916.4829505)
(-1301.37738 1286.544089 448.3251848)
(-953.0492899 1214.098948 29.40015495)
(1554.919293 1280.581931 2174.511662)
(-1841.84508 -545.6265679 1537.262445)
(249.5668637 -1156.564397 -2017.948325)
(-700.449574 -89.52980132 -1558.169815)
(540.667073 -139.8531084 -3048.422702)
(414.296456 -626.6647514 -1227.294467)
(-761.6860857 -592.7563159 2183.866169)
(-586.3081794 271.0138453 909.549912)
(1261.087212 -2384.943089 542.7767309)
(1272.173877 625.5507572 -3190.539647)
(-546.5513627 -1642.435986 630.8498338)
(-1569.764199 638.7877913 951.7606082)
(-441.9437037 -1531.879339 3460.448485)
(1068.657005 2116.672414 -2474.856379)
(-1094.14644 -540.919992 -2248.754994)
(1390.167738 -232.512593 1974.864851)
(-448.8141366 2214.301255 -829.83459)
(-1446.843382 -520.605402 400.1571149)
(-3228.657312 886.200714 107.0790089)
(2220.52084 -1219.694283 -1336.256532)
(1825.123403 1352.288335 -1669.008322)
(-1790.220247 1524.915417 -754.9813376)
(-712.0537661 503.0547583 -1931.113457)
(-690.4713277 -1345.960965 1554.544597)
(376.653672 -681.8061779 -310.0938065)
(1307.363453 -1530.38062 1191.835915)
(-359.8827544 392.1196748 -3015.309746)
(-1570.575039 -222.5993892 -2382.434384)
(2451.235501 591.3446229 305.7252205)
(-975.3796196 759.0025456 -1312.00245)
(-1662.381728 -200.2390303 -2243.57066)
(2.281013369 -1164.357448 824.6974813)
(-115.8009688 -905.0615393 692.8961586)
(974.5490538 743.3789038 -1263.377568)
(1959.749727 653.1716504 -289.0686407)
(-606.1168327 -1254.779052 -3468.441366)
(-619.0168183 -1457.061887 1382.395635)
(3208.336951 -823.6953007 -596.9701419)
(362.4903225 685.7972437 -719.9852219)
(-623.5203504 -638.9738843 1251.519845)
(1503.755851 -72.99957266 -339.2315971)
(1286.597807 -1528.139444 -1296.659979)
(-2123.065813 -393.6262988 -1399.834395)
(-2415.605862 216.9900165 1362.469319)
(-671.7654193 400.8712053 -1387.262326)
(-1076.084295 1821.623779 -2262.184354)
(-140.1304058 -1220.928666 -1036.297399)
(-1062.790048 -689.587061 486.4247494)
(-697.2848628 -2245.927241 2936.655452)
(-251.4009822 1178.802624 -1823.910381)
(-880.9647493 -1317.029641 819.998225)
(43.98073276 -1991.189945 1637.957312)
(728.9106995 1390.501247 -201.8564436)
(-259.4317088 -1941.981488 2309.301154)
(262.9182193 -124.891542 2333.788039)
(-895.2682495 283.0997971 -2663.715562)
(213.2003611 -133.4653316 2135.049235)
(-946.3640441 -710.4051721 866.8946284)
(111.7723169 1016.976268 -368.0297228)
(2058.480381 194.8941954 -1305.22062)
(465.1806823 3193.472769 -1451.568783)
(298.1049558 777.3443925 -641.2828476)
(-1147.658355 -1128.859677 -404.0474345)
(1195.93018 779.69811 911.2552694)
(1520.544954 230.367658 -1157.399987)
(-2904.973319 1381.878091 1222.010517)
(691.2364986 -769.2973459 -855.5438503)
(-386.6568938 1472.880509 863.8277543)
(1394.545677 -256.3941229 1057.077487)
(-1945.825346 -279.9741976 930.2708232)
(-462.6101391 935.652593 324.3914883)
(-478.5702769 -1609.130295 -478.7084012)
(-935.5094998 603.0769771 726.2326738)
(471.8374894 3408.752384 1084.304416)
(774.9100583 377.9899616 2314.78887)
(-575.4457757 2120.37173 2487.597715)
(-37.35194642 -612.0088044 -220.8331319)
(-490.3305832 1708.947373 63.1194737)
(1512.662839 1101.11616 -820.5830957)
(1470.792842 1124.125388 -2564.651531)
(2059.5513 1167.770716 -699.1072449)
(-382.1253014 -602.3068115 40.204792)
(441.7399023 1175.108459 -1734.485881)
(937.4053641 2593.969264 -714.424958)
(-442.424472 2256.157968 641.874338)
(-1592.37369 -467.7908218 457.5019255)
(455.7918556 2135.484559 -1388.979477)
(-1932.992616 -1707.329165 570.1482422)
(25.53433065 -586.0824788 -1012.164534)
(-516.5425262 -531.3954596 1225.791853)
(-1221.575855 1885.966837 -2478.755347)
(532.5975484 -1263.063584 1881.006811)
(-111.7930836 19.52342014 1601.011844)
(-1555.573389 -1840.032914 87.89305605)
(797.8260715 720.0049528 1594.631803)
(34.25370314 163.6439804 881.9661228)
(-194.4696735 1402.594249 -105.7839542)
(832.7335602 -1710.082186 1782.446783)
(462.2727124 -528.6063386 -723.009646)
(214.1540411 1383.564452 -168.5893844)
(-837.9207118 1297.46509 -399.6216399)
(1776.263327 -333.1819535 -1314.439026)
(-1197.622888 1065.706617 -1079.289794)
(-1700.276927 516.2100253 865.2011367)
(-417.7771191 986.8680694 -278.3861778)
(-94.53648438 1533.856007 559.7767729)
(-1056.080766 -626.2615349 68.63277584)
(-976.612707 -476.2073743 2289.09038)
(-415.8002562 -1266.834592 2304.479586)
(-683.126449 -530.055957 621.1203291)
(-208.1746367 -915.6855992 438.5738117)
(-2576.867659 -334.5682232 -1861.180489)
(1783.557083 -1176.567813 979.3142879)
(-604.4464334 -843.1239179 3003.733641)
(508.1221255 153.3524494 -421.0236544)
(-283.401238 -359.4872771 576.9918428)
(-1248.956912 1810.584328 -270.0456391)
(-1495.868333 1076.973738 531.127789)
(-663.6100396 -12.57910851 -1100.507667)
(1286.221831 -612.9178297 -2348.10582)
(865.946604 -552.2278514 -833.6793383)
(-924.7445226 3395.658109 416.2591027)
(1663.430315 2602.024212 2255.745192)
(2202.506808 -2296.388361 -2619.793142)
(-685.3104534 -450.4336139 393.2148993)
(2041.757673 -332.4556971 -769.360992)
(-1390.242313 2295.75847 -10.11618135)
(-889.0914863 1778.185892 -487.4501865)
(1663.583591 1571.495663 710.389061)
(-726.9819259 -2643.295751 591.3168207)
(1874.673737 -488.9828454 -506.7343864)
(28.24501011 -621.2057171 1548.405631)
(651.3768793 1208.02957 511.1926138)
(-840.3055815 -1178.915721 2036.121094)
(-777.486066 58.73506437 1793.906977)
(-378.739831 1495.266239 -197.8948754)
(-1583.571004 1574.75253 2435.290012)
(-2808.411519 531.4367324 -1331.756366)
(797.3397671 -187.9890034 2067.442765)
(986.5900918 1364.379632 -1801.927034)
(-603.2474156 1795.790374 152.5031257)
(925.980074 -1156.260592 399.8144976)
(-650.1389635 -1590.154372 2204.854752)
(-1682.681618 1924.581404 -95.07601158)
(1076.862882 330.1975252 39.1963006)
(1797.539683 1803.382438 1537.683603)
(-366.0110202 1751.381227 -722.4709478)
(2095.308498 816.0908282 2170.938869)
(3113.644829 413.1575741 -2430.017436)
(-1279.283878 476.3585509 -1046.048659)
(-570.2560503 877.5595537 2522.378635)
(-45.14622777 2721.351645 654.0544637)
(-816.7424373 115.3355391 -1062.144279)
(1161.45116 -1223.936892 1220.948443)
(1542.84876 1823.180571 2830.986531)
(-591.7098511 1150.688769 -4755.246162)
(236.5937124 -1061.798688 -2839.214948)
(-727.0929465 429.6652966 889.5542184)
(-707.5155939 224.4603579 2470.942619)
(1380.590602 2345.676421 -215.8972389)
(-831.6666595 -1846.783596 2083.895704)
(-2027.943585 -1780.943378 68.67316677)
(-394.8339034 10.4874582 -1287.434135)
(-501.2628517 945.6852026 389.3646923)
(-80.81611148 1827.331539 215.246292)
(1250.482472 775.9815682 -2857.448879)
(-934.9918899 383.3547854 -1551.630958)
(-1501.293638 419.5901495 -29.37832716)
(866.4903614 3384.139949 300.6009584)
(-1043.950799 -1676.338766 -221.1213009)
(-249.6509552 -3260.03685 -423.9934628)
(-71.65268104 -678.8540007 -1206.94505)
(2320.302839 1960.771919 2471.698978)
(-0.4907003041 1281.38627 -1253.04081)
(758.0247001 -716.8775558 -1042.650434)
(1684.128012 1820.142538 659.8237067)
(-363.197838 1695.763233 -139.8016971)
(148.4335086 51.36899703 142.0048199)
(1037.278472 2961.13112 -483.6299371)
(-146.7452132 -1168.452765 -902.1480092)
(-918.0393017 -685.6685537 -1101.876042)
(-228.66191 406.9238697 -518.1650285)
(-259.3290284 148.8608817 943.5467143)
(-2184.359903 2445.353782 201.6878688)
(55.99876437 394.559546 -30.98105642)
(485.9394369 -1191.822436 1591.483685)
(1919.76642 -1954.546718 -1492.655607)
(-1028.659672 -297.2227729 -670.3420954)
(-826.2460562 1559.284622 873.7780733)
(251.098992 -441.8645165 767.4905563)
(387.31053 -329.8641506 -268.6839353)
(-1626.590327 1828.713398 542.4115341)
(-52.39272565 1106.587926 621.8930673)
(-809.4168041 454.3983452 -480.0196489)
(1396.109164 2133.272689 -1523.835154)
(618.8692802 -1699.415753 -689.5999811)
(825.6257027 313.079439 -1803.183536)
(-761.0790514 -967.5482982 3130.711862)
(-407.1548259 -1908.990384 227.5586665)
(746.8414774 -1289.508799 -781.7780108)
(635.1477168 1407.446684 -2376.547389)
(336.1286901 464.1579727 -1896.531685)
(-484.3227988 -48.96909636 -1896.792008)
(1913.795493 926.6872622 598.88398)
(261.0299119 116.3076851 1210.574425)
(438.8421241 95.36901797 -931.6607752)
(-905.8874262 18.60853063 557.6540771)
(2763.760559 -229.5506491 1582.617249)
(-278.7857788 -1143.74915 -1930.232787)
(2873.164549 -1214.151251 -1945.057095)
(-1119.685781 1026.677523 1386.249142)
(642.7856067 935.5141481 428.0640046)
(-397.0843788 2394.629467 -274.7946651)
(-1594.772116 -1355.61826 -326.1326099)
(151.1090822 311.4684356 1540.297309)
(1975.196679 44.25057043 2217.277971)
(-1702.181415 303.8191326 -1586.88169)
(-59.98379349 104.274425 -319.3806387)
(2011.415941 -944.5083192 -1790.163945)
(954.0812274 73.34977718 -500.4657002)
(2918.973451 -876.9182023 158.4799641)
(955.1886105 963.7406236 -1486.845505)
(-607.8340481 910.6118832 -1362.406459)
(1215.429443 290.9465016 -1049.891725)
(-3313.028075 -1621.089524 1350.963182)
(-261.8390272 -1615.319266 -126.5248147)
(416.7182334 2545.876096 1932.939872)
(710.7069162 -345.0085239 1368.828573)
(1777.008007 1792.740483 1096.170986)
(-2721.079408 -52.91004053 1500.139159)
(-714.149299 -2108.561451 -660.7571117)
(662.937491 769.8689238 -2664.634195)
(-1278.495157 915.789577 943.2881733)
(1486.681142 127.970567 81.98645109)
(120.7651009 2145.738232 -2290.468609)
(842.1292077 342.2982976 -2893.939193)
(506.9806101 1173.854915 -1869.212739)
(897.8182736 1898.580029 -188.7896071)
(-450.2740552 2220.118936 -207.9956106)
(-1889.700827 446.9476945 756.673095)
(1490.938969 2122.220727 -1445.807933)
(975.663382 -1528.840191 -1085.15567)
(1106.349086 -145.1792682 596.9307676)
(-395.5604337 -1151.611903 -257.5348946)
(303.1028688 -2727.279755 -5.590970379)
(1101.059234 -549.5257632 -418.0865006)
(-306.8042698 950.9570104 168.3452768)
(208.9875075 -1346.499821 -152.7776933)
(-442.4150209 -718.7022727 -768.8437038)
(1026.09597 20.8194293 299.6472806)
(-1410.48001 -1135.806106 57.12735826)
(-716.0461687 -1209.839909 -910.4741384)
(-3743.236869 1465.972066 -730.0928005)
(3625.12955 379.5058217 -1837.647062)
(1248.327588 -57.33073291 -647.4847795)
(633.0657844 986.4944474 534.4527293)
(-1922.564353 -653.6075856 -1018.784537)
(-102.8786557 865.6227489 -1688.78411)
(1467.829592 284.1966545 -856.6148353)
(-1861.065636 876.6393709 298.5751532)
(1962.857687 -536.6436261 -1212.453534)
(-81.41305321 724.4245545 1866.655668)
(3033.851154 -1097.134885 -694.6349242)
(-2147.795899 -2990.945417 417.5696664)
(-1248.581293 35.0107607 1466.798342)
(-342.6873352 -2378.516754 -315.919895)
(1235.546242 -882.0038383 991.5587729)
(-1854.781292 -1663.410384 -1384.794556)
(105.685932 -695.1916594 -2058.725241)
(254.4917582 1080.526394 756.4144625)
(-2178.16863 267.0518941 2546.713572)
(255.8829229 -1474.475433 464.7217513)
(638.3227987 461.7534925 523.6174621)
(515.8504859 1135.438664 536.3287678)
(-524.3634668 -665.1401906 -484.305091)
(-497.9709602 483.5446018 -1235.453631)
(-116.3516872 931.9681626 2236.824008)
(1407.246313 -1944.302818 -1646.980978)
(1626.861736 -1299.850281 -201.1068748)
(81.90965606 1162.066385 -4018.021266)
(-553.6873269 170.5845218 -1855.233431)
(3356.22929 162.2345951 356.5018764)
(-1035.269234 12.90025633 29.76698383)
(-681.5594922 692.2966549 -407.8765197)
(1565.557498 723.6416263 58.92738162)
(-1639.666969 -1591.17551 -875.2208521)
(1274.078166 -1212.398244 -1258.731424)
(935.5126648 1580.433915 2930.952066)
(-877.3045453 -2090.188189 1259.666615)
(-1860.024993 1196.611736 -2590.366222)
(-915.0109095 82.85410111 1356.10222)
(470.0406483 559.9358881 653.8111455)
(-756.5955411 -527.671536 -138.4725917)
(132.6441767 2646.712047 2312.302353)
(759.6493189 -534.7813005 -858.5218609)
(-280.6819724 -2789.696692 1382.822838)
(-1310.260052 266.7373512 21.83216913)
(490.6664689 -88.80181408 1205.206479)
(-1016.124845 -2138.804164 753.9658671)
(-584.1042428 1200.055796 -1248.225486)
(132.4960348 2293.718661 -1548.218934)
(-80.74855738 -1251.987061 -2739.197689)
(-233.2911059 405.0247039 2243.895532)
(-93.1957547 1882.181966 -1828.980802)
(83.71145219 -1844.681865 178.6994675)
(1560.957537 468.3953496 -2716.439809)
(621.839765 -1427.017848 1227.811199)
(362.3795598 -2295.262712 -586.227857)
(-980.5426808 -345.593459 625.4838935)
(-127.5560431 388.5279864 1420.358161)
(625.4802409 40.94328842 2731.86623)
(-1271.30416 -951.5003218 -54.29814385)
(910.3133899 1014.581715 -2142.461043)
(637.4758748 -1530.269046 -289.1907555)
(581.0668017 -869.872251 -113.7834022)
(506.9800403 -1543.084486 647.2891719)
(-1371.670622 664.5345784 2168.678768)
(-840.0107267 -2005.514605 621.6323615)
(-1117.066303 -124.2814818 -340.7215237)
(-167.7849101 96.5879617 -1121.952531)
(-777.4114208 1451.920021 1175.759928)
(1609.711283 -472.142799 -944.2554574)
(125.1157737 614.3887616 -1994.752622)
(1144.736284 -719.1363843 -741.544281)
(-300.0871101 -2875.816112 430.5038404)
(968.1965246 -1124.696983 -286.1412851)
(1000.167263 -289.4005957 1992.985453)
(-787.9504452 371.7699099 -2308.533703)
(244.3909044 868.5751777 -1288.675735)
(909.3256623 -447.3308334 -1224.727447)
(-1489.977387 261.0144779 121.5682519)
(-570.56335 1361.603865 2235.808196)
(-1310.698537 -898.7723576 2122.860686)
(116.1733715 237.6461714 -1323.602108)
(-79.37649212 -22.87608714 -1160.947897)
(-183.0922715 -1044.339486 -1011.987722)
(-291.6830972 7.124409138 -2187.090291)
(-1215.838354 1276.755558 -352.7966881)
(-364.336601 901.5677436 -2082.637246)
(-474.69495 897.6257884 -314.658209)
(1294.66456 680.1098562 219.2843249)
(-2281.646235 -1178.907112 -490.0748326)
(1528.859484 320.351763 -85.82359641)
(2956.443885 -759.6669696 -1011.275955)
(2454.743828 -842.8043019 -690.3244825)
(-387.6773187 603.8602111 844.6783419)
(-767.272418 385.3673575 -1770.596549)
(-770.225037 -2074.789189 -846.952266)
(618.941946 319.645842 -1107.911836)
(-1865.650718 2425.888303 -134.8480221)
(-353.0494716 -145.466279 -1059.676637)
(-2543.527585 549.0223945 -141.783843)
(736.0784113 928.5788292 432.9259341)
(301.3815107 1942.441708 -1073.05412)
(-2868.308987 647.0756786 404.7040931)
(-1448.83925 856.2634558 -1650.025748)
(-1179.838832 841.0657728 -26.08150874)
(322.0073507 711.2804706 -443.362819)
(-825.380625 -788.70277 369.0378724)
(-356.8126062 1220.606018 -1679.468151)
(2006.735699 -1033.470486 820.2095088)
(-583.0323593 -1820.976539 2055.992796)
(-1145.852668 -1047.773938 -3204.851366)
(386.6146364 498.1834579 1247.598028)
(832.5520099 583.1302439 2609.948175)
(-482.4791906 -571.2243367 272.3717696)
(143.8500886 1431.348035 -235.543697)
(566.5775033 -821.1139602 -2412.079386)
(569.8270595 458.5658036 1790.377195)
(-1024.33714 1294.621674 554.2671168)
(-1920.277762 261.1992391 2052.833768)
(-1049.372602 -884.3240457 -231.6312707)
(-401.1956981 -274.9879137 321.0180741)
(-1380.971324 -3675.281973 1125.943917)
(-1546.13177 817.8789357 -1115.227333)
(-788.1190901 261.6453746 765.5343897)
(719.2385831 -2336.841273 -436.1731187)
(989.6180472 1117.729851 3014.753492)
(141.0200098 -2178.985254 -1648.270752)
(404.3878299 -826.4140313 1914.212121)
(-362.9923092 -1158.014298 1807.670079)
(711.9544727 1416.83705 -551.5222682)
(1863.221501 -13.94627582 -561.5120944)
(-494.1863916 1205.496063 -1116.530585)
(-1593.817226 -285.1988848 -1700.975806)
(-2228.537347 319.3536829 1099.080603)
(-496.2278026 -2170.85567 779.2245477)
(-1385.82604 1229.559218 -230.0417699)
(-1251.14938 598.0349057 -64.72800944)
(772.1666874 548.1641981 658.0466826)
(1344.5515 -2792.465653 546.3922877)
(3392.605892 -60.56107845 -458.4799191)
(-1115.233754 897.5291763 2141.258643)
(141.203297 1807.883448 2349.031163)
(992.2143398 -2478.355024 1064.902668)
(-777.286044 1484.687607 -2171.732573)
(2781.029236 71.02223066 1571.665369)
(-456.8657331 -401.348136 -856.7733638)
(586.1445491 1.886513356 1176.509841)
(739.5608086 -1427.451289 -179.7875141)
(123.1468463 1475.191457 1866.131487)
(-610.9082646 -691.1417687 -1714.692622)
(-2387.540487 -706.2269893 -606.708021)
(257.50408 2912.730591 -3267.07998)
(-1452.329266 -1819.09509 419.0417984)
(-1576.556168 421.1880183 -125.7020021)
(-902.4449743 1606.937805 595.5701364)
(-40.77758121 -1545.07064 483.4896977)
(1128.57149 933.3794324 -2839.668024)
(825.3905873 -723.21445 2496.540937)
(-2366.426967 -2950.98296 1546.518392)
(108.3413964 350.5410011 -714.6144159)
(1717.002391 -753.1202266 -22.89832336)
(-1213.560317 1177.129338 464.0586392)
(233.5471243 1151.541814 559.5960345)
(175.6811057 -1983.439387 -209.3033671)
(-1619.589058 1090.548435 678.9891457)
(-3412.704899 -26.76157907 2040.488759)
(-1103.626322 -920.0925419 1028.745989)
(-2510.18694 1576.333429 200.1492661)
(-300.5390346 33.64863495 -744.250941)
(-1347.830773 788.3026613 -755.8667795)
(51.1162835 2040.974677 -1177.679908)
(-2148.631333 -1252.030636 -39.24996767)
(-1323.764482 227.9995475 -1776.175304)
(-1534.626152 -1090.441254 1757.598379)
(-1274.586288 1741.833889 947.5549364)
(257.5653145 433.3156045 152.4967483)
(-1324.369668 -68.33825211 -2429.468854)
(-2309.954316 948.4124282 598.9718804)
(2689.457201 447.2636028 -1784.500675)
(3418.491996 1090.671117 347.9162803)
(1645.23676 -2624.188592 136.7525423)
(-1149.167941 2337.43729 1482.866409)
(-299.449223 -1916.32581 896.1688598)
(408.8685905 -3037.025727 2842.791108)
(1260.507739 -828.7825103 -2631.200717)
(1493.623197 1309.458041 93.64102721)
(275.3637626 -991.3406158 -1275.501651)
(-159.4079794 2760.226584 -338.47934)
(-345.4571129 515.5320492 -243.7468552)
(363.7259778 -199.7926464 1597.301666)
(-1317.063262 -68.11289344 -1022.049061)
(1085.118026 378.8006004 -625.5431176)
(-767.1511825 -70.53192323 454.4503365)
(305.5056379 809.4084698 1415.489138)
(1588.277542 -350.3166421 -1925.715762)
(2071.355201 276.0275695 -714.3216163)
(-150.1229776 -1943.042104 344.4350035)
(1375.990342 830.6253526 453.9082265)
(1341.584662 -888.9850868 714.0680012)
(-1524.435625 786.1177683 1530.221355)
(-2123.581197 -1023.947323 1064.938677)
(362.4238795 -2657.045629 2732.21628)
(348.1966166 -645.1309387 1585.114372)
(-2183.809135 1764.081075 2181.239712)
(-209.1628571 126.4202214 875.988457)
(116.8545634 -600.5851092 1008.988069)
(2538.528077 -2166.595028 -2431.986453)
(1309.992836 111.556147 1957.727966)
(1416.086393 -560.0588356 1024.86618)
(-2078.243614 -1028.723603 1432.227556)
(1235.814371 -587.1180894 -21.57984868)
(2145.378287 -943.4718982 651.0067491)
(2703.688449 -705.7460605 -959.8653555)
(-2185.522008 -788.6027442 1795.77819)
(1970.476429 -324.4172233 718.1512779)
(-822.70256 1009.355628 -1872.474991)
(-2058.514374 -497.5377011 1343.118925)
(-917.9640666 -1445.820885 -1355.036719)
(1129.797331 45.23545939 -1171.593912)
(415.1369022 -802.6790458 -1761.226063)
(-1229.894378 -1474.371087 491.1331121)
(2170.131769 1873.543782 2372.70173)
(1178.613222 -294.0103832 -141.6148762)
(-850.9306632 1468.236051 326.1772408)
(189.8344298 -1751.33347 21.79451873)
(-57.33168774 290.3289553 -2267.641236)
(194.607828 -348.485124 3849.404633)
(-1074.481345 674.2158474 324.284282)
(467.7994571 -1362.354651 59.21481642)
(83.47727993 370.485959 -334.0269555)
(1880.268252 -796.9499867 -1969.530894)
(-999.2203958 1662.894442 21.25978134)
(1134.917909 -1843.06111 -614.1699223)
(-2012.703582 -3736.770215 582.9151591)
(-1653.778581 355.5253143 -606.8682391)
(350.9220995 -2777.155514 -1322.893362)
(-3051.817141 -961.6363851 1148.973327)
(-2390.424399 1472.610328 704.6073927)
(-185.7685099 1272.112793 304.5167543)
(-1044.409014 631.1086796 1209.45923)
(1375.42874 2500.149022 948.3661101)
(-273.0569776 -3346.507264 184.2858751)
(-110.696724 -1344.235158 -326.1032445)
(149.2399298 579.5798151 536.7325422)
(-1365.914032 1174.612638 -1920.47881)
(1321.610698 123.7680372 1344.083212)
(-1244.977688 -450.7339681 -1780.802991)
(1306.165029 -2241.679119 -505.9129845)
(762.6386927 281.6035292 1524.259486)
(1166.373563 1130.968391 1887.536763)
(1183.101218 1972.630265 -700.1692871)
(-567.1770261 -1031.918436 -1332.473264)
(-156.1730947 2805.089441 612.2044045)
(23.66256877 308.1833763 626.0327573)
(480.6141498 -3348.498998 369.0034205)
(-987.4266461 -1090.897561 679.1256366)
(-1390.996137 1648.950385 -2101.075314)
(571.4021828 -1483.108273 -67.39658734)
(793.4374013 -1266.806609 991.0367574)
(938.9655011 236.4904328 203.5527574)
(831.6699626 -828.8560561 -1052.019207)
(1199.080832 -1748.600446 888.5262659)
(812.9068234 -1933.042422 -1260.643116)
(1081.901144 -547.3912496 -1938.717875)
(878.8172236 -3461.336192 22.87567197)
(845.0905958 777.0083433 1179.250166)
(2171.420203 -909.1317174 1372.878035)
(1974.99941 -616.248772 -1431.121737)
(-291.4031557 201.8157853 -740.3893833)
(1189.135865 -539.5987963 290.3814599)
(238.084568 -1373.868035 -942.596048)
(-2063.209517 -1684.895533 -210.5737522)
(-1966.894547 -783.1980625 962.431211)
(-1058.05352 -2349.435468 1081.674162)
(135.7072413 -3022.75378 -1480.556785)
(-1194.6314 1370.343213 599.9218397)
(847.8795817 1126.540375 234.4513762)
(2328.187427 -2690.750136 1260.991365)
(-12.54133692 472.3951706 330.0476704)
(-128.79045 -1858.810839 -1820.298116)
(729.9167956 -407.0772634 -1399.556787)
(540.5491215 432.61135 -465.8124501)
(-295.8562765 -321.1673429 222.4016072)
(-1138.617756 -724.738791 1129.222014)
(-2570.555668 -2304.91115 1295.025691)
(1739.096726 -488.8465698 -703.5195765)
(2638.417601 605.2907909 -1640.447215)
(-199.241131 284.426639 68.55098191)
(-431.5456812 1288.963658 -1572.45285)
(-1467.701193 346.4597239 -172.7121289)
(-445.2206026 -1441.215266 -1157.503858)
(531.8985849 114.4168695 -675.6839309)
(325.7990163 -788.6101458 -652.1770201)
(-1384.288101 1008.216396 -356.7037091)
(1377.482654 610.3681832 343.6880979)
(-612.4299462 -603.4248265 2727.23895)
(-1319.988563 -2500.434898 -1448.120216)
(1764.5561 -227.9862257 874.4217061)
(-27.97122402 1661.731934 1379.324839)
(-900.2066201 2623.183118 64.34107811)
(-266.6255772 1383.916638 491.4482358)
(328.6650531 -143.1839797 -258.2279358)
(1201.241793 1148.135802 1347.276897)
(-148.7825817 -2751.848942 459.3768911)
(810.625645 1794.741135 -1333.941326)
(-1094.392618 1080.789974 -369.9400157)
(92.55103969 245.273918 -2062.170625)
(-1607.784019 -101.7048658 -788.4045555)
(2816.141254 -1483.763473 1096.699587)
(-156.8000999 -216.1358922 2385.088756)
(758.0270715 -1384.782596 2055.915803)
(798.8937127 -790.2958823 1401.548018)
(145.1194058 1190.043803 115.3350364)
(-1282.858387 -43.89434961 -1336.148413)
(805.8735505 -1336.63775 1048.595113)
(-2086.87593 2596.307043 -578.8908912)
(832.554895 -429.3129895 752.6204321)
(-1002.025045 1073.193311 -425.5942591)
(-69.88985831 -1314.399481 -1920.106011)
(-270.8608123 472.5202216 239.5083034)
(3063.082103 -914.342077 -614.4817759)
(-1244.930896 1791.666541 352.6364493)
(107.4597405 412.2026669 -1187.075805)
(437.1288174 1132.245533 189.1867313)
(2310.776818 -660.0521646 1084.772347)
(-931.3074711 -279.0445098 2343.050649)
(-1632.474402 1419.76458 726.8971066)
(-2467.503535 188.1184084 -2588.343817)
(-1803.413586 716.0349698 -1596.720599)
(-1071.409422 1328.469398 -364.5565217)
(-509.1861856 462.5758103 -22.15030885)
(2167.504153 -989.2853975 -304.3664406)
(-1213.880116 -2864.895813 2826.094013)
(-1226.735651 -2506.972295 -990.7389307)
(1222.708335 -581.7325139 -1126.025159)
(98.56916675 46.06335868 2203.994553)
(1156.654356 -703.911107 -1280.111309)
(807.127963 746.7516396 1770.594329)
(-504.7370835 1764.388734 -1434.473631)
(383.1712664 3063.365064 -1847.167575)
(2163.718073 1118.043172 2434.736643)
(373.7218385 -2676.425628 -91.13666516)
(1317.722933 -247.5965946 -337.6440015)
(-1212.997924 1358.2516 848.1320674)
(2433.469127 98.16304117 790.3246622)
(-1050.787551 1246.491346 420.4516836)
(-99.27628428 -1062.72259 868.7397482)
(2412.481116 -2441.698915 -1565.194494)
(-870.5647613 273.6221077 -636.328251)