# Probe 0 (5e-06 5e-06 5e-06)
#           Probe                 0
#            Time
            5e-09       19897.04974
            1e-08       19876.38696
          1.5e-08       19772.80873
            2e-08       19733.21401
          2.5e-08       19694.02835
            3e-08       19604.08485
          3.5e-08       19520.26512
            4e-08       19429.18123
          4.5e-08       19346.61039
            5e-08       19267.43971
          5.5e-08       19186.81762
            6e-08       19123.09553
          6.5e-08       19040.70135
            7e-08       18966.41027
          7.5e-08       18922.39104
            8e-08        18871.9494
          8.5e-08       18776.60624
            9e-08       18716.50605
          9.5e-08       18601.64754
            1e-07       18557.24428
         1.05e-07       18464.71724
          1.1e-07       18394.83195
         1.15e-07        18329.9551
          1.2e-07       18249.34022
         1.25e-07       18179.08921
          1.3e-07       18118.03227
         1.35e-07       18036.18931
          1.4e-07       17986.53588
         1.45e-07       17950.33827
          1.5e-07        17895.8931
         1.55e-07       17841.64992
          1.6e-07       17763.42007
         1.65e-07       17695.63462
          1.7e-07       17658.14292
         1.75e-07       17635.75885
          1.8e-07       17574.41948
         1.85e-07       17499.17436
          1.9e-07       17455.07224
         1.95e-07       17399.35005
            2e-07       17348.75962
         2.05e-07       17294.42305
          2.1e-07       17274.56623
         2.15e-07       17223.91775
          2.2e-07        17212.7878
         2.25e-07       17185.89544
          2.3e-07       17152.97323
         2.35e-07       17115.52531
          2.4e-07        17106.7991
         2.45e-07       17082.88516
          2.5e-07        17073.3175
         2.55e-07       16988.85395
          2.6e-07       16928.40185
         2.65e-07       16886.34071
          2.7e-07       16895.65243
         2.75e-07       16843.94911
          2.8e-07       16832.14561
         2.85e-07       16761.88474
          2.9e-07       16727.49133
         2.95e-07       16696.68451
            3e-07        16679.7798
         3.05e-07       16676.89806
          3.1e-07       16643.45083
         3.15e-07       16635.63038
          3.2e-07       16592.70108
         3.25e-07       16588.41539
          3.3e-07       16544.60671
         3.35e-07       16518.85169
          3.4e-07       16464.46639
         3.45e-07       16435.20663
          3.5e-07       16390.42935
         3.55e-07       16357.15146
          3.6e-07       16335.90633
         3.65e-07        16305.1368
          3.7e-07        16301.4196
         3.75e-07       16289.38406
          3.8e-07       16261.27708
         3.85e-07       16250.96972
          3.9e-07       16238.79674
         3.95e-07       16195.28904
            4e-07       16173.45984
         4.05e-07       16168.15448
          4.1e-07       16142.47926
         4.15e-07        16105.9069
          4.2e-07       16105.95294
         4.25e-07       16055.69566
          4.3e-07       16060.21886
         4.35e-07       16056.76064
          4.4e-07        16031.0688
         4.45e-07       15994.57803
          4.5e-07       15969.31144
         4.55e-07       15943.36435
          4.6e-07       15910.32513
         4.65e-07       15885.33927
          4.7e-07       15863.38307
         4.75e-07        15833.2593
          4.8e-07       15832.35303
         4.85e-07       15834.50927
          4.9e-07       15823.42467
         4.95e-07       15839.46667
            5e-07       15851.40734
         5.05e-07       15848.39389
          5.1e-07       15866.76905
         5.15e-07        15849.7618
          5.2e-07       15840.05196
         5.25e-07       15834.15854
          5.3e-07       15830.03108
         5.35e-07       15819.14131
          5.4e-07       15815.96179
         5.45e-07        15792.4905
          5.5e-07       15765.95713
         5.55e-07       15753.72972
          5.6e-07       15752.69829
         5.65e-07       15750.49079
          5.7e-07       15709.20946
         5.75e-07       15712.03548
          5.8e-07       15704.12635
         5.85e-07       15693.22901
          5.9e-07       15694.46433
         5.95e-07       15682.55285
            6e-07       15656.52886
         6.05e-07       15652.84831
          6.1e-07       15617.62983
         6.15e-07       15622.12435
          6.2e-07        15631.5425
         6.25e-07       15595.67179
          6.3e-07       15591.09143
         6.35e-07       15600.85616
          6.4e-07       15576.19937
         6.45e-07       15501.92159
          6.5e-07       15499.72574
         6.55e-07        15494.5397
          6.6e-07       15495.23892
         6.65e-07       15490.67484
          6.7e-07        15485.3288
         6.75e-07       15471.69284
          6.8e-07       15474.32529
         6.85e-07       15477.54581
          6.9e-07       15470.34623
         6.95e-07       15456.69899
            7e-07       15426.52614
         7.05e-07       15398.82325
          7.1e-07       15401.84712
         7.15e-07       15392.20623
          7.2e-07       15389.45727
         7.25e-07       15399.79832
          7.3e-07       15392.87539
         7.35e-07        15409.6899
          7.4e-07        15417.2649
         7.45e-07       15432.91988
          7.5e-07       15405.46894
         7.55e-07       15361.35491
          7.6e-07        15348.3434
         7.65e-07       15314.56101
          7.7e-07       15344.00722
         7.75e-07       15348.05435
          7.8e-07       15341.49559
         7.85e-07       15324.40261
          7.9e-07       15298.93576
         7.95e-07       15292.96775
            8e-07       15309.05844
         8.05e-07       15297.08297
          8.1e-07       15263.40499
         8.15e-07       15264.17266
          8.2e-07       15250.13935
         8.25e-07        15240.3546
          8.3e-07       15256.74776
         8.35e-07       15256.01822
          8.4e-07       15274.49885
         8.45e-07       15282.64977
          8.5e-07       15269.86475
         8.55e-07       15254.86464
          8.6e-07       15265.77948
         8.65e-07       15273.39456
          8.7e-07       15282.97352
         8.75e-07       15256.68335
          8.8e-07       15225.27049
         8.85e-07       15219.61733
          8.9e-07       15213.05924
         8.95e-07       15192.21958
            9e-07        15192.4515
         9.05e-07       15201.20976
          9.1e-07       15164.01131
         9.15e-07        15162.6479
          9.2e-07       15156.28975
         9.25e-07       15161.85985
          9.3e-07       15151.82041
         9.35e-07       15145.02081
          9.4e-07       15132.73164
         9.45e-07        15126.3315
          9.5e-07       15110.74282
         9.55e-07       15107.34451
          9.6e-07       15110.03316
         9.65e-07       15120.99994
          9.7e-07       15126.90648
         9.75e-07       15100.04194
          9.8e-07       15114.15045
         9.85e-07       15077.67531
          9.9e-07       15085.29992
         9.95e-07        15092.1307
            1e-06       15123.01061
        1.005e-06       15103.35607
         1.01e-06       15100.47658
        1.015e-06       15099.41074
         1.02e-06       15112.12502
        1.025e-06       15096.99248
         1.03e-06       15085.34192
        1.035e-06       15085.38628
         1.04e-06       15086.79839
        1.045e-06       15082.15447
         1.05e-06       15098.08429
        1.055e-06       15089.32889
         1.06e-06       15066.66258
        1.065e-06       15059.73189
         1.07e-06       15033.35284
        1.075e-06       15091.54035
         1.08e-06       15118.46786
        1.085e-06       15105.04532
         1.09e-06       15098.10677
        1.095e-06       15106.87761
          1.1e-06       15096.30169
        1.105e-06       15062.68562
         1.11e-06       15065.96834
        1.115e-06       15068.37219
         1.12e-06       15063.07595
        1.125e-06       15022.28205
         1.13e-06       15022.92991
        1.135e-06       15036.36608
         1.14e-06       15046.82439
        1.145e-06       15007.89806
         1.15e-06       15003.70342
        1.155e-06       14998.38391
         1.16e-06       14979.60727
        1.165e-06       14960.69339
         1.17e-06       14993.19077
        1.175e-06       15008.98599
         1.18e-06       15002.23121
        1.185e-06       14971.92446
         1.19e-06       14962.04963
        1.195e-06       14988.71507
          1.2e-06       14989.31885
        1.205e-06       14984.65301
         1.21e-06       15002.89775
        1.215e-06       15016.82161
         1.22e-06       15010.62614
        1.225e-06       15013.79564
         1.23e-06       15007.93669
        1.235e-06       15025.96582
         1.24e-06       15025.77538
        1.245e-06        15024.7578
         1.25e-06       15058.34002
        1.255e-06        15053.7165
         1.26e-06       15059.58138
        1.265e-06       15064.98428
         1.27e-06       15040.11291
        1.275e-06       15014.63664
         1.28e-06       15025.32974
        1.285e-06       15019.07954
         1.29e-06       14996.89064
        1.295e-06       15011.99891
          1.3e-06       14999.32477
        1.305e-06        15020.6339
         1.31e-06       15018.70091
        1.315e-06       15044.00569
         1.32e-06       15008.00432
        1.325e-06       14982.09834
         1.33e-06       14996.14689
        1.335e-06        15010.8671
         1.34e-06       15030.20193
        1.345e-06       15028.74914
         1.35e-06       15022.77189
        1.355e-06       14996.71243
         1.36e-06       14979.94133
        1.365e-06       14946.25507
         1.37e-06       14949.32726
        1.375e-06       14946.59946
         1.38e-06       14973.93933
        1.385e-06       14942.13133
         1.39e-06       14942.67168
        1.395e-06       14931.78937
          1.4e-06       14963.82685
        1.405e-06       14938.62844
         1.41e-06       14915.26158
        1.415e-06        14928.7474
         1.42e-06       14912.14258
        1.425e-06       14891.59358
         1.43e-06       14907.89217
        1.435e-06       14885.20275
         1.44e-06       14896.64024
        1.445e-06        14873.2381
         1.45e-06       14894.24993
        1.455e-06         14849.933
         1.46e-06       14824.03299
        1.465e-06       14836.18479
         1.47e-06       14843.19441
        1.475e-06       14837.80053
         1.48e-06        14846.1331
        1.485e-06       14852.12429
         1.49e-06       14869.70964
        1.495e-06       14857.78815
          1.5e-06       14830.07206
        1.505e-06        14842.0967
         1.51e-06       14844.50054
        1.515e-06       14869.26624
         1.52e-06       14865.52557
        1.525e-06       14884.84444
         1.53e-06       14895.56071
        1.535e-06       14903.27097
         1.54e-06       14923.34647
        1.545e-06       14899.86545
         1.55e-06       14914.29238
        1.555e-06       14894.83178
         1.56e-06       14896.28484
        1.565e-06       14903.01939
         1.57e-06       14925.31395
        1.575e-06       14929.30856
         1.58e-06       14922.97479
        1.585e-06       14923.69136
         1.59e-06       14924.20108
        1.595e-06       14913.19837
          1.6e-06       14900.84679
        1.605e-06       14877.81998
         1.61e-06       14869.57497
        1.615e-06       14857.67238
         1.62e-06       14873.82545
        1.625e-06       14881.99537
         1.63e-06       14914.08061
        1.635e-06       14912.46299
         1.64e-06       14934.08848
        1.645e-06       14929.88476
         1.65e-06       14929.08007
        1.655e-06        14924.8517
         1.66e-06       14905.25031
        1.665e-06       14910.83995
         1.67e-06       14898.61812
        1.675e-06       14907.10338
         1.68e-06       14905.22788
        1.685e-06       14904.97574
         1.69e-06       14897.54221
        1.695e-06        14892.4803
          1.7e-06       14880.01143
        1.705e-06       14885.80627
         1.71e-06        14893.4666
        1.715e-06       14878.57935
         1.72e-06       14879.47663
        1.725e-06       14900.79985
         1.73e-06        14897.7142
        1.735e-06       14886.13104
         1.74e-06       14877.18146
        1.745e-06       14867.19281
         1.75e-06       14884.74679
        1.755e-06       14896.24909
         1.76e-06       14906.80438
        1.765e-06       14887.13953
         1.77e-06       14860.97815
        1.775e-06       14849.74338
         1.78e-06       14829.66132
        1.785e-06       14851.22507
         1.79e-06        14868.0497
        1.795e-06       14852.06831
          1.8e-06       14837.00855
        1.805e-06       14831.07836
         1.81e-06       14806.80476
        1.815e-06       14803.95512
         1.82e-06       14790.60352
        1.825e-06       14792.23928
         1.83e-06       14803.27594
        1.835e-06        14797.7297
         1.84e-06       14787.01379
        1.845e-06       14794.43237
         1.85e-06       14796.35187
        1.855e-06       14802.84612
         1.86e-06       14830.72347
        1.865e-06       14810.12492
         1.87e-06       14784.80877
        1.875e-06       14781.69318
         1.88e-06        14778.7581
        1.885e-06       14774.91906
         1.89e-06       14790.71872
        1.895e-06       14774.78584
          1.9e-06       14792.98628
        1.905e-06       14784.47489
         1.91e-06       14766.14348
        1.915e-06       14772.16472
         1.92e-06       14760.75165
        1.925e-06       14764.50826
         1.93e-06       14751.70367
        1.935e-06        14775.4066
         1.94e-06       14784.46347
        1.945e-06       14759.45793
         1.95e-06       14770.70603
        1.955e-06       14782.64743
         1.96e-06       14764.33329
        1.965e-06       14763.41311
         1.97e-06       14771.76889
        1.975e-06        14786.2609
         1.98e-06       14808.94476
        1.985e-06       14784.45331
         1.99e-06       14785.23601
        1.995e-06        14773.4587
            2e-06       14747.56587
        2.005e-06       14771.03701
         2.01e-06       14751.74404
        2.015e-06        14757.6859
         2.02e-06       14729.55677
        2.025e-06       14750.12342
         2.03e-06       14754.31499
        2.035e-06       14786.84949
         2.04e-06       14778.27719
        2.045e-06       14769.60753
         2.05e-06       14751.58566
        2.055e-06        14738.3732
         2.06e-06       14736.34216
        2.065e-06       14756.83961
         2.07e-06       14753.54003
        2.075e-06       14778.79411
         2.08e-06       14745.08536
        2.085e-06       14741.65275
         2.09e-06       14772.19595
        2.095e-06       14784.73519
          2.1e-06       14794.47039
        2.105e-06       14773.77482
         2.11e-06       14760.28889
        2.115e-06       14778.40186
         2.12e-06       14766.69255
        2.125e-06       14769.48004
         2.13e-06       14760.87847
        2.135e-06       14772.18428
         2.14e-06       14769.77926
        2.145e-06       14767.39812
         2.15e-06       14757.27243
        2.155e-06       14714.10109
         2.16e-06       14712.70588
        2.165e-06        14736.5357
         2.17e-06       14730.12927
        2.175e-06       14736.13792
         2.18e-06       14749.70383
        2.185e-06       14763.08476
         2.19e-06       14770.16936
        2.195e-06       14776.04996
          2.2e-06       14789.62601
        2.205e-06       14778.64449
         2.21e-06       14791.67607
        2.215e-06       14807.10466
         2.22e-06       14816.59393
        2.225e-06       14825.07997
         2.23e-06       14840.17588
        2.235e-06       14854.75751
         2.24e-06       14853.84822
        2.245e-06       14859.27598
         2.25e-06       14862.29015
        2.255e-06       14833.16235
         2.26e-06       14836.74459
        2.265e-06       14813.96866
         2.27e-06       14793.05248
        2.275e-06       14800.48977
         2.28e-06        14787.8964
        2.285e-06       14797.75234
         2.29e-06       14771.09604
        2.295e-06       14761.25746
          2.3e-06        14733.2442
        2.305e-06       14741.12018
         2.31e-06       14763.51204
        2.315e-06       14782.72264
         2.32e-06       14774.61169
        2.325e-06       14797.94284
         2.33e-06       14799.93446
        2.335e-06       14794.71321
         2.34e-06       14777.20598
        2.345e-06       14763.01728
         2.35e-06       14780.90953
        2.355e-06       14786.61542
         2.36e-06       14792.16141
        2.365e-06       14781.06408
         2.37e-06       14752.59349
        2.375e-06       14770.81349
         2.38e-06       14767.51491
        2.385e-06       14770.37626
         2.39e-06       14775.38489
        2.395e-06       14749.13294
          2.4e-06       14719.90413
        2.405e-06       14733.85477
         2.41e-06       14773.95006
        2.415e-06       14765.83482
         2.42e-06       14773.68025
        2.425e-06       14772.59297
         2.43e-06       14800.11389
        2.435e-06       14794.71634
         2.44e-06       14803.67471
        2.445e-06       14823.36136
         2.45e-06       14814.30061
        2.455e-06       14816.20475
         2.46e-06       14803.13972
        2.465e-06       14783.07186
         2.47e-06       14769.96258
        2.475e-06       14768.68999
         2.48e-06       14777.81971
        2.485e-06       14759.57786
         2.49e-06       14783.81034
        2.495e-06       14765.62245
          2.5e-06       14788.51416
        2.505e-06       14800.60058
         2.51e-06       14817.33395
        2.515e-06        14844.8953
         2.52e-06        14826.9761
        2.525e-06       14818.99598
         2.53e-06       14789.56061
        2.535e-06       14812.17616
         2.54e-06       14822.59067
        2.545e-06       14806.04252
         2.55e-06       14814.06701
        2.555e-06       14824.11186
         2.56e-06        14805.5175
        2.565e-06       14797.84252
         2.57e-06       14798.01215
        2.575e-06       14772.06789
         2.58e-06       14803.05198
        2.585e-06       14808.20143
         2.59e-06       14832.15862
        2.595e-06       14823.48488
          2.6e-06       14835.81225
        2.605e-06       14838.64164
         2.61e-06       14847.48491
        2.615e-06        14839.4585
         2.62e-06        14823.5325
        2.625e-06       14787.10032
         2.63e-06       14788.58673
        2.635e-06       14800.51384
         2.64e-06       14806.58649
        2.645e-06       14809.87561
         2.65e-06       14796.50814
        2.655e-06       14777.61608
         2.66e-06       14761.38367
        2.665e-06       14771.18933
         2.67e-06       14777.58282
        2.675e-06       14808.37422
         2.68e-06       14830.98277
        2.685e-06       14849.61299
         2.69e-06       14812.36436
        2.695e-06       14805.89961
          2.7e-06       14798.46651
        2.705e-06       14780.05121
         2.71e-06       14781.35314
        2.715e-06       14782.95888
         2.72e-06       14783.50314
        2.725e-06       14772.56051
         2.73e-06       14765.11168
        2.735e-06       14757.66278
         2.74e-06       14739.98278
        2.745e-06       14736.57246
         2.75e-06       14749.29963
        2.755e-06       14740.05109
         2.76e-06       14742.39732
        2.765e-06       14763.10466
         2.77e-06       14758.89628
        2.775e-06       14791.16013
         2.78e-06       14777.00025
        2.785e-06       14762.22788
         2.79e-06       14755.86859
        2.795e-06       14747.38529
          2.8e-06       14748.90379
        2.805e-06       14773.40662
         2.81e-06        14760.8242
        2.815e-06       14747.46185
         2.82e-06       14759.02591
        2.825e-06       14759.70701
         2.83e-06       14765.16584
        2.835e-06       14766.78921
         2.84e-06       14779.24471
        2.845e-06       14782.34464
         2.85e-06       14787.91331
        2.855e-06        14761.9388
         2.86e-06       14772.17797
        2.865e-06       14768.01462
         2.87e-06       14760.61018
        2.875e-06       14786.86523
         2.88e-06       14784.53541
        2.885e-06       14789.53426
         2.89e-06       14777.44147
        2.895e-06       14800.10947
          2.9e-06       14796.20598
        2.905e-06       14776.89096
         2.91e-06       14803.97272
        2.915e-06       14789.35418
         2.92e-06       14787.69241
        2.925e-06       14813.56561
         2.93e-06       14802.48051
        2.935e-06       14821.47895
         2.94e-06       14838.44788
        2.945e-06       14862.72765
         2.95e-06       14822.81627
        2.955e-06       14791.79693
         2.96e-06       14773.09151
        2.965e-06       14781.57149
         2.97e-06        14758.5724
        2.975e-06       14759.36906
         2.98e-06       14746.63833
        2.985e-06       14750.05627
         2.99e-06       14756.67241
        2.995e-06       14738.02198
            3e-06       14722.60056
        3.005e-06       14718.42134
         3.01e-06       14685.48964
        3.015e-06       14709.09357
         3.02e-06       14706.33312
        3.025e-06       14686.94743
         3.03e-06       14686.48948
        3.035e-06       14674.30692
         3.04e-06       14669.82683
        3.045e-06       14660.04597
         3.05e-06       14677.98501
        3.055e-06       14668.33291
         3.06e-06       14648.51635
        3.065e-06       14658.85153
         3.07e-06       14687.59642
        3.075e-06       14705.49767
         3.08e-06       14728.51711
        3.085e-06       14731.90888
         3.09e-06       14723.89699
        3.095e-06       14719.54939
          3.1e-06       14716.58289
        3.105e-06       14720.67282
         3.11e-06       14742.81964
        3.115e-06       14730.46133
         3.12e-06       14740.70943
        3.125e-06       14745.28379
         3.13e-06       14758.69676
        3.135e-06       14771.49541
         3.14e-06       14753.73859
        3.145e-06       14760.11179
         3.15e-06       14770.88441
        3.155e-06        14747.3568
         3.16e-06       14757.65888
        3.165e-06       14760.51661
         3.17e-06       14762.94454
        3.175e-06       14780.63354
         3.18e-06       14793.35846
        3.185e-06       14790.09492
         3.19e-06       14786.76043
        3.195e-06       14764.06704
          3.2e-06       14749.89665
        3.205e-06       14764.47171
         3.21e-06       14764.34113
        3.215e-06       14767.21422
         3.22e-06       14757.42602
        3.225e-06       14752.81382
         3.23e-06       14757.90162
        3.235e-06       14753.38804
         3.24e-06       14753.41705
        3.245e-06       14746.09053
         3.25e-06       14717.72127
        3.255e-06       14738.21468
         3.26e-06       14737.09494
        3.265e-06       14726.32197
         3.27e-06       14732.59113
        3.275e-06        14730.8469
         3.28e-06       14718.50517
        3.285e-06       14727.12024
         3.29e-06        14744.7869
        3.295e-06       14744.44677
          3.3e-06       14718.54688
        3.305e-06       14718.22791
         3.31e-06       14733.69825
        3.315e-06       14746.98473
         3.32e-06       14752.76316
        3.325e-06       14722.72833
         3.33e-06       14715.52216
        3.335e-06       14714.66236
         3.34e-06       14714.83681
        3.345e-06       14711.87027
         3.35e-06       14685.17906
        3.355e-06       14691.60162
         3.36e-06       14702.58205
        3.365e-06       14737.62886
         3.37e-06       14741.64727
        3.375e-06       14730.48863
         3.38e-06       14730.15647
        3.385e-06       14706.85135
         3.39e-06       14709.75476
        3.395e-06        14716.2909
          3.4e-06       14731.46112
        3.405e-06       14740.10572
         3.41e-06       14744.53325
        3.415e-06       14734.64163
         3.42e-06       14715.62455
        3.425e-06       14725.49752
         3.43e-06        14728.6512
        3.435e-06       14715.26334
         3.44e-06       14716.38151
        3.445e-06       14714.93137
         3.45e-06       14745.75224
        3.455e-06       14759.24502
         3.46e-06       14735.35189
        3.465e-06       14717.15609
         3.47e-06       14716.52482
        3.475e-06       14707.26824
         3.48e-06       14725.07522
        3.485e-06       14695.25271
         3.49e-06       14696.27719
        3.495e-06       14695.84472
          3.5e-06       14701.40149
        3.505e-06       14707.19432
         3.51e-06        14720.0457
        3.515e-06        14728.2941
         3.52e-06       14735.61768
        3.525e-06       14724.47684
         3.53e-06       14711.85367
        3.535e-06       14717.88304
         3.54e-06       14711.83095
        3.545e-06       14726.83442
         3.55e-06       14733.13906
        3.555e-06       14747.48563
         3.56e-06       14757.18177
        3.565e-06       14746.02959
         3.57e-06       14727.69734
        3.575e-06       14716.42842
         3.58e-06       14719.89272
        3.585e-06       14748.39563
         3.59e-06       14738.59382
        3.595e-06       14740.96646
          3.6e-06       14738.64765
        3.605e-06       14754.11231
         3.61e-06       14756.71971
        3.615e-06       14750.11009
         3.62e-06       14717.17987
        3.625e-06       14725.63349
         3.63e-06       14728.51467
        3.635e-06       14744.20886
         3.64e-06       14751.10613
        3.645e-06       14739.74809
         3.65e-06       14732.30251
        3.655e-06       14729.10228
         3.66e-06       14731.71852
        3.665e-06       14738.54534
         3.67e-06       14737.70068
        3.675e-06       14738.00854
         3.68e-06       14735.51688
        3.685e-06       14757.10539
         3.69e-06       14769.96194
        3.695e-06       14764.19342
          3.7e-06       14755.28418
        3.705e-06        14764.9152
         3.71e-06       14756.12762
        3.715e-06       14756.00637
         3.72e-06       14759.58888
        3.725e-06       14726.86101
         3.73e-06        14741.5034
        3.735e-06       14742.66654
         3.74e-06       14706.83056
        3.745e-06       14718.69889
         3.75e-06       14713.53607
        3.755e-06       14693.63266
         3.76e-06       14700.39221
        3.765e-06       14714.59879
         3.77e-06       14691.23087
        3.775e-06       14701.93905
         3.78e-06       14710.40361
        3.785e-06       14729.68936
         3.79e-06       14733.32075
        3.795e-06       14744.61957
          3.8e-06       14729.75423
        3.805e-06        14739.5444
         3.81e-06       14747.58647
        3.815e-06       14756.97254
         3.82e-06       14735.03962
        3.825e-06       14708.01078
         3.83e-06       14707.69784
        3.835e-06       14722.61809
         3.84e-06       14717.48929
        3.845e-06       14723.67896
         3.85e-06       14715.56953
        3.855e-06       14701.46633
         3.86e-06       14701.71709
        3.865e-06       14712.44789
         3.87e-06       14713.12039
        3.875e-06       14735.83997
         3.88e-06       14752.26011
        3.885e-06        14737.4479
         3.89e-06       14728.41514
        3.895e-06       14722.33571
          3.9e-06       14747.56075
        3.905e-06       14731.91778
         3.91e-06       14719.00128
        3.915e-06       14703.04618
         3.92e-06       14712.20801
        3.925e-06        14698.8151
         3.93e-06       14692.40432
        3.935e-06       14682.10408
         3.94e-06       14692.71617
        3.945e-06       14680.95349
         3.95e-06       14688.06398
        3.955e-06       14718.24146
         3.96e-06       14736.30396
        3.965e-06       14746.84208
         3.97e-06        14745.8743
        3.975e-06       14738.72024
         3.98e-06       14715.26655
        3.985e-06       14725.38544
         3.99e-06        14718.1759
        3.995e-06       14730.08443
            4e-06       14719.99087
