/*--------------------------------*- C++ -*----------------------------------*\
| =========                 |                                                 |
| \\      /  F ield         | OpenFOAM: The Open Source CFD Toolbox           |
|  \\    /   O peration     | Version:  v1706                                 |
|   \\  /    A nd           | Web:      www.OpenFOAM.com                      |
|    \\/     M anipulation  |                                                 |
\*---------------------------------------------------------------------------*/
FoamFile
{
    version     2.0;
    format      ascii;
    class       volScalarField;
    location    "0.01";
    object      dsmcRhoNMean_mixture;
}
// * * * * * * * * * * * * * * * * * * * * * * * * * * * * * * * * * * * * * //

dimensions      [0 -3 0 0 0 0 0];


internalField   nonuniform List<scalar> 
5120
(
12.5456
12.5317
12.5484
12.5367
12.5524
12.5204
12.5385
12.5222
12.5308
12.4793
12.5027
12.4918
12.4895
12.4119
12.4048
12.3957
12.4397
12.5023
12.459
12.4885
12.4355
12.4689
12.4825
12.4587
12.4294
12.464
12.4513
12.4305
12.4335
12.4219
12.4425
12.4607
12.4989
12.549
12.5051
12.4379
12.4448
12.3764
12.3648
12.4135
12.3943
12.3613
12.4195
12.3839
12.3861
12.445
12.5086
12.4676
12.4562
12.3599
12.3335
12.3566
12.3306
12.3484
12.3649
12.4243
12.4568
12.4378
12.4223
12.4058
12.5506
12.4841
12.5225
12.5048
12.5063
12.4766
12.4699
12.5062
12.503
12.5034
12.5276
12.4658
12.4819
12.4607
12.4724
12.4825
12.4622
12.499
12.5047
12.5352
12.6377
12.6442
12.6193
12.5341
12.5036
12.483
12.5222
12.519
12.595
12.6427
12.5906
12.5638
12.5433
12.5939
12.5501
12.5172
12.4312
12.4406
12.4995
12.5604
12.5163
12.4851
12.5118
12.5718
12.5629
12.5402
12.5143
12.5403
12.4828
12.48
12.5049
12.5251
12.4668
12.3194
12.3409
12.394
12.4037
12.3975
12.4587
12.4693
12.4858
12.4304
12.4076
12.4426
12.465
12.4626
12.4457
12.4775
12.4344
12.4316
12.4223
12.3981
12.4392
12.4858
12.4775
12.4541
12.4765
12.5649
12.4811
12.5009
12.4675
12.5079
12.5362
12.515
12.5227
12.5057
12.5326
12.5421
12.5591
12.5065
12.5218
12.5391
12.5358
12.4906
12.5061
12.4978
12.4829
12.439
12.4601
12.484
12.5494
12.55
12.5636
12.5328
12.5452
12.5642
12.5067
12.4907
12.4949
12.5079
12.5162
12.4905
12.5008
12.5467
12.5357
12.593
12.5687
12.5578
12.5147
12.5612
12.5369
12.5266
12.5412
12.4959
12.5592
12.5996
12.6187
12.5946
12.5634
12.5902
12.534
12.5781
12.5993
12.5616
12.5209
12.5532
12.5514
12.5922
12.5785
12.5332
12.5192
12.5359
12.5189
12.47
12.4887
12.4942
12.5321
12.5431
12.5826
12.5685
12.5744
12.6341
12.603
12.6689
12.6522
12.6903
12.6537
12.5942
12.573
12.5802
12.5272
12.5577
12.5308
12.5271
12.4954
12.4583
12.4614
12.447
12.4919
12.5285
12.5031
12.524
12.5028
12.4968
12.4867
12.4594
12.51
12.5315
12.6089
12.6033
12.5038
12.5417
12.541
12.5125
12.4896
12.5126
12.5479
12.5732
12.5512
12.5254
12.4902
12.492
12.4803
12.497
12.5324
12.4871
12.4512
12.4494
12.4943
12.48
12.4012
12.4367
12.4777
12.4356
12.3701
12.3323
12.3774
12.3907
12.4353
12.457
12.4238
12.4304
12.4221
12.4563
12.4995
12.4891
12.5363
12.4628
12.489
12.4369
12.5125
12.4828
12.4482
12.3989
12.3995
12.4453
12.4354
12.3878
12.4611
12.4973
12.5055
12.5228
12.5075
12.4676
12.5181
12.5614
12.5672
12.5302
12.5572
12.55
12.4548
12.4761
12.4907
12.4737
12.4944
12.441
12.4732
12.5171
12.4621
12.428
12.4773
12.4682
12.4507
12.4164
12.3946
12.3665
12.3427
12.4248
12.4088
12.4468
12.4925
12.4851
12.4912
12.5421
12.4892
12.4698
12.4992
12.4819
12.5307
12.5065
12.4893
12.4506
12.4509
12.4318
12.4634
12.5457
12.5834
12.5424
12.5378
12.5163
12.3612
12.4324
12.4092
12.3847
12.4028
12.4035
12.3727
12.3981
12.4585
12.4718
12.4745
12.4981
12.4877
12.4728
12.5058
12.5383
12.4541
12.4975
12.4635
12.3865
12.4557
12.3961
12.442
12.4903
12.4034
12.3735
12.397
12.4451
12.4469
12.4628
12.4434
12.4634
12.4812
12.4986
12.4101
12.4253
12.4209
12.3961
12.4554
12.4597
12.3897
12.4176
12.461
12.4802
12.5301
12.5334
12.504
12.5051
12.4606
12.4632
12.488
12.5648
12.5495
12.5112
12.4843
12.4147
12.4614
12.4569
12.4382
12.4013
12.4241
12.3983
12.4445
12.493
12.4856
12.4759
12.4854
12.4393
12.4811
12.4799
12.5481
12.5779
12.5893
12.576
12.579
12.564
12.5438
12.5349
12.5065
12.4827
12.4698
12.4797
12.4756
12.4911
12.4979
12.5469
12.4957
12.5026
12.472
12.5228
12.476
12.4778
12.4951
12.5441
12.5725
12.561
12.5782
12.5464
12.47
12.4523
12.4982
12.5194
12.4816
12.4978
12.4848
12.4723
12.5202
12.5351
12.5426
12.5306
12.5509
12.4965
12.5186
12.5023
12.598
12.5704
12.5439
12.4892
12.5072
12.4934
12.474
12.4632
12.4368
12.4598
12.4468
12.4977
12.5343
12.5208
12.5225
12.5278
12.5164
12.505
12.4506
12.4765
12.419
12.4429
12.4116
12.4475
12.4261
12.4445
12.5712
12.6012
12.6085
12.6409
12.6689
12.5841
12.555
12.492
12.5388
12.4669
12.4662
12.4408
12.4932
12.4924
12.5193
12.4909
12.5233
12.5461
12.5682
12.5532
12.4811
12.4265
12.4722
12.4695
12.4677
12.4853
12.5209
12.511
12.5658
12.5571
12.5954
12.5315
12.5008
12.4785
12.4522
12.4843
12.5009
12.51
12.5376
12.4714
12.5763
12.5708
12.5796
12.5603
12.5296
12.5875
12.5467
12.5972
12.6213
12.6081
12.622
12.5744
12.5692
12.5821
12.5529
12.5646
12.5291
12.5514
12.5951
12.5441
12.4315
12.4835
12.5168
12.4944
12.5219
12.5057
12.4556
12.4619
12.523
12.4737
12.5137
12.5067
12.4809
12.4548
12.4489
12.4418
12.4766
12.4445
12.4059
12.4431
12.4634
12.3881
12.4093
12.4843
12.4981
12.5094
12.4715
12.4366
12.3636
12.4074
12.4238
12.4932
12.5004
12.4814
12.4565
12.4796
12.494
12.4936
12.4833
12.499
12.5068
12.4959
12.4773
12.4723
12.5144
12.6028
12.5521
12.5776
12.6015
12.6025
12.576
12.5164
12.4468
12.4795
12.4666
12.4701
12.4356
12.4772
12.4845
12.5257
12.6153
12.543
12.5065
12.5537
12.5322
12.5404
12.4757
12.4998
12.4476
12.4605
12.5151
12.5102
12.5159
12.538
12.5179
12.549
12.583
12.6166
12.5707
12.5734
12.5364
12.4953
12.5055
12.4942
12.485
12.49
12.4749
12.4846
12.4591
12.4604
12.3901
12.4475
12.464
12.5103
12.5203
12.488
12.5281
12.4986
12.4854
12.4832
12.4737
12.4373
12.3923
12.4057
12.4242
12.5229
12.5039
12.4897
12.4609
12.5443
12.5558
12.5637
12.5014
12.4663
12.4853
12.4448
12.3989
12.4343
12.4464
12.4904
12.49
12.5038
12.5518
12.5477
12.5229
12.4753
12.45
12.4935
12.484
12.4272
12.4776
12.4463
12.4847
12.4795
12.4145
12.444
12.5081
12.5571
12.5701
12.5332
12.5409
12.5531
12.5165
12.4953
12.5056
12.5527
12.5351
12.4523
12.4007
12.4143
12.4294
12.4018
12.4061
12.382
12.4811
12.5226
12.5221
12.5413
12.5475
12.5518
12.5021
12.4545
12.4129
12.4375
12.454
12.4571
12.4864
12.502
12.5273
12.5082
12.543
12.5396
12.4853
12.5138
12.4589
12.471
12.4297
12.4576
12.4918
12.4878
12.5322
12.5643
12.5562
12.5162
12.498
12.5144
12.5628
12.5874
12.5479
12.4999
12.4815
12.438
12.4777
12.5003
12.5294
12.4667
12.466
12.4874
12.4856
12.4842
12.4995
12.4996
12.485
12.5053
12.4693
12.458
12.4678
12.4915
12.5547
12.5527
12.5588
12.5638
12.5196
12.4984
12.5291
12.5427
12.5284
12.5388
12.5416
12.5334
12.466
12.448
12.486
12.4344
12.4986
12.4953
12.5018
12.494
12.4535
12.4673
12.499
12.4987
12.5426
12.5626
12.475
12.5165
12.4954
12.5205
12.5193
12.5524
12.4123
12.4082
12.446
12.4496
12.4512
12.507
12.4574
12.4635
12.4349
12.4337
12.4306
12.4622
12.4426
12.4384
12.4794
12.523
12.4712
12.4519
12.4132
12.3823
12.5348
12.5305
12.4995
12.4429
12.3987
12.3439
12.3275
12.4388
12.4647
12.4038
12.4452
12.4537
12.4999
12.5152
12.5508
12.5214
12.4865
12.4604
12.5511
12.5573
12.418
12.4509
12.4674
12.48
12.536
12.5105
12.4966
12.4675
12.4532
12.5119
12.5133
12.5167
12.4872
12.4971
12.5087
12.427
12.4829
12.4077
12.3914
12.4192
12.451
12.4506
12.5031
12.5164
12.4907
12.4925
12.5008
12.4208
12.392
12.4297
12.4653
12.4822
12.507
12.4608
12.4616
12.4672
12.4432
12.4618
12.4312
12.4275
12.5791
12.5664
12.5177
12.46
12.5209
12.5495
12.4958
12.5047
12.4824
12.4859
12.4727
12.4997
12.453
12.4782
12.5181
12.545
12.5272
12.5054
12.5653
12.5722
12.6003
12.6396
12.6442
12.6753
12.6214
12.6293
12.6043
12.5859
12.5466
12.5122
12.4808
12.5346
12.5768
12.5657
12.5435
12.5472
12.5593
12.5418
12.5469
12.5769
12.4884
12.5306
12.5448
12.598
12.5999
12.585
12.6031
12.6023
12.5456
12.5765
12.5536
12.5058
12.4959
12.4927
12.4616
12.4426
12.4547
12.4655
12.4715
12.473
12.3218
12.389
12.3947
12.4383
12.4338
12.4282
12.4603
12.406
12.3995
12.4092
12.4294
12.4419
12.4675
12.4667
12.4706
12.46
12.4353
12.416
12.3438
12.3352
12.4466
12.4589
12.4241
12.4309
12.4687
12.4326
12.4669
12.4588
12.4539
12.4704
12.4803
12.505
12.4802
12.4576
12.5264
12.4864
12.4631
12.479
12.4635
12.4495
12.4241
12.4315
12.4782
12.468
12.4235
12.4252
12.4735
12.4708
12.5306
12.5077
12.5126
12.4784
12.5438
12.5132
12.4787
12.5014
12.5009
12.4449
12.4073
12.4413
12.6296
12.6476
12.5832
12.585
12.5757
12.5636
12.5069
12.493
12.4725
12.5138
12.4699
12.4779
12.5362
12.5276
12.6018
12.5637
12.5456
12.4943
12.4722
12.5325
12.4596
12.4709
12.5249
12.5503
12.576
12.5464
12.505
12.5524
12.5125
12.4818
12.4342
12.4176
12.4431
12.46
12.4408
12.3798
12.4275
12.4448
12.4913
12.4733
12.5583
12.5326
12.5491
12.508
12.4997
12.5249
12.5143
12.5145
12.5618
12.5884
12.5689
12.5087
12.4712
12.5244
12.5439
12.5446
12.4979
12.5249
12.5024
12.5474
12.4601
12.4942
12.5138
12.5724
12.5823
12.5994
12.5807
12.5417
12.4534
12.4604
12.4613
12.5193
12.534
12.4509
12.4064
12.4443
12.4647
12.4997
12.503
12.5041
12.4346
12.4186
12.4381
12.4401
12.4804
12.4483
12.4899
12.4587
12.4529
12.4754
12.4731
12.511
12.4879
12.489
12.4584
12.4157
12.4472
12.4536
12.4405
12.4231
12.5832
12.5407
12.5254
12.5355
12.5139
12.491
12.5026
12.4845
12.4826
12.4589
12.4174
12.4227
12.4413
12.4512
12.4513
12.4679
12.5013
12.5412
12.5659
12.5551
12.4543
12.4717
12.4608
12.4118
12.41
12.3978
12.3926
12.4439
12.4155
12.4443
12.4941
12.4712
12.4826
12.4439
12.4471
12.4594
12.44
12.4527
12.4313
12.433
12.5032
12.5174
12.473
12.4981
12.4875
12.4868
12.4688
12.4287
12.4469
12.4765
12.488
12.5012
12.5489
12.4895
12.4595
12.423
12.4209
12.4509
12.4567
12.4927
12.5302
12.4694
12.4153
12.3983
12.4327
12.4234
12.4697
12.5663
12.5398
12.5519
12.5056
12.4545
12.4242
12.4436
12.4615
12.4716
12.585
12.5519
12.5671
12.5517
12.4514
12.5006
12.4896
12.4694
12.4409
12.4291
12.4969
12.4917
12.554
12.5704
12.5587
12.5388
12.5096
12.494
12.4988
12.5015
12.4489
12.458
12.4615
12.4796
12.4838
12.4644
12.4794
12.5081
12.4672
12.4201
12.3618
12.3961
12.391
12.3971
12.3733
12.3977
12.4141
12.5283
12.556
12.5761
12.5657
12.5478
12.5274
12.5266
12.6319
12.5647
12.5643
12.5111
12.5056
12.4781
12.5072
12.5923
12.5718
12.5932
12.5562
12.5232
12.4956
12.4809
12.5131
12.5203
12.5339
12.5248
12.5726
12.6267
12.4454
12.4128
12.3955
12.4334
12.4251
12.4178
12.4661
12.456
12.5525
12.5475
12.5369
12.5582
12.5834
12.5544
12.5467
12.4909
12.4967
12.5102
12.4652
12.5052
12.5691
12.5859
12.5213
12.4619
12.4874
12.5115
12.5093
12.5651
12.6167
12.5585
12.5592
12.4682
12.4559
12.4746
12.4708
12.494
12.4502
12.428
12.4746
12.5277
12.4862
12.4873
12.4902
12.5073
12.5479
12.5601
12.5606
12.5344
12.5018
12.4952
12.4411
12.4777
12.4812
12.5346
12.4795
12.4989
12.5305
12.5321
12.5353
12.5352
12.4632
12.4515
12.4698
12.3885
12.4603
12.4475
12.4828
12.5188
12.5486
12.607
12.5809
12.6079
12.6159
12.6409
12.6232
12.5835
12.5675
12.5331
12.5557
12.5093
12.4866
12.4594
12.4301
12.431
12.4141
12.4494
12.4672
12.4736
12.4496
12.4492
12.486
12.4738
12.4643
12.4499
12.4179
12.4516
12.5078
12.4996
12.5284
12.503
12.4926
12.4755
12.4644
12.4336
12.4406
12.4954
12.4238
12.4416
12.419
12.4256
12.4651
12.3892
12.3376
12.3309
12.341
12.3976
12.4017
12.3866
12.448
12.4554
12.5204
12.4827
12.4424
12.468
12.4814
12.4385
12.4532
12.445
12.4324
12.3868
12.4124
12.4444
12.4395
12.4528
12.4485
12.4416
12.4651
12.4482
12.4345
12.451
12.3591
12.4121
12.4965
12.5025
12.4721
12.4662
12.5053
12.5335
12.5716
12.5428
12.5217
12.4773
12.4316
12.4372
12.4989
12.501
12.4171
12.4457
12.4297
12.384
12.5395
12.5029
12.4483
12.4258
12.4668
12.4266
12.4234
12.4725
12.4529
12.4764
12.5147
12.5591
12.6085
12.6174
12.609
12.6656
12.6018
12.5507
12.4756
12.5226
12.5156
12.5318
12.5534
12.5437
12.5035
12.5621
12.5282
12.5535
12.5392
12.5596
12.4869
12.5783
12.5627
12.5827
12.5881
12.555
12.5741
12.5456
12.5711
12.4953
12.5241
12.5138
12.5313
12.5764
12.5249
12.4869
12.515
12.5559
12.6006
12.6241
12.5591
12.5749
12.503
12.527
12.4449
12.4624
12.4101
12.4615
12.5351
12.5145
12.4464
12.4934
12.5235
12.5287
12.5493
12.5922
12.5485
12.535
12.4796
12.4598
12.479
12.442
12.4553
12.4933
12.4687
12.523
12.5256
12.5007
12.4932
12.472
12.4572
12.4496
12.4582
12.4805
12.5231
12.5475
12.5552
12.4951
12.5526
12.545
12.5067
12.498
12.5304
12.5268
12.4734
12.4962
12.4556
12.4398
12.4439
12.4393
12.4514
12.3771
12.4096
12.4002
12.429
12.4825
12.462
12.5077
12.5156
12.5013
12.558
12.5853
12.5775
12.5646
12.5569
12.5181
12.4836
12.5242
12.4718
12.445
12.4422
12.4673
12.4725
12.4399
12.4659
12.4951
12.541
12.5397
12.4975
12.4619
12.5083
12.482
12.513
12.4679
12.4843
12.4569
12.432
12.4392
12.4826
12.4289
12.5046
12.5353
12.5493
12.5663
12.5215
12.5222
12.4554
12.4425
12.4386
12.4524
12.4576
12.4949
12.5149
12.5007
12.4976
12.5383
12.5802
12.5488
12.5028
12.4855
12.5635
12.5256
12.5128
12.5198
12.4884
12.5129
12.4887
12.4796
12.4599
12.4523
12.4434
12.4576
12.5173
12.499
12.5857
12.6496
12.5743
12.5702
12.5694
12.6023
12.4511
12.4847
12.4749
12.5404
12.5589
12.5899
12.5848
12.5634
12.5333
12.4956
12.5239
12.5216
12.5475
12.5413
12.4769
12.4385
12.4294
12.4921
12.4764
12.4167
12.4899
12.5577
12.6054
12.6233
12.5613
12.5291
12.4815
12.481
12.4617
12.4995
12.5167
12.5138
12.4698
12.3992
12.4275
12.4814
12.4447
12.4735
12.4918
12.5053
12.5687
12.5378
12.489
12.4732
12.5249
12.5367
12.5493
12.4924
12.476
12.4715
12.538
12.5498
12.5104
12.5502
12.5469
12.577
12.5802
12.6071
12.6026
12.5607
12.5372
12.5028
12.5063
12.4746
12.4411
12.389
12.4045
12.4341
12.4439
12.3934
12.4106
12.4171
12.4776
12.5134
12.6189
12.57
12.5477
12.5368
12.5594
12.582
12.4335
12.4334
12.4041
12.4123
12.4224
12.4135
12.4808
12.4619
12.4798
12.4719
12.4444
12.5208
12.5208
12.4766
12.5183
12.5296
12.4741
12.4813
12.4598
12.4009
12.4072
12.4539
12.4664
12.4803
12.4831
12.5492
12.5087
12.5439
12.5689
12.5538
12.5518
12.5369
12.5846
12.5407
12.5028
12.4129
12.4868
12.4745
12.4661
12.4488
12.5335
12.5003
12.4778
12.4601
12.4636
12.4279
12.4298
12.445
12.4033
12.4387
12.4064
12.4181
12.4124
12.436
12.4162
12.4765
12.4654
12.4566
12.5062
12.5338
12.5019
12.4234
12.4592
12.4568
12.4765
12.5388
12.5514
12.544
12.5876
12.6704
12.6489
12.5605
12.5352
12.5272
12.5176
12.4914
12.4568
12.549
12.5925
12.5529
12.6242
12.6066
12.5472
12.5058
12.5433
12.5297
12.5233
12.4936
12.4181
12.4608
12.4932
12.5757
12.5788
12.522
12.5734
12.6079
12.5433
12.4876
12.4876
12.5605
12.4535
12.4653
12.5073
12.463
12.498
12.4824
12.4809
12.4865
12.5324
12.5275
12.4838
12.4556
12.4364
12.4839
12.4352
12.4564
12.4773
12.5203
12.5272
12.4926
12.533
12.5131
12.4978
12.4987
12.5124
12.4426
12.462
12.4566
12.3628
12.3715
12.394
12.4176
12.446
12.4332
12.5006
12.4909
12.4765
12.4791
12.4385
12.5269
12.5031
12.5465
12.547
12.5565
12.5052
12.5563
12.4869
12.5043
12.5275
12.529
12.4874
12.4688
12.4724
12.445
12.4208
12.4326
12.4925
12.4952
12.4884
12.474
12.4971
12.5269
12.587
12.517
12.4753
12.4657
12.497
12.5177
12.5282
12.5687
12.5749
12.5914
12.5316
12.4561
12.4711
12.4594
12.4139
12.4672
12.477
12.4543
12.4982
12.4852
12.5177
12.5545
12.5924
12.5573
12.5639
12.4571
12.517
12.4666
12.4561
12.4462
12.4588
12.5356
12.4818
12.4342
12.4796
12.407
12.4557
12.4584
12.5651
12.5843
12.5761
12.5807
12.5713
12.5408
12.6182
12.5667
12.5083
12.5605
12.5339
12.5404
12.4931
12.4875
12.4845
12.453
12.4853
12.4906
12.5284
12.5234
12.5516
12.594
12.603
12.5478
12.5524
12.5591
12.513
12.4823
12.4779
12.4515
12.4884
12.5254
12.537
12.5939
12.5771
12.5612
12.606
12.6344
12.5889
12.5366
12.5776
12.5546
12.583
12.6109
12.5668
12.5601
12.5719
12.5894
12.6117
12.6291
12.6103
12.5961
12.5307
12.483
12.4819
12.5195
12.5076
12.5009
12.5211
12.6028
12.4431
12.5164
12.4992
12.6008
12.6203
12.6098
12.5475
12.5304
12.4534
12.4457
12.4625
12.4428
12.4521
12.4813
12.4786
12.4633
12.5214
12.488
12.4836
12.4184
12.5979
12.5716
12.5374
12.509
12.526
12.4673
12.4928
12.4881
12.5
12.5495
12.6074
12.5376
12.574
12.5349
12.4835
12.5294
12.5575
12.526
12.5325
12.6006
12.4742
12.4789
12.4702
12.4308
12.4524
12.5154
12.5051
12.5177
12.4964
12.4968
12.5009
12.5152
12.5105
12.5145
12.4857
12.5057
12.4718
12.4785
12.4552
12.4379
12.394
12.4101
12.4607
12.4394
12.433
12.4441
12.4558
12.456
12.4649
12.4843
12.4916
12.5184
12.5245
12.4847
12.4414
12.4342
12.47
12.5463
12.4336
12.4174
12.4431
12.4382
12.4527
12.4605
12.477
12.4692
12.4359
12.4849
12.4519
12.4942
12.4909
12.4926
12.4432
12.4887
12.4669
12.5146
12.502
12.4147
12.4222
12.4641
12.5498
12.5317
12.5513
12.5234
12.501
12.4366
12.4415
12.4251
12.4262
12.4052
12.4083
12.4479
12.4664
12.5069
12.5354
12.5395
12.562
12.5589
12.5132
12.5226
12.4981
12.5032
12.5196
12.5181
12.5364
12.5073
12.5157
12.4325
12.4276
12.4499
12.4223
12.4226
12.4287
12.4572
12.4508
12.5013
12.4774
12.4887
12.4655
12.485
12.3415
12.4061
12.3801
12.3794
12.4093
12.447
12.4438
12.5191
12.5225
12.5222
12.5055
12.4824
12.5566
12.5355
12.546
12.4951
12.487
12.4578
12.4461
12.3621
12.6472
12.6213
12.5939
12.6035
12.6002
12.5351
12.4468
12.4143
12.4318
12.3975
12.4446
12.4924
12.4926
12.4469
12.4455
12.4057
12.4055
12.4626
12.5172
12.5718
12.4516
12.4236
12.4844
12.5367
12.518
12.5449
12.5734
12.5755
12.5438
12.5001
12.5067
12.5066
12.4857
12.539
12.5841
12.5835
12.6036
12.5748
12.5196
12.4624
12.4245
12.4243
12.434
12.4344
12.4366
12.423
12.4135
12.4383
12.4509
12.4547
12.4289
12.4075
12.3937
12.4304
12.4534
12.4581
12.4853
12.4879
12.4752
12.4419
12.4855
12.4828
12.3851
12.3647
12.4159
12.401
12.4329
12.4415
12.4394
12.4886
12.5129
12.556
12.5182
12.5217
12.4796
12.5411
12.5267
12.5643
12.5054
12.5512
12.3981
12.4004
12.3941
12.3957
12.4357
12.4739
12.4746
12.4527
12.461
12.4101
12.4172
12.4447
12.4888
12.4979
12.5233
12.513
12.4487
12.3824
12.473
12.4044
12.4804
12.5046
12.4953
12.5006
12.5105
12.5064
12.4759
12.5443
12.5217
12.5417
12.5651
12.5126
12.4641
12.4781
12.4923
12.4252
12.4472
12.4649
12.4874
12.5039
12.4549
12.4222
12.393
12.5274
12.5299
12.5504
12.5437
12.5324
12.5509
12.5082
12.5039
12.4823
12.5226
12.5364
12.5141
12.5266
12.5133
12.5012
12.4625
12.4553
12.5655
12.4948
12.5072
12.4268
12.4355
12.4775
12.5215
12.5506
12.5384
12.5529
12.5243
12.5014
12.4908
12.4708
12.4468
12.4252
12.4502
12.4473
12.461
12.5177
12.5239
12.54
12.5114
12.5052
12.4759
12.4769
12.4972
12.4981
12.5579
12.5327
12.4899
12.5075
12.4953
12.6087
12.5508
12.5461
12.4898
12.5139
12.5426
12.5364
12.4389
12.4688
12.4622
12.4699
12.4924
12.5113
12.5454
12.5561
12.5312
12.4941
12.5198
12.4899
12.5157
12.5057
12.5412
12.5083
12.533
12.4935
12.4989
12.4543
12.4514
12.4367
12.4892
12.5097
12.5446
12.4964
12.4293
12.4215
12.387
12.4171
12.3916
12.3573
12.3279
12.2827
12.3097
12.3138
12.3595
12.4292
12.5099
12.484
12.5356
12.5533
12.4933
12.4795
12.4988
12.492
12.5589
12.562
12.5747
12.4914
12.4323
12.3587
12.3477
12.3798
12.3982
12.4551
12.4225
12.4422
12.43
12.5007
12.4353
12.4977
12.4963
12.5222
12.4885
12.4842
12.4728
12.4648
12.5256
12.5297
12.5064
12.5439
12.5401
12.5095
12.4975
12.4432
12.4162
12.4461
12.4433
12.4537
12.4444
12.4337
12.4031
12.357
12.4244
12.4571
12.5141
12.5453
12.5384
12.4579
12.4801
12.4756
12.4841
12.5002
12.4436
12.462
12.4568
12.4078
12.4132
12.4381
12.2621
12.3142
12.387
12.3649
12.4079
12.423
12.3786
12.4002
12.4587
12.4579
12.46
12.4471
12.3922
12.4253
12.459
12.4286
12.399
12.4267
12.3755
12.317
12.4776
12.4284
12.4549
12.5509
12.5127
12.5172
12.5619
12.508
12.4774
12.4766
12.5072
12.4469
12.4603
12.524
12.5159
12.5342
12.5188
12.4748
12.4622
12.476
12.5676
12.6042
12.5548
12.4724
12.4662
12.4839
12.4911
12.5028
12.4633
12.4959
12.4475
12.4386
12.3734
12.4138
12.448
12.4984
12.539
12.5541
12.5297
12.5445
12.6383
12.6439
12.6228
12.5849
12.537
12.4934
12.4637
12.4628
12.4015
12.4519
12.4201
12.449
12.4691
12.4889
12.4421
12.4534
12.4663
12.5324
12.5871
12.622
12.487
12.4589
12.4396
12.5087
12.5138
12.4729
12.4904
12.4509
12.4532
12.4311
12.4253
12.4389
12.5113
12.4642
12.4882
12.4478
12.444
12.4328
12.4432
12.4255
12.3893
12.3934
12.4303
12.4003
12.4403
12.4665
12.4204
12.4506
12.4675
12.3817
12.4184
12.4294
12.4744
12.4489
12.4448
12.482
12.457
12.471
12.4552
12.3696
12.4934
12.4866
12.5075
12.4839
12.4252
12.379
12.4447
12.4502
12.4636
12.4338
12.4647
12.5102
12.5157
12.4919
12.4905
12.4779
12.5462
12.5551
12.519
12.4733
12.4014
12.3859
12.3724
12.4624
12.459
12.4413
12.4054
12.523
12.5536
12.5663
12.5009
12.5181
12.5115
12.4791
12.4977
12.4622
12.4584
12.4108
12.3837
12.417
12.4488
12.4028
12.4242
12.3537
12.3587
12.3078
12.334
12.4041
12.445
12.4431
12.4601
12.4775
12.4364
12.4496
12.49
12.4997
12.5485
12.5399
12.5381
12.532
12.559
12.5594
12.5558
12.5375
12.5954
12.6067
12.5571
12.5361
12.5163
12.5187
12.5251
12.5019
12.5136
12.535
12.543
12.5694
12.5268
12.5359
12.5729
12.5575
12.4506
12.4971
12.5177
12.5207
12.4477
12.5268
12.4885
12.4894
12.467
12.4994
12.4516
12.4866
12.5065
12.5023
12.4934
12.5289
12.5998
12.5742
12.5054
12.4971
12.5168
12.5304
12.5972
12.5863
12.5479
12.4499
12.395
12.3578
12.3815
12.4227
12.4498
12.3861
12.4408
12.4577
12.4791
12.4879
12.4306
12.4631
12.4587
12.4968
12.445
12.4505
12.4739
12.5521
12.572
12.6117
12.557
12.5355
12.4874
12.4297
12.4484
12.4364
12.449
12.4105
12.383
12.3361
12.3902
12.3971
12.4216
12.4264
12.4824
12.5034
12.5027
12.4478
12.4507
12.4786
12.5103
12.5085
12.5294
12.5378
12.5788
12.6424
12.5983
12.5566
12.5578
12.5828
12.5635
12.4933
12.4797
12.499
12.4564
12.4395
12.4391
12.4543
12.5211
12.5064
12.4996
12.5198
12.5372
12.5388
12.5403
12.581
12.5071
12.5102
12.4577
12.4952
12.4793
12.473
12.4673
12.4606
12.4808
12.4503
12.4887
12.5306
12.5369
12.4834
12.5071
12.4804
12.5084
12.4692
12.4474
12.4248
12.4546
12.4341
12.4577
12.4563
12.4885
12.5055
12.4531
12.4526
12.494
12.481
12.4599
12.4172
12.3777
12.3992
12.4569
12.4465
12.4175
12.4661
12.4657
12.4801
12.4099
12.4121
12.4176
12.4681
12.5145
12.4633
12.4485
12.4855
12.458
12.4648
12.4772
12.4757
12.4888
12.4773
12.4093
12.4221
12.4483
12.4797
12.5241
12.5513
12.5823
12.5097
12.4558
12.3771
12.3791
12.4157
12.4713
12.3955
12.4744
12.5161
12.5149
12.5521
12.5011
12.5334
12.5429
12.5491
12.5968
12.5005
12.5154
12.5278
12.5
12.5475
12.5513
12.5953
12.5413
12.5153
12.5293
12.563
12.5246
12.4773
12.467
12.4589
12.4714
12.4606
12.4736
12.4542
12.4818
12.4558
12.5074
12.4668
12.4971
12.4823
12.4014
12.386
12.4307
12.4787
12.494
12.5379
12.3741
12.4056
12.4273
12.4446
12.441
12.4671
12.4979
12.5173
12.5264
12.5311
12.4471
12.4605
12.4116
12.4753
12.4866
12.471
12.4235
12.398
12.4053
12.4029
12.5371
12.5405
12.5151
12.5186
12.5353
12.5383
12.5597
12.4708
12.49
12.4833
12.4547
12.4841
12.4615
12.386
12.395
12.3537
12.3688
12.4176
12.4184
12.4892
12.5934
12.545
12.5275
12.4712
12.4385
12.4463
12.4552
12.4764
12.4463
12.5035
12.4822
12.4841
12.4627
12.5404
12.5406
12.5647
12.5108
12.4941
12.4729
12.5296
12.4119
12.408
12.4009
12.4193
12.492
12.5317
12.5468
12.5164
12.539
12.5449
12.5235
12.567
12.5437
12.5262
12.5283
12.4822
12.4786
12.4744
12.4519
12.418
12.5895
12.5838
12.5832
12.5473
12.5031
12.5202
12.5267
12.4937
12.5152
12.5358
12.5071
12.5017
12.5046
12.5358
12.4745
12.5165
12.5394
12.5608
12.5444
12.539
12.51
12.5758
12.5915
12.5699
12.5809
12.5529
12.5825
12.6366
12.5541
12.4929
12.5123
12.5443
12.556
12.5544
12.5597
12.5143
12.5162
12.4989
12.4424
12.5058
12.5097
12.4889
12.5028
12.4749
12.4953
12.5152
12.503
12.4905
12.4786
12.4623
12.4998
12.4796
12.4812
12.4345
12.4658
12.489
12.4614
12.4705
12.5057
12.5309
12.4835
12.4323
12.385
12.3532
12.2824
12.2838
12.3178
12.3291
12.3512
12.3782
12.3527
12.4325
12.4732
12.4692
12.4826
12.501
12.5085
12.4762
12.4708
12.4614
12.4456
12.4421
12.4164
12.4097
12.4269
12.4212
12.3955
12.4451
12.4595
12.4965
12.4705
12.4297
12.4001
12.4596
12.4399
12.4657
12.4436
12.482
12.4847
12.488
12.5426
12.5758
12.5443
12.5162
12.422
12.3989
12.4081
12.4382
12.4609
12.4834
12.4431
12.4436
12.4897
12.5208
12.4986
12.4078
12.4362
12.4491
12.4833
12.5342
12.4733
12.5014
12.4974
12.5522
12.5991
12.5719
12.5729
12.5533
12.4831
12.4365
12.4812
12.4501
12.481
12.4487
12.467
12.4653
12.4907
12.4839
12.4759
12.4508
12.6547
12.5475
12.5261
12.4766
12.4115
12.4476
12.4742
12.531
12.5229
12.4953
12.5385
12.582
12.5682
12.5674
12.5722
12.5151
12.5079
12.5319
12.6097
12.6112
12.5097
12.555
12.5513
12.5704
12.5796
12.6005
12.532
12.5494
12.5367
12.5391
12.5017
12.4742
12.5408
12.5519
12.5122
12.4627
12.4673
12.4955
12.5256
12.4505
12.4644
12.5044
12.4779
12.4566
12.4703
12.4629
12.4683
12.5077
12.5088
12.5695
12.5726
12.5303
12.5072
12.4936
12.5125
12.5524
12.5323
12.5148
12.4702
12.4723
12.5538
12.5007
12.4705
12.481
12.4715
12.4438
12.4876
12.4624
12.4305
12.4081
12.4116
12.4357
12.4629
12.4551
12.4816
12.5159
12.5172
12.5593
12.5276
12.5383
12.5295
12.4954
12.4641
12.455
12.5069
12.5514
12.5313
12.5166
12.5143
12.5219
12.542
12.5448
12.481
12.5135
12.4745
12.4356
12.4177
12.4768
12.4653
12.4196
12.4323
12.4966
12.5062
12.4915
12.4895
12.4538
12.4501
12.5061
12.5661
12.5678
12.549
12.504
12.5109
12.4781
12.4895
12.5166
12.4933
12.4855
12.4383
12.4448
12.4944
12.5496
12.5281
12.5495
12.5594
12.5257
12.5132
12.5333
12.48
12.4867
12.4999
12.4794
12.4923
12.51
12.5062
12.5503
12.4923
12.4522
12.4658
12.508
12.4732
12.4692
12.4221
12.4148
12.4551
12.4478
12.4581
12.4031
12.4446
12.4524
12.49
12.4909
12.4421
12.3539
12.4056
12.4464
12.5008
12.5104
12.5402
12.4977
12.4994
12.5124
12.5545
12.4939
12.4657
12.4865
12.4966
12.4967
12.477
12.4705
12.4333
12.4782
12.5302
12.5901
12.5223
12.5542
12.5573
12.5469
12.5576
12.528
12.5301
12.5209
12.5338
12.5829
12.6094
12.5503
12.5151
12.4719
12.45
12.4633
12.4771
12.5075
12.5049
12.5045
12.4911
12.5068
12.5097
12.5356
12.5667
12.5594
12.4344
12.4548
12.4602
12.4157
12.4733
12.4856
12.4629
12.4833
12.5181
12.5565
12.5022
12.4784
12.4617
12.4626
12.4755
12.47
12.4331
12.4528
12.4249
12.3899
12.535
12.5029
12.4561
12.4577
12.4647
12.4445
12.4289
12.4409
12.43
12.4097
12.4344
12.4859
12.484
12.4807
12.5206
12.5333
12.5654
12.5453
12.5316
12.5738
12.4326
12.417
12.445
12.4537
12.451
12.4487
12.4754
12.4517
12.4751
12.4722
12.4359
12.49
12.4709
12.479
12.4287
12.3511
12.3501
12.3526
12.4099
12.4025
12.3838
12.4583
12.4382
12.4559
12.5124
12.5009
12.5215
12.4967
12.4729
12.4888
12.4734
12.4811
12.5128
12.4902
12.5452
12.5653
12.5657
12.4837
12.4817
12.4647
12.3825
12.395
12.3902
12.402
12.4632
12.4561
12.4732
12.447
12.4193
12.4493
12.4392
12.4643
12.4135
12.436
12.428
12.4029
12.4355
12.4782
12.3883
12.3823
12.4413
12.4682
12.5543
12.5936
12.5625
12.5189
12.4705
12.4267
12.4164
12.4045
12.3966
12.3892
12.4014
12.4289
12.4755
12.4493
12.4667
12.4821
12.4933
12.464
12.531
12.5204
12.4211
12.3795
12.4519
12.4034
12.4197
12.4275
12.4358
12.4295
12.4845
12.4633
12.5362
12.547
12.5705
12.6288
12.6085
12.601
12.5495
12.5507
12.5409
12.4825
12.4467
12.404
12.4006
12.3702
12.425
12.4449
12.4631
12.402
12.416
12.4457
12.4815
12.4819
12.4626
12.5205
12.5619
12.5514
12.5372
12.5577
12.557
12.5198
12.5219
12.5695
12.6038
12.6155
12.5217
12.5001
12.4775
12.5411
12.4788
12.5067
12.4971
12.5362
12.5061
12.5146
12.4498
12.4643
12.4922
12.5296
12.5089
12.4371
12.4757
12.5372
12.604
12.5092
12.4918
12.4973
12.5401
12.5297
12.5434
12.5136
12.5371
12.5355
12.58
12.5804
12.5644
12.5285
12.5054
12.4693
12.4072
12.423
12.4092
12.381
12.3786
12.3519
12.3941
12.4287
12.4449
12.3933
12.423
12.4766
12.4567
12.4614
12.4728
12.4814
12.4379
12.4051
12.3661
12.4286
12.3292
12.4057
12.41
12.4619
12.4702
12.4465
12.4919
12.4429
12.4198
12.4569
12.4111
12.3964
12.4143
12.3911
12.4367
12.4885
12.4362
12.4273
12.4273
12.3438
12.448
12.4149
12.4623
12.4854
12.455
12.5023
12.4618
12.4191
12.4895
12.4937
12.5244
12.5367
12.4549
12.4594
12.4439
12.4519
12.4427
12.4697
12.5002
12.5024
12.5097
12.5107
12.472
12.4713
12.4748
12.4309
12.4871
12.4405
12.3893
12.4483
12.4742
12.442
12.492
12.483
12.5244
12.5094
12.5344
12.5263
12.5274
12.5164
12.4605
12.4191
12.4036
12.4301
12.4681
12.4577
12.4399
12.4536
12.4997
12.4944
12.532
12.5007
12.4427
12.461
12.5036
12.4699
12.457
12.4707
12.4572
12.4685
12.5101
12.5461
12.5116
12.5513
12.4808
12.4695
12.4347
12.4748
12.4565
12.4486
12.4528
12.5021
12.541
12.5384
12.5121
12.5559
12.5252
12.5312
12.5419
12.5197
12.4429
12.4339
12.4493
12.4443
12.4599
12.4396
12.4554
12.4293
12.426
12.4541
12.4521
12.4511
12.4441
12.4041
12.3757
12.4303
12.4837
12.4961
12.4499
12.428
12.478
12.4884
12.4799
12.4926
12.4542
12.4723
12.4811
12.502
12.5087
12.5283
12.5478
12.4747
12.5097
12.5432
12.5471
12.5005
12.5084
12.5516
12.5691
12.5251
12.4678
12.4738
12.5065
12.4661
12.4718
12.4972
12.4941
12.5291
12.556
12.5551
12.57
12.5771
12.5266
12.4949
12.4386
12.487
12.4404
12.4477
12.4678
12.4669
12.5
12.4945
12.4844
12.4546
12.4276
12.4551
12.4625
12.4331
12.4703
12.4906
12.4456
12.4738
12.519
12.5363
12.4839
12.4833
12.4733
12.4971
12.4712
12.5002
12.424
12.3707
12.3794
12.379
12.4341
12.422
12.4782
12.5189
12.5215
12.4781
12.531
12.4804
12.4839
12.4649
12.4677
12.4361
12.3591
12.3075
12.3565
12.368
12.4805
12.4934
12.4817
12.4927
12.4567
12.4573
12.4415
12.4229
12.4375
12.4345
12.4592
12.4773
12.5124
12.5316
12.4697
12.4933
12.454
12.4616
12.4473
12.4764
12.4419
12.4569
12.5006
12.4729
12.452
12.4657
12.466
12.4442
12.4749
12.5463
12.5499
12.528
12.4624
12.403
12.4089
12.458
12.4701
12.4883
12.4551
12.4383
12.4919
12.4836
12.4963
12.4732
12.4872
12.4353
12.4371
12.4327
12.4179
12.4556
12.4021
12.4172
12.4056
12.4357
12.46
12.4436
12.4318
12.4366
12.4502
12.5032
12.3655
12.399
12.4267
12.4439
12.4939
12.5217
12.5122
12.4687
12.449
12.4421
12.4767
12.4592
12.4531
12.456
12.4567
12.5039
12.4645
12.4788
12.4569
12.4017
12.5199
12.5108
12.4693
12.457
12.4193
12.4304
12.4515
12.4698
12.4764
12.4543
12.4092
12.4019
12.4076
12.4074
12.4419
12.3802
12.4136
12.3874
12.4763
12.5241
12.3526
12.3399
12.3703
12.4138
12.3788
12.3987
12.4075
12.4313
12.4707
12.5073
12.5124
12.5166
12.506
12.4907
12.4241