/*--------------------------------*- C++ -*----------------------------------*\
| =========                 |                                                 |
| \\      /  F ield         | OpenFOAM: The Open Source CFD Toolbox           |
|  \\    /   O peration     | Version:  v1706                                 |
|   \\  /    A nd           | Web:      www.OpenFOAM.com                      |
|    \\/     M anipulation  |                                                 |
\*---------------------------------------------------------------------------*/
FoamFile
{
    version     2.0;
    format      ascii;
    class       volScalarField;
    location    "0.01";
    object      dsmcSigmaTcRMax;
}
// * * * * * * * * * * * * * * * * * * * * * * * * * * * * * * * * * * * * * //

dimensions      [0 3 -1 0 0 0 0];


internalField   nonuniform List<scalar> 
5120
(
6.338307351e-16
6.114078534e-16
6.459441958e-16
5.995878178e-16
6.171003116e-16
6.056147342e-16
6.046488861e-16
6.429650838e-16
6.12874651e-16
6.08042694e-16
6.167108827e-16
6.319026991e-16
6.488969379e-16
6.242243921e-16
6.437055648e-16
6.173447925e-16
6.25313503e-16
6.62533429e-16
5.895222738e-16
6.464682184e-16
6.093073451e-16
6.34232884e-16
6.173422188e-16
6.309200959e-16
6.234401209e-16
6.177212396e-16
6.184724316e-16
6.338727743e-16
6.361984413e-16
6.123764206e-16
6.713845145e-16
6.279127495e-16
6.247052116e-16
6.279665106e-16
5.882017076e-16
6.42440338e-16
6.286058827e-16
6.179635937e-16
6.592181787e-16
6.134551573e-16
6.158093038e-16
6.261266005e-16
6.173259928e-16
7.066933141e-16
6.369511715e-16
6.266472531e-16
6.508398388e-16
6.04377793e-16
6.492478014e-16
6.342549607e-16
5.913671466e-16
6.265389258e-16
6.387364098e-16
6.103281731e-16
6.179080119e-16
6.362624432e-16
6.107442456e-16
6.037478797e-16
5.981380686e-16
6.219452887e-16
6.278436698e-16
6.077358949e-16
6.480851707e-16
6.903042506e-16
6.20458782e-16
5.846560437e-16
6.594282158e-16
6.030276596e-16
5.923897813e-16
6.096373645e-16
6.291035794e-16
6.843177942e-16
6.499477026e-16
6.30254421e-16
6.261198159e-16
6.501597461e-16
5.934349675e-16
6.185416123e-16
5.782019501e-16
6.156800149e-16
6.272195763e-16
6.038759659e-16
6.12915512e-16
6.102494626e-16
6.46152114e-16
6.018830311e-16
6.688449719e-16
6.513071934e-16
6.127545093e-16
5.956401822e-16
6.073075724e-16
6.167483597e-16
6.121552316e-16
6.294698762e-16
6.059702272e-16
5.882241644e-16
5.754804557e-16
6.067389654e-16
6.282667732e-16
6.500445633e-16
6.520684284e-16
6.425585844e-16
6.168938402e-16
5.919996344e-16
5.737896996e-16
6.351208428e-16
6.393547373e-16
6.124663865e-16
6.315409544e-16
6.272954712e-16
6.256059548e-16
5.969643052e-16
6.311396677e-16
6.282213347e-16
6.229407605e-16
6.135366457e-16
6.064682372e-16
5.989292704e-16
6.202250151e-16
6.455758127e-16
5.809036581e-16
5.955060106e-16
6.152707305e-16
6.277250836e-16
6.373393223e-16
6.057642075e-16
6.122842751e-16
5.986172618e-16
6.078158873e-16
6.276632671e-16
6.0752735e-16
6.041127823e-16
5.899150988e-16
6.080932593e-16
6.208490639e-16
6.259955243e-16
6.346371589e-16
6.700363806e-16
6.6085694e-16
6.334445762e-16
6.044928789e-16
6.310023445e-16
6.269252041e-16
6.048548192e-16
6.672261589e-16
6.16971195e-16
6.181870187e-16
5.897956737e-16
6.009932403e-16
6.407231003e-16
6.515018046e-16
5.969779014e-16
6.015464919e-16
6.159918888e-16
6.264831032e-16
6.10517713e-16
6.012403475e-16
6.80601894e-16
6.123897066e-16
6.356990427e-16
5.901676e-16
6.306423735e-16
6.304981226e-16
6.304981226e-16
6.080115841e-16
6.358994605e-16
6.043033126e-16
6.011560475e-16
6.137577398e-16
6.262695303e-16
5.970698292e-16
6.404066065e-16
6.35360407e-16
6.210632482e-16
6.325970118e-16
6.101382554e-16
5.99367461e-16
6.312353994e-16
6.180661846e-16
6.270964686e-16
6.145191312e-16
6.417586085e-16
6.511060337e-16
6.240789891e-16
5.997357662e-16
6.02653069e-16
6.185107786e-16
5.954781328e-16
6.265559405e-16
6.18574123e-16
6.119769713e-16
6.145366143e-16
5.922007025e-16
6.476247741e-16
5.93639299e-16
6.100550832e-16
6.384010844e-16
6.023301041e-16
6.926480622e-16
6.143873802e-16
6.14660042e-16
6.254583545e-16
6.932197877e-16
6.025872432e-16
6.300939002e-16
5.968122975e-16
6.066036422e-16
6.2240453e-16
6.483181096e-16
6.388520296e-16
6.0704094e-16
6.047426868e-16
5.811686444e-16
6.043178208e-16
6.196399192e-16
6.236237498e-16
6.345134106e-16
6.28996385e-16
6.6804693e-16
6.39019257e-16
6.313236298e-16
6.031955412e-16
6.29411537e-16
5.983917769e-16
6.09543867e-16
5.788045962e-16
6.340068288e-16
6.241894745e-16
5.957914033e-16
6.356999475e-16
6.268908859e-16
6.226575373e-16
6.069713369e-16
6.09742198e-16
6.189822799e-16
5.992850499e-16
6.343783121e-16
6.100599551e-16
6.003081565e-16
6.030963242e-16
6.142262884e-16
6.199843204e-16
6.133557261e-16
5.905284526e-16
6.546416119e-16
6.013303576e-16
6.413838955e-16
6.342572375e-16
5.873586207e-16
6.090864167e-16
6.029531934e-16
6.238543166e-16
6.329384824e-16
6.42603702e-16
6.068735954e-16
6.175357247e-16
6.269448199e-16
5.983186873e-16
6.078600576e-16
5.809473262e-16
5.973357783e-16
6.081078617e-16
6.099188545e-16
5.992131279e-16
6.139881228e-16
6.683558618e-16
6.135790122e-16
6.009639701e-16
6.233743054e-16
6.204147817e-16
6.489639521e-16
6.265905043e-16
6.090801552e-16
6.209502216e-16
6.432973797e-16
6.248415854e-16
6.365530252e-16
6.182139479e-16
6.274946472e-16
6.216144785e-16
6.222031852e-16
6.336422369e-16
6.147769424e-16
5.9106318e-16
6.185288259e-16
6.310344477e-16
6.05009294e-16
6.638779214e-16
6.488008508e-16
6.442321994e-16
6.200652962e-16
6.019177374e-16
5.911585284e-16
6.085875887e-16
6.171990565e-16
6.346618803e-16
6.32185362e-16
6.558346737e-16
5.956554575e-16
5.946591067e-16
6.407336294e-16
6.294953613e-16
6.279204587e-16
6.498606813e-16
6.382462223e-16
5.992605239e-16
6.169712531e-16
6.27529017e-16
6.016807895e-16
6.291682902e-16
6.123406324e-16
5.980950191e-16
6.193224796e-16
6.719700844e-16
5.884220997e-16
6.066141785e-16
6.415866482e-16
6.096077942e-16
6.416698045e-16
6.455165407e-16
6.625552628e-16
6.388945756e-16
6.160882588e-16
6.191324057e-16
6.780621963e-16
6.117198074e-16
6.056480507e-16
6.16439802e-16
5.904316547e-16
5.876968467e-16
6.142090817e-16
6.13626371e-16
5.982138575e-16
6.138772111e-16
5.9861371e-16
5.799789065e-16
6.604775731e-16
6.36850313e-16
6.212146852e-16
6.378480586e-16
6.579765951e-16
5.970227167e-16
5.838226106e-16
6.382876222e-16
6.407570392e-16
6.491347208e-16
6.231346807e-16
6.143104771e-16
6.077086761e-16
6.144240845e-16
6.363267967e-16
6.661826967e-16
6.341700889e-16
6.393759562e-16
6.231870016e-16
6.083561627e-16
6.157220985e-16
5.997760583e-16
6.209825504e-16
6.108840773e-16
6.117190405e-16
6.418877451e-16
6.425178075e-16
6.223919332e-16
6.273400528e-16
6.168148769e-16
5.746136213e-16
5.927792288e-16
6.616722457e-16
5.976659984e-16
6.284222773e-16
5.969786786e-16
5.917786577e-16
6.173292825e-16
6.400219767e-16
6.313583838e-16
6.405021911e-16
6.525002082e-16
6.125387255e-16
6.069679659e-16
5.953116828e-16
6.111043734e-16
5.824077454e-16
6.30277953e-16
6.170527054e-16
6.553583483e-16
5.695609785e-16
6.386775632e-16
6.30855601e-16
6.162264734e-16
5.999808374e-16
6.266892265e-16
6.053784125e-16
6.145827957e-16
6.249885776e-16
6.388020051e-16
6.009647706e-16
6.273959358e-16
6.326355411e-16
5.944424401e-16
6.337269549e-16
6.4652457e-16
6.163817337e-16
6.597213638e-16
6.150900497e-16
5.9248246e-16
6.157736451e-16
5.78506059e-16
6.283319846e-16
5.888060517e-16
5.948790722e-16
6.334682755e-16
6.190804678e-16
6.562242065e-16
6.269520894e-16
6.151658993e-16
5.985649524e-16
6.33615836e-16
5.948246864e-16
5.885687852e-16
5.917398087e-16
6.357992296e-16
6.343464157e-16
6.059516907e-16
6.053435615e-16
5.908686801e-16
5.992880127e-16
6.031052307e-16
5.956775403e-16
5.932028154e-16
6.03941595e-16
6.109989937e-16
6.086332251e-16
6.367193774e-16
6.595105925e-16
6.606758653e-16
6.474762822e-16
5.908595443e-16
6.140090387e-16
6.276056646e-16
6.083696942e-16
6.288841774e-16
6.316766882e-16
6.08223692e-16
6.208669457e-16
6.179147968e-16
6.235352366e-16
6.168564544e-16
6.017922253e-16
6.012315418e-16
6.089334654e-16
6.705747512e-16
5.950219439e-16
6.335313669e-16
6.387789849e-16
5.959625054e-16
6.200048723e-16
6.355109298e-16
5.955448597e-16
6.092335879e-16
5.915525061e-16
6.147140295e-16
6.120694145e-16
6.454409511e-16
6.807725044e-16
5.930646999e-16
5.978040313e-16
6.075362416e-16
6.037739848e-16
6.102220988e-16
6.231376969e-16
6.188382545e-16
5.961108966e-16
5.961475898e-16
6.068188784e-16
5.966042658e-16
6.303032904e-16
5.93748781e-16
6.044990353e-16
6.175537805e-16
6.198236519e-16
5.954520543e-16
6.35373898e-16
6.846059223e-16
6.465263764e-16
6.272343833e-16
5.998798479e-16
6.037447752e-16
5.935891474e-16
6.152709068e-16
6.078687771e-16
6.145935528e-16
6.373506318e-16
6.096421243e-16
6.786731319e-16
6.355966714e-16
5.994009749e-16
6.091486998e-16
6.123924046e-16
6.064336315e-16
6.3707006e-16
6.353088794e-16
6.457642265e-16
6.267829651e-16
6.078097022e-16
5.97835166e-16
5.910925879e-16
6.525733012e-16
6.100120071e-16
6.160225609e-16
5.949159544e-16
6.594289459e-16
6.093044911e-16
6.365392398e-16
6.131833772e-16
6.017597323e-16
6.142206455e-16
6.203672106e-16
5.97048058e-16
6.129490384e-16
5.992614192e-16
6.585290642e-16
6.052065934e-16
6.584992781e-16
5.83542175e-16
6.60075259e-16
6.27595114e-16
6.244773062e-16
5.932380272e-16
6.142562602e-16
6.006757776e-16
6.566951853e-16
5.866782234e-16
6.44850892e-16
5.927545541e-16
6.010462068e-16
6.211860729e-16
6.177358363e-16
6.423999826e-16
6.031508015e-16
6.316810896e-16
6.422608477e-16
6.382778437e-16
6.354295557e-16
6.59063296e-16
6.113848972e-16
6.279671913e-16
6.086045892e-16
6.032218464e-16
6.088051573e-16
6.415207643e-16
6.121428657e-16
6.724178016e-16
5.93150628e-16
6.57472563e-16
6.121234349e-16
6.107554281e-16
6.103368112e-16
6.420817716e-16
6.080836254e-16
6.214227783e-16
6.305957672e-16
5.962082578e-16
6.19825804e-16
6.145922378e-16
5.893121434e-16
6.060657587e-16
5.994308396e-16
6.065483671e-16
6.141247753e-16
6.910228092e-16
6.191269813e-16
6.093968953e-16
6.306240778e-16
5.899587209e-16
6.050591342e-16
6.236153805e-16
6.274002621e-16
6.108163353e-16
6.21325443e-16
5.951608729e-16
5.907661108e-16
5.903345841e-16
6.560293228e-16
6.327311232e-16
6.110436618e-16
6.032014279e-16
6.661391378e-16
6.249244372e-16
6.158974512e-16
6.379527005e-16
5.955323597e-16
6.347675688e-16
5.83736982e-16
6.281437077e-16
6.164383481e-16
6.346154255e-16
5.937863413e-16
6.056717852e-16
6.290175087e-16
6.814179572e-16
6.18507368e-16
6.26868961e-16
5.927401291e-16
6.064859875e-16
5.89603522e-16
6.300650079e-16
5.967731648e-16
6.114761669e-16
6.099259534e-16
6.096627018e-16
5.713642917e-16
6.08611216e-16
6.161772792e-16
6.153884917e-16
5.937405985e-16
6.413264382e-16
6.145262182e-16
6.257076907e-16
6.189356898e-16
6.379630414e-16
6.048230629e-16
6.297440364e-16
6.503656281e-16
6.758591447e-16
6.279177557e-16
6.182357602e-16
6.26959385e-16
6.175719898e-16
6.021157706e-16
6.342308384e-16
6.084777507e-16
6.271577036e-16
6.136489443e-16
6.111680752e-16
6.171641735e-16
6.005922932e-16
6.141299105e-16
6.153794226e-16
6.41401718e-16
6.464509418e-16
6.036872151e-16
6.425464756e-16
6.268459687e-16
6.186767944e-16
6.181764441e-16
6.081398787e-16
6.731855594e-16
5.900003323e-16
6.365073297e-16
6.660951293e-16
6.197373777e-16
6.243875384e-16
6.040651854e-16
5.891705271e-16
5.889382166e-16
6.02709896e-16
6.278083642e-16
6.102587569e-16
6.112074441e-16
6.086550811e-16
6.061124723e-16
5.923913086e-16
5.845241605e-16
6.049428931e-16
6.110022179e-16
5.878721899e-16
6.236076838e-16
6.210567667e-16
6.248400571e-16
6.222529699e-16
6.124257745e-16
6.327855227e-16
6.183280284e-16
6.049630331e-16
6.674884164e-16
6.402841952e-16
6.538219735e-16
6.217460556e-16
6.003044568e-16
5.849479998e-16
6.373164574e-16
6.309803445e-16
6.297805856e-16
6.140458956e-16
6.21091298e-16
6.118683059e-16
5.935475661e-16
6.105299305e-16
6.297958328e-16
5.942109708e-16
6.132855427e-16
6.108810721e-16
6.288886198e-16
6.22892695e-16
6.103053746e-16
5.95622603e-16
6.493345888e-16
6.046994879e-16
5.963764665e-16
6.124200677e-16
6.521903971e-16
6.006070123e-16
6.107275574e-16
6.431856571e-16
6.051734885e-16
6.473384243e-16
6.307236801e-16
5.813107033e-16
5.851830374e-16
6.111826398e-16
5.964544822e-16
5.968417241e-16
6.196124308e-16
6.107313712e-16
6.068658896e-16
6.519215207e-16
6.004823232e-16
6.190447901e-16
5.974455293e-16
6.461754655e-16
6.268096943e-16
6.129600812e-16
5.92359708e-16
6.421545418e-16
6.254278508e-16
6.269988384e-16
6.186411162e-16
6.068910041e-16
6.500801793e-16
6.004328969e-16
6.267758338e-16
6.072822026e-16
6.162029736e-16
5.719865047e-16
6.070536922e-16
6.139217854e-16
6.170319114e-16
6.020618411e-16
5.997820406e-16
6.119578984e-16
5.960932309e-16
6.153357716e-16
5.942254344e-16
5.888375259e-16
6.208563945e-16
6.196463212e-16
6.147625145e-16
6.274846808e-16
6.271020655e-16
5.950672579e-16
6.061993691e-16
6.05516952e-16
6.110818479e-16
5.910370234e-16
6.047850023e-16
6.38336596e-16
5.983111227e-16
6.273987615e-16
5.888969695e-16
6.191203761e-16
6.049900824e-16
6.041960765e-16
6.252106991e-16
6.410907063e-16
6.144809343e-16
6.252393045e-16
6.040889491e-16
6.388127015e-16
6.389279357e-16
6.199727037e-16
6.457554888e-16
6.186011219e-16
5.840893789e-16
6.181961545e-16
6.181577802e-16
5.880598365e-16
6.102965491e-16
6.124312128e-16
6.379771346e-16
6.315860078e-16
5.94426487e-16
6.034869187e-16
6.109564972e-16
5.942931704e-16
5.94149358e-16
6.509081166e-16
5.991046889e-16
6.270417045e-16
6.002768759e-16
6.485064581e-16
6.286900446e-16
6.335722113e-16
6.149570832e-16
6.055473573e-16
6.153142975e-16
5.969092261e-16
6.439779742e-16
6.230340849e-16
6.333435905e-16
6.110687995e-16
6.29032563e-16
5.953410057e-16
5.926155448e-16
6.448294668e-16
6.101814573e-16
6.314317243e-16
6.069068505e-16
6.218060286e-16
6.299237912e-16
6.513218619e-16
6.545646733e-16
6.482788008e-16
6.047569229e-16
6.012992507e-16
6.331397731e-16
6.094495042e-16
6.357213137e-16
6.112597228e-16
6.398901739e-16
6.324252828e-16
5.794112656e-16
6.24754951e-16
5.841165847e-16
6.228408414e-16
6.226034678e-16
6.302010272e-16
6.477341315e-16
6.518797477e-16
6.172499566e-16
6.346442896e-16
6.312978208e-16
6.037854762e-16
6.435286556e-16
6.387750942e-16
6.125193703e-16
6.063439069e-16
6.331191856e-16
6.191927798e-16
6.071626009e-16
6.307598112e-16
6.160983704e-16
5.937332592e-16
6.261322816e-16
6.208292579e-16
6.052370883e-16
6.052514598e-16
6.208570395e-16
5.964537576e-16
6.511572302e-16
6.458707323e-16
6.160986802e-16
5.964193148e-16
5.987456344e-16
6.002717657e-16
6.389671919e-16
6.194517192e-16
6.169254362e-16
5.7951815e-16
6.262733735e-16
6.318628525e-16
6.028477473e-16
5.829988414e-16
6.255042672e-16
6.020815843e-16
6.216559471e-16
6.494528352e-16
6.176335082e-16
6.219566536e-16
6.175503973e-16
5.966824937e-16
6.036099078e-16
6.218267245e-16
6.267990309e-16
6.148242214e-16
6.351113997e-16
6.591601592e-16
6.339549249e-16
6.283664639e-16
6.520022724e-16
6.449225756e-16
6.215996962e-16
5.980538211e-16
6.024975862e-16
6.544071211e-16
6.126308681e-16
6.080763926e-16
6.271423658e-16
6.024331006e-16
6.308247747e-16
6.464838657e-16
6.085159744e-16
6.17334005e-16
5.910151384e-16
6.091725367e-16
7.175709989e-16
5.91520539e-16
6.135776485e-16
6.303493071e-16
5.946002058e-16
5.854403559e-16
6.586311723e-16
6.353936457e-16
6.368408395e-16
5.983796543e-16
5.955800135e-16
6.392466733e-16
6.165226215e-16
6.272376886e-16
5.939715206e-16
6.08027632e-16
5.783198937e-16
6.105876297e-16
6.40585866e-16
5.884318851e-16
5.992486919e-16
6.184421504e-16
6.153503872e-16
6.633404035e-16
6.161108857e-16
6.357399961e-16
6.386271479e-16
6.06358199e-16
6.276606664e-16
6.125876923e-16
6.179733202e-16
6.008839843e-16
6.641459327e-16
5.949986819e-16
6.140990403e-16
6.488694718e-16
6.247732453e-16
6.193865041e-16
6.590877454e-16
6.090661434e-16
5.986213886e-16
6.30977678e-16
6.37087435e-16
6.355972673e-16
6.052968413e-16
6.349770218e-16
6.056069509e-16
6.237877466e-16
6.178179261e-16
6.255529514e-16
6.591056049e-16
6.085316853e-16
6.368575758e-16
6.483956773e-16
6.015481417e-16
6.163314821e-16
6.20449488e-16
5.931151353e-16
6.249949239e-16
6.26911365e-16
6.184858958e-16
6.356648316e-16
6.462715117e-16
6.400364209e-16
6.707789137e-16
6.166979442e-16
5.964887452e-16
6.169481967e-16
5.91982555e-16
6.176123732e-16
6.274748482e-16
6.217086234e-16
6.027007938e-16
6.15165835e-16
6.078628008e-16
6.395889987e-16
6.14537433e-16
5.935434564e-16
6.363786378e-16
6.118021649e-16
6.536775678e-16
6.317533871e-16
5.890198722e-16
6.348442502e-16
6.615597667e-16
6.144824562e-16
6.3011497e-16
6.089162806e-16
6.182575926e-16
6.861203766e-16
6.553742995e-16
6.279999201e-16
5.795052398e-16
6.124865446e-16
6.290388619e-16
6.225848105e-16
6.540912043e-16
6.573372135e-16
5.939118884e-16
6.353813326e-16
6.39206767e-16
6.279359353e-16
6.019451332e-16
5.879859511e-16
6.299066339e-16
6.331604331e-16
6.285043809e-16
6.111673769e-16
6.302354927e-16
6.004363058e-16
6.376786897e-16
5.839250974e-16
6.008596522e-16
5.988471008e-16
6.013614951e-16
6.442422079e-16
6.499775544e-16
6.182031593e-16
6.292766918e-16
6.294973093e-16
6.339135688e-16
6.572035634e-16
6.445299163e-16
6.420934227e-16
6.085540357e-16
5.987968521e-16
5.962898001e-16
6.220283018e-16
6.805310707e-16
6.730340787e-16
6.194257116e-16
6.036913709e-16
6.143989987e-16
5.858716879e-16
5.95529299e-16
6.419638638e-16
6.225998812e-16
6.157220042e-16
6.152993372e-16
6.565288905e-16
6.098440712e-16
6.574894555e-16
6.241513603e-16
6.138246378e-16
6.429358512e-16
6.419457103e-16
6.249374279e-16
6.124042179e-16
5.973146642e-16
6.461586329e-16
6.086022714e-16
6.177033175e-16
6.111267389e-16
5.871209498e-16
6.17494287e-16
6.08794119e-16
6.380729319e-16
6.368011046e-16
6.438596195e-16
5.990802937e-16
6.230759331e-16
6.054046409e-16
6.086251618e-16
6.16279361e-16
6.058977198e-16
5.915749586e-16
6.263851931e-16
6.228884666e-16
6.069472884e-16
6.265139173e-16
5.865389873e-16
6.376610683e-16
5.975100124e-16
6.1048975e-16
6.240110265e-16
5.916373024e-16
6.236539401e-16
6.101525184e-16
6.412723482e-16
6.184857655e-16
6.494931846e-16
6.485823144e-16
5.907704075e-16
6.226638899e-16
6.360928415e-16
6.238694197e-16
6.235635328e-16
6.051422226e-16
6.118379973e-16
6.437803767e-16
5.901136118e-16
6.184946485e-16
5.995921305e-16
6.377567591e-16
6.024574629e-16
6.125401794e-16
6.043516716e-16
6.782491916e-16
6.25873047e-16
6.498714808e-16
6.05142784e-16
5.791224914e-16
6.447939304e-16
6.403647797e-16
5.874816378e-16
6.18747757e-16
6.097792657e-16
6.226110122e-16
6.211652295e-16
6.072945787e-16
6.034987027e-16
6.310265113e-16
6.328062075e-16
6.268489511e-16
6.111750658e-16
6.383627833e-16
5.954115263e-16
6.100338808e-16
6.141682156e-16
6.358557824e-16
6.036475054e-16
6.233674078e-16
6.13439984e-16
6.221294425e-16
6.546545496e-16
6.155567122e-16
6.284415144e-16
6.093783161e-16
6.169859992e-16
6.589126934e-16
5.979513935e-16
6.190124299e-16
5.973645501e-16
6.326447261e-16
6.376343289e-16
6.368639692e-16
6.382075935e-16
5.973699633e-16
6.333278461e-16
6.157987193e-16
6.129334985e-16
5.999543369e-16
6.500530039e-16
5.978167715e-16
6.207730055e-16
6.302978279e-16
6.475322133e-16
6.121334252e-16
6.037914843e-16
6.528488469e-16
6.039460845e-16
6.29634149e-16
6.387036857e-16
6.487231859e-16
6.235109972e-16
6.056597174e-16
6.643095365e-16
5.889536025e-16
6.129976158e-16
7.007747116e-16
6.627184099e-16
6.450855243e-16
6.488701683e-16
5.975987093e-16
6.960342214e-16
6.423286549e-16
6.09025165e-16
6.309711828e-16
5.900489156e-16
6.159759742e-16
6.273432925e-16
6.148966635e-16
6.278834049e-16
6.585820159e-16
6.385096199e-16
6.13658431e-16
5.945138451e-16
6.76276451e-16
6.136345747e-16
6.262377857e-16
6.337523625e-16
5.986403373e-16
6.229008641e-16
6.309694188e-16
6.319512553e-16
6.399301403e-16
6.386078335e-16
6.781736026e-16
6.021051737e-16
6.263905927e-16
6.282868998e-16
6.02060693e-16
5.944961519e-16
6.340099486e-16
6.038960459e-16
6.159611281e-16
6.18843768e-16
6.25323989e-16
6.066723112e-16
5.972516678e-16
6.216139326e-16
5.946822409e-16
6.155323682e-16
5.948979076e-16
5.97275965e-16
5.938867036e-16
6.368071992e-16
6.605451567e-16
5.906554312e-16
6.092475012e-16
5.950362986e-16
6.435226889e-16
5.837075718e-16
6.306416358e-16
6.006937309e-16
6.290960997e-16
6.479559275e-16
6.224281787e-16
6.011179755e-16
6.56758862e-16
5.977724857e-16
6.071760476e-16
6.085248756e-16
6.227686824e-16
6.621736408e-16
5.896781912e-16
6.144446426e-16
5.986933064e-16
6.185589564e-16
6.480977881e-16
5.957347044e-16
5.942171497e-16
6.004939286e-16
6.453191901e-16
6.224894811e-16
6.274984495e-16
6.098967707e-16
5.886261339e-16
6.252982946e-16
6.168292234e-16
6.292946537e-16
5.953541588e-16
6.313112968e-16
5.840148601e-16
6.341946607e-16
6.122981945e-16
6.140160138e-16
6.05038481e-16
6.181153833e-16
6.906578812e-16
6.186903278e-16
6.326026814e-16
6.267938673e-16
6.105774191e-16
6.268947486e-16
6.234420182e-16
6.13290284e-16
6.403603116e-16
6.354589639e-16
6.377201246e-16
6.425674386e-16
6.340905404e-16
6.44302397e-16
6.742758154e-16
6.235369684e-16
5.880314919e-16
6.116143799e-16
6.07145948e-16
6.313364494e-16
5.947457054e-16
6.14187848e-16
6.553982603e-16
6.279188218e-16
6.120982679e-16
6.516937077e-16
6.260707943e-16
6.653034117e-16
6.258091155e-16
6.055807625e-16
6.508923823e-16
6.257366662e-16
5.848739568e-16
6.424086834e-16
5.953127079e-16
6.002412798e-16
6.179545418e-16
6.569538478e-16
5.765664783e-16
6.065472161e-16
6.259502727e-16
6.360346822e-16
6.193013977e-16
6.291001699e-16
6.374812971e-16
6.290227759e-16
6.118303664e-16
6.285664058e-16
6.068738826e-16
6.459145329e-16
6.003299904e-16
6.237291477e-16
6.117023789e-16
6.420404029e-16
6.105173542e-16
6.149186602e-16
6.619846773e-16
5.924129134e-16
6.129156369e-16
6.221085962e-16
6.342451406e-16
6.366430274e-16
6.092956304e-16
6.286659097e-16
6.247927999e-16
6.151033158e-16
6.397979792e-16
6.36514915e-16
6.209741774e-16
6.19536342e-16
6.156331379e-16
6.468520994e-16
6.145404943e-16
6.400380088e-16
6.175609554e-16
6.609445916e-16
5.902447413e-16
6.232971958e-16
5.981797032e-16
6.302900575e-16
6.002146399e-16
6.30299368e-16
6.121032008e-16
5.915769886e-16
6.265293142e-16
6.338481651e-16
6.180937125e-16
5.928249906e-16
6.154021816e-16
6.018060776e-16
6.439221923e-16
6.371887628e-16
5.938509061e-16
6.242533108e-16
6.061859421e-16
6.330847258e-16
6.002308824e-16
6.046920868e-16
6.792704398e-16
6.043668586e-16
5.901021547e-16
6.197465531e-16
6.096059388e-16
6.189665968e-16
6.3804131e-16
6.070520315e-16
6.082322713e-16
6.256232954e-16
5.825839746e-16
6.163012254e-16
6.311230974e-16
6.188908704e-16
6.489723376e-16
6.035355189e-16
6.202110186e-16
6.036869762e-16
6.139460524e-16
6.23940454e-16
6.124842843e-16
6.06332526e-16
6.106347037e-16
5.992594881e-16
6.26900152e-16
6.35858541e-16
6.603054635e-16
6.294591214e-16
6.210003533e-16
6.289717746e-16
6.122910019e-16
6.41642011e-16
6.363600475e-16
6.518973207e-16
6.239978907e-16
5.896497715e-16
6.411107593e-16
6.456639762e-16
6.110413842e-16
6.002976505e-16
6.310297093e-16
6.224985224e-16
6.466336513e-16
6.58245317e-16
6.113470183e-16
6.194555083e-16
6.308041968e-16
7.052671564e-16
5.872255885e-16
5.91524028e-16
6.049469184e-16
5.871568903e-16
6.077986739e-16
6.173826386e-16
6.180275568e-16
6.305303751e-16
5.920158168e-16
6.461631821e-16
6.158693203e-16
6.365511537e-16
5.818846477e-16
6.158041508e-16
6.091043914e-16
6.174740633e-16
6.317394243e-16
5.885824831e-16
6.776013671e-16
6.278131969e-16
6.330419845e-16
6.213177866e-16
6.695485982e-16
5.920885953e-16
6.310450098e-16
7.253690441e-16
6.381640335e-16
6.043758726e-16
6.157662502e-16
5.939890215e-16
6.038411535e-16
6.20239517e-16
6.263614211e-16
6.152464398e-16
6.095336981e-16
6.405954306e-16
6.261317684e-16
6.303119356e-16
6.070351175e-16
6.074352432e-16
6.079960935e-16
6.742751366e-16
6.417032493e-16
6.08403675e-16
6.15845654e-16
6.138565869e-16
6.396542664e-16
5.883007861e-16
5.902384419e-16
6.218740938e-16
6.21894153e-16
6.148124374e-16
6.5134174e-16
6.138330825e-16
6.012411156e-16
6.305613012e-16
5.860215736e-16
6.090182816e-16
5.865953795e-16
6.281357063e-16
6.253631706e-16
6.200327528e-16
6.787972779e-16
5.89773543e-16
6.591365392e-16
6.153771529e-16
6.404163911e-16
6.077227044e-16
6.139608934e-16
6.17766245e-16
6.219022012e-16
6.109870138e-16
6.090912855e-16
5.906529108e-16
6.291692399e-16
6.042534848e-16
6.243887116e-16
5.908313235e-16
5.970632186e-16
6.00038729e-16
6.217850548e-16
6.352104312e-16
5.993296181e-16
6.548663404e-16
6.150223798e-16
6.115487167e-16
6.182621759e-16
6.371263305e-16
6.513324506e-16
5.918516281e-16
6.21390378e-16
6.133451487e-16
5.921725313e-16
6.113859389e-16
6.183410825e-16
6.339501521e-16
5.969766406e-16
6.097653355e-16
6.065084627e-16
5.913205644e-16
6.078314276e-16
6.263874318e-16
6.212867277e-16
6.307183808e-16
6.419318945e-16
6.528003916e-16
6.084466579e-16
6.244207229e-16
6.446046747e-16
6.171031855e-16
6.12091963e-16
6.724429551e-16
6.42198123e-16
6.401487864e-16
6.814109894e-16
6.165355539e-16
6.178422371e-16
6.349212739e-16
6.143301349e-16
6.324969304e-16
6.322982809e-16
6.51894348e-16
6.067290431e-16
6.460810999e-16
6.158747768e-16
5.977531376e-16
6.295088143e-16
6.066769938e-16
6.261277649e-16
6.425355226e-16
6.01059083e-16
6.010136752e-16
6.548598806e-16
6.057778951e-16
6.300782678e-16
6.174556465e-16
6.774185636e-16
6.13403038e-16
6.602122812e-16
6.298766028e-16
6.393661799e-16
6.27691406e-16
6.167590374e-16
5.972232106e-16
6.001574159e-16
6.2765263e-16
6.259142661e-16
5.960989144e-16
6.149259107e-16
6.418555588e-16
6.138059151e-16
6.580577202e-16
5.93261425e-16
6.4103741e-16
6.63611265e-16
5.902773484e-16
6.340291419e-16
6.083774907e-16
6.100033833e-16
6.308991316e-16
6.361522722e-16
6.355010823e-16
6.378711051e-16
6.014495118e-16
6.296989442e-16
6.136270243e-16
6.018338325e-16
6.377784322e-16
6.142494146e-16
6.328891066e-16
5.967905299e-16
6.368578654e-16
6.280009545e-16
6.279576147e-16
6.139392382e-16
6.180192192e-16
6.116766339e-16
6.317051693e-16
6.243318468e-16
6.174336358e-16
6.237586518e-16
6.128879434e-16
6.321811793e-16
6.369064245e-16
6.136836843e-16
6.052865863e-16
6.482032027e-16
6.059242392e-16
6.045433324e-16
6.265019468e-16
6.269528772e-16
6.180858651e-16
7.00179405e-16
6.49698055e-16
6.200179589e-16
6.710178799e-16
6.290514232e-16
6.287288352e-16
6.083361049e-16
6.495156432e-16
6.255258355e-16
6.370329074e-16
5.950329609e-16
6.019359674e-16
6.268694482e-16
6.047027724e-16
6.091652445e-16
6.27221524e-16
6.042433708e-16
6.521886283e-16
6.296193117e-16
6.326890544e-16
5.937000823e-16
6.291693327e-16
6.236872637e-16
5.998744625e-16
6.49993738e-16
6.071480231e-16
5.961048366e-16
6.385604861e-16
6.158776968e-16
5.89906652e-16
5.920781406e-16
6.546742452e-16
6.530540859e-16
5.961301376e-16
5.992086963e-16
6.524662184e-16
5.809783216e-16
6.291883874e-16
6.305029224e-16
6.10353363e-16
6.294340939e-16
6.248748988e-16
5.80276481e-16
6.47971464e-16
6.296038088e-16
6.103307956e-16
6.152772652e-16
6.217675154e-16
6.334589064e-16
5.911546173e-16
5.840358625e-16
5.973823453e-16
5.814843566e-16
5.964754987e-16
6.446834107e-16
5.981473373e-16
6.080169204e-16
6.378594223e-16
6.360756664e-16
6.343978054e-16
6.091084144e-16
6.09447805e-16
6.026780639e-16
6.531097729e-16
6.120206758e-16
6.492241965e-16
6.067706205e-16
5.999490174e-16
6.084361698e-16
6.116536746e-16
6.233143494e-16
6.43051383e-16
6.293601234e-16
6.314715883e-16
6.37539203e-16
6.287216332e-16
6.075569582e-16
5.851324751e-16
6.323124961e-16
6.010724905e-16
6.004908961e-16
6.318031746e-16
6.063327027e-16
6.281451703e-16
6.221618823e-16
6.530295362e-16
5.918751513e-16
6.256646801e-16
6.248437886e-16
5.861218394e-16
5.952952238e-16
6.181127088e-16
6.613707684e-16
6.062038862e-16
6.109333612e-16
6.110892442e-16
6.005430861e-16
6.066795796e-16
6.112254694e-16
6.088895448e-16
6.105676491e-16
6.53723438e-16
6.839953744e-16
6.135779144e-16
5.876944865e-16
6.038206422e-16
6.310007164e-16
5.914385831e-16
6.088164132e-16
6.317954566e-16
6.145602535e-16
6.135247897e-16
6.358008816e-16
5.885156614e-16
5.924362784e-16
6.040210752e-16
6.326337601e-16
6.319895169e-16
6.266602843e-16
6.232966962e-16
5.914933716e-16
5.982321719e-16
6.271457907e-16
6.002758384e-16
6.237114327e-16
5.954964505e-16
5.951941789e-16
6.18391465e-16
6.212514675e-16
6.437440148e-16
6.001962688e-16
6.025850053e-16
6.564455738e-16
6.044767706e-16
6.037302089e-16
6.311000623e-16
6.255329769e-16
6.247424886e-16
6.007179141e-16
6.36618946e-16
6.162593765e-16
6.186023952e-16
6.391951778e-16
6.382872786e-16
6.551786699e-16
6.420827186e-16
6.053026694e-16
6.696433267e-16
6.095817159e-16
6.2713097e-16
6.13389582e-16
6.354382812e-16
5.979772955e-16
6.287223744e-16
6.019663741e-16
6.229387786e-16
5.928780904e-16
6.099238378e-16
6.11033101e-16
6.061031679e-16
6.071253184e-16
6.317567362e-16
6.213686958e-16
5.936056743e-16
6.212537836e-16
6.059229279e-16
6.488318124e-16
6.416195444e-16
6.561237688e-16
6.182270969e-16
6.170913469e-16
6.575354088e-16
6.156404408e-16
6.760672216e-16
6.131939693e-16
6.559238301e-16
6.137855867e-16
6.33379496e-16
6.165377613e-16
6.15776603e-16
6.511846533e-16
6.402131262e-16
6.237218705e-16
6.126798237e-16
5.953958005e-16
6.494063928e-16
5.93062108e-16
6.008455622e-16
6.245890444e-16
6.270743933e-16
5.945282073e-16
7.107496096e-16
6.683759935e-16
5.950641829e-16
6.18186586e-16
6.19693839e-16
6.525393412e-16
6.11772916e-16
6.019230665e-16
6.009169525e-16
6.162179146e-16
7.1392075e-16
5.849884095e-16
6.271884565e-16
6.178301996e-16
6.178209313e-16
6.212314678e-16
6.050787562e-16
6.07491684e-16
6.07432812e-16
5.906426892e-16
6.469614148e-16
6.153730979e-16
6.136500992e-16
6.042367299e-16
6.442215354e-16
6.53805779e-16
6.241718523e-16
6.128290183e-16
6.046185547e-16
5.930536881e-16
5.970782364e-16
6.92610753e-16
6.134637158e-16
6.350279618e-16
6.215627764e-16
6.193609945e-16
5.981322501e-16
6.21693178e-16
6.511467095e-16
6.070476402e-16
5.977629093e-16
5.951607038e-16
6.091074081e-16
6.074785752e-16
6.205695517e-16
6.33191401e-16
6.371165656e-16
6.172201317e-16
6.51691025e-16
6.210355517e-16
6.070286123e-16
6.028335751e-16
6.228715213e-16
6.483407648e-16
6.573646498e-16
5.80446773e-16
6.280653675e-16
6.360113566e-16
6.140249745e-16
6.668952777e-16