/*--------------------------------*- C++ -*----------------------------------*\
| =========                 |                                                 |
| \\      /  F ield         | OpenFOAM: The Open Source CFD Toolbox           |
|  \\    /   O peration     | Version:  v1706                                 |
|   \\  /    A nd           | Web:      www.OpenFOAM.com                      |
|    \\/     M anipulation  |                                                 |
\*---------------------------------------------------------------------------*/
FoamFile
{
    version     2.0;
    format      ascii;
    class       volScalarField;
    location    "0.01";
    object      dsmcRhoNMean_N2;
}
// * * * * * * * * * * * * * * * * * * * * * * * * * * * * * * * * * * * * * //

dimensions      [0 -3 0 0 0 0 0];


internalField   nonuniform List<scalar> 
5120
(
9.7533
9.7285
9.7527
9.7382
9.7524
9.7149
9.7463
9.7424
9.7571
9.7035
9.7193
9.6928
9.6955
9.6232
9.6127
9.6009
9.6318
9.7057
9.6807
9.7017
9.6214
9.6537
9.6882
9.67
9.6313
9.6768
9.6548
9.6455
9.6438
9.6393
9.6529
9.6716
9.6974
9.7417
9.6827
9.6324
9.6181
9.5543
9.5464
9.5878
9.6237
9.5997
9.6512
9.6142
9.6434
9.696
9.7415
9.6967
9.6687
9.6016
9.5541
9.578
9.56
9.6082
9.6044
9.6495
9.6722
9.6657
9.6497
9.64
9.7615
9.7092
9.7479
9.7328
9.7111
9.6849
9.6579
9.6862
9.69
9.7089
9.7391
9.6948
9.7088
9.6682
9.6808
9.6831
9.6764
9.703
9.7108
9.7364
9.7786
9.7732
9.7543
9.6916
9.6847
9.6625
9.7154
9.7208
9.7837
9.8459
9.8138
9.8007
9.7632
9.8196
9.7813
9.732
9.6265
9.6313
9.688
9.7348
9.7215
9.7195
9.7561
9.7791
9.7553
9.7352
9.7096
9.7355
9.6772
9.6835
9.6915
9.7065
9.6784
9.5527
9.5644
9.6256
9.6389
9.6436
9.6911
9.689
9.6979
9.6723
9.6375
9.6317
9.6753
9.6724
9.6546
9.6953
9.65
9.6449
9.6317
9.637
9.6685
9.7125
9.7013
9.6722
9.6677
9.7472
9.6994
9.6927
9.7198
9.7336
9.7565
9.7244
9.747
9.7495
9.7483
9.7619
9.7645
9.6972
9.7083
9.7283
9.7263
9.6915
9.7128
9.7367
9.7603
9.7006
9.7108
9.7465
9.7487
9.7556
9.7855
9.7464
9.769
9.7724
9.7392
9.7341
9.7628
9.7789
9.7628
9.7276
9.7095
9.7415
9.7368
9.7824
9.7634
9.7376
9.7302
9.775
9.7715
9.7707
9.7561
9.7139
9.764
9.7792
9.7887
9.7583
9.7198
9.748
9.7159
9.7214
9.7487
9.7285
9.7042
9.7516
9.7668
9.7927
9.792
9.7585
9.6994
9.701
9.66
9.6427
9.674
9.6999
9.7436
9.7396
9.7606
9.7291
9.7352
9.8009
9.7681
9.8394
9.8028
9.8442
9.821
9.7888
9.7641
9.7688
9.7567
9.7922
9.7614
9.7741
9.7459
9.7168
9.7015
9.666
9.7072
9.7353
9.6991
9.7101
9.6865
9.6867
9.6874
9.652
9.7024
9.7041
9.7574
9.7856
9.6856
9.718
9.7279
9.6939
9.6632
9.6972
9.765
9.8035
9.7723
9.7343
9.7075
9.6669
9.6545
9.684
9.72
9.6771
9.6647
9.6603
9.6998
9.6747
9.6691
9.682
9.6985
9.6526
9.5898
9.5398
9.5718
9.5986
9.6446
9.6731
9.6373
9.6706
9.6897
9.6784
9.7024
9.7033
9.7392
9.6963
9.7121
9.6846
9.7005
9.692
9.676
9.6536
9.6446
9.6982
9.6769
9.6409
9.69
9.7004
9.7008
9.7363
9.7255
9.6951
9.7375
9.7791
9.7661
9.7311
9.7571
9.7315
9.6876
9.73
9.7412
9.7057
9.7314
9.682
9.7024
9.7312
9.6891
9.6834
9.7257
9.7229
9.7086
9.6927
9.6664
9.6357
9.6059
9.6714
9.6453
9.6617
9.7548
9.7141
9.7175
9.7574
9.729
9.6963
9.7152
9.7114
9.777
9.7404
9.7267
9.6882
9.6857
9.6458
9.6711
9.7441
9.7583
9.735
9.7428
9.7338
9.6183
9.6522
9.6344
9.6229
9.6379
9.6287
9.6228
9.6503
9.69
9.7079
9.703
9.7217
9.7041
9.6776
9.7075
9.7364
9.6577
9.689
9.6798
9.6207
9.6331
9.5777
9.6074
9.6555
9.6192
9.5776
9.5984
9.6567
9.6556
9.6589
9.6416
9.6651
9.6949
9.714
9.6566
9.6657
9.6831
9.6597
9.6775
9.6586
9.6102
9.6252
9.6713
9.6875
9.7245
9.7427
9.7291
9.7233
9.6792
9.672
9.7034
9.7471
9.7384
9.7222
9.7254
9.6705
9.6978
9.6841
9.6432
9.6
9.6534
9.6464
9.6739
9.7056
9.7009
9.6889
9.685
9.6596
9.6887
9.6996
9.7473
9.7701
9.7757
9.7567
9.7482
9.7261
9.7191
9.7281
9.7085
9.7099
9.7198
9.7374
9.7271
9.7544
9.742
9.7741
9.7171
9.7246
9.7021
9.7156
9.7037
9.7106
9.7419
9.767
9.806
9.7833
9.7933
9.7523
9.7101
9.7158
9.659
9.683
9.6503
9.6777
9.6736
9.6617
9.6992
9.6977
9.7146
9.716
9.7298
9.6977
9.7057
9.7074
9.7813
9.7563
9.7344
9.6811
9.6744
9.641
9.6755
9.6678
9.6378
9.6728
9.6559
9.6904
9.7338
9.7433
9.7364
9.7215
9.7057
9.7161
9.6721
9.6936
9.6444
9.6687
9.6313
9.6655
9.6627
9.664
9.7789
9.8097
9.8152
9.8398
9.8666
9.806
9.765
9.7137
9.7403
9.6844
9.7207
9.6966
9.7384
9.7303
9.7525
9.705
9.7204
9.7577
9.7678
9.7557
9.7009
9.6574
9.6842
9.7108
9.7085
9.725
9.7332
9.7318
9.7863
9.7929
9.8134
9.7424
9.7165
9.6968
9.6679
9.6859
9.6757
9.6889
9.7373
9.6877
9.7881
9.7795
9.7988
9.7852
9.7526
9.7752
9.7452
9.7845
9.805
9.7972
9.7898
9.7742
9.7642
9.7841
9.7658
9.7563
9.7286
9.7533
9.7769
9.7505
9.6672
9.7149
9.7483
9.6886
9.683
9.6739
9.6687
9.6741
9.7433
9.7106
9.7281
9.7126
9.6997
9.6706
9.6817
9.7208
9.7456
9.7036
9.6765
9.6947
9.6945
9.651
9.6514
9.7029
9.7338
9.7513
9.7015
9.6722
9.6201
9.6608
9.6707
9.7354
9.7454
9.7274
9.6756
9.6877
9.7214
9.7503
9.7233
9.717
9.6764
9.6811
9.6738
9.6905
9.7302
9.8032
9.7513
9.7902
9.8054
9.7888
9.7936
9.7262
9.6637
9.6899
9.7
9.696
9.6749
9.7057
9.704
9.7034
9.8002
9.7351
9.7077
9.7396
9.745
9.7231
9.7031
9.7124
9.6766
9.6832
9.7351
9.7303
9.7406
9.752
9.7289
9.7506
9.7589
9.7927
9.7413
9.7603
9.7095
9.6971
9.7199
9.7067
9.7319
9.746
9.7286
9.7388
9.7159
9.6926
9.6156
9.6684
9.671
9.7113
9.7092
9.6873
9.7374
9.7286
9.725
9.6969
9.6628
9.6374
9.6075
9.6056
9.6189
9.706
9.7119
9.6985
9.6633
9.7211
9.7487
9.7724
9.724
9.7029
9.7181
9.6974
9.6584
9.6654
9.6673
9.688
9.7072
9.7055
9.7582
9.7514
9.7021
9.6675
9.641
9.6589
9.6692
9.6183
9.6722
9.6563
9.7102
9.7071
9.6719
9.6795
9.7424
9.7602
9.7738
9.7564
9.748
9.7581
9.7418
9.6982
9.6817
9.7281
9.7343
9.6728
9.6222
9.6504
9.6678
9.6463
9.6342
9.6246
9.6769
9.7177
9.6999
9.738
9.7498
9.7527
9.7182
9.6836
9.6364
9.6686
9.6805
9.6758
9.7093
9.6968
9.7407
9.7203
9.7451
9.7551
9.7001
9.706
9.6742
9.6726
9.6413
9.6712
9.6985
9.7074
9.7065
9.7417
9.7334
9.688
9.6838
9.6946
9.7361
9.7698
9.7442
9.6997
9.6898
9.655
9.7024
9.7276
9.7344
9.6995
9.6985
9.6899
9.7101
9.6911
9.7285
9.7328
9.7172
9.7329
9.7014
9.6802
9.6726
9.6796
9.7456
9.7485
9.7391
9.7511
9.7044
9.6881
9.7179
9.7418
9.7537
9.7825
9.7786
9.77
9.6625
9.6339
9.6567
9.5983
9.6415
9.6579
9.6821
9.6727
9.6771
9.6848
9.7172
9.6967
9.7441
9.7437
9.6578
9.6821
9.6765
9.6946
9.699
9.737
9.6616
9.6857
9.6972
9.6836
9.7001
9.7415
9.7206
9.7042
9.6839
9.6666
9.6622
9.687
9.68
9.6824
9.7269
9.7399
9.6908
9.661
9.6318
9.624
9.7625
9.7316
9.6967
9.6351
9.59
9.5587
9.5456
9.6464
9.6677
9.6131
9.6585
9.6693
9.7164
9.7311
9.7787
9.7686
9.7476
9.736
9.7658
9.7656
9.632
9.6767
9.7035
9.7088
9.7613
9.7254
9.7315
9.695
9.6987
9.7462
9.743
9.7605
9.7319
9.7506
9.7402
9.6664
9.7131
9.6419
9.6163
9.6328
9.6862
9.678
9.7174
9.7417
9.7283
9.7331
9.7546
9.6563
9.6364
9.6713
9.7113
9.7074
9.7137
9.6586
9.6715
9.697
9.7092
9.7191
9.6836
9.6868
9.7857
9.7643
9.7456
9.6993
9.7499
9.7662
9.7207
9.7342
9.7312
9.7314
9.7174
9.7359
9.692
9.7375
9.7818
9.7708
9.7375
9.7198
9.7881
9.7976
9.7669
9.8064
9.827
9.874
9.8311
9.8172
9.7851
9.7561
9.7136
9.6754
9.672
9.7324
9.7741
9.7536
9.7509
9.7492
9.769
9.7308
9.7206
9.7449
9.7481
9.7759
9.7827
9.8041
9.8094
9.8122
9.8261
9.8275
9.7544
9.7806
9.7579
9.7138
9.6802
9.6767
9.6507
9.6389
9.6276
9.6642
9.7048
9.7168
9.5791
9.6326
9.628
9.6509
9.6465
9.6506
9.7104
9.6452
9.6406
9.6554
9.6618
9.6546
9.6591
9.6402
9.6562
9.6498
9.6407
9.6332
9.5736
9.5867
9.6781
9.6747
9.6424
9.6675
9.7028
9.6677
9.6779
9.6589
9.6601
9.6714
9.6978
9.7127
9.7242
9.7021
9.7511
9.7247
9.6605
9.674
9.6848
9.6819
9.6239
9.6326
9.676
9.6666
9.6316
9.6385
9.6808
9.6827
9.7433
9.7129
9.7103
9.6862
9.7349
9.7117
9.6676
9.6746
9.6716
9.6499
9.6195
9.6295
9.7912
9.8004
9.7527
9.7559
9.7913
9.7769
9.7274
9.7105
9.6798
9.7207
9.6847
9.7071
9.7575
9.7606
9.8186
9.7704
9.741
9.6995
9.6865
9.7049
9.6943
9.6959
9.7392
9.7701
9.7718
9.7415
9.7092
9.7354
9.7283
9.713
9.6616
9.6597
9.6665
9.6742
9.6777
9.6389
9.6732
9.6676
9.7198
9.7097
9.7481
9.7439
9.7576
9.7584
9.7424
9.7555
9.7433
9.7504
9.7578
9.7806
9.7459
9.6753
9.6478
9.7174
9.7154
9.7228
9.6765
9.698
9.6762
9.7293
9.713
9.7102
9.7189
9.756
9.7875
9.8051
9.7932
9.7526
9.6729
9.677
9.6708
9.7146
9.7347
9.6685
9.6219
9.6584
9.6851
9.7457
9.749
9.7419
9.6645
9.6669
9.6966
9.6917
9.6948
9.6693
9.7022
9.6735
9.6487
9.6709
9.6832
9.7227
9.7081
9.7112
9.7001
9.6758
9.6845
9.6763
9.6736
9.6504
9.7826
9.7349
9.7398
9.7153
9.7045
9.6938
9.7123
9.7032
9.71
9.7034
9.6688
9.6309
9.6586
9.6895
9.7064
9.7337
9.752
9.7748
9.7812
9.7531
9.6824
9.6999
9.6982
9.6642
9.6764
9.6896
9.6597
9.6934
9.6867
9.7193
9.7487
9.736
9.728
9.7066
9.6935
9.6928
9.6767
9.6822
9.6697
9.6828
9.7553
9.7825
9.7403
9.7733
9.7562
9.7569
9.7488
9.7125
9.7073
9.7262
9.7351
9.7473
9.7812
9.7025
9.6904
9.6716
9.6595
9.7077
9.7272
9.7603
9.7545
9.717
9.6589
9.6741
9.6781
9.6953
9.7526
9.7934
9.803
9.8136
9.7511
9.6928
9.6457
9.6779
9.6919
9.7088
9.7832
9.7491
9.7574
9.7724
9.707
9.757
9.7554
9.749
9.7166
9.7091
9.7544
9.7621
9.7828
9.7929
9.7665
9.7512
9.7493
9.7315
9.7181
9.7167
9.6803
9.6974
9.7043
9.7204
9.7246
9.6876
9.6923
9.7103
9.6843
9.6572
9.6214
9.6436
9.6459
9.65
9.6449
9.6596
9.6843
9.7689
9.787
9.7917
9.7694
9.7646
9.743
9.7604
9.8701
9.8127
9.7931
9.724
9.6912
9.7015
9.7239
9.8163
9.7775
9.7918
9.7598
9.7467
9.7429
9.7175
9.7342
9.7514
9.7934
9.7875
9.8363
9.8607
9.6491
9.6369
9.6079
9.6671
9.6486
9.6416
9.6917
9.6622
9.7678
9.7533
9.747
9.7846
9.8145
9.7917
9.8007
9.7422
9.7307
9.7117
9.661
9.705
9.7509
9.7777
9.7356
9.6891
9.7013
9.719
9.696
9.7439
9.7696
9.7094
9.7271
9.6608
9.6638
9.7008
9.6945
9.6954
9.6768
9.6651
9.7054
9.7235
9.7231
9.7159
9.7276
9.7412
9.7569
9.7658
9.7748
9.7578
9.7186
9.7391
9.687
9.7116
9.7138
9.7358
9.6678
9.7064
9.7524
9.7582
9.748
9.7532
9.7203
9.6739
9.7166
9.6292
9.6576
9.6341
9.6674
9.7061
9.73
9.7841
9.7768
9.7709
9.7857
9.8175
9.8053
9.7736
9.774
9.7536
9.7732
9.7221
9.6977
9.6954
9.6487
9.676
9.6463
9.6781
9.6928
9.6864
9.6821
9.697
9.7228
9.6954
9.6889
9.6778
9.6308
9.6749
9.7376
9.7286
9.7538
9.7506
9.7183
9.6889
9.674
9.6419
9.6711
9.7145
9.6528
9.6595
9.6466
9.6207
9.6691
9.5997
9.5732
9.5725
9.6072
9.622
9.6348
9.6444
9.7041
9.6989
9.7064
9.6987
9.6454
9.6719
9.6879
9.6795
9.6689
9.6468
9.6576
9.6235
9.6513
9.6935
9.6607
9.6561
9.6472
9.6419
9.6941
9.653
9.6152
9.6388
9.5608
9.6026
9.6747
9.7238
9.7081
9.6861
9.7089
9.7174
9.7295
9.7205
9.7176
9.6869
9.6642
9.6622
9.7574
9.7248
9.6408
9.6327
9.6201
9.5794
9.7368
9.7065
9.6529
9.6479
9.6899
9.6798
9.6783
9.7226
9.7083
9.7216
9.7487
9.7771
9.8098
9.7889
9.7842
9.8416
9.7828
9.7643
9.7243
9.724
9.7469
9.7814
9.7542
9.7493
9.7298
9.7772
9.7543
9.7944
9.7829
9.8187
9.7674
9.8308
9.8363
9.8413
9.8259
9.7989
9.7971
9.7778
9.7908
9.7431
9.7626
9.7522
9.7712
9.8398
9.7763
9.725
9.737
9.7633
9.7689
9.7568
9.7257
9.7483
9.7235
9.7541
9.6936
9.722
9.6871
9.7094
9.7756
9.7514
9.7054
9.7153
9.7493
9.727
9.7455
9.796
9.7533
9.7902
9.7257
9.7207
9.7177
9.6999
9.7071
9.7298
9.7218
9.7509
9.7276
9.7165
9.7171
9.7177
9.7086
9.7419
9.7495
9.7663
9.8007
9.8202
9.8021
9.725
9.7635
9.7627
9.7362
9.7483
9.7644
9.7437
9.6931
9.7399
9.7117
9.686
9.6896
9.6882
9.6769
9.6252
9.6355
9.6494
9.6725
9.6979
9.7111
9.7571
9.7574
9.7539
9.8135
9.8345
9.8435
9.8341
9.8289
9.778
9.7412
9.7709
9.733
9.7093
9.6621
9.6813
9.722
9.6797
9.6982
9.7232
9.7364
9.75
9.7256
9.7057
9.7427
9.7043
9.7468
9.7185
9.7256
9.714
9.7045
9.6876
9.702
9.6361
9.707
9.7333
9.735
9.7477
9.7412
9.7391
9.6672
9.6699
9.6681
9.679
9.7022
9.7359
9.7381
9.7161
9.711
9.7488
9.7757
9.766
9.7322
9.7097
9.7619
9.714
9.7107
9.7275
9.6887
9.7124
9.6807
9.6745
9.6675
9.6795
9.6855
9.7186
9.7536
9.7324
9.8043
9.855
9.8124
9.7995
9.7994
9.8005
9.6472
9.6572
9.6497
9.7211
9.7265
9.7603
9.7728
9.7498
9.7448
9.711
9.7213
9.7133
9.7279
9.7228
9.6936
9.6636
9.6541
9.6867
9.6854
9.6463
9.7347
9.7742
9.7884
9.7972
9.7662
9.7462
9.713
9.6994
9.6777
9.6829
9.7239
9.7232
9.6969
9.6495
9.681
9.7347
9.69
9.7084
9.7137
9.7394
9.792
9.7667
9.7275
9.7064
9.7389
9.7603
9.7592
9.7308
9.7113
9.6747
9.7392
9.7737
9.7361
9.7775
9.7765
9.7941
9.7881
9.8232
9.8138
9.8014
9.7413
9.7231
9.7231
9.6764
9.6562
9.6158
9.6336
9.6721
9.6672
9.6287
9.6442
9.6297
9.661
9.7091
9.7987
9.7836
9.7937
9.766
9.7863
9.7812
9.6808
9.6699
9.68
9.6777
9.6781
9.6381
9.6899
9.6763
9.6941
9.7016
9.6426
9.7023
9.7381
9.7012
9.7223
9.7385
9.6711
9.6548
9.6502
9.6355
9.6569
9.671
9.6894
9.6888
9.7144
9.7628
9.7461
9.7856
9.8022
9.801
9.8168
9.7904
9.8153
9.7841
9.7467
9.6625
9.7289
9.7487
9.7505
9.7214
9.7299
9.7168
9.7131
9.6599
9.6572
9.6535
9.6419
9.6762
9.64
9.6477
9.6262
9.6605
9.6406
9.6676
9.6466
9.6841
9.6827
9.6768
9.699
9.7315
9.7504
9.682
9.7271
9.7316
9.7284
9.7587
9.7649
9.7544
9.794
9.854
9.8554
9.79
9.7549
9.7375
9.7356
9.6994
9.6942
9.7493
9.8015
9.7697
9.8337
9.8011
9.7595
9.7233
9.7449
9.7445
9.7549
9.7466
9.6846
9.7044
9.7107
9.7717
9.7807
9.7592
9.816
9.8229
9.7647
9.7318
9.7288
9.7967
9.6971
9.7292
9.7624
9.7165
9.7253
9.7319
9.7161
9.7123
9.7429
9.7541
9.7084
9.676
9.6418
9.6762
9.6315
9.6569
9.6704
9.7085
9.7225
9.7091
9.7216
9.706
9.7071
9.7117
9.6978
9.6612
9.6818
9.6649
9.5953
9.6154
9.6375
9.6517
9.6607
9.6461
9.6914
9.6712
9.6937
9.7155
9.6646
9.7264
9.6978
9.7494
9.763
9.7814
9.7517
9.7955
9.7435
9.7513
9.7636
9.758
9.7182
9.6916
9.7082
9.6837
9.6767
9.674
9.709
9.6994
9.69
9.6709
9.7461
9.7569
9.7844
9.7163
9.71
9.7042
9.7354
9.7393
9.7645
9.7987
9.7994
9.81
9.7465
9.6773
9.6824
9.6839
9.6622
9.702
9.7199
9.7113
9.7437
9.7218
9.7398
9.7753
9.8049
9.7573
9.7619
9.6694
9.7298
9.7006
9.7029
9.6926
9.6839
9.7646
9.7075
9.6476
9.6827
9.6525
9.692
9.7039
9.7806
9.8079
9.782
9.791
9.7672
9.7299
9.7896
9.7467
9.6943
9.737
9.7218
9.7277
9.7061
9.7001
9.7345
9.7205
9.7613
9.7601
9.7577
9.7486
9.7796
9.8174
9.8371
9.7875
9.7745
9.7739
9.7256
9.6893
9.6854
9.6976
9.7206
9.7278
9.7311
9.8001
9.7771
9.7459
9.7534
9.7696
9.7718
9.7501
9.7975
9.7674
9.7923
9.8222
9.7941
9.7938
9.7973
9.8364
9.8452
9.8438
9.7933
9.7607
9.7298
9.6988
9.7085
9.7494
9.7685
9.7584
9.7695
9.8466
9.6716
9.7389
9.7221
9.8025
9.8087
9.8029
9.7512
9.7167
9.6578
9.6625
9.6887
9.6753
9.6788
9.6944
9.6777
9.6815
9.7217
9.6832
9.7065
9.6585
9.7968
9.7609
9.717
9.6973
9.7299
9.6943
9.7224
9.7487
9.7302
9.7767
9.7858
9.7173
9.7683
9.7328
9.7032
9.7488
9.7795
9.7371
9.7517
9.7992
9.6928
9.708
9.6984
9.6814
9.7069
9.7385
9.721
9.6853
9.6553
9.6741
9.7014
9.7264
9.7416
9.7376
9.7136
9.6985
9.6645
9.7011
9.6712
9.6675
9.6655
9.6781
9.7208
9.7073
9.7037
9.7096
9.7265
9.7199
9.7227
9.7014
9.7136
9.7264
9.7344
9.7
9.662
9.6544
9.6917
9.7567
9.685
9.6742
9.6631
9.6768
9.7057
9.7092
9.7326
9.7267
9.7357
9.7431
9.7353
9.7889
9.7407
9.7328
9.685
9.7178
9.7055
9.7514
9.7602
9.6724
9.6647
9.672
9.7817
9.7664
9.7631
9.7242
9.7164
9.674
9.6632
9.6558
9.6706
9.6589
9.6584
9.6924
9.7206
9.7619
9.8043
9.7805
9.7862
9.7728
9.7414
9.756
9.7486
9.761
9.7772
9.7534
9.7476
9.7403
9.7653
9.6846
9.66
9.6893
9.6692
9.6581
9.6719
9.6914
9.6764
9.7241
9.7085
9.7303
9.7171
9.727
9.6075
9.6606
9.6135
9.6209
9.6723
9.663
9.6589
9.6967
9.7263
9.7334
9.7164
9.7256
9.7737
9.7258
9.7263
9.7173
9.7223
9.6917
9.6646
9.6182
9.839
9.7949
9.8039
9.8222
9.8129
9.7327
9.6579
9.6245
9.6411
9.6283
9.6636
9.6934
9.7131
9.6835
9.6991
9.6482
9.639
9.7173
9.7656
9.7992
9.6727
9.6375
9.6726
9.6958
9.6984
9.7222
9.7505
9.7647
9.7377
9.6922
9.6798
9.698
9.7025
9.7524
9.7962
9.8055
9.8365
9.7829
9.7238
9.6955
9.618
9.6163
9.6218
9.6401
9.6309
9.6372
9.6243
9.6524
9.6728
9.6745
9.6539
9.6568
9.63
9.6729
9.6858
9.671
9.6551
9.6807
9.6667
9.6407
9.7133
9.7313
9.6636
9.6487
9.6643
9.6566
9.6925
9.6958
9.6933
9.7096
9.7295
9.7584
9.7139
9.7157
9.6717
9.7258
9.7295
9.763
9.7232
9.7649
9.6436
9.6261
9.6241
9.6277
9.6675
9.716
9.7357
9.7137
9.7233
9.6827
9.6791
9.6862
9.7556
9.7421
9.7558
9.7464
9.6859
9.6402
9.7095
9.6681
9.7379
9.7426
9.7438
9.755
9.7568
9.7647
9.7156
9.7768
9.7649
9.7754
9.793
9.7349
9.6892
9.7163
9.7261
9.6461
9.7017
9.731
9.7454
9.7555
9.698
9.6663
9.6613
9.78
9.7906
9.8092
9.8154
9.8071
9.8069
9.7686
9.733
9.7231
9.7673
9.7645
9.7514
9.7448
9.7231
9.724
9.704
9.6895
9.7671
9.6944
9.701
9.6213
9.6346
9.6765
9.7095
9.7459
9.7372
9.7639
9.7542
9.7315
9.6957
9.683
9.6503
9.6627
9.6715
9.6722
9.678
9.7096
9.7303
9.7526
9.7476
9.7491
9.707
9.6796
9.6731
9.6922
9.7608
9.7544
9.7194
9.7501
9.7616
9.8384
9.8031
9.785
9.7266
9.7373
9.7605
9.7429
9.6443
9.6618
9.6514
9.6409
9.6576
9.7015
9.7411
9.7599
9.7554
9.7258
9.7467
9.7014
9.7201
9.7295
9.7305
9.721
9.7459
9.7162
9.7074
9.6758
9.6537
9.6295
9.7004
9.7407
9.7613
9.7079
9.6372
9.6311
9.599
9.614
9.5956
9.5582
9.5194
9.5061
9.5333
9.5305
9.5615
9.611
9.6843
9.6715
9.7243
9.7277
9.6769
9.6839
9.7059
9.6926
9.7564
9.7703
9.7979
9.7221
9.6873
9.6173
9.6222
9.6251
9.6287
9.6409
9.656
9.6579
9.6489
9.7
9.6573
9.7169
9.7199
9.7155
9.6853
9.6896
9.7064
9.7008
9.7477
9.7486
9.7479
9.7482
9.7482
9.7158
9.7155
9.6887
9.6529
9.6683
9.6599
9.6732
9.6911
9.6524
9.6366
9.6206
9.6708
9.7027
9.7259
9.7488
9.7407
9.6972
9.7374
9.7339
9.7517
9.7395
9.7085
9.7037
9.6945
9.6717
9.6677
9.6962
9.5179
9.5485
9.6206
9.6083
9.6051
9.6206
9.5828
9.5896
9.6534
9.6418
9.6345
9.6301
9.602
9.6523
9.7075
9.6825
9.6643
9.668
9.6432
9.5744
9.6954
9.6655
9.6801
9.7379
9.7439
9.7553
9.7941
9.7439
9.7167
9.7012
9.735
9.686
9.6929
9.7383
9.7274
9.7262
9.7094
9.6342
9.636
9.6584
9.7894
9.8095
9.7469
9.6992
9.6902
9.7244
9.7317
9.7388
9.7239
9.7665
9.7158
9.7062
9.6472
9.6566
9.6665
9.7197
9.7564
9.7714
9.7524
9.7613
9.7929
9.831
9.8273
9.7823
9.7338
9.7009
9.6733
9.6912
9.6458
9.6764
9.6567
9.6569
9.6929
9.7167
9.687
9.6958
9.6958
9.7474
9.7943
9.8199
9.7131
9.6946
9.693
9.7384
9.7666
9.7077
9.7002
9.6715
9.6837
9.6726
9.6832
9.691
9.7353
9.7011
9.6792
9.6688
9.6939
9.7206
9.7135
9.6695
9.6219
9.6315
9.6513
9.6157
9.654
9.6994
9.6845
9.7077
9.7169
9.6207
9.6417
9.6687
9.6993
9.6782
9.6922
9.7213
9.7051
9.6795
9.66
9.6002
9.7133
9.7157
9.7243
9.7272
9.6619
9.6361
9.6818
9.6911
9.6741
9.6557
9.688
9.7212
9.7246
9.7125
9.7114
9.6913
9.741
9.75
9.7121
9.6825
9.6234
9.6134
9.6081
9.6665
9.6632
9.6692
9.6632
9.7522
9.78
9.7816
9.7169
9.7311
9.7345
9.6937
9.718
9.721
9.7316
9.681
9.6386
9.6526
9.716
9.6863
9.7166
9.6933
9.6863
9.6175
9.6218
9.6616
9.6944
9.6961
9.741
9.7504
9.7307
9.739
9.7479
9.75
9.7668
9.7664
9.7612
9.7667
9.7903
9.8032
9.7753
9.7426
9.8128
9.8366
9.8024
9.7996
9.7833
9.7677
9.7716
9.7603
9.7664
9.777
9.8049
9.8067
9.7784
9.7646
9.806
9.7926
9.6909
9.7508
9.7897
9.7802
9.7111
9.776
9.7573
9.7605
9.7039
9.7301
9.7064
9.7537
9.7554
9.7381
9.7316
9.7771
9.8333
9.7926
9.7193
9.7247
9.7292
9.7456
9.7959
9.7796
9.7508
9.686
9.66
9.6238
9.6416
9.6767
9.6893
9.6453
9.6731
9.6653
9.6813
9.711
9.6537
9.6853
9.7031
9.7205
9.633
9.6311
9.647
9.6836
9.6826
9.7415
9.7046
9.6914
9.6563
9.6137
9.646
9.6274
9.654
9.6239
9.5973
9.5631
9.6186
9.6199
9.6206
9.6265
9.6844
9.7033
9.7233
9.6894
9.7015
9.7093
9.7266
9.7065
9.7221
9.7395
9.7728
9.817
9.7902
9.7639
9.7743
9.7898
9.7571
9.7093
9.6626
9.7001
9.6496
9.66
9.6356
9.6409
9.7317
9.7364
9.7303
9.7578
9.762
9.7495
9.7263
9.7563
9.6876
9.7066
9.6588
9.6864
9.6727
9.6879
9.6858
9.6584
9.6993
9.6793
9.6976
9.7244
9.7024
9.6605
9.6667
9.6594
9.6888
9.6768
9.6454
9.6516
9.6606
9.655
9.6601
9.6771
9.6998
9.7279
9.6945
9.6874
9.7368
9.691
9.6758
9.6611
9.6378
9.6517
9.7013
9.6808
9.6443
9.6994
9.6854
9.6947
9.6487
9.6542
9.6642
9.6986
9.7288
9.6851
9.6782
9.7133
9.6949
9.7024
9.7455
9.7348
9.7544
9.7344
9.6862
9.6936
9.7199
9.7372
9.7533
9.7657
9.7927
9.7397
9.706
9.6442
9.656
9.7042
9.7377
9.6515
9.7244
9.7582
9.7708
9.8004
9.7524
9.7937
9.7796
9.7739
9.8041
9.704
9.7309
9.7373
9.7022
9.7554
9.7575
9.7885
9.7586
9.7525
9.7772
9.8031
9.7603
9.7011
9.6962
9.7002
9.7358
9.7307
9.741
9.6928
9.7252
9.6994
9.7541
9.7201
9.7575
9.7308
9.6563
9.6474
9.6677
9.6848
9.7068
9.7516
9.6388
9.6536
9.6696
9.6745
9.6655
9.6699
9.7095
9.7239
9.733
9.7467
9.6728
9.6673
9.6164
9.6855
9.7171
9.725
9.6896
9.6699
9.6747
9.6747
9.7574
9.7435
9.7287
9.7579
9.7438
9.7525
9.7482
9.6701
9.6983
9.6855
9.6763
9.696
9.6962
9.6422
9.6626
9.6377
9.6485
9.6803
9.6951
9.7252
9.7997
9.7614
9.7574
9.6933
9.6871
9.6724
9.6822
9.6893
9.6515
9.7169
9.7087
9.6838
9.7063
9.7391
9.7576
9.786
9.7093
9.6925
9.6995
9.7443
9.6699
9.6628
9.6655
9.7013
9.7573
9.7793
9.7782
9.7314
9.758
9.7595
9.7359
9.7663
9.7459
9.7271
9.7086
9.6895
9.6936
9.693
9.7011
9.6729
9.8227
9.794
9.8167
9.7656
9.7151
9.7314
9.7582
9.7408
9.7601
9.7769
9.7747
9.7656
9.7441
9.7689
9.7219
9.7799
9.7864
9.8052
9.7789
9.7847
9.7694
9.8206
9.809
9.7638
9.7689
9.7427
9.7862
9.8349
9.7698
9.7212
9.7321
9.7789
9.7876
9.7835
9.7934
9.745
9.7658
9.7553
9.7151
9.7858
9.7486
9.7389
9.73
9.7279
9.7503
9.7843
9.7294
9.734
9.727
9.7328
9.7445
9.7075
9.7104
9.6848
9.7246
9.7376
9.7116
9.735
9.7585
9.7766
9.6945
9.6792
9.6677
9.6294
9.5672
9.5522
9.5871
9.5991
9.6084
9.6295
9.583
9.6471
9.6424
9.6349
9.6358
9.6518
9.6612
9.655
9.6639
9.6561
9.6387
9.6462
9.6055
9.6042
9.5957
9.6061
9.5733
9.6084
9.6225
9.6547
9.6525
9.6344
9.6259
9.677
9.6438
9.6572
9.6289
9.6526
9.6741
9.6703
9.7366
9.7684
9.7368
9.708
9.6242
9.5914
9.6163
9.6275
9.6598
9.6497
9.6286
9.6313
9.6701
9.669
9.6676
9.5937
9.6377
9.6442
9.6758
9.7221
9.7023
9.7097
9.6937
9.7218
9.7497
9.7236
9.7069
9.71
9.6615
9.6263
9.6644
9.6283
9.6428
9.6205
9.6564
9.6738
9.7049
9.7017
9.6897
9.6779
9.812
9.7488
9.7281
9.6908
9.6307
9.6578
9.665
9.7208
9.7145
9.7021
9.7181
9.765
9.7548
9.7505
9.7533
9.7022
9.7076
9.7148
9.7889
9.7976
9.6974
9.772
9.76
9.7818
9.7716
9.8093
9.7467
9.7614
9.7517
9.7327
9.6924
9.6741
9.7329
9.7385
9.6997
9.6777
9.669
9.6771
9.6866
9.621
9.6718
9.7168
9.6797
9.6499
9.6785
9.6817
9.6925
9.7148
9.7048
9.7648
9.7772
9.7403
9.7184
9.7033
9.6935
9.7245
9.7105
9.708
9.6704
9.6876
9.7573
9.7084
9.6975
9.7146
9.6897
9.6349
9.6861
9.7116
9.6902
9.6682
9.6979
9.7099
9.7296
9.6953
9.7164
9.7519
9.74
9.7816
9.76
9.7631
9.7487
9.7282
9.7019
9.6926
9.717
9.7426
9.7365
9.7234
9.7404
9.7354
9.754
9.7461
9.7064
9.73
9.7126
9.6754
9.6595
9.7015
9.673
9.6338
9.6596
9.7232
9.7078
9.6737
9.6818
9.6439
9.6525
9.6865
9.757
9.7473
9.7229
9.722
9.6956
9.6703
9.6671
9.6908
9.6492
9.6584
9.6524
9.682
9.7157
9.7692
9.7206
9.7507
9.7553
9.7417
9.7264
9.7677
9.7207
9.6977
9.7256
9.7228
9.7457
9.7566
9.7568
9.7685
9.7283
9.6956
9.6928
9.7176
9.7169
9.7057
9.6556
9.6513
9.6569
9.6444
9.6376
9.6245
9.6721
9.6841
9.7184
9.7339
9.6938
9.5957
9.6394
9.6883
9.7466
9.7679
9.7889
9.7432
9.736
9.7689
9.7808
9.7179
9.6883
9.7042
9.7273
9.7273
9.6929
9.6905
9.6444
9.6773
9.735
9.7856
9.7477
9.7698
9.759
9.7547
9.7496
9.7314
9.7221
9.7196
9.7289
9.7567
9.7997
9.7524
9.7383
9.6868
9.6809
9.7075
9.7081
9.7406
9.7287
9.7514
9.7282
9.7072
9.709
9.7152
9.7404
9.7422
9.6446
9.651
9.6564
9.6584
9.7147
9.7512
9.7181
9.7193
9.7336
9.7693
9.7294
9.6935
9.6771
9.669
9.6861
9.694
9.6684
9.6737
9.6373
9.5951
9.7939
9.7649
9.7141
9.723
9.7329
9.716
9.7321
9.7079
9.6955
9.6801
9.6651
9.7114
9.7403
9.7379
9.7451
9.7275
9.7376
9.7366
9.7535
9.7997
9.6474
9.6063
9.6503
9.6679
9.6721
9.6735
9.6882
9.668
9.7012
9.6996
9.6875
9.7046
9.7067
9.7102
9.6727
9.5983
9.5935
9.5973
9.6263
9.615
9.6104
9.6797
9.6629
9.6836
9.7196
9.7076
9.731
9.7136
9.6684
9.6939
9.6973
9.7002
9.7175
9.7249
9.7797
9.8134
9.7948
9.7031
9.7258
9.6886
9.6052
9.6313
9.6446
9.6595
9.7174
9.7098
9.7393
9.7234
9.7067
9.7063
9.6633
9.6813
9.6413
9.6633
9.6465
9.6158
9.6262
9.6586
9.5943
9.5955
9.6401
9.6574
9.7408
9.7813
9.7559
9.7111
9.6558
9.6143
9.6311
9.6328
9.6573
9.6638
9.6725
9.6952
9.7239
9.6675
9.6661
9.6686
9.6684
9.6376
9.6831
9.6571
9.5698
9.5608
9.6172
9.6068
9.6206
9.6346
9.6413
9.6209
9.6764
9.6641
9.7263
9.7338
9.761
9.8066
9.7772
9.7771
9.7066
9.7021
9.7398
9.6619
9.6563
9.6146
9.618
9.5841
9.6289
9.6544
9.6818
9.6407
9.6517
9.6509
9.6613
9.6597
9.6354
9.7122
9.7287
9.7341
9.7238
9.7554
9.7265
9.6945
9.7138
9.7435
9.787
9.779
9.7074
9.6799
9.6322
9.6946
9.6564
9.6806
9.682
9.7171
9.6937
9.6881
9.6412
9.6572
9.6878
9.7056
9.716
9.679
9.6794
9.7227
9.7861
9.7186
9.7
9.6906
9.7496
9.7397
9.7225
9.7123
9.7391
9.7331
9.7495
9.7619
9.7652
9.7409
9.7143
9.6801
9.6238
9.634
9.6221
9.6082
9.6065
9.6066
9.6355
9.6714
9.6593
9.6228
9.6411
9.6782
9.688
9.6938
9.7221
9.7493
9.7053
9.6506
9.608
9.6489
9.5486
9.61
9.6206
9.6737
9.684
9.6634
9.6894
9.6551
9.6241
9.6433
9.6202
9.6492
9.6536
9.6272
9.6394
9.6855
9.6488
9.6467
9.6426
9.5682
9.6458
9.6264
9.6624
9.6868
9.6401
9.6789
9.6395
9.6152
9.6777
9.7222
9.7373
9.7248
9.6591
9.6704
9.6715
9.696
9.6778
9.7223
9.7391
9.7303
9.7157
9.7278
9.7071
9.6976
9.687
9.66
9.7096
9.6842
9.6331
9.6834
9.7215
9.6939
9.7161
9.7254
9.7574
9.7309
9.7544
9.7351
9.7274
9.7272
9.7022
9.6616
9.6422
9.6733
9.719
9.6997
9.6644
9.6513
9.7173
9.6971
9.7292
9.713
9.6548
9.6824
9.7018
9.6627
9.6585
9.685
9.6842
9.6997
9.7152
9.7437
9.718
9.748
9.687
9.6712
9.6663
9.6971
9.6807
9.6817
9.6813
9.6981
9.7335
9.7295
9.6875
9.7454
9.7029
9.7192
9.7256
9.6953
9.6609
9.6419
9.6715
9.6635
9.6832
9.6531
9.6647
9.6537
9.6491
9.6621
9.6909
9.6998
9.6902
9.6505
9.6315
9.6731
9.7235
9.7393
9.6995
9.6564
9.6937
9.6982
9.6901
9.6943
9.6695
9.6666
9.6694
9.7024
9.7145
9.7202
9.75
9.6904
9.7169
9.7662
9.7771
9.7576
9.7627
9.7833
9.7748
9.7256
9.7137
9.7118
9.7259
9.6889
9.6756
9.7131
9.6863
9.7114
9.7423
9.7354
9.7361
9.7634
9.743
9.7214
9.6833
9.734
9.6917
9.6767
9.6929
9.708
9.722
9.7046
9.7061
9.6724
9.6792
9.7129
9.6953
9.6609
9.7058
9.7156
9.6757
9.6978
9.7334
9.7369
9.7087
9.6677
9.6717
9.6964
9.6652
9.6982
9.6652
9.598
9.6111
9.629
9.6723
9.6422
9.72
9.7463
9.7308
9.7085
9.7281
9.6892
9.6983
9.6624
9.6684
9.6666
9.6038
9.5867
9.6063
9.6065
9.7337
9.7395
9.7211
9.7111
9.6862
9.6627
9.6478
9.6199
9.6562
9.6548
9.6796
9.6866
9.7194
9.7078
9.6716
9.696
9.6629
9.6855
9.6863
9.7163
9.6693
9.6742
9.6977
9.6938
9.6777
9.6914
9.6889
9.6762
9.6629
9.7274
9.7201
9.6991
9.6554
9.6354
9.6462
9.689
9.7026
9.72
9.7122
9.6944
9.691
9.6759
9.694
9.6324
9.6573
9.6286
9.6325
9.6478
9.6346
9.6743
9.6232
9.6502
9.6277
9.6627
9.6841
9.6303
9.6033
9.6146
9.6277
9.6752
9.5844
9.6036
9.6253
9.666
9.7108
9.7235
9.6938
9.6547
9.6546
9.6391
9.6631
9.6467
9.6532
9.6587
9.6491
9.6733
9.6571
9.6734
9.662
9.618
9.7136
9.7279
9.6982
9.6957
9.6534
9.693
9.7195
9.7298
9.7094
9.6838
9.6454
9.6363
9.6295
9.6278
9.6317
9.5836
9.6143
9.5959
9.667
9.7203
9.5904
9.5881
9.6262
9.6556
9.6315
9.622
9.6117
9.6359
9.6706
9.7123
9.7163
9.6832
9.6795
9.7084
9.6761
9.6293
9.5838
9.6051
9.5933
9.55
9.6861
9.6937
9.7065
9.7201
9.714
9.7525
9.7451
9.7196
9.6959
9.6763
9.6391
9.6577
9.6772
9.6674
9.6759
9.6832
9.686
9.6955
9.7189
9.7177
9.7636
9.7627
9.7378
9.7076
9.7413
9.7707
9.7751
9.791
9.7594
9.7339
9.7147
9.73
9.7404
9.7106
9.7046
9.6945
9.7277
9.7258
9.7502
9.7685
9.6324
9.6603
9.7097
9.7089
9.7092
9.7377
9.7304
9.7304
9.7417
9.6882
9.6753
9.6823
9.6777
9.6923
9.7447
9.7215
9.6749
9.659
9.6411
9.6197
9.7379
9.7456
9.7254
9.6826
9.6739
9.7276
9.7333
9.691
9.6923
9.6894
9.6871
9.6813
9.674
9.6826
9.7237
9.7236
9.7558
9.7338
9.7403
9.7231
9.7339
9.7141
9.7011
9.6801
9.6739
9.6551
9.6483
9.6222
9.6178
9.6146
9.6644
9.6856
9.6409
9.6455
9.668
9.6727
9.6391
9.6275
9.6765
9.7145
9.7103
9.7097
9.7319
9.723
9.7111
9.7528
9.714
9.6988
9.6845
9.6106
9.6659
9.6641
9.6957
9.703
9.7491
9.7085
9.7126
9.7089
9.7096
9.6965
9.6263
9.6294
9.6073
9.6291
9.6505
9.6638
9.6993
9.7211
9.7127
9.7162
9.7034
9.6645
9.6638
9.6806
9.6515
9.684
9.7185
9.7305
9.7036
9.6755
9.7186
9.7437
9.7094
9.7512
9.7587
9.7984
9.8041
9.781
9.7634
9.772
9.7818
9.7218
9.7261
9.7244
9.7261
9.6966
9.7305
9.6842
9.7068
9.7044
9.6457
9.6608
9.6919
9.6545
9.6433
9.6089
9.6917
9.6539
9.6392
9.5985
9.6308
9.6279
9.6119
9.588
9.6762
9.735
9.6886
9.6851
9.7157
9.682
9.6391
9.6544
9.6223
9.6434
9.6334
9.6592
9.6628
9.6742
9.6996
9.7642
9.7425
9.6951
9.659
9.6711
9.6643
9.6588
9.6823
9.6549
9.6634
9.6576
9.6877
9.6713
9.7434
9.7566
9.7663
9.7783
9.7718
9.7303
9.6705
9.67
9.6493
9.6556
9.6701
9.7028
9.6785
9.6922
9.6972
9.7291
9.7107
9.7055
9.6474
9.6252
9.6487
9.6821
9.6893
9.6721
9.6603
9.7231
9.7169
9.7214
9.6804
9.6553
9.6775
9.657
9.6802
9.6893
9.6734
9.6872
9.6675
9.677
9.5939
9.6291
9.654
9.6296
9.6525
9.655
9.6965
9.7199
9.7409
9.7437
9.7348
9.7143
9.6548
9.6394
9.6164
9.6307
9.6243
9.6945
9.646
9.6226
9.6588
9.6951
9.6641
9.6291
9.6421
9.6694
9.6438
9.6534
9.6538
9.701
9.7088
9.7099
9.6814
9.6789
9.6742
9.6358
9.6777
9.7052
9.6756
9.6656
9.7357
9.7118
9.7182
9.7332
9.769
9.6943
9.652
9.6724
9.635
9.638
9.6402
9.6464
9.6929
9.6621
9.663
9.7139
9.7474
9.7582
9.7559
9.7303
9.6826
9.6772
9.6903
9.6849
9.6775
9.7241
9.7137
9.7171
9.686
9.7114
9.7051
9.743
9.7749
9.7389
9.6949
9.7266
9.7011
9.737
9.6898
9.6997
9.7159
9.6739
9.6249
9.5821
9.5842
9.6262
9.6887
9.7241
9.7057
9.7505
9.8084
9.7447
9.723
9.7357
9.7788
9.7908
9.7693
9.7943
9.7338
9.728
9.7029
9.7215
9.7387
9.7355
9.759
9.6886
9.6762
9.709
9.7057
9.6939
9.6652
9.6624
9.7142
9.713
9.7238
9.7116
9.6831
9.6586
9.6594
9.6662
9.7245
9.7192
9.6955
9.7139
9.7151
9.6951
9.6937
9.6696
9.7068
9.7564
9.7702
9.7571
9.7296
9.6939
9.6845
9.6318
9.6605
9.6526
9.633
9.6826
9.717
9.6722
9.7121
9.7055
9.7215
9.7103
9.701
9.7239
9.687
9.6758
9.6826
9.6709
9.6966
9.7259
9.6713
9.7008
9.7598
9.7453
9.7495
9.6929
9.6753
9.7347
9.7252
9.7062
9.7262
9.7307
9.7772
9.7657
9.7526
9.7561
9.768
9.7658
9.7643
9.7289
9.6995
9.6258
9.6722
9.6933
9.6898
9.7041
9.6806
9.7086
9.7435
9.7317
9.6842
9.6801
9.6773
9.7222
9.7591
9.7483
9.7458
9.7033
9.7035
9.725
9.7293
9.6939
9.6873
9.666
9.6722
9.6719
9.7631
9.7287
9.7562
9.7825
9.8221
9.8047
9.7321
9.7368
9.72
9.7133
9.6668
9.6838
9.6572
9.6501
9.6584
9.6569
9.6599
9.697
9.7351
9.7527
9.7044
9.7293
9.7237
9.6828
9.6571
9.6394
9.6852
9.6477
9.7056
9.7226
9.7343
9.776
9.7375
9.7238
9.7507
9.7773
9.768
9.6942
9.6633
9.7024
9.6556
9.6526
9.6102
9.6462
9.6528
9.6611
9.6623
9.6677
9.7371
9.7692
9.7758
9.8521
9.8233
9.7801
9.7407
9.731
9.7141
9.7059
9.743
9.7065
9.7959
9.776
9.7924
9.7588
9.7416
9.7311
9.6943
9.6966
9.7116
9.631
9.6264
9.5788
9.6418
9.6817
9.6951
9.7182
9.7319
9.7327
9.7406
9.7246
9.7405
9.7208
9.7211
9.7465
9.7098
9.7182
9.6927
9.6615