/*--------------------------------*- C++ -*----------------------------------*\
| =========                 |                                                 |
| \\      /  F ield         | OpenFOAM: The Open Source CFD Toolbox           |
|  \\    /   O peration     | Version:  v1706                                 |
|   \\  /    A nd           | Web:      www.OpenFOAM.com                      |
|    \\/     M anipulation  |                                                 |
\*---------------------------------------------------------------------------*/
FoamFile
{
    version     2.0;
    format      ascii;
    class       volScalarField;
    location    "0.01";
    object      Ma_mixture;
}
// * * * * * * * * * * * * * * * * * * * * * * * * * * * * * * * * * * * * * //

dimensions      [0 0 0 0 0 0 0];


internalField   nonuniform List<scalar> 
5120
(
5.611487758
5.606692741
5.612210219
5.625499626
5.620238773
5.619611486
5.602300591
5.605863075
5.607063681
5.624420412
5.61618232
5.610159947
5.625257078
5.624353594
5.63829419
5.635647606
5.622382661
5.62165058
5.614587261
5.612361861
5.60888598
5.606797122
5.591324349
5.607897379
5.624308508
5.619032099
5.6138509
5.63347176
5.634881015
5.615736792
5.628388734
5.612444178
5.61506254
5.596266351
5.604736407
5.629116213
5.633936227
5.628571767
5.627185197
5.613609539
5.600803104
5.590752403
5.598287507
5.611514525
5.60644246
5.605884504
5.594937821
5.598324386
5.605907379
5.608399679
5.615854657
5.610037903
5.600856588
5.603187374
5.598918914
5.597686251
5.59708387
5.601986886
5.593803063
5.601280263
5.602736944
5.618848382
5.617466154
5.616603481
5.610841338
5.614374326
5.604252642
5.614932671
5.610422993
5.617289217
5.632115472
5.647246118
5.637462152
5.635742341
5.626935251
5.613640075
5.607532248
5.622115439
5.621091001
5.604908592
5.622829414
5.633619733
5.634893886
5.642141884
5.645360385
5.628358221
5.62784379
5.627933855
5.612319013
5.6128406
5.629063775
5.65089699
5.657033397
5.648098293
5.632915949
5.637368785
5.64242423
5.642729762
5.643720141
5.631725932
5.620019189
5.614328091
5.62054013
5.625228128
5.636447486
5.638003267
5.646131569
5.632549641
5.638376504
5.635173963
5.61526129
5.611013226
5.627274888
5.646026765
5.654469411
5.650236297
5.64460501
5.633447869
5.643943403
5.645463439
5.617062499
5.621777481
5.619090315
5.623110121
5.624623847
5.613911457
5.626487003
5.624955948
5.627144832
5.632237865
5.65005922
5.645633211
5.635888564
5.635394205
5.639779627
5.643364449
5.644366624
5.636250032
5.639463586
5.621366913
5.624603979
5.632360658
5.632431759
5.630030888
5.610545191
5.617297836
5.624182355
5.627260736
5.632945472
5.642672786
5.632750149
5.632957571
5.628382567
5.632345871
5.605795053
5.606949752
5.623185491
5.629318516
5.617799851
5.619239026
5.622640497
5.619521952
5.62315455
5.630136932
5.63683051
5.629245853
5.622700513
5.626150331
5.613912856
5.610503359
5.62085856
5.617584592
5.638356474
5.616043854
5.617074521
5.616490369
5.614796255
5.626519937
5.632645882
5.625499777
5.658396681
5.662783823
5.649516962
5.644344627
5.630840726
5.618111926
5.616366601
5.628251847
5.630562177
5.628396079
5.626900903
5.618490273
5.611226934
5.62213848
5.627295076
5.627366082
5.622129868
5.632553702
5.628019163
5.633773183
5.619481039
5.625663961
5.633920518
5.632686487
5.636342099
5.635748501
5.644207252
5.624307709
5.616957657
5.625625323
5.635286198
5.645576456
5.646165734
5.644406125
5.646143383
5.63701704
5.622734541
5.632656065
5.622346119
5.615752611
5.639080702
5.626595641
5.622793661
5.619044342
5.627637078
5.634145314
5.633583247
5.639790543
5.636739738
5.628799433
5.640174776
5.628003058
5.63036566
5.62014958
5.618363479
5.630160986
5.637079351
5.623650906
5.625733825
5.622992456
5.63806773
5.627759518
5.62522181
5.628716176
5.630393078
5.638811569
5.634965201
5.627701474
5.618249555
5.627804515
5.632243165
5.628245157
5.622900484
5.614673398
5.619896103
5.615894069
5.61749184
5.615637442
5.635492582
5.651609878
5.598208712
5.602783856
5.610932364
5.628595028
5.632000155
5.6329734
5.61883196
5.616545343
5.620310523
5.624817115
5.628828601
5.624831344
5.61673633
5.619828341
5.616583377
5.613195349
5.609553871
5.610975716
5.619856984
5.605477537
5.622027357
5.609424851
5.613773746
5.611741103
5.603276043
5.596187866
5.611980419
5.629029247
5.625512926
5.624626319
5.62653545
5.606301673
5.61246996
5.626731503
5.613291031
5.60298462
5.607701361
5.632458256
5.634800357
5.627064041
5.629252558
5.622832999
5.610291396
5.620159059
5.616289529
5.60883083
5.600436619
5.583442466
5.605195442
5.59810767
5.600634657
5.601192804
5.611925133
5.610746486
5.60365537
5.606067604
5.623540186
5.614251958
5.616540584
5.613953193
5.626581812
5.629825581
5.636871137
5.618811262
5.626810963
5.622183887
5.613505313
5.599079578
5.608975641
5.619028404
5.624302967
5.631387516
5.637376787
5.64429272
5.617793009
5.605296033
5.613552517
5.618478858
5.635589792
5.627131638
5.625857524
5.62195273
5.619306267
5.618746301
5.606344453
5.621354512
5.636039353
5.620812809
5.621391349
5.618316493
5.613910122
5.613404974
5.614629789
5.607584734
5.613189765
5.618454315
5.632026924
5.628303366
5.62631878
5.636021187
5.613235793
5.628685293
5.619764238
5.602242505
5.614882729
5.618168091
5.614716564
5.60781619
5.614625586
5.613211205
5.59880155
5.600124467
5.588585605
5.602856183
5.612878582
5.621487412
5.608037647
5.614912147
5.610357307
5.607778278
5.615300304
5.616691072
5.626954758
5.63379626
5.614283108
5.608131602
5.62211619
5.61768938
5.622760539
5.617231008
5.615684356
5.610957409
5.611122779
5.603905281
5.608402351
5.617272178
5.608457059
5.607948673
5.604939899
5.628647711
5.614038992
5.606212536
5.597700467
5.60367539
5.619398414
5.623265794
5.612081866
5.612831885
5.616020987
5.625917218
5.625104439
5.618672864
5.622769097
5.61488956
5.6110768
5.613903098
5.626391844
5.61459386
5.615816607
5.613182886
5.637808448
5.620846799
5.612181319
5.612724138
5.603827379
5.603958229
5.616563755
5.621151372
5.627640774
5.620035779
5.603647627
5.602004595
5.606600265
5.605644548
5.616923841
5.613187902
5.612389795
5.615843303
5.612952764
5.613973171
5.623941739
5.615935823
5.615834053
5.618013703
5.620806716
5.614727534
5.612409406
5.613450708
5.619860678
5.621766496
5.628161659
5.632223241
5.617916866
5.61890102
5.617336109
5.608791475
5.619080064
5.616189801
5.617465443
5.624346544
5.614131967
5.632383493
5.629027967
5.619832037
5.61709574
5.591773135
5.605483787
5.59916501
5.59454607
5.59669682
5.605013819
5.60791583
5.617899894
5.623815196
5.618733469
5.617189805
5.596363595
5.585207381
5.604906948
5.610232615
5.633179779
5.625813133
5.628015561
5.632251092
5.624634735
5.636756008
5.621844095
5.629279424
5.64390292
5.6418112
5.645935965
5.635272336
5.630090514
5.610811048
5.612301849
5.619455973
5.612553899
5.608855754
5.627704379
5.628271634
5.612134637
5.611940396
5.610176032
5.613048434
5.621207777
5.625102834
5.636986602
5.639907902
5.638056503
5.636641915
5.62129856
5.635452353
5.631169367
5.638571885
5.636896796
5.626629298
5.636232857
5.639963785
5.624437596
5.622834099
5.637455181
5.625052913
5.639083561
5.650908679
5.639438782
5.622552933
5.623953805
5.624130453
5.628782516
5.617743902
5.615941025
5.619335416
5.638059423
5.629933566
5.625619638
5.629391044
5.636316158
5.62306808
5.625924323
5.641348046
5.611055728
5.611221751
5.621541379
5.621614597
5.625118312
5.628627564
5.630737877
5.634717393
5.616544651
5.620301015
5.615699755
5.609574875
5.610579883
5.628496385
5.640793523
5.632687772
5.631128889
5.633974755
5.630604753
5.606047387
5.638424852
5.645382999
5.6247015
5.615462863
5.616771021
5.61340134
5.611291703
5.627243829
5.638917324
5.627729737
5.626994926
5.632270847
5.632272436
5.632322367
5.630627113
5.641419479
5.624066386
5.617260953
5.619625318
5.63966
5.614307501
5.633089149
5.63943034
5.632754998
5.625093916
5.613348102
5.625914238
5.637609269
5.623589256
5.621165353
5.624357277
5.633129563
5.645227632
5.655186506
5.643153026
5.630459069
5.641035774
5.636897433
5.62259154
5.609907653
5.63005528
5.623250709
5.631886329
5.627092242
5.616831359
5.623532928
5.625921544
5.617583797
5.618991863
5.620487875
5.609560293
5.610288385
5.600524341
5.596903706
5.609536449
5.614359134
5.606659051
5.609106263
5.635268035
5.628147334
5.614766541
5.60891396
5.6044996
5.595859499
5.605318662
5.617011248
5.61135417
5.613885737
5.614902495
5.610688268
5.636882366
5.633399998
5.616862068
5.60946137
5.62127029
5.631579768
5.622502219
5.624150778
5.611105862
5.611171922
5.620145
5.622344004
5.627096058
5.628468786
5.617379269
5.622331462
5.632097208
5.634451506
5.635820888
5.622063725
5.613050566
5.605658529
5.611542311
5.623555329
5.618960163
5.618842951
5.621291221
5.623811337
5.620645377
5.618509287
5.631641735
5.632062274
5.606529353
5.610547323
5.619134492
5.613122115
5.614056179
5.62015874
5.604152294
5.623009902
5.619603756
5.625607549
5.624867084
5.626022251
5.614505674
5.618334112
5.609762057
5.612816369
5.610636666
5.625978322
5.618601734
5.60797605
5.613292263
5.617227958
5.610425293
5.602935448
5.611151382
5.623334026
5.622327327
5.612357969
5.618248571
5.613364615
5.622449525
5.633300043
5.636201385
5.625417874
5.619908897
5.620214584
5.630675479
5.627833091
5.617312609
5.620112887
5.626013105
5.61136925
5.60058254
5.606670951
5.61524872
5.616996713
5.623174486
5.625036837
5.619619368
5.6238453
5.626794736
5.622605542
5.62362305
5.622258015
5.624677048
5.62731485
5.613625891
5.61377083
5.621561234
5.614325905
5.615195572
5.608100824
5.614549178
5.627338432
5.619367621
5.618700151
5.612790269
5.626236019
5.623200864
5.620703186
5.615375436
5.610058775
5.608361157
5.617407343
5.623960756
5.628729262
5.626669108
5.634931363
5.604711792
5.608663423
5.619563714
5.627324072
5.612590852
5.619425137
5.628943073
5.64201174
5.6393818
5.637697235
5.633241144
5.621612298
5.626396333
5.619602784
5.618939065
5.613166747
5.618847111
5.629341201
5.616423022
5.613539047
5.639207775
5.629461021
5.6246619
5.623958559
5.633815944
5.634284847
5.623385233
5.625670154
5.630016393
5.627266025
5.619333416
5.611109543
5.605629265
5.607370995
5.625469142
5.626054085
5.624039767
5.618368739
5.621948184
5.620924736
5.630851473
5.616320072
5.60972488
5.616211556
5.618856404
5.615641019
5.61960305
5.60872035
5.613336965
5.614433869
5.612185811
5.611435015
5.618850843
5.623589373
5.615133716
5.601751205
5.609398095
5.623506285
5.61643906
5.620931286
5.602928052
5.614651799
5.608762125
5.61639046
5.621822681
5.637162359
5.633399906
5.625371995
5.621379848
5.632453669
5.62637365
5.626322608
5.618048914
5.609216746
5.608705667
5.624582668
5.627370398
5.627134906
5.60995143
5.603935845
5.622425485
5.61607821
5.605509696
5.615221104
5.631646182
5.631116763
5.626894259
5.630899172
5.625556433
5.619974998
5.610747673
5.62808792
5.622955733
5.622376445
5.617610316
5.612354724
5.605122786
5.61808623
5.626509305
5.625574093
5.602343068
5.609716313
5.609613633
5.603645275
5.617315073
5.616557977
5.614601004
5.627252799
5.628282302
5.625648663
5.632731148
5.627857809
5.609761388
5.629901611
5.628750686
5.63446306
5.630234461
5.6199035
5.612251159
5.59589159
5.632764666
5.625616339
5.629879349
5.635406123
5.622574197
5.607806667
5.622306333
5.618259538
5.635952668
5.629655843
5.630542363
5.621455035
5.635506351
5.632816016
5.613383214
5.615082589
5.622169975
5.624606234
5.619631189
5.618850021
5.611648839
5.628531569
5.627918604
5.614916832
5.615217888
5.629041033
5.630341627
5.642421537
5.648574457
5.650303748
5.653761148
5.637071186
5.640077746
5.656385431
5.646918141
5.639884976
5.636970451
5.64149183
5.633881398
5.631471049
5.644102354
5.640402071
5.630261705
5.640992284
5.633385595
5.640784673
5.626902107
5.630374877
5.642010714
5.642269547
5.621695656
5.638053945
5.649389803
5.615526467
5.617955038
5.633271305
5.635257103
5.630943974
5.629406153
5.640223976
5.61191441
5.618520811
5.615393116
5.611029334
5.637532968
5.63514696
5.626122314
5.616584117
5.614451397
5.616225068
5.623244582
5.602658586
5.601512412
5.597995276
5.588690635
5.595157126
5.609823871
5.598667182
5.61178587
5.61551296
5.632233666
5.631603109
5.621522789
5.626475769
5.620770247
5.61799178
5.627527188
5.633446458
5.633720868
5.617733534
5.604110502
5.601869513
5.619144552
5.634446968
5.65006303
5.635954113
5.625020913
5.620604469
5.624062999
5.633112373
5.600221115
5.614798161
5.624723162
5.633093506
5.624668114
5.618106844
5.602858506
5.612244809
5.626505753
5.616235769
5.613081594
5.611727084
5.604643916
5.597868789
5.610098899
5.617045967
5.618926376
5.616084897
5.601565732
5.589266032
5.618014099
5.613270328
5.636789344
5.625551883
5.627403475
5.624458276
5.63339168
5.638747186
5.631073646
5.635533585
5.642073964
5.639816192
5.636233967
5.620609517
5.610367035
5.625409368
5.62842544
5.629922555
5.633523929
5.620750631
5.610839451
5.595641992
5.581141633
5.581262866
5.596084291
5.615713774
5.615476379
5.614586618
5.624097898
5.630284354
5.622628758
5.633815702
5.623361691
5.608455012
5.608041561
5.608836787
5.60101812
5.602294909
5.606604547
5.604549506
5.624253255
5.642943998
5.639032694
5.627230301
5.64251445
5.63058891
5.623858414
5.616255726
5.613169418
5.598389248
5.615631475
5.623957352
5.619470295
5.620656199
5.61306119
5.606317142
5.628236195
5.626516079
5.631683043
5.611095341
5.63605697
5.628734939
5.629392686
5.633019387
5.619855209
5.601350671
5.594376453
5.609520073
5.630875253
5.632903448
5.630255345
5.626265187
5.624404005
5.616767443
5.63781618
5.643359614
5.642577395
5.630030201
5.625738573
5.632442051
5.617437146
5.618211921
5.620410598
5.614002273
5.62613623
5.636825877
5.615814241
5.626361553
5.610860595
5.614958355
5.615322927
5.620150274
5.622009064
5.630655772
5.623021788
5.61776888
5.619698667
5.622863661
5.620691059
5.617591946
5.608298213
5.620807036
5.616802935
5.609247531
5.610023906
5.627738117
5.623620612
5.618343359
5.607196917
5.60677796
5.605605825
5.598882568
5.603682049
5.604613539
5.610302603
5.618770116
5.613945997
5.605659005
5.612067142
5.611108586
5.597390915
5.601347519
5.617273963
5.6310335
5.61976025
5.629996446
5.614238624
5.614349285
5.606626996
5.60329856
5.602337597
5.614365519
5.612732759
5.610627802
5.589423149
5.598813163
5.592100542
5.60813665
5.61611983
5.603907752
5.612202303
5.609356295
5.627997694
5.611534419
5.607138924
5.61347511
5.620812719
5.609985999
5.61867368
5.62103771
5.61815142
5.614510616
5.606661506
5.622909768
5.628086966
5.614328407
5.627928114
5.612198392
5.616178396
5.618421722
5.614175195
5.629554037
5.634736207
5.623765645
5.618119759
5.618249776
5.60595476
5.608382077
5.599014729
5.61016439
5.600137115
5.603722744
5.61214262
5.619683694
5.628630056
5.641273817
5.631246203
5.635129061
5.63455025
5.62129302
5.63134221
5.638598256
5.61674258
5.627937023
5.630362304
5.630358187
5.613476334
5.597113617
5.593377717
5.597256227
5.615702973
5.613794412
5.616435266
5.619719512
5.625339059
5.612988393
5.612606126
5.615677988
5.623934944
5.635436107
5.614414029
5.613656663
5.602982753
5.602725437
5.60814629
5.621876732
5.604465611
5.603487072
5.616969723
5.617862626
5.626799082
5.621491484
5.611327327
5.596070202
5.607875751
5.61419344
5.619236085
5.617828754
5.609504656
5.610723323
5.621782915
5.610115987
5.619124019
5.626764482
5.620145014
5.6267127
5.649183207
5.631337114
5.628292632
5.641265762
5.652023498
5.64459101
5.63286747
5.629801802
5.619624532
5.619436857
5.642866722
5.634878603
5.63426373
5.62328855
5.629742372
5.631572176
5.62386278
5.615782416
5.621118825
5.621658937
5.614754292
5.613079611
5.601894389
5.6004738
5.603806311
5.603891764
5.614749351
5.622189351
5.621761759
5.627126729
5.618719923
5.630610615
5.628093505
5.626486952
5.61143158
5.608782543
5.611400706
5.61614042
5.608697581
5.600551142
5.607774522
5.609040931
5.605122053
5.605703262
5.629344447
5.618533572
5.615114531
5.609830365
5.624390002
5.626193091
5.637688356
5.634533825
5.629536526
5.616196415
5.618534896
5.623389295
5.623421743
5.627482397
5.616086
5.610548419
5.605561546
5.596723306
5.600963296
5.609950733
5.607203513
5.615535788
5.623488809
5.624139627
5.632907677
5.620915619
5.620744487
5.618474192
5.627831074
5.627489201
5.617305965
5.626746602
5.618920647
5.612701598
5.612845866
5.610705082
5.607757414
5.606302324
5.604981956
5.604964632
5.61843154
5.606417454
5.588338946
5.592443203
5.613739049
5.613630403
5.616587907
5.619924316
5.608644868
5.607855798
5.605485312
5.604178292
5.610228089
5.620913929
5.632656167
5.637665523
5.625180864
5.624846198
5.624092114
5.609581004
5.606251003
5.595682744
5.608781124
5.623006295
5.620585049
5.601234659
5.606411797
5.594868637
5.601380738
5.600714217
5.600838006
5.613155691
5.622386089
5.618287168
5.60867747
5.603340144
5.608669417
5.610193046
5.598756592
5.601559092
5.602652561
5.618032989
5.639255861
5.627452432
5.600990794
5.597681184
5.597840923
5.598376781
5.613552253
5.609020025
5.618341808
5.60594578
5.610910286
5.624078321
5.613845453
5.612281103
5.609503325
5.59839469
5.609913159
5.609346338
5.612392404
5.589848115
5.600174367
5.61376288
5.620256439
5.62106459
5.614762819
5.619270075
5.633651938
5.627385756
5.636413562
5.630700609
5.613050084
5.594856337
5.61623202
5.631734362
5.631462212
5.608133588
5.614505595
5.61361369
5.622920301
5.634262069
5.635720844
5.622308853
5.600844247
5.619873482
5.632054995
5.626671632
5.618319504
5.632641662
5.633078432
5.632830158
5.633830801
5.636433977
5.626760076
5.625039125
5.626575856
5.626195425
5.629192405
5.627277654
5.632742509
5.625876398
5.629834849
5.615777285
5.620174904
5.60443718
5.61577801
5.625539124
5.642357082
5.639897722
5.631636979
5.632547633
5.632676165
5.634767538
5.633504368
5.613016859
5.622056146
5.609130235
5.613483776
5.608748479
5.59516915
5.60743863
5.606746659
5.614290272
5.621416629
5.626950291
5.621722956
5.613591816
5.615589734
5.629369197
5.615817692
5.619788747
5.618214956
5.607672672
5.613451731
5.620239391
5.621932697
5.615061377
5.604281808
5.604297319
5.620494326
5.61065604
5.615342477
5.606333276
5.614724099
5.61527676
5.630376451
5.628446736
5.619967851
5.616438726
5.631356831
5.625293446
5.610191339
5.615000804
5.620053636
5.601753253
5.592420436
5.605194474
5.611907704
5.608854808
5.626864407
5.642659997
5.632009304
5.606108901
5.605415961
5.623290066
5.62860279
5.619837972
5.617137092
5.621507246
5.626227697
5.627032582
5.631538772
5.620499104
5.596589663
5.607873004
5.6133214
5.62103448
5.62165297
5.614364254
5.616553958
5.604260514
5.598885817
5.621457165
5.6109367
5.610943665
5.604847138
5.605852157
5.602385766
5.61161088
5.619156255
5.623982494
5.628744463
5.618546628
5.612579117
5.598523524
5.598367903
5.576663352
5.587752113
5.603522411
5.607557654
5.614264052
5.614395694
5.621536176
5.612065965
5.609860095
5.615059439
5.612930169
5.615335473
5.619776648
5.61632327
5.614273511
5.621636994
5.620317646
5.615361333
5.606835965
5.607899411
5.601366799
5.595979091
5.593198636
5.589015023
5.606851869
5.609629706
5.621288782
5.613382376
5.610318209
5.612483926
5.61016237
5.617285872
5.621711605
5.619263059
5.623860073
5.615400618
5.612697131
5.611241907
5.62480385
5.619894236
5.63229017
5.638143006
5.641562692
5.632259332
5.634761477
5.62971328
5.628137711
5.644313252
5.630658965
5.622275523
5.631009292
5.626258315
5.623120333
5.632091658
5.632583056
5.630913868
5.610565729
5.610318298
5.602799891
5.615174395
5.632795774
5.643425134
5.629078183
5.61751744
5.635085844
5.625527548
5.624959541
5.624015817
5.612768444
5.625277781
5.635786179
5.630963535
5.634779461
5.622474449
5.626351153
5.619189458
5.635603685
5.640250243
5.632302423
5.62237027
5.626317704
5.620780368
5.623539002
5.626295635
5.623717793
5.628398496
5.624822017
5.625960795
5.630999006
5.626335841
5.622035844
5.635902022
5.632646686
5.620175029
5.600666823
5.610197409
5.613530175
5.614919614
5.622076152
5.628682411
5.611879361
5.606489556
5.6117707
5.611462769
5.606561331
5.613830549
5.623217968
5.603994539
5.607837084
5.604227274
5.61165441
5.612525835
5.618811072
5.597506236
5.598340617
5.610558885
5.616808782
5.612854595
5.615788672
5.625188713
5.636402272
5.631474012
5.621483729
5.609429519
5.598487622
5.608290386
5.615846842
5.613337209
5.612423504
5.606775475
5.599584104
5.612863869
5.607653238
5.608936756
5.609500696
5.605111596
5.605954486
5.609656102
5.605120959
5.61339258
5.606266495
5.616680898
5.617442742
5.615954573
5.617327297
5.60646225
5.60010795
5.587297781
5.602988455
5.609679942
5.605073785
5.600469247
5.606258362
5.605136101
5.61483141
5.611328366
5.601326932
5.601923341
5.60512107
5.59813061
5.601689334
5.598350515
5.605985657
5.609188142
5.60650517
5.599192125
5.60432171
5.611254553
5.601803927
5.592594142
5.598315783
5.588484616
5.599101201
5.616967344
5.619483009
5.61597498
5.605752884
5.603933944
5.607905877
5.614625304
5.60330869
5.611347432
5.615354695
5.61562539
5.610803485
5.598203071
5.595537412
5.609909205
5.618218534
5.622620223
5.617312244
5.611763308
5.621457675
5.614355319
5.610212295
5.61507005
5.626826406
5.619116809
5.61247764
5.610506022
5.618939015
5.606387572
5.592743014
5.605780879
5.600234756
5.597730783
5.608241028
5.609609496
5.606846235
5.6064854
5.601754028
5.595593599
5.600491096
5.609958432
5.628700831
5.631023789
5.618125068
5.61781225
5.603215284
5.620159263
5.618425276
5.61401272
5.616473145
5.618398867
5.628607868
5.614588347
5.621537528
5.618827987
5.625965553
5.623707849
5.60883535
5.60975461
5.606338555
5.605814282
5.606501134
5.610861665
5.618756449
5.619484674
5.621083624
5.61751206
5.619838194
5.632442658
5.634530309
5.620064801
5.61506736
5.622194566
5.631039766
5.631607106
5.618749026
5.630688527
5.643443688
5.645924917
5.620668089
5.629015218
5.610788172
5.620746126
5.616612226
5.598759118
5.605789157
5.600074616
5.621803948
5.627207712
5.617044502
5.614713467
5.61408378
5.616480477
5.615892858
5.6190163
5.618807137
5.620578977
5.621645165
5.617970089
5.62474842
5.596466934
5.596649606
5.597455082
5.595893017
5.601411364
5.612535452
5.616219305
5.623229466
5.630605474
5.646813691
5.63373782
5.637554527
5.645189144
5.646325285
5.636703995
5.626822499
5.617052326
5.609415085
5.617668282
5.596779099
5.607357441
5.586131102
5.595916106
5.608959784
5.627534224
5.62257575
5.629965774
5.629826122
5.620862047
5.626269779
5.625119661
5.622768534
5.62595681
5.625053304
5.637815759
5.633858814
5.623275562
5.623261975
5.62328594
5.624061867
5.608189213
5.613882535
5.591347323
5.599124397
5.61450707
5.632553774
5.620878185
5.618947544
5.620826522
5.612701394
5.610597981
5.613316364
5.618179201
5.615095494
5.615197389
5.616901937
5.604924724
5.611860317
5.608582114
5.609560876
5.623702754
5.615830999
5.621531667
5.607082723
5.606192267
5.599222203
5.608091913
5.61664608
5.616483612
5.604703225
5.603886292
5.618448407
5.604240228
5.609064452
5.607702001
5.610448501
5.603477322
5.611061006
5.610250772
5.622257959
5.597311667
5.596746019
5.600049647
5.610048063
5.613899908
5.616008667
5.614174062
5.62576614
5.629796625
5.631315702
5.628287835
5.610181772
5.618641879
5.616212643
5.628697051
5.627293958
5.627518601
5.613624351
5.618419832
5.604298688
5.614537365
5.616265621
5.621056471
5.62746064
5.624998411
5.625924742
5.620766745
5.614485513
5.62591836
5.633910306
5.628465741
5.628987484
5.630022351
5.618643041
5.614570489
5.634568368
5.636399141
5.631138592
5.629822104
5.628940245
5.636446394
5.639763341
5.635536524
5.63280981
5.62972233
5.628287542
5.622215228
5.633172945
5.623701209
5.620537735
5.619260887
5.612486504
5.613426622
5.63085636
5.624822987
5.606640398
5.612271939
5.623377699
5.624879527
5.633974025
5.615908558
5.603366505
5.596035469
5.606052907
5.603691357
5.61786689
5.624632487
5.615500548
5.615302345
5.602883324
5.594028707
5.609479282
5.60701731
5.597836448
5.599586747
5.608451241
5.613933865
5.625550252
5.615623259
5.623183341
5.607656346
5.611130926
5.610938918
5.607379998
5.616221651
5.612337458
5.612153197
5.610088944
5.61696528
5.617669357
5.605828197
5.609298063
5.610304648
5.623729829
5.63757664
5.613889411
5.588555207
5.610718946
5.624336031
5.614775828
5.623182217
5.630200897
5.625011489
5.628892168
5.62458708
5.625660266
5.619089239
5.620055918
5.605301262
5.605200511
5.613387203
5.610364616
5.613548147
5.605712761
5.614129887
5.619169563
5.620736174
5.613006824
5.607930613
5.619497605
5.624650145
5.62256535
5.620327338
5.624695836
5.630340698
5.612539448
5.599740848
5.601602819
5.614254897
5.617646981
5.599931561
5.606105068
5.603822751
5.60664256
5.61670903
5.614010154
5.606898944
5.604793142
5.613212171
5.615057836
5.612018502
5.621044576
5.616783618
5.613637378
5.619129788
5.625222128
5.623270775
5.62140036
5.606715866
5.601083872
5.597299829
5.607332239
5.608100444
5.604896659
5.604003222
5.601120211
5.596708221
5.619978523
5.610560841
5.600211285
5.606155236
5.61066575
5.612876421
5.608213523
5.620926048
5.622231258
5.63294979
5.624737658
5.631577817
5.63251332
5.625281787
5.617693217
5.60554012
5.5935856
5.599118699
5.609787953
5.603719138
5.59728634
5.611161639
5.613006182
5.606850478
5.604320807
5.605030191
5.614985436
5.605922259
5.605529095
5.592319088
5.607215684
5.598240307
5.599575369
5.609099282
5.605819148
5.606185356
5.605234758
5.597449318
5.598686005
5.602394157
5.603592551
5.613660192
5.604799509
5.633450903
5.62636794
5.620855392
5.633228588
5.637103136
5.629787324
5.63302815
5.619240885
5.61469774
5.62057927
5.613570333
5.618733698
5.619402432
5.619960971
5.627977711
5.634632708
5.639753124
5.631999168
5.625799094
5.631651973
5.616791973
5.616641065
5.609182165
5.600469105
5.593239498
5.600580767
5.625085075
5.625380949
5.611222999
5.62171613
5.620769707
5.625930759
5.612828446
5.621979817
5.627288709
5.617355458
5.624422155
5.615526482
5.612806742
5.610127137
5.59971242
5.60166836
5.597947997
5.603597053
5.61530592
5.622564666
5.613935095
5.607640741
5.626375156
5.625716451
5.62619262
5.629344082
5.631360378
5.629558826
5.629209144
5.625101411
5.605685025
5.602852775
5.602758446
5.592473678
5.61037541
5.60604497
5.609403369
5.610784487
5.605405601
5.614531293
5.607972037
5.616276588
5.604779793
5.609817938
5.61047183
5.615448497
5.624753807
5.611712005
5.600554502
5.600054637
5.625122438
5.625893998
5.612534636
5.60478285
5.622927969
5.620372759
5.631465396
5.620657058
5.606203837
5.599054701
5.603292473
5.624408895
5.631898858
5.61466282
5.600376042
5.601780239
5.61053607
5.617965325
5.636577033
5.634153245
5.626833811
5.620054501
5.623737732
5.628471808
5.632141038
5.642763231
5.631835201
5.632402955
5.628493599
5.634869393
5.630038189
5.608691397
5.60686738
5.610184663
5.609831565
5.604459858
5.599899145
5.596521445
5.596648769
5.591299551
5.598600153
5.598346261
5.602246197
5.620850638
5.63070163
5.631233316
5.624827584
5.615835169
5.618126402
5.622568312
5.62784535
5.608609494
5.619543007
5.617013463
5.613917595
5.626320306
5.620356137
5.612066167
5.606902238
5.615988098
5.629552769
5.632164728
5.623388905
5.609170448
5.628246016
5.641254836
5.635852185
5.626795323
5.629037612
5.627218484
5.614659572
5.616727171
5.612094656
5.629299995
5.633776486
5.635892403
5.62321411
5.627533258
5.620060097
5.620500021
5.618702081
5.610950393
5.622316825
5.639232462
5.606923546
5.615933179
5.616641731
5.622707866
5.637860389
5.628762768
5.618712926
5.625728547
5.625662867
5.624238309
5.611311305
5.612344345
5.612319885
5.615076126
5.601421946
5.601846785
5.604109729
5.596686801
5.589080758
5.595063329
5.611476213
5.621748225
5.628807015
5.629628658
5.623415726
5.621375909
5.631833665
5.619683734
5.618514568
5.618936147
5.620758129
5.634015601
5.619624591
5.59910016
5.598739406
5.614583798
5.619132309
5.614078312
5.60536224
5.59973749
5.616347857
5.61570245
5.617118409
5.598431454
5.608128545
5.609244801
5.609650316
5.600086527
5.6023515
5.627377955
5.624547583
5.638163719
5.626881083
5.611744465
5.609223825
5.602711677
5.597053496
5.599717092
5.614453607
5.615560875
5.614274349
5.604974118
5.594158727
5.590015067
5.587626773
5.597515289
5.603165282
5.600053074
5.606343084
5.595621789
5.619335459
5.634574598
5.636202699
5.623129418
5.62447577
5.629932677
5.632661381
5.620239083
5.605917354
5.611853412
5.607568659
5.608193071
5.623129449
5.62957032
5.618726495
5.610991575
5.611756982
5.606236884
5.596420871
5.610755541
5.615737155
5.631638814
5.63501599
5.645489276
5.645894717
5.639141871
5.620868424
5.618275106
5.624059217
5.624484979
5.62020883
5.620521654
5.622723541
5.627501986
5.628939676
5.614082566
5.615288814
5.609676103
5.602010297
5.60505145
5.610820724
5.60823541
5.620823535
5.62669648
5.633337616
5.631996064
5.648362223
5.633752707
5.628940964
5.632138297
5.63213292
5.62230658
5.620572765
5.609154651
5.60625019
5.589182044
5.593652041
5.601296237
5.605215565
5.611267161
5.607329082
5.59754467
5.592736247
5.602005282
5.594400784
5.596532881
5.585903766
5.600648747
5.606261615
5.622423957
5.615179917
5.611935762
5.603405646
5.593732395
5.590458761
5.599866594
5.606248224
5.609164403
5.604940396
5.59646226
5.618610438
5.609753436
5.603685609
5.602071485
5.593754309
5.598832502
5.604477461
5.596058017
5.585992957
5.602370071
5.615346559
5.617683685
5.610697711
5.594181914
5.608941696
5.615676889
5.603649014
5.603321944
5.621507676
5.600811804
5.605638489
5.603085196
5.605666235
5.613653273
5.6129826
5.591982437
5.591331798
5.592920408
5.61767168
5.615422026
5.599137422
5.598477652
5.599386152
5.628966489
5.624517646
5.615825966
5.629968016
5.627812766
5.619213602
5.622795448
5.622456375
5.622359224
5.621090259
5.618528498
5.610484757
5.60544255
5.606532552
5.614939749
5.615240327
5.608181198
5.607813475
5.599002982
5.595704027
5.607919273
5.608298245
5.621647706
5.61331923
5.618616704
5.613404621
5.613186566
5.619879591
5.620679096
5.620626968
5.624082968
5.625475744
5.620350101
5.624151821
5.613472094
5.616801528
5.619526109
5.599545169
5.622063162
5.619774891
5.625478159
5.618212629
5.607386499
5.618643871
5.611240646
5.603258722
5.598649756
5.608438225
5.620323556
5.615922628
5.609368487
5.616074306
5.608990651
5.602459853
5.603041706
5.601821635
5.602191724
5.626270288
5.616462533
5.61247879
5.612422674
5.603537231
5.607313457
5.607858656
5.605703328
5.617491018
5.63221307
5.618135706
5.614659837