/*--------------------------------*- C++ -*----------------------------------*\
| =========                 |                                                 |
| \\      /  F ield         | OpenFOAM: The Open Source CFD Toolbox           |
|  \\    /   O peration     | Version:  v1706                                 |
|   \\  /    A nd           | Web:      www.OpenFOAM.com                      |
|    \\/     M anipulation  |                                                 |
\*---------------------------------------------------------------------------*/
FoamFile
{
    version     2.0;
    format      ascii;
    class       volScalarField;
    location    "0.01";
    object      Ma_N2;
}
// * * * * * * * * * * * * * * * * * * * * * * * * * * * * * * * * * * * * * //

dimensions      [0 0 0 0 0 0 0];


internalField   nonuniform List<scalar> 
5120
(
5.525688198
5.518409765
5.523242088
5.535983962
5.536325521
5.533146861
5.516567381
5.514159938
5.510619884
5.526716618
5.518302758
5.513527495
5.525298991
5.524381391
5.539097378
5.547302607
5.530230641
5.529224829
5.52780166
5.5310109
5.518605321
5.511149531
5.499885879
5.516501565
5.5310944
5.527717745
5.520899327
5.534559829
5.54440885
5.526703871
5.534405909
5.517499611
5.521531484
5.507244535
5.518151121
5.5381652
5.55439303
5.545527108
5.535916844
5.517651833
5.50920616
5.49577026
5.501383193
5.524082744
5.520632771
5.516189832
5.501434489
5.510416687
5.522873945
5.518862108
5.534531067
5.529735006
5.517183887
5.513301105
5.505970216
5.51246734
5.513095191
5.515199477
5.50363314
5.510116013
5.525748867
5.544183743
5.539839363
5.528939253
5.523401617
5.529999614
5.519042384
5.529548144
5.524289145
5.532588299
5.537994381
5.557611555
5.542175469
5.546413966
5.539739451
5.528133508
5.520129748
5.54015321
5.545107491
5.529193287
5.529522468
5.533067034
5.541902755
5.548958665
5.548133646
5.532730998
5.535372398
5.5362318
5.526989212
5.533038003
5.553350413
5.571647806
5.576702981
5.56723486
5.548771543
5.553277519
5.565803648
5.556392877
5.555499301
5.538922759
5.532722245
5.519211853
5.524419985
5.538395162
5.547771023
5.546961103
5.55326429
5.544392233
5.556296267
5.554852168
5.536572392
5.524231974
5.536128483
5.5581115
5.566994931
5.565411104
5.560620266
5.542170265
5.557072587
5.564570925
5.531229718
5.539825826
5.533698359
5.539771798
5.536189631
5.528006267
5.543299184
5.544297453
5.552367436
5.55699664
5.570351524
5.558828536
5.548308692
5.548618734
5.553935382
5.557784195
5.557453701
5.551323807
5.552092563
5.535928389
5.537915406
5.548006545
5.556006915
5.559579835
5.530630232
5.533661845
5.545116765
5.545937785
5.546734469
5.547727141
5.547349063
5.542989382
5.536393738
5.54167336
5.520545516
5.522968786
5.541975621
5.551851427
5.550036966
5.53831113
5.540220072
5.535281704
5.537231078
5.543336843
5.550437111
5.545448149
5.545017481
5.545771566
5.527941794
5.525594791
5.531105957
5.532147791
5.555742786
5.540072782
5.537319619
5.524962847
5.526687743
5.539647045
5.544945003
5.540212913
5.579575145
5.578569521
5.566161199
5.560284631
5.546528239
5.532411287
5.523090949
5.537593369
5.541204707
5.534145621
5.532489876
5.529512789
5.525728134
5.532713472
5.534418924
5.529041719
5.526252265
5.550154796
5.549766103
5.557358571
5.521415338
5.525175014
5.537857767
5.535738104
5.536877958
5.538607056
5.556923988
5.538183495
5.527806279
5.543202615
5.558387751
5.558940925
5.557412963
5.557257696
5.564099426
5.550825427
5.53198415
5.53551721
5.525838439
5.528319238
5.547308971
5.541192959
5.533383262
5.530531431
5.546558678
5.552630913
5.553093413
5.555683941
5.55156552
5.539421419
5.549822244
5.537540583
5.547027091
5.540845247
5.530301296
5.532482693
5.5425812
5.536222141
5.545115404
5.538828736
5.547474031
5.541230347
5.546575641
5.549560377
5.557708889
5.558963138
5.549178477
5.533791548
5.526046642
5.53873794
5.532646304
5.529454446
5.531763241
5.521472382
5.531394345
5.524659402
5.531561556
5.534126498
5.553325584
5.562938093
5.515818826
5.523067737
5.527302259
5.540520038
5.534076355
5.54431461
5.527891171
5.527934949
5.53448182
5.533955661
5.539122504
5.541007919
5.530902093
5.535692939
5.531433322
5.52258621
5.518788191
5.519614837
5.537991096
5.520140086
5.528131901
5.519143128
5.526629047
5.529709948
5.513317552
5.504809956
5.524160454
5.540322202
5.534701369
5.532297753
5.533650079
5.521305608
5.524857161
5.542784922
5.528262102
5.513067656
5.512595205
5.538736657
5.539712372
5.538459416
5.549001075
5.526424583
5.51029053
5.524077188
5.522413484
5.514251262
5.498991225
5.485860587
5.503861443
5.501416838
5.512730915
5.510320855
5.520033643
5.520705248
5.521108252
5.525860293
5.536839766
5.532168208
5.530868828
5.531347399
5.536606474
5.553421019
5.564315577
5.542183432
5.543628398
5.540059191
5.53172493
5.508300243
5.517606965
5.527183568
5.539157777
5.556450128
5.566704506
5.568085809
5.538391703
5.52739011
5.535705241
5.540386421
5.548433006
5.535102015
5.540852068
5.53376031
5.527713361
5.533194726
5.522829404
5.53432947
5.550829176
5.535683516
5.534691935
5.529397267
5.526572301
5.522559935
5.521036878
5.513298523
5.521334966
5.522648882
5.535809119
5.53364602
5.541296099
5.554183733
5.521860563
5.532332118
5.518668524
5.501734936
5.512577268
5.519075012
5.517266784
5.511418717
5.515200486
5.524356657
5.508893036
5.51576507
5.501915971
5.507540122
5.52083846
5.534903187
5.520275664
5.529933005
5.525846586
5.515878115
5.528036468
5.527404865
5.541029362
5.545452392
5.523510815
5.517516634
5.53678873
5.528305096
5.534800128
5.531305585
5.532427896
5.52509269
5.524061945
5.510174087
5.513335559
5.521853074
5.511687929
5.506782465
5.511318744
5.536241779
5.527433776
5.521546076
5.514145885
5.519957408
5.544121109
5.549019213
5.537172613
5.540907597
5.534732339
5.541995951
5.540254176
5.537834021
5.543415432
5.538170238
5.536180118
5.534706272
5.539633519
5.524577166
5.524292237
5.527983141
5.555248026
5.536291826
5.522627347
5.523992564
5.524650182
5.527642465
5.534322419
5.541210478
5.551967345
5.53915802
5.512962325
5.511792713
5.521053141
5.517179425
5.526278408
5.527863837
5.525379936
5.533856927
5.530843269
5.529037333
5.53328273
5.525162234
5.531813201
5.537886684
5.533959366
5.524829201
5.535672647
5.533169791
5.528606578
5.53144745
5.540589765
5.547566579
5.52978027
5.526416654
5.523413276
5.512120696
5.51840348
5.517154065
5.522273702
5.534809256
5.532588737
5.552624002
5.544720508
5.520246903
5.52555513
5.504477882
5.521536972
5.518069733
5.512032465
5.52185429
5.532099451
5.537387206
5.538367991
5.537514273
5.528413545
5.538510426
5.511957577
5.50682418
5.519017982
5.528007532
5.553488591
5.543119946
5.547793993
5.558829451
5.553543379
5.563232723
5.535885925
5.536954766
5.558654186
5.55646852
5.559441793
5.544216595
5.540707655
5.520643176
5.530085286
5.540031393
5.531379074
5.527149478
5.549923982
5.549356812
5.523493958
5.532033857
5.527325414
5.531923779
5.532015391
5.540425144
5.550723224
5.546997974
5.548539161
5.544055891
5.534761293
5.557185116
5.548382766
5.550705161
5.553748243
5.545495689
5.563884324
5.554823623
5.531451039
5.532542272
5.547659859
5.527502524
5.539798908
5.556352682
5.547751805
5.532477825
5.530756401
5.537551573
5.547058591
5.529834343
5.52794378
5.540316466
5.556830098
5.5435511
5.543017101
5.542133353
5.540563239
5.525533983
5.538682002
5.550114708
5.527077246
5.524516039
5.53473678
5.540531789
5.545341049
5.541526102
5.546749925
5.546393051
5.533566022
5.537599505
5.535215583
5.525950988
5.519421039
5.538723942
5.551549641
5.541017636
5.54804897
5.5543269
5.543931608
5.522407422
5.553057778
5.560611962
5.536131668
5.527287174
5.524826355
5.521826223
5.520016305
5.53998839
5.553296018
5.538442576
5.536507224
5.54377152
5.544634054
5.547998727
5.552710701
5.565060797
5.544124393
5.526371153
5.531950437
5.555981689
5.526695074
5.543816914
5.551878424
5.54567448
5.538784528
5.523428268
5.540643828
5.549644703
5.538570516
5.536503441
5.531439218
5.539738122
5.55659255
5.567888381
5.553900643
5.53868737
5.552512875
5.547191161
5.533599717
5.519266548
5.539425433
5.534738307
5.544341552
5.550184885
5.531345119
5.536217677
5.537673366
5.527931155
5.532297753
5.535748656
5.524275128
5.52995669
5.525142701
5.520089289
5.528842125
5.534465335
5.527467276
5.517487802
5.53640848
5.538863585
5.528767916
5.530967034
5.524239889
5.506952703
5.510464714
5.530941058
5.529252126
5.529276998
5.528833866
5.53011734
5.551845496
5.549069386
5.536181083
5.534345015
5.538652954
5.550369942
5.540971852
5.539661708
5.518773304
5.524475026
5.542293027
5.540220046
5.53643939
5.539391478
5.533890288
5.531308564
5.534292868
5.546110166
5.556887962
5.533657523
5.519426059
5.508732576
5.514437991
5.531849174
5.532314096
5.528371239
5.521373079
5.536280039
5.534905435
5.538820274
5.54018498
5.542963384
5.51341275
5.520325989
5.530480296
5.521353078
5.522998248
5.527961435
5.515506077
5.534982303
5.527100601
5.528652667
5.5303812
5.539834643
5.52310279
5.542118768
5.530508417
5.532125185
5.526498496
5.53331934
5.526653731
5.517505173
5.517102292
5.526862017
5.514692607
5.507844154
5.516296862
5.532473411
5.526202328
5.512795379
5.522382273
5.518566564
5.523781071
5.532758569
5.540149058
5.530777026
5.523134036
5.522703677
5.532264134
5.538940433
5.520904909
5.528190938
5.53255401
5.517573398
5.505298413
5.517492368
5.52179127
5.525532109
5.531132349
5.531974595
5.523682665
5.530804042
5.537541376
5.539936177
5.535324371
5.529261663
5.535076073
5.534645289
5.51913996
5.517103163
5.529009787
5.525454423
5.529874974
5.527905006
5.536053384
5.547363146
5.540986033
5.535963184
5.53521043
5.544916266
5.540975847
5.537794473
5.531605231
5.522233122
5.526210794
5.533886202
5.544472733
5.540051608
5.537348295
5.546952948
5.522021577
5.525190532
5.539690743
5.548170542
5.528253469
5.53406484
5.546519249
5.556041784
5.55063608
5.543488436
5.540432887
5.539145658
5.543828358
5.53454434
5.538833334
5.523205634
5.527832593
5.538877441
5.528766062
5.526835114
5.546388604
5.542952332
5.536561262
5.536867952
5.55430823
5.552379856
5.530601602
5.529785788
5.534728703
5.533892939
5.527222957
5.517006609
5.502644477
5.507825326
5.530148622
5.526288056
5.523167361
5.523800926
5.522111707
5.531440469
5.541783889
5.525519977
5.528786875
5.537287539
5.53773378
5.525547356
5.535159392
5.533309743
5.542666136
5.53949597
5.537361173
5.532417358
5.539994136
5.543122402
5.529181144
5.517369755
5.522744363
5.543110658
5.538793275
5.533287385
5.51566297
5.528093013
5.523463064
5.535546183
5.540047966
5.54941654
5.545035069
5.536941758
5.527382946
5.537981661
5.536942833
5.538472078
5.534419108
5.531303463
5.529872942
5.538721116
5.54360489
5.537196578
5.521761084
5.522325707
5.535798861
5.530125672
5.514377669
5.527302858
5.542165969
5.539624963
5.538703449
5.54263394
5.53513501
5.533408434
5.524899243
5.541246411
5.543063338
5.545470741
5.54200832
5.531248596
5.519423782
5.531096846
5.536110173
5.543338179
5.519614349
5.53773942
5.533149941
5.520817828
5.528166925
5.534020968
5.535610614
5.548863136
5.543810799
5.546336071
5.547210274
5.541057135
5.531577154
5.551704621
5.543906801
5.543402216
5.546428913
5.538085366
5.532843663
5.512016587
5.549218242
5.542234543
5.548647291
5.546175775
5.537248496
5.521961339
5.541723001
5.538306086
5.553186229
5.548092626
5.546437751
5.534065641
5.550726182
5.548676719
5.529805318
5.529570832
5.539206758
5.534106973
5.534387118
5.532974789
5.527925722
5.552326691
5.547572772
5.52645679
5.525430378
5.538771337
5.546221163
5.561548503
5.56594841
5.561438911
5.565143438
5.54786836
5.548083471
5.560601953
5.552254091
5.544499297
5.538788188
5.550514679
5.542236571
5.540545172
5.562142087
5.55313769
5.545540274
5.558629227
5.554579544
5.560810755
5.544711313
5.545927838
5.558381095
5.552783005
5.532599748
5.547780542
5.560868506
5.520831063
5.521079799
5.538070205
5.547552198
5.5393395
5.536253673
5.553122248
5.521053228
5.527708184
5.519805165
5.523725551
5.557894765
5.554242674
5.538221387
5.52844218
5.527904097
5.526217484
5.527201497
5.508551408
5.498662032
5.503863781
5.499256883
5.504986186
5.520860931
5.514931943
5.52844009
5.527221766
5.544317285
5.544070462
5.548984719
5.546487501
5.524131341
5.519963019
5.544451388
5.539954881
5.536020126
5.524133955
5.521843967
5.517957792
5.529988365
5.547582847
5.563594689
5.554851896
5.548387103
5.546268001
5.550848494
5.54751759
5.512286674
5.524374503
5.537595249
5.551624676
5.542698321
5.537950847
5.521202957
5.521344062
5.536846932
5.518130825
5.514972377
5.515868828
5.508071566
5.498731425
5.512369424
5.521298161
5.514133449
5.514543068
5.513580727
5.505294796
5.53033433
5.531944504
5.563367577
5.542773483
5.54814906
5.541891509
5.552337282
5.557502729
5.543117196
5.552480163
5.558872563
5.559430077
5.554162533
5.540569512
5.526769776
5.533414015
5.540607947
5.536652982
5.539113246
5.528237559
5.530430058
5.511861507
5.499469412
5.493834362
5.504970313
5.526315833
5.531115906
5.533363025
5.547813639
5.550095965
5.538228185
5.540088766
5.539525352
5.521256136
5.525315396
5.523492782
5.507625975
5.51818181
5.525541999
5.523079507
5.540327111
5.557785229
5.552224997
5.537286083
5.560769673
5.54880009
5.5440288
5.528985632
5.519997229
5.504060421
5.524267687
5.538907074
5.527254882
5.53203868
5.528679435
5.520460441
5.548192275
5.544842067
5.548044457
5.530197618
5.551522056
5.542515043
5.545183781
5.557687097
5.533034222
5.511197171
5.498664508
5.512124904
5.541991944
5.54807134
5.550361875
5.544754825
5.54067044
5.527682034
5.546511125
5.547642442
5.547545594
5.541207674
5.541088036
5.550021767
5.525541422
5.535752692
5.534763038
5.522814966
5.538907848
5.551173625
5.532792001
5.544760948
5.532353526
5.529564307
5.528546141
5.524357575
5.526348858
5.534479659
5.5167823
5.51467749
5.514656137
5.530016284
5.532979924
5.535121673
5.519456819
5.532893434
5.529728929
5.519105636
5.521725401
5.543202452
5.536311445
5.529190963
5.517276392
5.520903605
5.52073477
5.519954457
5.523422652
5.518187608
5.510899641
5.52277966
5.524550935
5.516446019
5.522271299
5.51999773
5.518748784
5.521930135
5.527360258
5.542415223
5.526967816
5.54002723
5.539069543
5.540344652
5.530349158
5.522358668
5.52155967
5.530571436
5.523102206
5.521761737
5.505250298
5.515439015
5.509449836
5.527238444
5.530956719
5.518137394
5.524100773
5.529338732
5.551236866
5.540171776
5.530675364
5.533914509
5.535200954
5.519520519
5.53217002
5.537115869
5.533295306
5.52121668
5.520753146
5.542636171
5.548189619
5.536337951
5.551873498
5.531257601
5.52782166
5.532187372
5.530151846
5.543868201
5.552646334
5.536865209
5.531628016
5.532633196
5.520858353
5.52748843
5.515796787
5.527404006
5.521765301
5.521933939
5.526501671
5.526003269
5.529109741
5.544080603
5.543762907
5.552084244
5.547984654
5.538777186
5.546262893
5.55471154
5.529814531
5.543692912
5.558087868
5.557142337
5.537569645
5.516490168
5.512598267
5.51626773
5.535720311
5.534592828
5.537429185
5.53495394
5.544024252
5.538184269
5.528164981
5.526110535
5.533753221
5.549491883
5.526083901
5.536744689
5.527246625
5.527511804
5.523711117
5.542000868
5.521675866
5.522351294
5.532643509
5.536755664
5.540676551
5.533312252
5.523051669
5.506330864
5.518517547
5.525545615
5.53769157
5.532915199
5.519541943
5.517302847
5.540486172
5.523336084
5.532904496
5.543574475
5.540011297
5.547049952
5.567481287
5.543782262
5.545669494
5.561139438
5.572410742
5.560783784
5.543087158
5.535635448
5.52226282
5.528425114
5.55284861
5.545701345
5.55495266
5.541515232
5.544997853
5.540823549
5.531985752
5.522317028
5.530594657
5.528152778
5.525653284
5.529745172
5.518154223
5.52306803
5.525296448
5.522236829
5.533961795
5.541401778
5.540280863
5.543041683
5.530710696
5.550343676
5.547878326
5.540668884
5.524557274
5.518195648
5.524905858
5.524480888
5.513562716
5.504651774
5.517719785
5.523450256
5.518650492
5.518299273
5.541196754
5.528387108
5.524121217
5.512299377
5.536187213
5.541551144
5.541593557
5.539818462
5.529078933
5.52005521
5.534392838
5.537198662
5.530632927
5.532913511
5.534802346
5.530395174
5.52029874
5.510678716
5.518233264
5.519607902
5.514137317
5.524824913
5.540630029
5.533518145
5.538559767
5.530493145
5.537475697
5.528408018
5.539073857
5.542066352
5.536794572
5.541285787
5.528535227
5.521794626
5.522171749
5.522964397
5.51537382
5.511124934
5.511788027
5.520582747
5.527772046
5.52318697
5.506637067
5.512451389
5.532525542
5.53613538
5.533270207
5.529668176
5.518401649
5.523546036
5.523150764
5.524015465
5.537689733
5.53543952
5.549395238
5.552979312
5.546313994
5.547038955
5.543925366
5.525655494
5.52183436
5.51222176
5.51658503
5.533709881
5.535993344
5.514775137
5.516316092
5.50965256
5.516629103
5.511698239
5.518114021
5.527569971
5.535950335
5.53918891
5.525312055
5.521008703
5.521408741
5.519916213
5.510020548
5.51640221
5.512109669
5.523770373
5.545270564
5.539131655
5.510259893
5.513035687
5.516391635
5.512101132
5.533913064
5.53123881
5.54233228
5.521921228
5.522674384
5.53006266
5.52037594
5.518035749
5.514017852
5.50932599
5.5181269
5.510719174
5.520407049
5.504101403
5.514165908
5.53228919
5.5334713
5.532947722
5.524718059
5.529830044
5.548239625
5.547188129
5.546119388
5.539183079
5.51954084
5.506016933
5.525853228
5.546362388
5.543434317
5.519656497
5.528397011
5.525627392
5.530963389
5.553281236
5.554792679
5.529975213
5.507256961
5.527973545
5.546662637
5.536551597
5.518280713
5.54361788
5.536901957
5.541725177
5.543856856
5.541453217
5.533005355
5.541662031
5.536520355
5.541013197
5.544813352
5.544425898
5.541050222
5.533494642
5.532658307
5.521420327
5.529253848
5.514280053
5.528136359
5.536433428
5.545314912
5.537106
5.544784894
5.542413507
5.544251093
5.552060646
5.554618498
5.530511804
5.540463363
5.528194538
5.529630095
5.524621825
5.514337926
5.520907741
5.529365809
5.538394217
5.549276467
5.552448114
5.539800094
5.527934712
5.530798241
5.543837273
5.525733545
5.534801087
5.529324716
5.518752655
5.534446466
5.535107018
5.532891414
5.529561173
5.518655879
5.518585526
5.531414323
5.526723492
5.528628049
5.516922404
5.525427335
5.526371048
5.541882274
5.539318692
5.526013663
5.52506223
5.546093034
5.537070621
5.523617274
5.533048272
5.532875221
5.518016244
5.505356811
5.523859453
5.52882894
5.526910318
5.54462939
5.562065628
5.555062875
5.526560213
5.525516741
5.543162276
5.553479839
5.548492134
5.53976734
5.541618906
5.550235678
5.551086403
5.548445524
5.533527988
5.511236141
5.522147534
5.520386686
5.534180462
5.53377061
5.529465902
5.526765024
5.516472
5.517932672
5.542541691
5.540474745
5.535446673
5.519870781
5.517234183
5.520026029
5.538278542
5.532395187
5.540386429
5.54597791
5.531358447
5.531992677
5.514855994
5.511185633
5.488417673
5.516203493
5.535043813
5.529676425
5.534476716
5.53152253
5.535428977
5.525349606
5.512722406
5.530401506
5.52736239
5.530603544
5.534888608
5.529753305
5.523647333
5.537865232
5.540145621
5.534469349
5.518333909
5.525876318
5.522377126
5.509227686
5.502062227
5.502157236
5.515978342
5.521163212
5.53886684
5.533879224
5.52266338
5.521899268
5.523714598
5.537792753
5.544627359
5.529440114
5.533801939
5.525212262
5.519627504
5.518883927
5.535924191
5.545605219
5.554434926
5.553174206
5.554984168
5.547007642
5.542944793
5.532608866
5.529306746
5.552184306
5.537115244
5.539230828
5.548454176
5.538369411
5.528586507
5.544006207
5.548616233
5.548675813
5.528941205
5.526484202
5.522081093
5.536839313
5.559280971
5.577717556
5.552411758
5.535489496
5.548054315
5.534183373
5.540162551
5.532076511
5.522706721
5.529676888
5.542516627
5.537832509
5.544047058
5.540193284
5.549742679
5.539954987
5.544126574
5.544507621
5.542362147
5.538655791
5.538386608
5.540056136
5.543750569
5.545233414
5.540385159
5.552113969
5.538875131
5.530969345
5.533992158
5.538045376
5.527990038
5.54796466
5.548516852
5.534004331
5.511806247
5.527210092
5.53915181
5.53467399
5.539645128
5.551685114
5.532516682
5.527005637
5.529082013
5.532560362
5.524499255
5.528728788
5.535016547
5.517424848
5.527204039
5.521276567
5.536129574
5.538656243
5.538622453
5.499514481
5.498247384
5.519301483
5.530008262
5.525907485
5.533790753
5.543814635
5.562459646
5.556220554
5.547575424
5.532380179
5.511630244
5.519499853
5.526050231
5.526596258
5.523328236
5.519452196
5.507672197
5.521177263
5.515747357
5.523291193
5.514983386
5.50308482
5.508771988
5.516952815
5.513564211
5.515135089
5.515773632
5.523733021
5.525911675
5.529285733
5.537192934
5.530523996
5.520225587
5.495502324
5.512982929
5.514691699
5.513542481
5.513211339
5.519489997
5.511313226
5.518085266
5.517572702
5.508848232
5.512455978
5.517871123
5.512359887
5.5149839
5.51010326
5.519369385
5.523252162
5.525803961
5.520145742
5.513352824
5.51957992
5.515219196
5.509091876
5.514261221
5.497798394
5.50194484
5.533172493
5.535687624
5.533023426
5.519641413
5.515323494
5.518197927
5.524644019
5.513053474
5.526894028
5.52983436
5.533898677
5.527915657
5.517297972
5.521808641
5.540463451
5.550385095
5.543747618
5.534967317
5.535301339
5.53858604
5.531847469
5.524418754
5.526525322
5.545091073
5.533983583
5.528697213
5.528856311
5.531889473
5.518486057
5.508908534
5.520014637
5.511893668
5.508902461
5.521738623
5.524331539
5.518749638
5.526398134
5.523801863
5.521373375
5.522982049
5.526030894
5.543017802
5.546415563
5.53025041
5.528937827
5.521800479
5.541785746
5.536618282
5.531687474
5.527091997
5.527997845
5.535178913
5.522759653
5.537829899
5.542473512
5.546463571
5.542601925
5.523538361
5.520792281
5.517034897
5.514974762
5.51268686
5.514280203
5.52646586
5.527763294
5.532421232
5.526978527
5.532220245
5.544208286
5.547961898
5.534547407
5.533273874
5.540193949
5.548299765
5.543924137
5.53407134
5.546377067
5.559867347
5.555060146
5.530088415
5.540351173
5.517632084
5.530271607
5.527580347
5.515738308
5.522479907
5.514397924
5.545356524
5.547488865
5.533731159
5.531353703
5.528560186
5.530268555
5.530495564
5.537456647
5.532629689
5.534249737
5.531640755
5.534766874
5.538190896
5.515675903
5.511980188
5.511493434
5.506336011
5.512096719
5.527683569
5.540748519
5.543145523
5.541984661
5.557983019
5.548994726
5.5541968
5.558808052
5.55814796
5.54483571
5.53617481
5.521722388
5.504287824
5.514604548
5.509509879
5.516871799
5.497551069
5.503551891
5.516642879
5.536965741
5.534029665
5.534370983
5.535160509
5.528426699
5.530150544
5.538085281
5.530867051
5.531731231
5.527238525
5.549893968
5.537921394
5.524837061
5.531692726
5.538657475
5.535627577
5.536211174
5.536762113
5.514354702
5.515158314
5.523101682
5.539712361
5.536573694
5.535580099
5.531256638
5.520555338
5.519862722
5.528359725
5.530128964
5.528677991
5.526140078
5.530935283
5.520363276
5.530718842
5.531677056
5.532289907
5.538973096
5.533333617
5.539977183
5.515161806
5.513555815
5.510821313
5.515678296
5.52864618
5.528257767
5.518608282
5.511913252
5.532819178
5.517291874
5.517204445
5.517720574
5.52062981
5.509270821
5.521395137
5.519131118
5.535311929
5.523083105
5.514049159
5.520590288
5.530998724
5.530936994
5.535005303
5.535281139
5.545243599
5.545276983
5.543559755
5.535195731
5.518848732
5.534352309
5.537493645
5.551671962
5.550754294
5.547583079
5.532421898
5.534390147
5.526205546
5.52754678
5.533944665
5.537475247
5.547575324
5.547421763
5.54560354
5.534246175
5.522970146
5.527562631
5.536475206
5.537649666
5.543237369
5.542092514
5.531084541
5.526283153
5.549904752
5.553417547
5.539438462
5.5427292
5.549212989
5.541174889
5.544643847
5.542326772
5.549405922
5.548735498
5.541514357
5.539168856
5.549510247
5.53731957
5.52951955
5.522824824
5.526847571
5.531926079
5.547242122
5.542560201
5.519312241
5.524100623
5.530928255
5.534234299
5.542333484
5.518668112
5.507194145
5.503734449
5.515124753
5.520574488
5.533669216
5.547383372
5.533935798
5.533732315
5.521331693
5.514014309
5.520466941
5.518345499
5.51041464
5.509528964
5.517512797
5.521972247
5.535938822
5.520024808
5.528240601
5.510899058
5.515998263
5.519243219
5.516108984
5.522958227
5.520730262
5.523385975
5.524047087
5.536403677
5.526823194
5.517614815
5.522202848
5.522900084
5.537632505
5.550079054
5.532513763
5.512344026
5.524741367
5.533706495
5.520079938
5.537844273
5.546626615
5.533602859
5.53259338
5.525386158
5.529176399
5.527006744
5.523345137
5.517543933
5.520097241
5.522421999
5.518170443
5.517577707
5.518847816
5.530012622
5.533986139
5.531812167
5.516607287
5.518956435
5.531527559
5.537808926
5.533791099
5.5364622
5.535458877
5.538459908
5.516351619
5.510994274
5.510735
5.530084422
5.531424924
5.512337277
5.517695407
5.517719265
5.518832821
5.523716134
5.52515613
5.518145903
5.516645614
5.521016707
5.526024939
5.533357221
5.54396549
5.531223251
5.527632086
5.534898551
5.541966432
5.541171741
5.542152624
5.516568654
5.514341748
5.512522426
5.529442996
5.528157378
5.520251712
5.523532731
5.514207792
5.511342853
5.528065643
5.518638273
5.519334394
5.523922009
5.528463653
5.531152507
5.524507988
5.53714304
5.530400224
5.541138552
5.527671687
5.54325556
5.542330397
5.540364154
5.540693844
5.534607082
5.517797575
5.518286745
5.5309507
5.515617025
5.511262868
5.529727539
5.534707739
5.519040124
5.515458155
5.520152821
5.534110146
5.528270962
5.522984428
5.505685419
5.527023726
5.514820564
5.514353566
5.529273063
5.519111378
5.519952511
5.515312814
5.506314328
5.507250646
5.515990208
5.513554321
5.528441713
5.514178898
5.549801614
5.539952123
5.53738223
5.544407378
5.542444156
5.53102317
5.535300541
5.520634797
5.527038352
5.527081021
5.518786552
5.519482412
5.521527206
5.527909368
5.536707726
5.544445283
5.547036518
5.551003343
5.548650873
5.550542646
5.537710365
5.539845545
5.529055419
5.516196488
5.504987521
5.519095076
5.53876017
5.541740858
5.518853959
5.540181248
5.538815005
5.535583204
5.520891707
5.53338494
5.536317424
5.528196524
5.533063559
5.52205617
5.516375006
5.516010801
5.506010183
5.516661769
5.510179144
5.523679047
5.530778288
5.531128367
5.52546869
5.512294346
5.537554015
5.531604019
5.533120581
5.539310567
5.5454314
5.538852043
5.532452127
5.528835821
5.514698149
5.516938283
5.521439491
5.500050556
5.514868524
5.510951603
5.520816623
5.518756915
5.503867791
5.514051806
5.51697587
5.530534501
5.51883277
5.526207507
5.526024807
5.526468398
5.537680486
5.515994779
5.499897838
5.506028061
5.527982822
5.535410848
5.515743251
5.505204383
5.532344455
5.533542508
5.537431571
5.533013914
5.52787898
5.517798222
5.518312388
5.535902155
5.549483308
5.530593203
5.515459532
5.515860229
5.519724199
5.527915679
5.548868661
5.543477585
5.536072076
5.523308997
5.533476491
5.535757467
5.5438266
5.55670758
5.547391759
5.550722372
5.545052603
5.551731265
5.543756923
5.522240277
5.524053494
5.520738054
5.523812055
5.511420797
5.502222237
5.509259201
5.509993113
5.506959644
5.517006801
5.518362676
5.510867414
5.52666656
5.539673012
5.550903982
5.546962557
5.533698542
5.533862301
5.532720531
5.541899488
5.521043283
5.532201783
5.534885628
5.533427365
5.542728955
5.531461916
5.524427263
5.521993246
5.539047053
5.544969696
5.542242026
5.534455356
5.520192869
5.54075258
5.558188865
5.555906022
5.547358822
5.54851413
5.543278075
5.532923269
5.532065663
5.528704371
5.545872779
5.552426495
5.552411022
5.539707598
5.535094987
5.531610829
5.534039446
5.537682266
5.532605705
5.542681246
5.551356857
5.517436566
5.523429315
5.525131056
5.53965931
5.551968912
5.552914915
5.540380818
5.549048609
5.537542671
5.531039679
5.520959826
5.524928753
5.526755718
5.531988522
5.516758757
5.510291802
5.512706937
5.512440967
5.506040006
5.515257844
5.52856646
5.539781069
5.541940553
5.532627467
5.532409104
5.528000133
5.543125824
5.534838047
5.534113997
5.538243051
5.544490324
5.560291918
5.53818544
5.517427414
5.518006154
5.536421525
5.537166506
5.529115962
5.521225809
5.514546084
5.531864344
5.533921112
5.527782453
5.508187838
5.514634525
5.514204592
5.519026325
5.514395285
5.509492968
5.535221633
5.535027934
5.542449179
5.533870303
5.516565452
5.515082316
5.510536955
5.502511587
5.508658608
5.523743546
5.532469358
5.524273517
5.520028382
5.509518538
5.511454711
5.49817969
5.50843811
5.511264192
5.51236987
5.514003304
5.500328911
5.530815453
5.554971138
5.562512141
5.544805364
5.543191912
5.539105023
5.540664397
5.534522062
5.519353104
5.520315655
5.522714856
5.522383872
5.536610522
5.545354197
5.535476272
5.538004809
5.526907534
5.520966813
5.504201095
5.512927746
5.52222525
5.535599595
5.540370933
5.554641597
5.558252403
5.549812207
5.530935658
5.524619854
5.534153957
5.536218219
5.531049878
5.529863062
5.531235925
5.54018933
5.548054641
5.526137827
5.525635256
5.514955169
5.518233746
5.521014373
5.529224522
5.521148108
5.533785961
5.544552317
5.559384964
5.544813795
5.556289433
5.542980028
5.544321261
5.54738374
5.54099493
5.538644284
5.533170622
5.518253011
5.514823178
5.499120691
5.508038064
5.525561226
5.525268903
5.531716204
5.524223146
5.508624239
5.507753785
5.521715914
5.507442558
5.515688629
5.502118126
5.519848803
5.523464239
5.534896755
5.537039846
5.519276168
5.511600187
5.497526775
5.495017997
5.504187424
5.519397547
5.518876152
5.519940512
5.512862353
5.525319211
5.526154406
5.520830231
5.513752305
5.501053038
5.507575507
5.518379284
5.502931469
5.502781102
5.519256918
5.517336318
5.520001251
5.517147972
5.505532576
5.52549927
5.534228602
5.513465681
5.508428687
5.523474333
5.502897417
5.518687912
5.518899781
5.511796375
5.525268365
5.519891158
5.497065298
5.496655282
5.502771687
5.526415587
5.522567483
5.511704856
5.506048003
5.512061638
5.546663249
5.532646157
5.525293789
5.538830295
5.53273233
5.530853494
5.535512894
5.530803089
5.529925641
5.536292908
5.527379764
5.522022823
5.511981288
5.515199221
5.52362368
5.525900488
5.518729483
5.522637523
5.505970976
5.501471337
5.512503182
5.521548431
5.538798635
5.530264108
5.530655796
5.52767002
5.52145333
5.531570683
5.533934834
5.531474677
5.52534881
5.531009005
5.529853666
5.527634152
5.516872253
5.523035319
5.528116685
5.51423439
5.531616026
5.529968288
5.539630475
5.536053073
5.523332354
5.538272065
5.524294117
5.511203622
5.509872439
5.523146473
5.527041713
5.524696178
5.532494589
5.538328875
5.530132963
5.519934279
5.514659803
5.517359738
5.520150225
5.531174967
5.520973497
5.51882935
5.529232996
5.518060692
5.520956493
5.518473869
5.518496707