/*--------------------------------*- C++ -*----------------------------------*\
| =========                 |                                                 |
| \\      /  F ield         | OpenFOAM: The Open Source CFD Toolbox           |
|  \\    /   O peration     | Version:  v1706                                 |
|   \\  /    A nd           | Web:      www.OpenFOAM.com                      |
|    \\/     M anipulation  |                                                 |
\*---------------------------------------------------------------------------*/
FoamFile
{
    version     2.0;
    format      ascii;
    class       volScalarField;
    location    "0.01";
    object      overallT_mixture;
}
// * * * * * * * * * * * * * * * * * * * * * * * * * * * * * * * * * * * * * //

dimensions      [0 0 0 1 0 0 0];


internalField   nonuniform List<scalar> 
5120
(
299.4919176
299.6518956
299.3459563
298.6201033
298.9277332
299.6040676
300.2952694
300.653029
300.3657602
299.1256546
298.7973949
299.5446385
298.8361123
299.5067933
298.4435971
298.505336
299.7178685
299.2880273
299.9793632
300.1908121
299.8509799
300.2242897
301.081897
299.9529591
299.2274324
299.6267487
300.1477083
299.0183137
299.2239859
299.8295189
298.9637719
299.7953201
299.6753937
300.4815519
299.7879801
299.1005928
298.7143194
299.5903912
299.0263221
300.1302629
300.1986439
300.9238898
300.1087769
299.5932675
299.5846358
299.4311326
300.1821865
299.8390671
299.0624211
298.2811554
298.1553839
298.6048484
299.8646195
299.9815938
299.9321207
300.2455935
300.3242031
300.5944196
300.8888936
300.3090949
300.4526424
299.1458214
299.1804697
299.0483539
298.8272208
298.3951702
299.2834628
298.3435404
298.9089852
298.7885742
298.4143399
297.5666396
298.2641671
297.7804928
298.515185
299.6018565
299.7244415
298.7348631
299.2482026
300.0203117
299.0144324
298.868838
298.7082938
297.9133048
298.2256183
299.2920112
299.5569133
299.3622072
300.1559064
299.8803671
299.0080056
298.14181
297.6235611
298.1258877
298.8663962
298.7669268
299.1334779
298.6435089
298.5563836
299.5413658
300.0381856
300.0578648
299.3378413
299.5530217
299.0440698
298.5298346
298.0035253
298.7634028
299.1384186
299.0431603
299.4555341
300.0311074
298.7674846
298.0527716
296.9449631
297.7994145
297.6633696
298.5413226
298.0001626
298.0415646
299.5927035
299.1349078
299.3639692
299.2839999
299.0373231
299.2086924
298.5405186
298.4218355
298.4257083
298.4936741
297.9382402
298.911801
299.601403
299.7805928
299.2727161
298.6518171
297.8583355
297.8166011
298.0839935
299.1997009
298.8372649
298.2940876
298.7183508
298.6207399
299.5005544
299.2416349
298.8104986
298.470622
297.9416653
297.5635717
297.9427223
297.7067784
298.0380153
297.9523719
299.5308785
298.9687668
298.3637909
298.101791
299.0780801
299.039273
299.2511698
299.3690078
299.1072071
298.8353702
298.3754063
298.6188924
298.6950936
298.4522535
299.1117451
299.5973631
298.8196607
299.2265421
298.0930782
299.4603013
299.2135188
299.5088463
299.8085489
299.5345833
299.7681986
299.4711211
298.051546
297.1766915
298.0819792
298.1579261
299.3724494
299.403937
299.9802469
298.9579028
299.0882435
298.9663855
299.4096112
299.928505
300.036225
299.1386611
299.0682418
299.0568386
299.5974155
299.110514
299.6396065
299.5279198
299.1843329
299.4944495
298.4828469
298.4674616
298.111345
298.0934078
297.6507862
298.5251667
298.7157748
298.1734743
297.5499493
296.8166531
297.4893084
297.8962887
297.5856681
297.9034266
298.620892
298.2793383
298.6917722
298.9452764
297.6996992
298.5914785
299.1151874
299.2350772
299.0602241
298.3844341
298.2274605
297.9892326
298.0186691
298.5711909
297.2354938
298.2837567
297.8054628
298.5411542
299.2500142
298.6411054
297.9917417
298.413305
298.3041101
298.7448905
298.2453332
298.9774941
298.8603415
298.4111684
298.7848944
298.8105183
298.6821751
298.2920104
298.2155969
298.080787
298.1705135
298.3692192
299.2374982
299.6922139
299.8146722
300.666186
300.4314566
299.9412107
298.6419121
297.789005
299.1568745
298.8210839
298.7510671
297.956642
297.8464139
297.5893276
298.1296406
298.765347
299.0252212
298.658365
298.6140113
298.7379396
298.7264759
298.6201477
299.0738262
299.4030033
299.8491683
299.231631
298.2827275
298.708545
299.2057805
300.0203713
299.8978644
300.27163
300.4882843
300.9863907
299.5155507
298.2725423
298.6088802
298.7191311
298.4675151
299.5165899
299.1950778
298.1098075
298.9886163
299.0271816
299.3043083
298.2484889
298.2612243
298.7777506
298.887864
299.3229846
299.8796199
299.6554988
299.9507943
299.8946207
300.2250709
300.8367936
300.4506563
301.1647604
302.1882421
301.5227097
300.3057189
300.4409532
300.5573811
299.9829736
298.7740083
299.5115964
299.0648126
299.5619388
299.1379659
298.267019
297.6561019
298.4290078
298.1807304
298.1078044
298.9730301
299.9780858
299.4203296
298.6284493
298.5179962
298.6519773
298.2843295
298.1230348
300.1999674
300.6425726
299.9479688
299.6452878
298.4442164
298.978636
299.4447197
298.9933443
300.1323386
300.0461137
300.2219408
299.7787146
298.8843383
298.7628374
298.717506
299.1931305
299.9129946
299.9751047
299.9821131
300.558335
300.1939631
299.4338562
299.4243823
299.4100793
299.0804066
298.9807714
298.8156155
298.2458665
298.8157253
300.1486468
299.9883811
299.1954782
299.2357674
299.7919554
299.7400992
300.0312561
300.5281645
300.374817
300.9280278
300.1330714
300.2669233
299.7089815
300.2634955
299.6192216
300.0903512
299.6084958
300.0176911
299.8541648
299.0459643
298.3991367
299.2918829
300.2814625
299.6287167
299.6790812
298.4596087
299.0142067
299.0434865
299.0477222
299.3988683
300.2772041
300.1572725
299.4031605
300.1559586
300.1112003
300.4468186
299.09383
298.9313707
299.3937473
299.8611543
299.9811431
298.9614674
298.9458647
299.9091069
300.3639732
300.2304608
299.5773117
299.2384993
299.476294
299.0293797
299.668066
299.7613265
299.645452
298.8458428
299.6354823
299.0575563
298.9872104
298.0754773
299.2744858
300.0702528
299.1518521
300.3529048
300.6334345
299.141665
298.7356287
298.248071
299.2996472
299.6190417
299.8797873
299.4762861
299.2235412
298.8401584
299.3592945
299.1331761
298.9149701
299.5576527
299.3730765
298.9917036
299.1437418
299.2145458
298.8914892
298.7799765
299.1132117
299.3574889
299.7572536
299.4222308
298.7828266
298.6755166
298.2683267
299.1816405
299.2821114
299.5303862
300.460717
300.4915849
300.6278987
300.0924234
299.1830929
299.5273263
298.4483222
298.6082494
299.1488042
299.6884949
300.5734033
299.4025135
299.7135879
300.0278261
300.1063841
299.8681319
299.9403936
299.3739025
299.8604829
299.2592036
299.2004243
300.4921118
301.1844388
299.8494972
299.3510305
298.1848123
298.8555261
298.8092379
298.5199126
298.4523865
297.8057103
298.3713539
298.4385548
297.3513176
297.8521699
297.2750431
297.7546644
298.1256433
298.8530294
299.2978276
298.9033749
298.7260696
298.6788954
298.3852933
298.4374283
299.4034026
299.7869481
299.6941656
299.1170804
298.4932443
298.3461524
297.9309456
297.6095746
297.6597219
297.7449194
298.9517299
298.1151069
298.6563758
298.4751876
298.6252278
298.7704659
298.3805383
298.1472601
298.7196234
298.3566401
297.9699247
298.0876092
297.1246315
296.9633158
297.9397552
298.8952788
298.1432295
298.203493
297.9360643
298.7627381
299.0534928
299.4012263
297.8820214
298.2669597
299.141757
299.0685886
298.7924355
299.258818
298.6809082
297.9949955
299.7799967
299.495963
298.6383193
299.0025395
297.9759115
298.1338857
298.2032471
297.7666316
298.7377858
298.877824
299.5617109
300.572948
300.1298571
298.7331816
297.9444185
297.7457735
297.9302814
298.1100746
298.4920343
299.9310609
298.2777002
298.2690097
298.4650566
298.6861728
298.2173208
299.0119394
299.5168179
298.8641243
298.6003582
298.6303813
298.6240804
298.2596214
298.204783
298.2608636
297.6198851
297.2413949
297.7652023
298.6812696
299.275248
298.1587073
299.6142019
298.0913143
298.3427066
298.5743831
298.7454743
298.8063147
298.193734
297.9274496
298.6038431
299.3450427
299.3452172
298.6593646
297.7527916
296.6264899
298.1972121
298.7109864
297.621981
298.1192508
299.0574551
299.8680593
299.0981107
299.6511646
298.9882747
298.7864353
299.0856938
298.6284319
298.5235764
298.9936468
298.9297498
298.1852122
298.3957439
298.5377787
299.1526723
299.8646767
299.6518431
299.3210678
299.9468403
299.9961542
298.7226342
299.3502823
299.6136951
299.6478329
299.4293371
300.0053155
299.3351504
298.7194742
299.8295691
299.3371926
299.905708
299.6668709
298.4464364
298.3287822
299.8963824
299.8253331
299.2518
298.9883603
299.5545316
299.2721164
300.8428679
300.162706
298.6731581
298.7652335
298.4805962
299.0181357
299.2143728
298.8566806
298.4248387
297.8952214
297.7721284
298.215942
298.9727958
299.4231999
299.3961076
299.0920253
299.3977919
298.8998358
298.998204
298.9352004
299.1038449
298.9653168
298.9393899
298.5323699
299.7294168
299.2638841
298.0809878
298.308687
298.485067
299.3676282
300.7817928
299.4986515
299.1674746
298.1573521
297.505444
297.7767732
298.3496895
298.7527464
299.6486297
299.3463557
299.8251973
299.4814475
298.9369214
299.6153383
298.99162
299.0098872
299.3912009
300.3468626
299.878274
298.8490241
298.9094796
299.7804267
299.4777744
300.2055523
299.9636999
299.7378861
298.6871739
298.8303647
299.4360316
299.3463646
297.9272193
298.2354455
299.5489133
299.4142889
299.297207
299.5856192
300.6559472
300.2518495
299.586092
299.5118436
299.1734853
298.6760422
298.8993903
298.6712424
298.480681
298.481377
298.2808729
299.1926307
299.2206511
299.1602485
299.5819346
299.9949961
298.8024863
299.5184132
299.323324
299.841323
299.6783095
298.8599686
299.6383041
299.3434925
299.6078173
298.8008321
299.097793
299.1615409
299.2684533
299.7317999
299.7092837
298.8296118
298.5343966
298.4517099
298.9859262
298.2081205
299.4729188
299.2777764
298.8127787
298.1918397
299.0933218
298.6503821
298.2989043
297.8604276
297.929479
298.0965236
298.5846133
299.2886308
298.8110833
298.7140469
298.9494888
298.8537978
298.7255728
297.3184875
298.3638009
298.7319628
298.0551067
298.4404686
298.5760481
299.1281905
298.5511359
298.7619705
299.2228851
298.0570087
297.9192655
297.8871835
298.3911915
298.1396389
299.4107547
299.3540906
298.4744916
298.3019597
298.3893165
298.6209703
298.4751979
299.3091336
297.9861864
298.3006263
299.091397
298.6352715
298.7362734
299.1221604
299.2771494
300.1852525
300.2762434
299.7841831
300.2116618
299.6697041
298.5416426
298.2995852
298.7120599
299.2093868
299.2272902
298.1227061
298.936197
297.9021195
299.704911
299.2964464
299.6136157
299.556158
299.5772666
297.8599237
297.9479082
298.3132255
298.7673683
298.5436221
298.8337956
298.4141906
298.9500381
299.3773811
299.3748878
297.9515496
297.7266613
297.3225197
297.9354057
298.86833
299.2756284
298.9831651
300.0135664
299.9920501
299.118411
299.6561337
299.7251267
298.9917999
299.2365954
299.5742199
300.0990575
298.7396931
299.164991
299.336727
299.2144428
299.1652317
299.8397273
299.2375534
299.1463287
299.2681514
299.7281807
299.7177873
299.6086357
299.7606187
298.8428312
299.1025329
300.2577446
299.9584433
299.799658
299.6855561
298.952536
298.0079898
299.7931388
298.5673294
298.7922889
298.7594483
298.4438394
299.1245729
299.085086
299.7059202
298.4916522
299.2647396
298.5995167
298.5118178
299.2974436
300.1782867
298.7423816
299.0964431
298.1578376
298.0163829
297.9577881
298.8430994
298.3350736
298.455123
299.9257393
299.7158957
298.9751978
298.828962
299.2588385
299.5599856
298.9769747
297.5313503
297.9452045
298.8020515
299.2146371
298.122146
297.9370285
297.2922003
297.2413332
297.3069893
296.8207463
297.6697893
297.9461058
297.0776367
297.9568954
298.5962953
299.0339358
298.1853261
298.6420919
298.1200815
297.8013818
297.8610626
298.9516175
297.6732787
297.6812067
296.7508761
297.6298499
297.7421305
297.4747108
297.4357907
298.7271523
297.9741526
298.0702966
300.0136791
299.5600397
298.2090911
298.2836999
299.0462501
298.4054105
298.0440823
298.5884659
298.4130813
298.4760361
299.1769064
298.1186624
298.5962918
299.0518045
298.8803866
299.2305363
299.2294117
298.39727
299.4121646
299.395615
299.4362616
300.2887721
300.0092259
299.1621479
299.8601809
299.0794301
298.2585599
297.4505046
297.7917174
298.6275015
298.213236
298.7854607
299.5943948
299.0280516
298.7531292
298.8683157
299.7487307
300.2073172
300.3363368
299.2579424
298.433699
297.0076911
297.9999881
298.7261735
298.401068
297.8135139
297.3447005
299.1255778
298.5478739
298.39573
297.9675166
297.5837503
297.8144781
298.1119298
297.8580987
297.3693653
298.5777986
298.3106564
298.4998979
298.9945949
299.0285476
298.0969059
298.2130374
297.8939778
297.6045594
298.707124
299.501544
298.5595935
298.3999612
297.2425448
298.1319682
298.0900911
298.5432794
297.3968554
297.1624945
297.6571603
297.6514829
298.1364508
298.0816873
297.9862888
298.8233777
299.1334684
297.9770106
297.6504398
298.0868616
298.1347009
298.7270746
299.7690035
301.18822
301.8208174
301.7044691
301.5394435
300.618292
300.9765761
301.1834475
300.3734392
299.607899
299.1790446
298.3805136
298.8334009
299.2497508
299.0043623
299.2889088
300.1717799
299.9590827
299.8421103
299.8547725
299.4329716
297.8609242
298.8994234
299.4188432
298.178199
298.3453671
298.3805183
299.0953428
299.428241
300.3299116
299.9268543
299.0779265
299.2687973
299.3767523
300.1316208
300.0138162
298.9534115
299.0581305
299.4478597
300.532255
298.5523928
299.2181226
298.8430055
298.1252717
298.9748075
299.6780291
299.8349547
299.0647923
297.4896619
298.2330415
298.2527084
298.7397515
298.7900698
299.6749055
298.0163446
298.0635347
298.0475882
298.3225369
298.5231846
298.2206864
297.8376594
298.0032018
298.0289289
298.7508654
298.1036195
297.3274245
298.4152655
297.9877181
298.7105483
298.137776
297.8807269
297.8082231
297.5000835
297.807822
298.3551303
298.6812748
298.2794698
298.6518007
298.7840015
298.0731244
299.0085088
298.0378168
298.1991735
298.807109
299.0634236
297.7877753
297.7820836
298.501465
299.1236537
299.4436374
299.7881972
300.5352713
300.7324684
300.2722215
299.7696655
299.2737089
299.2481359
299.8465932
299.0817269
299.1234863
300.0899329
299.5391814
298.5359521
297.667913
298.2871752
298.292258
299.6466716
300.316644
300.438608
299.8232042
299.2647733
298.6580638
299.2209633
298.7426391
300.3191839
300.2088815
300.8726272
300.1541046
299.4398699
299.647872
299.5500736
299.18644
298.3089376
299.2229116
299.7089593
299.1047854
298.4694592
298.8565635
298.800666
298.7318873
298.941106
299.075263
299.0500802
298.1196568
298.0399543
298.4144008
297.674427
299.1688841
299.3707036
299.4703397
299.4051341
298.5369806
297.8912749
298.5048874
298.7051416
298.8920288
299.6096066
300.0532059
300.2771975
299.5819293
299.9194179
299.8218565
299.3909365
298.9125743
298.4659803
298.2657834
298.782409
298.1728084
298.333555
298.7703249
298.0041512
297.4987499
298.3869988
298.1834337
298.756508
297.8665743
298.6987318
299.2465943
299.7226577
299.6616147
298.8572961
299.7081151
299.9071569
299.559222
299.058487
299.7017422
299.4168389
299.1319342
298.7637337
298.1071917
299.4826198
300.0818702
301.1008241
300.742252
300.0518773
299.1834391
300.2406235
300.1409225
298.7946772
298.8759119
298.544711
299.0772511
299.7540885
300.9359768
300.1295851
299.5012738
299.1694694
298.901795
299.4952434
299.6622041
298.1567767
298.7656453
297.9248889
297.8736212
298.7244303
298.9235621
297.6708481
298.8139759
299.2172344
297.9101577
297.6856764
298.2487603
299.0478908
299.1031096
298.60661
298.9197393
298.1012212
298.778012
298.5480342
298.5299859
297.5170036
297.6336544
298.546318
298.8092912
299.0366251
299.2971999
300.1181107
299.4546233
299.6563565
299.515305
299.5202214
299.1785913
297.9860798
298.0562633
298.049829
298.0641161
297.9003005
296.811736
297.677405
297.763564
298.7676964
298.5122164
298.873184
299.011285
299.9431881
299.844616
298.9871878
299.1508592
299.2613817
299.5904664
298.8112739
298.8656146
299.3187362
299.5040791
298.6545264
298.7646413
297.6927914
297.8610641
297.8246436
298.4890435
299.4764425
298.8078804
299.1860331
299.3564657
299.4715275
300.0854191
300.2045335
301.1685426
300.3753266
299.4754958
299.8980593
299.4503162
299.0190533
298.8186076
298.5977483
299.2539317
299.2337305
299.1829183
298.4934433
298.7256195
299.122822
298.572053
299.3869431
299.0806049
299.5640693
298.7292344
298.9597509
299.2335465
299.2239529
299.3554715
298.0060334
299.0126744
299.6632972
299.7973249
298.3534705
297.9495415
297.6922126
297.7457142
298.5707251
299.1891788
299.5588189
299.2399282
299.1975097
298.5204811
297.8408481
297.5727151
298.5323655
299.0030513
298.7685785
299.0358524
298.8694418
299.6106322
299.4027294
298.5267045
299.0441951
299.662661
299.6768511
299.9137224
299.0437457
299.2443681
300.0679669
299.436424
298.5182837
299.3157459
300.5017933
300.2640702
299.9103702
298.4309784
299.816276
300.1513212
299.8737082
299.1134836
298.2692941
298.6194705
299.0288513
299.3063577
299.9427981
300.2172981
299.3093653
299.7866863
299.3455061
300.0433383
299.7835057
298.8504175
299.0765694
299.4234865
300.034773
300.9833948
299.9296953
299.9739263
299.8176002
301.7688007
301.5832181
300.7361219
300.3903466
300.5120618
300.8907677
300.6244421
299.6765496
299.3906582
296.4428147
296.5927413
297.568987
299.330445
297.9391313
297.2635548
297.5720036
299.111833
298.9215446
299.4307511
299.1368821
298.275143
298.0345217
298.3367693
299.4831006
298.261739
297.1112656
296.8965578
297.7423102
296.8262942
297.1474035
297.6657386
298.0351826
297.6918822
298.655784
298.8602973
298.0562189
298.1691414
298.495483
298.3369993
298.2120944
298.270057
297.6918408
297.7902762
297.5907954
299.1428366
298.7226555
298.2062609
296.7602423
296.899183
297.8552059
298.1475857
298.0027436
297.841801
297.3105668
298.0602177
298.0729782
298.7759554
298.8700588
298.5240642
298.8694729
298.1139439
297.6490112
297.6666341
297.2490653
296.6104193
297.3569213
298.3257516
298.7581905
297.924526
299.0424399
299.0578872
299.4621055
299.8355429
299.4632554
299.6221613
299.4211354
299.5246708
299.4314651
299.3899455
298.865166
299.4860474
298.577358
299.7974258
298.9915213
298.9550855
297.9425049
298.3047945
298.9138578
298.8951164
298.3493718
299.1583537
300.2711148
300.0073546
299.2853467
299.2582644
299.9151384
299.1335994
298.8945209
299.3612967
298.644886
297.6845465
299.1357663
300.2003905
300.3357349
299.4536017
298.9173659
299.2622414
298.9183435
298.8002371
298.8511806
298.6547845
298.8153522
298.5924683
299.9080196
299.4917259
298.9465106
298.5880362
298.3108806
299.0788004
298.7847949
300.098027
300.0088577
299.2568822
300.0718276
300.0186771
300.6532705
300.0622156
300.367207
299.8572007
298.2626473
297.6217954
297.7164948
298.0005719
298.64473
299.6321732
299.2000269
300.9105679
300.7320322
299.8856656
300.1178746
299.5174441
299.0067431
298.4532331
298.994336
299.3714188
299.2294954
299.6087385
299.0694503
298.8057626
298.8704727
298.591559
298.1448213
298.5824018
298.8158942
299.1016988
299.2131396
299.9156164
300.3828703
301.1388571
301.6883024
300.0246007
299.5093703
298.5632982
298.8598653
299.0184835
298.969484
299.0513245
298.5491533
298.3253382
299.3955771
299.3743627
299.7826587
299.5069785
300.2176423
299.2626869
299.2380235
298.19924
297.9421169
297.7763429
297.8540229
297.0533333
297.3941402
297.5795067
297.012506
297.2724515
297.8525883
297.1959867
298.0338687
298.6172359
296.8590745
296.8519574
297.7798792
299.0305182
298.9971799
299.5290998
299.0157593
298.3718782
297.9124694
299.1237442
299.1000461
298.1700535
298.5321801
298.1378893
298.0529731
298.6636849
298.2031675
297.602057
297.071787
296.4864292
300.3454952
299.8606299
299.9789215
298.4212596
297.837586
297.9659694
298.9033045
298.9931063
298.8336227
298.9582588
298.4062029
298.6480814
299.2053555
299.6959241
299.1496156
298.7721037
298.6452255
298.7514328
298.5364848
299.295592
298.6188241
299.7169518
299.6336377
299.4461995
298.7833327
298.6854227
298.6271809
299.5431071
299.5457493
299.98246
299.6988614
300.2373935
299.7911104
299.2826362
300.3287018
299.7750781
299.8780712
300.0271269
299.5635537
299.076496
299.4082961
299.7032833
299.5977419
299.130688
299.6559888
299.5124868
298.6271259
297.7124552
297.7027461
298.4562967
298.8553569
299.6572847
299.1785051
298.6404628
298.4702666
299.1295633
299.5856692
299.6019713
299.0615275
299.3669254
298.8642552
299.3284952
299.0892682
299.5692931
299.0767384
299.5920503
299.0789554
299.609828
298.5540433
297.9600098
297.9846246
298.9463552
298.7705218
299.3077796
300.5684099
299.6305573
299.0877695
299.5346098
299.3199499
299.2562866
300.8283875
299.7976363
299.6553551
299.4584388
299.8507331
299.9690505
300.4459665
300.4629025
300.4487455
300.4745089
300.1174703
299.9581995
300.0328215
299.6255613
299.5045756
300.0357675
300.4636325
300.1905085
300.3877748
300.6022563
298.6338796
298.3403786
299.352359
299.6143916
299.7184207
299.8190467
299.7581245
299.7675609
299.6790856
300.1020527
300.2298903
300.2098681
300.8776198
301.0930458
300.6586902
299.6354925
298.9253778
298.7568941
298.7739703
297.9686411
298.6546269
299.0262845
298.4075179
297.690239
297.9925069
298.1056017
298.2095862
297.3458352
298.5930377
299.0597395
298.2110844
298.7102422
299.0926119
299.0968574
299.1422137
298.7542312
299.1832963
299.6202741
299.7222438
299.2576772
299.4709403
297.8998386
297.5323108
298.0419737
297.2961431
298.710734
297.8136762
297.6235898
297.4002329
297.0936951
297.1022017
297.0118625
298.0489904
297.6559383
297.9769746
298.2365729
298.155627
298.9904933
299.4500446
299.7755375
300.0749749
299.8015085
299.0440795
298.7141138
299.0626529
298.9408978
298.8688223
298.8223481
297.771856
298.5880492
298.7789212
298.876686
299.024759
298.1916153
297.5194869
298.474136
297.9303047
297.1491652
296.9465809
298.7083137
298.2136383
299.4637808
299.2855952
299.2528191
300.9083427
300.1568006
300.8319637
299.3139198
298.901866
298.9025142
299.3640584
299.5134551
300.0061787
300.3759251
300.6407231
300.320631
300.3419976
299.7825987
299.1410453
298.3215536
301.2976299
301.2537458
301.1778155
300.7817232
300.2718445
299.8449413
299.4961783
299.0039031
298.9462735
298.0627131
298.7747004
298.615159
297.3451698
297.0120015
296.8583988
297.7953832
298.7408544
299.4633591
299.3895456
300.652231
300.3548179
301.415455
300.6709678
300.2371081
299.0083576
299.4491765
299.0933963
298.5902351
299.0886613
298.999391
298.5780374
298.5707004
298.8315892
299.0491511
298.3293953
298.5334077
298.9301525
298.8417796
299.0625537
299.7328924
298.7085482
299.4847792
300.8210311
299.7271771
298.7789743
297.801585
298.3507417
298.9604057
298.5135362
299.0926155
299.9179386
300.0644653
300.2218548
300.2839858
299.8285993
299.6554856
300.1735211
299.5444272
299.5495826
299.0591688
298.8390233
299.1351429
298.2010722
299.2343829
299.3594289
300.0932328
299.9253771
299.198351
299.2901716
299.8080852
299.1636283
298.3546373
299.2494901
299.9048071
300.2567707
300.2247606
300.6331419
300.1878678
300.2159138
299.3500896
299.9686864
299.6893187
299.7284362
299.5175364
299.4618788
299.0962185
298.9326362
298.3110939
297.6109083
297.8852361
298.0021396
299.4514181
298.5419049
297.8809294
297.2749131
297.9391197
297.677813
299.071172
298.8433162
299.3914991
298.499527
298.6170864
297.9463249
297.5113398
297.5781595
297.8486423
297.4569387
298.2655343
297.5566083
296.6429255
297.7594199
298.0396618
297.9144389
298.3155466
298.7999301
297.8518635
297.6600853
297.8735611
297.9701948
297.9402685
298.5294123
298.4151363
297.6709557
297.6194531
297.4230627
297.9258941
298.9193122
297.9646263
298.3756313
298.8029431
299.1404154
299.406394
299.5034599
298.6226435
299.3141456
300.0584345
300.054178
299.7481501
299.6926338
299.0544695
300.4336989
301.21057
301.5252936
300.8848422
301.3349513
300.2717694
298.9885197
299.296182
298.9531881
299.2534548
300.0080146
298.9336282
298.9338177
299.5247226
299.4630749
299.4307182
299.6423298
299.9034905
300.2284866
299.8883671
299.6248414
298.979866
299.0573532
299.0255215
298.5137367
298.6199393
299.0506665
299.8240955
299.165784
298.5832481
298.8695741
298.2952982
298.4997096
297.9019727
297.4807575
298.9233695
300.5915772
299.715857
298.7871881
299.1390141
297.8803193
297.3698614
297.7103385
298.0358058
297.9014552
297.7367733
297.7327905
298.1706131
299.2029126
299.3471276
299.2523397
299.3851032
299.2706757
298.8737755
298.2724678
298.5593696
298.4060641
298.7837239
298.9333047
297.7884179
298.8013477
298.8835903
298.8246267
298.7308064
297.9019872
298.6681323
299.3287155
299.5761689
299.305864
299.5426111
299.8076735
299.5597112
299.90401
300.4308889
299.9068397
299.6772815
299.8846992
299.6802276
299.1948822
299.4860262
299.1951172
298.2778195
298.956795
299.2483847
298.8281275
298.538173
298.5246396
298.7712805
299.4479407
299.4036723
300.299046
299.7403194
299.734564
299.734675
299.9352336
299.8134023
299.7174488
298.5537789
299.1545094
299.736358
298.3511288
298.1049822
298.102403
298.8053137
298.2266139
298.3349195
297.4681415
298.2721756
297.7025561
297.9530792
297.5314446
297.5248164
298.190001
298.2211304
298.3414922
298.6952621
299.3390225
299.4590744
298.8429324
298.2922843
298.8428557
299.1252876
298.5855359
298.1116152
298.4880918
297.8628808
298.6432162
297.4766898
298.2245098
298.4562613
298.3709498
298.3904688
298.4545252
298.7929312
298.9073297
299.3262697
298.6662016
298.3126048
298.0276564
298.763182
297.4457892
296.9592119
297.2364974
296.5996239
296.1322288
296.8858253
297.0574554
298.1192419
299.2435305
298.9395015
299.3595863
299.0456834
298.7768074
298.1076277
298.0066478
297.4865271
297.2744412
297.9476522
298.1794111
297.8154764
298.7152612
299.0624552
298.8404194
299.4353389
300.2642965
300.3530944
298.73167
298.796716
299.2688008
299.8210836
300.1067536
299.6412481
300.2240746
299.3442822
298.1119965
298.6132379
298.0225637
298.9191569
299.0997235
298.729149
299.8915986
299.797439
300.4291225
300.3439241
299.830494
299.5132097
299.898949
299.8951922
299.0108792
298.7289947
298.5421464
298.0851789
297.9566277
298.0078918
298.7515413
298.824055
299.8262491
299.2394352
299.0734821
300.9271203
301.0341194
300.7718186
300.5975241
300.1610642
300.315625
300.1071592
300.6839653
300.5413539
300.8262079
299.2929395
299.2281689
298.9563919
298.6292835
299.7597701
300.5188363
300.5305601
299.5217968
299.1795434
300.4096871
301.0762134
299.8068605
299.7296182
299.1886085
299.8910453
300.4926368
300.5512994
300.0240675
298.415162
298.5226903
299.4493243
299.4805018
299.5849474
299.5156261
298.6687568
298.5058566
298.6451302
299.2996256
300.3494972
300.4895101
299.5040899
298.77285
298.492676
299.0633632
298.5544534
298.502203
298.2702046
298.912862
300.141074
300.4471697
300.275926
300.2289387
300.9122178
300.5539125
300.1347961
300.2744598
300.9810407
300.7728736
300.3905547
300.2121236
298.9720498
297.4110974
297.3170899
297.5423488
298.0237015
298.2259283
298.1101291
298.3438074
299.2020102
299.2439016
298.9425963
299.100758
298.4097599
299.036834
299.5775805
299.7236851
299.0809134
297.9163667
297.5108467
298.0286982
299.1432377
298.9145016
298.7340648
298.7542236
298.6529286
298.7300895
298.6155701
299.0408844
298.5280168
299.4642675
298.9228083
297.7238019
297.5991356
298.2814365
298.5556849
298.7993865
298.7722435
299.1533962
300.0542874
299.275958
298.5769579
299.7406739
298.209324
298.9321766
298.5542748
297.8690754
298.3930717
299.4872263
298.9307772
298.9496957
298.981616
299.9754575
299.682135
300.1385275
299.9778612
300.8729233
300.40324
299.4114575
299.2535141
299.9345275
299.8847914
300.0053622
299.4256535
298.8842346
299.1764814
299.6706855
299.6443975
298.523351
299.148025
298.9312454
299.1721605
298.8390395
298.0277653
298.8398749
299.6863986
299.8999575
298.8114048
298.5275138
299.1211354
300.1377013
300.4089678
298.3804653
298.9072497
299.2934038
300.1305117
300.0106597
299.8057355
299.6494717
299.4560853
299.2873724
298.3080073
298.9668588
298.1048347
298.5043954
299.1077923
298.697094
298.7462591
298.5973243
298.5840608
297.8972214
298.2734905
298.2422525
298.3489722
299.050772
299.2921652
299.6268791
299.8337094
299.0389052
298.8827224
298.9282767
299.5708777
298.7931618
297.8425608
297.69637
298.7526027
298.9253373
298.2660656
298.2417137
299.1971441
299.5293729
298.5821154
299.8614868
299.6334223
298.8111794
298.1914383
298.5989689
299.0809393
299.4035871
300.0524977
300.0866895
299.1112898
298.9910621
297.9741605
297.7268069
297.0939652
297.0212261
297.6875665
298.9756942
298.6083027
298.7943821
298.2983065
299.5789931
299.740464
299.4449155
299.57719
299.2563701
299.7244593
299.3263626
299.6720355
299.888069
299.5370599
299.1568534
299.4058925
299.1113223
298.5468218
297.9967535
297.7087469
297.4638451
297.8980636
298.6058625
298.7374114
297.4243655
298.6601752
298.9543807
299.2555052
299.4753277
300.7148968
300.5898555
299.7667313
299.4125672
298.8828798
299.681576
300.5793638
300.2524816
299.9273096
300.1722379
300.5359032
300.9295417
299.746978
299.0015644
298.1671523
299.1169893
299.3647263
300.208621
300.906247
301.2226801
300.8232787
300.0319169
300.0258589
300.1736561
300.7429687
298.2849224
299.0807171
299.4701941
299.1804131
300.091843
299.9765153
299.4357433
300.5414567
300.9280653
300.0303768
299.1965243
299.4959453
299.6201962
300.6162377
299.0867729
298.5500056
299.2381252
299.6616209
298.5431684
299.2243088
299.188353
299.5028001
299.0999717
299.2282531
298.8028217
300.0289028
300.4328637
300.5561692
298.8215434
299.1329264
299.0308225
298.8001346
299.3049258
298.2169446
299.0067922
299.5569359
299.0156594
298.9582172
299.6557043
299.0621925
299.2459619
299.0340271
299.1840103
299.2775015
300.4643541
300.9487385
300.2864943
299.1457196
299.3322087
299.0767617
299.8853853
300.6489932
300.4989002
299.3650099
299.0129367
298.3028305
298.8069533
298.3245927
299.2445336
299.2324171
299.374605
299.3235633
299.589932
299.6128883
299.089842
299.3285477
299.052182
299.6359295
299.3389991
298.8380086
300.4569281
299.7484211
299.7983133
299.8950606
300.1884459
300.3977969
299.9871038
299.6935
299.6945665
299.7665769
299.6965291
299.6546094
299.8185879
300.5122278
300.3365856
300.3100516
300.4825599
300.6152991
300.9435059
300.5078381
298.9362962
299.2024596
299.8704498
300.6860735
301.051512
301.2254551
300.8736658
300.5252455
300.0773482