/*--------------------------------*- C++ -*----------------------------------*\
| =========                 |                                                 |
| \\      /  F ield         | OpenFOAM: The Open Source CFD Toolbox           |
|  \\    /   O peration     | Version:  v1706                                 |
|   \\  /    A nd           | Web:      www.OpenFOAM.com                      |
|    \\/     M anipulation  |                                                 |
\*---------------------------------------------------------------------------*/
FoamFile
{
    version     2.0;
    format      ascii;
    class       volScalarField;
    location    "0.01";
    object      overallT_O2;
}
// * * * * * * * * * * * * * * * * * * * * * * * * * * * * * * * * * * * * * //

dimensions      [0 0 0 1 0 0 0];


internalField   nonuniform List<scalar> 
5120
(
300.7910126
299.6277968
299.0916283
297.5176582
298.4477598
298.8237886
299.5604587
299.2571913
298.1820059
296.4020731
296.403424
298.7441378
297.6426342
297.7240706
296.4905012
297.2307712
299.0585663
299.4347133
300.7941546
302.5356077
297.6603261
296.7218959
297.8087364
296.6784865
295.6591457
294.7293354
295.8166719
293.57189
296.2373076
297.3271658
295.3777965
295.4124343
297.0886278
299.0113194
300.1402175
298.1025207
300.2583515
301.0810973
298.7706272
298.3736066
299.7290647
299.4148569
296.9936011
298.0878779
298.2190017
297.6392283
298.2418143
298.9116834
299.4927852
296.578777
297.8414386
298.7672743
299.1804826
297.9398891
297.8172157
299.8253782
300.1079629
300.6505794
300.4278212
299.3774003
301.6929766
300.9056244
300.5559289
298.4327591
298.0229981
298.5488144
297.4316134
296.8961511
296.8264144
297.8255289
296.31422
297.5311954
296.8660661
297.5198791
299.2906892
300.8519364
300.4137308
298.3599198
299.927873
300.9099598
297.5986701
296.7343308
296.0184589
296.1911764
296.9356049
297.6192791
297.8537278
298.7669696
301.7412274
302.0670571
301.4061703
298.54694
297.7908505
298.3968263
298.6652054
298.2205938
299.4335537
297.537278
298.4347254
297.0962735
299.5817729
297.7860436
297.1951286
298.3593126
296.7120829
296.8872289
297.3785634
297.6720295
299.6980142
299.9879157
299.3386976
299.6769905
298.4679051
298.6763276
297.7924391
298.5879825
298.015427
296.8232483
297.1618087
299.6051816
300.9223669
300.9246754
299.9250579
300.1081447
299.0964962
299.0673032
298.4654397
298.8152725
299.4677682
300.2056488
298.8128876
298.3134737
298.1319825
298.4773099
297.9872899
299.1570064
298.7118919
300.0916716
300.0344015
300.4146945
296.9117112
296.6504328
298.1852273
298.9454084
298.9757723
297.5420977
298.1024153
298.6073396
297.2404063
294.561325
297.4863491
295.8776626
296.2826314
296.8054894
300.8867659
299.6919471
299.220229
299.7191051
302.0375995
299.2953409
300.6007586
300.1695879
299.4328335
298.852831
298.185654
299.2612835
300.5170323
299.6059871
299.2393168
298.9920456
296.476716
297.4491874
296.5359218
299.3386834
297.5122196
296.696468
299.8314085
300.4343705
299.9087131
300.249851
300.6414419
299.0465919
299.4584941
300.4348113
301.8616916
301.5195527
300.1492951
298.375105
298.0071478
296.1682494
296.1171997
298.4473739
300.3766547
298.5114503
298.9532688
296.89035
297.1527142
299.2857247
300.2985845
300.9030547
298.7447944
298.0187609
297.6074271
296.2137744
295.965421
295.5171755
298.7935892
298.9705154
299.0630703
299.1890595
299.3274695
296.7524955
296.9295725
297.9996617
297.5314588
297.9866038
298.1736974
296.4248287
297.4358856
299.6837851
296.4797984
299.018429
298.0773359
298.6526397
299.5367686
298.4095683
298.0582797
297.7424334
297.6210126
298.1665508
296.4517129
297.6101883
297.7331934
299.6984155
298.3538588
295.9437282
294.4951003
297.3847971
299.0388664
300.5507669
299.2988657
299.9190713
301.8123988
300.0491053
300.7020557
299.7025377
299.2117782
294.9160932
295.0770908
295.7116707
293.3025211
293.0928309
296.1419642
296.5233389
298.5744567
298.9157606
301.1412102
301.0698894
300.64245
298.4122179
301.7223117
301.7829243
301.0085995
299.3424411
296.7446048
297.7442069
297.4560491
297.7284774
298.5432741
296.0985123
296.5464964
298.4873137
298.4764755
297.7167193
298.126371
297.1108605
298.0408922
298.8471256
300.7126097
300.5231205
298.1281795
299.7434321
299.894551
301.7563638
298.8689263
299.6926104
298.4294176
297.3789108
297.5830084
297.9511521
297.3765065
298.9566497
298.4890827
298.1770932
299.1203641
298.1497619
298.0346856
297.0635864
296.4675883
297.969423
300.6334341
297.8128488
297.2014522
298.1424478
297.4627631
297.3857361
297.1420001
298.2180047
296.9751007
298.1304912
299.9722819
298.4418035
296.8501038
296.8077969
299.5694786
300.7764574
298.1490603
299.2071513
299.1340509
300.6550538
299.1805828
300.3900941
300.6206237
301.3453547
299.9646573
300.2447333
300.6912797
299.8332596
298.0773988
298.1535311
298.514787
299.1266327
299.9920223
299.1902029
301.8430031
304.232451
302.383484
302.0249775
298.9062021
298.7808082
300.5910783
300.1613293
301.0553559
301.9422767
301.7734427
301.2678575
300.1212633
299.9121477
298.3956881
298.7569473
300.178753
299.6197594
299.3364612
299.1710865
299.0012701
297.909662
297.0408179
297.245944
297.6455172
298.4603965
296.9658707
295.7727946
296.8936904
298.3428557
297.8317378
297.7083358
297.1823835
297.7963874
297.8452784
299.7184039
301.7345942
302.7108451
301.4179786
299.5445607
298.6804699
299.3821802
298.6841392
299.5817574
301.0742358
298.4575232
300.1312729
300.4322288
299.0115366
298.3325349
298.3495141
299.1943523
300.4437374
300.6358002
300.0295822
301.9505996
301.3633031
301.4438971
301.2531274
300.1771059
298.9620301
297.7537007
298.4799948
297.9864485
299.9163063
298.5497079
298.4155566
299.4740781
300.3931329
301.2922503
301.6128179
300.9199251
301.642077
302.5258005
300.6906104
298.9118908
298.8770955
300.6230285
299.7810714
300.5440604
301.0738551
299.7413949
298.460946
299.151573
297.6036823
299.0491848
299.8546951
300.9330613
300.4688596
299.5648822
301.738908
301.4463732
297.4352165
297.7766805
298.3164808
298.7314825
297.49722
297.3452075
298.1803396
298.6238814
297.1709728
299.0118737
299.2345137
300.5904421
300.8881353
300.6123609
299.8303154
298.9145721
300.7906182
300.6757098
299.1161737
299.5890012
302.4368193
302.7738928
299.2576201
298.8017668
299.4466318
299.6930753
299.8376258
297.868682
297.3996042
298.184638
297.193917
298.1954034
298.6271818
299.9552854
300.6062354
301.056551
299.8935388
296.7746613
298.0749921
300.6067766
299.5497058
299.959956
299.6118142
302.1527979
301.6411776
302.8492026
300.1874054
299.2306822
297.7941936
299.7316603
300.2928939
302.2417874
298.8318451
299.0110006
300.191454
299.3531202
299.6369829
301.7453659
302.7253919
302.4006472
299.8826441
298.2517185
298.7818829
299.304388
298.5216453
297.6003154
297.6940348
299.3963121
301.1077249
300.4045975
298.1399829
298.3702548
299.6380179
300.4196302
299.453649
301.6287245
300.8459073
300.0697318
297.2214366
299.1653712
298.4264916
296.7756176
297.5554781
297.1945001
300.3933419
300.4676795
299.5250169
299.1325205
301.2956849
301.0452197
302.871566
300.195753
299.6036515
299.4236552
297.1833327
296.8623763
295.4127968
296.4671823
296.9505141
297.3878328
295.4178371
297.8682372
299.464813
299.0722769
299.1145882
300.6658102
299.3097767
298.7291896
300.6251338
300.1281125
300.2599511
299.3065066
299.3869264
296.5861453
301.1626003
299.6713337
298.1446655
299.0256088
297.7232978
296.5722457
298.4146944
296.334573
299.2711805
298.5590151
300.4943529
301.416693
299.0647501
298.1698795
297.6791658
297.0504054
299.0374521
299.9874244
299.4671953
301.5610733
298.3941681
298.3422858
297.5837504
297.1942247
296.4298773
297.5201938
297.8946419
299.6095412
298.5127014
296.9506606
296.6917168
298.1529286
297.9189184
298.7060221
299.5992446
299.3131654
299.2407092
299.3592204
299.868373
299.5142509
298.9844891
297.4590049
297.3177033
298.0540462
299.5342954
299.5395268
298.445726
296.6606977
297.5699342
299.2507809
297.5670367
296.1927635
295.614136
294.4274261
295.584748
296.5118414
295.7616954
295.5758113
296.4913994
297.7673551
298.0368617
299.3043753
299.0104746
300.3639066
299.0543297
298.0721908
297.7602147
298.3958293
298.8880859
298.445053
297.844097
299.0755377
301.4131409
302.2427252
300.9808771
300.111128
300.7660507
296.7358555
294.8347585
297.4590459
297.3656522
299.6932852
299.6618514
299.1996396
297.6400414
298.1201994
299.8780143
299.2827004
300.3091028
301.2084542
299.9759676
298.7706279
300.1487948
300.8640217
299.4838881
299.4018767
300.8060012
300.4891528
299.1033005
299.1593297
302.0612284
300.0631179
297.794129
298.695782
300.2171515
299.8079552
297.9331453
298.5681605
299.4079661
297.3466087
295.7599699
296.4687122
297.0852155
298.8138126
300.5611899
298.8595833
297.4556099
299.7002912
300.3907936
302.1367592
298.5941096
299.0438822
299.3352954
299.7007368
297.3341037
297.5868186
297.4690671
297.5169679
300.3050706
298.7534343
297.5592928
295.6782199
294.879908
297.7578123
296.6162463
300.1120746
301.2726474
301.7396572
301.4521664
299.6541132
297.2919958
298.7738773
296.1215296
298.0101911
298.1276039
299.2218656
298.6408806
298.3535089
296.882776
297.6002393
297.9031073
298.5593922
297.5956814
297.1910871
297.3450047
298.626252
299.6825178
297.5775303
294.0949853
296.8622513
299.2526673
299.4786337
298.2953586
297.462708
298.0466007
299.3724053
298.6836892
298.997945
299.3836419
298.6076787
297.753071
298.2278517
299.4906836
300.2263085
299.4671333
299.6647805
299.3784798
298.2808294
298.115122
299.7096251
298.4358903
299.3786666
300.8517949
302.1491647
302.2903482
302.1622803
303.7973741
302.9251131
303.762539
301.795515
302.2207795
302.7430245
302.9544376
301.194077
301.9929512
300.5268647
299.868745
298.1905093
299.337628
297.9860464
299.9302751
299.1919745
299.9200656
299.4547965
300.7948314
300.6703851
300.8594801
299.3348464
298.645318
299.2027799
299.3684489
301.7303872
300.5595827
299.3925395
300.8090847
298.8187792
298.9869361
297.4301576
298.6150976
299.207866
293.7348225
296.0440389
296.4591744
298.1424427
299.5229438
298.521597
296.9074766
295.5501242
295.9171181
296.7918656
297.2201683
295.3114604
294.6947049
296.7200112
295.6457706
294.5846449
294.5204916
294.9835196
293.9386957
296.1852545
296.3865662
295.6601762
298.2721817
298.4568831
297.7900221
297.0298946
299.0077518
302.8553819
303.1383596
301.1298676
302.4505295
302.3998097
300.9784445
299.7600071
299.4572726
299.8658632
299.222422
300.1014039
299.2946264
296.4038594
300.3837661
300.9398476
301.0283779
301.4978835
301.0615459
299.0610425
297.709888
297.9611318
297.6636255
297.3225312
298.6199086
299.0784702
300.2152502
301.1237763
300.8829989
298.2006093
298.06436
297.0052817
298.9757847
300.2795436
300.2046277
300.3736234
301.1540476
302.3869721
300.3345612
299.6479561
300.2925111
299.1218662
297.841461
298.3967115
299.5707591
299.0220277
301.4708526
302.5773607
303.1560486
301.7402758
301.1192528
300.2790395
299.4266409
301.1894902
300.4060504
302.0854414
301.7078986
301.5901537
300.5799604
301.6661866
302.8501581
302.8966835
302.1991437
301.9998973
299.7300296
298.6490631
302.1589916
301.7197117
299.601732
296.9210068
297.4349288
299.6923418
301.1512979
300.4941054
298.4395544
299.6702912
299.6035552
296.9504423
299.0819618
300.7646515
300.895994
301.6416056
299.6606319
300.3240992
300.4890102
300.079785
299.5111497
299.8133101
300.3255833
300.1642579
299.0976985
298.1108409
299.2028114
298.8596118
298.5664073
299.0535472
298.9112316
297.9650081
298.9134456
296.8236204
297.4275112
298.3583454
298.2446055
297.7506786
296.9040551
297.1198694
298.4235504
296.613066
299.4935224
298.6905767
297.5954185
297.2360569
296.6718717
296.0058662
299.052118
297.2593727
298.4976466
297.4659134
298.2886398
297.29303
297.6818707
297.9378276
298.0769977
297.7906928
299.4582128
297.400848
297.8336985
299.098517
296.8877787
296.0879667
298.0735169
299.1322998
298.9743286
299.4355935
297.738414
297.0465176
296.6329758
299.5178073
299.5838139
299.3907056
299.5485495
298.5455539
299.9774017
300.1024333
297.7497645
298.7418602
297.4858726
298.4537933
299.0203472
299.3613052
298.8653619
300.1961778
299.9303854
298.1438933
294.6602399
296.0874118
301.0871971
299.0263895
297.0991289
298.7721593
301.5781998
299.9199558
299.2704853
300.8284094
303.2014966
303.6531806
301.8604074
300.7819722
298.6545018
299.9025077
300.2628008
299.4372892
297.8970699
294.6600991
299.8472717
296.7902691
298.1808901
298.2554287
298.8420498
299.3048636
298.7282844
296.4534418
294.4050749
294.8294395
294.355455
295.5731037
295.6132224
295.8146382
296.4408024
296.962581
294.5843116
295.2859847
300.1395696
301.1216983
297.3904889
299.386994
299.8466242
299.5789209
299.8705416
300.1046862
299.4537551
298.8148495
299.3908141
300.4615877
300.0177768
301.2408837
299.8103241
301.0403675
299.6416941
295.974899
295.7728858
296.0222953
294.8135804
296.379239
301.6697984
301.8284372
303.5262355
301.7402609
300.7591734
299.8690064
302.7467127
303.1455415
302.8923756
301.4165385
300.1682999
297.7144652
300.8691651
300.440414
300.9821499
300.8889717
300.856479
303.3700621
304.0706739
303.0056155
299.5164954
298.282151
299.0599416
299.2224049
299.506126
299.799024
299.217646
297.8776243
297.4480671
299.5076833
298.9873276
299.4930055
298.2031025
299.1146097
300.0069168
299.2971007
299.9504267
299.5953676
299.8620171
301.1513429
298.0174526
298.5229687
298.3972602
299.7500911
297.9598364
298.1480024
297.8164798
297.4538106
296.9293143
298.4396385
299.8171537
298.2746678
298.3772208
299.3876052
298.1807882
297.8974253
297.9297615
297.9535524
298.2946192
298.3055061
297.2826511
299.1392432
298.227029
298.6001526
297.8226124
296.5148714
298.7469708
299.3665272
300.51836
298.6977401
297.811393
296.006766
295.3541236
296.4570385
293.9551679
295.1548037
294.5833898
296.7749887
299.5719433
298.9259277
298.5752192
298.5503519
297.7073071
297.1313369
297.5447394
297.7989136
297.9500616
298.0388014
298.1219602
299.6652846
299.0007647
301.3554743
301.2683416
298.9948179
296.2749908
295.8679784
298.3263679
298.992724
298.3901395
298.4740768
300.4529774
300.1873704
297.1801785
296.9780931
297.3921462
296.9960373
300.3803619
301.147525
301.997192
301.1010268
300.5517898
298.8940342
298.2665307
297.7963078
300.6281272
299.9858668
299.8398662
299.8185642
299.4368201
299.5297627
299.7243879
299.8408574
300.4590396
302.5828842
301.1266011
300.710841
299.8639607
298.8719347
300.2033305
300.0814302
300.1791557
297.7222669
299.5480082
299.909216
299.4455004
300.7347946
301.0032134
299.9184083
298.5079992
298.4462793
299.613436
299.2342052
299.5059451
299.6074865
300.3619481
300.3478251
299.6072632
301.1085195
301.3125259
299.9418565
301.6666032
302.322132
299.7904021
298.4630364
296.7452231
297.7352826
298.9610838
299.2926851
299.2463568
300.2111969
296.9963844
297.2396279
297.438881
297.3000396
300.1851112
299.5658056
300.2316096
300.1383611
299.4410507
300.2166532
300.3862318
301.5989104
301.1182406
299.2780517
298.9470956
301.015479
299.292753
297.3902183
296.5587838
297.2408856
298.167302
301.1297444
302.8257572
302.0897658
300.1173305
300.4430223
300.5665115
300.9577357
298.6510031
298.4205696
297.3174542
296.7168944
297.9227872
299.4940094
298.6831528
297.4936851
298.6579993
297.6165114
298.4903069
297.8097532
299.0597517
299.2728472
298.0532963
298.0579435
300.1522484
299.3941631
297.8814637
296.5151841
297.7439878
297.7104444
298.5946008
298.8307078
298.5042559
296.9736024
295.6599177
297.3466808
297.3285967
297.4191573
299.7961208
298.6468161
297.6393864
296.4915276
297.729453
297.3252763
298.6463477
297.2762137
299.1028258
299.3405837
298.9249712
299.9708897
298.5023551
298.5153104
297.4419917
298.5026007
299.1704695
299.0420101
297.4566115
298.4170481
298.619077
298.1829694
299.3646499
297.4965143
297.7770715
296.2503919
296.4330666
295.7371242
296.729637
298.9310794
299.5512401
298.0889076
298.0769666
297.2333427
297.9542081
296.4083973
298.4918547
299.8528564
296.4048448
296.4105637
295.6786239
296.9329677
299.1988592
299.2738974
296.220712
296.6411539
298.949921
299.3942329
298.5168526
299.7269517
300.6481717
299.341401
300.2761869
300.3930786
301.2096799
299.8664712
298.1563864
298.9915984
300.8044771
299.6958146
298.1568156
298.8953884
299.8248966
298.7926859
298.7149505
299.9576163
300.4270585
299.9505703
298.2486445
297.1934258
297.7862331
298.9715833
295.8712551
298.2297212
299.2936627
299.74316
298.5171269
297.8902413
297.1506526
296.4836843
297.1141664
299.5437669
300.9754871
301.2854036
301.3546751
298.7958916
297.3091288
297.1614323
300.7381552
302.377948
301.9736087
300.630571
300.7109671
301.9496821
300.3527101
299.1338441
299.6947981
300.9419956
300.3964167
300.1643951
299.8922758
299.5924708
301.6469894
300.1221995
297.6332455
300.0605215
300.1233466
301.8263898
300.1929487
298.8982444
300.4014817
301.9760511
300.6431111
299.3622706
298.580053
299.564791
299.5825129
299.932126
301.3315654
299.581949
299.9242674
301.2859844
301.6829245
301.4791565
301.0377143
298.6035831
298.090256
297.5992359
297.9850027
301.4018215
299.4910202
298.0926427
299.3196178
301.7297437
301.34697
300.9767956
299.9687068
300.8262453
301.0323248
300.920825
301.3503197
302.0800229
296.070379
295.9713852
296.7416258
299.4859315
297.5309699
297.3588012
296.9844363
297.3300621
297.4841443
297.1925931
295.8547877
298.1486001
298.6352558
296.9317664
297.1836673
295.9873681
295.4574147
296.3961866
296.3593979
296.7698327
297.9839467
298.4511527
298.9174628
297.6165518
298.2183034
299.8091432
297.5546141
298.48135
298.9554927
298.9834643
297.3449967
297.1207101
295.2991455
297.4159378
298.1378047
299.130905
300.1020146
299.2866147
296.9846208
296.2228735
297.7144592
297.77017
298.0152218
299.6340533
299.7910266
298.1466792
297.0987707
297.5618775
296.7518073
297.1926344
300.1858667
298.5979434
300.5543563
300.3596737
300.304657
299.3813692
297.7171355
297.49958
297.9457342
297.2499101
298.7963175
298.3313263
299.549737
299.0403532
300.4345132
300.4281495
300.2155466
301.1766177
302.0230825
301.654702
299.7371748
301.1951914
297.7326854
298.3001387
298.0598018
298.4358758
298.1972291
298.6455923
298.0896303
299.1679095
300.3596277
301.3568325
302.8930279
302.3734037
301.2246672
301.2344457
300.5749678
300.6102354
300.3946856
299.8457129
299.4180669
299.0525576
301.1874078
300.8840844
299.94045
299.4471372
301.3880642
302.4950737
300.4680507
300.7464634
302.7805444
301.8229015
299.2379941
297.4276854
299.2565852
298.5768357
298.1579259
299.2057339
298.6453367
299.3819018
297.9976536
299.0011147
301.8203416
300.8447892
303.7343622
302.9531827
301.4281007
300.4930994
302.2330179
303.8352279
297.277684
297.3376189
298.1372175
298.0589767
299.3588965
301.3875498
299.4481707
301.109052
303.9645223
304.3166087
302.4033573
301.8573272
300.4223258
299.3651682
299.5613403
297.8151508
299.4867074
299.8321269
300.0971659
298.872808
297.1740756
297.2208129
297.5859236
299.8443586
299.6983922
298.1270585
299.3925572
301.0423415
300.5995723
299.6238754
300.0650496
296.4709556
295.0491708
295.9910042
297.9317586
296.0633592
295.4877323
296.6614239
297.4820913
298.7203345
298.3412984
298.8365465
299.2239167
297.611829
298.0805046
297.5606024
300.8529823
298.5832956
297.7241557
297.99785
298.7134199
296.3407479
295.9516438
296.306232
297.0879656
295.9800627
297.1065676
295.8463634
295.9443632
295.6363797
296.9527184
297.1640497
297.2469536
298.8039679
298.8613383
300.569477
300.6641881
300.7072257
301.1424612
299.9187939
298.5573075
296.6961915
296.0053027
296.9607459
295.0368133
296.6939487
296.7120622
297.9433835
297.946506
297.1139994
302.4716429
303.402244
302.6585857
298.2677984
296.8969875
296.7852465
299.2594642
298.0185192
298.2339577
298.3151534
298.9042446
298.8973403
300.3293387
299.3077143
297.6278134
295.886588
297.9359626
297.7031543
298.1899796
300.2757103
300.2579299
300.2058972
302.5265724
304.7019575
303.2788896
303.5304486
303.7588605
302.8417852
302.2715633
301.370189
301.6593144
302.1355979
301.1983569
299.4402052
301.3637075
302.1272286
301.8711127
302.5522321
301.6378762
301.1335565
296.455178
296.7849961
298.7767244
298.3647394
298.6736285
298.6715897
299.5476565
299.80108
298.8795526
300.4126112
300.7964239
299.7480751
298.8219664
298.2311023
299.1999459
298.2612864
298.988597
298.2152386
297.4813953
298.0237309
300.0505395
298.2993195
297.3848098
298.0216639
297.6374649
298.0433289
295.5984018
298.2636432
296.7160757
297.1530193
298.4913898
300.5877396
301.0367969
300.4848549
299.5797617
298.8574623
298.4947366
300.0285822
300.5048109
299.4461245
298.0246192
297.115631
297.6525052
298.4258538
298.7993734
300.0898614
300.5521985
300.0436652
299.680007
299.7396504
299.7622232
302.0008588
302.3221577
299.7830825
298.4663415
299.6500657
300.4563928
299.4498562
298.2975054
296.8869879
299.1473582
299.1846013
300.654884
298.9805203
298.80242
298.3571299
298.4100992
298.7047507
299.9922662
299.8655273
300.2360213
300.3510066
302.0670422
304.6963873
304.115741
304.4667032
300.5086976
300.5172552
300.9707295
298.3647788
301.3072737
300.2497879
298.1380763
298.8969937
299.2629695
299.9761431
299.850894
297.071739
298.2885554
299.8290905
298.6700474
300.083561
299.8954362
300.1425778
300.0881401
299.0572876
301.3791343
302.2962245
302.8507967
302.058288
300.0502305
298.8562128
298.0903743
296.757881
296.1261208
299.452877
300.2107476
299.9213156
300.1922424
298.1442566
296.7486228
295.1411502
297.0459687
298.3346859
300.5812588
299.5255127
299.5173516
299.5895876
300.1988582
300.5140355
300.178603
299.0248334
297.0315278
297.3510252
296.7360178
297.8222735
297.8198436
297.4720538
297.7113496
297.9003385
298.4810499
300.3273402
300.3741621
299.2500757
296.9565778
298.8996151
297.5399982
297.0170494
296.2604169
298.1427839
296.5635012
297.9887441
298.4451084
299.3441545
301.4434876
301.070142
301.8580383
300.7475196
299.4629831
298.848597
299.5286654
299.0247921
300.0341393
301.1224544
302.070754
301.4887913
301.2390362
298.7428766
299.5011878
297.273132
301.2418978
300.4437101
299.9247076
298.9908829
299.7200523
299.8521945
300.5546478
298.4061986
295.7229311
295.8879667
297.9575578
298.2316251
296.9142517
296.6914482
295.611893
296.9244442
296.8355683
295.5938139
295.2884903
299.3885447
299.7522397
300.4947478
299.5389197
299.2509035
297.5235671
299.4542341
297.837546
297.5461787
299.6689503
298.7046278
299.6908014
298.5068056
297.3145573
297.1518838
298.2005427
296.9733459
296.5505747
297.941934
299.2603191
298.988864
301.9278515
300.5544492
302.8738093
301.9412582
298.7371233
297.7422364
299.8257868
299.3105072
297.5992968
298.2905466
299.6937642
300.4834018
300.0752522
301.3562733
299.6032709
299.3021243
302.1447123
301.5571779
302.9038755
301.5317068
299.5617147
300.0852649
299.8792493
298.464554
298.5878016
298.7620775
298.0165211
298.142995
298.6463255
298.1267572
296.8592289
297.7901864
298.3755655
296.6558972
298.1148115
298.7683504
298.5228514
299.5179743
299.4214139
299.3294467
302.7174082
300.887588
302.5299935
301.5627564
300.8062966
300.6670923
300.4715196
300.1337777
298.3760872
297.2301204
295.9884537
297.5859924
299.1844956
299.1050045
298.7623574
299.5550621
299.6603871
301.077088
300.5921861
301.9950858
297.5959161
298.1861728
296.9957106
297.0461968
298.1065229
298.8317942
297.1744123
295.8566438
295.5183666
294.0771665
295.6590629
297.0945556
296.9233424
297.2784364
298.2234168
298.3550456
299.2620209
296.434149
296.594793
298.108252
294.8758173
294.5879521
295.0199429
296.0598763
295.9832199
295.5328506
297.6220386
297.0443824
297.781127
297.2709725
296.3567992
299.1578366
299.6293974
298.7804668
299.9485281
298.4457568
298.7776225
296.9956026
296.872152
296.2918838
298.9026991
300.4192083
301.7286213
301.2155163
302.6283192
301.4226407
300.7983062
300.1103797
299.5541215
300.8231903
301.6507555
298.4060275
298.0161398
299.6380838
297.9285207
298.0160584
299.2891146
299.6853339
298.3408881
298.8154149
298.5256906
298.9323369
298.6100657
298.8194196
298.3125915
297.7229202
298.8448534
299.4875831
300.0568034
297.7196423
297.9555368
298.0313209
298.4202936
299.1263005
297.958168
300.8693469
303.1479793
301.7005733
299.2597654
297.9412398
298.6909329
298.1521417
296.8857118
296.6913996
294.557387
294.6049222
294.8646587
295.3654192
298.8019217
299.4576862
298.4332725
298.963016
298.5652559
300.3146281
299.6581386
299.9095373
299.557464
297.6734832
299.4740381
298.2592585
297.2127264
296.683803
297.9407967
296.9800903
296.1112353
296.1698999
297.9514546
298.1653024
299.1657164
299.5142815
299.771165
298.6189163
299.209717
299.1672456
298.85601
300.2203633
298.6306614
298.8399377
297.1916887
298.0065319
300.6541859
299.8882968
298.1589338
298.7788793
299.1060459
300.2458349
301.1091007
301.8546388
299.4906566
300.1070605
300.6382134
301.4893119
300.7724861
300.8363483
301.6770438
300.3299895
301.3261668
297.6961986
298.0975217
302.0164845
299.5622163
299.1363336
300.8655655
300.8407886
298.7096991
297.1334934
296.3733019
297.1889291
297.4230163
297.4406761
298.5458348
299.5710874
301.1465874
300.4131577
298.6615982
299.7157573
298.4065338
298.8467588
300.0995803
300.8062365
296.8961909
297.1011941
298.4583056
299.2812336
300.4286485
298.9518103
298.9319462
299.1962648
298.9147991
298.1846812
298.3317049
296.6834711
297.2973644
297.7513224
298.1953649
299.6527217
300.1686781
298.2791233
297.2523649
296.0269685
299.1305993
297.2021574
297.5017073
295.3377023
293.4193218
294.4233532
294.6563111
295.8882151
299.0540063
298.4862254
299.1667422
296.9114596
295.8800957
295.9883946
296.5202237
295.6616903
296.4472076
300.9559221
301.1396627
300.6529709
300.2072382
300.8265892
301.4475312
300.7303617
301.4554737
302.4192282
299.5726853
300.9881579
298.9483154
301.8793571
301.6028537
301.7436672
301.026674
300.5134219
297.6229602
299.2409747
297.426829
297.732194
297.7666911
297.1230049
298.2834525
300.5949663
300.3355628
301.5722015
299.537906
297.1039746
299.0049209
298.5697959
299.5444184
297.9573381
297.4401444
297.4795342
298.7312062
298.041398
297.3418339
297.1094748
299.1697242
299.7911203
300.446168
299.4045215
298.9081549
298.0730529
298.6102581
297.1799284
296.4202632
296.8378769
299.269502
300.0482981
299.6258631
298.8814731
299.9713687
298.6402864
298.9782199
297.4961785
297.836639
299.1308498
296.5488729
298.0456123
298.6110699
298.9112804
297.891535
299.2145414
296.9784913
298.6934917
300.3264623
300.5756046
300.4550453
297.7830125
298.2416413
298.325815
298.4661299
298.8582342
296.9488211
296.2763865
297.1862147
297.8143773
298.845748
298.2187201
299.6950271
297.4241323
298.7164179
298.1217059
298.4954828
298.5250602
298.1647023
297.9856691
298.0974043
299.7450968
300.9263853
299.0896933
299.2257132
299.5086023
296.9452229
298.817842
299.4093862
301.1894905
301.6655235
301.0877745
299.056232
297.0124884
294.9774629
297.6432927
297.9830556
298.0191921
297.6982142
296.2968909
298.5191705
298.4500555
298.9537874
298.9252464
300.8776565
299.957198
299.481994
300.5966478
301.3009873
302.3672227
299.5600966
297.6699454
298.1296129
298.1769649
296.9450238
297.6899681
298.5973105
299.3214485
299.882174
298.7071265
299.1653017
298.2789616
298.2030707
298.438756
298.8975125
298.0931998
297.9083614
296.5860765
297.0432156
297.3547907
298.6411887
299.4946024
299.4806937
297.6988264
297.4718142
296.3219632
296.9745845
298.6522428
296.8824554
301.3983365
301.6618279
300.700776
297.613168
296.2313103
297.8215649
296.9481623
298.1338404
298.6003781
299.4450187
297.3475148
296.4978891
298.3199512
299.1944648
299.1920467
300.2539553
298.9342647
297.3731655
295.1335437
296.4579961
295.5388599
296.523323
298.5856565
298.6097609
300.1344047
300.518818
299.477972
298.7970244
298.9923034
300.5679951
299.5456273
298.1022366
298.274573
299.943695
300.4559265
296.894793
297.7855164
296.6282369
297.4423676
297.1020366
297.3381802
298.439033
298.8679724
296.611663
296.4330531
297.4202447
295.8155672
296.920303
295.6212655
295.5228455
295.9960509
295.4171523
296.7730411
296.5690893
297.4322899
298.7423647
298.5306212
299.1136978
300.4032922
299.1866318
299.4281699
297.7192307
299.0681103
298.257863
298.5424912
298.9630402
299.8232958
300.3810127
300.0620129
300.634672
298.462561
297.8972898
299.0698303
299.7213882
298.7897337
302.0758844
301.3028131
300.6466376
298.8827392
299.3845552
302.2813544
299.6562801
300.305142
299.9835264
297.9787656
298.5137976
296.3043829
296.0935905
296.0411968
295.8157213
296.3389466
298.1524955
297.4543837
298.3507318
298.1395586
298.1091112
297.5038048
296.9881936
299.2855991
299.5946141
297.8769988
298.0081449
297.5821846
300.4105854
300.011194
299.9434286
299.250369
298.6798683
298.5173864
300.3551368
297.3834379
296.9055432
297.3463849
299.4908125
298.8613055
296.0592394
299.1784386
297.9135334
296.6563036
297.5240317
299.8517871
300.3123104
302.3314154
300.5740796
301.4125561
301.0643461
300.4090344
301.0004844
300.9339674
299.9168431
300.5060981
299.840471
298.5250608
297.9611602
296.4653876
300.023035
297.1675831
297.8767778
298.4025328
299.6143614
298.7411894
297.6772912
297.0280989
298.1733951
299.0723392
295.918048
299.5027169
298.7315712
297.7099547
296.973012
296.8179158
298.312602
298.680756
300.4109496
299.5586085
297.7498595
297.7665447
298.1065177
299.9385215
299.6290509
299.2307053
298.3784334
297.4357157
296.3515735
297.3641184
298.2728346
299.9578963
297.526795
298.7413148
297.4988249
298.9539862
298.8898628
299.7453967
297.4006846
298.82106
297.9211027
296.5570865
298.253926
299.1407473
298.3115823
299.1179094
298.4465024
296.9651599
298.4484641
298.6118393
298.3440703
298.1153176
299.0294281
299.0148045
300.1710773
299.3994113
299.2702483
297.8092644
298.6779024
297.8059678
299.1412113
298.6505121
298.9567893
297.1560797
300.015405
299.5335567
298.9427414
297.7483107
299.3847296
297.5443624
298.1326934
298.0976861
297.3109682
296.2891172
297.6461577
297.8132601
297.0561794
297.9166049
297.261059
297.3024061
300.6763923
298.7299789
298.4428593
299.7414779
300.1242418
299.6649108
300.2814218
299.3781151
297.7567145
298.3022998
297.9840875
297.1553243
298.0131316
301.4768173
300.7621151
301.287049
301.1548341
300.3369912
302.0499934
302.5473778
296.1323823
296.7519863
299.0645515
302.1823294
301.9429878
301.3510962
299.1190352
298.7543906