/*--------------------------------*- C++ -*----------------------------------*\
| =========                 |                                                 |
| \\      /  F ield         | OpenFOAM: The Open Source CFD Toolbox           |
|  \\    /   O peration     | Version:  v1706                                 |
|   \\  /    A nd           | Web:      www.OpenFOAM.com                      |
|    \\/     M anipulation  |                                                 |
\*---------------------------------------------------------------------------*/
FoamFile
{
    version     2.0;
    format      ascii;
    class       volScalarField;
    location    "0.01";
    object      overallT_N2;
}
// * * * * * * * * * * * * * * * * * * * * * * * * * * * * * * * * * * * * * //

dimensions      [0 0 0 1 0 0 0];


internalField   nonuniform List<scalar> 
5120
(
299.1161765
299.6522712
299.4105519
298.9304047
299.0644365
299.8277645
300.5049442
301.0497562
300.9850301
299.9036299
299.480083
299.769303
299.1743935
300.0174655
299.0044973
298.8721043
299.9088779
299.2442728
299.7417742
299.5158167
300.4887146
301.2407199
302.0219975
300.8901657
300.257921
301.0291588
301.3935871
300.581696
300.0769659
300.5467699
299.9979016
301.0588511
300.4207258
300.9037039
299.6796985
299.3889882
298.2570652
299.1465979
299.1007429
300.6435283
300.3309876
301.353127
300.9956408
300.0222302
299.962064
299.9312679
300.7209104
300.0947035
298.9296813
298.7655566
298.242698
298.5537524
300.0609607
300.556186
300.5332524
300.3657313
300.384867
300.577391
301.020359
300.5724469
300.096936
298.6346474
298.7848959
299.2170849
299.0528907
298.3394632
299.8138626
298.7571061
299.5054149
299.0581855
299.0095538
297.576343
298.6617921
297.8546723
298.2878329
299.2332675
299.5141108
298.8359745
299.0518224
299.7636649
299.426235
299.4934508
299.4946385
298.4178819
298.5998183
299.7800513
300.0485821
299.5284766
299.6946541
299.2547882
298.3262522
298.0243087
297.5724397
298.0423291
298.9204332
298.9163025
299.0400716
298.9655352
298.5909337
300.2480223
300.1632325
300.6927884
299.9357806
299.8907883
299.7131421
298.9994811
298.1801373
299.0765324
298.9707874
298.7566988
299.4793989
300.1320165
298.8520676
297.871348
296.6985189
297.5724495
297.5598039
299.0273228
298.2304564
297.5833301
299.2045655
298.6220999
299.1985783
299.0400653
299.0183442
299.2443332
298.5615651
298.3052261
298.1206053
297.9947578
297.6819257
299.081632
300.0213384
300.1519799
299.6385513
298.5047571
297.6080164
297.1570785
297.5196074
298.8421639
299.3761305
298.7562834
298.8536899
298.508955
299.6422744
299.7145263
298.9981589
298.4277272
298.1394232
298.4249875
298.0674755
298.2304173
298.5426108
298.279213
299.1356126
298.7600032
298.1216935
297.6424422
298.2344258
298.9637497
298.8604288
299.1365594
299.0106604
298.8274967
298.424701
298.4306536
298.1754681
298.1240188
299.0746413
299.7659222
299.4794889
299.7300821
298.5394755
299.4908319
299.6921637
300.3100865
299.7977141
299.2707024
299.719788
299.2414921
297.3163186
296.643779
297.6875153
297.5035976
298.6579263
298.7920389
299.9291665
299.1248514
299.3957808
299.7755408
300.3581713
300.3507458
299.9273452
299.3165244
299.0992762
299.6787308
300.2926761
299.0535327
299.4455123
299.1289748
299.3034457
299.9169031
298.734716
299.1270733
298.7314144
298.8307549
297.3210408
298.3954473
298.6090186
297.8724433
297.030099
296.8325982
297.6468097
297.8643224
297.5952638
297.8763576
298.7457056
298.8055999
299.0445571
298.7256685
298.0450132
298.4700728
299.407737
299.3968384
298.9240531
298.376851
298.2749547
298.059643
298.1320968
298.6852038
297.4609548
298.4755689
297.82235
298.201382
299.5042709
299.4204778
298.997584
298.7099209
298.0764137
298.2224492
297.9347054
298.7032926
298.0059604
297.931401
298.2202529
298.5430832
298.5260429
299.2450336
299.1048226
298.7553472
299.5634807
299.9102194
300.1399409
300.6112931
300.1717847
301.1720552
300.2202583
299.612447
298.0629302
297.6024367
298.4239581
297.9741855
298.0983257
297.5537797
298.1543035
297.5373156
298.3213729
299.0572879
299.163687
299.3938802
299.2110741
298.8077915
298.79488
298.8759911
299.3427061
300.0544389
300.3572245
299.3283275
297.5798321
298.1875702
299.516033
300.0978108
299.8943044
299.8399959
300.9429927
301.3449693
299.8184826
298.5216318
298.8913469
298.9344488
298.7777676
299.674491
299.3940696
298.0847896
298.9507019
299.2732497
299.6613903
298.586411
298.773503
299.0093421
298.378258
299.7413626
300.6308362
300.0816661
300.6401122
300.5945347
301.0937181
301.5843051
301.4448744
302.0224271
302.8128709
302.3906
301.2793664
301.4586443
300.8291004
299.7535389
298.9472041
299.5786715
299.0340197
299.2415023
299.1252931
297.6570727
296.8075835
297.5904512
297.6704811
297.4944291
298.4759862
300.0190459
299.7969558
298.7561738
298.5126671
298.5087021
297.7825333
297.8008099
299.721203
299.6042471
299.2347889
298.9564653
298.3108426
299.0349132
299.1106055
298.6519513
299.8598852
299.4984269
299.7726152
299.3366802
298.5253666
298.4330281
298.8081876
299.3164154
299.8365247
300.0754087
300.1665393
300.9578282
300.5331277
299.8677906
300.114237
300.0356854
299.4812617
299.120711
299.3563711
298.9716162
299.3811183
300.6700823
300.6089076
299.6260003
299.8301554
300.363382
300.2791006
300.1162475
300.1739818
299.6951719
300.7862501
300.2983721
300.7154934
299.8009001
300.7091069
299.6268105
299.8058182
299.9408138
299.9839326
299.6832521
299.0554297
298.4169199
299.5624009
300.5916957
299.3921583
299.3994534
298.0011435
298.1624455
298.371096
298.3412875
298.8580933
300.2990864
300.4851947
299.8658435
300.629886
300.7156347
300.5946008
299.2488673
299.07766
299.3669876
299.7079492
299.6043884
298.1985484
298.3762206
299.406831
299.7353581
300.0968035
299.7659905
299.3366314
299.1404067
298.8039473
299.4033357
299.3692893
299.6113676
298.9518591
299.7707254
299.4721761
298.9679493
297.5688566
298.8063397
299.954567
299.0348303
299.9543378
300.3943283
299.6243167
299.0015014
298.2146984
299.4496709
300.2201883
300.5974058
299.8376917
299.3877332
299.3051097
299.4572435
299.1014967
298.4337451
299.1782439
299.0237233
298.7443436
299.2102684
298.7518682
298.3706215
298.6772192
298.9699977
298.4569548
298.8709133
299.4633432
298.7754467
298.4506077
297.8548429
298.9864013
299.6825532
300.1422
301.1150081
301.4413915
301.3322256
300.5184101
298.9530747
299.2112578
297.6869344
298.2275609
299.8265174
300.1478892
300.5613474
299.3591474
299.6407391
300.1441692
299.5027076
299.3392906
299.1000705
299.1368403
300.0304504
299.6775718
299.040881
300.5431646
300.8761028
300.1399334
299.44647
297.606603
298.7088127
298.5655624
297.5973027
297.2360913
296.5035743
297.9365962
298.4875886
296.9332858
297.4316352
296.9185409
297.7944551
298.2466788
298.6969303
298.7792373
298.4673013
298.8915419
298.758311
298.0085363
297.8529444
299.3877305
299.2579032
299.3580535
298.841401
298.8507022
298.1118502
297.7840759
297.8397662
297.6799935
297.8963596
298.5422454
297.4393461
298.4058754
298.2863154
297.8537242
298.1113042
297.0670549
297.5491387
298.4637764
298.0491426
298.1917641
298.4310894
297.5967625
297.0901604
298.2110945
299.3265057
298.9253455
298.2988925
297.491812
298.6694951
299.0321444
299.0376084
297.4670161
298.1278295
298.7118084
298.7624931
298.3694365
299.2429123
298.4758114
298.3951648
299.3750302
299.4369111
298.7753676
298.9911401
298.0371313
298.5892633
298.1410257
298.1773499
298.5809777
298.9604125
299.2880838
300.3270036
300.4317565
298.8933691
298.0183048
297.932649
297.6136819
297.5737645
298.2087833
299.4644796
298.2417375
298.2464168
298.7072837
299.1049997
298.7165202
299.4315312
299.9750362
298.6488988
298.6215016
299.1018576
299.1672567
298.2824967
298.2764022
298.1291241
297.0448468
296.6376788
297.3432118
298.4880618
299.1065785
297.7695087
299.7937167
298.2683779
298.6341177
298.7171082
298.5174027
298.5912001
298.118581
298.2806604
298.8909664
299.3679488
299.8445192
299.3644977
298.3593974
297.254147
298.936808
299.3358485
298.1519394
298.8406791
299.7909808
300.4770467
299.3985869
299.7494449
298.9772259
298.3251753
299.0919657
298.7850779
298.7325413
299.1567083
298.9399711
298.1097547
298.553075
298.3732828
298.506339
299.1786434
299.257876
299.091965
299.7082018
300.9306024
299.8485392
299.8879293
300.2622846
299.6230319
299.3599353
300.2331853
299.8129141
298.884949
299.8120791
299.350414
299.7909972
299.2233096
298.0036042
298.2001919
299.8214256
299.5212223
299.1815876
298.8619978
299.1887425
298.9192548
301.3287841
300.4474266
297.6793938
298.3791746
298.670932
299.1045456
298.9146595
298.579378
298.5643669
297.6950725
297.2922225
298.466133
299.8957219
300.2638187
300.0497466
299.1672876
299.0634204
298.9045166
299.4309804
298.7122553
298.7317749
298.0454893
299.0344165
298.3835762
299.8413616
299.137867
298.2960354
298.5179173
298.7759542
299.9020975
300.9183567
299.7155104
299.6331614
298.8725189
298.2536718
297.7812304
298.8387076
298.3640157
299.1824655
298.6559579
299.3576054
299.4266837
299.4072049
299.8549597
299.8077859
299.2964289
299.7574909
300.6707975
300.2290838
298.9834208
299.481938
300.387286
299.9173835
300.6735529
300.6425925
300.4663149
299.0734688
298.8881285
299.3641413
299.8536939
299.0239659
298.6244397
299.6313425
299.3939987
299.5839086
300.1908583
301.3984209
300.501158
299.8379652
299.658707
299.1119538
298.6925737
299.2264927
298.7959321
298.1845163
297.9694673
297.9362751
299.0548819
299.1738994
299.4127742
300.0029503
300.0751107
298.9084874
299.5574133
298.8790811
299.1654854
298.9169136
297.8991304
298.4263886
298.3011261
298.4019813
297.9308242
298.1935535
298.1199251
298.1975787
299.3039065
299.0484566
298.3438032
298.1521272
298.5261559
298.8700624
298.2660368
299.3362932
299.2955338
298.4879709
297.8253279
298.6017948
298.0698003
297.5553614
297.4284299
297.7208401
297.7778539
298.3575415
298.5840979
298.3020672
298.5124666
298.409546
298.8631937
298.6498976
297.280022
298.2866982
298.5946787
299.3018982
299.1336897
299.1911176
299.4139466
298.257136
298.8285004
299.8927946
298.7864279
298.4872585
298.1966609
298.7204109
298.9538298
300.7603391
300.1120966
299.2909361
299.3780162
299.5059842
299.6743797
299.7878437
300.2015457
298.4406318
299.0425396
299.3197693
298.6829668
299.0025718
299.7150838
299.3500918
299.4229844
299.459332
299.3942261
299.5623394
298.8865461
297.843227
297.877352
298.4977287
299.0171961
299.2229408
297.546203
298.8299276
298.3312074
299.5110305
298.8213446
299.1985945
298.985652
299.1368881
297.5080893
298.014518
298.4088161
299.085847
298.8973605
298.8951068
298.2199833
298.5804922
298.8623701
298.9363031
297.8669277
297.630822
297.4083005
297.6306506
298.4612495
299.0057625
298.5782422
299.6772622
299.3082848
298.7720817
299.6563854
299.5625318
298.9467742
299.6315485
299.8990373
300.2406223
298.6575964
298.5098117
298.4191956
298.0844104
298.4287053
299.4683685
298.9350255
299.0645062
298.7111348
299.5256149
299.0339943
298.9984245
299.2350606
298.3457277
298.3682204
299.5269872
299.1128817
299.1091622
299.0176006
298.7270979
297.8246401
299.1097032
297.6463475
298.5519762
299.2801889
298.7201145
298.960122
298.4896907
299.4771806
298.5043399
299.1439021
298.312136
298.9520042
299.354994
300.0065301
298.1194144
298.368243
297.7286579
297.3591117
297.237049
298.4898691
297.9963179
298.0673582
299.8116914
299.5876822
298.9372437
299.034218
299.2718411
299.7567446
299.082072
297.0807414
297.6653699
299.036902
299.296037
298.4919894
298.0773748
296.974122
296.9461314
297.175153
296.7942276
297.8230106
297.8008211
297.2021137
297.5138011
298.5665528
299.4420686
298.4575439
299.2100397
298.7205109
297.4493057
298.0292755
299.0788003
297.7311655
297.5054291
296.5966088
297.6144603
297.6858653
297.3008411
297.3320718
298.5144288
298.1365184
298.1369041
300.2761075
300.3371922
298.8231247
298.339601
299.0171969
298.2383165
297.6439836
298.8288806
298.8025358
299.0019934
299.0735914
297.6887966
298.3632343
298.9080938
298.9661241
299.0011352
298.967109
298.5664426
299.5935111
299.945876
299.7203936
300.6580947
300.1978577
299.246979
299.7621102
298.8329816
298.2886385
298.2426747
298.2780793
297.9144779
297.972188
299.2549101
299.8218438
298.2883343
298.4095912
298.7484384
299.4346015
299.3429145
299.3781522
298.5130087
297.761068
296.537364
297.4582829
298.2669339
298.0980332
297.786223
298.1095317
298.911333
299.052851
298.4534503
297.8815877
297.2171969
297.381541
297.9325137
298.2583462
298.2166541
299.6557112
299.4510287
299.3428559
299.9692664
299.9532903
298.5746498
298.5768474
298.8620147
298.2750627
298.2899624
299.0225144
298.8928669
298.1098389
296.4807658
297.6981573
297.5675571
298.0899826
296.803977
296.6867493
297.153879
296.837836
297.5767901
297.1665686
297.4526599
298.1885471
298.9883153
298.5451731
298.1864495
298.6714287
299.0884921
299.4090742
299.2227735
300.9998654
301.3278212
301.6873622
301.7575411
300.8313745
300.464564
300.6050037
299.6347455
299.0770827
298.8879028
298.560177
298.2411387
298.894904
298.4321697
298.8299981
299.9698913
298.9742791
298.6306103
298.9518099
299.4079982
297.737483
298.850482
299.4633048
297.7988737
297.9256341
298.1338768
299.4387906
299.9919243
300.5612692
300.1888009
298.9451601
299.5724559
299.4363096
300.1600737
300.2143065
298.659026
298.9003888
299.3261048
300.3516513
298.7003618
299.4058116
298.959753
297.6456541
299.2619981
300.1132996
300.406711
299.5230316
297.6498233
298.1714568
297.7980865
298.8695537
298.9040993
299.7563379
297.9647603
298.1003961
298.0723845
298.4216848
298.584647
298.1921017
297.9940189
297.6786694
297.9691069
298.7912953
298.1831222
297.5525711
298.3138234
297.5849451
298.1786331
297.973115
297.8996524
298.3190615
298.1090928
298.1851299
299.5926773
299.6669765
299.3222725
299.188496
298.5542317
297.8275648
299.1291665
297.884731
298.3357656
299.2802073
299.4987657
297.7832055
297.727748
298.6305499
299.4050185
299.378461
300.0116232
300.2933007
300.5708644
300.6357509
300.7545618
300.2269087
299.50643
300.0853909
299.2735884
299.3048321
299.9769476
299.3482866
298.9170123
297.8600666
298.5257049
298.648611
299.4348621
300.078275
299.9918688
299.4552891
298.8971445
298.5896705
299.4894952
299.0076916
300.2300661
300.2668631
301.1660985
300.2477029
299.438228
299.6767525
299.4974054
299.0004414
297.7042905
298.2856638
299.3086389
298.6478107
298.0744117
298.8471306
298.4035806
298.3440918
298.5837271
299.4534549
298.9074273
297.6051993
297.6362798
297.752418
296.7184509
298.9510851
299.6120839
299.7557944
299.3422994
298.3384189
297.429331
298.19226
298.2331913
298.4812924
299.6091086
299.7437913
299.9785101
299.4801995
299.4248843
299.1075791
299.2750532
299.0394844
298.9545662
298.4153765
298.7292301
297.841758
298.0648209
298.353931
298.2870869
297.5660248
298.6409145
298.4193343
298.3539056
297.3893497
298.264884
298.9957788
299.800001
299.5004905
298.4176479
299.1639928
299.5598321
299.6337854
299.0801028
299.3135921
299.4493463
299.6261017
299.3853624
298.3501456
299.8514097
299.776474
300.5987179
300.3418984
300.0284318
298.8161965
300.1442119
299.9029631
298.8301461
299.0007908
298.8913517
299.7450263
300.2658785
301.3402998
300.5354198
300.069078
299.3151067
299.2624376
299.7808905
300.1848728
297.8970286
298.6223609
297.8868825
297.8160034
298.3037207
298.780899
297.6066877
299.4631784
299.6378762
297.9647905
297.4219178
298.0807822
299.1992808
299.7067685
299.4471527
299.3635459
298.3157849
299.1543396
298.1985078
298.4952182
297.4771218
297.9597241
298.7807992
299.2265571
299.1449054
299.873595
300.4069807
299.4864915
299.8628386
299.3843381
299.8083007
299.3616561
298.1372629
297.929468
297.7335148
297.7858608
298.0243751
296.3481823
297.4020344
297.6370174
298.5929766
298.8005582
299.1855673
299.7997974
300.9491602
301.0223088
299.6379608
299.2102383
299.1732541
300.0282537
299.022797
299.3379329
299.7031895
300.3786607
298.6981203
298.4494171
298.055565
298.2689286
298.4251561
298.9307125
299.5521327
298.6734664
300.025422
300.1240557
299.6171649
300.2780286
300.6824468
301.569751
300.2901912
299.5085816
299.7864023
299.1759771
298.3882817
298.5146405
298.7188621
299.320558
298.7801716
299.0296498
298.5884723
298.6697494
298.924095
298.508664
299.5761655
298.8245684
299.3081182
298.3705061
299.1655205
299.8227452
299.6348727
299.4597151
298.6154397
299.2321644
299.7643296
299.8034724
298.2985438
297.9644368
297.8419641
298.1002157
298.9841253
299.0869524
299.1455979
298.6510862
298.5720185
298.4403928
297.985118
297.6857706
297.8987766
298.0273452
297.8509073
298.5799073
298.3453044
298.9384283
299.1254726
298.3476208
298.8464645
299.2881953
299.470195
299.8398176
298.7995958
299.1439061
299.6115579
299.2316567
298.7693237
299.091143
300.601901
299.8135871
299.826669
298.2869816
299.6423304
299.6174835
299.6468007
299.0370881
298.1765321
298.3466071
298.8671069
299.1250662
299.5424928
300.397001
299.1312904
299.3570924
298.6606226
299.6237605
299.4196248
298.9211261
299.3569651
299.9399796
300.618114
300.8565805
300.0541152
300.5096579
299.9583836
301.7745345
301.6502679
300.6638709
300.5060623
300.4119684
300.8409874
300.5282774
299.1804383
298.6027171
296.5435606
296.770283
297.8087424
299.284009
298.0538613
297.2359009
297.7390143
299.62793
299.3411887
300.0763213
300.0664758
298.3008875
297.8599822
298.7355298
300.1211506
298.9062465
297.5802233
297.0402187
298.1421459
296.8318854
296.9007599
297.4323107
297.7747007
297.702765
298.7771558
298.5907754
298.1945833
298.0772447
298.3564443
298.145085
298.4564999
298.5932336
298.3726845
297.8887752
297.4277483
299.1426802
298.3167524
297.8919334
296.6873881
297.0789208
297.8922993
298.248462
297.9944897
297.3262569
296.6010766
298.0353194
298.3472072
299.1056703
299.4585877
298.8857958
298.4955466
297.9757888
296.8333603
296.9140075
296.3871184
295.8281819
297.254034
298.5593117
298.988307
298.1132976
299.0994057
299.2613324
299.4335163
300.0498331
299.1883969
299.3904071
299.1885426
299.0404274
298.6666947
298.7160733
298.6068422
298.9861217
298.8140798
300.2187659
299.2525141
299.0954429
297.8545457
298.192754
299.1324809
298.8036925
297.7769366
298.5077954
299.5093518
299.3189972
298.71962
298.6902215
299.7255264
298.718541
298.4635843
299.2203404
298.4223701
297.2953242
298.5534741
300.0056181
300.4409926
299.4465141
298.2022159
298.3317833
298.4745801
298.2472162
297.7359676
297.7717525
298.6962272
298.9087566
300.0843573
299.7408138
299.1648804
298.4101654
298.2082758
298.9868481
299.0069496
300.4035135
299.4953523
298.8026323
299.0200963
299.1817305
300.4274312
299.9381258
299.830561
298.7174737
298.5434438
297.701256
297.5950299
297.9829326
298.4368518
299.1263862
299.1286934
300.8534306
299.8169945
298.6345527
299.4721733
298.8622475
298.6133657
298.1962719
298.8354253
299.806526
299.1553028
299.5419938
298.7789777
298.785976
299.3552228
298.9853354
298.3020036
298.2213098
298.5599219
299.3732243
299.1566263
299.5905793
300.3195356
301.5645994
302.1486582
301.0384127
300.7721407
299.2882642
299.1193984
299.8493412
299.9429403
299.7294434
298.8497722
298.2060999
299.6869435
299.5213673
299.9361679
300.0466859
300.8225156
299.7476717
298.7703667
298.0884879
298.0015983
297.7107561
297.6056602
297.254117
297.804052
297.9409927
296.9892183
297.6387472
298.0631967
297.5750674
298.625508
299.4674746
296.8270785
296.7564093
297.9292306
299.0844651
299.0312429
299.2239539
298.5317904
297.6919415
296.9735885
298.8930381
299.2538851
298.5802578
299.2470211
298.4703453
298.9022923
299.2137713
298.6059006
297.4971251
296.8149354
296.2998439
299.726855
298.8208172
299.1884982
298.4642067
298.1083858
298.3029215
298.7975654
299.2702594
299.0010961
299.138428
298.2600966
298.570943
298.8766851
299.8048932
299.582284
299.5962987
298.8480703
299.0486707
298.6337809
299.0130741
298.1530645
299.5774287
298.8005302
297.9241341
297.4905037
297.2986749
297.1579784
298.5893308
298.7581079
299.5753562
299.1324563
299.6923345
299.386727
299.2324364
300.0287203
299.1084628
299.3072514
299.306123
298.9661152
298.4882974
300.2381327
300.5244297
299.8267615
299.3442281
299.9306475
299.7467239
298.3638938
297.1177547
297.3640874
297.8892646
298.2914069
299.616405
299.2699406
298.7534188
298.2597926
299.3719351
299.7511398
299.9866183
299.5064745
299.7438291
298.5152007
299.6122241
299.566362
300.0088571
299.4894641
300.0343771
300.0700193
299.9847728
299.0756556
298.1817812
297.8315029
298.4686908
298.1073775
298.9669816
300.8524661
299.8494825
299.2529991
299.3897129
298.9788021
299.1956701
301.6211279
300.5596282
300.2165578
299.747703
300.1440615
299.9157893
300.4058295
300.5797949
300.6667201
300.6820658
300.2159042
299.3609834
299.3734435
299.5751826
299.8016471
300.1450478
300.4586419
300.3991307
300.9947188
301.6641994
298.4860462
298.0958922
298.9777371
299.790315
299.9736943
300.2324659
300.1380628
300.0614672
299.588737
300.1673589
300.227049
300.1693621
300.5414263
300.0756405
299.6793333
298.2563074
298.4744767
298.2635167
298.1586272
297.8554076
297.8866074
298.6716031
298.4823803
297.3401443
297.6195286
297.5665157
297.7304265
297.4193967
298.6761908
298.8363519
298.0762622
298.3120412
298.8574337
298.7962954
298.8702707
298.6658017
298.5497632
298.8467727
298.8140867
298.4478802
299.3070409
297.6288966
297.374184
298.3889831
297.6195725
298.4961574
297.1278585
296.9658039
296.6017443
296.7916173
297.2016361
297.5405738
298.3346955
297.4582693
297.23158
297.8611208
297.7651335
298.8173767
299.2360906
299.56008
300.0441624
300.0199335
299.6153649
299.1039199
299.7290089
299.258338
299.1637103
299.1987352
297.7872607
298.7728866
298.8525344
298.453699
298.6366528
297.890455
297.6773766
298.3526967
298.0407276
297.1864309
297.1366292
298.8616749
298.6737991
299.8688484
299.5160449
299.2263516
300.7471477
299.8962862
300.5388347
298.9014962
298.7385699
298.9164802
299.3130723
299.6534402
299.9941804
300.1476897
300.2227364
299.9786091
300.0725949
300.0781506
299.0327671
298.6184908
301.3010842
301.4855237
301.5339973
301.2892702
300.4260995
299.8377657
299.1895055
299.1762497
299.8732791
298.6802809
299.0062037
298.7181666
297.463064
297.1015498
297.216936
298.0441404
299.2876501
300.5554835
300.5608506
301.0072233
300.5249205
301.6734077
300.9863385
300.5086932
299.4178372
299.4348164
299.4355614
298.876371
298.9165278
299.075308
298.2539177
298.5740304
299.2514022
299.5756877
298.3585037
298.9688994
299.6022381
299.0997405
299.0049134
299.9480313
297.7972627
299.1749713
300.2215227
299.0879334
298.7876067
297.8168051
297.932045
298.8585796
298.7719277
299.3176815
299.980024
299.9429801
300.2617977
299.9728966
299.892746
299.7548954
299.6107691
298.9665723
298.5966809
298.3596351
298.6308152
298.8613149
297.7154437
299.4420361
299.5715042
300.4727285
300.4724272
299.5023044
299.4699895
300.2840223
299.8124259
298.510379
299.4972718
300.8201859
300.8617413
300.6415549
301.241288
300.3781778
300.4384989
299.3504423
299.1847621
299.3486276
298.9242968
298.9299269
299.0736205
298.6396799
298.4850537
297.7829717
297.3865423
298.0725639
298.5747537
299.9859224
298.3504734
297.5275018
296.8525442
297.4844591
297.1241984
298.507814
298.3409386
298.6483546
298.7482637
298.7342457
298.2064721
297.6407291
297.4264199
297.5676342
297.5370489
298.9561253
298.1387906
297.3671254
298.3564205
298.3089637
298.1973965
298.6099877
298.9596394
297.7017155
297.1835064
298.2917928
298.3644467
297.8882491
299.5618399
299.5047729
298.4254064
298.0584683
297.8239408
298.5991577
299.2826057
298.2187302
298.5405852
299.231129
299.9390923
299.4771991
299.465246
298.5764629
299.1311846
300.5157113
300.4107161
300.5206821
300.4854219
299.8258978
300.8669731
301.4335217
301.4645646
300.7842533
300.9590457
299.9346721
298.4624765
299.0541649
298.7767381
298.799101
299.5246303
299.0797586
299.1925059
299.4895422
299.8995356
299.828236
299.7412842
299.9627013
300.7636879
300.1890839
299.9201106
298.9785143
299.1786735
299.0797569
298.5672826
298.8755228
299.1075103
299.9168533
298.9079103
298.8243288
299.131908
298.3669021
298.519797
297.541238
297.3392685
298.3645606
299.8650317
299.1433795
298.6436796
299.4681004
297.6459032
297.1391823
297.9410444
298.4139032
298.8417223
298.624634
298.550392
298.9905178
299.3201001
299.3144108
299.4849573
299.5021348
299.4619981
298.4548334
297.8679366
298.1574436
298.0631078
299.0974848
298.775774
297.6519838
299.2481928
299.5007398
299.0711467
299.2194381
298.399975
299.3667945
299.7140287
299.9705599
299.3421113
299.5476881
299.809832
299.8276343
300.1016409
300.7922021
300.2049713
299.516699
300.2403908
299.917172
299.7622362
299.9043851
298.7674113
297.809861
299.1786423
299.3770154
298.7434615
298.0501673
297.8016619
297.8999272
299.4281299
299.1981464
300.1997555
299.2418435
299.4383229
299.4198155
299.4381269
299.6573023
299.2431705
298.7842482
299.4494922
299.0754484
298.0073973
297.8120956
297.3092228
298.2123019
298.0878619
298.6756949
297.777763
298.5666652
297.7748529
298.0904019
297.2342711
296.9417166
297.3546329
297.6029771
298.2474047
298.4003282
299.5909774
299.6288242
298.4788621
297.5761718
299.3865149
299.6924562
298.6195203
297.7777612
297.9281815
297.5505085
298.5582557
296.9869907
298.0263647
298.5317208
298.3818825
298.8772945
298.778931
299.0805756
299.1059752
299.2203516
298.233854
298.3197445
298.2462712
299.5382522
296.9593021
296.8887075
297.1586531
296.9597223
296.897229
297.5913277
297.7491741
298.7682493
299.2971662
299.0686313
299.4090676
299.6447789
299.5962747
298.718921
298.4351138
298.0021852
297.5022433
297.0876937
297.3248232
297.0032736
298.2842225
298.545891
298.0910216
299.056492
299.9207161
299.7559111
298.4868344
298.1570663
299.3590458
299.2248617
299.672665
299.0299644
299.9895259
299.0062619
298.2460049
298.4313829
298.1867193
299.2503804
299.470911
299.1817646
300.3508429
299.5623559
300.4527504
299.9830615
299.9150249
300.2102105
300.1548119
300.2714302
298.854324
298.9510218
298.8637199
298.2556613
297.7306686
297.9922834
299.1518535
299.3058485
300.0073622
299.0810266
298.6771126
301.3576921
301.6535851
301.5580881
301.1751949
301.016194
301.4430913
301.0458738
301.0868705
300.6811009
301.1694671
299.4056227
299.0073948
299.0390756
298.5153764
300.3872145
301.2700079
300.9289411
300.3926997
299.508207
300.9312955
301.7043794
300.3441974
299.8704944
299.8062355
300.2267018
300.5337974
300.5432883
299.8957047
298.5843312
298.597472
299.7697592
299.7693821
299.7908227
300.2506406
299.3537392
298.8868837
298.8842534
299.4262419
300.9517078
300.7043977
300.0925954
298.7859305
298.5985119
299.2260532
298.56276
298.5962115
298.3471383
299.1346118
300.2438089
300.3038797
300.604313
300.5098693
301.3037208
301.5527076
300.4979375
300.5127036
300.9145731
300.5146389
300.1905092
300.5384536
299.5224475
298.0945295
297.2205386
297.4172826
298.022344
298.3709079
298.6164813
298.2895981
299.4134841
299.3246431
298.9448371
298.596433
297.9656052
298.9050492
299.2803804
299.2686865
298.1307041
297.4447188
297.4605063
297.99298
299.4126567
299.4718354
299.0298177
298.7963956
298.4563344
298.4048426
298.5889084
299.004166
298.5924455
299.8100233
299.0550079
297.3858924
297.4576808
298.3858934
299.1141065
299.2961726
299.1742482
299.29617
300.2137331
299.2172192
298.8246787
300.3838454
298.7456784
299.4883835
298.5167699
298.1526457
297.5129752
298.8366414
298.4113924
299.3244046
299.7655769
300.5862225
300.4591285
300.7110038
300.3667767
301.2855818
301.2761641
300.2480823
299.5175803
300.141259
300.0819313
299.9296547
299.5581344
299.3006728
300.3066495
300.5832503
300.8198964
299.0942424
299.3005406
299.0212947
298.8958864
298.3532806
297.608458
298.8473586
299.881223
299.7104953
298.5999078
298.643226
299.3582886
300.1927386
300.3866196
298.8093316
299.2265994
300.0661513
300.9107876
300.8591504
300.519184
299.9932412
299.6233313
300.047966
298.8413296
299.4054214
298.761768
298.9566755
300.1005924
299.6085145
299.5293203
299.5011032
299.0973446
298.2768608
298.511286
298.096144
298.2957086
299.0303041
298.9703116
299.7502962
299.945541
299.4162692
298.8223471
299.1159511
299.8668927
298.742015
297.2622802
296.900052
298.3638686
298.4249166
298.2055834
298.3381763
299.2310938
299.4720532
298.5184895
299.2158884
299.1449896
298.2763583
297.989
298.3684984
298.1508999
299.3273675
299.978476
300.1126235
299.4281175
299.1208708
298.4487357
298.1882214
297.3938007
297.3639702
298.0729173
299.2048892
298.9377339
298.9158138
298.3404978
299.9968239
300.3736923
300.1443792
299.6603618
299.1553957
300.2553714
299.6999045
300.2668589
299.7380938
299.4000089
298.9312485
299.4443397
299.2289056
298.5530236
297.3166901
297.8008132
297.6152206
298.0464582
298.338412
298.695458
297.8106972
298.5079285
299.2480438
299.9925
300.0284567
300.956103
300.6612919
299.0269734
299.0754558
298.1560833
299.2898081
300.6181766
300.0364012
299.6402041
300.2396413
300.5360995
301.2340212
300.0869048
299.2874672
298.6468698
298.8473124
299.9980876
300.8779671
301.6204629
301.6890251
301.4256512
300.7138991
300.897443
300.7497016
301.2246296
298.9785664
298.957193
299.6821185
299.6020154
300.970918
300.8666808
299.7522977
301.071115
301.0726119
300.1626944
299.6091038
299.9864833
300.0519156
300.8065542
298.9171305
298.3453189
299.4797089
300.292534
299.1633607
299.7536378
299.4458769
299.3676097
299.5334061
299.3567125
299.1707744
300.3360518
300.8759194
300.7931327
299.2338834
299.2217564
299.3443423
299.4365281
299.6058734
297.9498724
299.2042457
299.6808042
299.176205
299.5215641
299.9919059
299.1811567
299.4889494
299.2834816
299.2180051
299.3517205
300.5440877
301.3880874
300.5714736
299.5166604
299.5065407
299.4318255
300.0996929
301.2204508
300.9326687
299.9946922
298.7182915
297.9443705
298.7612477
298.4862583
299.2038063
299.7151304
299.7277187
299.6757041
300.2374747
300.5521588
299.4963675
299.7588606
299.6199989
300.1238604
299.9238403
299.2725562
300.3887516
300.0359166
300.1761645
299.9302936
300.1943407
300.5950745
299.9006942
299.7821588
300.247977
300.1826074
300.1793048
300.3583698
300.3330976
300.2334093
300.2063839
300.0198491
300.272613
300.671995
300.6309488
299.9240097
299.735992
299.8924985
300.0854684
300.2415613
300.7871481
301.1860833
301.3669919
301.0203875
300.08289
299.0638104
299.890411