/*--------------------------------*- C++ -*----------------------------------*\
| =========                 |                                                 |
| \\      /  F ield         | OpenFOAM: The Open Source CFD Toolbox           |
|  \\    /   O peration     | Version:  v1706                                 |
|   \\  /    A nd           | Web:      www.OpenFOAM.com                      |
|    \\/     M anipulation  |                                                 |
\*---------------------------------------------------------------------------*/
FoamFile
{
    version     2.0;
    format      ascii;
    class       volScalarField;
    location    "0.01";
    object      p_mixture;
}
// * * * * * * * * * * * * * * * * * * * * * * * * * * * * * * * * * * * * * //

dimensions      [1 -1 -2 0 0 0 0];


internalField   nonuniform List<scalar> 
5120
(
0.4161203199
0.4163165258
0.4158526967
0.4137690965
0.4152595072
0.4146084084
0.4176467524
0.4166033164
0.4166244029
0.4122713875
0.4135438844
0.4145804275
0.4125820574
0.4103514557
0.4083763639
0.4085322344
0.411516892
0.4133690197
0.4127168259
0.4143519158
0.41256486
0.4138264854
0.4162180482
0.4134375632
0.4106861952
0.4121621336
0.4123269304
0.4093764845
0.4094294188
0.4112506432
0.4107085136
0.4135991114
0.4145486125
0.4179095822
0.4147871119
0.4096323135
0.4091372262
0.4078364879
0.407736941
0.4109958979
0.4113919107
0.4115178588
0.4123044299
0.4093545952
0.4100256853
0.4120666273
0.4163370295
0.4144868944
0.413097597
0.4091248175
0.4076940888
0.4089655719
0.4090253112
0.409615811
0.4110286317
0.4133801375
0.4143171009
0.4133643561
0.4139869724
0.4116653783
0.4164727953
0.4120694401
0.4130393803
0.412570029
0.4134080173
0.4120077773
0.4135314378
0.4135143017
0.414137844
0.413379291
0.4123751219
0.4086423272
0.4102355543
0.4097018873
0.4112050765
0.4128525661
0.4127961817
0.4121044213
0.4126842366
0.4158837172
0.4171543105
0.4161743702
0.4153570497
0.4116446913
0.4104789972
0.4120349452
0.4130967598
0.4122078334
0.4163261422
0.4177953297
0.413792453
0.4104609931
0.4091510047
0.4118588679
0.412887748
0.4113648673
0.4079085244
0.4082688566
0.4101534051
0.4139530415
0.4141917716
0.4133219985
0.4135477502
0.4149465965
0.4138477832
0.4126358457
0.4110669138
0.4134084008
0.4111749209
0.4112707966
0.4140809131
0.4147264761
0.410810191
0.4040759615
0.4033114234
0.4058044756
0.4070593493
0.4082127656
0.408892703
0.4093741267
0.4138486001
0.4114891452
0.4105399432
0.4113310203
0.4119412285
0.4130123424
0.410464229
0.4116619052
0.4100152447
0.4094123393
0.4070355175
0.4069710832
0.4092066459
0.4107151328
0.4102327966
0.4089416412
0.4094287365
0.4127963024
0.4101535749
0.4136480981
0.4119689637
0.4121805302
0.4129294617
0.4124677531
0.4146933753
0.4129697916
0.4134123164
0.4131328051
0.4128002386
0.4099642009
0.4113432268
0.4119832247
0.4123239954
0.410934666
0.4151802076
0.4148553981
0.4124509542
0.4105239374
0.4127114614
0.4130917908
0.4136877127
0.4141148319
0.4138098339
0.4121394374
0.4119325664
0.4139259093
0.4124671293
0.4118063944
0.4136107075
0.4143409932
0.4133595526
0.4127308659
0.4105961236
0.4148705858
0.4140980539
0.4164422616
0.4161229346
0.4142594378
0.4121697777
0.4141062212
0.4098927696
0.4090659785
0.4109529092
0.4100742296
0.4143220227
0.4171713551
0.4176358598
0.4150203645
0.4141616964
0.4154616171
0.4133521375
0.4155207124
0.4174582709
0.4145095679
0.4124835263
0.4127640721
0.4133489157
0.4142264585
0.4146008857
0.4127379829
0.4142790661
0.4138827619
0.4126891353
0.4112683941
0.4110467639
0.4110688384
0.411171499
0.4137063291
0.4153120031
0.4136016494
0.4128219761
0.4132064199
0.4121849689
0.4142789379
0.4138602438
0.4168271466
0.4178082984
0.4147156389
0.415819674
0.4169753827
0.4103186638
0.4130692325
0.4127879846
0.412899536
0.4111091037
0.4092124458
0.4094593369
0.4086325892
0.4104346341
0.4127696648
0.410545996
0.4129066695
0.4119357852
0.4127333314
0.4127966212
0.4101569558
0.4104036394
0.4127636379
0.4149041766
0.4147627982
0.4113930274
0.4137280289
0.4138895239
0.4121961349
0.4115842748
0.41140131
0.4128359038
0.4144588675
0.415105701
0.4129346349
0.4111234048
0.4120255766
0.4123615361
0.413644407
0.4142075768
0.4138647754
0.4128129496
0.4130044149
0.4115656535
0.4092740905
0.4121760586
0.4127950835
0.413663508
0.4100220377
0.4072470649
0.4057751157
0.4089817113
0.4095977517
0.4107331139
0.4112124679
0.4103325283
0.4104531949
0.4112468973
0.41147137
0.413333664
0.4133185414
0.4150497589
0.4123562252
0.4119314522
0.4122818632
0.413299683
0.4134054157
0.4117649745
0.4103758129
0.4115054475
0.4140238479
0.4114787992
0.4082201175
0.4109855895
0.4121717745
0.4120020195
0.4150041193
0.4137066217
0.4103204482
0.4139216813
0.4165700989
0.4164638342
0.4120949325
0.4123621147
0.4134857643
0.4098013719
0.4109937599
0.4129396578
0.4115634334
0.4126630757
0.4115996888
0.413636065
0.4172786318
0.4132211066
0.4131560786
0.4147415871
0.4139459649
0.4122840319
0.4119848878
0.411673801
0.4099464319
0.4067001911
0.4114385191
0.4104443519
0.4121896744
0.4115495996
0.4107840493
0.4104003193
0.4143585463
0.4112909854
0.4112137128
0.4126229256
0.4145354406
0.4148682319
0.412766312
0.4118346031
0.4100770112
0.4090135406
0.4078895616
0.4127085259
0.4167449907
0.4164582902
0.4146584116
0.4121017231
0.4126373449
0.407187085
0.4098889095
0.4105327999
0.409812624
0.4118263037
0.4103599718
0.4071936257
0.4087902143
0.4112500369
0.4123561578
0.4128206419
0.4139557639
0.4134583559
0.4141426615
0.4140490331
0.4141869662
0.4099414537
0.4116199805
0.4103128416
0.4065306914
0.4124923705
0.4087815661
0.4113688511
0.4151745921
0.4105865025
0.4088157535
0.4095050747
0.4118921605
0.4110868155
0.4122954314
0.4138241374
0.4140700205
0.4160106619
0.4143035721
0.4105451227
0.4097803509
0.4115739437
0.4100127212
0.4127948538
0.4139125799
0.4103866337
0.4115211191
0.4109682899
0.4107765539
0.4150007173
0.4157980415
0.4133807219
0.4139412115
0.4115234722
0.4118245937
0.4128768223
0.4158516818
0.4154434076
0.4152489844
0.4136068351
0.4098633903
0.4130032168
0.4128732311
0.4128461923
0.4088455169
0.4117727102
0.4115937187
0.4142764008
0.4147534365
0.4128930397
0.4119082659
0.4138059001
0.4124982623
0.4133789781
0.41161451
0.4141249583
0.4161684682
0.4157651549
0.4161021433
0.4165658355
0.4153496361
0.4132458566
0.4143814511
0.4138848956
0.4132893432
0.4098343085
0.4125556229
0.4137795405
0.4140427026
0.4157806943
0.417374532
0.413746922
0.412932923
0.4103482183
0.4137666792
0.4142009193
0.4140697005
0.4141069633
0.4156855996
0.4159290538
0.4163515657
0.4169054501
0.4153844166
0.4131778531
0.4121639752
0.4131494465
0.414692601
0.4136914694
0.4140443012
0.4130711693
0.4135651342
0.4155486414
0.4156774155
0.4151316761
0.4140217997
0.4138939738
0.4117865712
0.4143574592
0.4133118173
0.4164099763
0.4164026038
0.4144683677
0.4135661747
0.413858758
0.4129648809
0.4129985179
0.4103336731
0.4100261454
0.4119404285
0.412182145
0.4164789197
0.4151727073
0.4159629093
0.4168078391
0.4168965228
0.415499357
0.4146387029
0.4113070594
0.4119862611
0.4105930114
0.4114410594
0.4133927523
0.415890462
0.4125444892
0.4127005653
0.4135270029
0.415805235
0.4160296556
0.415973653
0.4174101857
0.4129181909
0.4139364715
0.4111117041
0.4110219566
0.4092755106
0.4085337721
0.4087602896
0.4110788941
0.4136542285
0.4146060796
0.4124622785
0.414524214
0.4158160455
0.4140616839
0.4135249931
0.4122062443
0.4113530015
0.4131287075
0.4126524431
0.4110580443
0.4114799542
0.411451894
0.4104844666
0.4119181627
0.4112950951
0.414828867
0.41120467
0.4107333436
0.4088576861
0.4087376795
0.4114830619
0.4109337639
0.410657155
0.412900039
0.410425298
0.4135924789
0.4144134446
0.4125689482
0.4104159277
0.4111469709
0.4152243659
0.4133635886
0.4148502131
0.4148886415
0.4160659826
0.4170408329
0.414896896
0.4124356461
0.4139260065
0.4136787816
0.4136211918
0.4115622925
0.41416971
0.4156343405
0.4123135641
0.4124686596
0.4136486262
0.4133350653
0.4127699105
0.4122448918
0.4113688851
0.4096739203
0.4091411695
0.4135998071
0.4109495631
0.4126919998
0.41332475
0.412728883
0.4096729247
0.4077764174
0.4086100077
0.4101717827
0.4087702574
0.4082911645
0.4132412907
0.4086790488
0.4057292886
0.4086507259
0.4125675616
0.4126917116
0.4138826102
0.4129425298
0.4096526333
0.405789951
0.4082627115
0.4085841175
0.4096494765
0.410215044
0.4101406565
0.4095098714
0.4086706055
0.4109348554
0.4114739338
0.4113944142
0.4099603903
0.4132198211
0.4108961888
0.4098647942
0.4105059208
0.4122394704
0.4165628575
0.4133099115
0.4129525919
0.4155275032
0.4161294449
0.4146137338
0.4118806336
0.4079108367
0.4071514313
0.4085469866
0.4100689321
0.4076803149
0.409478117
0.411435667
0.414070057
0.4149338995
0.4130958592
0.4105140773
0.4127023904
0.4138418256
0.4135058303
0.4112789465
0.412639581
0.4105960274
0.4105682728
0.4138841336
0.4137259949
0.4152161338
0.4166823166
0.41487344
0.4153714276
0.4173809188
0.4182108305
0.4131604907
0.4141511963
0.4141019101
0.4140614971
0.4146893023
0.4153090674
0.4132364666
0.4120632204
0.4125410565
0.4130605335
0.4125104474
0.4128928356
0.4080360807
0.4102016116
0.412550593
0.4149038788
0.4132707504
0.410720004
0.4133015609
0.411576898
0.4134360588
0.4131663777
0.4122759834
0.4109778583
0.4090090022
0.4093194096
0.411536482
0.4138175284
0.4118232379
0.4112427346
0.4100659252
0.4146642063
0.4155000615
0.4160625111
0.4133475014
0.4110385864
0.4124531617
0.4110036448
0.4098159146
0.410463477
0.4114970544
0.4132106753
0.4110000969
0.4114377155
0.4163933546
0.4161038094
0.4141743322
0.4132077895
0.4120083047
0.41293682
0.4147370744
0.4104982661
0.4125291392
0.4106743099
0.41173159
0.4113289688
0.410961992
0.4111301867
0.4143260728
0.4158552803
0.4163823154
0.4131934126
0.4147574876
0.4164603817
0.4143329403
0.413334093
0.4144746603
0.4172509982
0.4158220131
0.4112900559
0.4096801144
0.4113827564
0.410827738
0.4108744884
0.4097602108
0.4081970274
0.4109411027
0.4139111514
0.4148242129
0.4150409639
0.4137479313
0.413751625
0.4136032038
0.4111484461
0.4090498621
0.4115673557
0.4134315488
0.4127058544
0.4122106509
0.4128703127
0.4129427133
0.4120902786
0.4139876574
0.4133556372
0.4111840294
0.4125279733
0.4103526949
0.4116435993
0.4104518029
0.4113211543
0.4141584581
0.4139501319
0.4135533483
0.4155266512
0.4149030685
0.4148258626
0.4132891192
0.411993054
0.4152621426
0.4161078907
0.4157562433
0.4123123034
0.4125155727
0.4113091733
0.4131756927
0.414437609
0.4158268759
0.4123108897
0.4116187132
0.4115132503
0.4112499815
0.4103403977
0.4148865195
0.414518614
0.4129759375
0.4123925975
0.4129672397
0.4120226113
0.4108106035
0.4100714266
0.4128459734
0.4129801425
0.4137362153
0.4153276712
0.4129813183
0.4129605879
0.4138850022
0.4151718869
0.4137332435
0.4124099124
0.4142373375
0.4146432619
0.4096937905
0.4105618527
0.4120378816
0.4107251038
0.4117522476
0.411489344
0.4126842668
0.412142898
0.4103023068
0.410702331
0.4126552811
0.4135479083
0.4162401653
0.4164743186
0.4111993925
0.4124471113
0.4119836632
0.4137066228
0.4133744169
0.4149305361
0.4082095204
0.4098097252
0.4124359012
0.4115204598
0.4109404862
0.4132850706
0.4113150512
0.4132227995
0.4116095812
0.410923055
0.4114976905
0.4125756896
0.4110729593
0.4101173977
0.4125132774
0.416399776
0.4135097507
0.4105696157
0.4102063327
0.4084402221
0.4163446177
0.4143974657
0.4139168221
0.4111942757
0.4092257553
0.4052225209
0.4054658732
0.4099742457
0.4115822253
0.4087310097
0.4113702148
0.4120072405
0.4144203691
0.4160593125
0.4164198336
0.4126473828
0.411239302
0.4105790832
0.4162303809
0.4170330067
0.4096902112
0.4112563707
0.4131062171
0.4125315041
0.4121703085
0.4119901272
0.4124305909
0.4110408214
0.411297741
0.4138434995
0.415011492
0.4121721507
0.4119650712
0.4125964131
0.4133860658
0.4111323647
0.4137783137
0.4094600537
0.4082054355
0.4093783453
0.4131819628
0.4122999819
0.4138265761
0.4143318883
0.4118564279
0.4120422861
0.4128169524
0.4092199783
0.4083275212
0.4098212487
0.4098870372
0.4108218639
0.4137213559
0.410099367
0.4103417774
0.4100740986
0.4098561714
0.4119354054
0.41113053
0.4131904876
0.4139052665
0.414218006
0.4117579328
0.4096741821
0.4131267892
0.4156951436
0.4120864604
0.4128355521
0.4095898527
0.4104550248
0.409794059
0.4120486104
0.4088227604
0.4100813359
0.4135016982
0.4147183593
0.4131624583
0.4124285427
0.4151612832
0.4155324276
0.4165266493
0.4152103786
0.4150829488
0.4173884641
0.4155980974
0.4143425092
0.413404108
0.4118616424
0.4105491639
0.409718702
0.4081274121
0.4119088756
0.4123273154
0.4094438114
0.4100942
0.4110904203
0.4122212923
0.4112407259
0.4125765136
0.4131946025
0.4090286363
0.4108177756
0.4128090683
0.4128052129
0.4140718565
0.4123687786
0.4141594902
0.4133645516
0.4101569026
0.4114325078
0.4143248492
0.4105602254
0.4091278717
0.4135070478
0.4122893752
0.4095003493
0.4095728579
0.4101179202
0.4102281175
0.4091808307
0.4081982298
0.4099865906
0.4101298886
0.4123196345
0.4091297224
0.4086955941
0.41108667
0.4105919993
0.4107601137
0.4108695402
0.4100682398
0.4126420132
0.4133342097
0.4135925496
0.4148851543
0.4138568757
0.4112681241
0.4122946511
0.4089109737
0.407930403
0.4097092208
0.4103045207
0.4102662576
0.4098480065
0.4116997938
0.4115838132
0.4113043514
0.4099531305
0.4093479017
0.4115930681
0.4136733632
0.4147761759
0.4121552978
0.4094907837
0.4095466012
0.410087166
0.4111525024
0.4120992144
0.4108710655
0.4094396364
0.4131630075
0.4113800213
0.4115932083
0.410324373
0.4094557402
0.4097667775
0.4131918294
0.4116954478
0.4127007433
0.413208055
0.4138663411
0.4126428957
0.415979657
0.415543911
0.4126379568
0.4128630032
0.4124386269
0.4108011643
0.412041546
0.4150793023
0.4170000727
0.4182920519
0.4132275005
0.4149706812
0.4137595485
0.414078786
0.411099345
0.4098593128
0.4101046729
0.4109206026
0.4094048104
0.4101497139
0.4124855628
0.4136544613
0.4172898697
0.4143514386
0.4134243591
0.4113284344
0.4101825637
0.4138342152
0.4136085237
0.4154081931
0.4190845278
0.41951047
0.4185359073
0.4153325044
0.4140305655
0.4159017336
0.4130790232
0.4115251782
0.4105859554
0.4080938862
0.4103530071
0.4128909277
0.4120488899
0.4105203421
0.4126547263
0.4127262482
0.4141820365
0.414485414
0.4139224429
0.4113322965
0.4129027474
0.4128639499
0.4098188406
0.4121294006
0.4123993905
0.4136747403
0.4158103483
0.4183479857
0.4158850347
0.4131754589
0.4129697711
0.4146169155
0.4161165095
0.4163202215
0.4120007451
0.4132090486
0.4118519522
0.415312681
0.409970654
0.412023775
0.4120785931
0.4136416169
0.4164108403
0.419046772
0.4192958995
0.4156124977
0.4100985243
0.4105235568
0.4104823554
0.4125507582
0.4132679254
0.4119705371
0.4079571058
0.4082571759
0.4088516459
0.4116060215
0.4125285341
0.4117355041
0.410831877
0.4100960415
0.4106527911
0.4116625701
0.4116945497
0.4095585358
0.4137533882
0.4116006696
0.4132368754
0.4129043862
0.4125463521
0.4131204284
0.4124894014
0.4113597123
0.4107929219
0.4102905999
0.4111588259
0.4110876446
0.410938917
0.4106114388
0.4163076656
0.4138021526
0.4139457544
0.4152766829
0.4145349984
0.411476204
0.4127834584
0.4125235827
0.4135237697
0.4131895713
0.4118802726
0.4134180378
0.4133603938
0.4134324285
0.4131290029
0.4124732879
0.4136101147
0.4154682494
0.4153665433
0.4151044346
0.4138491314
0.4140971389
0.4117110924
0.4088268813
0.4103184634
0.4086623877
0.4104833673
0.4123366649
0.4123608754
0.4135306491
0.4155320166
0.4134845374
0.4138632993
0.412259771
0.4148913496
0.4138617109
0.4142314694
0.4125546637
0.4108496658
0.4122315989
0.413539385
0.4141761153
0.4104049289
0.4137026056
0.413995444
0.4133254385
0.4115532913
0.4114381422
0.4113054119
0.4119949725
0.4124298045
0.4127884687
0.4154288618
0.4119047231
0.4107461688
0.4112032626
0.4088249089
0.4120460037
0.4114460841
0.412790142
0.4143229803
0.4108646984
0.408412357
0.409230837
0.4108218277
0.4102930747
0.4131483978
0.4160805304
0.4161314324
0.415289384
0.4149915061
0.4136162795
0.4117811189
0.4108785053
0.4102232962
0.4083383344
0.413719063
0.4121613545
0.4127590206
0.413797561
0.4088377517
0.4093523303
0.412035071
0.4109660499
0.409939467
0.4088954165
0.4127527478
0.4145523195
0.4170650229
0.417254581
0.4148658024
0.4149657507
0.4137081714
0.4127790403
0.4119940464
0.4138610376
0.4122778047
0.4121693242
0.410697396
0.4095097974
0.4120709678
0.4120567399
0.4138359742
0.4141312565
0.4121208848
0.4092103215
0.4097956483
0.4111387482
0.4088212924
0.4088231411
0.4074026923
0.4088386782
0.4112237616
0.4170607198
0.4163667195
0.4156494704
0.4144149627
0.4137193744
0.4138198468
0.4135829809
0.4154850354
0.4148210664
0.4137676636
0.4117284593
0.4130610999
0.4112871518
0.4092344903
0.4140218318
0.413932089
0.4124219934
0.4102011377
0.4100004411
0.4109461842
0.4110792643
0.4130092315
0.4130960159
0.4100898815
0.4109066404
0.412856961
0.4159632258
0.4096261864
0.4084865912
0.4093111837
0.4113924549
0.4098433131
0.409349126
0.4123022626
0.4121525372
0.4170502459
0.4167211299
0.4160660773
0.4165660302
0.4159793407
0.4143711141
0.4141663958
0.4117534829
0.4127517497
0.4114144803
0.4104066484
0.4119505344
0.4162502088
0.416841432
0.4145290013
0.4122467009
0.4138615107
0.4156080001
0.4139475066
0.41566037
0.4176262347
0.4160259135
0.4133645309
0.411649657
0.4117688164
0.4127528375
0.4103596323
0.4109309014
0.408369984
0.4083979045
0.4107151796
0.4142775479
0.4123707744
0.4114837352
0.4121487445
0.411850197
0.4145924157
0.4157536061
0.4163638799
0.4171419538
0.4155018823
0.4134725361
0.412272256
0.4124560351
0.4114518248
0.4136820006
0.411194762
0.413581762
0.4145405766
0.4149556521
0.4135539849
0.4133072029
0.4118459548
0.4103976167
0.4117065379
0.4096753573
0.4123893625
0.4114986224
0.4131563664
0.4146084129
0.4155870629
0.417586439
0.414730508
0.4175950493
0.4199880722
0.4204574935
0.4171439885
0.4160632782
0.4150074192
0.4135533896
0.4156052277
0.4144354065
0.414077554
0.4124707924
0.4109657435
0.4094747537
0.4070820613
0.4075048537
0.4096152964
0.4105799939
0.410402585
0.4123238159
0.4135809003
0.4148261365
0.4132324346
0.4107931167
0.4101187677
0.4131786224
0.4141395805
0.4154472001
0.4154492697
0.4146578914
0.4142962884
0.4125123684
0.4111341532
0.4106365784
0.4125040394
0.4145537959
0.412116959
0.4120714296
0.4129656502
0.4127583034
0.4136227934
0.4096624623
0.4052461832
0.4064044081
0.4100332973
0.4122474343
0.4129305382
0.4122458051
0.4116954523
0.4122910006
0.414272652
0.4148990997
0.4131637772
0.4123080414
0.4136779056
0.4127791929
0.4139449981
0.4149148551
0.4123473148
0.4106244238
0.4110185564
0.4150519323
0.4135378042
0.4124367553
0.4116190467
0.4112794727
0.4127380883
0.4120544997
0.409622967
0.4113178733
0.4063179152
0.4085534607
0.412964768
0.4156077291
0.4122934977
0.4099331009
0.411214922
0.4151104004
0.4157393589
0.4155938211
0.4139839954
0.4112177887
0.4095529379
0.4107231464
0.4151519224
0.4126674237
0.4086626743
0.4099968397
0.4106627152
0.4075189795
0.4125835723
0.4115184062
0.4095105611
0.4082312296
0.4105641815
0.4095676319
0.4091240449
0.4110586945
0.4103388132
0.4118591926
0.4120530914
0.4142590788
0.4149270162
0.4169515442
0.416357809
0.4208234092
0.4168684121
0.4144041961
0.409362449
0.411218319
0.4119848038
0.4120578246
0.4130163529
0.4124589391
0.4110350282
0.4149213807
0.4129580913
0.4155944335
0.4149855014
0.4160657207
0.4150997982
0.4168070509
0.4156781064
0.4152416429
0.4146436368
0.4130657098
0.4150079095
0.4152542333
0.4162021044
0.4115565645
0.4144817936
0.4135712523
0.4145771283
0.4168305702
0.4142490784
0.4127957042
0.4136275179
0.4157546346
0.4181956868
0.4191581676
0.414694356
0.4163786842
0.4128168631
0.4154883832
0.4116618101
0.4121001244
0.4081784338
0.4105134994
0.4139835135
0.4141932551
0.4091685993
0.4114551179
0.4143734047
0.4142591997
0.4143633884
0.4178222097
0.4179218206
0.4159726913
0.4130774081
0.4126338764
0.4108106915
0.4078754264
0.4099508623
0.4146021343
0.4133750603
0.4132187668
0.4132284731
0.4131956075
0.4132627192
0.4116785163
0.4102923841
0.4097519306
0.4100326359
0.4114695296
0.416244334
0.4156529656
0.4149764219
0.4122420248
0.414542551
0.4152154531
0.4139300203
0.4151161855
0.4162455901
0.4134597296
0.4133887134
0.4136394933
0.4130647481
0.4120843442
0.4127645479
0.4117721731
0.4112386352
0.4081967851
0.4086290035
0.4094017942
0.411221239
0.4154957888
0.4144061708
0.418316437
0.4173701751
0.4150317362
0.4161592406
0.4162264152
0.4153231058
0.4141449851
0.4152476936
0.4148288375
0.4127284405
0.4143369465
0.4120497866
0.4109572711
0.4110807634
0.4117971336
0.4108267596
0.4099821975
0.4112714347
0.4130735068
0.4151803146
0.4166297285
0.4157399311
0.4149360308
0.4169685605
0.4139857021
0.4139008414
0.4105089737
0.4121323064
0.412123217
0.4112552793
0.4117070648
0.4125267364
0.4103306806
0.4122789832
0.4125823679
0.4142954862
0.4149495668
0.414346338
0.4128214146
0.4111782349
0.4089826399
0.4085099762
0.4085563731
0.4100558937
0.4107061309
0.4120571217
0.4117039563
0.409438118
0.4122302644
0.4147885775
0.4122774461
0.4109799988
0.4110295504
0.4120571836
0.4111330427
0.411422437
0.4143952034
0.4134558821
0.4156049716
0.4137643075
0.4111523369
0.4097718344
0.411269407
0.4118626941
0.4097471142
0.4123488145
0.4115519148
0.4144437288
0.4182262913
0.4143644743
0.4126509783
0.4128087033
0.4130636025
0.4121249837
0.4124745388
0.4123773385
0.4117660557
0.4115331903
0.4137081549
0.4150109141
0.4133664292
0.4129434084
0.4116759464
0.4119593433
0.4120451466
0.4127763885
0.413214442
0.4111962169
0.4097622425
0.4101124661
0.4123691139
0.4104099706
0.4092356099
0.411872815
0.4167698092
0.4176011267
0.4181043394
0.4156637383
0.4135416232
0.4114249135
0.4134637789
0.4133227165
0.4134006195
0.4141671411
0.4148727403
0.41275703
0.4093671624
0.4127732791
0.4137753273
0.4126659135
0.4128180012
0.4129094105
0.4128113383
0.4171288514
0.4162615815
0.4136624098
0.4120652402
0.4145175571
0.414584763
0.4137589248
0.4103266708
0.4103594785
0.4112794206
0.4151955083
0.4170707862
0.4142291952
0.4143822847
0.4141926683
0.4155921111
0.416485346
0.4183801125
0.4163024695
0.4155202601
0.4153081456
0.4143480115
0.4150848252
0.4139349927
0.412247904
0.4110321475
0.4100189025
0.4118646721
0.4106291083
0.4088790291
0.4091882608
0.4096886223
0.4130365034
0.4157149934
0.4207963453
0.417174586
0.4153045033
0.4161909239
0.4172324235
0.4169929537
0.4130634962
0.4115314559
0.4105002036
0.4118415316
0.4123369599
0.4117906324
0.4154001282
0.4149796222
0.4159303215
0.4144597948
0.4130509557
0.415350297
0.416035689
0.4141480903
0.4148687178
0.4167561678
0.415392975
0.4148311354
0.4155096292
0.4127467318
0.4098620089
0.411486036
0.4125158737
0.414159336
0.4148579011
0.4166078897
0.4140369368
0.4160887479
0.4157676381
0.4151919463
0.4150739244
0.4151321734
0.4186014592
0.417404515
0.4138726666
0.4098759077
0.4118601848
0.4116252397
0.4121755026
0.4101287778
0.4147914974
0.414035246
0.4126496342
0.4109293609
0.4115066086
0.4110349141
0.4112780222
0.4110096885
0.4114075701
0.4142284887
0.4111765082
0.4122017985
0.4123329856
0.4122971461
0.4119473673
0.4143722165
0.4140113346
0.4142987357
0.4166249754
0.4163996389
0.4142649747
0.4091871522
0.4098713931
0.4110127722
0.4113321438
0.4157356275
0.4139205112
0.4132516616
0.4147794168
0.4169577858
0.4163549725
0.4124624854
0.4140118365
0.413012809
0.412646161
0.4113839906
0.4100965218
0.4149946589
0.4164550062
0.4162989745
0.4183581317
0.4176520419
0.4152049078
0.4131901673
0.4140345123
0.4131551594
0.4134940893
0.412261373
0.40856129
0.4099633221
0.4126628548
0.4155575783
0.4148219066
0.4119029348
0.4136989452
0.4164319763
0.4127118087
0.4093790299
0.408585764
0.414427843
0.4100395136
0.412983943
0.4135641732
0.4126676598
0.4163506736
0.4141149238
0.4144861957
0.4114729733
0.4125818561
0.4139394817
0.4125607549
0.4118720101
0.4110210774
0.412908285
0.4107948952
0.411374566
0.4121525287
0.4134659793
0.4139161662
0.4116752416
0.4167482317
0.4161327013
0.4151796307
0.4150831072
0.4153255777
0.4112563987
0.4114320781
0.4102243628
0.4068333171
0.4052796372
0.408030008
0.408324113
0.4083057237
0.4072810965
0.4104479018
0.4113163151
0.4117829833
0.4129555145
0.4109572109
0.4164475512
0.4153596676
0.419319372
0.4181755586
0.4162632873
0.4118435417
0.41429314
0.4117629202
0.4120903281
0.4130719201
0.4118623334
0.4102109696
0.4099805833
0.4100271463
0.4096694741
0.4071859332
0.4084886817
0.412162802
0.4123084347
0.4121918442
0.4120058909
0.4137874255
0.4145170516
0.4193430327
0.4156826055
0.4124947048
0.4099099838
0.4122909337
0.4131473516
0.4129645328
0.4152325215
0.4153996866
0.4154490795
0.413327275
0.4114397527
0.4120833634
0.411150451
0.4114943485
0.4123041267
0.4131351095
0.4123283739
0.4120673646
0.4125013479
0.4126430912
0.4159218269
0.4176119024
0.4172865796
0.4165989447
0.4116319979
0.4133038324
0.4128591522
0.4124347767
0.4101881813
0.4127527873
0.4145577343
0.4134939666
0.4115988435
0.4139210821
0.4108997519
0.4126320071
0.4108395139
0.4178655001
0.4188144245
0.4181297496
0.4169562483
0.4159193465
0.4145410736
0.417312815
0.4142120895
0.411878829
0.413919879
0.4131368581
0.4159612308
0.4125092813
0.4123996402
0.4105103024
0.4096818027
0.4105057773
0.4125344456
0.4137480964
0.4156406126
0.4143874712
0.4156403414
0.4155600501
0.4129954802
0.4133925834
0.4138476455
0.4124695098
0.4123977686
0.4107744943
0.4088347383
0.4110242192
0.4123040196
0.4128591094
0.4155308831
0.4152803692
0.4125782534
0.4143843644
0.4157333233
0.4144422057
0.4123876586
0.4127842742
0.4117773754
0.412822735
0.4143035258
0.4128626627
0.412780695
0.4144304408
0.4134743371
0.4149143255
0.4161049305
0.4160785307
0.4163901365
0.4147605352
0.4111031463
0.4117304121
0.4148937855
0.4134698126
0.4121230264
0.4127885037
0.4141301432
0.4123616338
0.4160798758
0.4164885223
0.4181590442
0.4189567528
0.416604229
0.4135897428
0.4144291449
0.4120332196
0.4129933517
0.4148988371
0.4126137159
0.4129894924
0.4147355936
0.4150036869
0.413791821
0.415029126
0.4122390353
0.4138859835
0.4107411548
0.4162413123
0.415099492
0.4143284569
0.4144603734
0.4138305181
0.4128218921
0.4138306218
0.4144143111
0.413752296
0.4146214146
0.4182074038
0.4150918895
0.4157904178
0.4128689195
0.4094289015
0.4139628529
0.4183230013
0.4142949302
0.4127877138
0.4160260668
0.410938349
0.4101894879
0.4104490605
0.4089247197
0.4099521482
0.4120482043
0.4120261175
0.4123458461
0.413712228
0.4137951289
0.4126782623
0.4137676339
0.4130238289
0.4139741206
0.4118553691
0.4122265537
0.4109691452
0.4120751769
0.4121183273
0.4104025416
0.408248527
0.4090957111
0.4111219105
0.4099617904
0.4092140799
0.41203769
0.4138655983
0.4136430325
0.4118540095
0.41217064
0.4149031322
0.4152950301
0.4159153227
0.4139409021
0.411280877
0.4116393577
0.4138631
0.4163694745
0.4114692808
0.4102827409
0.4125338068
0.4109244493
0.4120750686
0.4124904315
0.4126580072
0.4111948495
0.4101335099
0.4119603105
0.4129053773
0.4153320405
0.4163606487
0.4152677985
0.4132918188
0.4151560892
0.4148435093
0.4169290319
0.4168947699
0.4110318458
0.4122652349
0.4150652791
0.4161303271
0.4149447835
0.41531322
0.4149061316
0.4125971073
0.4104260233
0.4095026485
0.4101264727
0.4090100427
0.4081889232
0.4087601285
0.4107236611
0.4127600705
0.4153206535
0.4155072864
0.4145684931
0.4158753205
0.4169114755
0.4142966366
0.414415432
0.4137887424
0.4143279477
0.4147200716
0.4135745451
0.4154550117
0.4143549208
0.4161742037
0.4114237207
0.4128795031
0.4136523055
0.4117630419
0.4124253112
0.4117676053
0.4129578387
0.4138678067
0.4154985676
0.4135511051
0.4140513438
0.4121391167
0.4134011306
0.4056772181
0.4080793252
0.4077499308
0.4063346763
0.4066851949
0.408727547
0.4084575343
0.4126367204
0.4131498795
0.4123036506
0.4127340502
0.4112592711
0.4137552453
0.4132981254
0.4128633332
0.410171736
0.4095737781
0.4095259502
0.4104449853
0.4068822941
0.417615099
0.4168509885
0.4164167953
0.4179668002
0.4191534659
0.4160866804
0.4102800251
0.4091769455
0.4112508678
0.4087954649
0.4104827257
0.4114095969
0.4131503932
0.4105250387
0.4097353741
0.4093817952
0.4086949134
0.4115927704
0.4135989267
0.4155403358
0.4132968494
0.4126898558
0.4153301675
0.4166908022
0.4140518112
0.4140900568
0.4159567773
0.4171205958
0.4136949878
0.412399985
0.4126143144
0.4119874853
0.4107006723
0.4118752965
0.4139737761
0.4144104499
0.4175331434
0.417124897
0.4149418056
0.4147910736
0.4121577284
0.4123300345
0.412181371
0.4122604982
0.4131708849
0.4111917427
0.4113893846
0.4110856595
0.4129096979
0.4122505561
0.4113850807
0.4099132922
0.4083208879
0.4114651194
0.4138787772
0.4143400501
0.4123414488
0.4120526496
0.4134875032
0.4132969066
0.4122273989
0.4123842333
0.4078272582
0.408531808
0.4119915881
0.4121882343
0.4126315226
0.4102798617
0.4093293653
0.4125285637
0.4150674858
0.4161782119
0.4142930146
0.4137447101
0.4104508546
0.4127297043
0.4132687798
0.415203837
0.4131737612
0.413687362
0.4074661524
0.4065444603
0.4077148778
0.4069951839
0.4089497143
0.4091549082
0.4097081572
0.4118282929
0.4124849338
0.4106380579
0.4112508877
0.4132553156
0.414836886
0.4159192891
0.4164491428
0.4170275419
0.4136783696
0.4112911857
0.4138818744
0.4090776071
0.4109903422
0.4114641334
0.4119303385
0.4136109398
0.4131360141
0.4127184951
0.4111667642
0.4156444392
0.413154949
0.4141060649
0.4154815974
0.4122081329
0.411675203
0.4127205302
0.4142097036
0.410815982
0.4097900606
0.4101215674
0.411804592
0.414501327
0.4101781948
0.4076153347
0.4073420758
0.4124428103
0.4125476619
0.4135638111
0.4148075501
0.4136838559
0.4152582074
0.4118210881
0.410880689
0.4102173654
0.4134143216
0.4135733752
0.4135100159
0.413438204
0.4128707613
0.4132722026
0.4105861516
0.4085992855
0.4164470376
0.4126672216
0.4130644437
0.4093971188
0.4081781047
0.4104213465
0.4130222825
0.4130302409
0.4128990144
0.4141998418
0.4154231487
0.4145986844
0.4141968214
0.4129398394
0.4140581526
0.4131496775
0.413462103
0.4141981555
0.4156340897
0.4167371906
0.4149175903
0.4140284625
0.4121125304
0.4116053597
0.4118269901
0.4124772986
0.4116493562
0.4132095861
0.4155267638
0.4142237935
0.4119170559
0.4110111215
0.4124772305
0.4191720327
0.4171922999
0.4152060244
0.4123141025
0.4134869096
0.4156634761
0.4160969172
0.4107117969
0.4114129781
0.4110705369
0.4139627821
0.4136074712
0.4140436809
0.4151437655
0.4161822215
0.4156706221
0.4114780596
0.4120316741
0.40930595
0.4114725073
0.4133032987
0.4144863677
0.4141062053
0.4156667219
0.4143564191
0.4129200504
0.4113709905