/*--------------------------------*- C++ -*----------------------------------*\
| =========                 |                                                 |
| \\      /  F ield         | OpenFOAM: The Open Source CFD Toolbox           |
|  \\    /   O peration     | Version:  v1706                                 |
|   \\  /    A nd           | Web:      www.OpenFOAM.com                      |
|    \\/     M anipulation  |                                                 |
\*---------------------------------------------------------------------------*/
FoamFile
{
    version     2.0;
    format      ascii;
    class       volScalarField;
    location    "0.01";
    object      p_N2;
}
// * * * * * * * * * * * * * * * * * * * * * * * * * * * * * * * * * * * * * //

dimensions      [1 -1 -2 0 0 0 0];


internalField   nonuniform List<scalar> 
5120
(
0.3234956057
0.3235348588
0.3235348777
0.3217765277
0.3222586626
0.321703455
0.3246178243
0.324783124
0.3256066106
0.3216380896
0.3225536281
0.3224354075
0.321442455
0.3193580479
0.3173557804
0.3168150899
0.3192648094
0.3216792898
0.3207040818
0.321183066
0.3194379968
0.3210827553
0.3235956952
0.3216497632
0.319182874
0.3208372025
0.3205186754
0.3189469929
0.3179218873
0.319478137
0.3193664959
0.3219546036
0.3221344829
0.3248451
0.3214223495
0.317840353
0.3153085261
0.3141392861
0.3150428032
0.3180634265
0.3196883757
0.3202024377
0.3211270493
0.317581468
0.3188214424
0.3212242522
0.3248677056
0.322636774
0.3204957345
0.3184124204
0.315321183
0.3163099352
0.3167284872
0.3188794891
0.319484164
0.3207254491
0.3213086411
0.3211737957
0.3218754931
0.3201526724
0.3228327138
0.319407852
0.3208245575
0.3214895311
0.3214346912
0.3199028101
0.3204830695
0.3203525356
0.3211141173
0.3208642316
0.3213808553
0.3180754712
0.3198992542
0.3179145171
0.3188013088
0.3195034646
0.3198949114
0.3190911173
0.3192161159
0.3218047785
0.323292408
0.3229911759
0.3217419395
0.318749319
0.3187584753
0.3198051347
0.3211552901
0.3204975714
0.3233440326
0.3248727226
0.3216323301
0.3195313323
0.3178108958
0.320641802
0.321805099
0.3199753029
0.3149866297
0.3157670575
0.3177792435
0.3212552486
0.321217347
0.3221386418
0.3231166381
0.322722977
0.3216153523
0.3207777956
0.3196891424
0.3210922325
0.3183757899
0.318694733
0.3203152288
0.3214304716
0.319323452
0.3132920597
0.31249092
0.3147578714
0.3156866847
0.3176416227
0.3176761511
0.3167997768
0.3212345304
0.3197390309
0.3185864858
0.3178661276
0.3201125511
0.3206338053
0.3179938376
0.3193932016
0.317052725
0.3165549223
0.3149168545
0.3164731701
0.3182045543
0.3195102202
0.3188343528
0.3172385366
0.3170391866
0.3197231633
0.3184698606
0.320392833
0.3213951562
0.3208551576
0.3209495254
0.3194054038
0.3225475535
0.322142783
0.3213045306
0.3212741911
0.3208218969
0.3188967031
0.3191209512
0.3202466217
0.3207224697
0.3194406552
0.3224185477
0.3230892101
0.3222694266
0.3194058977
0.319976603
0.3222951789
0.3208336637
0.3218053039
0.3224721244
0.320696029
0.3209309332
0.3217357943
0.3203589147
0.3203329848
0.3233415782
0.3239402653
0.3228415607
0.3213101251
0.3183344588
0.3211185592
0.321189222
0.3243567573
0.3237386503
0.3211047106
0.3203901958
0.3218835836
0.3187155828
0.3187626853
0.3193028335
0.3183052194
0.3216162327
0.323408661
0.3244189543
0.3219428537
0.3206369346
0.3227648441
0.3216161513
0.3217395073
0.323176892
0.3215638362
0.3204838342
0.3219467551
0.322781441
0.321995856
0.32222745
0.3206334791
0.3216236434
0.3213163818
0.3189224056
0.3187909614
0.3193928986
0.3198972703
0.3194301507
0.3208726739
0.3221853214
0.3193015537
0.3181402599
0.3201416471
0.3192235738
0.3214062077
0.3199077311
0.3230851236
0.3242647546
0.3230766487
0.3235457379
0.3234940188
0.3202430542
0.322064621
0.3219777931
0.3222050167
0.3199277859
0.3185202646
0.3179892785
0.3169504331
0.3187406642
0.3209884364
0.3188667677
0.320442156
0.3189165118
0.3191593928
0.3204504816
0.319003222
0.3192361468
0.3195922092
0.3202639476
0.3216122968
0.3186984507
0.3202980285
0.3199881475
0.318415426
0.3169566748
0.3182043063
0.3213358892
0.3242014509
0.3240366377
0.321361818
0.3208740829
0.3202276233
0.3196165245
0.3213132526
0.3216085923
0.3211492099
0.3202018886
0.3198073299
0.3188026144
0.3171874084
0.3207023587
0.3203696449
0.3208996309
0.3180812369
0.3167217597
0.3137012465
0.3164926414
0.3173634985
0.3184977707
0.3197687365
0.3185648362
0.3188767189
0.3205245273
0.3191013737
0.3203542002
0.3212085479
0.3224155996
0.3207305004
0.3193949419
0.3206302664
0.3209243716
0.3211498485
0.3199332226
0.31869102
0.3201886149
0.3229260241
0.3201691295
0.3178486208
0.3197818141
0.3203164044
0.3201856236
0.3226946176
0.3219810475
0.3191129077
0.3218725001
0.3249551888
0.3246546765
0.3208423461
0.3212505442
0.3205916572
0.3181123149
0.3215458613
0.3235278539
0.3212547906
0.3223371362
0.3213143409
0.3233075205
0.3256014281
0.3229362143
0.3231956448
0.3237966524
0.3236126044
0.3224663697
0.3224650618
0.3211515649
0.319051901
0.3167100828
0.3201883103
0.3192845603
0.3196447357
0.3219393658
0.3186126859
0.3177025104
0.3211297834
0.3200847424
0.3193447042
0.3203796938
0.3231367054
0.3243438743
0.3221999284
0.3208189674
0.318233106
0.3170268913
0.3157790948
0.3196843885
0.3226410922
0.321908271
0.3209318829
0.3203258039
0.3214341791
0.3167149594
0.3181804679
0.3187594203
0.3178890758
0.319261861
0.3179706311
0.3161684149
0.3178314608
0.3197671585
0.3211353826
0.3212389615
0.3224610228
0.3219564148
0.3219584006
0.3216039599
0.3222568439
0.3188775604
0.3198989323
0.3187701531
0.3156035666
0.3193294351
0.3165569758
0.3188072973
0.3219535062
0.3197422523
0.3173495747
0.3178002343
0.3206190194
0.3200110458
0.3196118268
0.3207701593
0.3206888852
0.3229918554
0.3227209445
0.3200312184
0.3187044908
0.3209568161
0.3190976691
0.3202275292
0.3211700749
0.3181858269
0.318840513
0.3188903254
0.3191168622
0.3226037808
0.3237995529
0.3217305549
0.3222690007
0.3199453808
0.3193558462
0.3199729715
0.3217388415
0.3219147573
0.3230397203
0.3226726676
0.3199221002
0.3223819359
0.3222881686
0.3206346092
0.316785377
0.3201107939
0.3202880247
0.3218302456
0.3218089315
0.3192412302
0.3183295934
0.3196640174
0.3189664495
0.3202872246
0.3195867678
0.3217589605
0.3228724966
0.3224767112
0.3221745591
0.3217523533
0.3208219571
0.3203335416
0.3220287181
0.3217193212
0.3213334762
0.3192055877
0.3217504901
0.3230761142
0.3237929818
0.3237597023
0.3244683273
0.3216600688
0.3209399622
0.3186325016
0.3208217264
0.3228829185
0.3230131935
0.323097208
0.3240474614
0.3251037063
0.3243130191
0.3245292
0.3222233449
0.3211511828
0.321565681
0.3194287287
0.3210368626
0.3193360468
0.3195659541
0.3195173333
0.3202746881
0.3208423393
0.3207407019
0.3219452687
0.3212373432
0.3208767907
0.3193138848
0.3211747853
0.3212822557
0.3239065524
0.3241688255
0.3231949687
0.3219488225
0.3211377749
0.3188238601
0.3199774647
0.3174213381
0.3172016817
0.3210492306
0.3205317815
0.3230651356
0.3221980892
0.3233025101
0.3238990883
0.322645493
0.3210636192
0.3206422438
0.3189800924
0.3204228435
0.3195130236
0.3191745306
0.3206653989
0.3221031558
0.3208261788
0.3202208915
0.3209283976
0.3233529393
0.3232717133
0.3224666052
0.3235616933
0.3202750712
0.3215791113
0.3200341918
0.3187379409
0.317535134
0.3184068307
0.3191190822
0.3207275421
0.3223852565
0.3223179199
0.3196647694
0.3213428816
0.3230947389
0.3209174093
0.3205838335
0.320422606
0.3189533814
0.3204120503
0.3208070677
0.3202870363
0.3202694401
0.3197028125
0.3198132412
0.3210715836
0.3213247504
0.3232490428
0.3189494203
0.3189096436
0.3177424528
0.3166071723
0.3182778016
0.3162549326
0.3176121716
0.3210828527
0.318995322
0.3221091735
0.3232572564
0.322352559
0.3203351644
0.3203125698
0.3225683648
0.3215572728
0.3219535828
0.3215153243
0.3232299189
0.3233851729
0.3217379497
0.3199064746
0.3218552049
0.3214867336
0.3211796519
0.3204355783
0.3228378243
0.3225650309
0.3210635557
0.3201389132
0.3214406978
0.3216275874
0.3195250683
0.3183705775
0.3182232312
0.3176665769
0.3177708458
0.3211984975
0.3194438775
0.3200788249
0.3207076072
0.3211251131
0.3182368188
0.3171468734
0.3194317354
0.3197283624
0.3178788674
0.3182568083
0.3214673597
0.3175643329
0.3157832769
0.3180531443
0.3207739581
0.3219485226
0.3232346127
0.32186873
0.318717981
0.3158828824
0.318510298
0.3187677257
0.3195416855
0.320147865
0.319571038
0.3171908436
0.3161530995
0.3190711518
0.3214743348
0.3205281623
0.3182973397
0.3196639815
0.3183924249
0.3177649136
0.3191092545
0.3204932769
0.3241790147
0.3208877363
0.3216149061
0.3233637722
0.3231171615
0.3233888975
0.3204841415
0.3164484079
0.315839091
0.3179266746
0.3190519167
0.3171689786
0.3184410594
0.3198589683
0.3208848931
0.3229586191
0.3208306778
0.3187697672
0.3190837826
0.3215530504
0.3204531887
0.3196000982
0.3204532151
0.3189583361
0.318674998
0.3218322139
0.3212704973
0.3219294088
0.3228183516
0.3214917522
0.3218045395
0.3226142881
0.3252041373
0.3216259423
0.3220354886
0.3209447055
0.3208854154
0.321778344
0.3230449774
0.3229403429
0.3216257932
0.3216142728
0.3223205701
0.3217379477
0.3205549806
0.3163336612
0.3182046683
0.3194210452
0.3208883553
0.3200893056
0.3183085594
0.3208414242
0.319955793
0.3224383986
0.3209575517
0.3185999081
0.3183252564
0.3177610303
0.3173276034
0.3185964205
0.3212250092
0.3210559639
0.3196887
0.3173921398
0.3214751011
0.3234877198
0.3247339727
0.3224152583
0.3201136229
0.320769754
0.3205329787
0.32038799
0.3188406543
0.3194455593
0.3198491646
0.3195716288
0.3194558991
0.3245062797
0.3237154426
0.3212180378
0.3207843044
0.3195730423
0.3198112292
0.3213725376
0.3178475925
0.3204231604
0.3194931472
0.3209022335
0.319731856
0.320677527
0.3186633463
0.3217621422
0.3224048115
0.3233649348
0.3218910587
0.323004322
0.324308879
0.3236621015
0.3213429675
0.321800257
0.3241072998
0.3236123315
0.3193983658
0.3182777959
0.3205641089
0.3200244426
0.3203323754
0.3195574796
0.3187238658
0.3195148143
0.3218304913
0.3223129594
0.3234816918
0.3230001262
0.3219700297
0.3224285973
0.3201677154
0.3181611785
0.3205287557
0.3220728267
0.3206120294
0.3209318278
0.3204321314
0.3215003047
0.3206649897
0.3225482113
0.3222381789
0.3193617496
0.3192540539
0.3186080131
0.3197430082
0.3186105805
0.319874526
0.3224532388
0.3227309188
0.3207760246
0.3223335453
0.3214049486
0.3204436744
0.3194231138
0.3183051934
0.3206952136
0.3219869836
0.3211384871
0.3187611452
0.3193598379
0.3184314642
0.3207311171
0.3225519383
0.3225164219
0.320216159
0.3192081882
0.3192655627
0.3195699776
0.3184198338
0.322845217
0.3227836881
0.3211125444
0.3204373908
0.3212279015
0.3200709214
0.3184622153
0.3177788565
0.3208673398
0.3214290561
0.3214440299
0.3217269342
0.3193913803
0.3197698027
0.3203838197
0.3228013882
0.3225667706
0.322478421
0.3234358357
0.3235405743
0.3185218287
0.3180145073
0.3189714893
0.3172723772
0.316944396
0.3176271859
0.3202359844
0.3199453955
0.3193629411
0.3193322259
0.3209623555
0.3213465784
0.3248358041
0.3240998664
0.3193510235
0.3204773374
0.32066548
0.3214818197
0.3219473252
0.3226338957
0.3178521845
0.3204280817
0.3210314669
0.3194433014
0.3196295494
0.3222933047
0.3208087316
0.3206744933
0.3190555066
0.3183871799
0.3187069722
0.319716289
0.3189631381
0.3185024289
0.3212777397
0.3238608493
0.3217043713
0.3179553815
0.3174290922
0.3175458729
0.3242855638
0.3215704695
0.3206452996
0.3176389894
0.3159083702
0.3137619564
0.3139565586
0.3179322216
0.3199588089
0.3173314082
0.3194508288
0.3199667234
0.321624027
0.3224854372
0.3236799379
0.3215629824
0.320631069
0.3210360254
0.3238893485
0.3237994661
0.3175669271
0.3195467354
0.3220427382
0.3210004183
0.3211454927
0.3205211266
0.3212676302
0.3197259945
0.3208226344
0.3224352093
0.3230578986
0.321355418
0.3204595699
0.3212869728
0.3208758187
0.3192760285
0.3217368693
0.3182111126
0.316981974
0.3167535562
0.3213263482
0.3191184175
0.3206292609
0.3219967355
0.320826358
0.3205653473
0.3214856808
0.3174003489
0.3174469508
0.3182670843
0.319321688
0.3195330379
0.3204363203
0.3170081751
0.3183506899
0.3196272804
0.3199003073
0.3211277125
0.3198600818
0.3220873267
0.3217686902
0.3216904527
0.3200961724
0.3193078252
0.3217117131
0.3235275765
0.3201188184
0.3209000797
0.3192023817
0.3197303905
0.3192345029
0.3211119612
0.3181656614
0.3198852581
0.3229298615
0.3228717241
0.3207942343
0.3208490871
0.323348089
0.3238101977
0.3230757493
0.3214191672
0.3220557942
0.3253273605
0.3238832065
0.3224316694
0.3208587465
0.3188964242
0.3174483534
0.316769498
0.3162688338
0.3200331326
0.3207006316
0.318482674
0.3193794546
0.320129298
0.3217453534
0.3195651713
0.3203333312
0.3209671499
0.3186767475
0.3205052127
0.3217080791
0.3208719467
0.3215653167
0.3208780947
0.3223392244
0.3222018378
0.318578005
0.3201253651
0.3219778209
0.3191897637
0.317103578
0.3209911383
0.3202538456
0.3179697912
0.3165916139
0.3181653108
0.3195963363
0.3184324622
0.3177757771
0.3192990176
0.3194527559
0.3200242582
0.3168172984
0.3166842334
0.3201985302
0.3189502654
0.3185997934
0.3194357391
0.3193825095
0.3205663985
0.3216139319
0.3203449126
0.3214495015
0.3208003962
0.3190951372
0.3196641725
0.3166418002
0.3170429633
0.3183271655
0.318293798
0.3168460944
0.3180098048
0.3211655193
0.3209694293
0.3185523368
0.3180765575
0.3183783994
0.3197595082
0.3206807831
0.3215471278
0.3209447453
0.3184917278
0.3185787162
0.3186247066
0.3172399206
0.3180710523
0.3179242587
0.3181547025
0.319738843
0.3191296028
0.3191204006
0.317335347
0.3166592539
0.3170369369
0.3199315611
0.3198242241
0.3212925162
0.3219881147
0.3223767285
0.3213423237
0.3239836047
0.3238599083
0.3208990057
0.3206021393
0.3210559881
0.3199967751
0.3192981902
0.3204985797
0.3234579747
0.3235823359
0.3187727774
0.3209625964
0.3211962285
0.3215730371
0.3188802164
0.3179327189
0.3181042883
0.3185518774
0.3172953997
0.3182072628
0.3203772724
0.3213593725
0.3246627452
0.3225840511
0.3208919506
0.3196742326
0.3192931817
0.3209836989
0.320740694
0.3222887401
0.3250207105
0.326445163
0.3254487529
0.322741323
0.3212487968
0.3220349747
0.3203430863
0.3196103422
0.3189225178
0.3180141825
0.3182544031
0.3205290641
0.3199013241
0.3193794539
0.3217582145
0.3200958847
0.3212542132
0.321589356
0.32103727
0.3193248393
0.3207567884
0.322113504
0.3187978694
0.320497754
0.3205967098
0.3226100877
0.3239350163
0.3261593514
0.3231889506
0.3195530231
0.3200898226
0.3217919652
0.3221035175
0.322574794
0.3179917121
0.3193024056
0.3182857983
0.3213454313
0.3193977985
0.3202302402
0.3198504483
0.3199623619
0.3238817069
0.3264469699
0.3272788308
0.3243220787
0.3188151295
0.3187964473
0.3178831472
0.3197439576
0.3207052287
0.3199643358
0.3165092075
0.3172134781
0.3180776243
0.3209401686
0.3215022017
0.32037403
0.3196195811
0.3186905059
0.3199722327
0.3211786299
0.3199193725
0.3182122597
0.3211424479
0.3190934181
0.3192803247
0.3196299636
0.32003108
0.3216651155
0.3212607321
0.3204247424
0.321418098
0.3210237479
0.321391039
0.3198569394
0.3194744962
0.3184041614
0.3237575371
0.3211504068
0.3218842835
0.322093671
0.3216145709
0.3188251294
0.3202105163
0.3205724006
0.3216561711
0.3216116757
0.3205742664
0.3197623761
0.3202791415
0.3218726854
0.3232758194
0.3230010251
0.3228677107
0.3239351891
0.323281672
0.322561222
0.3208665015
0.3212401729
0.3208255436
0.3185146266
0.3203920937
0.3196616784
0.3186511716
0.3197235927
0.3205873966
0.3223268716
0.323513527
0.3223851239
0.322697003
0.3217488147
0.3227587458
0.3213831962
0.3217037682
0.3199324339
0.3192192541
0.3208234091
0.3228713071
0.3231453453
0.3192850675
0.3217908151
0.3224609508
0.3221700151
0.3216225418
0.3221149086
0.32066647
0.3208610085
0.321313275
0.3224906941
0.323744525
0.3192978272
0.3189050969
0.3193059766
0.3170111038
0.3209912542
0.3216038289
0.3228089666
0.322274105
0.3199619457
0.3171423082
0.3193175205
0.3197036322
0.3201346961
0.3231477577
0.3237290573
0.3249684446
0.3243299991
0.3228023441
0.321273642
0.3195703288
0.320311503
0.3203303256
0.3190254028
0.3218167772
0.3197048153
0.3202287516
0.32180145
0.3187133475
0.3193299608
0.3217710997
0.3208352317
0.3184573997
0.3180913174
0.3211247331
0.3235988074
0.3247107885
0.3248003339
0.321985119
0.3221805026
0.3219980145
0.3215702746
0.3199349187
0.3207001754
0.3205050919
0.3213032738
0.320146942
0.3188114626
0.3212504481
0.3191613495
0.3204335802
0.3206350813
0.3202469454
0.3178488596
0.3188794149
0.3195546013
0.3184154011
0.3180205771
0.3175430355
0.3185810616
0.3206988818
0.3253654992
0.3246551448
0.3237574835
0.3216610675
0.3217494231
0.3221722869
0.3230733195
0.3240146488
0.3241648347
0.3227311392
0.3199707216
0.3195283795
0.3193887474
0.3177937822
0.3230509136
0.3214579445
0.3201195345
0.3182633076
0.3189905582
0.321067667
0.3209704964
0.3224129206
0.3224403518
0.3209150983
0.3214027541
0.3222606504
0.3242826688
0.3174284567
0.3177119017
0.3178644497
0.320497304
0.3184500156
0.318233351
0.3207140913
0.3193419442
0.3242705012
0.3228983006
0.3228739154
0.3243920025
0.3241208669
0.3227275211
0.3229483485
0.3207501098
0.3215978256
0.3184489658
0.3173382601
0.319428181
0.3227769492
0.3242572855
0.3223475998
0.3211373014
0.3223435993
0.3240358713
0.3213389154
0.3222944273
0.3233021802
0.3217968378
0.3201006695
0.3191535064
0.3198160631
0.3224245549
0.3192718775
0.3185799144
0.3180503917
0.3182718721
0.3205368945
0.3222632561
0.3210751628
0.3199554361
0.3217152697
0.3215576521
0.3216941051
0.3225650097
0.3240310728
0.3248682197
0.3227311748
0.3227385846
0.3215902578
0.3211491773
0.319557735
0.3213929598
0.3189957169
0.3214220155
0.3221164647
0.3232470898
0.3217934836
0.3218179912
0.3206652415
0.318657706
0.3211937397
0.3185302414
0.3196237498
0.3181828472
0.3204481401
0.3221838677
0.3226817771
0.3238057338
0.322640396
0.3231918384
0.3252409645
0.3258945012
0.3236730019
0.3222409014
0.3224591788
0.3220835085
0.3239085395
0.32181169
0.3211488002
0.3201589991
0.3175504991
0.3185727933
0.3159742427
0.3165631585
0.3174279117
0.3176532027
0.3185050707
0.3211262735
0.3219056983
0.3218617635
0.3214223692
0.3191845231
0.3174131426
0.3207167923
0.3226100609
0.323482797
0.3235335262
0.3237537966
0.3219925355
0.3203197857
0.3191580425
0.3177507078
0.3205655512
0.3217471016
0.3199479728
0.3199731673
0.3206473736
0.3190914151
0.3208606345
0.3178430607
0.3148060974
0.3155609175
0.319492516
0.3196202568
0.3201752902
0.3210227985
0.3205076686
0.3203158826
0.3196952142
0.3219477853
0.3203836619
0.3206955191
0.3219083746
0.321881223
0.3221636362
0.321653671
0.320771061
0.3199528296
0.3200244848
0.3233011922
0.3211122325
0.3193889723
0.3193496329
0.3189513781
0.3213730704
0.3194456417
0.3160417022
0.3171491563
0.3147583436
0.3166608363
0.3205429914
0.3237148075
0.3214426634
0.3183102812
0.3193016834
0.3219116071
0.3215411203
0.322217693
0.3219454053
0.318781784
0.3178034473
0.3193843079
0.3246449595
0.3214673172
0.3172305002
0.3174945953
0.3190168014
0.3155221625
0.3209170276
0.3194664199
0.3173705487
0.3171737366
0.3194985459
0.3186213015
0.3191572842
0.3205110086
0.3201899791
0.320952913
0.3217363317
0.3231866926
0.323784887
0.323971192
0.3232118644
0.3272107388
0.3232800729
0.322232809
0.3197262516
0.3203475326
0.3205501509
0.3217445481
0.3208371806
0.3200852008
0.31891334
0.322549388
0.321173093
0.3239102286
0.3236753747
0.3251838642
0.3240437199
0.3255983633
0.3244330716
0.3235515349
0.322390015
0.321391389
0.3229810386
0.3235371887
0.3240473586
0.3206994147
0.3231932445
0.3221437684
0.3234410058
0.3264229108
0.3227764473
0.3214923969
0.3222045376
0.3232897503
0.3237559305
0.3235152996
0.3209180924
0.3220757112
0.3208624248
0.3236884638
0.3207044858
0.321428442
0.3181983479
0.3194621439
0.3231253153
0.3227174183
0.3188061318
0.3199271019
0.322537335
0.3210175427
0.3215859529
0.3247834529
0.3248766752
0.3243097602
0.321476437
0.3213988264
0.3194474192
0.3172952151
0.3184055543
0.3221599319
0.3218409857
0.3214322673
0.3198398391
0.3197361398
0.3205035554
0.3200794609
0.3187213193
0.3196909505
0.3207416412
0.3222978052
0.3259954702
0.3256681444
0.3248814101
0.320988404
0.3226581109
0.3232382451
0.3228224323
0.3240371832
0.3237567061
0.3206809013
0.3194098866
0.3211031042
0.3216336656
0.3209610693
0.3208658313
0.3193686386
0.3197386658
0.317215992
0.3167762579
0.3185967312
0.3195516958
0.3224823006
0.3232323702
0.3265353468
0.3237569665
0.3218754514
0.324302006
0.3246852141
0.3248488528
0.3241709257
0.3251589083
0.325229229
0.3220908114
0.3233521431
0.3215860838
0.3204946513
0.319426357
0.320276331
0.320064493
0.3182405529
0.3189850567
0.3216115544
0.3219024099
0.3233481736
0.3236879435
0.3235200933
0.3248344262
0.3222895726
0.3227688882
0.3197622992
0.3205366615
0.3216650419
0.3216911527
0.3207861456
0.3201909829
0.3173058842
0.3201635276
0.3204144566
0.3214098065
0.3222913096
0.3229952857
0.3212938967
0.3178106954
0.3167774287
0.3171797886
0.3172703032
0.3189894505
0.3205367356
0.3217209642
0.3212713328
0.3187205907
0.3213973121
0.322171936
0.3208128176
0.3202918845
0.3206391327
0.3205333382
0.3187476662
0.3189854095
0.3217037706
0.3205520117
0.322136112
0.3198393279
0.3173027861
0.3158528331
0.3185637791
0.3201281001
0.3197095035
0.3217425342
0.3202073092
0.3232798833
0.3259065999
0.3239095323
0.3221331493
0.3220632898
0.3214004137
0.3185047377
0.3179336171
0.3182650889
0.3196561398
0.3196334254
0.3212446791
0.3221461157
0.321170884
0.3207124408
0.3194378975
0.3191364017
0.3189952477
0.3186759909
0.3199371317
0.3200233061
0.3192168518
0.3184523838
0.319986585
0.318613399
0.3173599273
0.3208251235
0.3246201492
0.3237215937
0.3230489531
0.3222858069
0.321092579
0.3189866217
0.3203387085
0.3200878208
0.3196319444
0.3211006722
0.3218776316
0.3207094723
0.3184822603
0.321241508
0.3220821787
0.3209524994
0.3202339067
0.3198502896
0.3207477629
0.3262993931
0.3256344217
0.3224277527
0.3204834131
0.3221688259
0.3224270412
0.3210963903
0.3181722666
0.3183558884
0.3176400238
0.3211224809
0.3244253679
0.3223860667
0.3230356222
0.3224485813
0.3237070914
0.3237808309
0.3261522943
0.3244044608
0.3248070433
0.322076338
0.3226368778
0.3238733204
0.3216592275
0.3203089933
0.3191187693
0.3192305872
0.3203954021
0.3195122494
0.3179290147
0.3177177417
0.3168010298
0.3185765065
0.3218177461
0.3274018954
0.3253436346
0.3251102448
0.3246362303
0.3249937808
0.3238507222
0.3223127568
0.3209698856
0.3209869999
0.3216425521
0.3216172229
0.3197430042
0.3222961017
0.3220900411
0.3229598373
0.3221019246
0.3197250911
0.320781826
0.3226982895
0.3223667219
0.3227482725
0.3240699631
0.3219964118
0.3209448012
0.322309542
0.3216147924
0.3185625699
0.318922688
0.319936226
0.3209130559
0.3227810674
0.3240814942
0.3227632701
0.324802485
0.3240310485
0.3242165219
0.3241677162
0.323890836
0.3258240349
0.3240996334
0.3206350309
0.3169093324
0.319935868
0.3212145423
0.3215092663
0.3199303553
0.3213435084
0.3214651465
0.3212221393
0.3178989606
0.3184970824
0.3188637156
0.3185849189
0.3196040294
0.3198795976
0.3208092002
0.3187773309
0.3204349132
0.320091955
0.3202956928
0.3199384096
0.3217182858
0.3209086149
0.3210232614
0.3217064387
0.3221693573
0.3227415754
0.3187905106
0.319966102
0.3213298809
0.3209163006
0.3228219887
0.3209629879
0.3206152139
0.3220809902
0.3243496181
0.3248384155
0.3224608539
0.3228293238
0.3209296272
0.3199316797
0.3188243411
0.3187001749
0.322351984
0.3243220171
0.3242198386
0.3262232352
0.3253419131
0.3239658719
0.3217807403
0.3222728171
0.3215047131
0.3225473323
0.3215962898
0.3186587217
0.3192300546
0.3205068381
0.3221776893
0.3217181958
0.3203711606
0.3231501962
0.3241447804
0.3210630393
0.3186157095
0.3186229629
0.3234749859
0.3193178745
0.322946304
0.3232569379
0.3219914242
0.3236706945
0.3226209858
0.3224181728
0.3188859406
0.3201065311
0.3219697948
0.3204971715
0.3198111912
0.3183470234
0.3196516251
0.317469507
0.3188913676
0.3195972518
0.3212488299
0.3209181661
0.3198147229
0.32286211
0.3227624641
0.3225862851
0.3230473406
0.3222585737
0.3191136639
0.318537519
0.3175114821
0.3159971309
0.3151220569
0.3171006858
0.3173078017
0.3171936917
0.3162661982
0.3186156215
0.3187396359
0.3208660538
0.3232401296
0.3209303473
0.3235329302
0.3222791143
0.3257173223
0.3255790785
0.3244459882
0.3211661758
0.3229204105
0.3218157468
0.3218042349
0.3221068395
0.3213463284
0.3188453537
0.3186035736
0.3194291097
0.3193530231
0.3170246314
0.3185526033
0.3213625753
0.3203494503
0.3196069074
0.3195147252
0.3212117016
0.3221835902
0.3254890154
0.3225032854
0.3217058119
0.3196511805
0.3209852945
0.3213037658
0.3222908351
0.3242951033
0.3243015802
0.3237991464
0.3217399862
0.3196354483
0.3200797736
0.3195517057
0.3198409423
0.3199262924
0.3205942451
0.3204259871
0.3210319933
0.3206928288
0.320507008
0.3242524326
0.325670152
0.3244495868
0.3241610709
0.3195573546
0.3216429786
0.3214576599
0.3216531133
0.3193997979
0.3209278438
0.3236941297
0.3220646265
0.3196630729
0.3219329553
0.3199152836
0.3213267267
0.3198905921
0.3239894442
0.3260715024
0.3243159819
0.3236646744
0.3223671165
0.3206491383
0.3225443794
0.3203722053
0.3186355912
0.3208621808
0.3211050199
0.3231510234
0.3201892545
0.3193579226
0.3190517313
0.3187830763
0.3202175127
0.3216740157
0.3216672766
0.3225608135
0.3225754945
0.3231907683
0.323857668
0.3213114861
0.3208335818
0.3211592688
0.320637244
0.3208754419
0.3200608506
0.3196667139
0.3204594454
0.3202825793
0.3207363321
0.3235805159
0.3231419479
0.3196884886
0.3199293115
0.3215916507
0.3214947274
0.3197807906
0.3226896394
0.3214635223
0.3220631621
0.3225179386
0.3214169053
0.3221163124
0.3228923028
0.322845514
0.323867324
0.3245745509
0.3239855192
0.3224241187
0.3215262861
0.3190772648
0.3196882961
0.3232499597
0.3232208773
0.3224712191
0.3227753793
0.3244615439
0.3219984387
0.3252204377
0.32478267
0.32610022
0.3255142993
0.3235551469
0.3202183898
0.3207755044
0.3190578247
0.3200690348
0.3216189446
0.3208875243
0.3209718893
0.3220316128
0.3222506422
0.3220601691
0.3228551717
0.3201600145
0.3229705824
0.3205171505
0.324125244
0.322545761
0.3212727237
0.3215311227
0.3218554324
0.3215136395
0.322398063
0.3236073632
0.3214654386
0.3233243726
0.324644829
0.3215207477
0.3227866671
0.3200477139
0.3181059155
0.3212277434
0.3245432698
0.3216793764
0.3211020783
0.3238238718
0.3191562423
0.3186738373
0.3196632609
0.3193867131
0.3208993923
0.3218719424
0.3211786285
0.3199786506
0.3195689896
0.3198871317
0.3204097971
0.3220360044
0.3224357676
0.322007587
0.3199040138
0.3189948174
0.3183074601
0.3211104514
0.3199745394
0.3189074937
0.3182135037
0.3191173524
0.3203479576
0.3200600021
0.3198421219
0.322481983
0.3235341199
0.3237017565
0.3213694196
0.3204801421
0.3229577665
0.3230584282
0.3232515037
0.3217257957
0.3198640845
0.3194544811
0.321616738
0.3236237523
0.3211364914
0.3199009742
0.3196607681
0.3189322033
0.3211990733
0.3214760175
0.3216999139
0.3202691051
0.3204505168
0.3205588278
0.3231005498
0.3253169511
0.3244430255
0.3225824601
0.3208547371
0.3226747689
0.3221673799
0.3245829346
0.3248304089
0.3204814427
0.3211447915
0.3212094193
0.3238286138
0.322932953
0.32245909
0.3217005392
0.3202741679
0.3196583503
0.3181217319
0.3190995078
0.3179906379
0.3176801898
0.3175037276
0.318542693
0.3200787435
0.3229086487
0.324138044
0.3223504164
0.3239936823
0.324110252
0.3217992903
0.321914204
0.3228983931
0.3236939596
0.3237048655
0.3216863921
0.321963037
0.3219999271
0.3246614032
0.3199506268
0.3205179045
0.3217268255
0.3198213769
0.3207327039
0.3202766164
0.3211961911
0.3217065475
0.3231453452
0.321483822
0.3228224847
0.3212531933
0.322671351
0.3154731985
0.3176823441
0.3163276756
0.3158659694
0.3177824497
0.3183122136
0.3180783548
0.3208396201
0.3211176102
0.3210739287
0.3211178775
0.3214816796
0.3232363514
0.321325545
0.3204039811
0.3190254956
0.3191836837
0.317704536
0.3177149837
0.3159230764
0.3241687215
0.3224705891
0.3232782937
0.3252852809
0.3264245034
0.3224284668
0.3182605555
0.3167266597
0.3194815963
0.316927424
0.3181749898
0.3193054222
0.3216092032
0.3191930962
0.3194502594
0.3183641301
0.3178161964
0.3216334335
0.323627132
0.3247590909
0.3221576575
0.3200871824
0.3217940427
0.3213322305
0.3203516987
0.3211330702
0.3224921485
0.3244168428
0.3210190969
0.3203210156
0.3198013618
0.3197314027
0.3189619228
0.320825842
0.3232469821
0.3236930487
0.326184972
0.3245514179
0.3218762836
0.3235834736
0.3199107507
0.319798404
0.3188275137
0.319906295
0.3210989353
0.3200094443
0.3188939269
0.3185629504
0.3205951303
0.3195926658
0.3189144366
0.3188992842
0.3166248346
0.3205463637
0.3228869874
0.3221862848
0.319742923
0.319697411
0.3214146814
0.3216489501
0.3205669337
0.321386192
0.318854181
0.3190559251
0.3201563622
0.3206004554
0.3211867012
0.3195854633
0.318347438
0.3204650772
0.3223134952
0.3231244748
0.3220211926
0.3214471411
0.3182869058
0.3202277464
0.3209968491
0.3233753407
0.3212378146
0.3222614063
0.3168857762
0.3153586208
0.316100371
0.3154133903
0.3172715692
0.3179863651
0.3192924576
0.3207744232
0.3210631422
0.3203925579
0.3203628558
0.3221792318
0.3249134871
0.3240598697
0.3240333636
0.3241580481
0.3209947932
0.3193357982
0.3226003526
0.3194201096
0.3209975935
0.3196539177
0.3201398217
0.3222294319
0.3218481223
0.322639576
0.3201728495
0.3239394114
0.3222283255
0.3222170057
0.3230903516
0.3200283842
0.3199753797
0.3210077578
0.3218224881
0.3174581595
0.3187790491
0.3202016543
0.3213161846
0.3234618353
0.3192586508
0.3165921527
0.3167658497
0.3212701193
0.3218121164
0.3230729253
0.3243038881
0.3237726006
0.32428616
0.3213446566
0.3192651261
0.3191289229
0.3222866725
0.3228891077
0.3225098923
0.3217998914
0.3203934549
0.3206156814
0.3189401577
0.3179171646
0.3239990788
0.3207648555
0.3208982286
0.3165933318
0.3160780113
0.3169672977
0.3190594522
0.3194374207
0.3205132437
0.3226824627
0.3238775788
0.3229477266
0.3215417484
0.3205609004
0.3207799636
0.3218495057
0.3216020237
0.3216481986
0.3224181065
0.322340716
0.3218151253
0.3214743831
0.3208342732
0.3216272072
0.3207594269
0.3204032803
0.3184376963
0.3199800124
0.3226622266
0.3216787968
0.3197574002
0.3193972874
0.3219691181
0.3267478524
0.3254116574
0.3229034897
0.3204224805
0.3214611868
0.3232104441
0.3229976434
0.3179613687
0.3180608274
0.318456212
0.3206125788
0.3206455487
0.322035952
0.3229919602
0.3235894544
0.3244254541
0.3208430055
0.3208770528
0.3187113515
0.3201840872
0.3222815306
0.3219504519
0.3220963297
0.3237256033
0.3223596132
0.3208337667
0.3190171368