/*--------------------------------*- C++ -*----------------------------------*\
| =========                 |                                                 |
| \\      /  F ield         | OpenFOAM: The Open Source CFD Toolbox           |
|  \\    /   O peration     | Version:  v1706                                 |
|   \\  /    A nd           | Web:      www.OpenFOAM.com                      |
|    \\/     M anipulation  |                                                 |
\*---------------------------------------------------------------------------*/
FoamFile
{
    version     2.0;
    format      ascii;
    class       volScalarField;
    location    "0.01";
    object      p_O2;
}
// * * * * * * * * * * * * * * * * * * * * * * * * * * * * * * * * * * * * * //

dimensions      [1 -1 -2 0 0 0 0];


internalField   nonuniform List<scalar> 
5120
(
0.0926178565
0.09276990377
0.09230290005
0.09198089492
0.09299886751
0.09290203024
0.09302742132
0.09181741737
0.09101506765
0.09063126667
0.09098507833
0.09213342752
0.09112951963
0.09098288201
0.09100926699
0.09170962505
0.09224996742
0.09168707052
0.09200606292
0.09316624928
0.09312155815
0.0927349627
0.09261530037
0.091775147
0.09149237207
0.09131034618
0.09179296988
0.09041316566
0.09148802431
0.09176343991
0.09133813592
0.0916437825
0.09241062422
0.09306173842
0.09335476595
0.09178788254
0.09382255139
0.09369108784
0.09269226035
0.09292461119
0.0916984946
0.09130680627
0.09116551798
0.09176477995
0.0911847603
0.09082826778
0.09144700804
0.09183339474
0.09258643931
0.09070417879
0.09236584211
0.09264862637
0.09229342792
0.09072272132
0.09153255987
0.09265344683
0.09300562687
0.09218891972
0.09210968109
0.09150567988
0.09363772289
0.0926468956
0.09220752099
0.09106867881
0.09196293246
0.09208460947
0.09303274817
0.09314781992
0.09300920808
0.09250151042
0.09098334352
0.09056609326
0.09033324203
0.09178542237
0.09239713083
0.09333628713
0.09288009625
0.09300092281
0.09346663367
0.09407730614
0.09385804507
0.09317883089
0.09360845811
0.09289445354
0.09171823848
0.09222939572
0.09194078093
0.09170118244
0.09297181155
0.0929145713
0.09215434863
0.09092373677
0.09133384504
0.09120439208
0.09107740147
0.0913770609
0.09291129992
0.09250065736
0.09237281386
0.09269232672
0.0929633907
0.09116277408
0.0904180203
0.09221798317
0.0922286966
0.09185153236
0.09137077635
0.09231384705
0.09278952173
0.09255177488
0.09374775026
0.09329257322
0.0914836612
0.09078244885
0.09081975341
0.09104630935
0.09136808249
0.09056293003
0.09120027345
0.09255732012
0.09260354828
0.09174575615
0.09194615243
0.09345883323
0.09182526229
0.09236937461
0.09246922118
0.09226208716
0.0929546532
0.09284982572
0.09211351714
0.09049508183
0.09100003386
0.09120356931
0.0913948498
0.09169997376
0.0923854003
0.0930698195
0.09167473876
0.09324540664
0.0905640183
0.09131411344
0.09195020865
0.09302902575
0.09213196142
0.09081342121
0.09208161831
0.09185150234
0.09197305259
0.09105260697
0.09220886227
0.09172792108
0.09159712526
0.09148615803
0.09275213545
0.09175958029
0.09017578319
0.09111304975
0.09272455849
0.09079015009
0.09284863258
0.09230390733
0.09133032131
0.0914382382
0.09099330698
0.09218162553
0.09210480514
0.09147070585
0.09026660761
0.09040006719
0.09051628122
0.09141845502
0.09225941981
0.09374397316
0.09289018471
0.09207327764
0.09237661587
0.09314883888
0.09176489518
0.09220884452
0.09117310453
0.09029341346
0.09164737012
0.09176499945
0.09270235237
0.09375956617
0.09321292856
0.09307311941
0.09350911398
0.0926847674
0.09172453049
0.09375794119
0.09426462575
0.09293715177
0.09199551689
0.09081636139
0.09056433715
0.09221817694
0.09236159364
0.09209023363
0.09263994319
0.09255069459
0.09375390216
0.09247533191
0.09164621105
0.09116299472
0.09173652502
0.09283091582
0.09311527991
0.09429179193
0.09467911857
0.09306007951
0.09295250246
0.09286867396
0.09394139383
0.09373654783
0.09353600097
0.09162957022
0.09225865095
0.09346865044
0.0900736563
0.09100312078
0.09080677978
0.09069039931
0.09117821595
0.09069130162
0.09146892494
0.09168109542
0.09169281233
0.09177749302
0.09167721213
0.0924584685
0.09301191833
0.09356671294
0.09233775983
0.09114450835
0.09115679988
0.09316597728
0.09461692984
0.09314608626
0.09268729585
0.09342890342
0.09390010595
0.0937744264
0.09462068218
0.09318191229
0.09149066321
0.0902560702
0.09106320684
0.09156433611
0.09024491603
0.09179618048
0.09273861874
0.09232863558
0.09259588307
0.09271126747
0.09259938262
0.09319193826
0.09275834397
0.09207624557
0.09145941274
0.0924179484
0.09275348016
0.09193491196
0.09050491577
0.09206214583
0.09247901776
0.09221716638
0.09223359032
0.09144158463
0.09176639289
0.09157349966
0.09071863555
0.09236383326
0.0929718524
0.09209814257
0.09261393403
0.09160250486
0.09252195804
0.09164217589
0.09237151736
0.0922514549
0.09182371993
0.09166808093
0.09130289935
0.09108372698
0.09129776719
0.09036169061
0.09118431896
0.09184445519
0.09180714478
0.09230528579
0.09172027553
0.09119723133
0.09204865609
0.09160848156
0.09179644796
0.09124737532
0.09110715113
0.09288959002
0.09166944838
0.08943387734
0.08940335916
0.09029909366
0.09029530708
0.09025857316
0.09030744628
0.09167324575
0.09028403864
0.08995625043
0.09094079555
0.09032975224
0.08981344889
0.08951403588
0.0905095987
0.09088644615
0.08998151949
0.09121531548
0.09114033977
0.0925354533
0.08960895462
0.09216362483
0.09269361464
0.09321753708
0.09119883891
0.09186519835
0.09223489746
0.09139809816
0.09052145748
0.09055357419
0.09100446153
0.0918297506
0.09196122038
0.09208561757
0.09301634504
0.09409282667
0.09453550413
0.09372193648
0.0917744124
0.09120267526
0.09045937501
0.09169961263
0.09176164657
0.09191737896
0.09255693059
0.0923664878
0.09101547387
0.09095420941
0.09148062379
0.09121916829
0.09158067945
0.0914926322
0.09150055192
0.09218214366
0.092436776
0.09192171305
0.09106334297
0.09171801512
0.0915216833
0.09091001659
0.09316073801
0.09222107556
0.09255856348
0.09320556065
0.09083770459
0.09145982177
0.09169721436
0.09126460951
0.09106019031
0.09267324362
0.0930475879
0.09337525727
0.09301708162
0.0915765462
0.09050715982
0.09107339651
0.0906154595
0.09090967482
0.09256356297
0.09273987949
0.09219920037
0.09267492083
0.09207713591
0.09165716529
0.09239449578
0.0919964102
0.09164282206
0.09166162507
0.09156504845
0.09246098369
0.09289193796
0.09408817497
0.09351875101
0.09219703515
0.09091421634
0.08993170437
0.09061471979
0.09057804726
0.0922009634
0.09205353276
0.09165879101
0.09129886946
0.09244464744
0.09294412766
0.09364853542
0.09357544743
0.09413975976
0.09352022663
0.09308990457
0.0920240677
0.09235574473
0.09328458574
0.09327209689
0.09390674504
0.09479394125
0.09451677517
0.09290185234
0.09234489483
0.09215773177
0.09195307242
0.09062294002
0.09080325265
0.09069795586
0.09024767037
0.09200936637
0.09289093812
0.09207736128
0.09197851879
0.09169099459
0.09291966264
0.09130898411
0.09104818944
0.09100106205
0.09162678887
0.09081458024
0.09203730123
0.09237109011
0.0931589337
0.09202444305
0.09059775222
0.09371919647
0.09365466325
0.09435493579
0.09447666808
0.09354483141
0.09328189785
0.09469752687
0.09493007715
0.0931742341
0.09278107026
0.09301480376
0.0924685895
0.09317352259
0.0920179374
0.09250021345
0.09222979217
0.09126990115
0.09161513729
0.0927155397
0.09413825881
0.09301391174
0.09289946702
0.09281130615
0.0908799037
0.0916379819
0.09340952488
0.09297279482
0.09265570495
0.09290391134
0.09422787346
0.09440825839
0.09398683398
0.09232097114
0.09154407466
0.09107448247
0.09225385966
0.09271590675
0.09378018608
0.09171724598
0.0924754167
0.09258919764
0.09244305797
0.09274329192
0.09349904383
0.09384362232
0.09264246602
0.09235203832
0.09106963548
0.09227143919
0.09173451736
0.09011904318
0.0896342618
0.09034945517
0.09126560511
0.09227896862
0.09278833456
0.09317502083
0.09270553047
0.09311261964
0.09291228757
0.09178136699
0.09239793834
0.09270857197
0.09183635721
0.09076386708
0.09120732959
0.09174023078
0.09065694866
0.09082976057
0.08996327018
0.09157837549
0.092251205
0.09182085956
0.09111468969
0.09212618729
0.09320178031
0.09467499852
0.09304201323
0.09181429338
0.09142837567
0.09147929426
0.09114497216
0.09019173029
0.0900557975
0.0908158344
0.0926515717
0.09180386565
0.09289487449
0.09336402478
0.09282806743
0.09364903989
0.09315655572
0.09252045667
0.09205829389
0.09218017938
0.09243953361
0.09112571805
0.09132789176
0.09306645431
0.09124376542
0.09231263345
0.09219170095
0.09170182782
0.09323642645
0.09385142229
0.09314252902
0.09200507607
0.0913668327
0.09239299776
0.09149115802
0.09260141092
0.09261138988
0.09159752163
0.0914325648
0.09062610848
0.08916437058
0.09043204943
0.0908806191
0.09001976298
0.09176593443
0.09110990158
0.08994279382
0.09058051237
0.09177779623
0.09072810808
0.09064379691
0.09106495953
0.09093077293
0.0899002418
0.08974161091
0.08980404038
0.09009462194
0.090050685
0.09055939872
0.09230808569
0.09250564259
0.09186161468
0.08999517887
0.09086569978
0.09166107713
0.09354750379
0.09249167792
0.09208983969
0.0913848119
0.09174196939
0.09237351357
0.09241719379
0.09132425859
0.09214982246
0.09300473553
0.09121422463
0.09139206562
0.09144585434
0.09130266225
0.09061045192
0.09100928645
0.09050979065
0.09102837316
0.09157360877
0.09318156154
0.09196740236
0.09226205547
0.09173600298
0.09360879117
0.09228393402
0.09304453922
0.09166248492
0.09217115314
0.09163464599
0.09189161531
0.09205156195
0.09243604379
0.09328263889
0.09385200788
0.09335845777
0.09356265682
0.09476381111
0.09299638683
0.09152855146
0.09210233543
0.09314661737
0.09315522227
0.09290600885
0.09225783879
0.09029294706
0.09043159293
0.09091995244
0.0907361225
0.09077104059
0.09233187813
0.09169976632
0.0919941214
0.09312588095
0.09400705148
0.09317605404
0.09239929935
0.0924473689
0.09160975441
0.09098360195
0.09220241981
0.09366152891
0.09263664946
0.09123268849
0.09197844101
0.09292720917
0.09259033718
0.09076401115
0.09154246723
0.09266254595
0.09318502389
0.09200840335
0.09132264804
0.0909207769
0.09091786699
0.09167786649
0.09045866388
0.08941917107
0.09161612306
0.0920477484
0.09335715917
0.09142139844
0.09197946888
0.09188548477
0.09238702806
0.09295253949
0.09242272509
0.09242614999
0.09311022024
0.09336059491
0.09264930664
0.09210462088
0.09117915371
0.090825839
0.09159540066
0.09027997198
0.09246594652
0.09255472385
0.09344225927
0.09301357807
0.09129225858
0.09175136341
0.09214899296
0.09066849824
0.09198793871
0.09267036039
0.09313883938
0.09220032926
0.09187746156
0.09137969664
0.09078746611
0.09078515401
0.09053815146
0.09019843768
0.0894710065
0.09142158066
0.09207860131
0.09251094136
0.09155592187
0.09074258047
0.09177239749
0.09117025175
0.09097738226
0.0908852117
0.09103375575
0.09134960865
0.09208761398
0.09126767659
0.09243496287
0.09143987957
0.09141978475
0.09143583047
0.09111409662
0.09181127719
0.09326118487
0.09173909864
0.09189854319
0.09183926042
0.09144512127
0.09170263707
0.09121631551
0.09277603689
0.09319043275
0.09349638476
0.09437841858
0.09386188058
0.09368729285
0.09455903402
0.09410394586
0.09459910561
0.09354138234
0.09314773465
0.09286122768
0.09241505892
0.09186580399
0.09330126729
0.09209188432
0.09240783174
0.09224596904
0.0916525931
0.0919097023
0.09202992083
0.09172303977
0.09184655395
0.09194309354
0.091728497
0.09195003614
0.09234200565
0.09228600798
0.09197450131
0.0915502788
0.0922919473
0.09360036103
0.0935867495
0.09318228718
0.09349760869
0.09236929267
0.09116409662
0.08991888275
0.09079052579
0.09109787294
0.09116003422
0.09253531153
0.09305723789
0.09344298723
0.0947971656
0.0938548873
0.09244043543
0.09219433254
0.09092790871
0.09136080961
0.09168216367
0.09219588248
0.09139563907
0.09236719475
0.09183290294
0.09194807552
0.09129970157
0.09221252648
0.0914155042
0.09227720971
0.09035560427
0.08938115079
0.09139757032
0.09207134872
0.09130723481
0.0909898886
0.09050112037
0.09254287298
0.09254722552
0.0925274229
0.09277676445
0.09285758489
0.09210452803
0.09160331473
0.0912293561
0.09253066527
0.09179512859
0.09260553648
0.09277233828
0.09089377683
0.09205707158
0.0928226179
0.09326065388
0.09354701982
0.09330738289
0.09145730198
0.09150447007
0.09203077999
0.09162190458
0.09139828045
0.09191867463
0.0920353208
0.09278365148
0.09354635727
0.09271998608
0.09105843943
0.09060652451
0.0895376969
0.09232659821
0.09322696868
0.09212123038
0.09169842282
0.09104301719
0.09153076697
0.09102367962
0.09146525858
0.09116049091
0.09130085206
0.09047283012
0.09139155679
0.09193807882
0.0908124742
0.09150130449
0.09130095734
0.09249286826
0.09185433098
0.09202984405
0.09124224021
0.09122181667
0.09262257788
0.09183942994
0.09317177266
0.09318226621
0.09232716015
0.09102319851
0.09146350201
0.09132962227
0.09181185511
0.09087286245
0.09154015201
0.09055649842
0.09128864221
0.09327948498
0.09307981704
0.09197898254
0.09043886042
0.08994188238
0.09080012792
0.09125416659
0.09109293024
0.09213264201
0.09251954604
0.09165855695
0.09035881111
0.0914084508
0.09215921323
0.09195306473
0.09192864792
0.09037974938
0.09071735107
0.09055413768
0.09093277175
0.09065045831
0.09018623355
0.09056787859
0.09184499668
0.09236309944
0.09157847051
0.09180797935
0.09171937814
0.093425712
0.09377166828
0.09302191859
0.09205633644
0.09170749738
0.0919070187
0.09253374044
0.09294934507
0.09309617122
0.09294609089
0.09185443811
0.09186658014
0.09161160837
0.09094414252
0.09070933608
0.09095630554
0.09047099718
0.09167196517
0.09223441277
0.09220235545
0.09035102719
0.09031016192
0.09109919941
0.09193108836
0.09250115889
0.09148876623
0.09181902172
0.09116088643
0.09157615624
0.09130306284
0.09234115424
0.09136613977
0.09202035145
0.09250897772
0.09203343228
0.09152533225
0.09297093238
0.09194529656
0.09062302086
0.09073872317
0.09041720979
0.09068474951
0.09067063866
0.09228675094
0.0923008479
0.0920035221
0.09088271119
0.09162379455
0.09213251623
0.09141014392
0.09065673235
0.09205398232
0.09171138748
0.09324066795
0.09343498951
0.09305638248
0.09217085774
0.09262868889
0.09226879014
0.090882505
0.09137135139
0.09200341037
0.09341406546
0.09182287405
0.09051416266
0.09060067136
0.09274344608
0.09186714731
0.09096316141
0.09183060557
0.09298309949
0.09322077606
0.09119739188
0.09098888227
0.09096497404
0.09145993153
0.09388866297
0.09402356766
0.09294089195
0.09128035324
0.09341661996
0.09224027219
0.0924647957
0.0929845926
0.09279327403
0.09272623129
0.09325739697
0.09186370439
0.09140694256
0.09121878862
0.09148771583
0.09129925858
0.09199428387
0.09167977921
0.09173217005
0.09225808881
0.09138234918
0.09080252507
0.0927397633
0.09457018066
0.09353192922
0.09470363472
0.09444394371
0.0939825626
0.09253408684
0.09249089967
0.09220992202
0.09192253551
0.09199484606
0.09235762231
0.09207622411
0.09191858477
0.09208280608
0.09228369088
0.09262515351
0.09175978047
0.09252421349
0.09163578544
0.09088703557
0.09284683418
0.09286064107
0.09311031036
0.09405450147
0.0930528575
0.09307669316
0.09258640845
0.09277766732
0.09384758403
0.09270408788
0.09188758046
0.09165053555
0.09006103717
0.0920852393
0.09234052616
0.09213418568
0.09113393297
0.09088417032
0.09262157972
0.09291750098
0.09288504478
0.09288356677
0.09200227996
0.09214053503
0.09073088611
0.09101470388
0.09161895402
0.09178732401
0.09106149685
0.09186574128
0.0921801964
0.09267778968
0.09360246806
0.09286536046
0.09279603175
0.09399894727
0.09373197068
0.09400247172
0.09390460636
0.09356474884
0.09396494931
0.09056690742
0.09177276773
0.0922076825
0.09366029258
0.09252439078
0.09259842446
0.09201206621
0.09128597046
0.09128177104
0.09172325973
0.09259350646
0.09279880337
0.09255429398
0.09200398217
0.09144082086
0.091024048
0.09075794036
0.09065666375
0.09102075957
0.09135334101
0.0912074559
0.0914034781
0.09067375126
0.09047981942
0.09177296602
0.09133135131
0.09259998388
0.09249694897
0.09394498541
0.09327037249
0.09251339896
0.0914449535
0.09121890969
0.0909187529
0.08935050849
0.08924389171
0.08974714375
0.09122716236
0.09145658873
0.09220632368
0.09254403081
0.09264213581
0.09205415111
0.09315913208
0.09291273033
0.09264865521
0.09256207833
0.09194487339
0.09185927007
0.09157390386
0.09130525596
0.09364819657
0.09306842255
0.09155875128
0.08984715742
0.08946604309
0.09073958138
0.09152791621
0.09207580903
0.09253383133
0.0929664954
0.09284683939
0.09087636969
0.09030519712
0.08990086579
0.08899012319
0.09182466395
0.09260842062
0.09175978913
0.09118650817
0.0920091882
0.09109564867
0.0911632033
0.09050771
0.09213018165
0.09246839194
0.0925251251
0.09261792639
0.09162593855
0.0913998728
0.09066167252
0.09102529066
0.09111730984
0.09191091596
0.09152830782
0.09114174853
0.08992003659
0.08931405404
0.09063675359
0.09112289495
0.09110347921
0.09029047254
0.09168117036
0.09260615552
0.09183745114
0.09189395374
0.0918060477
0.09104402965
0.08984100392
0.08997896289
0.0920424806
0.09090084141
0.09126798827
0.08990950798
0.09111750654
0.09015641709
0.08999857405
0.09233233875
0.09114558312
0.09095703834
0.09218739027
0.09233926189
0.09220934304
0.09056422937
0.08988735906
0.08931048359
0.09189866872
0.09244021946
0.09251969365
0.09198422773
0.09012085902
0.09001233203
0.09024274708
0.09011178539
0.09147838878
0.0908019797
0.09162285875
0.09095087601
0.09234986128
0.09244757326
0.0928761309
0.09277879311
0.09170220075
0.09119935535
0.09204077764
0.09314005218
0.09176739963
0.0908630974
0.09054179903
0.09069305115
0.09081262423
0.09288640344
0.09339153232
0.09347454874
0.09186567316
0.0913492327
0.09090987288
0.09157558561
0.09039626904
0.09079413457
0.08985871204
0.09025532456
0.09051700848
0.09168985022
0.09170545069
0.09188643464
0.09275252658
0.09195970301
0.09164478297
0.09050546529
0.0914575185
0.09065435632
0.09103351318
0.09174916826
0.09352190913
0.09188416057
0.09143377121
0.09096932035
0.09247343253
0.09229794443
0.09193184436
0.09100593326
0.08987456196
0.09010533922
0.09059510467
0.090650527
0.0891718249
0.08949720647
0.09059209369
0.09167693381
0.09218988667
0.09076951149
0.09144227522
0.09088199234
0.09138614523
0.09110596494
0.0915850116
0.09280862542
0.09277609743
0.0938220259
0.09318630132
0.09216510692
0.0918542878
0.09164203853
0.09121384622
0.09099916093
0.09115025876
0.09296377886
0.09306475833
0.09251246512
0.09346933114
0.09257807617
0.09217915542
0.0911065593
0.0915141722
0.09156767848
0.09260099346
0.09335831049
0.09431747966
0.09422402447
0.09325978849
0.09249256698
0.09193533508
0.09030938415
0.09108241535
0.09234900886
0.09030827036
0.09011396801
0.0901571992
0.09200159369
0.09128989618
0.09152564202
0.09042854922
0.09028636391
0.09289189812
0.09317931937
0.09232727804
0.09225756949
0.09275818713
0.09072523447
0.09067459409
0.09129645751
0.09188215189
0.0922841438
0.09218614552
0.09214394005
0.092413141
0.0916951422
0.09175830332
0.0914758444
0.09117961496
0.09173983923
0.09051067543
0.09113674207
0.09275582417
0.09331210856
0.09270587161
0.09242096922
0.09289532522
0.09376897009
0.09208494136
0.09438910535
0.0947365287
0.09454595013
0.09345673738
0.09381850209
0.09253918756
0.09146064968
0.09169436279
0.09262269532
0.09291838091
0.09230160142
0.09340875787
0.09089898207
0.09109308758
0.09093329617
0.09218342552
0.0929185868
0.09189474144
0.09119159366
0.09167380643
0.09296097308
0.09180090955
0.09159937366
0.09268887172
0.09244883557
0.0915260231
0.09195991575
0.09191076266
0.09090014667
0.09229365809
0.09217914658
0.09196855398
0.09286996388
0.09192376942
0.09280088394
0.09216439745
0.09208151853
0.09230804896
0.0936636287
0.09275429087
0.09181215167
0.09043475321
0.09084267834
0.09053336084
0.09262579608
0.09275261913
0.09122132628
0.09118026809
0.0919689008
0.09456450417
0.09293805249
0.0927797923
0.09161136499
0.09176238439
0.09089176384
0.09176904477
0.0932515176
0.09157337485
0.09066368982
0.09099108279
0.09174119319
0.09242396317
0.09304326001
0.09225748354
0.0923123606
0.09134839109
0.09259048092
0.09357181203
0.09416286763
0.09154503325
0.09188510669
0.09241899956
0.09188933472
0.09084819299
0.0916222558
0.09190926564
0.09319832858
0.09419781365
0.09336849072
0.09200731372
0.09241691125
0.09174501484
0.09133037433
0.09049256961
0.09119156443
0.09141920363
0.09249788107
0.09163873973
0.09197752634
0.09165606292
0.09203920419
0.09213116158
0.09103829945
0.09105850064
0.09094584651
0.08995979799
0.09054125518
0.09013276574
0.09089066318
0.09031385904
0.09106543653
0.0911389083
0.0929629341
0.09313672319
0.09360618423
0.09357316024
0.0921605463
0.08961942291
0.09084410335
0.09142947286
0.09030382697
0.09217078133
0.0923704386
0.09211742725
0.09237150502
0.09177994647
0.09166204054
0.09129521244
0.09086389286
0.09104275885
0.09120346194
0.09122628493
0.09168566669
0.09224823747
0.09166915706
0.09202545653
0.09171649714
0.09215366944
0.09085393613
0.09126580839
0.0914233544
0.0911292232
0.09039522549
0.09146940969
0.09129819886
0.09141232512
0.09244379025
0.0944154048
0.09562793852
0.0937686001
0.09429517515
0.09194596967
0.09179218146
0.09095116105
0.09066095232
0.08995091636
0.09102375432
0.09083292606
0.09145047788
0.09035407286
0.0914888471
0.09180791459
0.09322937984
0.09276347767
0.09303162339
0.09304422726
0.0916610103
0.09158995236
0.09122707362
0.09135823593
0.09057575741
0.09154272221
0.09244115142
0.09152256668
0.09177047819
0.09338059321
0.09345211425
0.09275733198
0.09159655183
0.09156611143
0.09005654371
0.08928793905
0.0891583803
0.09024053714
0.08997578486
0.09008938431
0.09125017671
0.09187174714
0.09196719668
0.09110430519
0.09107196923
0.09248823821
0.09277758181
0.0939766929
0.09252471826
0.09141870679
0.09112044615
0.09188750911
0.0923855028
0.09149710848
0.09097762659
0.09185214766
0.0908033052
0.0916617927
0.09301034963
0.09117193997
0.09177896499
0.09361090134
0.0931508253
0.09184543781
0.09153991608
0.09047388358
0.08996725872
0.09008600004
0.08959779502
0.0906344359
0.09097797372
0.09046140853
0.09046101859
0.09164843307
0.0915195819
0.09076058747
0.0917394339
0.09227901808
0.09145062932
0.09326924495
0.09327678958
0.0920491726
0.09140793611
0.09213336859
0.09169012384
0.09112646133
0.09074176248
0.09158897126
0.09045179496
0.089555001
0.09091968468
0.09232646298
0.09301635653
0.09209315225
0.09215389843
0.09287131059
0.09264338999
0.09134190452
0.09152498571
0.09336420677
0.09220408292
0.09132488772
0.09128229855
0.09105876992
0.09016733123
0.09033362408
0.09042648846
0.09071460577
0.09082666113
0.09261049858
0.09145475607
0.09068236493
0.0903869757
0.09151464325
0.09237604768
0.09242911107
0.09267158318
0.09289461264
0.09345963281
0.09391460256
0.09384455033
0.09390847113
0.09270036184
0.09173334032
0.09002835174
0.09060420783
0.09134072311
0.09115240145
0.09230431566
0.09042429062
0.09050262958
0.09072810574
0.09165024716
0.09361902363
0.09453581046
0.09410180088
0.09210712512
0.0918942023
0.09245386289
0.09285893603
0.09218819824
0.09222357269
0.0922304703
0.09281842565
0.09304082815
0.09409522668
0.09327092541
0.09116526802
0.09053759893
0.09165821688
0.09237119163
0.09179201647
0.09187385405
0.0910443842
0.09214915431
0.09387854038
0.09504458377
0.09336679498
0.09244309836
0.09242663744
0.09311118014
0.09322865691
0.09376255092
0.09306048376
0.09299463214
0.09204403974
0.09087548873
0.09152045401
0.09168787471
0.09170586411
0.09258084961
0.09305163547
0.09205638179
0.09081580578
0.09061483065
0.09122739451
0.09157326305
0.09233732103
0.09214880418
0.09266243093
0.09215091297
0.09199709192
0.09363673767
0.09406202581
0.09261826497
0.09182491868
0.09134102813
0.09173742391
0.09187719361
0.09269578144
0.09221271183
0.09189063566
0.09071099076
0.09321643411
0.09169234293
0.09119217254
0.09226155757
0.09193470043
0.0919057224
0.09077050436
0.09145239686
0.09110563793
0.09093239435
0.09145674562
0.09288306949
0.09445568076
0.09389578043
0.09339356548
0.09182869166
0.09019149644
0.09154615843
0.09222891622
0.09313096459
0.09074271849
0.09055359258
0.08950887383
0.09019450709
0.09071119837
0.09201485375
0.09308700932
0.09288281735
0.09296525471
0.09235379386
0.09331736493
0.09456163512
0.09332809334
0.09177187899
0.09211774206
0.09268393928
0.09338394262
0.09387174576
0.09319719881
0.09112423518
0.09129660541
0.09256057919
0.09257730076
0.09323432093
0.09206646931
0.09251951878
0.09126977562
0.09127604608
0.09173306655
0.09097339206
0.09090416026
0.0912396929
0.09277632494
0.09330093779
0.09323441037
0.09295946695
0.09192061034
0.09040859947
0.09065990675
0.09019467407
0.09344139998
0.09256259858
0.09142422208
0.09302989865
0.09300280703
0.09216854084
0.09268496519
0.0913969845
0.09152064931
0.09341783103
0.09239516118
0.09175588498
0.09223330075
0.091999476
0.09200831572
0.09265207039
0.09309831044
0.09326693057
0.09491379812
0.09422431943
0.09152263195
0.09039637339
0.0899028188
0.08966034922
0.09040316197
0.09290797688
0.09295430138
0.09263523812
0.09269462699
0.09260487742
0.09151512916
0.09000039352
0.09118220414
0.09207741989
0.0927123192
0.09255174466
0.09139199834
0.09264074539
0.09213167625
0.09207001112
0.09213235111
0.09230310476
0.09123260567
0.09140894992
0.0917585135
0.09164634191
0.09094171481
0.09065757925
0.08989958497
0.09071451467
0.09213503242
0.09336780052
0.0930999949
0.09152905545
0.09054832183
0.0922857368
0.09164761728
0.09076305862
0.08995469257
0.09094170562
0.09070576861
0.09002017581
0.09029668531
0.09067507234
0.09266453917
0.09148967558
0.09206596479
0.0925817883
0.0924705864
0.09196723702
0.0920565618
0.09206012079
0.09266714206
0.09323596482
0.09332235777
0.09247719598
0.09253919985
0.09220718555
0.09299014997
0.09185402247
0.09386346005
0.09336577959
0.09258606391
0.09202436664
0.09305648529
0.09213368669
0.09288970152
0.09271234707
0.09083145463
0.09014733459
0.09092539365
0.09100404775
0.09110074832
0.09100944519
0.09182731782
0.0925674737
0.09091664296
0.08970004291
0.0900166056
0.09289876064
0.09307304405
0.09359092625
0.09258310462
0.09180251055
0.09065983209
0.09134940554
0.08992666346
0.09027061348
0.09095094604
0.09050201607
0.09135302566
0.09135028498
0.0905763603
0.09029065993
0.09014806391
0.08991939275
0.09078213538
0.09195645836
0.09258399661
0.09249024547
0.09257108931
0.09232245702
0.09383326808
0.09317745959
0.09078301885
0.09025582248
0.09130514313
0.09184008958
0.09067303132
0.09093440345
0.09109556676
0.09164504753
0.0915837913
0.09179862885
0.09200224978
0.091595417
0.09165095874
0.09237034386
0.09253828934
0.09190032314
0.09102836424
0.09180179374
0.09212354374
0.09164921169
0.09192858187
0.09283250452
0.09243633377
0.09207409689
0.0916525816
0.09139529268
0.09077259625
0.09078014928
0.09182023813
0.09085174544
0.09141651192
0.09192889155
0.09198559102
0.09098294869
0.09129819967
0.09093908444
0.09387358298
0.09274023633
0.09380672454
0.09328278687
0.0935481222
0.09388705585
0.09476313976
0.09383850715
0.09323921414
0.09305296557
0.09201419438
0.09280148423
0.09230766481
0.09303871777
0.0914546908
0.09089799645
0.09028762642
0.09085651329
0.09207042687
0.09307608317
0.09179867387
0.09244105456
0.09168945745
0.09168076572
0.09255615962
0.09268685414
0.09183072064
0.09151557294
0.09070386461
0.08916013757
0.09056290269
0.09201696435
0.09211772794
0.0919481718
0.09212871188
0.09288116461
0.09444058689
0.09413473772
0.09294341112
0.09259966863
0.09008687548
0.09030939616
0.09075766328
0.09177875804
0.09143360567
0.09065958416
0.09153075247
0.09062257065
0.09104319235
0.09152080319
0.09208937313
0.09396350467
0.09323073767
0.09202431969
0.09203900848
0.09164214987
0.09024640045
0.0896499324
0.09001023514
0.08966523196
0.09035349165
0.09085452237
0.09170111164
0.09204765046
0.09343311808
0.09303543196
0.09335867931
0.09364246647
0.09297094922
0.09292039475
0.09325656306
0.09171767215
0.0920100179
0.09269935533
0.09273938585
0.09171568589
0.09216900401
0.09207192683
0.0909067271
0.09021355436
0.09208180266
0.09252671001
0.0930405166
0.0929193911
0.09196745965
0.09130646108
0.0914293324
0.09080371279
0.09227926989
0.09129011414
0.09356038412
0.09356217707
0.09299885438
0.09280642895
0.09131460058
0.09272834765
0.09377907488
0.09260835662
0.09166993115
0.09217814185
0.09177888389
0.09150243083
0.09077692254
0.08953141675
0.0890428042
0.09016698285
0.09084062982
0.09236638406
0.09414180741
0.09390718149
0.09226178979
0.09172448302
0.09057159457
0.09195210353
0.09193511212
0.09321187549
0.09264655759
0.09095740676
0.09214045409
0.09149236772
0.09003215682
0.08997155039
0.09076930773
0.08989445486
0.08936180112
0.08954692846
0.09032941477
0.08993633677
0.09047871912
0.09168505187
0.09193055535
0.09223277793
0.0926613653
0.09221250539
0.0914094053
0.0921773902
0.09223958093
0.09273978043
0.09033073616
0.09037969348
0.09285890925
0.09197730398
0.0908689003
0.09100652611
0.0909468085
0.09091406925
0.0896719235
0.09139490525
0.08979068546
0.08999502454
0.091911294
0.09268079196
0.09243592222
0.0924800105
0.09267339855
0.0923286532
0.09202418069
0.09052784321
0.09110871298
0.09385107787
0.09229989686
0.09201027471
0.09284683134
0.09319291549
0.09232239276
0.09076354977
0.09137173832
0.09099819176
0.09100630761
0.09049385447
0.09124153627
0.09217854976
0.09268094337
0.09240883187
0.09136036557
0.09220536483
0.09185904691
0.09279256384
0.0924856794
0.09249546734
0.09088069604
0.09063134898
0.09101214224
0.09188399865
0.09348351478
0.09234955716
0.09150625786
0.09146990555
0.09236092917
0.09192206067
0.09194123532
0.091689444
0.0914813352
0.09174448992
0.09215148377
0.09233051787
0.09206042801
0.09122464655
0.0908847251
0.09072842305
0.09019156537
0.09039438392
0.09141956265
0.09046566198
0.08889797446
0.09040829163
0.09037812929
0.09179643381
0.09203074673
0.09122839207
0.09160566472
0.08976708652
0.09050931569
0.09197090649
0.09245495579
0.09113552152
0.09037678636
0.09181896857
0.09272534246
0.09095440815
0.09343694855
0.09436686043
0.09312503032
0.09265956458
0.09271950916
0.0936541504
0.0920159553
0.09244243946
0.091764795
0.0918605241
0.09230143939
0.09209667391
0.09153246983
0.09132413378
0.09027713842
0.09101332249
0.09086660324
0.08995197886
0.08996386005
0.09077794525
0.0911342685
0.09259464306
0.09352976879
0.0953568344
0.09369916135
0.09295253764
0.09345929762
0.09269425902
0.09267086103
0.0920762441
0.09281249546
0.0922473061
0.0917320192
0.0910386209
0.09072521362
0.09071024443
0.09134170065