/*--------------------------------*- C++ -*----------------------------------*\
| =========                 |                                                 |
| \\      /  F ield         | OpenFOAM: The Open Source CFD Toolbox           |
|  \\    /   O peration     | Version:  v1706                                 |
|   \\  /    A nd           | Web:      www.OpenFOAM.com                      |
|    \\/     M anipulation  |                                                 |
\*---------------------------------------------------------------------------*/
FoamFile
{
    version     2.0;
    format      ascii;
    class       volScalarField;
    location    "0.01";
    object      rhoM_mixture;
}
// * * * * * * * * * * * * * * * * * * * * * * * * * * * * * * * * * * * * * //

dimensions      [1 -3 0 0 0 0 0];


internalField   nonuniform List<scalar> 
5120
(
4.814843408e-06
4.810249872e-06
4.816065072e-06
4.81186096e-06
4.8177808e-06
4.80616808e-06
4.812196912e-06
4.805476608e-06
4.808352752e-06
4.789305968e-06
4.798413264e-06
4.79518464e-06
4.79406424e-06
4.764916352e-06
4.762455216e-06
4.759213008e-06
4.776274784e-06
4.798963536e-06
4.781886768e-06
4.793310928e-06
4.775040736e-06
4.787523792e-06
4.791476128e-06
4.782325952e-06
4.771924176e-06
4.784218112e-06
4.77998624e-06
4.7716396e-06
4.773004512e-06
4.768313296e-06
4.776347216e-06
4.783091136e-06
4.79795824e-06
4.816902608e-06
4.801371504e-06
4.77547808e-06
4.779167632e-06
4.753479216e-06
4.748968064e-06
4.767471072e-06
4.757410576e-06
4.744657936e-06
4.766663168e-06
4.753494112e-06
4.752882592e-06
4.77512704e-06
4.799744816e-06
4.784694064e-06
4.7813324e-06
4.743962368e-06
4.735259024e-06
4.743809856e-06
4.733714176e-06
4.738725792e-06
4.74593888e-06
4.768793008e-06
4.781402016e-06
4.773672016e-06
4.767932496e-06
4.761434368e-06
4.816533936e-06
4.791043904e-06
4.805312816e-06
4.79859072e-06
4.800377392e-06
4.789143632e-06
4.78772632e-06
4.8016536e-06
4.80009248e-06
4.79926152e-06
4.80794616e-06
4.78402976e-06
4.790130176e-06
4.7832712e-06
4.787575936e-06
4.791746224e-06
4.783474368e-06
4.79770416e-06
4.799713344e-06
4.811318848e-06
4.852642336e-06
4.85569056e-06
4.84611e-06
4.813224e-06
4.800628144e-06
4.79304968e-06
4.806906528e-06
4.805260672e-06
4.834226448e-06
4.851202928e-06
4.830762528e-06
4.820067376e-06
4.813341696e-06
4.831857728e-06
4.815272848e-06
4.803902592e-06
4.772943312e-06
4.776683728e-06
4.79871104e-06
4.822112576e-06
4.804076208e-06
4.790923376e-06
4.800331472e-06
4.824610992e-06
4.822089296e-06
4.8135072e-06
4.803856512e-06
4.813533808e-06
4.792186176e-06
4.79066264e-06
4.800820464e-06
4.808610256e-06
4.785323264e-06
4.729341232e-06
4.73785824e-06
4.757182464e-06
4.760600208e-06
4.757716544e-06
4.781208496e-06
4.785824288e-06
4.792364784e-06
4.770177776e-06
4.762331696e-06
4.777512464e-06
4.784722512e-06
4.783856192e-06
4.777617056e-06
4.788975312e-06
4.773058624e-06
4.772138832e-06
4.768885776e-06
4.758321056e-06
4.774118672e-06
4.791591568e-06
4.788657552e-06
4.780254624e-06
4.790012048e-06
4.823368192e-06
4.790288032e-06
4.799057072e-06
4.783428192e-06
4.799865728e-06
4.810679312e-06
4.803370176e-06
4.805445472e-06
4.798088752e-06
4.809583728e-06
4.812900592e-06
4.819987216e-06
4.801198528e-06
4.80711256e-06
4.813405168e-06
4.81210872e-06
4.794743536e-06
4.800202368e-06
4.795409456e-06
4.787827696e-06
4.772333664e-06
4.780760128e-06
4.789026e-06
4.816701872e-06
4.816591424e-06
4.820787376e-06
4.809769344e-06
4.813841952e-06
4.821736128e-06
4.7990592e-06
4.792529936e-06
4.792794816e-06
4.79746664e-06
4.801846464e-06
4.792789184e-06
4.798124848e-06
4.815935792e-06
4.811510144e-06
4.833445376e-06
4.824125088e-06
4.820859392e-06
4.80293552e-06
4.820323552e-06
4.810182384e-06
4.805847664e-06
4.812825296e-06
4.79580952e-06
4.820056192e-06
4.836419584e-06
4.8440332e-06
4.835401648e-06
4.824181856e-06
4.834077312e-06
4.811894576e-06
4.830344032e-06
4.837907376e-06
4.822956176e-06
4.806947232e-06
4.818163136e-06
4.816593216e-06
4.83255992e-06
4.82677504e-06
4.809298512e-06
4.806479008e-06
4.813491104e-06
4.808438144e-06
4.788573808e-06
4.794862912e-06
4.795828528e-06
4.80962016e-06
4.81450656e-06
4.83018032e-06
4.825856624e-06
4.828040832e-06
4.849931472e-06
4.838452304e-06
4.86268112e-06
4.857522624e-06
4.871521056e-06
4.857196192e-06
4.833616384e-06
4.825915344e-06
4.828726144e-06
4.80684408e-06
4.81792528e-06
4.808125024e-06
4.80588008e-06
4.79390232e-06
4.77967744e-06
4.781805104e-06
4.77756576e-06
4.794464512e-06
4.808529872e-06
4.79965304e-06
4.807952144e-06
4.800192848e-06
4.797632496e-06
4.793303328e-06
4.783576704e-06
4.802410496e-06
4.811457104e-06
4.84152624e-06
4.837652992e-06
4.800665472e-06
4.815055552e-06
4.814233776e-06
4.803923056e-06
4.795817344e-06
4.803790784e-06
4.815201184e-06
4.823913712e-06
4.816216944e-06
4.807265456e-06
4.793726192e-06
4.796641296e-06
4.792325968e-06
4.79786048e-06
4.810997504e-06
4.7940188e-06
4.77941944e-06
4.778887536e-06
4.79587632e-06
4.791128688e-06
4.757938416e-06
4.772341312e-06
4.788890832e-06
4.77343088e-06
4.748921888e-06
4.7355064e-06
4.752977376e-06
4.757210016e-06
4.773727072e-06
4.781439344e-06
4.76922664e-06
4.770267808e-06
4.765729104e-06
4.780861184e-06
4.797948416e-06
4.793481168e-06
4.811638016e-06
4.78267544e-06
4.792972624e-06
4.772288608e-06
4.80357352e-06
4.791402368e-06
4.777546112e-06
4.757781888e-06
4.758513504e-06
4.775138016e-06
4.77205896e-06
4.753737424e-06
4.782286656e-06
4.797119424e-06
4.800582912e-06
4.80605464e-06
4.80012472e-06
4.7847788e-06
4.803993776e-06
4.820191408e-06
4.823344656e-06
4.809474736e-06
4.819571696e-06
4.81786776e-06
4.779736512e-06
4.786542656e-06
4.79215392e-06
4.78680968e-06
4.79424528e-06
4.77416864e-06
4.786771968e-06
4.803902464e-06
4.78275928e-06
4.768570016e-06
4.787280336e-06
4.783561488e-06
4.776882016e-06
4.763147952e-06
4.755276672e-06
4.744961168e-06
4.736425328e-06
4.767845664e-06
4.76242856e-06
4.777708496e-06
4.792198592e-06
4.79120936e-06
4.793621552e-06
4.813138912e-06
4.792162592e-06
4.78565016e-06
4.79714304e-06
4.78999248e-06
4.807256352e-06
4.798910656e-06
4.792326896e-06
4.777919904e-06
4.778179792e-06
4.77217616e-06
4.784265008e-06
4.815373136e-06
4.830642096e-06
4.814452704e-06
4.8120848e-06
4.8034248e-06
4.743630384e-06
4.772092192e-06
4.763175808e-06
4.753373328e-06
4.760270704e-06
4.761055408e-06
4.748279104e-06
4.757616688e-06
4.78118176e-06
4.785885744e-06
4.78729264e-06
4.796331344e-06
4.792843856e-06
4.787915392e-06
4.800355568e-06
4.812636224e-06
4.781022544e-06
4.79780816e-06
4.783846752e-06
4.754254768e-06
4.783005296e-06
4.760611664e-06
4.778544416e-06
4.796522608e-06
4.761516032e-06
4.751012864e-06
4.759897856e-06
4.777250864e-06
4.778074048e-06
4.784656144e-06
4.777328128e-06
4.784582768e-06
4.790568848e-06
4.796951616e-06
4.76238256e-06
4.768360016e-06
4.765568688e-06
4.756268944e-06
4.780526384e-06
4.783354656e-06
4.75617072e-06
4.767232704e-06
4.783234512e-06
4.790535792e-06
4.809781776e-06
4.810220272e-06
4.798446704e-06
4.799221328e-06
4.782646144e-06
4.784132352e-06
4.793008416e-06
4.823330992e-06
4.817289856e-06
4.80187184e-06
4.790270944e-06
4.763601232e-06
4.782001056e-06
4.780814288e-06
4.7750336e-06
4.761640448e-06
4.768501472e-06
4.757908224e-06
4.776084976e-06
4.795016704e-06
4.792120912e-06
4.78863432e-06
4.792877984e-06
4.774632512e-06
4.790854704e-06
4.789767488e-06
4.816223568e-06
4.827679888e-06
4.832227856e-06
4.827582128e-06
4.829307168e-06
4.824103184e-06
4.815889712e-06
4.811630928e-06
4.80060008e-06
4.790411888e-06
4.7844056e-06
4.787680608e-06
4.78648376e-06
4.791624832e-06
4.795171264e-06
4.814294288e-06
4.795555056e-06
4.79809008e-06
4.786277904e-06
4.807150912e-06
4.787893008e-06
4.788292512e-06
4.793986672e-06
4.813480416e-06
4.82348384e-06
4.819798992e-06
4.826578704e-06
4.815236336e-06
4.785004304e-06
4.77718064e-06
4.799694432e-06
4.807432544e-06
4.793100848e-06
4.798534096e-06
4.793226752e-06
4.788544976e-06
4.80691456e-06
4.813325904e-06
4.81561808e-06
4.810444416e-06
4.818340256e-06
4.796922448e-06
4.805890384e-06
4.798873504e-06
4.835628432e-06
4.825223536e-06
4.81512192e-06
4.794699376e-06
4.802703488e-06
4.798607904e-06
4.78853656e-06
4.784354784e-06
4.77472464e-06
4.78264512e-06
4.778015664e-06
4.797819008e-06
4.81107408e-06
4.804834e-06
4.805921856e-06
4.808963248e-06
4.804955472e-06
4.799560144e-06
4.77877256e-06
4.788640384e-06
4.766810816e-06
4.775680432e-06
4.764359888e-06
4.77780472e-06
4.768858864e-06
4.77660928e-06
4.824366608e-06
4.83548424e-06
4.838295168e-06
4.850761056e-06
4.861240608e-06
4.828413376e-06
4.8182184e-06
4.794162768e-06
4.81264216e-06
4.785048e-06
4.78282808e-06
4.773310432e-06
4.793364608e-06
4.793453616e-06
4.803709328e-06
4.794156064e-06
4.807109184e-06
4.814822864e-06
4.823679584e-06
4.817946e-06
4.790208592e-06
4.769309536e-06
4.78731088e-06
4.784754752e-06
4.784111632e-06
4.790717088e-06
4.805411392e-06
4.801278432e-06
4.82167992e-06
4.817633232e-06
4.83282352e-06
4.809428736e-06
4.797754128e-06
4.789320832e-06
4.779674928e-06
4.792362864e-06
4.799957392e-06
4.803125456e-06
4.812291088e-06
4.786785552e-06
4.826046672e-06
4.824164848e-06
4.826882368e-06
4.819400896e-06
4.80808112e-06
4.831489408e-06
4.81573984e-06
4.835118992e-06
4.844274848e-06
4.839078464e-06
4.845377312e-06
4.825975392e-06
4.8242952e-06
4.82872328e-06
4.817283616e-06
4.822758768e-06
4.80913968e-06
4.817308176e-06
4.834629072e-06
4.814354256e-06
4.770915328e-06
4.790487056e-06
4.80286936e-06
4.796511968e-06
4.808494944e-06
4.802092528e-06
4.781077424e-06
4.783468688e-06
4.805768912e-06
4.786550176e-06
4.802621776e-06
4.800467936e-06
4.790187152e-06
4.780636832e-06
4.777541712e-06
4.77245376e-06
4.78592896e-06
4.774512064e-06
4.759543824e-06
4.774388464e-06
4.783025744e-06
4.753330016e-06
4.762317984e-06
4.791462544e-06
4.795690528e-06
4.799565776e-06
4.7860972e-06
4.772817824e-06
4.74455496e-06
4.761012736e-06
4.767457776e-06
4.793523488e-06
4.7960536e-06
4.78893264e-06
4.781094464e-06
4.790270224e-06
4.794604896e-06
4.792904368e-06
4.7899572e-06
4.79696272e-06
4.802427584e-06
4.797546608e-06
4.79002896e-06
4.787019728e-06
4.802808032e-06
4.836508416e-06
4.817711568e-06
4.826487904e-06
4.835839456e-06
4.837143552e-06
4.825627904e-06
4.803869792e-06
4.777602576e-06
4.790111216e-06
4.784094336e-06
4.785793536e-06
4.772249872e-06
4.78829704e-06
4.79148928e-06
4.809029408e-06
4.841979296e-06
4.814702384e-06
4.800642448e-06
4.819011136e-06
4.809588512e-06
4.814233008e-06
4.787797296e-06
4.797546304e-06
4.77725936e-06
4.782391808e-06
4.802846e-06
4.801017904e-06
4.802894688e-06
4.81168256e-06
4.80436424e-06
4.816431264e-06
4.830440336e-06
4.842928944e-06
4.826145424e-06
4.826286576e-06
4.813253424e-06
4.796444272e-06
4.799571376e-06
4.7954684e-06
4.790224176e-06
4.79160224e-06
4.786106848e-06
4.789688768e-06
4.780065072e-06
4.781851488e-06
4.75605472e-06
4.777651136e-06
4.78452528e-06
4.80206664e-06
4.806427456e-06
4.793861072e-06
4.808248672e-06
4.7961784e-06
4.790759584e-06
4.791312848e-06
4.789081664e-06
4.774958304e-06
4.757418608e-06
4.763213696e-06
4.770371088e-06
4.807701824e-06
4.79931512e-06
4.793990352e-06
4.783615696e-06
4.815996272e-06
4.819421616e-06
4.821523648e-06
4.797611904e-06
4.783813264e-06
4.791082512e-06
4.774967904e-06
4.75752768e-06
4.772200544e-06
4.777241936e-06
4.794843904e-06
4.793657088e-06
4.799611568e-06
4.817218656e-06
4.815836448e-06
4.807908368e-06
4.789512688e-06
4.78016464e-06
4.797702416e-06
4.793119808e-06
4.771677744e-06
4.790241184e-06
4.777782e-06
4.79124592e-06
4.789200304e-06
4.763442096e-06
4.77557592e-06
4.799484672e-06
4.819365024e-06
4.824169248e-06
4.809409728e-06
4.813126784e-06
4.8177764e-06
4.803086112e-06
4.796386016e-06
4.801636944e-06
4.819195216e-06
4.811387568e-06
4.77945792e-06
4.76020976e-06
4.764495744e-06
4.769991136e-06
4.75940088e-06
4.761869024e-06
4.752135904e-06
4.791479632e-06
4.806954704e-06
4.807684912e-06
4.813826368e-06
4.815836192e-06
4.817509936e-06
4.798216544e-06
4.779820864e-06
4.76464224e-06
4.773390944e-06
4.77977256e-06
4.781338848e-06
4.792016016e-06
4.799307392e-06
4.807733936e-06
4.800697584e-06
4.814172784e-06
4.81219832e-06
4.792035792e-06
4.803834688e-06
4.782188512e-06
4.787415264e-06
4.771522064e-06
4.781794944e-06
4.794882768e-06
4.792711584e-06
4.811627472e-06
4.823404496e-06
4.820401888e-06
4.805807872e-06
4.798296032e-06
4.804693408e-06
4.823063632e-06
4.831732896e-06
4.816302752e-06
4.798261392e-06
4.790966432e-06
4.77432368e-06
4.788684288e-06
4.796953792e-06
4.80896e-06
4.784163312e-06
4.7839188e-06
4.7934684e-06
4.79163368e-06
4.792044976e-06
4.79656616e-06
4.796380928e-06
4.791002688e-06
4.798797904e-06
4.785167584e-06
4.781488288e-06
4.786055392e-06
4.795756224e-06
4.819118336e-06
4.818114832e-06
4.821204912e-06
4.822694192e-06
4.806384192e-06
4.798238288e-06
4.809706352e-06
4.814220064e-06
4.807512912e-06
4.810407248e-06
4.81180368e-06
4.808774464e-06
4.78582536e-06
4.779690736e-06
4.794631728e-06
4.775796656e-06
4.800791216e-06
4.798520304e-06
4.800000912e-06
4.797184048e-06
4.779740144e-06
4.7851968e-06
4.796952128e-06
4.79791032e-06
4.81405576e-06
4.822576144e-06
4.789898912e-06
4.806247824e-06
4.797577744e-06
4.807285664e-06
4.806542688e-06
4.818596384e-06
4.763052672e-06
4.760034e-06
4.775488448e-06
4.77773856e-06
4.777544656e-06
4.79906488e-06
4.779093728e-06
4.782554528e-06
4.77147576e-06
4.771882016e-06
4.770797664e-06
4.782912992e-06
4.774954496e-06
4.77304256e-06
4.7881092e-06
4.805948976e-06
4.786536384e-06
4.779912864e-06
4.765013344e-06
4.752295168e-06
4.809766608e-06
4.809575744e-06
4.798250288e-06
4.777459888e-06
4.761065152e-06
4.739434992e-06
4.733159424e-06
4.775119104e-06
4.78499752e-06
4.762009072e-06
4.777198032e-06
4.780238224e-06
4.79737696e-06
4.803100336e-06
4.815708016e-06
4.803749088e-06
4.790030144e-06
4.779553024e-06
4.816518688e-06
4.819164032e-06
4.76704256e-06
4.778656432e-06
4.784248944e-06
4.789322752e-06
4.810340112e-06
4.801404896e-06
4.795174896e-06
4.7847416e-06
4.77846872e-06
4.800898272e-06
4.801662688e-06
4.802180752e-06
4.791159088e-06
4.79437584e-06
4.79985616e-06
4.769045376e-06
4.790327408e-06
4.762141168e-06
4.756570096e-06
4.767510144e-06
4.778195808e-06
4.778460096e-06
4.798683872e-06
4.803048912e-06
4.792837104e-06
4.793347824e-06
4.795736352e-06
4.76694552e-06
4.755760576e-06
4.769933264e-06
4.78294344e-06
4.790331808e-06
4.800537168e-06
4.783822112e-06
4.783478896e-06
4.784508192e-06
4.77366304e-06
4.781042992e-06
4.769919296e-06
4.768177472e-06
4.827363664e-06
4.823100016e-06
4.803394816e-06
4.781326672e-06
4.80452696e-06
4.815817568e-06
4.795406896e-06
4.79847408e-06
4.789156352e-06
4.79063312e-06
4.785765088e-06
4.796259248e-06
4.77873856e-06
4.787037872e-06
4.801647648e-06
4.813661632e-06
4.807860912e-06
4.799534176e-06
4.821372112e-06
4.823801216e-06
4.837368464e-06
4.851977472e-06
4.852841312e-06
4.863568448e-06
4.842935088e-06
4.847028416e-06
4.838104432e-06
4.831821008e-06
4.81737088e-06
4.804775328e-06
4.791611648e-06
4.811275712e-06
4.827000592e-06
4.823369216e-06
4.814078096e-06
4.81574048e-06
4.819833888e-06
4.81442016e-06
4.817127648e-06
4.82858952e-06
4.790811088e-06
4.807272112e-06
4.812946416e-06
4.834420944e-06
4.83494768e-06
4.828467488e-06
4.83542312e-06
4.835009008e-06
4.814785152e-06
4.826528864e-06
4.817999472e-06
4.80002192e-06
4.797594272e-06
4.79641976e-06
4.784580464e-06
4.777131152e-06
4.782871616e-06
4.785522848e-06
4.785922432e-06
4.785924352e-06
4.728962992e-06
4.754686944e-06
4.757352832e-06
4.774668304e-06
4.772989008e-06
4.770392096e-06
4.780866304e-06
4.761243968e-06
4.758725344e-06
4.762063648e-06
4.770308896e-06
4.776002208e-06
4.786642864e-06
4.78730384e-06
4.788113824e-06
4.783948192e-06
4.773933616e-06
4.766129088e-06
4.738603392e-06
4.73425496e-06
4.77675496e-06
4.782162032e-06
4.769084032e-06
4.770644464e-06
4.784838464e-06
4.771356304e-06
4.78539224e-06
4.782956304e-06
4.780810448e-06
4.78722384e-06
4.7900328e-06
4.799740208e-06
4.78859216e-06
4.78015848e-06
4.806800688e-06
4.791200432e-06
4.784698896e-06
4.7907408e-06
4.783581952e-06
4.777786096e-06
4.770063792e-06
4.772747744e-06
4.790294912e-06
4.786458144e-06
4.769401024e-06
4.769758032e-06
4.788043392e-06
4.786795376e-06
4.808998608e-06
4.800877008e-06
4.803097008e-06
4.789839712e-06
4.815052944e-06
4.80327784e-06
4.790952256e-06
4.800228128e-06
4.800174528e-06
4.777526e-06
4.763157488e-06
4.777076528e-06
4.848532864e-06
4.855694912e-06
4.83085368e-06
4.831449136e-06
4.825622224e-06
4.821242832e-06
4.79976912e-06
4.7947572e-06
4.787671392e-06
4.803056176e-06
4.786306992e-06
4.788520368e-06
4.810626352e-06
4.80680752e-06
4.835267872e-06
4.821629568e-06
4.815494816e-06
4.795892208e-06
4.787189072e-06
4.811839696e-06
4.781421488e-06
4.7861388e-06
4.806793472e-06
4.815950992e-06
4.826782432e-06
4.815808304e-06
4.799925568e-06
4.81868112e-06
4.802101232e-06
4.789865248e-06
4.772359296e-06
4.765405584e-06
4.775881936e-06
4.782655968e-06
4.774311376e-06
4.750443664e-06
4.768897728e-06
4.776546112e-06
4.79354224e-06
4.786427856e-06
4.820515792e-06
4.809816752e-06
4.81610304e-06
4.798594816e-06
4.795915008e-06
4.805930224e-06
4.80207176e-06
4.801780736e-06
4.82148944e-06
4.831585888e-06
4.82513688e-06
4.803293264e-06
4.788813664e-06
4.80773552e-06
4.81612816e-06
4.816033728e-06
4.798640144e-06
4.808975424e-06
4.800568352e-06
4.816879376e-06
4.780643616e-06
4.79528304e-06
4.803151504e-06
4.826089344e-06
4.828628208e-06
4.834962928e-06
4.8276464e-06
4.813223136e-06
4.77992008e-06
4.782677664e-06
4.78338848e-06
4.805716512e-06
4.810898928e-06
4.779090704e-06
4.76264792e-06
4.776820864e-06
4.784076016e-06
4.79574024e-06
4.79696784e-06
4.797811312e-06
4.772375696e-06
4.765449232e-06
4.77216304e-06
4.773272464e-06
4.790234176e-06
4.77794344e-06
4.793879392e-06
4.782140592e-06
4.780989232e-06
4.78937512e-06
4.787746304e-06
4.801760368e-06
4.792717008e-06
4.793020288e-06
4.780604368e-06
4.763745504e-06
4.776670992e-06
4.779825008e-06
4.774401024e-06
4.768235392e-06
4.829270176e-06
4.813735568e-06
4.806974176e-06
4.812563792e-06
4.803956624e-06
4.794791712e-06
4.798741488e-06
4.791531648e-06
4.790364096e-06
4.78064208e-06
4.764838656e-06
4.769098128e-06
4.775535392e-06
4.778106032e-06
4.777253504e-06
4.782862032e-06
4.796086528e-06
4.811834944e-06
4.821992512e-06
4.81889112e-06
4.779799424e-06
4.786266928e-06
4.781724896e-06
4.762702496e-06
4.761291456e-06
4.755407872e-06
4.754781584e-06
4.77479728e-06
4.763083248e-06
4.7735956e-06
4.793201584e-06
4.784142592e-06
4.789410816e-06
4.774098208e-06
4.776151856e-06
4.781415936e-06
4.774024368e-06
4.77913008e-06
4.770697936e-06
4.770726592e-06
4.796719184e-06
4.801313104e-06
4.784679792e-06
4.793598608e-06
4.789999648e-06
4.789665104e-06
4.7824448e-06
4.767326352e-06
4.775336016e-06
4.786913888e-06
4.791329584e-06
4.796292944e-06
4.814768192e-06
4.79369352e-06
4.781585536e-06
4.767070144e-06
4.766818544e-06
4.777014672e-06
4.77844672e-06
4.791992304e-06
4.808235472e-06
4.784383904e-06
4.764470544e-06
4.756441232e-06
4.770848016e-06
4.765984976e-06
4.782626016e-06
4.821516384e-06
4.809746528e-06
4.814327168e-06
4.79796152e-06
4.779333632e-06
4.76895176e-06
4.775490672e-06
4.782356016e-06
4.785753088e-06
4.830003328e-06
4.817743088e-06
4.823762912e-06
4.816424128e-06
4.777264224e-06
4.795524256e-06
4.790934432e-06
4.782689184e-06
4.772293728e-06
4.7676764e-06
4.7940896e-06
4.791472016e-06
4.816850752e-06
4.8232852e-06
4.819711312e-06
4.812064896e-06
4.799756688e-06
4.79407e-06
4.796819472e-06
4.798041008e-06
4.777615856e-06
4.780577376e-06
4.781699312e-06
4.788538432e-06
4.790100832e-06
4.783816128e-06
4.789941616e-06
4.801184688e-06
4.785180784e-06
4.766600384e-06
4.743721184e-06
4.7571216e-06
4.754832496e-06
4.757207616e-06
4.747363664e-06
4.756954176e-06
4.762615408e-06
4.806665424e-06
4.81747824e-06
4.825771024e-06
4.822532448e-06
4.815179872e-06
4.807654624e-06
4.806393152e-06
4.845331728e-06
4.81981432e-06
4.820682352e-06
4.801734016e-06
4.801133824e-06
4.788901936e-06
4.800081968e-06
4.83135256e-06
4.824695728e-06
4.833032544e-06
4.819003744e-06
4.80567384e-06
4.794146192e-06
4.789244464e-06
4.802043744e-06
4.804192544e-06
4.80774768e-06
4.804193008e-06
4.821921648e-06
4.84361976e-06
4.777780848e-06
4.764573264e-06
4.758757296e-06
4.771728048e-06
4.76918064e-06
4.766449152e-06
4.784321424e-06
4.781591648e-06
4.817007712e-06
4.815650832e-06
4.811479904e-06
4.818540256e-06
4.827665744e-06
4.816549392e-06
4.81280056e-06
4.792185952e-06
4.79525976e-06
4.80200296e-06
4.785564832e-06
4.800232992e-06
4.824957072e-06
4.830677072e-06
4.805454272e-06
4.782674288e-06
4.792864656e-06
4.8021688e-06
4.802451968e-06
4.823627952e-06
4.844194816e-06
4.822650336e-06
4.822010416e-06
4.786850304e-06
4.781464416e-06
4.787451648e-06
4.786170448e-06
4.795981856e-06
4.778353664e-06
4.769539184e-06
4.787208032e-06
4.808814832e-06
4.791200176e-06
4.792048944e-06
4.792661696e-06
4.799208256e-06
4.81563016e-06
4.820343328e-06
4.820079168e-06
4.809845536e-06
4.798067872e-06
4.794177456e-06
4.773946336e-06
4.788197056e-06
4.789567904e-06
4.811095648e-06
4.791281632e-06
4.7974816e-06
4.808474176e-06
4.808846944e-06
4.810747008e-06
4.81042912e-06
4.781574384e-06
4.779059696e-06
4.784575072e-06
4.754654528e-06
4.783662592e-06
4.779467664e-06
4.792705184e-06
4.805954192e-06
4.817352256e-06
4.839304784e-06
4.828599936e-06
4.84038632e-06
4.843002192e-06
4.851942064e-06
4.845066384e-06
4.829874304e-06
4.82305376e-06
4.80951552e-06
4.8180816e-06
4.801069712e-06
4.792715344e-06
4.78127824e-06
4.771300144e-06
4.7702368e-06
4.764627888e-06
4.777944848e-06
4.784730624e-06
4.787789312e-06
4.777818e-06
4.776858912e-06
4.791131072e-06
4.787397664e-06
4.783704784e-06
4.778173216e-06
4.767063616e-06
4.779049232e-06
4.799611392e-06
4.79660336e-06
4.807507616e-06
4.796883104e-06
4.794174128e-06
4.788464336e-06
4.784536384e-06
4.773147632e-06
4.77457592e-06
4.795565264e-06
4.76840576e-06
4.775615216e-06
4.766694304e-06
4.770870704e-06
4.78509336e-06
4.75651432e-06
4.735989824e-06
4.733179664e-06
4.735634048e-06
4.758902976e-06
4.759967424e-06
4.753042112e-06
4.775972944e-06
4.77939304e-06
4.80661824e-06
4.79100504e-06
4.77670192e-06
4.786177456e-06
4.79102456e-06
4.77323864e-06
4.780046928e-06
4.777732672e-06
4.771806208e-06
4.754233968e-06
4.763640656e-06
4.775004464e-06
4.774659248e-06
4.780554832e-06
4.779198848e-06
4.776547312e-06
4.78376936e-06
4.778764192e-06
4.774944128e-06
4.780706112e-06
4.745783168e-06
4.76609232e-06
4.798140528e-06
4.798089952e-06
4.78600264e-06
4.784660496e-06
4.800068944e-06
4.811602656e-06
4.827152816e-06
4.815390608e-06
4.806577536e-06
4.789335184e-06
4.771116704e-06
4.7736024e-06
4.79478064e-06
4.797399552e-06
4.766194048e-06
4.77877688e-06
4.772644816e-06
4.755379616e-06
4.813124992e-06
4.799176144e-06
4.778811984e-06
4.769515184e-06
4.784714224e-06
4.768165728e-06
4.766885296e-06
4.785404704e-06
4.777832816e-06
4.787115008e-06
4.80195576e-06
4.81931992e-06
4.838581152e-06
4.84347016e-06
4.840149408e-06
4.86116224e-06
4.83716384e-06
4.816428144e-06
4.786632048e-06
4.806621056e-06
4.802433552e-06
4.807490784e-06
4.818110432e-06
4.814247824e-06
4.798197152e-06
4.820589504e-06
4.807396144e-06
4.816023936e-06
4.810556048e-06
4.817329264e-06
4.78915152e-06
4.8246352e-06
4.817714544e-06
4.825948944e-06
4.829059312e-06
4.816423056e-06
4.82463512e-06
4.813545888e-06
4.823693888e-06
4.794008112e-06
4.80521424e-06
4.801387936e-06
4.807818496e-06
4.823351136e-06
4.804828656e-06
4.791397024e-06
4.80270288e-06
4.818690896e-06
4.837390032e-06
4.848017408e-06
4.822042064e-06
4.827559536e-06
4.79831832e-06
4.806896784e-06
4.775211648e-06
4.781144384e-06
4.76076728e-06
4.781429216e-06
4.80920032e-06
4.801727776e-06
4.77522416e-06
4.794672976e-06
4.805663632e-06
4.809054432e-06
4.816828848e-06
4.832385152e-06
4.816075792e-06
4.808384608e-06
4.788257744e-06
4.780108336e-06
4.788426448e-06
4.773645616e-06
4.778916272e-06
4.79386256e-06
4.783832224e-06
4.805366416e-06
4.80770528e-06
4.797711632e-06
4.794492656e-06
4.785451728e-06
4.779644256e-06
4.774650992e-06
4.777903152e-06
4.786490032e-06
4.802771504e-06
4.812107808e-06
4.816338576e-06
4.794881696e-06
4.817277936e-06
4.814090608e-06
4.79921808e-06
4.794880112e-06
4.80779616e-06
4.807362576e-06
4.787349488e-06
4.794560048e-06
4.778800144e-06
4.773446848e-06
4.774998528e-06
4.773117856e-06
4.77885832e-06
4.750021824e-06
4.763287536e-06
4.758556768e-06
4.76957224e-06
4.790962416e-06
4.781551664e-06
4.798536176e-06
4.801877472e-06
4.795985904e-06
4.81692472e-06
4.827413968e-06
4.82362264e-06
4.81863848e-06
4.81564168e-06
4.801848896e-06
4.789136704e-06
4.804817168e-06
4.784556448e-06
4.774422672e-06
4.775732496e-06
4.78538216e-06
4.78543648e-06
4.773822992e-06
4.783892192e-06
4.794977024e-06
4.813783616e-06
4.812510912e-06
4.795869824e-06
4.781795152e-06
4.799553776e-06
4.790410992e-06
4.801333952e-06
4.783667024e-06
4.790260352e-06
4.779230784e-06
4.7691524e-06
4.773107136e-06
4.790787776e-06
4.771457488e-06
4.799872096e-06
4.81152552e-06
4.817384928e-06
4.823936656e-06
4.805242688e-06
4.805651376e-06
4.781071872e-06
4.775446896e-06
4.77388488e-06
4.779172064e-06
4.780153184e-06
4.79421944e-06
4.802602128e-06
4.797732816e-06
4.796685536e-06
4.81197952e-06
4.82836072e-06
4.815530688e-06
4.797772576e-06
4.791612368e-06
4.821994736e-06
4.808425536e-06
4.803160816e-06
4.805245808e-06
4.793956912e-06
4.80311328e-06
4.79450808e-06
4.790969296e-06
4.782968304e-06
4.779103088e-06
4.775003184e-06
4.77928464e-06
4.802801152e-06
4.796147136e-06
4.829183344e-06
4.853653216e-06
4.823909824e-06
4.822850672e-06
4.822516e-06
4.836438928e-06
4.780303744e-06
4.7940528e-06
4.790285392e-06
4.814338928e-06
4.821914704e-06
4.833298416e-06
4.83046912e-06
4.822593056e-06
4.81006656e-06
4.795835616e-06
4.807316496e-06
4.806762768e-06
4.816996016e-06
4.81463136e-06
4.788810368e-06
4.774080704e-06
4.770716688e-06
4.795635184e-06
4.78903216e-06
4.765732784e-06
4.792158192e-06
4.81887856e-06
4.83839712e-06
4.845537856e-06
4.820832096e-06
4.808207584e-06
4.78973776e-06
4.790245536e-06
4.78319304e-06
4.798981136e-06
4.804119088e-06
4.802923776e-06
4.785618384e-06
4.758126512e-06
4.76848464e-06
4.788546032e-06
4.775317312e-06
4.786581696e-06
4.794077776e-06
4.798453664e-06
4.822610432e-06
4.810819056e-06
4.79215704e-06
4.786560128e-06
4.80680936e-06
4.810690544e-06
4.816103296e-06
4.793427136e-06
4.787490512e-06
4.787516528e-06
4.812360448e-06
4.815547856e-06
4.800795728e-06
4.815516592e-06
4.814167184e-06
4.826026384e-06
4.827704016e-06
4.837276544e-06
4.835862048e-06
4.818712928e-06
4.811909264e-06
4.798254512e-06
4.799741872e-06
4.788743872e-06
4.775577504e-06
4.755576672e-06
4.761220864e-06
4.77176072e-06
4.776184832e-06
4.756763312e-06
4.763251744e-06
4.766781904e-06
4.790834336e-06
4.803500528e-06
4.843588592e-06
4.823607744e-06
4.81359624e-06
4.810431168e-06
4.818960176e-06
4.828834368e-06
4.771044992e-06
4.77157976e-06
4.758593536e-06
4.762200016e-06
4.766470928e-06
4.764807184e-06
4.790663664e-06
4.783352176e-06
4.790016272e-06
4.786261888e-06
4.777700128e-06
4.80700536e-06
4.805109392e-06
4.788280384e-06
4.80488376e-06
4.808827856e-06
4.78881208e-06
4.79273504e-06
4.783842016e-06
4.759590384e-06
4.761134288e-06
4.780233184e-06
4.78457072e-06
4.79050944e-06
4.790343552e-06
4.815870144e-06
4.799543696e-06
4.812410368e-06
4.822155232e-06
4.815801888e-06
4.8141152e-06
4.80918144e-06
4.828133328e-06
4.811129936e-06
4.797004656e-06
4.763259984e-06
4.791147984e-06
4.784872368e-06
4.781207376e-06
4.775396704e-06
4.810940656e-06
4.79752576e-06
4.788160112e-06
4.783455792e-06
4.785086144e-06
4.770111024e-06
4.771532784e-06
4.776175648e-06
4.760371968e-06
4.77500776e-06
4.762420192e-06
4.765575696e-06
4.764207328e-06
4.772806464e-06
4.765504416e-06
4.789143504e-06
4.784500592e-06
4.781073408e-06
4.800975712e-06
4.810983408e-06
4.79642624e-06
4.766689344e-06
4.779514416e-06
4.778256192e-06
4.786797376e-06
4.811667696e-06
4.81669384e-06
4.814105216e-06
4.830536256e-06
4.862545344e-06
4.85333456e-06
4.81923168e-06
4.810339088e-06
4.807860912e-06
4.80388192e-06
4.79466512e-06
4.780236896e-06
4.816500112e-06
4.83222136e-06
4.817077072e-06
4.84398728e-06
4.83823448e-06
4.815194992e-06
4.7995188e-06
4.814310864e-06
4.808552592e-06
4.805282064e-06
4.79310032e-06
4.76429936e-06
4.781396544e-06
4.7948316e-06
4.82666024e-06
4.827500976e-06
4.804501888e-06
4.823336704e-06
4.8376324e-06
4.813262256e-06
4.791334368e-06
4.791493248e-06
4.818876848e-06
4.778680944e-06
4.781995456e-06
4.798085504e-06
4.78169064e-06
4.796098192e-06
4.78911928e-06
4.789318608e-06
4.791899632e-06
4.80978472e-06
4.807109264e-06
4.790958784e-06
4.780690816e-06
4.774342816e-06
4.792706592e-06
4.774378352e-06
4.78204232e-06
4.790209024e-06
4.806464528e-06
4.808655312e-06
4.79466136e-06
4.811167744e-06
4.803537216e-06
4.796977072e-06
4.79711592e-06
4.803674016e-06
4.775950144e-06
4.783103392e-06
4.781703632e-06
4.7455284e-06
4.748161056e-06
4.75655224e-06
4.765829264e-06
4.777421488e-06
4.772755216e-06
4.798998432e-06
4.795946112e-06
4.788635088e-06
4.788585456e-06
4.774027744e-06
4.80832128e-06
4.799721888e-06
4.815432416e-06
4.81492464e-06
4.817987296e-06
4.79775976e-06
4.817155568e-06
4.790417264e-06
4.79739848e-06
4.806606144e-06
4.80754016e-06
4.791969632e-06
4.785474112e-06
4.786124832e-06
4.775778448e-06
4.765865136e-06
4.771022656e-06
4.79462416e-06
4.796279968e-06
4.793888064e-06
4.788780176e-06
4.79461416e-06
4.806706e-06
4.830789696e-06
4.804649072e-06
4.787261888e-06
4.78348944e-06
4.795138336e-06
4.803728464e-06
4.806855952e-06
4.8222556e-06
4.82485328e-06
4.831303744e-06
4.809254096e-06
4.780834448e-06
4.786938752e-06
4.78188728e-06
4.763700832e-06
4.784243392e-06
4.787460016e-06
4.77826888e-06
4.79520872e-06
4.790844064e-06
4.803701984e-06
4.817460432e-06
4.8319988e-06
4.8196036e-06
4.82216472e-06
4.781677792e-06
4.803934112e-06
4.78406256e-06
4.779478672e-06
4.775817056e-06
4.781632304e-06
4.80999536e-06
4.790156528e-06
4.773100736e-06
4.790535024e-06
4.76128232e-06
4.779885952e-06
4.78040312e-06
4.82168432e-06
4.828397744e-06
4.826284736e-06
4.827762912e-06
4.825028736e-06
4.814042864e-06
4.843773056e-06
4.8241596e-06
4.80211704e-06
4.82203856e-06