/*--------------------------------*- C++ -*----------------------------------*\
| =========                 |                                                 |
| \\      /  F ield         | OpenFOAM: The Open Source CFD Toolbox           |
|  \\    /   O peration     | Version:  v1706                                 |
|   \\  /    A nd           | Web:      www.OpenFOAM.com                      |
|    \\/     M anipulation  |                                                 |
\*---------------------------------------------------------------------------*/
FoamFile
{
    version     2.0;
    format      ascii;
    class       volScalarField;
    location    "0.01";
    object      rhoM_N2;
}
// * * * * * * * * * * * * * * * * * * * * * * * * * * * * * * * * * * * * * //

dimensions      [1 -3 0 0 0 0 0];


internalField   nonuniform List<scalar> 
5120
(
3.6282276e-06
3.619002e-06
3.6280044e-06
3.6226104e-06
3.6278928e-06
3.6139428e-06
3.6256236e-06
3.6241728e-06
3.6296412e-06
3.609702e-06
3.6155796e-06
3.6057216e-06
3.606726e-06
3.5798304e-06
3.5759244e-06
3.5715348e-06
3.5830296e-06
3.6105204e-06
3.6012204e-06
3.6090324e-06
3.5791608e-06
3.5911764e-06
3.6040104e-06
3.59724e-06
3.5828436e-06
3.5997696e-06
3.5915856e-06
3.588126e-06
3.5874936e-06
3.5858196e-06
3.5908788e-06
3.5978352e-06
3.6074328e-06
3.6239124e-06
3.6019644e-06
3.5832528e-06
3.5779332e-06
3.5541996e-06
3.5512608e-06
3.5666616e-06
3.5800164e-06
3.5710884e-06
3.5902464e-06
3.5764824e-06
3.5873448e-06
3.606912e-06
3.623838e-06
3.6071724e-06
3.5967564e-06
3.5717952e-06
3.5541252e-06
3.563016e-06
3.55632e-06
3.5742504e-06
3.5728368e-06
3.589614e-06
3.5980584e-06
3.5956404e-06
3.5896884e-06
3.58608e-06
3.631278e-06
3.6118224e-06
3.6262188e-06
3.6206016e-06
3.6125292e-06
3.6027828e-06
3.5927388e-06
3.6032664e-06
3.60468e-06
3.6117108e-06
3.6229452e-06
3.6064656e-06
3.6116736e-06
3.5965704e-06
3.6012576e-06
3.6021132e-06
3.5996208e-06
3.609516e-06
3.6124176e-06
3.6219408e-06
3.6376392e-06
3.6356304e-06
3.6285996e-06
3.6052752e-06
3.6027084e-06
3.59445e-06
3.6141288e-06
3.6161376e-06
3.6395364e-06
3.6626748e-06
3.6507336e-06
3.6458604e-06
3.6319104e-06
3.6528912e-06
3.6386436e-06
3.620304e-06
3.581058e-06
3.5828436e-06
3.603936e-06
3.6213456e-06
3.616398e-06
3.615654e-06
3.6292692e-06
3.6378252e-06
3.6289716e-06
3.6214944e-06
3.6119712e-06
3.621606e-06
3.5999184e-06
3.602262e-06
3.605238e-06
3.610818e-06
3.6003648e-06
3.5536044e-06
3.5579568e-06
3.5807232e-06
3.5856708e-06
3.5874192e-06
3.6050892e-06
3.604308e-06
3.6076188e-06
3.5980956e-06
3.58515e-06
3.5829924e-06
3.5992116e-06
3.5981328e-06
3.5915112e-06
3.6066516e-06
3.5898e-06
3.5879028e-06
3.5829924e-06
3.584964e-06
3.596682e-06
3.61305e-06
3.6088836e-06
3.5980584e-06
3.5963844e-06
3.6259584e-06
3.6081768e-06
3.6056844e-06
3.6157656e-06
3.6208992e-06
3.629418e-06
3.6174768e-06
3.625884e-06
3.626814e-06
3.6263676e-06
3.6314268e-06
3.632394e-06
3.6073584e-06
3.6114876e-06
3.6189276e-06
3.6181836e-06
3.605238e-06
3.6131616e-06
3.6220524e-06
3.6308316e-06
3.6086232e-06
3.6124176e-06
3.625698e-06
3.6265164e-06
3.6290832e-06
3.640206e-06
3.6256608e-06
3.634068e-06
3.6353328e-06
3.6229824e-06
3.6210852e-06
3.6317616e-06
3.6377508e-06
3.6317616e-06
3.6186672e-06
3.611934e-06
3.623838e-06
3.6220896e-06
3.6390528e-06
3.6319848e-06
3.6223872e-06
3.6196344e-06
3.6363e-06
3.634998e-06
3.6347004e-06
3.6292692e-06
3.6135708e-06
3.632208e-06
3.6378624e-06
3.6413964e-06
3.6300876e-06
3.6157656e-06
3.626256e-06
3.6143148e-06
3.6163608e-06
3.6265164e-06
3.619002e-06
3.6099624e-06
3.6275952e-06
3.6332496e-06
3.6428844e-06
3.642624e-06
3.630162e-06
3.6081768e-06
3.608772e-06
3.59352e-06
3.5870844e-06
3.598728e-06
3.6083628e-06
3.6246192e-06
3.6231312e-06
3.6309432e-06
3.6192252e-06
3.6214944e-06
3.6459348e-06
3.6337332e-06
3.6602568e-06
3.6466416e-06
3.6620424e-06
3.653412e-06
3.6414336e-06
3.6322452e-06
3.6339936e-06
3.6294924e-06
3.6426984e-06
3.6312408e-06
3.6359652e-06
3.6254748e-06
3.6146496e-06
3.608958e-06
3.595752e-06
3.6110784e-06
3.6215316e-06
3.6080652e-06
3.6121572e-06
3.603378e-06
3.6034524e-06
3.6037128e-06
3.590544e-06
3.6092928e-06
3.6099252e-06
3.6297528e-06
3.6402432e-06
3.6030432e-06
3.615096e-06
3.6187788e-06
3.6061308e-06
3.5947104e-06
3.6073584e-06
3.63258e-06
3.646902e-06
3.6352956e-06
3.6211596e-06
3.61119e-06
3.5960868e-06
3.591474e-06
3.602448e-06
3.61584e-06
3.5998812e-06
3.5952684e-06
3.5936316e-06
3.6083256e-06
3.5989884e-06
3.5969052e-06
3.601704e-06
3.607842e-06
3.5907672e-06
3.5674056e-06
3.5488056e-06
3.5607096e-06
3.5706792e-06
3.5877912e-06
3.5983932e-06
3.5850756e-06
3.5974632e-06
3.6045684e-06
3.6003648e-06
3.6092928e-06
3.6096276e-06
3.6229824e-06
3.6070236e-06
3.6129012e-06
3.6026712e-06
3.608586e-06
3.605424e-06
3.599472e-06
3.5911392e-06
3.5877912e-06
3.6077304e-06
3.5998068e-06
3.5864148e-06
3.60468e-06
3.6085488e-06
3.6086976e-06
3.6219036e-06
3.617886e-06
3.6065772e-06
3.62235e-06
3.6378252e-06
3.6329892e-06
3.6199692e-06
3.6296412e-06
3.620118e-06
3.6037872e-06
3.61956e-06
3.6237264e-06
3.6105204e-06
3.6200808e-06
3.601704e-06
3.6092928e-06
3.6200064e-06
3.6043452e-06
3.6022248e-06
3.6179604e-06
3.6169188e-06
3.6115992e-06
3.6056844e-06
3.5959008e-06
3.5844804e-06
3.5733948e-06
3.5977608e-06
3.5880516e-06
3.5941524e-06
3.6287856e-06
3.6136452e-06
3.61491e-06
3.6297528e-06
3.619188e-06
3.6070236e-06
3.6140544e-06
3.6126408e-06
3.637044e-06
3.6234288e-06
3.6183324e-06
3.6040104e-06
3.6030804e-06
3.5882376e-06
3.5976492e-06
3.6248052e-06
3.6300876e-06
3.62142e-06
3.6243216e-06
3.6209736e-06
3.5780076e-06
3.5906184e-06
3.5839968e-06
3.5797188e-06
3.5852988e-06
3.5818764e-06
3.5796816e-06
3.5899116e-06
3.60468e-06
3.6113388e-06
3.609516e-06
3.6164724e-06
3.6099252e-06
3.6000672e-06
3.61119e-06
3.6219408e-06
3.5926644e-06
3.604308e-06
3.6008856e-06
3.5789004e-06
3.5835132e-06
3.5629044e-06
3.5739528e-06
3.591846e-06
3.5783424e-06
3.5628672e-06
3.5706048e-06
3.5922924e-06
3.5918832e-06
3.5931108e-06
3.5866752e-06
3.5954172e-06
3.6065028e-06
3.613608e-06
3.5922552e-06
3.5956404e-06
3.6021132e-06
3.5934084e-06
3.60003e-06
3.5929992e-06
3.5749944e-06
3.5805744e-06
3.5977236e-06
3.60375e-06
3.617514e-06
3.6242844e-06
3.6192252e-06
3.6170676e-06
3.6006624e-06
3.597984e-06
3.6096648e-06
3.6259212e-06
3.6226848e-06
3.6166584e-06
3.6178488e-06
3.597426e-06
3.6075816e-06
3.6024852e-06
3.5872704e-06
3.5712e-06
3.5910648e-06
3.5884608e-06
3.5986908e-06
3.6104832e-06
3.6087348e-06
3.6042708e-06
3.60282e-06
3.5933712e-06
3.6041964e-06
3.6082512e-06
3.6259956e-06
3.6344772e-06
3.6365604e-06
3.6294924e-06
3.6263304e-06
3.6181092e-06
3.6155052e-06
3.6188532e-06
3.611562e-06
3.6120828e-06
3.6157656e-06
3.6223128e-06
3.6184812e-06
3.6286368e-06
3.624024e-06
3.6359652e-06
3.6147612e-06
3.6175512e-06
3.6091812e-06
3.6142032e-06
3.6097764e-06
3.6123432e-06
3.6239868e-06
3.633324e-06
3.647832e-06
3.6393876e-06
3.6431076e-06
3.6278556e-06
3.6121572e-06
3.6142776e-06
3.593148e-06
3.602076e-06
3.5899116e-06
3.6001044e-06
3.5985792e-06
3.5941524e-06
3.6081024e-06
3.6075444e-06
3.6138312e-06
3.614352e-06
3.6194856e-06
3.6075444e-06
3.6105204e-06
3.6111528e-06
3.6386436e-06
3.6293436e-06
3.6211968e-06
3.6013692e-06
3.5988768e-06
3.586452e-06
3.599286e-06
3.5964216e-06
3.5852616e-06
3.5982816e-06
3.5919948e-06
3.6048288e-06
3.6209736e-06
3.6245076e-06
3.6219408e-06
3.616398e-06
3.6105204e-06
3.6143892e-06
3.5980212e-06
3.6060192e-06
3.5877168e-06
3.5967564e-06
3.5828436e-06
3.595566e-06
3.5945244e-06
3.595008e-06
3.6377508e-06
3.6492084e-06
3.6512544e-06
3.6604056e-06
3.6703752e-06
3.647832e-06
3.63258e-06
3.6134964e-06
3.6233916e-06
3.6025968e-06
3.6161004e-06
3.6071352e-06
3.6226848e-06
3.6196716e-06
3.62793e-06
3.61026e-06
3.6159888e-06
3.6298644e-06
3.6336216e-06
3.6291204e-06
3.6087348e-06
3.5925528e-06
3.6025224e-06
3.6124176e-06
3.611562e-06
3.6177e-06
3.6207504e-06
3.6202296e-06
3.6405036e-06
3.6429588e-06
3.6505848e-06
3.6241728e-06
3.614538e-06
3.6072096e-06
3.5964588e-06
3.6031548e-06
3.5993604e-06
3.6042708e-06
3.6222756e-06
3.6038244e-06
3.6411732e-06
3.637974e-06
3.6451536e-06
3.6400944e-06
3.6279672e-06
3.6363744e-06
3.6252144e-06
3.639834e-06
3.64746e-06
3.6445584e-06
3.6418056e-06
3.6360024e-06
3.6322824e-06
3.6396852e-06
3.6328776e-06
3.6293436e-06
3.6190392e-06
3.6282276e-06
3.6370068e-06
3.627186e-06
3.5961984e-06
3.6139428e-06
3.6263676e-06
3.6041592e-06
3.602076e-06
3.5986908e-06
3.5967564e-06
3.5987652e-06
3.6245076e-06
3.6123432e-06
3.6188532e-06
3.6130872e-06
3.6082884e-06
3.5974632e-06
3.6015924e-06
3.6161376e-06
3.6253632e-06
3.6097392e-06
3.599658e-06
3.6064284e-06
3.606354e-06
3.590172e-06
3.5903208e-06
3.6094788e-06
3.6209736e-06
3.6274836e-06
3.608958e-06
3.5980584e-06
3.5786772e-06
3.5938176e-06
3.5975004e-06
3.6215688e-06
3.6252888e-06
3.6185928e-06
3.5993232e-06
3.6038244e-06
3.6163608e-06
3.6271116e-06
3.6170676e-06
3.614724e-06
3.5996208e-06
3.6013692e-06
3.5986536e-06
3.604866e-06
3.6196344e-06
3.6467904e-06
3.6274836e-06
3.6419544e-06
3.6476088e-06
3.6414336e-06
3.6432192e-06
3.6181464e-06
3.5948964e-06
3.6046428e-06
3.6084e-06
3.606912e-06
3.5990628e-06
3.6105204e-06
3.609888e-06
3.6096648e-06
3.6456744e-06
3.6214572e-06
3.6112644e-06
3.6231312e-06
3.62514e-06
3.6169932e-06
3.6095532e-06
3.6130128e-06
3.5996952e-06
3.6021504e-06
3.6214572e-06
3.6196716e-06
3.6235032e-06
3.627744e-06
3.6191508e-06
3.6272232e-06
3.6303108e-06
3.6428844e-06
3.6237636e-06
3.6308316e-06
3.611934e-06
3.6073212e-06
3.6158028e-06
3.6108924e-06
3.6202668e-06
3.625512e-06
3.6190392e-06
3.6228336e-06
3.6143148e-06
3.6056472e-06
3.5770032e-06
3.5966448e-06
3.597612e-06
3.6126036e-06
3.6118224e-06
3.6036756e-06
3.6223128e-06
3.6190392e-06
3.6177e-06
3.6072468e-06
3.5945616e-06
3.5851128e-06
3.57399e-06
3.5732832e-06
3.5782308e-06
3.610632e-06
3.6128268e-06
3.607842e-06
3.5947476e-06
3.6162492e-06
3.6265164e-06
3.6353328e-06
3.617328e-06
3.6094788e-06
3.6151332e-06
3.6074328e-06
3.5929248e-06
3.5955288e-06
3.5962356e-06
3.603936e-06
3.6110784e-06
3.610446e-06
3.6300504e-06
3.6275208e-06
3.6091812e-06
3.59631e-06
3.586452e-06
3.5931108e-06
3.5969424e-06
3.5780076e-06
3.5980584e-06
3.5921436e-06
3.6121944e-06
3.6110412e-06
3.5979468e-06
3.600774e-06
3.6241728e-06
3.6307944e-06
3.6358536e-06
3.6293808e-06
3.626256e-06
3.6300132e-06
3.6239496e-06
3.6077304e-06
3.6015924e-06
3.6188532e-06
3.6211596e-06
3.5982816e-06
3.5794584e-06
3.5899488e-06
3.5964216e-06
3.5884236e-06
3.5839224e-06
3.5803512e-06
3.5998068e-06
3.6149844e-06
3.6083628e-06
3.622536e-06
3.6269256e-06
3.6280044e-06
3.6151704e-06
3.6022992e-06
3.5847408e-06
3.5967192e-06
3.601146e-06
3.5993976e-06
3.6118596e-06
3.6072096e-06
3.6235404e-06
3.6159516e-06
3.6251772e-06
3.6288972e-06
3.6084372e-06
3.610632e-06
3.5988024e-06
3.5982072e-06
3.5865636e-06
3.5976864e-06
3.607842e-06
3.6111528e-06
3.610818e-06
3.6239124e-06
3.6208248e-06
3.603936e-06
3.6023736e-06
3.6063912e-06
3.6218292e-06
3.6343656e-06
3.6248424e-06
3.6082884e-06
3.6046056e-06
3.59166e-06
3.6092928e-06
3.6186672e-06
3.6211968e-06
3.608214e-06
3.607842e-06
3.6046428e-06
3.6121572e-06
3.6050892e-06
3.619002e-06
3.6206016e-06
3.6147984e-06
3.6206388e-06
3.6089208e-06
3.6010344e-06
3.5982072e-06
3.6008112e-06
3.6253632e-06
3.626442e-06
3.6229452e-06
3.6274092e-06
3.6100368e-06
3.6039732e-06
3.6150588e-06
3.6239496e-06
3.6283764e-06
3.63909e-06
3.6376392e-06
3.63444e-06
3.59445e-06
3.5838108e-06
3.5922924e-06
3.5705676e-06
3.586638e-06
3.5927388e-06
3.6017412e-06
3.5982444e-06
3.5998812e-06
3.6027456e-06
3.6147984e-06
3.6071724e-06
3.6248052e-06
3.6246564e-06
3.5927016e-06
3.6017412e-06
3.599658e-06
3.6063912e-06
3.608028e-06
3.622164e-06
3.5941152e-06
3.6030804e-06
3.6073584e-06
3.6022992e-06
3.6084372e-06
3.623838e-06
3.6160632e-06
3.6099624e-06
3.6024108e-06
3.5959752e-06
3.5943384e-06
3.603564e-06
3.60096e-06
3.6018528e-06
3.6184068e-06
3.6232428e-06
3.6049776e-06
3.593892e-06
3.5830296e-06
3.580128e-06
3.63165e-06
3.6201552e-06
3.6071724e-06
3.5842572e-06
3.56748e-06
3.5558364e-06
3.5509632e-06
3.5884608e-06
3.5963844e-06
3.5760732e-06
3.592962e-06
3.5969796e-06
3.6145008e-06
3.6199692e-06
3.6376764e-06
3.6339192e-06
3.6261072e-06
3.621792e-06
3.6328776e-06
3.6328032e-06
3.583104e-06
3.5997324e-06
3.609702e-06
3.6116736e-06
3.6312036e-06
3.6178488e-06
3.620118e-06
3.60654e-06
3.6079164e-06
3.6255864e-06
3.624396e-06
3.630906e-06
3.6202668e-06
3.6272232e-06
3.6233544e-06
3.5959008e-06
3.6132732e-06
3.5867868e-06
3.5772636e-06
3.5834016e-06
3.6032664e-06
3.600216e-06
3.6148728e-06
3.6239124e-06
3.6189276e-06
3.6207132e-06
3.6287112e-06
3.5921436e-06
3.5847408e-06
3.5977236e-06
3.6126036e-06
3.6111528e-06
3.6134964e-06
3.5929992e-06
3.597798e-06
3.607284e-06
3.6118224e-06
3.6155052e-06
3.6022992e-06
3.6034896e-06
3.6402804e-06
3.6323196e-06
3.6253632e-06
3.6081396e-06
3.6269628e-06
3.6330264e-06
3.6161004e-06
3.6211224e-06
3.6200064e-06
3.6200808e-06
3.6148728e-06
3.6217548e-06
3.605424e-06
3.62235e-06
3.6388296e-06
3.6347376e-06
3.62235e-06
3.6157656e-06
3.6411732e-06
3.6447072e-06
3.6332868e-06
3.6479808e-06
3.655644e-06
3.673128e-06
3.6571692e-06
3.6519984e-06
3.6400572e-06
3.6292692e-06
3.6134592e-06
3.5992488e-06
3.597984e-06
3.6204528e-06
3.6359652e-06
3.6283392e-06
3.6273348e-06
3.6267024e-06
3.634068e-06
3.6198576e-06
3.6160632e-06
3.6251028e-06
3.6262932e-06
3.6366348e-06
3.6391644e-06
3.6471252e-06
3.6490968e-06
3.6501384e-06
3.6553092e-06
3.65583e-06
3.6286368e-06
3.6383832e-06
3.6299388e-06
3.6135336e-06
3.6010344e-06
3.5997324e-06
3.5900604e-06
3.5856708e-06
3.5814672e-06
3.5950824e-06
3.6101856e-06
3.6146496e-06
3.5634252e-06
3.5833272e-06
3.581616e-06
3.5901348e-06
3.588498e-06
3.5900232e-06
3.6122688e-06
3.5880144e-06
3.5863032e-06
3.5918088e-06
3.5941896e-06
3.5915112e-06
3.5931852e-06
3.5861544e-06
3.5921064e-06
3.5897256e-06
3.5863404e-06
3.5835504e-06
3.5613792e-06
3.5662524e-06
3.6002532e-06
3.5989884e-06
3.5869728e-06
3.59631e-06
3.6094416e-06
3.5963844e-06
3.6001788e-06
3.5931108e-06
3.5935572e-06
3.5977608e-06
3.6075816e-06
3.6131244e-06
3.6174024e-06
3.6091812e-06
3.6274092e-06
3.6175884e-06
3.593706e-06
3.598728e-06
3.6027456e-06
3.6016668e-06
3.5800908e-06
3.5833272e-06
3.599472e-06
3.5959752e-06
3.5829552e-06
3.585522e-06
3.6012576e-06
3.6019644e-06
3.6245076e-06
3.6131988e-06
3.6122316e-06
3.6032664e-06
3.6213828e-06
3.6127524e-06
3.5963472e-06
3.5989512e-06
3.5978352e-06
3.5897628e-06
3.578454e-06
3.582174e-06
3.6423264e-06
3.6457488e-06
3.6280044e-06
3.6291948e-06
3.6423636e-06
3.6370068e-06
3.6185928e-06
3.612306e-06
3.6008856e-06
3.6161004e-06
3.6027084e-06
3.6110412e-06
3.62979e-06
3.6309432e-06
3.6525192e-06
3.6345888e-06
3.623652e-06
3.608214e-06
3.603378e-06
3.6102228e-06
3.6062796e-06
3.6068748e-06
3.6229824e-06
3.6344772e-06
3.6351096e-06
3.623838e-06
3.6118224e-06
3.6215688e-06
3.6189276e-06
3.613236e-06
3.5941152e-06
3.5934084e-06
3.595938e-06
3.5988024e-06
3.6001044e-06
3.5856708e-06
3.5984304e-06
3.5963472e-06
3.6157656e-06
3.6120084e-06
3.6262932e-06
3.6247308e-06
3.6298272e-06
3.6301248e-06
3.6241728e-06
3.629046e-06
3.6245076e-06
3.6271488e-06
3.6299016e-06
3.6383832e-06
3.6254748e-06
3.5992116e-06
3.5889816e-06
3.6148728e-06
3.6141288e-06
3.6168816e-06
3.599658e-06
3.607656e-06
3.5995464e-06
3.6192996e-06
3.613236e-06
3.6121944e-06
3.6154308e-06
3.629232e-06
3.64095e-06
3.6474972e-06
3.6430704e-06
3.6279672e-06
3.5983188e-06
3.599844e-06
3.5975376e-06
3.6138312e-06
3.6213084e-06
3.596682e-06
3.5793468e-06
3.5929248e-06
3.6028572e-06
3.6254004e-06
3.626628e-06
3.6239868e-06
3.595194e-06
3.5960868e-06
3.6071352e-06
3.6053124e-06
3.6064656e-06
3.5969796e-06
3.6092184e-06
3.598542e-06
3.5893164e-06
3.5975748e-06
3.6021504e-06
3.6168444e-06
3.6114132e-06
3.6125664e-06
3.6084372e-06
3.5993976e-06
3.602634e-06
3.5995836e-06
3.5985792e-06
3.5899488e-06
3.6391272e-06
3.6213828e-06
3.6232056e-06
3.6140916e-06
3.610074e-06
3.6060936e-06
3.6129756e-06
3.6095904e-06
3.61212e-06
3.6096648e-06
3.5967936e-06
3.5826948e-06
3.5929992e-06
3.604494e-06
3.6107808e-06
3.6209364e-06
3.627744e-06
3.6362256e-06
3.6386064e-06
3.6281532e-06
3.6018528e-06
3.6083628e-06
3.6077304e-06
3.5950824e-06
3.5996208e-06
3.6045312e-06
3.5934084e-06
3.6059448e-06
3.6034524e-06
3.6155796e-06
3.6265164e-06
3.621792e-06
3.618816e-06
3.6108552e-06
3.605982e-06
3.6057216e-06
3.5997324e-06
3.6017784e-06
3.5971284e-06
3.6020016e-06
3.6289716e-06
3.63909e-06
3.6233916e-06
3.6356676e-06
3.6293064e-06
3.6295668e-06
3.6265536e-06
3.61305e-06
3.6111156e-06
3.6181464e-06
3.6214572e-06
3.6259956e-06
3.6386064e-06
3.60933e-06
3.6048288e-06
3.5978352e-06
3.593334e-06
3.6112644e-06
3.6185184e-06
3.6308316e-06
3.628674e-06
3.614724e-06
3.5931108e-06
3.5987652e-06
3.6002532e-06
3.6066516e-06
3.6279672e-06
3.6431448e-06
3.646716e-06
3.6506592e-06
3.6274092e-06
3.6057216e-06
3.5882004e-06
3.6001788e-06
3.6053868e-06
3.6116736e-06
3.6393504e-06
3.6266652e-06
3.6297528e-06
3.6353328e-06
3.611004e-06
3.629604e-06
3.6290088e-06
3.626628e-06
3.6145752e-06
3.6117852e-06
3.6286368e-06
3.6315012e-06
3.6392016e-06
3.6429588e-06
3.633138e-06
3.6274464e-06
3.6267396e-06
3.620118e-06
3.6151332e-06
3.6146124e-06
3.6010716e-06
3.6074328e-06
3.6099996e-06
3.6159888e-06
3.6175512e-06
3.6037872e-06
3.6055356e-06
3.6122316e-06
3.6025596e-06
3.5924784e-06
3.5791608e-06
3.5874192e-06
3.5882748e-06
3.5898e-06
3.5879028e-06
3.5933712e-06
3.6025596e-06
3.6340308e-06
3.640764e-06
3.6425124e-06
3.6342168e-06
3.6324312e-06
3.624396e-06
3.6308688e-06
3.6716772e-06
3.6503244e-06
3.6430332e-06
3.617328e-06
3.6051264e-06
3.608958e-06
3.6172908e-06
3.6516636e-06
3.63723e-06
3.6425496e-06
3.6306456e-06
3.6257724e-06
3.6243588e-06
3.61491e-06
3.6211224e-06
3.6275208e-06
3.6431448e-06
3.64095e-06
3.6591036e-06
3.6681804e-06
3.5894652e-06
3.5849268e-06
3.5741388e-06
3.5961612e-06
3.5892792e-06
3.5866752e-06
3.6053124e-06
3.5943384e-06
3.6336216e-06
3.6282276e-06
3.625884e-06
3.6398712e-06
3.650994e-06
3.6425124e-06
3.6458604e-06
3.6240984e-06
3.6198204e-06
3.6127524e-06
3.593892e-06
3.61026e-06
3.6273348e-06
3.6373044e-06
3.6216432e-06
3.6043452e-06
3.6088836e-06
3.615468e-06
3.606912e-06
3.6247308e-06
3.6342912e-06
3.6118968e-06
3.6184812e-06
3.5938176e-06
3.5949336e-06
3.6086976e-06
3.606354e-06
3.6066888e-06
3.5997696e-06
3.5954172e-06
3.6104088e-06
3.617142e-06
3.6169932e-06
3.6143148e-06
3.6186672e-06
3.6237264e-06
3.6295668e-06
3.6328776e-06
3.6362256e-06
3.6299016e-06
3.6153192e-06
3.6229452e-06
3.603564e-06
3.6127152e-06
3.6135336e-06
3.6217176e-06
3.5964216e-06
3.6107808e-06
3.6278928e-06
3.6300504e-06
3.626256e-06
3.6281904e-06
3.6159516e-06
3.5986908e-06
3.6145752e-06
3.5820624e-06
3.5926272e-06
3.5838852e-06
3.5962728e-06
3.6106692e-06
3.61956e-06
3.6396852e-06
3.6369696e-06
3.6347748e-06
3.6402804e-06
3.65211e-06
3.6475716e-06
3.6357792e-06
3.635928e-06
3.6283392e-06
3.6356304e-06
3.6166212e-06
3.6075444e-06
3.6066888e-06
3.5893164e-06
3.599472e-06
3.5884236e-06
3.6002532e-06
3.6057216e-06
3.6033408e-06
3.6017412e-06
3.607284e-06
3.6168816e-06
3.6066888e-06
3.6042708e-06
3.6001416e-06
3.5826576e-06
3.5990628e-06
3.6223872e-06
3.6190392e-06
3.6284136e-06
3.6272232e-06
3.6152076e-06
3.6042708e-06
3.598728e-06
3.5867868e-06
3.5976492e-06
3.613794e-06
3.5908416e-06
3.593334e-06
3.5885352e-06
3.5789004e-06
3.5969052e-06
3.5710884e-06
3.5612304e-06
3.56097e-06
3.5738784e-06
3.579384e-06
3.5841456e-06
3.5877168e-06
3.6099252e-06
3.6079908e-06
3.6107808e-06
3.6079164e-06
3.5880888e-06
3.5979468e-06
3.6038988e-06
3.600774e-06
3.5968308e-06
3.5886096e-06
3.5926272e-06
3.579942e-06
3.5902836e-06
3.605982e-06
3.5937804e-06
3.5920692e-06
3.5887584e-06
3.5867868e-06
3.6062052e-06
3.590916e-06
3.5768544e-06
3.5856336e-06
3.5566176e-06
3.5721672e-06
3.5989884e-06
3.6172536e-06
3.6114132e-06
3.6032292e-06
3.6117108e-06
3.6148728e-06
3.619374e-06
3.616026e-06
3.6149472e-06
3.6035268e-06
3.5950824e-06
3.5943384e-06
3.6297528e-06
3.6176256e-06
3.5863776e-06
3.5833644e-06
3.5786772e-06
3.5635368e-06
3.6220896e-06
3.610818e-06
3.5908788e-06
3.5890188e-06
3.6046428e-06
3.6008856e-06
3.6003276e-06
3.6168072e-06
3.6114876e-06
3.6164352e-06
3.6265164e-06
3.6370812e-06
3.6492456e-06
3.6414708e-06
3.6397224e-06
3.6610752e-06
3.6392016e-06
3.6323196e-06
3.6174396e-06
3.617328e-06
3.6258468e-06
3.6386808e-06
3.6285624e-06
3.6267396e-06
3.6194856e-06
3.6371184e-06
3.6285996e-06
3.6435168e-06
3.6392388e-06
3.6525564e-06
3.6334728e-06
3.6570576e-06
3.6591036e-06
3.6609636e-06
3.6552348e-06
3.6451908e-06
3.6445212e-06
3.6373416e-06
3.6421776e-06
3.6244332e-06
3.6316872e-06
3.6278184e-06
3.6348864e-06
3.6604056e-06
3.6367836e-06
3.6177e-06
3.622164e-06
3.6319476e-06
3.6340308e-06
3.6295296e-06
3.6179604e-06
3.6263676e-06
3.617142e-06
3.6285252e-06
3.6060192e-06
3.616584e-06
3.6036012e-06
3.6118968e-06
3.6365232e-06
3.6275208e-06
3.6104088e-06
3.6140916e-06
3.6267396e-06
3.618444e-06
3.625326e-06
3.644112e-06
3.6282276e-06
3.6419544e-06
3.6179604e-06
3.6161004e-06
3.6149844e-06
3.6083628e-06
3.6110412e-06
3.6194856e-06
3.6165096e-06
3.6273348e-06
3.6186672e-06
3.614538e-06
3.6147612e-06
3.6149844e-06
3.6115992e-06
3.6239868e-06
3.626814e-06
3.6330636e-06
3.6458604e-06
3.6531144e-06
3.6463812e-06
3.6177e-06
3.632022e-06
3.6317244e-06
3.6218664e-06
3.6263676e-06
3.6323568e-06
3.6246564e-06
3.6058332e-06
3.6232428e-06
3.6127524e-06
3.603192e-06
3.6045312e-06
3.6040104e-06
3.5998068e-06
3.5805744e-06
3.584406e-06
3.5895768e-06
3.59817e-06
3.6076188e-06
3.6125292e-06
3.6296412e-06
3.6297528e-06
3.6284508e-06
3.650622e-06
3.658434e-06
3.661782e-06
3.6582852e-06
3.6563508e-06
3.637416e-06
3.6237264e-06
3.6347748e-06
3.620676e-06
3.6118596e-06
3.5943012e-06
3.6014436e-06
3.616584e-06
3.6008484e-06
3.6077304e-06
3.6170304e-06
3.6219408e-06
3.627e-06
3.6179232e-06
3.6105204e-06
3.6242844e-06
3.6099996e-06
3.6258096e-06
3.615282e-06
3.6179232e-06
3.613608e-06
3.610074e-06
3.6037872e-06
3.609144e-06
3.5846292e-06
3.611004e-06
3.6207876e-06
3.62142e-06
3.6261444e-06
3.6237264e-06
3.6229452e-06
3.5961984e-06
3.5972028e-06
3.5965332e-06
3.600588e-06
3.6092184e-06
3.6217548e-06
3.6225732e-06
3.6143892e-06
3.612492e-06
3.6265536e-06
3.6365604e-06
3.632952e-06
3.6203784e-06
3.6120084e-06
3.6314268e-06
3.613608e-06
3.6123804e-06
3.61863e-06
3.6041964e-06
3.6130128e-06
3.6012204e-06
3.598914e-06
3.59631e-06
3.600774e-06
3.603006e-06
3.6153192e-06
3.6283392e-06
3.6204528e-06
3.6471996e-06
3.66606e-06
3.6502128e-06
3.645414e-06
3.6453768e-06
3.645786e-06
3.5887584e-06
3.5924784e-06
3.5896884e-06
3.6162492e-06
3.618258e-06
3.6308316e-06
3.6354816e-06
3.6269256e-06
3.6250656e-06
3.612492e-06
3.6163236e-06
3.6133476e-06
3.6187788e-06
3.6168816e-06
3.6060192e-06
3.5948592e-06
3.5913252e-06
3.6034524e-06
3.6029688e-06
3.5884236e-06
3.6213084e-06
3.6360024e-06
3.6412848e-06
3.6445584e-06
3.6330264e-06
3.6255864e-06
3.613236e-06
3.6081768e-06
3.6001044e-06
3.6020388e-06
3.6172908e-06
3.6170304e-06
3.6072468e-06
3.589614e-06
3.601332e-06
3.6213084e-06
3.60468e-06
3.6115248e-06
3.6134964e-06
3.6230568e-06
3.642624e-06
3.6332124e-06
3.61863e-06
3.6107808e-06
3.6228708e-06
3.6308316e-06
3.6304224e-06
3.6198576e-06
3.6126036e-06
3.5989884e-06
3.6229824e-06
3.6358164e-06
3.6218292e-06
3.63723e-06
3.636858e-06
3.6434052e-06
3.6411732e-06
3.6542304e-06
3.6507336e-06
3.6461208e-06
3.6237636e-06
3.6169932e-06
3.6169932e-06
3.5996208e-06
3.5921064e-06
3.5770776e-06
3.5836992e-06
3.5980212e-06
3.5961984e-06
3.5818764e-06
3.5876424e-06
3.5822484e-06
3.593892e-06
3.6117852e-06
3.6451164e-06
3.6394992e-06
3.6432564e-06
3.632952e-06
3.6405036e-06
3.6386064e-06
3.6012576e-06
3.5972028e-06
3.60096e-06
3.6001044e-06
3.6002532e-06
3.5853732e-06
3.6046428e-06
3.5995836e-06
3.6062052e-06
3.6089952e-06
3.5870472e-06
3.6092556e-06
3.6225732e-06
3.6088464e-06
3.6166956e-06
3.622722e-06
3.5976492e-06
3.5915856e-06
3.5898744e-06
3.584406e-06
3.5923668e-06
3.597612e-06
3.6044568e-06
3.6042336e-06
3.6137568e-06
3.6317616e-06
3.6255492e-06
3.6402432e-06
3.6464184e-06
3.645972e-06
3.6518496e-06
3.6420288e-06
3.6512916e-06
3.6396852e-06
3.6257724e-06
3.59445e-06
3.6191508e-06
3.6265164e-06
3.627186e-06
3.6163608e-06
3.6195228e-06
3.6146496e-06
3.6132732e-06
3.5934828e-06
3.5924784e-06
3.591102e-06
3.5867868e-06
3.5995464e-06
3.58608e-06
3.5889444e-06
3.5809464e-06
3.593706e-06
3.5863032e-06
3.5963472e-06
3.5885352e-06
3.6024852e-06
3.6019644e-06
3.5997696e-06
3.608028e-06
3.620118e-06
3.6271488e-06
3.601704e-06
3.6184812e-06
3.6201552e-06
3.6189648e-06
3.6302364e-06
3.6325428e-06
3.6286368e-06
3.643368e-06
3.665688e-06
3.6662088e-06
3.64188e-06
3.6288228e-06
3.62235e-06
3.6216432e-06
3.6081768e-06
3.6062424e-06
3.6267396e-06
3.646158e-06
3.6343284e-06
3.6581364e-06
3.6460092e-06
3.630534e-06
3.6170676e-06
3.6251028e-06
3.624954e-06
3.6288228e-06
3.6257352e-06
3.6026712e-06
3.6100368e-06
3.6123804e-06
3.6350724e-06
3.6384204e-06
3.6304224e-06
3.651552e-06
3.6541188e-06
3.6324684e-06
3.6202296e-06
3.6191136e-06
3.6443724e-06
3.6073212e-06
3.6192624e-06
3.6316128e-06
3.614538e-06
3.6178116e-06
3.6202668e-06
3.6143892e-06
3.6129756e-06
3.6243588e-06
3.6285252e-06
3.6115248e-06
3.599472e-06
3.5867496e-06
3.5995464e-06
3.582918e-06
3.5923668e-06
3.5973888e-06
3.611562e-06
3.61677e-06
3.6117852e-06
3.6164352e-06
3.610632e-06
3.6110412e-06
3.6127524e-06
3.6075816e-06
3.5939664e-06
3.6016296e-06
3.5953428e-06
3.5694516e-06
3.5769288e-06
3.58515e-06
3.5904324e-06
3.5937804e-06
3.5883492e-06
3.6052008e-06
3.5976864e-06
3.6060564e-06
3.614166e-06
3.5952312e-06
3.6182208e-06
3.6075816e-06
3.6267768e-06
3.631836e-06
3.6386808e-06
3.6276324e-06
3.643926e-06
3.624582e-06
3.6274836e-06
3.6320592e-06
3.629976e-06
3.6151704e-06
3.6052752e-06
3.6114504e-06
3.6023364e-06
3.5997324e-06
3.598728e-06
3.611748e-06
3.6081768e-06
3.60468e-06
3.5975748e-06
3.6255492e-06
3.6295668e-06
3.6397968e-06
3.6144636e-06
3.61212e-06
3.6099624e-06
3.6215688e-06
3.6230196e-06
3.632394e-06
3.6451164e-06
3.6453768e-06
3.64932e-06
3.625698e-06
3.5999556e-06
3.6018528e-06
3.6024108e-06
3.5943384e-06
3.609144e-06
3.6158028e-06
3.6126036e-06
3.6246564e-06
3.6165096e-06
3.6232056e-06
3.6364116e-06
3.6474228e-06
3.6297156e-06
3.6314268e-06
3.5970168e-06
3.6194856e-06
3.6086232e-06
3.6094788e-06
3.6056472e-06
3.6024108e-06
3.6324312e-06
3.61119e-06
3.5889072e-06
3.6019644e-06
3.59073e-06
3.605424e-06
3.6098508e-06
3.6383832e-06
3.6485388e-06
3.638904e-06
3.642252e-06
3.6333984e-06
3.6195228e-06
3.6417312e-06
3.6257724e-06
3.6062796e-06
3.622164e-06
3.6165096e-06
3.6187044e-06
3.6106692e-06
3.6084372e-06
3.621234e-06
3.616026e-06
3.6312036e-06
3.6307572e-06
3.6298644e-06
3.6264792e-06
3.6380112e-06
3.6520728e-06
3.6594012e-06
3.64095e-06
3.636114e-06
3.6358908e-06
3.6179232e-06
3.6044196e-06
3.6029688e-06
3.6075072e-06
3.6160632e-06
3.6187416e-06
3.6199692e-06
3.6456372e-06
3.6370812e-06
3.6254748e-06
3.6282648e-06
3.6342912e-06
3.6351096e-06
3.6270372e-06
3.64467e-06
3.6334728e-06
3.6427356e-06
3.6538584e-06
3.6434052e-06
3.6432936e-06
3.6445956e-06
3.6591408e-06
3.6624144e-06
3.6618936e-06
3.6431076e-06
3.6309804e-06
3.6194856e-06
3.6079536e-06
3.611562e-06
3.6267768e-06
3.633882e-06
3.6301248e-06
3.634254e-06
3.6629352e-06
3.5978352e-06
3.6228708e-06
3.6166212e-06
3.64653e-06
3.6488364e-06
3.6466788e-06
3.6274464e-06
3.6146124e-06
3.5927016e-06
3.59445e-06
3.6041964e-06
3.5992116e-06
3.6005136e-06
3.6063168e-06
3.6001044e-06
3.601518e-06
3.6164724e-06
3.6021504e-06
3.610818e-06
3.592962e-06
3.6444096e-06
3.6310548e-06
3.614724e-06
3.6073956e-06
3.6195228e-06
3.6062796e-06
3.6167328e-06
3.6265164e-06
3.6196344e-06
3.6369324e-06
3.6403176e-06
3.6148356e-06
3.6338076e-06
3.6206016e-06
3.6095904e-06
3.6265536e-06
3.637974e-06
3.6222012e-06
3.6276324e-06
3.6453024e-06
3.6057216e-06
3.611376e-06
3.6078048e-06
3.6014808e-06
3.6109668e-06
3.622722e-06
3.616212e-06
3.6029316e-06
3.5917716e-06
3.5987652e-06
3.6089208e-06
3.6182208e-06
3.6238752e-06
3.6223872e-06
3.6134592e-06
3.607842e-06
3.595194e-06
3.6088092e-06
3.5976864e-06
3.59631e-06
3.595566e-06
3.6002532e-06
3.6161376e-06
3.6111156e-06
3.6097764e-06
3.6119712e-06
3.618258e-06
3.6158028e-06
3.6168444e-06
3.6089208e-06
3.6134592e-06
3.6182208e-06
3.6211968e-06
3.6084e-06
3.594264e-06
3.5914368e-06
3.6053124e-06
3.6294924e-06
3.60282e-06
3.5988024e-06
3.5946732e-06
3.5997696e-06
3.6105204e-06
3.6118224e-06
3.6205272e-06
3.6183324e-06
3.6216804e-06
3.6244332e-06
3.6215316e-06
3.6414708e-06
3.6235404e-06
3.6206016e-06
3.60282e-06
3.6150216e-06
3.610446e-06
3.6275208e-06
3.6307944e-06
3.5981328e-06
3.5952684e-06
3.597984e-06
3.6387924e-06
3.6331008e-06
3.6318732e-06
3.6174024e-06
3.6145008e-06
3.598728e-06
3.5947104e-06
3.5919576e-06
3.5974632e-06
3.5931108e-06
3.5929248e-06
3.6055728e-06
3.6160632e-06
3.6314268e-06
3.6471996e-06
3.638346e-06
3.6404664e-06
3.6354816e-06
3.6238008e-06
3.629232e-06
3.6264792e-06
3.631092e-06
3.6371184e-06
3.6282648e-06
3.6261072e-06
3.6233916e-06
3.6326916e-06
3.6026712e-06
3.59352e-06
3.6044196e-06
3.5969424e-06
3.5928132e-06
3.5979468e-06
3.6052008e-06
3.5996208e-06
3.6173652e-06
3.611562e-06
3.6196716e-06
3.6147612e-06
3.618444e-06
3.57399e-06
3.5937432e-06
3.576222e-06
3.5789748e-06
3.5980956e-06
3.594636e-06
3.5931108e-06
3.6071724e-06
3.6181836e-06
3.6208248e-06
3.6145008e-06
3.6179232e-06
3.6358164e-06
3.6179976e-06
3.6181836e-06
3.6148356e-06
3.6166956e-06
3.6053124e-06
3.5952312e-06
3.5779704e-06
3.660108e-06
3.6437028e-06
3.6470508e-06
3.6538584e-06
3.6503988e-06
3.6205644e-06
3.5927388e-06
3.580314e-06
3.5864892e-06
3.5817276e-06
3.5948592e-06
3.6059448e-06
3.6132732e-06
3.602262e-06
3.6080652e-06
3.5891304e-06
3.585708e-06
3.6148356e-06
3.6328032e-06
3.6453024e-06
3.5982444e-06
3.58515e-06
3.5982072e-06
3.6068376e-06
3.6078048e-06
3.6166584e-06
3.627186e-06
3.6324684e-06
3.6224244e-06
3.6054984e-06
3.6008856e-06
3.607656e-06
3.60933e-06
3.6278928e-06
3.6441864e-06
3.647646e-06
3.659178e-06
3.6392388e-06
3.6172536e-06
3.606726e-06
3.577896e-06
3.5772636e-06
3.5793096e-06
3.5861172e-06
3.5826948e-06
3.5850384e-06
3.5802396e-06
3.5906928e-06
3.5982816e-06
3.598914e-06
3.5912508e-06
3.5923296e-06
3.58236e-06
3.5983188e-06
3.6031176e-06
3.597612e-06
3.5916972e-06
3.6012204e-06