/*--------------------------------*- C++ -*----------------------------------*\
| =========                 |                                                 |
| \\      /  F ield         | OpenFOAM: The Open Source CFD Toolbox           |
|  \\    /   O peration     | Version:  v1706                                 |
|   \\  /    A nd           | Web:      www.OpenFOAM.com                      |
|    \\/     M anipulation  |                                                 |
\*---------------------------------------------------------------------------*/
FoamFile
{
    version     2.0;
    format      ascii;
    class       volScalarField;
    location    "0.01";
    object      rhoN_mixture;
}
// * * * * * * * * * * * * * * * * * * * * * * * * * * * * * * * * * * * * * //

dimensions      [0 -3 0 0 0 0 0];


internalField   nonuniform List<scalar> 
5120
(
1.003648e+20
1.002536e+20
1.003872e+20
1.002936e+20
1.004192e+20
1.001632e+20
1.00308e+20
1.001776e+20
1.002464e+20
9.98344e+19
1.000216e+20
9.99344e+19
9.9916e+19
9.92952e+19
9.92384e+19
9.91656e+19
9.95176e+19
1.000184e+20
9.9672e+19
9.9908e+19
9.9484e+19
9.97512e+19
9.986e+19
9.96696e+19
9.94352e+19
9.9712e+19
9.96104e+19
9.9444e+19
9.9468e+19
9.93752e+19
9.954e+19
9.96856e+19
9.99912e+19
1.00392e+20
1.000408e+20
9.95032e+19
9.95584e+19
9.90112e+19
9.89184e+19
9.9308e+19
9.91544e+19
9.88904e+19
9.9356e+19
9.90712e+19
9.90888e+19
9.956e+19
1.000688e+20
9.97408e+19
9.96496e+19
9.88792e+19
9.8668e+19
9.88528e+19
9.86448e+19
9.87872e+19
9.89192e+19
9.93944e+19
9.96544e+19
9.95024e+19
9.93784e+19
9.92464e+19
1.004048e+20
9.98728e+19
1.0018e+20
1.000384e+20
1.000504e+20
9.98128e+19
9.97592e+19
1.000496e+20
1.00024e+20
1.000272e+20
1.002208e+20
9.97264e+19
9.98552e+19
9.96856e+19
9.97792e+19
9.986e+19
9.96976e+19
9.9992e+19
1.000376e+20
1.002816e+20
1.011016e+20
1.011536e+20
1.009544e+20
1.002728e+20
1.000288e+20
9.9864e+19
1.001776e+20
1.00152e+20
1.0076e+20
1.011416e+20
1.007248e+20
1.005104e+20
1.003464e+20
1.007512e+20
1.004008e+20
1.001376e+20
9.94496e+19
9.95248e+19
9.9996e+19
1.004832e+20
1.001304e+20
9.98808e+19
1.000944e+20
1.005744e+20
1.005032e+20
1.003216e+20
1.001144e+20
1.003224e+20
9.98624e+19
9.984e+19
1.000392e+20
1.002008e+20
9.97344e+19
9.85552e+19
9.87272e+19
9.9152e+19
9.92296e+19
9.918e+19
9.96696e+19
9.97544e+19
9.98864e+19
9.94432e+19
9.92608e+19
9.95408e+19
9.972e+19
9.97008e+19
9.95656e+19
9.982e+19
9.94752e+19
9.94528e+19
9.93784e+19
9.91848e+19
9.95136e+19
9.98864e+19
9.982e+19
9.96328e+19
9.9812e+19
1.005192e+20
9.98488e+19
1.000072e+20
9.974e+19
1.000632e+20
1.002896e+20
1.0012e+20
1.001816e+20
1.000456e+20
1.002608e+20
1.003368e+20
1.004728e+20
1.00052e+20
1.001744e+20
1.003128e+20
1.002864e+20
9.99248e+19
1.000488e+20
9.99824e+19
9.98632e+19
9.9512e+19
9.96808e+19
9.9872e+19
1.003952e+20
1.004e+20
1.005088e+20
1.002624e+20
1.003616e+20
1.005136e+20
1.000536e+20
9.99256e+19
9.99592e+19
1.000632e+20
1.001296e+20
9.9924e+19
1.000064e+20
1.003736e+20
1.002856e+20
1.00744e+20
1.005496e+20
1.004624e+20
1.001176e+20
1.004896e+20
1.002952e+20
1.002128e+20
1.003296e+20
9.99672e+19
1.004736e+20
1.007968e+20
1.009496e+20
1.007568e+20
1.005072e+20
1.007216e+20
1.00272e+20
1.006248e+20
1.007944e+20
1.004928e+20
1.001672e+20
1.004256e+20
1.004112e+20
1.007376e+20
1.00628e+20
1.002656e+20
1.001536e+20
1.002872e+20
1.001512e+20
9.976e+19
9.99096e+19
9.99536e+19
1.002568e+20
1.003448e+20
1.006608e+20
1.00548e+20
1.005952e+20
1.010728e+20
1.00824e+20
1.013512e+20
1.012176e+20
1.015224e+20
1.012296e+20
1.007536e+20
1.00584e+20
1.006416e+20
1.002176e+20
1.004616e+20
1.002464e+20
1.002168e+20
9.99632e+19
9.96664e+19
9.96912e+19
9.9576e+19
9.99352e+19
1.00228e+20
1.000248e+20
1.00192e+20
1.000224e+20
9.99744e+19
9.98936e+19
9.96752e+19
1.0008e+20
1.00252e+20
1.008712e+20
1.008264e+20
1.000304e+20
1.003336e+20
1.00328e+20
1.001e+20
9.99168e+19
1.001008e+20
1.003832e+20
1.005856e+20
1.004096e+20
1.002032e+20
9.99216e+19
9.9936e+19
9.98424e+19
9.9976e+19
1.002592e+20
9.98968e+19
9.96096e+19
9.95952e+19
9.99544e+19
9.984e+19
9.92096e+19
9.94936e+19
9.98216e+19
9.94848e+19
9.89608e+19
9.86584e+19
9.90192e+19
9.91256e+19
9.94824e+19
9.9656e+19
9.93904e+19
9.94432e+19
9.93768e+19
9.96504e+19
9.9996e+19
9.99128e+19
1.002904e+20
9.97024e+19
9.9912e+19
9.94952e+19
1.001e+20
9.98624e+19
9.95856e+19
9.91912e+19
9.9196e+19
9.95624e+19
9.94832e+19
9.91024e+19
9.96888e+19
9.99784e+19
1.00044e+20
1.001824e+20
1.0006e+20
9.97408e+19
1.001448e+20
1.004912e+20
1.005376e+20
1.002416e+20
1.004576e+20
1.004e+20
9.96384e+19
9.98088e+19
9.99256e+19
9.97896e+19
9.99552e+19
9.9528e+19
9.97856e+19
1.001368e+20
9.96968e+19
9.9424e+19
9.98184e+19
9.97456e+19
9.96056e+19
9.93312e+19
9.91568e+19
9.8932e+19
9.87416e+19
9.93984e+19
9.92704e+19
9.95744e+19
9.994e+19
9.98808e+19
9.99296e+19
1.003368e+20
9.99136e+19
9.97584e+19
9.99936e+19
9.98552e+19
1.002456e+20
1.00052e+20
9.99144e+19
9.96048e+19
9.96072e+19
9.94544e+19
9.97072e+19
1.003656e+20
1.006672e+20
1.003392e+20
1.003024e+20
1.001304e+20
9.88896e+19
9.94592e+19
9.92736e+19
9.90776e+19
9.92224e+19
9.9228e+19
9.89816e+19
9.91848e+19
9.9668e+19
9.97744e+19
9.9796e+19
9.99848e+19
9.99016e+19
9.97824e+19
1.000464e+20
1.003064e+20
9.96328e+19
9.998e+19
9.9708e+19
9.9092e+19
9.96456e+19
9.91688e+19
9.9536e+19
9.99224e+19
9.92272e+19
9.8988e+19
9.9176e+19
9.95608e+19
9.95752e+19
9.97024e+19
9.95472e+19
9.97072e+19
9.98496e+19
9.99888e+19
9.92808e+19
9.94024e+19
9.93672e+19
9.91688e+19
9.96432e+19
9.96776e+19
9.91176e+19
9.93408e+19
9.9688e+19
9.98416e+19
1.002408e+20
1.002672e+20
1.00032e+20
1.000408e+20
9.96848e+19
9.97056e+19
9.9904e+19
1.005184e+20
1.00396e+20
1.000896e+20
9.98744e+19
9.93176e+19
9.96912e+19
9.96552e+19
9.95056e+19
9.92104e+19
9.93928e+19
9.91864e+19
9.9556e+19
9.9944e+19
9.98848e+19
9.98072e+19
9.98832e+19
9.95144e+19
9.98488e+19
9.98392e+19
1.003848e+20
1.006232e+20
1.007144e+20
1.00608e+20
1.00632e+20
1.00512e+20
1.003504e+20
1.002792e+20
1.00052e+20
9.98616e+19
9.97584e+19
9.98376e+19
9.98048e+19
9.99288e+19
9.99832e+19
1.003752e+20
9.99656e+19
1.000208e+20
9.9776e+19
1.001824e+20
9.9808e+19
9.98224e+19
9.99608e+19
1.003528e+20
1.0058e+20
1.00488e+20
1.006256e+20
1.003712e+20
9.976e+19
9.96184e+19
9.99856e+19
1.001552e+20
9.98528e+19
9.99824e+19
9.98784e+19
9.97784e+19
1.001616e+20
1.002808e+20
1.003408e+20
1.002448e+20
1.004072e+20
9.9972e+19
1.001488e+20
1.000184e+20
1.00784e+20
1.005632e+20
1.003512e+20
9.99136e+19
1.000576e+20
9.99472e+19
9.9792e+19
9.97056e+19
9.94944e+19
9.96784e+19
9.95744e+19
9.99816e+19
1.002744e+20
1.001664e+20
1.0018e+20
1.002224e+20
1.001312e+20
1.0004e+20
9.96048e+19
9.9812e+19
9.9352e+19
9.95432e+19
9.92928e+19
9.958e+19
9.94088e+19
9.9556e+19
1.005696e+20
1.008096e+20
1.00868e+20
1.011272e+20
1.013512e+20
1.006728e+20
1.0044e+20
9.9936e+19
1.003104e+20
9.97352e+19
9.97296e+19
9.95264e+19
9.99456e+19
9.99392e+19
1.001544e+20
9.99272e+19
1.001864e+20
1.003688e+20
1.005456e+20
1.004256e+20
9.98488e+19
9.9412e+19
9.97776e+19
9.9756e+19
9.97416e+19
9.98824e+19
1.001672e+20
1.00088e+20
1.005264e+20
1.004568e+20
1.007632e+20
1.00252e+20
1.000064e+20
9.9828e+19
9.96176e+19
9.98744e+19
1.000072e+20
1.0008e+20
1.003008e+20
9.97712e+19
1.006104e+20
1.005664e+20
1.006368e+20
1.004824e+20
1.002368e+20
1.007e+20
1.003736e+20
1.007776e+20
1.009704e+20
1.008648e+20
1.00976e+20
1.005952e+20
1.005536e+20
1.006568e+20
1.004232e+20
1.005168e+20
1.002328e+20
1.004112e+20
1.007608e+20
1.003528e+20
9.9452e+19
9.9868e+19
1.001344e+20
9.99552e+19
1.001752e+20
1.000456e+20
9.96448e+19
9.96952e+19
1.00184e+20
9.97896e+19
1.001096e+20
1.000536e+20
9.98472e+19
9.96384e+19
9.95912e+19
9.95344e+19
9.98128e+19
9.9556e+19
9.92472e+19
9.95448e+19
9.97072e+19
9.91048e+19
9.92744e+19
9.98744e+19
9.99848e+19
1.000752e+20
9.9772e+19
9.94928e+19
9.89088e+19
9.92592e+19
9.93904e+19
9.99456e+19
1.000032e+20
9.98512e+19
9.9652e+19
9.98368e+19
9.9952e+19
9.99488e+19
9.98664e+19
9.9992e+19
1.000544e+20
9.99672e+19
9.98184e+19
9.97784e+19
1.001152e+20
1.008224e+20
1.004168e+20
1.006208e+20
1.00812e+20
1.0082e+20
1.00608e+20
1.001312e+20
9.95744e+19
9.9836e+19
9.97328e+19
9.97608e+19
9.94848e+19
9.98176e+19
9.9876e+19
1.002056e+20
1.009224e+20
1.00344e+20
1.00052e+20
1.004296e+20
1.002576e+20
1.003232e+20
9.98056e+19
9.99984e+19
9.95808e+19
9.9684e+19
1.001208e+20
1.000816e+20
1.001272e+20
1.00304e+20
1.001432e+20
1.00392e+20
1.00664e+20
1.009328e+20
1.005656e+20
1.005872e+20
1.002912e+20
9.99624e+19
1.00044e+20
9.99536e+19
9.988e+19
9.992e+19
9.97992e+19
9.98768e+19
9.96728e+19
9.96832e+19
9.91208e+19
9.958e+19
9.9712e+19
1.000824e+20
1.001624e+20
9.9904e+19
1.002248e+20
9.99888e+19
9.98832e+19
9.98656e+19
9.97896e+19
9.94984e+19
9.91384e+19
9.92456e+19
9.93936e+19
1.001832e+20
1.000312e+20
9.99176e+19
9.96872e+19
1.003544e+20
1.004464e+20
1.005096e+20
1.000112e+20
9.97304e+19
9.98824e+19
9.95584e+19
9.91912e+19
9.94744e+19
9.95712e+19
9.99232e+19
9.992e+19
1.000304e+20
1.004144e+20
1.003816e+20
1.001832e+20
9.98024e+19
9.96e+19
9.9948e+19
9.9872e+19
9.94176e+19
9.98208e+19
9.95704e+19
9.98776e+19
9.9836e+19
9.9316e+19
9.9552e+19
1.000648e+20
1.004568e+20
1.005608e+20
1.002656e+20
1.003272e+20
1.004248e+20
1.00132e+20
9.99624e+19
1.000448e+20
1.004216e+20
1.002808e+20
9.96184e+19
9.92056e+19
9.93144e+19
9.94352e+19
9.92144e+19
9.92488e+19
9.9056e+19
9.98488e+19
1.001808e+20
1.001768e+20
1.003304e+20
1.0038e+20
1.004144e+20
1.000168e+20
9.9636e+19
9.93032e+19
9.95e+19
9.9632e+19
9.96568e+19
9.98912e+19
1.00016e+20
1.002184e+20
1.000656e+20
1.00344e+20
1.003168e+20
9.98824e+19
1.001104e+20
9.96712e+19
9.9768e+19
9.94376e+19
9.96608e+19
9.99344e+19
9.99024e+19
1.002576e+20
1.005144e+20
1.004496e+20
1.001296e+20
9.9984e+19
1.001152e+20
1.005024e+20
1.006992e+20
1.003832e+20
9.99992e+19
9.9852e+19
9.9504e+19
9.98216e+19
1.000024e+20
1.002352e+20
9.97336e+19
9.9728e+19
9.98992e+19
9.98848e+19
9.98736e+19
9.9996e+19
9.99968e+19
9.988e+19
1.000424e+20
9.97544e+19
9.9664e+19
9.97424e+19
9.9932e+19
1.004376e+20
1.004216e+20
1.004704e+20
1.005104e+20
1.001568e+20
9.99872e+19
1.002328e+20
1.003416e+20
1.002272e+20
1.003104e+20
1.003328e+20
1.002672e+20
9.9728e+19
9.9584e+19
9.9888e+19
9.94752e+19
9.99888e+19
9.99624e+19
1.000144e+20
9.9952e+19
9.9628e+19
9.97384e+19
9.9992e+19
9.99896e+19
1.003408e+20
1.005008e+20
9.98e+19
1.00132e+20
9.99632e+19
1.00164e+20
1.001544e+20
1.004192e+20
9.92984e+19
9.92656e+19
9.9568e+19
9.95968e+19
9.96096e+19
1.00056e+20
9.96592e+19
9.9708e+19
9.94792e+19
9.94696e+19
9.94448e+19
9.96976e+19
9.95408e+19
9.95072e+19
9.98352e+19
1.00184e+20
9.97696e+19
9.96152e+19
9.93056e+19
9.90584e+19
1.002784e+20
1.00244e+20
9.9996e+19
9.95432e+19
9.91896e+19
9.87512e+19
9.862e+19
9.95104e+19
9.97176e+19
9.92304e+19
9.95616e+19
9.96296e+19
9.99992e+19
1.001216e+20
1.004064e+20
1.001712e+20
9.9892e+19
9.96832e+19
1.004088e+20
1.004584e+20
9.9344e+19
9.96072e+19
9.97392e+19
9.984e+19
1.00288e+20
1.00084e+20
9.99728e+19
9.974e+19
9.96256e+19
1.000952e+20
1.001064e+20
1.001336e+20
9.98976e+19
9.99768e+19
1.000696e+20
9.9416e+19
9.98632e+19
9.92616e+19
9.91312e+19
9.93536e+19
9.9608e+19
9.96048e+19
1.000248e+20
1.001312e+20
9.99256e+19
9.994e+19
1.000064e+20
9.93664e+19
9.9136e+19
9.94376e+19
9.97224e+19
9.98576e+19
1.00056e+20
9.96864e+19
9.96928e+19
9.97376e+19
9.95456e+19
9.96944e+19
9.94496e+19
9.942e+19
1.006328e+20
1.005312e+20
1.001416e+20
9.968e+19
1.001672e+20
1.00396e+20
9.99664e+19
1.000376e+20
9.98592e+19
9.98872e+19
9.97816e+19
9.99976e+19
9.9624e+19
9.98256e+19
1.001448e+20
1.0036e+20
1.002176e+20
1.000432e+20
1.005224e+20
1.005776e+20
1.008024e+20
1.011168e+20
1.011536e+20
1.014024e+20
1.009712e+20
1.010344e+20
1.008344e+20
1.006872e+20
1.003728e+20
1.000976e+20
9.98464e+19
1.002768e+20
1.006144e+20
1.005256e+20
1.00348e+20
1.003776e+20
1.004744e+20
1.003344e+20
1.003752e+20
1.006152e+20
9.99072e+19
1.002448e+20
1.003584e+20
1.00784e+20
1.007992e+20
1.0068e+20
1.008248e+20
1.008184e+20
1.003648e+20
1.00612e+20
1.004288e+20
1.000464e+20
9.99672e+19
9.99416e+19
9.96928e+19
9.95408e+19
9.96376e+19
9.9724e+19
9.9772e+19
9.9784e+19
9.85744e+19
9.9112e+19
9.91576e+19
9.95064e+19
9.94704e+19
9.94256e+19
9.96824e+19
9.9248e+19
9.9196e+19
9.92736e+19
9.94352e+19
9.95352e+19
9.974e+19
9.97336e+19
9.97648e+19
9.968e+19
9.94824e+19
9.9328e+19
9.87504e+19
9.86816e+19
9.95728e+19
9.96712e+19
9.93928e+19
9.94472e+19
9.97496e+19
9.94608e+19
9.97352e+19
9.96704e+19
9.96312e+19
9.97632e+19
9.98424e+19
1.0004e+20
9.98416e+19
9.96608e+19
1.002112e+20
9.98912e+19
9.97048e+19
9.9832e+19
9.9708e+19
9.9596e+19
9.93928e+19
9.9452e+19
9.98256e+19
9.9744e+19
9.9388e+19
9.94016e+19
9.9788e+19
9.97664e+19
1.002448e+20
1.000616e+20
1.001008e+20
9.98272e+19
1.003504e+20
1.001056e+20
9.98296e+19
1.000112e+20
1.000072e+20
9.95592e+19
9.92584e+19
9.95304e+19
1.010368e+20
1.011808e+20
1.006656e+20
1.0068e+20
1.006056e+20
1.005088e+20
1.000552e+20
9.9944e+19
9.978e+19
1.001104e+20
9.97592e+19
9.98232e+19
1.002896e+20
1.002208e+20
1.008144e+20
1.005096e+20
1.003648e+20
9.99544e+19
9.97776e+19
1.0026e+20
9.96768e+19
9.97672e+19
1.001992e+20
1.004024e+20
1.00608e+20
1.003712e+20
1.0004e+20
1.004192e+20
1.001e+20
9.98544e+19
9.94736e+19
9.93408e+19
9.95448e+19
9.968e+19
9.95264e+19
9.90384e+19
9.942e+19
9.95584e+19
9.99304e+19
9.97864e+19
1.004664e+20
1.002608e+20
1.003928e+20
1.00064e+20
9.99976e+19
1.001992e+20
1.001144e+20
1.00116e+20
1.004944e+20
1.007072e+20
1.005512e+20
1.000696e+20
9.97696e+19
1.001952e+20
1.003512e+20
1.003568e+20
9.99832e+19
1.001992e+20
1.000192e+20
1.003792e+20
9.96808e+19
9.99536e+19
1.001104e+20
1.005792e+20
1.006584e+20
1.007952e+20
1.006456e+20
1.003336e+20
9.96272e+19
9.96832e+19
9.96904e+19
1.001544e+20
1.00272e+20
9.96072e+19
9.92512e+19
9.95544e+19
9.97176e+19
9.99976e+19
1.00024e+20
1.000328e+20
9.94768e+19
9.93488e+19
9.95048e+19
9.95208e+19
9.98432e+19
9.95864e+19
9.99192e+19
9.96696e+19
9.96232e+19
9.98032e+19
9.97848e+19
1.00088e+20
9.99032e+19
9.9912e+19
9.96672e+19
9.93256e+19
9.95776e+19
9.96288e+19
9.9524e+19
9.93848e+19
1.006656e+20
1.003256e+20
1.002032e+20
1.00284e+20
1.001112e+20
9.9928e+19
1.000208e+20
9.9876e+19
9.98608e+19
9.96712e+19
9.93392e+19
9.93816e+19
9.95304e+19
9.96096e+19
9.96104e+19
9.97432e+19
1.000104e+20
1.003296e+20
1.005272e+20
1.004408e+20
9.96344e+19
9.97736e+19
9.96864e+19
9.92944e+19
9.928e+19
9.91824e+19
9.91408e+19
9.95512e+19
9.9324e+19
9.95544e+19
9.99528e+19
9.97696e+19
9.98608e+19
9.95512e+19
9.95768e+19
9.96752e+19
9.952e+19
9.96216e+19
9.94504e+19
9.9464e+19
1.000256e+20
1.001392e+20
9.9784e+19
9.99848e+19
9.99e+19
9.98944e+19
9.97504e+19
9.94296e+19
9.95752e+19
9.9812e+19
9.9904e+19
1.000096e+20
1.003912e+20
9.9916e+19
9.9676e+19
9.9384e+19
9.93672e+19
9.96072e+19
9.96536e+19
9.99416e+19
1.002416e+20
9.97552e+19
9.93224e+19
9.91864e+19
9.94616e+19
9.93872e+19
9.97576e+19
1.005304e+20
1.003184e+20
1.004152e+20
1.000448e+20
9.9636e+19
9.93936e+19
9.95488e+19
9.9692e+19
9.97728e+19
1.0068e+20
1.004152e+20
1.005368e+20
1.004136e+20
9.96112e+19
1.000048e+20
9.99168e+19
9.97552e+19
9.95272e+19
9.94328e+19
9.99752e+19
9.99336e+19
1.00432e+20
1.005632e+20
1.004696e+20
1.003104e+20
1.000768e+20
9.9952e+19
9.99904e+19
1.00012e+20
9.95912e+19
9.9664e+19
9.9692e+19
9.98368e+19
9.98704e+19
9.97152e+19
9.98352e+19
1.000648e+20
9.97376e+19
9.93608e+19
9.88944e+19
9.91688e+19
9.9128e+19
9.91768e+19
9.89864e+19
9.91816e+19
9.93128e+19
1.002264e+20
1.00448e+20
1.006088e+20
1.005256e+20
1.003824e+20
1.002192e+20
1.002128e+20
1.010552e+20
1.005176e+20
1.005144e+20
1.000888e+20
1.000448e+20
9.98248e+19
1.000576e+20
1.007384e+20
1.005744e+20
1.007456e+20
1.004496e+20
1.001856e+20
9.99648e+19
9.98472e+19
1.001048e+20
1.001624e+20
1.002712e+20
1.001984e+20
1.005808e+20
1.010136e+20
9.95632e+19
9.93024e+19
9.9164e+19
9.94672e+19
9.94008e+19
9.93424e+19
9.97288e+19
9.9648e+19
1.0042e+20
1.0038e+20
1.002952e+20
1.004656e+20
1.006672e+20
1.004352e+20
1.003736e+20
9.99272e+19
9.99736e+19
1.000816e+20
9.97216e+19
1.000416e+20
1.005528e+20
1.006872e+20
1.001704e+20
9.96952e+19
9.98992e+19
1.00092e+20
1.000744e+20
1.005208e+20
1.009336e+20
1.00468e+20
1.004736e+20
9.97456e+19
9.96472e+19
9.97968e+19
9.97664e+19
9.9952e+19
9.96016e+19
9.9424e+19
9.97968e+19
1.002216e+20
9.98896e+19
9.98984e+19
9.99216e+19
1.000584e+20
1.003832e+20
1.004808e+20
1.004848e+20
1.002752e+20
1.000144e+20
9.99616e+19
9.95288e+19
9.98216e+19
9.98496e+19
1.002768e+20
9.9836e+19
9.99912e+19
1.00244e+20
1.002568e+20
1.002824e+20
1.002816e+20
9.97056e+19
9.9612e+19
9.97584e+19
9.9108e+19
9.96824e+19
9.958e+19
9.98624e+19
1.001504e+20
1.003888e+20
1.00856e+20
1.006472e+20
1.008632e+20
1.009272e+20
1.011272e+20
1.009856e+20
1.00668e+20
1.0054e+20
1.002648e+20
1.004456e+20
1.000744e+20
9.98928e+19
9.96752e+19
9.94408e+19
9.9448e+19
9.93128e+19
9.95952e+19
9.97376e+19
9.97888e+19
9.95968e+19
9.95936e+19
9.9888e+19
9.97904e+19
9.97144e+19
9.95992e+19
9.93432e+19
9.96128e+19
1.000624e+20
9.99968e+19
1.002272e+20
1.00024e+20
9.99408e+19
9.9804e+19
9.97152e+19
9.94688e+19
9.95248e+19
9.99632e+19
9.93904e+19
9.95328e+19
9.9352e+19
9.94048e+19
9.97208e+19
9.91136e+19
9.87008e+19
9.86472e+19
9.8728e+19
9.91808e+19
9.92136e+19
9.90928e+19
9.9584e+19
9.96432e+19
1.001632e+20
9.98616e+19
9.95392e+19
9.9744e+19
9.98512e+19
9.9508e+19
9.96256e+19
9.956e+19
9.94592e+19
9.90944e+19
9.92992e+19
9.95552e+19
9.9516e+19
9.96224e+19
9.9588e+19
9.95328e+19
9.97208e+19
9.95856e+19
9.9476e+19
9.9608e+19
9.88728e+19
9.92968e+19
9.9972e+19
1.0002e+20
9.97768e+19
9.97296e+19
1.000424e+20
1.00268e+20
1.005728e+20
1.003424e+20
1.001736e+20
9.98184e+19
9.94528e+19
9.94976e+19
9.99912e+19
1.00008e+20
9.93368e+19
9.95656e+19
9.94376e+19
9.9072e+19
1.00316e+20
1.000232e+20
9.95864e+19
9.94064e+19
9.97344e+19
9.94128e+19
9.93872e+19
9.978e+19
9.96232e+19
9.98112e+19
1.001176e+20
1.004728e+20
1.00868e+20
1.009392e+20
1.00872e+20
1.013248e+20
1.008144e+20
1.004056e+20
9.98048e+19
1.001808e+20
1.001248e+20
1.002544e+20
1.004272e+20
1.003496e+20
1.00028e+20
1.004968e+20
1.002256e+20
1.00428e+20
1.003136e+20
1.004768e+20
9.98952e+19
1.006264e+20
1.005016e+20
1.006616e+20
1.007048e+20
1.0044e+20
1.005928e+20
1.003648e+20
1.005688e+20
9.99624e+19
1.001928e+20
1.001104e+20
1.002504e+20
1.006112e+20
1.001992e+20
9.98952e+19
1.0012e+20
1.004472e+20
1.008048e+20
1.009928e+20
1.004728e+20
1.005992e+20
1.00024e+20
1.00216e+20
9.95592e+19
9.96992e+19
9.92808e+19
9.9692e+19
1.002808e+20
1.00116e+20
9.95712e+19
9.99472e+19
1.00188e+20
1.002296e+20
1.003944e+20
1.007376e+20
1.00388e+20
1.0028e+20
9.98368e+19
9.96784e+19
9.9832e+19
9.9536e+19
9.96424e+19
9.99464e+19
9.97496e+19
1.00184e+20
1.002048e+20
1.000056e+20
9.99456e+19
9.9776e+19
9.96576e+19
9.95968e+19
9.96656e+19
9.9844e+19
1.001848e+20
1.0038e+20
1.004416e+20
9.99608e+19
1.004208e+20
1.0036e+20
1.000536e+20
9.9984e+19
1.002432e+20
1.002144e+20
9.97872e+19
9.99696e+19
9.96448e+19
9.95184e+19
9.95512e+19
9.95144e+19
9.96112e+19
9.90168e+19
9.92768e+19
9.92016e+19
9.9432e+19
9.986e+19
9.9696e+19
1.000616e+20
1.001248e+20
1.000104e+20
1.00464e+20
1.006824e+20
1.0062e+20
1.005168e+20
1.004552e+20
1.001448e+20
9.98688e+19
1.001936e+20
9.97744e+19
9.956e+19
9.95376e+19
9.97384e+19
9.978e+19
9.95192e+19
9.97272e+19
9.99608e+19
1.00328e+20
1.003176e+20
9.998e+19
9.96952e+19
1.000664e+20
9.9856e+19
1.00104e+20
9.97432e+19
9.98744e+19
9.96552e+19
9.9456e+19
9.95136e+19
9.98608e+19
9.94312e+19
1.000368e+20
1.002824e+20
1.003944e+20
1.005304e+20
1.00172e+20
1.001776e+20
9.96432e+19
9.954e+19
9.95088e+19
9.96192e+19
9.96608e+19
9.99592e+19
1.001192e+20
1.000056e+20
9.99808e+19
1.003064e+20
1.006416e+20
1.003904e+20
1.000224e+20
9.9884e+19
1.00508e+20
1.002048e+20
1.001024e+20
1.001584e+20
9.99072e+19
1.001032e+20
9.99096e+19
9.98368e+19
9.96792e+19
9.96184e+19
9.95472e+19
9.96608e+19
1.001384e+20
9.9992e+19
1.006856e+20
1.011968e+20
1.005944e+20
1.005616e+20
1.005552e+20
1.008184e+20
9.96088e+19
9.98776e+19
9.97992e+19
1.003232e+20
1.004712e+20
1.007192e+20
1.006784e+20
1.005072e+20
1.002664e+20
9.99648e+19
1.001912e+20
1.001728e+20
1.0038e+20
1.003304e+20
9.98152e+19
9.9508e+19
9.94352e+19
9.99368e+19
9.98112e+19
9.93336e+19
9.99192e+19
1.004616e+20
1.008432e+20
1.009864e+20
1.004904e+20
1.002328e+20
9.9852e+19
9.9848e+19
9.96936e+19
9.9996e+19
1.001336e+20
1.001104e+20
9.97584e+19
9.91936e+19
9.942e+19
9.98512e+19
9.95576e+19
9.9788e+19
9.99344e+19
1.000424e+20
1.005496e+20
1.003024e+20
9.9912e+19
9.97856e+19
1.001992e+20
1.002936e+20
1.003944e+20
9.99392e+19
9.9808e+19
9.9772e+19
1.00304e+20
1.003984e+20
1.000832e+20
1.004016e+20
1.003752e+20
1.00616e+20
1.006416e+20
1.008568e+20
1.008208e+20
1.004856e+20
1.002976e+20
1.000224e+20
1.000504e+20
9.97968e+19
9.95288e+19
9.9112e+19
9.9236e+19
9.94728e+19
9.95512e+19
9.91472e+19
9.92848e+19
9.93368e+19
9.98208e+19
1.001072e+20
1.009512e+20
1.0056e+20
1.003816e+20
1.002944e+20
1.004752e+20
1.00656e+20
9.9468e+19
9.94672e+19
9.92328e+19
9.92984e+19
9.93792e+19
9.9308e+19
9.98464e+19
9.96952e+19
9.98384e+19
9.97752e+19
9.95552e+19
1.001664e+20
1.001664e+20
9.98128e+19
1.001464e+20
1.002368e+20
9.97928e+19
9.98504e+19
9.96784e+19
9.92072e+19
9.92576e+19
9.96312e+19
9.97312e+19
9.98424e+19
9.98648e+19
1.003936e+20
1.000696e+20
1.003512e+20
1.005512e+20
1.004304e+20
1.004144e+20
1.002952e+20
1.006768e+20
1.003256e+20
1.000224e+20
9.93032e+19
9.98944e+19
9.9796e+19
9.97288e+19
9.95904e+19
1.00268e+20
1.000024e+20
9.98224e+19
9.96808e+19
9.97088e+19
9.94232e+19
9.94384e+19
9.956e+19
9.92264e+19
9.95096e+19
9.92512e+19
9.93448e+19
9.92992e+19
9.9488e+19
9.93296e+19
9.9812e+19
9.97232e+19
9.96528e+19
1.000496e+20
1.002704e+20
1.000152e+20
9.93872e+19
9.96736e+19
9.96544e+19
9.9812e+19
1.003104e+20
1.004112e+20
1.00352e+20
1.007008e+20
1.013632e+20
1.011912e+20
1.00484e+20
1.002816e+20
1.002176e+20
1.001408e+20
9.99312e+19
9.96544e+19
1.00392e+20
1.0074e+20
1.004232e+20
1.009936e+20
1.008528e+20
1.003776e+20
1.000464e+20
1.003464e+20
1.002376e+20
1.001864e+20
9.99488e+19
9.93448e+19
9.96864e+19
9.99456e+19
1.006056e+20
1.006304e+20
1.00176e+20
1.005872e+20
1.008632e+20
1.003464e+20
9.99008e+19
9.99008e+19
1.00484e+20
9.9628e+19
9.97224e+19
1.000584e+20
9.9704e+19
9.9984e+19
9.98592e+19
9.98472e+19
9.9892e+19
1.002592e+20
1.0022e+20
9.98704e+19
9.96448e+19
9.94912e+19
9.98712e+19
9.94816e+19
9.96512e+19
9.98184e+19
1.001624e+20
1.002176e+20
9.99408e+19
1.00264e+20
1.001048e+20
9.99824e+19
9.99896e+19
1.000992e+20
9.95408e+19
9.9696e+19
9.96528e+19
9.89024e+19
9.8972e+19
9.9152e+19
9.93408e+19
9.9568e+19
9.94656e+19
1.000048e+20
9.99272e+19
9.9812e+19
9.98328e+19
9.9508e+19
1.002152e+20
1.000248e+20
1.00372e+20
1.00376e+20
1.00452e+20
1.000416e+20
1.004504e+20
9.98952e+19
1.000344e+20
1.0022e+20
1.00232e+20
9.98992e+19
9.97504e+19
9.97792e+19
9.956e+19
9.93664e+19
9.94608e+19
9.994e+19
9.99616e+19
9.99072e+19
9.9792e+19
9.99768e+19
1.002152e+20
1.00696e+20
1.00136e+20
9.98024e+19
9.97256e+19
9.9976e+19
1.001416e+20
1.002256e+20
1.005496e+20
1.005992e+20
1.007312e+20
1.002528e+20
9.96488e+19
9.97688e+19
9.96752e+19
9.93112e+19
9.97376e+19
9.9816e+19
9.96344e+19
9.99856e+19
9.98816e+19
1.001416e+20
1.00436e+20
1.007392e+20
1.004584e+20
1.005112e+20
9.96568e+19
1.00136e+20
9.97328e+19
9.96488e+19
9.95696e+19
9.96704e+19
1.002848e+20
9.98544e+19
9.94736e+19
9.98368e+19
9.9256e+19
9.96456e+19
9.96672e+19
1.005208e+20
1.006744e+20
1.006088e+20
1.006456e+20
1.005704e+20
1.003264e+20
1.009456e+20
1.005336e+20
1.000664e+20
1.00484e+20
1.002712e+20
1.003232e+20
9.99448e+19
9.99e+19
9.9876e+19
9.9624e+19
9.98824e+19
9.99248e+19
1.002272e+20
1.001872e+20
1.004128e+20
1.00752e+20
1.00824e+20
1.003824e+20
1.004192e+20
1.004728e+20
1.00104e+20
9.98584e+19
9.98232e+19
9.9612e+19
9.99072e+19
1.002032e+20
1.00296e+20
1.007512e+20
1.006168e+20
1.004896e+20
1.00848e+20
1.010752e+20
1.007112e+20
1.002928e+20
1.006208e+20
1.004368e+20
1.00664e+20
1.008872e+20
1.005344e+20
1.004808e+20
1.005752e+20
1.007152e+20
1.008936e+20
1.010328e+20
1.008824e+20
1.007688e+20
1.002456e+20
9.9864e+19
9.98552e+19
1.00156e+20
1.000608e+20
1.000072e+20
1.001688e+20
1.008224e+20
9.95448e+19
1.001312e+20
9.99936e+19
1.008064e+20
1.009624e+20
1.008784e+20
1.0038e+20
1.002432e+20
9.96272e+19
9.95656e+19
9.97e+19
9.95424e+19
9.96168e+19
9.98504e+19
9.98288e+19
9.97064e+19
1.001712e+20
9.9904e+19
9.98688e+19
9.93472e+19
1.007832e+20
1.005728e+20
1.002992e+20
1.00072e+20
1.00208e+20
9.97384e+19
9.99424e+19
9.99048e+19
1e+20
1.00396e+20
1.008592e+20
1.003008e+20
1.00592e+20
1.002792e+20
9.9868e+19
1.002352e+20
1.0046e+20
1.00208e+20
1.0026e+20
1.008048e+20
9.97936e+19
9.98312e+19
9.97616e+19
9.94464e+19
9.96192e+19
1.001232e+20
1.000408e+20
1.001416e+20
9.99712e+19
9.99744e+19
1.000072e+20
1.001216e+20
1.00084e+20
1.00116e+20
9.98856e+19
1.000456e+20
9.97744e+19
9.9828e+19
9.96416e+19
9.95032e+19
9.9152e+19
9.92808e+19
9.96856e+19
9.95152e+19
9.9464e+19
9.95528e+19
9.96464e+19
9.9648e+19
9.97192e+19
9.98744e+19
9.99328e+19
1.001472e+20
1.00196e+20
9.98776e+19
9.95312e+19
9.94736e+19
9.976e+19
1.003704e+20
9.94688e+19
9.93392e+19
9.95448e+19
9.95056e+19
9.96216e+19
9.9684e+19
9.9816e+19
9.97536e+19
9.94872e+19
9.98792e+19
9.96152e+19
9.99536e+19
9.99272e+19
9.99408e+19
9.95456e+19
9.99096e+19
9.97352e+19
1.001168e+20
1.00016e+20
9.93176e+19
9.93776e+19
9.97128e+19
1.003984e+20
1.002536e+20
1.004104e+20
1.001872e+20
1.00008e+20
9.94928e+19
9.9532e+19
9.94008e+19
9.94096e+19
9.92416e+19
9.92664e+19
9.95832e+19
9.97312e+19
1.000552e+20
1.002832e+20
1.00316e+20
1.00496e+20
1.004712e+20
1.001056e+20
1.001808e+20
9.99848e+19
1.000256e+20
1.001568e+20
1.001448e+20
1.002912e+20
1.000584e+20
1.001256e+20
9.946e+19
9.94208e+19
9.95992e+19
9.93784e+19
9.93808e+19
9.94296e+19
9.96576e+19
9.96064e+19
1.000104e+20
9.98192e+19
9.99096e+19
9.9724e+19
9.988e+19
9.8732e+19
9.92488e+19
9.90408e+19
9.90352e+19
9.92744e+19
9.9576e+19
9.95504e+19
1.001528e+20
1.0018e+20
1.001776e+20
1.00044e+20
9.98592e+19
1.004528e+20
1.00284e+20
1.00368e+20
9.99608e+19
9.9896e+19
9.96624e+19
9.95688e+19
9.88968e+19
1.011776e+20
1.009704e+20
1.007512e+20
1.00828e+20
1.008016e+20
1.002808e+20
9.95744e+19
9.93144e+19
9.94544e+19
9.918e+19
9.95568e+19
9.99392e+19
9.99408e+19
9.95752e+19
9.9564e+19
9.92456e+19
9.9244e+19
9.97008e+19
1.001376e+20
1.005744e+20
9.96128e+19
9.93888e+19
9.98752e+19
1.002936e+20
1.00144e+20
1.003592e+20
1.005872e+20
1.00604e+20
1.003504e+20
1.000008e+20
1.000536e+20
1.000528e+20
9.98856e+19
1.00312e+20
1.006728e+20
1.00668e+20
1.008288e+20
1.005984e+20
1.001568e+20
9.96992e+19
9.9396e+19
9.93944e+19
9.9472e+19
9.94752e+19
9.94928e+19
9.9384e+19
9.9308e+19
9.95064e+19
9.96072e+19
9.96376e+19
9.94312e+19
9.926e+19
9.91496e+19
9.94432e+19
9.96272e+19
9.96648e+19
9.98824e+19
9.99032e+19
9.98016e+19
9.95352e+19
9.9884e+19
9.98624e+19
9.90808e+19
9.89176e+19
9.93272e+19
9.9208e+19
9.94632e+19
9.9532e+19
9.95152e+19
9.99088e+19
1.001032e+20
1.00448e+20
1.001456e+20
1.001736e+20
9.98368e+19
1.003288e+20
1.002136e+20
1.005144e+20
1.000432e+20
1.004096e+20
9.91848e+19
9.92032e+19
9.91528e+19
9.91656e+19
9.94856e+19
9.97912e+19
9.97968e+19
9.96216e+19
9.9688e+19
9.92808e+19
9.93376e+19
9.95576e+19
9.99104e+19
9.99832e+19
1.001864e+20
1.00104e+20
9.95896e+19
9.90592e+19
9.9784e+19
9.92352e+19
9.98432e+19
1.000368e+20
9.99624e+19
1.000048e+20
1.00084e+20
1.000512e+20
9.98072e+19
1.003544e+20
1.001736e+20
1.003336e+20
1.005208e+20
1.001008e+20
9.97128e+19
9.98248e+19
9.99384e+19
9.94016e+19
9.95776e+19
9.97192e+19
9.98992e+19
1.000312e+20
9.96392e+19
9.93776e+19
9.9144e+19
1.002192e+20
1.002392e+20
1.004032e+20
1.003496e+20
1.002592e+20
1.004072e+20
1.000656e+20
1.000312e+20
9.98584e+19
1.001808e+20
1.002912e+20
1.001128e+20
1.002128e+20
1.001064e+20
1.000096e+20
9.97e+19
9.96424e+19
1.00524e+20
9.99584e+19
1.000576e+20
9.94144e+19
9.9484e+19
9.982e+19
1.00172e+20
1.004048e+20
1.003072e+20
1.004232e+20
1.001944e+20
1.000112e+20
9.99264e+19
9.97664e+19
9.95744e+19
9.94016e+19
9.96016e+19
9.95784e+19
9.9688e+19
1.001416e+20
1.001912e+20
1.0032e+20
1.000912e+20
1.000416e+20
9.98072e+19
9.98152e+19
9.99776e+19
9.99848e+19
1.004632e+20
1.002616e+20
9.99192e+19
1.0006e+20
9.99624e+19
1.008696e+20
1.004064e+20
1.003688e+20
9.99184e+19
1.001112e+20
1.003408e+20
1.002912e+20
9.95112e+19
9.97504e+19
9.96976e+19
9.97592e+19
9.99392e+19
1.000904e+20
1.003632e+20
1.004488e+20
1.002496e+20
9.99528e+19
1.001584e+20
9.99192e+19
1.001256e+20
1.000456e+20
1.003296e+20
1.000664e+20
1.00264e+20
9.9948e+19
9.99912e+19
9.96344e+19
9.96112e+19
9.94936e+19
9.99136e+19
1.000776e+20
1.003568e+20
9.99712e+19
9.94344e+19
9.9372e+19
9.9096e+19
9.93368e+19
9.91328e+19
9.88584e+19
9.86232e+19
9.82616e+19
9.84776e+19
9.85104e+19
9.8876e+19
9.94336e+19
1.000792e+20
9.9872e+19
1.002848e+20
1.004264e+20
9.99464e+19
9.9836e+19
9.99904e+19
9.9936e+19
1.004712e+20
1.00496e+20
1.005976e+20
9.99312e+19
9.94584e+19
9.88696e+19
9.87816e+19
9.90384e+19
9.91856e+19
9.96408e+19
9.938e+19
9.95376e+19
9.944e+19
1.000056e+20
9.94824e+19
9.99816e+19
9.99704e+19
1.001776e+20
9.9908e+19
9.98736e+19
9.97824e+19
9.97184e+19
1.002048e+20
1.002376e+20
1.000512e+20
1.003512e+20
1.003208e+20
1.00076e+20
9.998e+19
9.95456e+19
9.93296e+19
9.95688e+19
9.95464e+19
9.96296e+19
9.95552e+19
9.94696e+19
9.92248e+19
9.8856e+19
9.93952e+19
9.96568e+19
1.001128e+20
1.003624e+20
1.003072e+20
9.96632e+19
9.98408e+19
9.98048e+19
9.98728e+19
1.000016e+20
9.95488e+19
9.9696e+19
9.96544e+19
9.92624e+19
9.93056e+19
9.95048e+19
9.80968e+19
9.85136e+19
9.9096e+19
9.89192e+19
9.92632e+19
9.9384e+19
9.90288e+19
9.92016e+19
9.96696e+19
9.96632e+19
9.968e+19
9.95768e+19
9.91376e+19
9.94024e+19
9.9672e+19
9.94288e+19
9.9192e+19
9.94136e+19
9.9004e+19
9.8536e+19
9.98208e+19
9.94272e+19
9.96392e+19
1.004072e+20
1.001016e+20
1.001376e+20
1.004952e+20
1.00064e+20
9.98192e+19
9.98128e+19
1.000576e+20
9.95752e+19
9.96824e+19
1.00192e+20
1.001272e+20
1.002736e+20
1.001504e+20
9.97984e+19
9.96976e+19
9.9808e+19
1.005408e+20
1.008336e+20
1.004384e+20
9.97792e+19
9.97296e+19
9.98712e+19
9.99288e+19
1.000224e+20
9.97064e+19
9.99672e+19
9.958e+19
9.95088e+19
9.89872e+19