/*--------------------------------*- C++ -*----------------------------------*\
| =========                 |                                                 |
| \\      /  F ield         | OpenFOAM: The Open Source CFD Toolbox           |
|  \\    /   O peration     | Version:  v1706                                 |
|   \\  /    A nd           | Web:      www.OpenFOAM.com                      |
|    \\/     M anipulation  |                                                 |
\*---------------------------------------------------------------------------*/
FoamFile
{
    version     2.0;
    format      ascii;
    class       volScalarField;
    location    "0.01";
    object      rhoN_O2;
}
// * * * * * * * * * * * * * * * * * * * * * * * * * * * * * * * * * * * * * //

dimensions      [0 -3 0 0 0 0 0];


internalField   nonuniform List<scalar> 
5120
(
2.23384e+19
2.24256e+19
2.23656e+19
2.2388e+19
2.24e+19
2.2444e+19
2.23376e+19
2.22384e+19
2.21896e+19
2.22064e+19
2.22672e+19
2.2392e+19
2.2352e+19
2.23096e+19
2.23368e+19
2.23584e+19
2.24632e+19
2.23728e+19
2.22264e+19
2.22944e+19
2.25128e+19
2.25216e+19
2.23544e+19
2.23096e+19
2.23848e+19
2.22976e+19
2.2372e+19
2.228e+19
2.23176e+19
2.22608e+19
2.23168e+19
2.23128e+19
2.2412e+19
2.24584e+19
2.25792e+19
2.2444e+19
2.26136e+19
2.25768e+19
2.25472e+19
2.26056e+19
2.21648e+19
2.20928e+19
2.21464e+19
2.21576e+19
2.19416e+19
2.1992e+19
2.21368e+19
2.21672e+19
2.23e+19
2.20664e+19
2.22352e+19
2.22288e+19
2.21648e+19
2.19216e+19
2.2084e+19
2.21984e+19
2.22768e+19
2.21768e+19
2.21808e+19
2.21264e+19
2.23128e+19
2.21992e+19
2.21968e+19
2.2176e+19
2.23616e+19
2.23336e+19
2.2496e+19
2.256e+19
2.2504e+19
2.2356e+19
2.2308e+19
2.2168e+19
2.21848e+19
2.234e+19
2.23328e+19
2.23952e+19
2.22864e+19
2.2368e+19
2.23512e+19
2.23904e+19
2.28728e+19
2.2968e+19
2.292e+19
2.274e+19
2.25512e+19
2.2564e+19
2.24544e+19
2.23856e+19
2.24904e+19
2.23744e+19
2.22144e+19
2.21048e+19
2.22408e+19
2.21944e+19
2.21504e+19
2.22816e+19
2.24376e+19
2.24744e+19
2.2492e+19
2.26048e+19
2.23584e+19
2.21248e+19
2.20456e+19
2.23416e+19
2.24608e+19
2.244e+19
2.24376e+19
2.24384e+19
2.24448e+19
2.2372e+19
2.25072e+19
2.25488e+19
2.23072e+19
2.21336e+19
2.2212e+19
2.21472e+19
2.21184e+19
2.20312e+19
2.21408e+19
2.22424e+19
2.23032e+19
2.20648e+19
2.21608e+19
2.24872e+19
2.23176e+19
2.23216e+19
2.23288e+19
2.22576e+19
2.22752e+19
2.22936e+19
2.23248e+19
2.20888e+19
2.21656e+19
2.21864e+19
2.22096e+19
2.22552e+19
2.24704e+19
2.25416e+19
2.22536e+19
2.24656e+19
2.19816e+19
2.21944e+19
2.22376e+19
2.23248e+19
2.22056e+19
2.20496e+19
2.22744e+19
2.22416e+19
2.23568e+19
2.24744e+19
2.2508e+19
2.24864e+19
2.2476e+19
2.23928e+19
2.23464e+19
2.20888e+19
2.17808e+19
2.19072e+19
2.19944e+19
2.19e+19
2.24056e+19
2.23552e+19
2.22248e+19
2.22912e+19
2.22096e+19
2.23344e+19
2.214e+19
2.20528e+19
2.18568e+19
2.1832e+19
2.20272e+19
2.21032e+19
2.23304e+19
2.24416e+19
2.23912e+19
2.24848e+19
2.24424e+19
2.25616e+19
2.2276e+19
2.22896e+19
2.21232e+19
2.20472e+19
2.22808e+19
2.2256e+19
2.23616e+19
2.25632e+19
2.264e+19
2.26904e+19
2.27488e+19
2.27376e+19
2.25448e+19
2.28536e+19
2.28048e+19
2.26648e+19
2.25336e+19
2.24128e+19
2.22768e+19
2.2396e+19
2.2292e+19
2.21976e+19
2.25584e+19
2.26792e+19
2.28712e+19
2.26184e+19
2.25176e+19
2.23544e+19
2.2308e+19
2.2428e+19
2.2576e+19
2.27152e+19
2.27136e+19
2.26656e+19
2.26792e+19
2.2636e+19
2.27952e+19
2.27688e+19
2.26616e+19
2.24432e+19
2.24712e+19
2.24912e+19
2.2164e+19
2.2124e+19
2.21552e+19
2.2024e+19
2.1996e+19
2.1932e+19
2.20792e+19
2.2248e+19
2.22776e+19
2.23456e+19
2.2432e+19
2.25112e+19
2.25304e+19
2.24808e+19
2.23944e+19
2.24592e+19
2.24608e+19
2.26192e+19
2.2812e+19
2.25416e+19
2.25456e+19
2.25896e+19
2.25048e+19
2.25488e+19
2.26112e+19
2.25232e+19
2.22632e+19
2.21576e+19
2.22312e+19
2.23288e+19
2.22616e+19
2.26008e+19
2.26064e+19
2.2504e+19
2.24992e+19
2.248e+19
2.2292e+19
2.23128e+19
2.2356e+19
2.24424e+19
2.18568e+19
2.20376e+19
2.22336e+19
2.2264e+19
2.22424e+19
2.234e+19
2.24448e+19
2.23368e+19
2.23256e+19
2.22712e+19
2.2292e+19
2.20784e+19
2.18592e+19
2.22232e+19
2.23768e+19
2.22864e+19
2.23768e+19
2.2132e+19
2.22152e+19
2.20184e+19
2.2496e+19
2.23264e+19
2.21776e+19
2.19624e+19
2.20392e+19
2.19768e+19
2.2068e+19
2.19752e+19
2.21688e+19
2.23752e+19
2.24376e+19
2.2292e+19
2.2256e+19
2.218e+19
2.22448e+19
2.22584e+19
2.24088e+19
2.23928e+19
2.24008e+19
2.2548e+19
2.21376e+19
2.19688e+19
2.1996e+19
2.2144e+19
2.2104e+19
2.2072e+19
2.21664e+19
2.22872e+19
2.2184e+19
2.19568e+19
2.20128e+19
2.19624e+19
2.19368e+19
2.17896e+19
2.18256e+19
2.18464e+19
2.18944e+19
2.20272e+19
2.2108e+19
2.22808e+19
2.19016e+19
2.2168e+19
2.21896e+19
2.22776e+19
2.20816e+19
2.2188e+19
2.2272e+19
2.2164e+19
2.20296e+19
2.21288e+19
2.21008e+19
2.20992e+19
2.21216e+19
2.2288e+19
2.23384e+19
2.24128e+19
2.26008e+19
2.24592e+19
2.236e+19
2.226e+19
2.19432e+19
2.22416e+19
2.21984e+19
2.20944e+19
2.21192e+19
2.21984e+19
2.19992e+19
2.19824e+19
2.2148e+19
2.21112e+19
2.2172e+19
2.22112e+19
2.22688e+19
2.23616e+19
2.23864e+19
2.24152e+19
2.23712e+19
2.2468e+19
2.22696e+19
2.21264e+19
2.25808e+19
2.25472e+19
2.26768e+19
2.26784e+19
2.22736e+19
2.23672e+19
2.23888e+19
2.23072e+19
2.23304e+19
2.24312e+19
2.24144e+19
2.23864e+19
2.22904e+19
2.22768e+19
2.2028e+19
2.20768e+19
2.19024e+19
2.18912e+19
2.22232e+19
2.24088e+19
2.2236e+19
2.23392e+19
2.23176e+19
2.23416e+19
2.24448e+19
2.23256e+19
2.21992e+19
2.22544e+19
2.22512e+19
2.23296e+19
2.22768e+19
2.25416e+19
2.24888e+19
2.2312e+19
2.20712e+19
2.19536e+19
2.21088e+19
2.21824e+19
2.236e+19
2.24104e+19
2.21656e+19
2.20152e+19
2.21648e+19
2.22992e+19
2.22776e+19
2.2296e+19
2.24032e+19
2.22376e+19
2.23392e+19
2.22424e+19
2.24064e+19
2.24624e+19
2.25088e+19
2.25544e+19
2.26464e+19
2.27032e+19
2.25976e+19
2.24544e+19
2.2384e+19
2.21824e+19
2.2e+19
2.19384e+19
2.1988e+19
2.18936e+19
2.20472e+19
2.21824e+19
2.22288e+19
2.2224e+19
2.21592e+19
2.24576e+19
2.21784e+19
2.21376e+19
2.20256e+19
2.22168e+19
2.2132e+19
2.22216e+19
2.22792e+19
2.23528e+19
2.20792e+19
2.1892e+19
2.27136e+19
2.26912e+19
2.26504e+19
2.25608e+19
2.24896e+19
2.24848e+19
2.2568e+19
2.26992e+19
2.2624e+19
2.25168e+19
2.25688e+19
2.23904e+19
2.25032e+19
2.23592e+19
2.25336e+19
2.25128e+19
2.2476e+19
2.24648e+19
2.26624e+19
2.28192e+19
2.2388e+19
2.23632e+19
2.2392e+19
2.2296e+19
2.23272e+19
2.24584e+19
2.2404e+19
2.222e+19
2.22888e+19
2.24504e+19
2.24856e+19
2.23112e+19
2.2228e+19
2.22632e+19
2.21968e+19
2.21936e+19
2.22424e+19
2.2256e+19
2.21072e+19
2.2244e+19
2.23384e+19
2.2332e+19
2.23464e+19
2.24088e+19
2.24184e+19
2.22248e+19
2.232e+19
2.22264e+19
2.2388e+19
2.226e+19
2.1964e+19
2.19536e+19
2.20384e+19
2.20968e+19
2.21344e+19
2.22872e+19
2.24232e+19
2.23072e+19
2.24032e+19
2.238e+19
2.22416e+19
2.21528e+19
2.2304e+19
2.20696e+19
2.20736e+19
2.20824e+19
2.23016e+19
2.22336e+19
2.2236e+19
2.21136e+19
2.2256e+19
2.23128e+19
2.22744e+19
2.22536e+19
2.22744e+19
2.23872e+19
2.26016e+19
2.25688e+19
2.24024e+19
2.22696e+19
2.23056e+19
2.23304e+19
2.22464e+19
2.22008e+19
2.2216e+19
2.24984e+19
2.2412e+19
2.25016e+19
2.25304e+19
2.24872e+19
2.26576e+19
2.24016e+19
2.244e+19
2.2384e+19
2.22968e+19
2.24664e+19
2.2404e+19
2.23848e+19
2.25456e+19
2.23488e+19
2.21144e+19
2.21488e+19
2.2148e+19
2.24464e+19
2.27112e+19
2.26544e+19
2.22952e+19
2.23024e+19
2.22376e+19
2.21048e+19
2.22848e+19
2.23528e+19
2.22496e+19
2.22736e+19
2.21376e+19
2.1768e+19
2.1848e+19
2.19272e+19
2.18352e+19
2.19872e+19
2.21512e+19
2.18968e+19
2.20632e+19
2.22512e+19
2.21144e+19
2.20648e+19
2.216e+19
2.21152e+19
2.1948e+19
2.19728e+19
2.20248e+19
2.20624e+19
2.204e+19
2.2032e+19
2.22472e+19
2.23352e+19
2.21808e+19
2.19464e+19
2.208e+19
2.2256e+19
2.26432e+19
2.25184e+19
2.2428e+19
2.22544e+19
2.22736e+19
2.23968e+19
2.24064e+19
2.22992e+19
2.23688e+19
2.25096e+19
2.22592e+19
2.23216e+19
2.22648e+19
2.23168e+19
2.21328e+19
2.21928e+19
2.20856e+19
2.2172e+19
2.2244e+19
2.25784e+19
2.25208e+19
2.24632e+19
2.23904e+19
2.25128e+19
2.22976e+19
2.25384e+19
2.21808e+19
2.22992e+19
2.2168e+19
2.22184e+19
2.224e+19
2.22392e+19
2.22024e+19
2.2288e+19
2.2312e+19
2.23872e+19
2.25928e+19
2.25912e+19
2.26352e+19
2.25048e+19
2.26152e+19
2.23856e+19
2.22848e+19
2.23e+19
2.20248e+19
2.1952e+19
2.19704e+19
2.19664e+19
2.19456e+19
2.21424e+19
2.2196e+19
2.22328e+19
2.2344e+19
2.2392e+19
2.24888e+19
2.24056e+19
2.23256e+19
2.216e+19
2.20832e+19
2.22904e+19
2.24872e+19
2.23992e+19
2.22784e+19
2.24008e+19
2.24424e+19
2.25352e+19
2.2336e+19
2.23296e+19
2.23808e+19
2.25856e+19
2.24568e+19
2.23304e+19
2.22192e+19
2.21072e+19
2.21376e+19
2.19792e+19
2.1924e+19
2.21512e+19
2.22328e+19
2.24192e+19
2.22624e+19
2.23864e+19
2.23488e+19
2.23704e+19
2.25664e+19
2.24624e+19
2.2472e+19
2.26768e+19
2.25184e+19
2.24712e+19
2.24432e+19
2.232e+19
2.2196e+19
2.21792e+19
2.19408e+19
2.2116e+19
2.21256e+19
2.23752e+19
2.23704e+19
2.22144e+19
2.23432e+19
2.236e+19
2.21976e+19
2.23768e+19
2.25912e+19
2.25968e+19
2.24064e+19
2.2236e+19
2.2228e+19
2.21112e+19
2.20928e+19
2.2044e+19
2.21752e+19
2.20592e+19
2.24336e+19
2.24392e+19
2.25776e+19
2.24264e+19
2.23816e+19
2.23928e+19
2.22712e+19
2.21672e+19
2.2212e+19
2.21512e+19
2.2188e+19
2.22504e+19
2.22168e+19
2.24416e+19
2.22928e+19
2.23032e+19
2.23832e+19
2.2276e+19
2.22816e+19
2.24624e+19
2.22776e+19
2.23872e+19
2.23072e+19
2.22912e+19
2.23464e+19
2.22432e+19
2.26056e+19
2.25808e+19
2.25824e+19
2.26256e+19
2.25136e+19
2.25584e+19
2.26136e+19
2.25408e+19
2.24296e+19
2.24016e+19
2.23336e+19
2.2264e+19
2.22024e+19
2.21816e+19
2.236e+19
2.21376e+19
2.214e+19
2.238e+19
2.2204e+19
2.23448e+19
2.2168e+19
2.21344e+19
2.21424e+19
2.21792e+19
2.21432e+19
2.22224e+19
2.23616e+19
2.24952e+19
2.24728e+19
2.24336e+19
2.25576e+19
2.25016e+19
2.25216e+19
2.24824e+19
2.24896e+19
2.24072e+19
2.21976e+19
2.20504e+19
2.2104e+19
2.21072e+19
2.2428e+19
2.25128e+19
2.26344e+19
2.26888e+19
2.28568e+19
2.26992e+19
2.25576e+19
2.25704e+19
2.22112e+19
2.226e+19
2.22544e+19
2.2416e+19
2.2388e+19
2.25512e+19
2.25376e+19
2.26752e+19
2.25512e+19
2.26072e+19
2.25624e+19
2.25232e+19
2.20056e+19
2.178e+19
2.19904e+19
2.2128e+19
2.20088e+19
2.2124e+19
2.18944e+19
2.20744e+19
2.2008e+19
2.21368e+19
2.21472e+19
2.22016e+19
2.21008e+19
2.2048e+19
2.202e+19
2.22648e+19
2.22432e+19
2.23272e+19
2.22512e+19
2.20664e+19
2.21784e+19
2.23912e+19
2.24224e+19
2.24624e+19
2.24696e+19
2.22816e+19
2.22552e+19
2.23392e+19
2.2376e+19
2.23256e+19
2.22936e+19
2.22752e+19
2.2268e+19
2.22728e+19
2.21768e+19
2.20224e+19
2.19112e+19
2.17952e+19
2.22824e+19
2.23336e+19
2.2288e+19
2.21936e+19
2.21112e+19
2.21696e+19
2.21976e+19
2.22808e+19
2.21208e+19
2.218e+19
2.2036e+19
2.21256e+19
2.21624e+19
2.20496e+19
2.20424e+19
2.1972e+19
2.2148e+19
2.20848e+19
2.21584e+19
2.21264e+19
2.22008e+19
2.22912e+19
2.21184e+19
2.21808e+19
2.22856e+19
2.21976e+19
2.20992e+19
2.20752e+19
2.19696e+19
2.2116e+19
2.20448e+19
2.20672e+19
2.2032e+19
2.21984e+19
2.23464e+19
2.24176e+19
2.23208e+19
2.21616e+19
2.1872e+19
2.19416e+19
2.19808e+19
2.19256e+19
2.23472e+19
2.24168e+19
2.21768e+19
2.20856e+19
2.2168e+19
2.22664e+19
2.22008e+19
2.2164e+19
2.20096e+19
2.2036e+19
2.20424e+19
2.21104e+19
2.2088e+19
2.19256e+19
2.18904e+19
2.21936e+19
2.23176e+19
2.22848e+19
2.22176e+19
2.21968e+19
2.26672e+19
2.26656e+19
2.25376e+19
2.24104e+19
2.23224e+19
2.24968e+19
2.25536e+19
2.26384e+19
2.2664e+19
2.26944e+19
2.24704e+19
2.24176e+19
2.24216e+19
2.24968e+19
2.23408e+19
2.2384e+19
2.23224e+19
2.2488e+19
2.26104e+19
2.2656e+19
2.19224e+19
2.20376e+19
2.20968e+19
2.23512e+19
2.2324e+19
2.21824e+19
2.2216e+19
2.21984e+19
2.23296e+19
2.23672e+19
2.23656e+19
2.2336e+19
2.25256e+19
2.2528e+19
2.24872e+19
2.24296e+19
2.26168e+19
2.24104e+19
2.21336e+19
2.20496e+19
2.19416e+19
2.20512e+19
2.21336e+19
2.22992e+19
2.22984e+19
2.22208e+19
2.19992e+19
2.20864e+19
2.20712e+19
2.20304e+19
2.21408e+19
2.22984e+19
2.24672e+19
2.2612e+19
2.25152e+19
2.24816e+19
2.23568e+19
2.22624e+19
2.21616e+19
2.1988e+19
2.2148e+19
2.22736e+19
2.22536e+19
2.21072e+19
2.21272e+19
2.21192e+19
2.2312e+19
2.23992e+19
2.23504e+19
2.2392e+19
2.226e+19
2.23384e+19
2.2048e+19
2.2044e+19
2.22024e+19
2.20936e+19
2.24208e+19
2.244e+19
2.22296e+19
2.21408e+19
2.24016e+19
2.23912e+19
2.24176e+19
2.24112e+19
2.23352e+19
2.22936e+19
2.23416e+19
2.23048e+19
2.22984e+19
2.23584e+19
2.24184e+19
2.23376e+19
2.24712e+19
2.2412e+19
2.24888e+19
2.26144e+19
2.26344e+19
2.236e+19
2.23024e+19
2.24944e+19
2.27072e+19
2.27776e+19
2.2644e+19
2.26328e+19
2.22752e+19
2.22936e+19
2.2236e+19
2.226e+19
2.23416e+19
2.23448e+19
2.22816e+19
2.21664e+19
2.22296e+19
2.2136e+19
2.22656e+19
2.23464e+19
2.24368e+19
2.23584e+19
2.22856e+19
2.26208e+19
2.21224e+19
2.22e+19
2.22856e+19
2.22416e+19
2.24336e+19
2.24392e+19
2.23664e+19
2.2536e+19
2.22736e+19
2.21504e+19
2.21808e+19
2.20632e+19
2.22128e+19
2.22864e+19
2.21048e+19
2.19272e+19
2.20344e+19
2.22176e+19
2.2172e+19
2.21088e+19
2.24816e+19
2.23096e+19
2.2332e+19
2.19968e+19
2.20584e+19
2.21552e+19
2.2168e+19
2.21128e+19
2.2432e+19
2.24624e+19
2.2584e+19
2.26672e+19
2.25872e+19
2.2456e+19
2.2628e+19
2.25744e+19
2.25712e+19
2.26152e+19
2.26096e+19
2.25448e+19
2.19768e+19
2.2272e+19
2.23592e+19
2.25312e+19
2.23584e+19
2.23544e+19
2.23e+19
2.23128e+19
2.2244e+19
2.22672e+19
2.2324e+19
2.24376e+19
2.23944e+19
2.22592e+19
2.2276e+19
2.22872e+19
2.22368e+19
2.2032e+19
2.2032e+19
2.20976e+19
2.21608e+19
2.20136e+19
2.1932e+19
2.19872e+19
2.22848e+19
2.2232e+19
2.23016e+19
2.22816e+19
2.24336e+19
2.2436e+19
2.23192e+19
2.23064e+19
2.22384e+19
2.22224e+19
2.20664e+19
2.19192e+19
2.21016e+19
2.22184e+19
2.21352e+19
2.21816e+19
2.24048e+19
2.24464e+19
2.22848e+19
2.25616e+19
2.24752e+19
2.23776e+19
2.23224e+19
2.22504e+19
2.21808e+19
2.2044e+19
2.19888e+19
2.23344e+19
2.22616e+19
2.20936e+19
2.19592e+19
2.18736e+19
2.19944e+19
2.21312e+19
2.22776e+19
2.2416e+19
2.21752e+19
2.21744e+19
2.21008e+19
2.19808e+19
2.18688e+19
2.16656e+19
2.18632e+19
2.2004e+19
2.18304e+19
2.18e+19
2.19632e+19
2.18816e+19
2.20368e+19
2.18984e+19
2.20288e+19
2.21328e+19
2.21064e+19
2.2164e+19
2.20928e+19
2.20016e+19
2.19832e+19
2.18792e+19
2.18616e+19
2.17984e+19
2.18504e+19
2.18392e+19
2.176e+19
2.17296e+19
2.19168e+19
2.20024e+19
2.20232e+19
2.20312e+19
2.21416e+19
2.2296e+19
2.21528e+19
2.20112e+19
2.20912e+19
2.19456e+19
2.1836e+19
2.18592e+19
2.22056e+19
2.20192e+19
2.20512e+19
2.17936e+19
2.20368e+19
2.18248e+19
2.17368e+19
2.21832e+19
2.18944e+19
2.19064e+19
2.2036e+19
2.20936e+19
2.2228e+19
2.21256e+19
2.21568e+19
2.21024e+19
2.24144e+19
2.24224e+19
2.24776e+19
2.22344e+19
2.19552e+19
2.19488e+19
2.18736e+19
2.17632e+19
2.17944e+19
2.176e+19
2.194e+19
2.18368e+19
2.21696e+19
2.222e+19
2.23376e+19
2.23008e+19
2.20824e+19
2.21e+19
2.22456e+19
2.22784e+19
2.21488e+19
2.20848e+19
2.20576e+19
2.20736e+19
2.20736e+19
2.22144e+19
2.22968e+19
2.23824e+19
2.22632e+19
2.21032e+19
2.19232e+19
2.202e+19
2.19608e+19
2.19768e+19
2.18272e+19
2.19048e+19
2.18384e+19
2.20752e+19
2.2152e+19
2.22752e+19
2.23704e+19
2.22656e+19
2.22752e+19
2.21296e+19
2.20944e+19
2.2016e+19
2.21696e+19
2.22968e+19
2.25152e+19
2.22128e+19
2.22664e+19
2.2208e+19
2.23544e+19
2.24112e+19
2.23712e+19
2.2212e+19
2.20216e+19
2.21072e+19
2.22312e+19
2.21512e+19
2.1924e+19
2.18984e+19
2.18904e+19
2.2128e+19
2.23704e+19
2.22072e+19
2.23008e+19
2.21304e+19
2.2212e+19
2.22096e+19
2.21952e+19
2.23504e+19
2.22776e+19
2.23536e+19
2.23192e+19
2.21888e+19
2.21512e+19
2.21016e+19
2.1968e+19
2.19896e+19
2.2128e+19
2.2388e+19
2.24336e+19
2.24016e+19
2.25456e+19
2.24656e+19
2.22856e+19
2.21824e+19
2.22888e+19
2.234e+19
2.25064e+19
2.25696e+19
2.27768e+19
2.27928e+19
2.26568e+19
2.24592e+19
2.23368e+19
2.21904e+19
2.22104e+19
2.23888e+19
2.21872e+19
2.21032e+19
2.21536e+19
2.24336e+19
2.21048e+19
2.21712e+19
2.21008e+19
2.21288e+19
2.2328e+19
2.23544e+19
2.22864e+19
2.22128e+19
2.22656e+19
2.20488e+19
2.20328e+19
2.21288e+19
2.21392e+19
2.23904e+19
2.24936e+19
2.234e+19
2.22248e+19
2.21912e+19
2.22984e+19
2.2256e+19
2.19432e+19
2.22208e+19
2.20256e+19
2.20744e+19
2.24216e+19
2.25072e+19
2.25232e+19
2.25016e+19
2.25488e+19
2.25832e+19
2.24328e+19
2.2696e+19
2.26416e+19
2.25872e+19
2.25432e+19
2.24792e+19
2.2348e+19
2.2236e+19
2.226e+19
2.22976e+19
2.23112e+19
2.2112e+19
2.22512e+19
2.204e+19
2.21424e+19
2.21704e+19
2.21952e+19
2.22976e+19
2.214e+19
2.20176e+19
2.21056e+19
2.22272e+19
2.22032e+19
2.21768e+19
2.22968e+19
2.22136e+19
2.21616e+19
2.2168e+19
2.21968e+19
2.20192e+19
2.21944e+19
2.22928e+19
2.23232e+19
2.23336e+19
2.2156e+19
2.22472e+19
2.2168e+19
2.22568e+19
2.21792e+19
2.24392e+19
2.2368e+19
2.2316e+19
2.21152e+19
2.20672e+19
2.18704e+19
2.22048e+19
2.21352e+19
2.19376e+19
2.19512e+19
2.2052e+19
2.2512e+19
2.2272e+19
2.2376e+19
2.23688e+19
2.2348e+19
2.2072e+19
2.22744e+19
2.23856e+19
2.21984e+19
2.21064e+19
2.20888e+19
2.20072e+19
2.22304e+19
2.23736e+19
2.24104e+19
2.23976e+19
2.2168e+19
2.23616e+19
2.25544e+19
2.24976e+19
2.23864e+19
2.2476e+19
2.25744e+19
2.22296e+19
2.2112e+19
2.22408e+19
2.23712e+19
2.25288e+19
2.27368e+19
2.25784e+19
2.24328e+19
2.23232e+19
2.21392e+19
2.22e+19
2.1932e+19
2.22096e+19
2.22104e+19
2.2504e+19
2.24768e+19
2.24368e+19
2.24216e+19
2.23712e+19
2.23632e+19
2.22232e+19
2.22152e+19
2.19744e+19
2.19608e+19
2.19992e+19
2.19568e+19
2.20384e+19
2.2128e+19
2.2256e+19
2.23896e+19
2.2628e+19
2.25984e+19
2.2592e+19
2.2552e+19
2.22912e+19
2.20104e+19
2.23888e+19
2.21496e+19
2.20032e+19
2.23936e+19
2.23552e+19
2.21896e+19
2.22792e+19
2.21912e+19
2.20728e+19
2.20504e+19
2.19272e+19
2.1756e+19
2.198e+19
2.18112e+19
2.19312e+19
2.20976e+19
2.20488e+19
2.2216e+19
2.21424e+19
2.22424e+19
2.20176e+19
2.2092e+19
2.20928e+19
2.20808e+19
2.18928e+19
2.19888e+19
2.20952e+19
2.2224e+19
2.23408e+19
2.26536e+19
2.29384e+19
2.26672e+19
2.26128e+19
2.2236e+19
2.21832e+19
2.20104e+19
2.19232e+19
2.1784e+19
2.20168e+19
2.2076e+19
2.21048e+19
2.1928e+19
2.22248e+19
2.21936e+19
2.24136e+19
2.24304e+19
2.23696e+19
2.23616e+19
2.19584e+19
2.20312e+19
2.19128e+19
2.20904e+19
2.19368e+19
2.19856e+19
2.2108e+19
2.19752e+19
2.21768e+19
2.2384e+19
2.22736e+19
2.22088e+19
2.20344e+19
2.19888e+19
2.16616e+19
2.16696e+19
2.17136e+19
2.17792e+19
2.18184e+19
2.20248e+19
2.21608e+19
2.23128e+19
2.22584e+19
2.2164e+19
2.19976e+19
2.2128e+19
2.22648e+19
2.22424e+19
2.20504e+19
2.19512e+19
2.20304e+19
2.20344e+19
2.20088e+19
2.2196e+19
2.20152e+19
2.21928e+19
2.20064e+19
2.2052e+19
2.22768e+19
2.20072e+19
2.20048e+19
2.20656e+19
2.19792e+19
2.1956e+19
2.20064e+19
2.1872e+19
2.1844e+19
2.1824e+19
2.19208e+19
2.19392e+19
2.20264e+19
2.19104e+19
2.18856e+19
2.22408e+19
2.2288e+19
2.2004e+19
2.20816e+19
2.21416e+19
2.21752e+19
2.24368e+19
2.23176e+19
2.21752e+19
2.20496e+19
2.21248e+19
2.22216e+19
2.21296e+19
2.19952e+19
2.20696e+19
2.19432e+19
2.182e+19
2.20128e+19
2.22448e+19
2.23424e+19
2.23808e+19
2.2416e+19
2.25144e+19
2.25488e+19
2.22424e+19
2.22648e+19
2.23056e+19
2.21808e+19
2.2164e+19
2.21872e+19
2.20432e+19
2.2072e+19
2.22144e+19
2.22768e+19
2.22928e+19
2.2316e+19
2.2436e+19
2.22624e+19
2.21648e+19
2.22064e+19
2.24128e+19
2.24928e+19
2.24168e+19
2.23384e+19
2.23976e+19
2.2404e+19
2.2464e+19
2.24408e+19
2.23392e+19
2.21824e+19
2.20632e+19
2.1912e+19
2.21096e+19
2.21328e+19
2.22512e+19
2.23568e+19
2.20952e+19
2.21656e+19
2.216e+19
2.24144e+19
2.24312e+19
2.262e+19
2.26016e+19
2.25544e+19
2.26592e+19
2.26368e+19
2.2496e+19
2.25088e+19
2.2308e+19
2.22768e+19
2.24208e+19
2.24664e+19
2.25568e+19
2.2548e+19
2.22664e+19
2.21992e+19
2.22024e+19
2.24432e+19
2.2328e+19
2.21632e+19
2.20416e+19
2.2268e+19
2.2536e+19
2.26088e+19
2.23608e+19
2.22632e+19
2.2148e+19
2.22528e+19
2.2272e+19
2.25328e+19
2.23424e+19
2.23248e+19
2.21832e+19
2.19976e+19
2.1972e+19
2.19736e+19
2.20376e+19
2.21208e+19
2.22248e+19
2.21272e+19
2.22136e+19
2.21688e+19
2.2092e+19
2.21344e+19
2.2288e+19
2.22112e+19
2.23208e+19
2.20928e+19
2.21176e+19
2.23744e+19
2.23904e+19
2.22088e+19
2.21944e+19
2.21816e+19
2.21632e+19
2.22632e+19
2.23368e+19
2.22712e+19
2.23104e+19
2.20744e+19
2.23672e+19
2.22376e+19
2.22656e+19
2.23856e+19
2.22792e+19
2.21856e+19
2.21672e+19
2.2096e+19
2.22136e+19
2.21176e+19
2.21312e+19
2.22992e+19
2.25328e+19
2.24344e+19
2.25616e+19
2.22912e+19
2.2032e+19
2.21664e+19
2.21848e+19
2.24064e+19
2.20216e+19
2.2108e+19
2.17928e+19
2.18768e+19
2.19544e+19
2.22032e+19
2.23272e+19
2.22848e+19
2.22856e+19
2.21624e+19
2.24144e+19
2.2548e+19
2.22616e+19
2.22032e+19
2.2368e+19
2.23288e+19
2.2424e+19
2.2612e+19
2.24768e+19
2.21232e+19
2.20024e+19
2.22632e+19
2.2216e+19
2.2332e+19
2.21496e+19
2.22912e+19
2.21008e+19
2.20664e+19
2.21336e+19
2.20224e+19
2.188e+19
2.1972e+19
2.21544e+19
2.20528e+19
2.20488e+19
2.20032e+19
2.20632e+19
2.18064e+19
2.17248e+19
2.18192e+19
2.24288e+19
2.2268e+19
2.21176e+19
2.24016e+19
2.24512e+19
2.21952e+19
2.23032e+19
2.21504e+19
2.21064e+19
2.2328e+19
2.22416e+19
2.20608e+19
2.21744e+19
2.21472e+19
2.21568e+19
2.23392e+19
2.22616e+19
2.22384e+19
2.24576e+19
2.24184e+19
2.2012e+19
2.19312e+19
2.18568e+19
2.18016e+19
2.19848e+19
2.22408e+19
2.2292e+19
2.23168e+19
2.23488e+19
2.25312e+19
2.2348e+19
2.2164e+19
2.22424e+19
2.23176e+19
2.2256e+19
2.2336e+19
2.21008e+19
2.23976e+19
2.2328e+19
2.22656e+19
2.2324e+19
2.2444e+19
2.23016e+19
2.226e+19
2.23872e+19
2.22816e+19
2.21472e+19
2.1976e+19
2.1868e+19
2.20512e+19
2.226e+19
2.2432e+19
2.23848e+19
2.21024e+19
2.20592e+19
2.228e+19
2.22288e+19
2.20464e+19
2.20704e+19
2.21104e+19
2.20512e+19
2.18888e+19
2.19592e+19
2.1972e+19
2.21816e+19
2.2004e+19
2.21184e+19
2.21936e+19
2.2316e+19
2.21872e+19
2.22032e+19
2.22368e+19
2.23568e+19
2.24616e+19
2.24296e+19
2.2396e+19
2.24552e+19
2.24944e+19
2.24376e+19
2.2268e+19
2.24912e+19
2.24568e+19
2.23256e+19
2.2296e+19
2.25168e+19
2.22512e+19
2.22416e+19
2.23336e+19
2.214e+19
2.20488e+19
2.2052e+19
2.21272e+19
2.22824e+19
2.22968e+19
2.24736e+19
2.25576e+19
2.22624e+19
2.21088e+19
2.21912e+19
2.2404e+19
2.24424e+19
2.23768e+19
2.2272e+19
2.22008e+19
2.2028e+19
2.20864e+19
2.19472e+19
2.2024e+19
2.21112e+19
2.2168e+19
2.21536e+19
2.22176e+19
2.21136e+19
2.20904e+19
2.19528e+19
2.20688e+19
2.2268e+19
2.23664e+19
2.23872e+19
2.24248e+19
2.2008e+19
2.216e+19
2.24208e+19
2.24056e+19
2.21224e+19
2.2092e+19
2.20928e+19
2.22272e+19
2.21096e+19
2.216e+19
2.2204e+19
2.22512e+19
2.22808e+19
2.22304e+19
2.23096e+19
2.2204e+19
2.20136e+19
2.21216e+19
2.20568e+19
2.1944e+19
2.2036e+19
2.21072e+19
2.22232e+19
2.22336e+19
2.23e+19
2.24e+19
2.2416e+19
2.23016e+19
2.22976e+19
2.2128e+19
2.20256e+19
2.20288e+19
2.21992e+19
2.2168e+19
2.21944e+19
2.22928e+19
2.23752e+19
2.2036e+19
2.21096e+19
2.2036e+19
2.2276e+19
2.22112e+19
2.23528e+19
2.23176e+19
2.24328e+19
2.24872e+19
2.26288e+19
2.256e+19
2.2512e+19
2.2588e+19
2.24968e+19
2.25016e+19
2.2296e+19
2.22992e+19
2.2e+19
2.186e+19
2.1792e+19
2.1844e+19
2.21656e+19
2.21984e+19
2.2176e+19
2.22128e+19
2.21272e+19
2.20824e+19
2.22232e+19
2.22816e+19
2.22992e+19
2.2344e+19
2.234e+19
2.20312e+19
2.21424e+19
2.23808e+19
2.24472e+19
2.23504e+19
2.24e+19
2.25224e+19
2.28208e+19
2.29184e+19
2.25368e+19
2.2292e+19
2.22408e+19
2.22976e+19
2.23256e+19
2.23096e+19
2.21816e+19
2.21304e+19
2.21968e+19
2.2024e+19
2.2132e+19
2.22824e+19
2.2536e+19
2.26832e+19
2.24072e+19
2.22736e+19
2.21872e+19
2.21608e+19
2.19128e+19
2.194e+19
2.20128e+19
2.20496e+19
2.2172e+19
2.222e+19
2.22168e+19
2.23864e+19
2.24928e+19
2.24552e+19
2.23704e+19
2.25096e+19
2.23648e+19
2.22656e+19
2.21904e+19
2.214e+19
2.21864e+19
2.22952e+19
2.24072e+19
2.22544e+19
2.23976e+19
2.24384e+19
2.22168e+19
2.20792e+19
2.24088e+19
2.24856e+19
2.25632e+19
2.24936e+19
2.23688e+19
2.2184e+19
2.21632e+19
2.19152e+19
2.21584e+19
2.21824e+19
2.25728e+19
2.25624e+19
2.24456e+19
2.24168e+19
2.22424e+19
2.22448e+19
2.2224e+19
2.23112e+19
2.22464e+19
2.24112e+19
2.22512e+19
2.21672e+19
2.21744e+19
2.19952e+19
2.1964e+19
2.22152e+19
2.22728e+19
2.26592e+19
2.27288e+19
2.25816e+19
2.2396e+19
2.23104e+19
2.21512e+19
2.22152e+19
2.21768e+19
2.24576e+19
2.24584e+19
2.22192e+19
2.2272e+19
2.21632e+19
2.1828e+19
2.1856e+19
2.19192e+19
2.18568e+19
2.18344e+19
2.1876e+19
2.18344e+19
2.18888e+19
2.19376e+19
2.22632e+19
2.2224e+19
2.2336e+19
2.23208e+19
2.22776e+19
2.22352e+19
2.22384e+19
2.22264e+19
2.23168e+19
2.19888e+19
2.19456e+19
2.224e+19
2.20912e+19
2.1976e+19
2.20104e+19
2.19552e+19
2.194e+19
2.16016e+19
2.19344e+19
2.17328e+19
2.16424e+19
2.20016e+19
2.20784e+19
2.20656e+19
2.21672e+19
2.20912e+19
2.21056e+19
2.19344e+19
2.19384e+19
2.206e+19
2.23368e+19
2.21448e+19
2.21224e+19
2.23056e+19
2.23936e+19
2.22768e+19
2.21008e+19
2.22264e+19
2.21544e+19
2.20448e+19
2.19704e+19
2.19992e+19
2.2044e+19
2.19664e+19
2.196e+19
2.18488e+19
2.2072e+19
2.22064e+19
2.22888e+19
2.21744e+19
2.21328e+19
2.1996e+19
2.19376e+19
2.19392e+19
2.21176e+19
2.23104e+19
2.2136e+19
2.20032e+19
2.19832e+19
2.21408e+19
2.20848e+19
2.20248e+19
2.2116e+19
2.20544e+19
2.21264e+19
2.21952e+19
2.22176e+19
2.21512e+19
2.20672e+19
2.19872e+19
2.2064e+19
2.1872e+19
2.1964e+19
2.21328e+19
2.2068e+19
2.1896e+19
2.2272e+19
2.22792e+19
2.25792e+19
2.23696e+19
2.23104e+19
2.23128e+19
2.20544e+19
2.22632e+19
2.24776e+19
2.25576e+19
2.22224e+19
2.21176e+19
2.21288e+19
2.2252e+19
2.19512e+19
2.24656e+19
2.26112e+19
2.232e+19
2.22504e+19
2.22984e+19
2.24192e+19
2.23112e+19
2.23184e+19
2.23256e+19
2.21536e+19
2.2248e+19
2.2392e+19
2.2236e+19
2.21072e+19
2.19712e+19
2.206e+19
2.2132e+19
2.19624e+19
2.20128e+19
2.21808e+19
2.22312e+19
2.22888e+19
2.24944e+19
2.27272e+19
2.25568e+19
2.25816e+19
2.25832e+19
2.24864e+19
2.24488e+19
2.24632e+19
2.26152e+19
2.24688e+19
2.22656e+19
2.22928e+19
2.23032e+19
2.2224e+19
2.21368e+19
2.23352e+19
2.23664e+19
2.21352e+19
2.2452e+19
2.2464e+19
2.24976e+19
2.23544e+19
2.24456e+19
2.22864e+19
2.23136e+19
2.22872e+19
2.22248e+19
2.22416e+19
2.22e+19
2.20056e+19
2.21096e+19
2.206e+19
2.21408e+19
2.22968e+19
2.26416e+19
2.24576e+19
2.2468e+19
2.24096e+19
2.21776e+19
2.2012e+19
2.1772e+19
2.1728e+19
2.20128e+19
2.19552e+19
2.19232e+19
2.19656e+19
2.19688e+19
2.2232e+19
2.22672e+19
2.23808e+19
2.24344e+19
2.2448e+19
2.24632e+19
2.25224e+19
2.23776e+19
2.24104e+19
2.22576e+19
2.22904e+19
2.2036e+19
2.21944e+19
2.216e+19
2.2144e+19
2.21456e+19
2.20632e+19
2.19112e+19
2.1912e+19
2.19016e+19
2.18192e+19
2.19048e+19
2.2068e+19
2.18656e+19
2.20464e+19
2.214e+19
2.21328e+19
2.21024e+19
2.19376e+19
2.2108e+19
2.18904e+19
2.194e+19
2.2096e+19
2.2012e+19
2.19648e+19
2.20296e+19
2.19336e+19
2.20824e+19
2.214e+19
2.20544e+19
2.21304e+19
2.21768e+19
2.22216e+19
2.21992e+19
2.20944e+19
2.21296e+19
2.22328e+19
2.1964e+19
2.18712e+19
2.1936e+19
2.19872e+19
2.20552e+19
2.20472e+19
2.18536e+19
2.19792e+19
2.19144e+19
2.19296e+19
2.18264e+19
2.18024e+19
2.1952e+19
2.19168e+19
2.21672e+19
2.20736e+19
2.20424e+19
2.21752e+19
2.21016e+19
2.22544e+19
2.23216e+19
2.22176e+19
2.2068e+19
2.21264e+19
2.23872e+19
2.24032e+19
2.24496e+19
2.2444e+19
2.24072e+19
2.2408e+19
2.2496e+19
2.24376e+19
2.24096e+19
2.2312e+19
2.21608e+19
2.21592e+19
2.23608e+19
2.23024e+19
2.2372e+19
2.21e+19
2.22296e+19
2.22008e+19
2.2264e+19
2.24648e+19
2.23488e+19
2.22992e+19
2.21104e+19
2.20488e+19
2.21512e+19
2.23784e+19
2.25928e+19
2.24472e+19
2.23768e+19
2.22264e+19
2.2164e+19
2.20592e+19
2.18696e+19
2.21624e+19
2.19816e+19
2.20888e+19
2.21056e+19
2.22128e+19
2.22568e+19
2.2348e+19
2.23568e+19
2.2456e+19
2.24864e+19
2.2632e+19
2.26784e+19
2.24784e+19
2.24344e+19
2.23696e+19
2.22064e+19
2.21464e+19
2.21848e+19
2.2308e+19
2.23648e+19
2.22096e+19
2.24856e+19
2.22984e+19
2.22968e+19
2.22184e+19
2.2332e+19
2.2228e+19
2.23816e+19
2.24576e+19
2.23104e+19
2.2152e+19
2.22664e+19
2.2308e+19
2.23368e+19
2.23232e+19
2.2304e+19
2.24248e+19
2.2368e+19
2.23928e+19
2.2468e+19
2.22128e+19
2.22112e+19
2.22664e+19
2.2384e+19
2.25456e+19
2.26048e+19
2.25e+19
2.24904e+19
2.26048e+19
2.25312e+19
2.23648e+19
2.23432e+19
2.23952e+19
2.242e+19
2.23336e+19
2.22144e+19
2.21544e+19
2.196e+19
2.19312e+19
2.1804e+19
2.20376e+19
2.2156e+19
2.25136e+19
2.2132e+19
2.22744e+19
2.22488e+19
2.24056e+19
2.2224e+19
2.22464e+19
2.22112e+19
2.24536e+19
2.24256e+19
2.23568e+19
2.21312e+19
2.2112e+19
2.22232e+19
2.22488e+19
2.2068e+19
2.23656e+19
2.23352e+19
2.23496e+19
2.2256e+19
2.2036e+19
2.21064e+19
2.22224e+19
2.22672e+19
2.2244e+19
2.20264e+19
2.22504e+19
2.2132e+19
2.18912e+19
2.20288e+19
2.20352e+19
2.23056e+19
2.2372e+19
2.23816e+19
2.20856e+19
2.19416e+19
2.19336e+19
2.18592e+19
2.20856e+19
2.18808e+19
2.20664e+19
2.20984e+19
2.18888e+19
2.1964e+19
2.19352e+19
2.19536e+19
2.21256e+19
2.21312e+19
2.20528e+19
2.24224e+19
2.24192e+19
2.23664e+19
2.24848e+19
2.24424e+19
2.25288e+19
2.2604e+19
2.2536e+19
2.23216e+19
2.2184e+19
2.2012e+19
2.19688e+19
2.18776e+19
2.20696e+19
2.18584e+19
2.19408e+19
2.22576e+19
2.21032e+19
2.21984e+19
2.2504e+19
2.21504e+19
2.20952e+19
2.21424e+19
2.21128e+19
2.20856e+19
2.22032e+19
2.21776e+19
2.20872e+19
2.21392e+19
2.22856e+19
2.2308e+19
2.2464e+19
2.24752e+19
2.27248e+19
2.26096e+19
2.25408e+19
2.22256e+19
2.23576e+19
2.24632e+19
2.21856e+19
2.2208e+19
2.2076e+19
2.20752e+19
2.2112e+19
2.19152e+19
2.18352e+19
2.18536e+19
2.18592e+19
2.18096e+19
2.20576e+19
2.2252e+19
2.22296e+19
2.22608e+19
2.22616e+19
2.22184e+19
2.22656e+19
2.27632e+19
2.25032e+19
2.2364e+19
2.24208e+19
2.24256e+19
2.234e+19
2.23232e+19
2.21728e+19
2.20456e+19
2.2204e+19
2.21072e+19
2.23368e+19
2.22096e+19
2.21776e+19
2.20408e+19
2.20608e+19
2.2164e+19
2.228e+19
2.23424e+19
2.24168e+19
2.21912e+19
2.21144e+19
2.19728e+19
2.21624e+19
2.19776e+19
2.21216e+19
2.23216e+19
2.22352e+19
2.2156e+19
2.2068e+19
2.19368e+19
2.19832e+19
2.2208e+19
2.21048e+19
2.2472e+19
2.2232e+19
2.20008e+19
2.16976e+19
2.18376e+19
2.2048e+19
2.21392e+19
2.20952e+19
2.2232e+19
2.22768e+19
2.22904e+19
2.21368e+19
2.18872e+19
2.19432e+19
2.20048e+19
2.2088e+19
2.22136e+19
2.20856e+19
2.22008e+19
2.21656e+19
2.20208e+19
2.20856e+19
2.20152e+19
2.2332e+19
2.23616e+19
2.21552e+19
2.22408e+19
2.21672e+19
2.22656e+19
2.20536e+19
2.21064e+19
2.19432e+19
2.21032e+19
2.20728e+19
2.2316e+19
2.22248e+19
2.22136e+19
2.2312e+19
2.23288e+19
2.22352e+19
2.22328e+19
2.22928e+19
2.24416e+19
2.24408e+19
2.24552e+19
2.23264e+19
2.2224e+19