/*--------------------------------*- C++ -*----------------------------------*\
| =========                 |                                                 |
| \\      /  F ield         | OpenFOAM: The Open Source CFD Toolbox           |
|  \\    /   O peration     | Version:  v1706                                 |
|   \\  /    A nd           | Web:      www.OpenFOAM.com                      |
|    \\/     M anipulation  |                                                 |
\*---------------------------------------------------------------------------*/
FoamFile
{
    version     2.0;
    format      ascii;
    class       volScalarField;
    location    "0.01";
    object      rotationalT_mixture;
}
// * * * * * * * * * * * * * * * * * * * * * * * * * * * * * * * * * * * * * //

dimensions      [0 0 0 1 0 0 0];


internalField   nonuniform List<scalar> 
5120
(
298.2812764
297.9689621
298.3065207
298.3289565
298.0461579
299.2949587
298.3812944
299.8184916
299.3875506
299.1610658
297.7979146
298.1471819
298.4658091
299.7783097
299.0256329
298.6809951
300.0370691
299.20007
300.0787903
299.8920118
299.0736491
299.8397011
299.8728477
299.2163102
299.3463204
299.9821047
300.6467061
300.294116
300.8583932
299.9635132
299.1352436
298.71848
298.7646666
298.9410614
299.0104407
300.4865771
300.3091496
301.4591036
299.7384288
300.6898252
299.7303319
300.2017001
299.4224718
300.0725191
299.3948678
298.9116599
298.4392566
298.1102853
297.2701685
296.1730311
296.4717705
297.0372301
299.1731109
299.465496
298.3912328
298.7628767
299.1167985
300.1426128
299.6349621
300.1249497
300.4811403
299.603669
300.01298
299.558382
298.1493204
297.524699
297.8451052
296.8211149
297.4425191
297.9797841
299.0001017
298.7312443
299.31583
297.9288845
298.547739
299.8342831
299.4705246
299.072635
299.930387
299.4848748
299.2591721
300.1781407
299.7743651
298.7707537
299.729678
299.9671708
300.8811283
301.24415
301.4860658
300.9127243
301.1923419
301.6758534
301.0734268
301.1890698
300.376978
300.6062239
302.2108954
300.9293311
300.7641038
301.2789689
300.6850027
300.5572218
299.4715405
300.6406874
300.2385802
299.455652
298.9176345
299.2064948
300.5116636
300.0688237
298.9390667
300.4032954
299.4075299
299.6899601
298.5378133
299.8437047
298.4773878
299.1859013
299.288427
299.2464983
298.8467498
298.2738623
299.0593408
299.2599771
298.7852435
297.9600386
298.4589288
298.0001584
298.2552424
298.982923
299.8579396
301.4938446
302.2500701
302.724684
301.6828073
300.6995722
298.986281
298.3775935
298.9259877
298.6257857
298.3448822
298.2066672
299.466281
298.9655117
299.026629
299.6397082
299.0449244
298.8372099
298.4799518
298.7369483
298.7331396
298.0656354
298.4070958
298.0871137
297.9768376
296.6250906
297.190439
297.0556742
297.8711446
298.2215564
300.448294
300.3020994
300.4623705
300.4935458
300.0090059
299.1374796
298.8550352
298.3926047
298.2307484
299.1191148
298.5380894
299.3160058
299.1712239
299.5944408
299.4203635
299.6718957
299.8979083
300.8379949
302.1467825
300.9662518
301.1137334
299.4578611
300.1940565
299.7256254
300.4149251
298.8590149
300.4804814
299.8847993
300.0274907
299.2736492
300.6579473
301.1840345
300.1197667
299.7132934
300.2780666
301.0972157
301.7518206
301.0372542
301.4691594
301.590609
298.5597791
300.3630805
298.5200588
298.273301
298.2946738
298.4226012
298.5560584
298.388275
298.5379209
298.527375
298.0203143
297.8806298
299.5669073
300.6500805
299.7367773
298.6898349
298.1402545
298.5027662
297.5873019
297.2305101
299.4286031
299.7638164
300.4189305
300.4655878
300.8387896
299.8862497
299.3357204
299.1259418
298.8429627
298.9966687
297.1637652
297.9687537
297.0683969
297.8260849
299.1666049
299.5378087
299.4548777
298.7155989
298.8829888
299.9387207
298.7933548
299.4455954
298.9528263
298.6469586
299.4262949
300.5115724
299.8942014
298.0648756
296.389283
297.4810536
298.412944
297.9933318
299.3785276
299.7208414
300.6864363
301.5597266
300.8223624
299.3227854
299.2574296
299.106223
296.517993
296.2909842
296.6519017
297.1183704
297.5183434
297.126157
296.5868368
297.9825731
299.0024514
298.3441108
297.9971034
298.4132466
297.2172399
297.9411049
298.6023961
299.0678208
299.9999774
298.7395705
297.7718558
296.5773004
299.4357425
300.289897
300.5231757
301.1929672
300.5191203
300.6748862
299.4175279
298.1557458
298.6151611
298.8992044
298.7482049
298.7333174
298.7878104
298.3255136
298.4187148
297.1997488
298.2152524
298.9819103
299.6851388
299.5046806
300.3773125
300.9300466
300.728876
301.0550306
301.3403926
300.4355133
300.2043611
299.3611242
300.8193906
301.4401544
304.0570016
302.9303074
301.0668519
300.4898512
300.3292228
299.7652159
299.4465215
299.0682957
298.4595222
299.1694487
300.4505596
298.8407394
297.9488471
297.4059445
298.2204696
297.4265262
299.1118548
298.9222633
298.923679
298.3563856
298.4760985
299.3362059
299.5878223
299.72701
300.7981638
300.4853064
300.4097801
300.1326903
299.7346117
299.7227282
301.2580966
299.7402957
301.0460197
300.7313767
299.6218547
300.1447209
300.2657638
299.1288063
298.504986
298.9676486
300.3588264
300.1293077
300.3131581
300.471489
300.8521223
299.9679304
301.5407408
301.2333563
300.6132711
301.7316363
297.2949587
297.7736084
298.026348
298.9570466
300.4172349
299.2921407
299.48829
300.0077146
300.8217698
300.8048794
299.6782975
299.7517553
299.6666623
300.164302
301.4015793
301.3921938
300.6587719
299.858203
300.1411572
297.8735732
300.2124924
299.5736288
299.7231309
299.0037561
298.4374398
300.1658773
300.1001308
299.6568429
297.6377818
298.7897248
298.6098046
298.1494638
298.9211658
299.9517786
300.4670826
300.1543916
300.2948096
300.1620298
300.3538786
300.0112698
297.2270956
297.6424671
297.5571432
299.0936662
298.30081
298.9845954
299.6697824
300.5664769
300.7826269
301.0265891
299.8970154
299.3469809
299.0716594
299.8301464
299.6698498
300.1578352
299.7134926
300.1396028
298.2145053
297.8296727
298.8479847
299.2382155
299.7477706
297.7245826
299.0835905
299.8242014
298.1862887
298.3035441
298.7986132
299.5329233
298.1754989
299.0352196
298.6099307
298.0271107
297.8222556
298.2519604
297.7041912
297.6641913
298.9192661
298.9239624
298.5505495
298.0168941
297.9208527
297.3132637
297.6245415
297.4694487
297.651465
299.0471429
299.0697777
298.2436895
298.8394822
298.1621393
298.4464657
299.2474161
299.9387916
301.2869913
302.5078719
301.8643854
300.8552072
299.0571693
299.1829861
298.9995992
298.7861081
298.8775118
299.4940542
298.8688837
298.6783865
298.1139808
298.044505
298.3359971
298.844701
299.5490461
299.799337
301.2078064
299.1518758
298.9417622
298.903019
299.2133305
298.7513745
298.0015273
298.732345
299.0173751
298.919383
299.4047737
298.6837513
298.8995541
298.1793575
299.1601787
298.2074409
298.794605
298.1347965
298.1779292
298.4564948
297.4466828
298.4923711
298.8144763
297.2954061
296.5960353
298.5491649
298.7254947
299.9910213
299.9116572
299.3934334
298.3720174
298.4842568
298.2887783
298.5537668
298.4473336
298.9664056
299.5448114
300.1042664
299.6595787
300.4303955
301.2213232
300.7875012
299.3103304
299.5266413
299.5684632
299.5512834
298.9646044
298.3055815
297.5174766
297.4144831
298.6547101
299.2161628
299.255725
297.9329366
298.2745724
298.418632
298.7497881
298.9213248
300.407559
299.0834556
298.8940533
300.3092464
300.6053203
300.8799038
300.017231
298.5480638
298.6063974
298.8563119
298.7395118
298.1328041
298.8536335
297.8417794
298.6088392
298.8334327
298.5482803
298.3164005
299.7791861
301.0280764
302.6184129
301.2312833
300.1306637
300.0159551
298.3556025
298.3609249
299.1882437
299.2796341
298.8107759
300.383156
300.8883443
298.9411501
297.9198668
297.1083797
298.2071335
299.1275494
299.8264641
300.7686874
299.7106792
299.9334787
300.3452686
299.850221
299.3929456
297.5861532
298.3796477
297.74057
299.4304585
300.632868
299.961803
300.3390735
298.6657895
299.7511682
299.4534254
299.5036194
298.1348372
298.3097585
298.9364682
298.6981458
299.9380208
300.6303268
299.7491747
299.3151713
298.4920316
300.4401035
300.1919786
298.8390458
299.6098244
300.08653
300.7289151
301.0627032
301.8606665
301.701606
300.5057198
299.2531747
298.767127
298.606739
299.1668209
299.3565784
297.9892523
296.8696355
297.2204801
297.3453576
298.3314038
299.0370526
298.7866487
299.3968979
299.8265358
300.4550867
301.0499927
300.4416764
299.0954166
298.2344596
298.5934573
298.839872
298.7563125
300.4690385
299.0219533
300.1232179
299.1562724
298.8752756
298.2808789
300.2329303
299.164304
299.8616332
300.8175049
300.864155
300.9746273
302.4064671
300.9201963
297.8234006
298.1573718
297.9738616
299.4620586
298.1964384
298.373946
298.7784379
297.5770662
297.5183922
296.6210566
298.0202861
298.8209121
299.4613208
299.952123
299.859296
298.7361856
298.6226609
299.0358185
298.7654944
298.1376628
300.4620515
299.4624101
298.8021119
297.8044499
296.0477753
295.9554303
296.7907034
299.552603
300.788055
300.150301
298.9239537
297.293378
295.8917737
296.8216205
296.3117008
298.2015286
299.2706744
298.6165414
299.709375
300.9809397
298.2007829
298.4910584
297.9225999
298.2911341
298.3758126
299.4501573
299.1930366
298.5669334
298.6147261
299.4210081
299.8175235
300.5868062
301.3578855
301.6347997
299.5770374
298.1958727
298.7018763
298.9317487
297.0054515
297.9254325
299.5907165
300.2137429
300.7145473
299.5718777
300.8102628
300.7033514
300.6333306
300.2905668
300.271947
299.2702765
299.0156628
299.0082455
298.9469844
298.5088299
298.4059246
299.7135509
299.596292
299.5019276
298.6991697
299.8141567
298.8577654
299.6596252
299.5566202
299.5012424
300.1081092
300.057265
300.1916629
299.4194644
299.047631
299.0439424
298.9048048
298.8116462
298.4762986
299.0767245
298.5603429
297.9244768
297.9152805
298.59173
300.1491079
299.143894
297.9129684
297.8284406
297.8173334
297.6276993
297.9625613
297.4769952
298.2715231
298.8279442
298.243575
298.4448783
299.0645329
299.2823778
299.0487375
298.0688022
298.754902
297.6087409
298.3345501
296.6220944
297.35629
297.5433887
298.8140819
298.1850544
298.2817729
299.2361564
298.9816471
299.6763142
299.7630953
297.1569842
297.3629008
297.3422159
297.6149293
296.0053949
297.8408655
298.1635828
298.5455097
298.2445974
298.2110102
297.8189436
297.7718675
299.3555756
298.3347984
297.2219231
297.6955138
297.683937
298.6267056
299.0452947
299.7936342
300.2046187
301.1583592
300.6346734
300.9636445
299.5739605
297.6857462
297.9724098
297.8674403
296.4589782
297.775236
297.5224711
298.557611
296.7895012
298.1826422
299.1170109
299.3182755
300.1004436
300.7094907
298.8305211
298.1892941
298.1772019
298.4906965
298.8513599
298.185489
296.7481962
297.1266423
296.9669755
297.8512421
297.3264843
297.0448025
295.8171475
294.4682987
296.1549442
300.1441004
298.888591
300.0432429
301.0691641
301.2817043
301.911479
301.1078379
299.7422236
299.5598983
299.745065
299.8398041
299.6444124
299.8763829
299.9745728
299.2273403
298.6165719
299.4362018
299.9288909
300.4863197
300.5097296
298.65445
299.5760135
299.5333345
299.8426464
299.31465
299.8263792
302.1702364
302.4662793
302.0075092
301.4474912
300.8220552
298.0482128
300.2490062
299.4663614
299.793276
300.203625
298.7908801
298.8944668
298.5700109
297.7372882
299.3716242
300.5147556
299.7790858
299.7623085
300.153368
300.5972932
298.996285
299.386654
299.7703934
298.6006491
298.7013639
299.4289381
299.9979684
299.8287134
301.2171513
300.3373666
299.5344321
299.1850508
299.441322
300.0395405
298.5114507
297.7075008
299.041303
299.8071114
300.8552302
299.7538889
299.4184506
298.819557
298.7209899
298.5647538
297.9618427
297.8935269
299.6299267
300.1818403
300.89265
301.5438122
301.8437595
300.1620583
300.0391417
299.1319077
299.7036492
299.411774
300.4864452
299.1819336
297.90363
296.8872108
297.7941258
298.9031434
299.6936339
299.3097639
298.5987704
299.0912351
300.5350544
300.5191029
299.5901753
298.5708033
299.1124853
300.8119694
299.3048292
299.5955121
296.5725702
296.6140704
296.8211251
297.7576356
298.4332118
299.9003152
299.5835463
297.7354472
298.1910777
298.4201758
297.9461021
298.1241577
298.2536265
298.0449293
298.9094529
298.9469745
298.7604848
298.6845857
297.8176661
296.5314065
296.5900744
297.235547
298.1140989
297.7806832
298.5517321
299.3987228
299.5242335
300.0185154
300.790644
301.1372628
300.3755978
300.3896069
299.6504648
299.6809186
298.5072099
298.9776328
298.7983932
297.5261849
296.8377839
296.7237738
296.1929044
296.9652674
298.0347954
297.9798505
296.3690673
296.6671663
295.4160028
296.3135693
296.1417861
297.793127
296.5864945
297.1599933
297.1256203
296.5820962
296.168685
297.0299668
296.6754072
295.7225564
295.7627656
295.6654111
298.0004233
296.8522182
297.1259425
297.5322102
298.4042695
298.7618288
297.1018042
297.3672192
297.6044306
298.1784882
299.4717501
298.8099733
298.117005
298.6358267
298.1336232
297.0549993
296.5959482
298.1276465
298.7027286
298.3756086
298.6026331
300.5993625
300.1450204
300.312896
301.8804193
301.9786871
302.7999459
302.9906127
302.5943844
301.2684356
299.5080534
299.6377082
299.2189361
298.1011051
297.7122897
297.8841335
299.4874081
299.5044881
299.3059515
298.3574797
300.9662292
298.9249369
300.4077105
300.2801115
300.1892668
298.997734
298.4141089
298.8243309
299.0381045
299.5045261
300.4578747
299.1147031
298.4670165
298.8610747
299.8236131
299.3337051
299.6922535
299.6089964
301.2511359
301.8208799
299.5441977
300.1964208
299.9005894
298.502328
297.9887977
297.5156453
296.967654
297.623277
296.5075258
298.1539702
298.2803544
299.3267315
299.2003376
299.8389798
298.4740973
299.6246545
299.6662713
298.6083917
298.2260245
298.370498
295.9004304
296.5408786
296.7003989
297.4749735
297.2732083
296.5078143
296.1544447
296.3055069
296.1192443
295.8620393
295.5263566
296.082646
295.1690209
297.206303
298.0937371
297.9184982
297.1024397
298.3414265
298.3622328
296.3147158
298.2165496
296.9804087
296.6807218
297.1202925
297.7894239
297.1011547
296.0820327
297.5131269
297.9121322
298.2205588
299.0086647
299.3874415
300.6190323
299.7486074
298.8267833
298.901058
298.8025144
299.7160397
298.7981336
298.7998961
298.9507413
297.9334037
297.6313588
296.8456279
296.6966277
298.0815436
299.2842024
300.7909857
300.0400534
298.2688467
296.4961521
296.3796262
297.786012
296.9398911
298.1257054
299.4191213
299.9713368
300.4648977
299.7674137
298.839304
299.7024617
298.6121179
298.9248564
298.5239093
299.0389713
298.2319904
297.9248898
297.57224
298.2346806
298.3768354
298.8399801
299.2593253
298.0434415
297.4111755
297.3962907
296.5173244
297.1917952
298.4916126
299.8594672
299.9400882
299.4587064
298.865216
297.9835682
298.0085154
298.0115423
298.7208338
299.0704044
300.4695054
300.0240967
299.6314262
299.1350821
298.541702
298.3704417
298.8613526
299.1030368
301.0171637
300.508942
299.4930033
299.7883723
299.2093631
299.0970214
299.0295144
297.9413829
297.8709658
299.3989278
297.890025
298.202518
297.4290214
298.1375732
298.3687933
298.5211798
299.8279787
300.6417337
300.2210521
299.9944576
299.6711372
298.7864228
298.5209426
299.3307457
299.6309135
300.4332308
301.2491517
302.3999418
302.2162502
301.2051269
300.5141104
300.4038254
299.9288351
298.9177687
299.3393029
299.2089032
299.8473054
299.5218466
300.2500272
299.9820412
299.9055669
300.0387791
299.4835048
300.1290428
300.7745898
298.7038423
298.5546354
297.5770772
297.7606813
298.2439537
299.6838827
299.8223885
300.5201427
300.8971306
300.0177809
300.5480251
301.0042679
300.992173
300.4593769
298.2745545
299.221013
300.9180742
301.4016094
300.4139045
298.9385934
296.8038263
297.1683222
297.9228084
297.6739055
299.6352764
300.5638361
301.1335046
299.2738247
297.9338935
297.757678
298.0982046
297.467913
296.0219612
296.9000629
296.8304761
297.4869575
296.2003458
295.4146586
297.0645404
297.0335061
297.1725696
296.4962564
297.5861988
298.27561
299.7665958
298.4914241
298.0712086
298.6248106
298.6224289
299.0924354
300.0473448
298.7887445
299.3488665
299.4139561
299.7593267
300.2434655
298.7858794
298.3803559
297.4336777
297.1281183
300.1778681
299.5106714
299.836894
301.1998231
299.9665141
300.681558
300.3374087
300.963442
299.583456
299.3010918
299.7135547
299.7142217
299.8546114
298.8444877
299.020106
298.7615336
298.8051175
298.2856459
298.1952959
299.0395242
299.0379869
298.8190488
300.087649
298.6059218
299.4443954
297.8669355
297.9092969
298.311174
298.2961642
298.5546468
297.330697
297.7204905
297.0562793
297.7811583
297.1029459
295.8435949
295.7695721
296.2479719
296.8977797
298.0465039
298.5418652
298.5128183
298.9913616
298.9601673
299.2696104
299.400801
300.1356926
300.4910338
299.2366306
297.7946023
297.3369729
297.3942641
298.2667118
298.2167347
299.0932277
298.51601
299.5329253
298.4094157
297.2698408
297.716109
299.79325
299.5390044
298.3453879
299.7728737
300.9517801
300.1045591
299.2874245
296.283149
297.950003
299.2541032
299.0477642
298.7276279
299.6002505
298.9577136
296.3540949
296.6824452
297.6748024
298.5605509
299.1205578
299.9313639
299.0127415
298.718657
298.501118
298.026425
297.5834574
297.8795711
298.668435
299.6841974
299.395729
299.7370588
299.8435302
301.4762895
302.486932
302.0521404
301.9244056
302.3503137
302.5542874
302.0237579
301.81438
299.8438442
294.6323922
294.4676704
295.1333857
296.8815493
295.91168
296.5816601
297.3570461
297.9904854
298.1984764
298.597864
298.8508989
298.109631
297.6814492
297.3607309
297.6284132
297.3498392
295.8245339
294.8590351
295.6699992
295.1716864
296.0312416
297.1760191
298.329548
298.0605526
299.3962659
299.5498106
297.9092265
297.8456064
298.7420743
297.5338171
298.3831465
297.7234399
297.3135384
295.6957981
295.5376073
296.6335011
297.5607823
297.1071172
296.2810561
296.2882521
297.5971777
298.8268903
298.1961693
298.0517852
296.8345556
296.5898215
297.5361686
297.3437526
297.7257841
296.4227888
295.7175428
295.2659292
294.7651911
295.9945716
295.7880585
294.7189111
295.1662064
296.3033967
297.2723246
297.5096441
298.1610444
298.8178903
299.3651249
299.4765422
299.49412
300.1051609
299.7079901
299.1282048
297.8595251
297.5593455
298.7405332
299.0371367
298.0482796
299.0613088
298.2507772
298.3128634
298.1804368
298.3838085
298.7738313
297.7610796
299.4199438
300.6364618
301.3287364
300.97963
299.7989684
297.5286491
297.4937622
297.1645097
297.7168884
298.6529194
299.5379948
299.0115068
300.8520099
299.8170808
300.6027641
300.5191591
299.2610631
299.2665262
298.0643485
298.7304884
299.8364018
299.6619075
300.0658832
298.7437736
298.3777338
298.8548387
298.4995004
298.4162532
297.286854
298.2065009
297.4907897
299.1720786
298.8914412
299.9020632
300.0977809
300.5135622
301.2614121
300.2820593
300.450426
300.092251
297.1246532
296.1675939
297.1043291
296.6291793
297.2905072
297.0343332
296.3977708
298.0784921
298.9456278
298.851986
300.2488602
299.6515353
299.0715937
298.5007848
298.386447
298.391571
299.077992
299.7374438
298.9920562
298.5588156
298.4848792
297.9105922
298.0373462
298.8810413
298.9937583
298.7966962
298.4370334
298.5768926
299.1883396
300.6637988
301.5080368
299.6402858
299.5601947
299.2646449
298.8275733
298.247906
298.1736339
298.1450288
297.5606129
297.4614898
300.7353626
301.4502301
301.1157306
300.3261835
301.1526388
300.4441793
299.7729944
299.1076454
298.8409343
298.8701809
297.6156781
296.241669
296.3410333
296.6801953
297.6139305
296.6837733
296.8594866
296.8151497
298.6775882
299.4635637
296.7330122
296.3694585
297.9191818
298.0708022
297.8787186
297.7563936
297.6005773
298.5051841
298.1539185
299.2762534
298.2486944
298.7423681
298.955396
298.1805164
297.9282346
297.6531416
297.9838771
298.1863551
296.6618918
296.0882003
301.3542153
300.9715765
301.0206478
300.1332759
299.5827671
298.6533669
299.410018
300.6493015
299.635844
299.9749675
299.2985477
299.72813
301.2523239
301.7835278
300.3049435
299.5450703
298.5176685
298.5789811
299.6100089
300.6443128
298.7081322
298.5755006
299.1771412
298.8051467
297.5664464
298.4669327
298.9149719
298.9683673
298.4319361
300.8012343
299.8777781
300.3542204
299.9540014
299.8361099
299.7501604
299.2237282
299.3641818
300.6110021
300.0111293
299.384594
297.8103769
298.3764479
299.1771454
299.1786851
299.6848462
299.676333
298.8075529
298.2126544
297.5663017
298.2872519
297.4185435
297.8169128
298.2832311
298.1984678
297.8602791
299.070346
299.3604958
298.3195073
299.0463397
299.1590895
297.2900816
298.2558142
296.9835972
298.2900297
297.6868347
298.4153753
298.8049498
299.1847872
298.2480135
296.854602
297.1987073
299.2901804
297.379359
297.1017118
298.5566733
298.3632314
298.2292641
297.9953399
297.1437756
298.0534667
300.9000558
299.9929424
299.7045234
298.0415691
298.8470497
299.4173423
299.1113336
298.9264081
298.5051041
299.8840598
299.5316271
299.3899735
298.833125
298.2709836
298.6883888
298.3765076
298.9205093
299.1099011
298.0846877
299.4955685
297.9616773
297.1392375
298.9972323
298.3644676
297.9656476
298.7006788
299.8799008
298.9435192
299.9652986
301.1051461
301.4808679
300.83397
300.4639839
300.717415
302.0976219
300.6565108
299.3770716
298.7699686
297.911246
297.5067172
297.1930146
297.7500707
296.9001145
296.3438956
296.5963592
296.1065229
296.1695263
294.8517969
296.0262529
295.3951103
295.4368553
295.9875455
296.5929263
297.4988112
297.2767832
295.845086
296.9092795
297.369746
296.8899734
296.9689525
298.6697283
297.4492905
297.0699098
297.0136457
295.5089579
296.5006853
296.6740085
296.6587085
296.0017178
295.8248918
295.7337366
296.5703807
296.5845558
296.3985162
297.2555078
298.3377283
298.2966866
298.3679524
299.4933149
299.0589991
300.1361343
299.584795
298.2099251
298.0851766
299.3838105
299.5459616
298.7693791
298.9272072
297.622877
299.666431
298.367867
298.4290556
299.7040937
298.755474
296.9614816
297.6269447
297.9850235
297.6635509
298.0197857
298.6865409
298.3854091
298.7261838
299.161593
298.4603904
299.85645
299.8446291
301.0744049
300.7588031
300.1661102
298.5211093
299.6040103
299.7123368
301.1800641
301.7592128
302.9701274
302.3014549
302.2593766
300.9768685
299.131967
298.2765263
301.6623052
301.5024692
301.7953896
300.9425233
299.8984758
300.7437769
300.3791896
300.2708222
300.4584923
300.2693899
299.8433222
299.9725333
297.8366244
297.6642154
296.238416
297.29043
298.6300014
299.2536256
299.783989
300.1548807
299.7335838
299.6597198
299.0546241
300.3806492
300.2616833
300.5345078
299.9064886
298.9161579
299.926966
301.0685085
300.3238322
299.8909285
300.6213374
300.5725907
300.617628
300.1271744
299.2644157
298.982019
299.416736
300.7775836
297.1098562
299.3291285
299.608535
298.3151053
297.9074095
297.9340082
297.8379878
299.1739158
298.6305809
299.0701717
301.1741561
302.0750805
302.6297265
302.1279686
300.8281803
300.9908642
300.2671637
299.7368956
299.1980654
298.0321129
299.3446402
299.1466664
297.8226587
298.1714824
298.0155279
298.9429654
299.5036729
299.2403086
299.8034873
299.7698047
298.2422263
298.3134257
298.2076865
300.6470065
300.7485161
301.0160731
301.1453373
300.7035146
300.6434573
300.5303467
298.2860388
297.2526374
297.7950924
298.6997048
299.344157
298.8298011
298.191327
298.1477217
296.8405945
297.1780635
297.3689515
298.1655296
297.9386768
296.2043848
296.6367807
298.071259
297.6775654
299.1447336
298.6128084
297.7519301
297.8905312
298.3428951
297.0725769
296.7908419
296.6920661
297.1147995
295.9825626
296.9810936
296.8172842
295.700825
297.42864
298.0619799
297.5612542
297.7035203
298.5864454
298.5700724
297.7301216
297.8173091
297.8366078
298.1222687
300.6231147
300.6100848
298.6267357
297.8890533
297.3894902
298.4971942
299.6175466
298.8845118
299.1500774
299.5536259
299.7586535
299.5824911
299.2482246
299.3074783
300.3143407
300.0889835
301.196276
301.6536957
301.51541
301.3766752
301.0274398
301.5709212
301.2924874
301.5396133
302.5028284
302.0031021
299.829915
299.0784316
298.0565365
297.4815289
297.8989932
296.9912798
296.9182664
297.5493929
297.0058658
297.6910265
298.9702247
301.4534009
300.3162114
300.5410838
300.3531864
299.0355007
298.8412054
297.5994644
297.6135665
296.8652795
297.7634219
298.8929341
298.3954334
297.7716429
296.6852786
296.1162875
297.1744636
297.4445356
298.2920556
298.6159636
299.075155
300.1153565
299.6599101
299.4667507
297.3155665
297.0228952
297.2799645
298.3421898
297.6607324
297.2251562
296.8709113
298.0689946
298.4023002
298.6871385
299.8109801
299.4730392
299.8257169
297.9455292
297.710571
298.7411639
298.5103025
298.4910151
297.9789663
296.3651513
299.670501
299.5293598
298.9915767
299.256342
297.7706266
297.0032178
297.084089
297.9526275
299.5480207
300.4927382
298.4467164
298.3673392
298.7749203
300.8021488
300.828509
299.6031258
298.9906082
298.5074896
298.5611978
300.0004127
297.7430739
297.029622
297.9946565
298.5522441
297.9137285
298.5014429
298.4274338
298.8147469
298.2880791
297.0643787
298.0652045
297.918014
298.2680118
297.8844044
297.9368801
297.0915833
296.4329288
296.7527528
297.1776461
297.096539
295.5692254
295.5882308
295.8853404
297.0829487
297.3384151
297.6589231
296.6764029
297.4146607
297.2504369
298.0189542
296.4513395
295.715794
295.8253157
294.5788033
295.7028313
297.7511743
298.7519749
297.8206822
297.4717236
296.3037873
297.4801724
297.7839862
296.5987668
296.6028113
296.1618662
294.746205
295.0249332
294.2757201
294.3772312
294.9217757
295.771393
295.1070597
296.2071474
296.7849597
295.8470074
296.9463626
296.5512536
295.5305596
296.0634892
297.2308378
297.2081406
295.6866771
295.8030671
295.7381664
295.2601296
296.2638179
296.8728929
297.6750576
300.0507965
300.1977406
300.1834218
300.1737198
299.4460494
297.5150953
298.1080257
297.9126168
297.7435451
298.4346325
297.5915523
297.5523892
298.3531746
299.1231177
298.060384
298.2195481
298.8949961
300.0933462
299.177373
299.3747668
298.9195174
301.7469991
302.3147411
301.8573815
301.4292087
300.4451707
298.1757541
298.3815207
297.6495539
298.7831147
299.0143687
297.9396248
298.9594078
298.3715959
299.2756666
299.4735289
300.3786462
300.507246
300.4714469
299.280247
299.639831
298.776256
298.3128446
297.8474992
298.1769218
298.9317537
300.1249611
299.8136695
299.6676685
297.6111335
297.5781079
300.3105619
302.0776151
301.2262695
301.3045075
300.1414188
299.6133437
300.7618137
301.6436007
302.5160503
301.6928658
298.715832
298.566466
298.7226734
299.1502221
299.8622668
299.9580575
299.6548081
300.2908209
299.842637
300.8998272
301.5694517
301.1347177
300.674001
300.7791286
301.0235862
300.5935849
299.9834418
299.3393312
298.1955846
299.4264939
300.0246799
298.2182453
298.8243366
299.33698
297.9401054
299.6034978
299.6743222
300.2123575
302.0862602
302.5271318
301.1451766
300.604181
300.9959406
300.9138834
300.4877601
299.6569175
300.2211844
301.2505257
301.2244805
301.5732373
301.3223856
300.7916148
301.3063499
300.2832205
298.3877178
299.0789437
299.8459124
300.6413769
299.8873753
299.8971351
299.5646139
296.3081871
296.4241083
296.1479635
295.7153715
297.0920675
297.1089249
298.2866088
298.025019
300.0176
298.9490012
298.692778
298.6339906
299.0414679
299.7589092
299.0158574
298.6864895
297.6880777
296.9479803
297.2173546
297.6657469
300.0366144
301.2100342
300.5099073
299.5160578
299.6845261
299.029037
298.506747
298.0373206
299.335206
300.1794605
298.0495539
297.6873436
297.3623561
298.3692076
298.2488533
298.7066465
299.7989647
301.1813865
300.7684451
300.9286727
299.2634326
296.9965696
298.8170723
298.9783024
298.9095753
299.2784779
300.7626419
300.4015435
300.1561101
299.3451764
299.4800195
298.8172
300.0128946
300.2578474
300.4082351
299.4416112
297.5281096
296.2251101
296.8595397
297.5902333
300.0886073
300.1798971
299.8810393
300.9406568
300.8851195
300.147497
298.973876
298.8724125
297.9626862
299.0733288
299.2105666
298.7962853
298.7973872
297.7348056
298.328071
297.5876277
297.9964448
299.0711292
300.2826449
300.2686865
297.5436552
299.1721901
300.2734349
299.4929647
300.3915886
300.0850228
299.7251136
298.5014297
297.7396442
298.5107175
300.4754367
300.214171
299.779607
298.9429299
297.9055475
297.260656
296.0834483
296.050566
296.0887343
297.111878
296.281514
294.7640609
295.2522316
295.5583646
296.6102133
298.4238071
297.7485587
296.7547558
297.6091609
297.2230366
298.0915524
297.932156
297.7470787
298.3553701
298.6641481
298.2555397
298.6412376
299.6481444
298.6494367
297.3674538
299.8673088
299.45507
299.2584205
298.5945087
297.7242365
297.9050749
298.3552724
298.7382137
297.6504112
297.5602982
298.1376706
297.6589679
298.0786693
297.7347228
297.5082789
298.1712897
299.2340224
297.7050386
299.0341893
298.28402
299.3539693
299.888491
299.7234912
300.5608062
300.4455482
299.7461809
299.2497444
299.8566301
299.3356287
299.2023735
298.2461266
298.4194667
299.4323912
298.4990814
298.0387662
297.6124883
298.8792858
297.7450505
298.5929283
299.0906749
297.3082486
298.9059206
299.3680645
298.7739619
298.7361314
299.5912478
299.6695747
299.0369405
298.0469298
297.6877602
299.7289968
300.8330154
299.5378996
299.7080829
299.0592019
299.706042
298.9940037
298.3062216
297.5918018
297.759557
299.1843704
298.9802955
299.8515054
299.9728031
300.3480713
300.3091151
299.3760322
299.8796919
299.8565203
299.8005406
297.2297765
297.8522982
297.6849879
297.6098557
299.3248235
299.6370119
298.8787551
300.5924545
300.3087909
299.9682304
300.0959226
300.6371128
299.7165527
299.9217561
298.745364
297.7427161
298.4486807
298.6019074
298.485546
297.7955676
298.3044393
298.5674212
297.6622344
299.1485961
298.4383575
298.4998947
299.4159067
299.8301452
299.2570055
299.7696653
297.6683356
296.8002436
297.6335955
298.6869351
299.3094662
299.7992152
300.005351
299.8190745
300.4696533
299.8338442
300.4494475
300.2280581
300.1316152
299.686065
301.1561292
302.2095546
301.1216971
299.9558475
300.784677
299.2837946
299.8890018
300.9654111
299.9670837
298.7495469
298.0553944
298.2906814
297.95469
297.9471918
299.0071349
299.0429875
299.8687265
299.7710803
300.8242101
301.2596133
300.3890794
300.8567186
300.5113308
300.5552094
299.9956327
299.7419458
299.4538836
301.0114961
301.022177
302.0071823
301.6759467
300.3975478
301.3887416
299.8816844
298.9644195
298.2182801
299.5479844
300.8832003
300.1131754
300.8485708
301.2904834
300.5173592
300.1561923
300.4181983
301.3828418
299.953753
299.2762653
298.8338319
299.6085491
301.4394994
301.4336534
302.4247906
301.8300477
300.4200436
300.7468555
301.2963616
301.394515
299.8668769