/*--------------------------------*- C++ -*----------------------------------*\
| =========                 |                                                 |
| \\      /  F ield         | OpenFOAM: The Open Source CFD Toolbox           |
|  \\    /   O peration     | Version:  v1706                                 |
|   \\  /    A nd           | Web:      www.OpenFOAM.com                      |
|    \\/     M anipulation  |                                                 |
\*---------------------------------------------------------------------------*/
FoamFile
{
    version     2.0;
    format      ascii;
    class       volScalarField;
    location    "0.01";
    object      rotationalT_N2;
}
// * * * * * * * * * * * * * * * * * * * * * * * * * * * * * * * * * * * * * //

dimensions      [0 0 0 1 0 0 0];


internalField   nonuniform List<scalar> 
5120
(
297.3530052
297.4901862
298.0065462
298.5874971
298.9045735
299.8568013
298.9377039
299.888241
299.2623341
299.6096095
298.0032579
297.6597466
297.6891157
299.3556292
299.1596689
299.0424509
299.6180323
298.0056038
299.4550494
299.193506
300.3365884
301.4114028
301.4505351
300.5000915
300.5828033
302.3053662
302.638475
302.3869302
302.4895148
301.2624596
300.6815091
300.568488
299.924024
299.4041798
298.3853757
300.3546653
300.4334928
301.3463536
299.5768748
301.0905152
299.6967053
300.3969554
300.6193737
301.4551569
300.9168685
299.9101424
298.9063843
298.3729259
297.1590813
296.549479
297.3972635
297.8913744
300.2203738
300.675243
299.5845762
299.5301977
299.818556
300.1859416
299.5576014
300.4090697
301.1055268
299.8209261
299.9965226
299.455684
298.1194968
297.2679532
298.883944
297.7417262
298.7212772
298.8288202
299.3785784
298.3779801
299.1830134
298.074018
298.4941191
299.9791594
299.8216127
300.4820804
301.2056179
300.5482831
299.5757621
299.9143044
300.7869047
299.3904665
299.514243
299.9667873
301.1982356
301.0662268
300.4091981
300.0363944
300.7334892
302.295011
301.8578138
301.6564774
300.500206
300.7798889
303.2336088
302.1682915
301.0169663
302.4520256
301.6798587
301.6241347
300.0588165
301.5508898
301.555307
300.0151317
298.3096226
299.7829247
300.6322883
299.9404477
299.8453636
300.6101869
299.0611431
299.2878964
298.0382076
299.8457556
299.1182665
300.2508033
300.4027351
299.9167999
298.1671407
297.6201405
299.0643734
299.4134486
298.2256669
297.9240548
299.1006219
298.3773733
299.109439
299.2598181
300.1765325
301.7268218
303.0971476
303.6229174
302.7696982
300.8330408
298.6638902
297.4294284
297.89525
298.1991139
299.3851849
299.225643
300.3885425
300.2084439
299.6980361
300.5577291
299.8793598
299.119094
299.146399
299.4597616
298.7629136
298.5165957
298.5407384
298.0704262
297.0293376
296.2614586
296.8959628
296.9470719
298.0985848
298.3303227
300.2093483
299.8631911
299.9918297
300.2133258
299.9135534
298.9651547
298.7229826
298.3964872
297.9017398
299.5390352
299.609409
300.7488459
301.0981425
301.0578479
301.2465274
300.4822038
299.1847489
300.3475423
302.126931
300.9058496
300.3356661
298.55258
299.7469962
298.7510062
299.314981
297.8563769
299.7334218
299.7664439
300.493702
299.7745832
301.3511346
301.4145808
299.6123731
299.4022806
299.246521
300.8378719
301.9098973
301.0885477
301.7153758
301.6081455
297.9390946
299.9771496
298.4781122
298.8397269
298.4582255
299.1976271
298.0831461
298.574909
298.2450788
298.9776137
298.7710269
298.4790908
300.3014554
301.0487718
300.7957962
298.9790162
298.4682842
298.7913602
297.6024552
297.0936434
299.3593608
299.5117283
300.5673376
300.8064243
301.5023107
300.7663982
300.5528777
299.8393271
299.40591
298.9401949
297.179082
298.0180602
297.4320651
298.0483624
299.5279673
299.7071872
300.6554863
299.5163099
299.4407608
299.2191528
297.9771582
299.1531115
298.297912
298.7480026
300.1030474
300.7246761
299.4209664
299.0038763
297.4485212
298.5486401
300.0135489
299.9032612
300.7593659
300.9278747
301.0853522
302.2387041
300.6121146
299.4423269
298.8060611
298.7641107
295.623186
295.5655868
295.898322
296.3655129
296.8614075
297.2680397
296.7606953
298.622113
299.4325522
299.5450148
299.1168042
299.2164079
297.7573438
299.4325681
299.9533392
300.5785324
301.3094859
299.1082566
297.3353429
295.8542245
299.5005978
300.2450689
300.6997661
301.269576
301.499939
301.163437
300.2209024
298.5697158
299.0533335
298.8931598
298.7030332
299.0795567
298.8750874
298.2096789
298.4721324
296.9070966
297.6946257
298.7038326
299.7965698
300.129408
299.9999678
300.5586661
300.5351868
300.6930613
301.7658497
300.791372
300.1970734
299.5615425
300.9742117
301.7878141
304.8961019
303.9672896
302.1268051
301.8368899
300.8791258
299.7119557
299.6119181
299.3389156
298.0331339
298.8086551
299.6116462
298.71401
298.0181388
297.0207656
297.3748858
296.4644456
298.3416848
298.1686502
298.9685676
297.6629468
298.3495636
300.1843755
299.9450764
299.9088436
300.3889252
299.33885
300.0894162
299.6834433
299.2726353
299.1235672
300.5907874
298.952779
300.3294237
300.1171061
299.5664407
299.8679507
300.1081445
298.8084766
298.8659753
299.0488448
299.9772798
299.7321992
299.8492303
300.5908859
301.4165858
300.1780459
301.8831983
301.7037654
301.4751998
302.2964468
298.2064062
298.5716983
297.8020899
298.8442938
300.1043961
299.0791063
299.9269978
300.0105508
300.6035917
300.9115431
298.6179993
298.6337343
299.5205013
299.5691635
301.7128139
301.714152
301.6304306
300.4480212
300.1351464
298.2680125
300.3186506
299.3439529
299.8488086
298.6837805
298.3800149
300.1280514
299.3863308
298.3846329
296.098259
296.9951137
298.1040802
297.5769516
298.2231683
299.5062
300.6324981
300.3888484
300.1190049
299.826202
299.9354081
299.9843783
297.3570868
297.5041025
297.4732945
298.7198542
298.5816885
299.7501577
300.2758455
300.8992292
301.2984112
301.956603
300.0464782
299.0542517
299.0200275
300.0666641
300.1787164
301.0645074
299.7755647
299.870344
298.6491783
297.9931526
297.9262777
298.2767817
298.8214017
296.7864136
298.5577781
300.1554068
299.5106353
299.3059484
299.5294108
300.1764575
298.6681156
299.7500573
299.1850707
297.8963879
298.01901
298.4522351
297.7227784
297.3724251
298.7831017
298.0809343
297.7438719
297.7664191
297.4882209
297.484819
298.1295063
297.2444278
296.9075428
298.0152851
298.593816
297.9284299
298.2564222
297.4732094
298.0668457
299.7355761
300.6369216
301.5514832
302.7109096
301.7036555
300.4948612
298.2792199
298.9068464
298.3289759
298.6021221
298.814877
299.5571574
298.6454412
298.8683484
298.4712505
298.578351
298.0334815
299.1046166
299.5764036
299.9633314
301.1694645
299.2783569
299.2928303
299.2054865
299.6175814
299.4407571
298.6183487
298.3235032
299.1218533
299.1269571
298.9357311
297.7342849
297.7024619
297.6090914
298.784574
297.928043
298.2954461
297.4577057
297.5443432
298.3502474
296.7898802
298.1136598
298.8497017
298.2744654
297.2193734
298.8371341
298.3591108
299.900803
299.6218123
299.0678754
298.4546172
299.0990195
298.0366118
298.3845733
298.3055262
298.6452933
299.1354079
299.0179954
298.9941915
300.2809868
300.7112088
299.894226
299.0222859
298.7804713
298.6880358
298.3469151
297.9439521
298.5670455
297.1780326
297.2302386
298.1426759
299.4903684
300.1761755
299.2027248
298.8863889
298.4099875
298.6229407
298.9755167
300.5618862
298.7248892
298.5770136
299.7122212
299.8310612
298.6141573
298.5857438
298.1319932
298.8085012
298.7038696
299.2469789
298.8723244
299.5979375
298.573083
299.740233
299.1612492
299.3547463
298.7544949
300.6493674
301.3858176
302.3908403
301.4717923
300.3289729
300.1825554
298.5656969
298.4905571
299.0507605
298.8619426
298.34229
300.7437073
301.2565247
299.2331603
298.7946706
297.6099745
298.4124898
299.3724654
299.116134
300.6263313
300.01241
300.2727607
299.9561961
299.5536225
299.1651918
297.4067297
298.3996204
297.6233736
298.4594237
300.0838794
299.5687669
300.8447312
299.032919
300.4911597
299.5834069
298.9770961
297.38663
298.398591
299.5707761
299.3659242
300.1410266
301.1753514
300.9236257
301.1882322
300.4815025
302.226325
301.4642438
300.1729412
301.5276664
301.8410265
302.0926616
300.9587775
301.8116733
301.5009865
300.8935968
299.6159629
299.3756373
299.5157251
299.8115766
299.7099733
298.3369184
297.423596
297.5366288
297.4247479
298.3922654
299.3747372
299.5230516
300.3179937
301.3319632
301.2355711
301.6370557
301.7542449
299.6651222
298.81393
298.6135339
298.8792097
299.0430369
300.5753748
298.9065107
299.7629566
298.9201574
298.2362426
298.5394982
301.0046414
300.0635952
300.2351062
300.9203935
300.5006449
300.6584553
303.0500856
301.615813
296.4229816
297.3793177
297.5102522
299.1182267
297.4724533
296.9929049
297.4648055
296.5858244
297.1755894
297.0585585
299.1003119
299.3815432
299.8385044
299.8746213
299.398824
298.3763005
298.0837582
298.7873221
298.0744027
296.7517567
300.4991736
298.9556983
297.9855889
297.0133045
296.1136367
295.6684208
296.7811014
300.0958053
300.922563
300.5038284
299.1825793
297.8481348
296.8244744
297.1374395
296.8253272
298.8180763
299.4311556
298.038652
299.0829104
300.5058674
298.5201114
298.2896829
298.3181928
298.2588681
298.0032008
299.2187962
299.0932352
299.0249409
299.4946159
299.8532275
300.2484633
300.703402
301.1519041
301.4381576
299.2766337
297.4597547
297.1489541
298.5084918
297.6509365
298.2203046
298.5051151
299.4725601
300.5758381
300.2609861
301.6671892
301.2548727
300.7022116
300.3752399
299.5416531
298.7195318
298.5700441
298.3860348
298.3410173
298.2258736
297.5814621
298.7104354
299.1456779
299.3554989
298.4844064
298.6903039
298.4670142
299.539723
298.7563411
298.7183677
299.3333499
298.853953
298.7389563
298.1731808
298.4319915
298.5292552
297.8910126
297.3994951
296.5629459
297.9497294
297.67522
297.5152919
298.4013095
298.859266
300.2241238
299.4495312
297.662951
297.8460178
297.439606
297.4489782
296.8317849
296.1401509
296.7598977
297.7246773
297.17128
296.6643052
297.6604547
298.3844485
298.7915468
298.0350754
298.2942476
297.15659
297.4990437
295.5192467
296.5277271
296.7566923
300.57508
299.540692
299.3968698
299.6286522
299.2099872
300.4363699
300.5542294
297.7597879
298.0335098
297.7064203
298.2306069
297.3277045
299.1702631
298.5568054
299.1638166
298.9287505
298.7244754
298.842139
298.6782978
300.5142432
299.3214783
298.3261987
298.7070606
298.7109195
300.0112248
299.9807727
300.1763332
299.7889733
301.2095489
301.1849466
300.9520575
298.9943968
297.1186051
297.9610297
297.6808964
295.9765823
297.22507
296.912594
299.5089648
297.7346329
297.6657177
298.2980678
298.9217811
299.7557183
300.4790776
297.991714
298.3691559
298.4252609
298.2571703
298.9449136
298.0664559
296.1557677
296.9190624
297.1006601
297.8173264
297.6221604
297.3671539
295.7137496
293.6681918
295.8604598
299.7635062
297.9845004
298.4773631
299.2589493
300.1315612
301.5648891
300.5690446
299.5012301
299.8484592
300.4595972
300.2980418
299.5166414
299.0832945
298.5619909
297.820493
297.5131247
298.8282531
299.1390688
300.0054437
300.2108328
298.2976621
299.7851534
299.4003898
299.203376
297.9955686
298.6368598
301.2383219
301.3923402
300.3955318
300.6293989
300.2691566
297.5379322
299.7776516
298.3837228
299.3571822
300.5653872
299.3457813
298.686522
297.6432244
297.1376157
299.7113985
300.4404364
299.7241468
300.2983611
300.2777418
300.1294064
298.0681121
298.2204628
298.8527346
297.2011668
296.9461962
298.3071492
299.1728196
299.0353119
301.1896262
300.205667
299.9423073
299.2933744
299.5482968
300.5550258
298.478756
297.5790513
299.0939224
300.1416067
300.8318392
300.1962171
299.8794985
298.5292376
298.541579
298.3147005
297.9090765
297.9843152
298.9066393
299.5615277
298.9689668
300.4787563
301.3247909
300.1503192
300.4903807
299.4992424
299.6589378
299.8312945
301.0947505
299.8586929
298.5745664
297.3807028
298.5341573
298.9659884
299.7119902
298.8296692
298.1733554
299.0920733
300.4708599
300.2020471
300.1786217
299.0598254
299.269235
300.4430714
298.363784
299.0569456
296.5525318
296.8413343
296.9080496
297.35203
298.1994661
300.2623027
299.4539435
298.3294253
298.6963765
298.1234725
297.4942395
298.0618161
297.6799874
298.0174765
299.5559879
299.0190706
298.6178657
298.7535256
297.9125567
296.5971898
298.9217866
298.9001571
298.5334612
298.2016159
298.6167691
298.6775081
298.7107319
298.8035144
299.2818456
299.5808636
299.2838286
298.8494883
298.0596003
298.5923836
297.6522027
298.6857694
299.6970705
298.7304074
298.6546545
299.0061558
296.0857282
297.7059726
298.2384512
298.8810656
296.5533166
296.7516577
296.0202643
297.0734605
297.7126393
298.9360563
297.7603005
297.8183661
297.953578
297.0069139
295.6537867
296.4021631
296.3382048
295.3477189
294.9480264
295.5546085
298.5904897
296.8817471
297.313269
297.4540403
298.4188452
298.5453458
296.8167899
297.0740302
296.5909378
297.0533022
299.0082989
297.7337421
297.7282184
298.3430968
298.4147261
297.9808785
298.089843
299.0931232
300.0693257
299.3538796
298.7374159
301.0860211
300.1033524
300.4555899
302.0947598
302.1469202
301.820731
302.2844079
301.8927532
300.8186831
298.9351715
299.3047098
298.4841401
297.2812792
297.1680702
297.0908894
298.1965825
297.7810441
297.7183107
297.5856582
301.2671082
299.2847372
300.6991357
300.3796785
300.1042671
298.6515163
298.475536
299.2589377
299.1385467
298.5243513
300.1198648
298.8280781
298.3622014
298.8701645
300.1514958
299.971494
300.3596007
300.1169816
301.6007104
302.3318667
300.1740561
300.644665
300.4611317
298.7197098
298.7557703
298.1376693
297.1682133
297.1869433
296.5144355
298.0343833
298.0966643
300.186673
299.854929
299.9628237
298.1838901
299.2209403
299.1688163
298.8264934
298.6023599
298.8673041
295.8554636
296.483808
296.7860941
296.9245204
297.3119751
296.9513865
296.2685472
295.9893156
296.0590416
296.0858486
295.9097756
296.4993763
295.864443
297.3670795
298.982443
298.5915477
297.6195074
299.0562291
297.8821755
296.4935181
298.3709691
296.6946595
297.0243678
297.9609593
298.676747
297.7989366
296.5739246
297.9045259
298.6391279
298.3290162
299.758288
299.8354025
301.0958438
300.4607042
299.5800269
299.9128687
299.1429947
300.156061
299.3284006
299.1164762
299.8941641
298.6112959
298.0348842
297.0593717
296.6528165
298.5963701
300.5958805
302.2594219
300.5225464
298.2581152
296.5679173
296.7853431
298.229703
297.358612
298.3912817
300.3778976
301.4268993
301.8719089
300.2697486
299.2227072
299.267524
298.8944373
299.0927151
298.5673991
299.4082845
298.1933687
297.1499441
296.7187733
297.3950012
297.8463968
298.224151
299.319039
297.7703565
297.0927961
297.1628365
296.0215247
296.1013938
298.3278915
300.0253515
300.230495
299.6743418
298.6645754
297.6664327
297.2207902
296.9665844
297.7789004
299.0373858
300.4426723
299.752108
299.8761147
298.9886689
297.6331837
298.2520155
298.1200485
298.5306525
299.789308
300.0927607
299.2535023
299.4607653
298.6821074
299.8224149
299.4465108
298.6625106
299.1181813
300.7877356
298.5445771
298.5764161
297.3144865
298.7339327
298.3258788
298.3158457
299.2070933
300.3634477
300.3248303
300.6071708
300.0569137
298.9845536
299.1015165
300.4378177
300.4576695
300.9971206
302.024919
302.5148788
302.4232947
300.979992
300.0615046
300.2637674
299.7459599
298.7751112
299.9478328
300.1099842
301.4652218
300.9398458
301.0331248
300.8431337
301.138524
301.1428665
300.6685055
300.3831476
300.9399737
298.9213196
297.918937
297.1705089
297.6681919
297.9949082
299.8587042
300.1806568
301.7265893
302.6023495
300.9279787
300.6979831
300.7366107
300.464236
300.6989719
298.807114
299.3532927
300.7747881
301.9262733
300.5647342
299.6226731
296.9302915
297.1717728
297.657439
297.8245591
299.6387382
301.440223
301.6146719
299.8699622
298.810953
298.8551009
299.6583795
298.1634544
296.8493123
297.2180014
296.8331611
297.3412021
296.2259591
295.5606489
297.4196659
297.1050587
296.9350472
296.6300932
298.3089528
299.3829346
301.1337312
299.7737416
299.0162735
298.8277621
298.516105
299.9726646
300.6461651
299.6984155
299.8197406
299.5708915
299.4926471
299.8816545
298.782432
298.4643031
297.5424285
297.2300623
300.4245434
299.4606645
300.9215792
302.0149653
301.27917
302.1282947
301.5154852
301.7843139
299.7479664
298.7328802
298.6168518
298.8496144
299.2070324
297.9725095
298.6972324
298.5887385
298.3919266
297.7087334
298.1601759
298.5682648
299.2979833
298.9288038
300.0188963
297.8217108
298.8139633
297.4047416
297.7550043
298.76434
298.706997
299.1993479
298.3717944
298.8765387
298.0425626
298.6984147
297.4520101
297.1526551
296.5615107
296.7931107
297.3662482
298.1866287
298.1305001
298.1739685
299.4772373
298.9743909
300.1179192
300.0048265
299.9994214
299.7111259
297.8773706
296.715357
296.2335645
296.5072241
297.2882624
297.9672014
299.5263254
298.0335507
298.7468346
298.0363699
296.5318458
296.937994
299.0696519
299.0991718
298.8826944
300.1778398
301.3533051
299.7418241
299.4306907
295.8582731
297.695914
298.6149385
298.457989
297.9446355
298.8567966
298.1784596
295.5390676
296.6983403
297.5588828
298.9509718
299.2885792
299.8811447
299.3549274
298.2535018
297.4542909
297.0061103
297.1392042
298.2432312
299.0468052
299.3242539
299.0656016
299.7608115
299.5823558
301.4924873
302.7211234
302.4637221
301.7101746
301.7887664
301.8877784
301.900755
301.5721061
299.6603899
294.2629959
294.0853882
294.5695797
296.0999083
295.4718624
296.7974535
297.7165445
299.1820097
299.5417851
300.0188291
300.2403997
298.8357536
298.0585412
297.9330143
298.4550162
298.3405842
297.0822689
294.9841606
295.0038326
294.7690655
294.6476652
296.6088667
297.9315833
297.7973801
299.1602361
299.4578198
297.6459688
297.5022734
297.9899144
297.008506
297.942052
297.5712153
297.6881133
295.2628391
294.9483207
296.3340791
297.0119418
296.5561849
295.2018567
295.2992304
298.1015103
298.9089154
298.2916165
297.4440169
296.3731192
297.0662393
298.710311
298.6419983
299.3223621
297.4422243
295.6895758
295.1481964
294.1524962
295.7981729
295.3865358
294.1454578
295.4247079
297.0317383
297.993242
298.2717585
298.1607804
299.5476074
299.0474035
299.6066975
299.5922733
299.5251954
298.5805773
297.9113311
296.5867072
296.4869179
298.4005308
298.774919
298.8949852
299.8779073
298.8300481
298.7385862
298.5470582
298.6494572
298.9357183
297.5677949
298.3436991
299.0584745
299.4859853
300.1019588
298.6622392
296.4661489
296.9533696
296.9272877
297.262737
299.0321583
299.6257201
299.0021154
300.9235894
300.3529784
301.5169338
300.9416957
298.981825
298.9405791
298.25263
298.3045523
298.5069499
298.7686685
299.963701
299.0996416
298.4879547
298.9787492
297.7972823
297.7783964
296.7187438
297.8213929
297.2277977
299.5858311
298.4498494
300.048425
300.039631
300.2331039
301.3053794
299.8317875
299.863552
299.1145571
297.6374181
296.6810611
297.5137083
296.5644796
297.4293288
296.2243639
295.7950261
297.6406605
298.9305539
298.4324287
299.8902145
298.7945437
298.3565161
297.8215826
297.8175333
297.8089086
298.8497864
299.428305
298.2349129
298.6837247
299.4184988
298.1918675
298.6602742
299.0637256
299.7194244
299.2326973
298.894508
298.5919115
298.8099128
301.2307027
302.5779254
301.5719662
302.2050868
301.3871933
300.2099332
299.9227804
299.680014
299.6296224
298.9309841
298.3227587
301.2931845
301.7394508
301.4659847
301.0983382
301.7568578
301.3451315
300.4629098
300.334009
299.4687703
299.1164035
297.5117763
296.0201484
295.844495
295.7994076
296.7512801
296.3745387
297.5915497
297.8166692
299.6203125
300.2038584
296.1481322
296.2690582
298.7171876
298.5806235
298.2633601
297.6265461
297.643209
298.8167072
298.7351542
300.2803271
299.2659056
299.6955503
300.1348847
299.3596066
299.4601906
298.9229014
298.2174134
297.3171254
295.7039106
295.384826
300.9515328
299.9538649
300.0590724
299.5948659
298.9849547
298.7748748
299.3305401
300.8146338
300.5510833
301.1211707
299.8198471
300.4271245
302.3065498
302.6321804
300.6087932
300.3853025
299.1486746
299.0068771
299.8348761
300.7369712
297.8100805
297.9068245
297.8655642
297.010387
295.5661049
295.8295404
296.8929984
297.9529017
297.721208
300.6449287
299.3766209
299.6588382
299.3115007
299.8539904
299.432452
298.4448999
298.4523764
300.3072766
300.2380013
298.9720218
298.0495344
298.5176269
299.4256132
299.9611448
300.5733117
300.7392327
299.0832778
298.7448205
298.2122319
298.8458357
297.9480958
298.2518399
298.4893219
298.1998741
297.7353745
299.5755747
300.1461332
299.0614676
299.8479073
299.3155484
297.2743184
298.3934755
296.551842
298.5823097
298.2384316
299.389011
300.1532387
300.0959314
298.8357754
297.0394
297.1818954
299.3940126
297.4424089
297.2763317
298.3667837
298.0160454
297.3142014
297.0364607
296.4494372
298.3435157
301.9013762
300.6239073
300.2125544
298.0134664
299.0585601
299.2557565
299.3110981
299.4003476
299.2291928
300.8182516
300.2415272
299.3958521
298.4050154
297.6617671
298.6743509
298.4396808
298.9858834
299.5529402
298.9061422
300.8670579
298.2185475
297.3906288
299.0251348
299.6596108
298.6919959
299.7670399
300.5954195
299.3893206
300.0396582
301.1742499
302.1140447
301.1446328
300.539753
300.3312217
302.4416629
300.2274524
299.588096
298.1864799
297.5963687
297.7035766
296.1996007
297.3874023
297.0829624
296.4258718
296.1582632
295.338283
295.6010672
294.9838011
296.0531294
295.5046413
295.4623482
295.3183748
296.2351386
297.0554044
296.7638499
295.5007983
296.2810807
296.5882834
296.5811952
296.524032
298.7464245
296.9173542
296.7125099
297.5529081
296.0592272
296.9896378
296.4395423
296.0380939
294.9002996
294.9677371
295.3827301
296.5379579
296.4007669
296.0560435
296.7940436
298.2527096
297.9472348
298.0142373
298.7228262
298.2121611
299.5888139
299.2509099
298.2327436
298.3277539
300.2009006
300.0762665
298.865886
299.8962007
297.6181165
300.1943582
298.8977064
298.3766003
299.8840116
298.9088851
297.1110667
297.7383625
298.5734228
298.3433229
298.0715884
298.7408016
299.4873444
298.8856618
299.1045633
298.0248335
299.8890873
299.5332928
300.691031
301.3604288
300.6521792
299.0150828
299.956383
300.2688802
301.5908758
301.737733
302.9200606
301.4875645
301.3572797
300.8222527
299.3177499
299.2068243
302.2314571
302.1070741
302.5259141
301.4831349
299.782292
301.0225783
301.1645081
301.7918078
302.4415316
301.6298822
300.6771328
300.3230229
297.7616148
297.4887369
296.5662347
297.5275574
298.6961714
299.5558709
300.4353198
300.7827468
300.00058
300.4711269
299.5777818
300.808796
301.2772979
300.8875901
300.0398174
299.0166655
299.2607548
300.4590164
300.0689057
299.9850668
301.2870569
301.0739555
300.9747477
300.2315616
299.4965112
299.213886
299.5823821
301.1849655
296.9054296
299.4923751
298.7812847
296.9540914
297.0261701
297.205602
297.0662803
299.11784
298.6846469
298.8356969
300.5146834
301.6032508
302.3490361
301.3744469
300.787127
301.2525949
299.479297
299.5934901
298.5602067
297.806216
299.1295377
299.1716209
297.3939486
298.1299563
297.849912
299.6012569
300.2146746
299.9411718
299.7354547
300.6786144
299.3327357
298.7563882
298.67866
301.8581873
301.5936584
301.6263277
301.5731945
300.8414647
300.848945
300.69081
298.0960435
296.8749629
297.0559256
298.3872735
299.4567261
299.0514527
298.7650104
298.066967
297.0958362
297.6628659
297.8794206
298.8230331
297.8744789
296.7038391
297.0236362
298.337694
297.3029195
298.6805522
298.162654
297.2685239
298.9222954
299.7608714
298.4160742
298.268885
297.804152
297.6772903
296.1136089
297.6500684
296.5678297
295.755201
298.1801396
298.6397846
297.8792478
298.120915
298.549381
298.7799189
297.4916292
298.6902307
299.107212
299.3095833
301.6164169
301.8001395
299.406647
299.2201889
298.8811752
299.8357337
300.6282781
299.8123255
299.6058828
300.2930114
300.5707
300.087872
299.8864721
299.6592976
300.6377623
301.0138321
301.6721833
302.5252972
302.524229
302.0631272
300.0272409
300.0751299
299.9805712
300.1755206
301.7093034
301.5958487
300.1859499
299.3030622
298.2906106
297.1435023
298.0013187
297.2914259
297.6177937
297.6005678
297.5397249
297.8061515
298.3462886
300.8865689
300.0345652
299.802072
300.4900644
298.6811081
298.9332575
297.411924
297.186768
296.7864845
297.4328299
298.9864696
298.596507
297.9393389
297.2934276
296.5710617
297.5393541
297.2778911
298.1284052
298.42529
298.977032
299.2047393
299.4311682
299.8877501
296.9456779
297.053855
297.2317605
298.015837
298.1459965
297.7038361
297.6787682
298.8077736
298.8138751
299.2265438
300.1849193
299.1101196
299.1540662
297.0486718
297.4128395
298.7133782
297.8719791
298.2215223
297.6225567
296.1400641
301.0129819
300.9581386
300.1319219
300.2830968
298.3732499
297.3699934
297.5527435
297.6531163
299.4700255
300.2432735
297.998134
298.4963014
299.2826605
301.5458212
300.9229692
299.4245462
299.9333574
299.3340917
299.0996172
300.6866891
297.66599
296.930625
298.5134635
298.7840387
297.9688458
297.9610399
297.5000941
297.9342915
297.8511519
296.669238
298.158393
297.9925735
298.6849172
297.6137282
297.7979967
297.1037558
296.1316533
296.9877675
297.3602593
296.6749989
295.4265122
295.4793803
294.7295635
296.2523117
297.5741776
297.9462801
297.3594636
297.6138735
297.8783974
298.5628403
296.6475115
296.0264349
296.2075456
294.7833941
296.6342787
298.4062055
299.3631291
298.6792678
297.5743156
295.828998
298.6436498
298.8730624
296.9217798
296.5307207
296.254827
294.9230263
294.8904497
293.8058237
294.4641938
295.3957548
296.7600097
296.2008371
297.2388143
297.6091813
296.2586926
296.7500172
295.882797
295.2366772
296.6341683
298.3410963
296.4651132
295.6341761
296.0347259
296.5328366
296.055135
296.6164154
297.1499446
297.5737656
299.8754033
299.6920732
299.6979432
300.2037873
299.8536531
298.1163914
298.7166925
299.1465466
297.9050246
297.5336139
296.8634351
296.4359194
298.2674489
299.2615264
297.4159457
297.8890119
298.046701
299.4879929
298.6915853
298.4785022
298.3723114
301.0411994
302.0403796
300.224507
300.3096456
299.8654295
298.3247093
297.9572394
297.6898621
298.6222716
298.6242705
297.875805
298.5647892
297.8591299
299.3254056
299.8791045
301.2027
301.947335
301.2178658
299.4857728
299.4305954
298.5487299
298.4845808
297.9044183
297.8766338
298.2194437
299.7594447
299.951651
299.6778836
297.1623417
297.1504066
300.1484213
302.4218493
302.2619128
302.9331916
301.8702021
300.8251929
301.6634309
302.7355599
303.4967906
302.8098056
299.886496
298.8877156
299.1229536
299.7731215
300.9272948
300.4518509
299.8903256
301.2414137
300.2833386
300.778969
301.1638883
302.6628223
301.1642771
301.4198172
301.4950562
301.4413147
300.4817548
299.7113816
298.8289131
300.480821
301.1983979
299.5341781
299.7915265
300.4234815
299.0670423
300.2932575
300.0626266
300.514119
302.5566557
303.0826396
302.0456057
300.7117403
301.5864373
302.01615
301.4937397
300.7987217
301.4017204
302.4478732
302.1402199
302.3299245
302.1412557
301.7796845
301.5471393
301.5767269
299.5029744
300.2111653
300.6070655
301.2211404
300.6143481
300.1289338
300.1239654
297.5702932
297.4742756
297.3437752
296.4596432
297.9445606
297.8201898
298.1832819
298.5624952
300.1717323
299.7193018
298.441673
298.4621095
298.7792801
299.5255214
298.8107626
298.3834832
297.3809339
296.7786174
297.2169723
298.2427973
301.6068698
302.7819465
301.7240384
300.0234442
299.6259079
299.1869461
298.8044661
298.1311233
300.4547492
300.8958832
297.9906568
297.9067883
297.8538477
298.7080105
299.088012
299.4684692
300.7367996
302.7617639
301.6924803
301.4769821
300.4585548
297.5154661
299.4912289
299.417313
299.8502627
298.932196
300.8270175
300.903965
301.2883255
300.5965121
300.5378684
300.4659183
301.400851
301.3252342
301.7905268
300.8430866
299.0319783
297.1735726
297.9230585
299.3554218
300.6674222
301.2401354
301.2586726
302.7378266
302.7002598
302.5212548
300.6646357
299.9003354
298.6214186
299.3825272
299.0979553
299.1442733
299.1876385
298.6725265
298.4726658
298.3433896
299.224942
300.0555351
300.7734514
300.7424023
299.2880442
301.0023786
302.0631697
300.6491827
301.2546856
300.4987508
299.6836853
298.7949072
298.4849942
299.0962039
301.4196623
300.7545247
300.0424671
300.4068205
299.6849325
298.8440297
297.6528144
297.173794
296.8487767
298.5187192
295.6733636
294.9756644
295.5334395
295.9093794
296.511205
298.6162038
298.3031473
296.7469312
297.4780556
296.9415027
297.7658346
297.8765808
297.7650982
298.6855975
298.4510255
298.011405
298.8264157
300.5377308
299.0226665
296.784273
299.0696229
298.784389
298.3778587
298.521044
297.7221864
297.5219308
298.0861224
298.6603534
297.1220637
297.111606
297.8890901
297.6445546
298.0760924
297.8238038
298.0686531
298.6121455
298.9845994
297.432374
298.9410315
298.3617938
300.6950777
301.5043237
300.8728637
300.7728406
300.9755063
300.6026157
299.3362517
300.1517022
299.5428438
299.0707993
298.1584145
298.2917856
299.6472898
299.090211
298.0791569
297.7959542
299.0422066
298.32815
299.1189227
299.8197791
297.6877336
298.9327997
299.9385306
300.2244158
299.7168291
299.9840478
300.3163889
299.0216656
298.3068045
297.4560074
299.5801149
301.1611807
299.6036586
300.0960002
298.8106828
300.0450392
299.8360745
299.3924804
298.2923678
298.6522967
299.7797718
299.7230888
300.4469987
299.9609336
300.4733794
300.9548189
301.4374066
302.1488976
301.9796069
301.4587173
298.3111173
298.3648808
298.8410386
298.3358605
300.5237725
300.8005025
299.7526564
300.9653716
301.0167066
300.6203452
299.5256849
300.2873041
299.6179893
299.6915452
297.9187362
297.1873755
298.1565706
298.8652635
298.5348382
297.6464253
298.9209631
298.6546581
298.1632649
299.5848793
298.736913
298.082158
299.3873724
300.0049596
299.6607636
299.3503884
298.5579321
297.8459087
297.9831552
298.4740235
299.3524148
299.6014311
299.7816992
299.8237715
300.7450091
299.7747431
300.0978458
299.7288373
300.124043
299.1291593
300.8530355
302.1798877
301.5556017
300.7916851
301.6090336
300.4287702
300.6466063
301.4783996
299.7009919
298.9395657
297.2667487
297.9772038
298.3246028
298.2457237
299.0781544
299.3066801
300.2214322
300.7105425
302.2652915
302.2940634
300.5758116
301.3161743
300.6285226
300.5371229
300.6567062
300.4197715
299.99918
301.5773847
301.8437759
302.8649882
303.0583217
302.0817668
302.4787658
300.3698083
299.6384673
299.1943017
301.2319075
302.0178073
300.6860851
301.3443676
302.0909206
300.8175216
300.4134279
300.1065998
300.8238525
299.4844954
300.3943354
300.0832822
300.0457656
301.3701376
301.1450965
302.4520963
302.6151728
301.2395658
300.6329303
301.4097431
301.6938582