/*--------------------------------*- C++ -*----------------------------------*\
| =========                 |                                                 |
| \\      /  F ield         | OpenFOAM: The Open Source CFD Toolbox           |
|  \\    /   O peration     | Version:  v1706                                 |
|   \\  /    A nd           | Web:      www.OpenFOAM.com                      |
|    \\/     M anipulation  |                                                 |
\*---------------------------------------------------------------------------*/
FoamFile
{
    version     2.0;
    format      ascii;
    class       volScalarField;
    location    "0.01";
    object      rotationalT_O2;
}
// * * * * * * * * * * * * * * * * * * * * * * * * * * * * * * * * * * * * * //

dimensions      [0 0 0 1 0 0 0];


internalField   nonuniform List<scalar> 
5120
(
301.5236598
299.630553
299.3529712
297.4292889
295.0562963
297.3494073
296.439122
299.5740398
299.828027
297.5930695
297.0808801
299.8351463
301.1610241
301.2368887
298.5641707
297.4392957
301.4744699
303.3455076
302.2521514
302.3237231
294.7556634
294.4501242
294.4028013
294.7647144
295.0902403
291.9160395
293.7702069
293.0459152
295.2197189
295.4637886
293.7846748
292.3033147
294.7515477
297.3339795
301.1548276
300.9394829
299.8860608
301.8408218
300.2856398
299.3302558
299.8471342
299.5229656
295.24968
295.273098
294.0434763
295.3899116
296.7947462
297.1911808
297.6554846
294.8626218
293.2904175
294.0929434
295.5595136
295.2236556
294.2393225
296.094481
296.6792714
299.9915347
299.9042066
299.1346697
298.295866
298.8435004
300.0707995
299.9189662
298.2529335
298.4153957
294.2771817
293.6589785
293.0375541
295.0299874
297.678236
299.9671972
299.7808292
297.4264032
298.7336839
299.3331573
298.2510299
294.1814157
295.4980476
295.7855149
298.1763817
301.0762686
296.32703
296.6578217
300.4698329
299.9684845
299.7834997
301.8622458
305.2337095
303.9977702
302.8140249
299.4797049
298.3188041
299.5346862
299.9416524
299.9994067
298.7006624
296.6817254
299.8927784
297.2375363
297.2244716
296.8076342
297.3923868
297.4534637
295.6634752
297.5138886
301.0225129
297.2056985
300.0955999
300.5133542
295.8170873
299.6908168
300.6098218
301.078182
300.2588396
299.8365738
296.2430975
295.4568301
295.3865368
296.9105807
301.2108162
300.5663799
299.0418319
298.734099
300.7259796
298.084779
296.23927
296.6856548
295.2948214
298.0245759
298.7583226
300.6806898
299.2941497
299.5789401
297.8847183
300.2355244
300.0959285
301.6575578
302.5200264
300.0984738
294.6648829
294.6316021
296.2292248
294.6342674
296.6689515
296.3923952
296.1234264
297.8474522
296.1513456
296.2419266
298.6304008
296.504842
297.9444342
298.1448916
301.2714634
297.9073967
298.2461121
297.4403906
297.0678033
297.8343086
301.2800182
301.8343832
302.1197902
301.4737122
300.3448879
299.7406846
299.3197456
298.3788949
299.4064175
297.6144029
294.7394846
294.2712718
292.468463
294.5125288
293.0675134
296.8515876
302.3799459
302.5314321
302.2161518
301.1781647
303.8630227
302.6674221
301.7600918
303.1286997
304.2571743
302.3354713
303.0644893
300.2920016
298.433919
297.5555774
298.2680608
300.3994812
301.8549901
300.7812713
303.8319859
301.9999205
301.1973771
300.8578288
300.6039336
301.5289337
300.6947769
301.6837324
298.6617934
296.3414666
297.7325539
295.7322407
300.2085127
297.7398926
299.550789
296.9846489
295.4462311
295.810371
297.0359049
299.2636576
296.0934311
297.6896038
297.0029722
297.4957834
297.5346271
297.7060821
299.6724492
300.656421
299.8958348
299.2555009
298.4868674
296.7667066
295.0572133
296.6464085
296.8805818
299.1935001
297.1107841
297.7986084
295.8175815
297.0598718
297.9160562
298.9554759
295.305859
295.9674278
296.9743775
302.4377108
301.5984624
300.4522032
301.2175664
298.2994421
297.1125407
299.7775705
301.5547498
294.7412329
292.6643585
293.7577159
292.8292045
291.4579538
294.6608185
295.565523
299.3077338
299.2214585
301.5515862
298.9087424
300.8241443
300.286073
299.6847801
298.8405531
299.2816487
299.7295929
299.7842441
296.641454
295.9936876
295.7839814
297.5160323
294.1713803
294.1245422
295.5988932
295.301911
292.7447418
293.9163319
293.8058181
295.4404103
297.4473631
299.2985427
299.1216089
299.2120125
300.4455777
299.9068101
300.923579
297.0853826
298.9501353
296.5992664
296.7028196
297.0829571
298.9201687
298.9044434
297.523524
298.4827016
298.7305739
298.2316496
298.2283494
300.0304296
299.9486503
299.2968514
297.3476698
301.6983464
302.2459247
301.4150971
302.3242377
299.8419149
299.1867188
300.2298804
298.6610593
300.2784321
300.2135539
301.0911496
299.2576761
297.3140124
295.6962097
298.3808385
299.9531457
298.8659957
298.1177352
299.9477229
300.4210662
303.439723
299.2850058
297.7060878
298.7555854
301.2009363
300.7900099
301.7994823
301.5638943
298.7643021
300.7982247
298.9216091
296.361533
298.3364638
299.0974585
302.2155571
304.4727369
301.516363
301.6905088
301.3449673
301.8187257
303.5980942
302.4743685
303.534117
302.8716707
299.8150172
301.1051278
300.817325
300.2538071
297.2414907
298.6824557
301.694618
301.5198025
301.9304889
300.0581106
298.8939583
299.2377944
300.3580231
299.6104995
297.616074
299.7669706
294.1843285
295.0614788
298.7864332
299.3410895
301.4980693
300.0219085
297.9836473
299.9978921
301.5764866
300.4374433
303.3270132
303.6133088
300.1752279
302.240426
300.3100711
300.2645116
297.2221919
297.7760998
300.162097
296.5134889
299.8454473
300.3653049
299.2874327
300.1137085
298.6364804
300.2979323
302.6027909
304.1036324
302.9952815
305.0083684
300.3720851
300.1299207
301.3392152
301.5050249
299.8839765
299.3281711
300.9117295
301.3349201
301.7976694
300.1034261
296.7741932
298.1274848
297.8499115
300.3952626
297.3223297
296.3231471
297.5737526
299.4101455
298.9930267
297.7820605
299.3768571
300.3655695
299.2510518
299.011634
297.9175063
297.0504726
299.4999174
301.0728281
296.7062769
297.2571923
302.1057328
302.6520894
303.0262436
301.0684917
300.9423171
298.6567049
293.5548885
294.7945514
296.2388561
297.3056788
296.4512251
296.5267262
296.5748601
298.4868602
297.1248493
297.5465757
297.6388281
298.6825484
299.3983304
301.9170892
301.2948786
298.8719744
299.39545
296.7245398
295.886911
298.2429793
300.2092286
302.5738391
300.7047767
299.3319659
300.8504201
300.5492464
299.756316
297.551912
297.5144584
300.370015
301.8043838
302.4185118
302.0858383
301.6866076
300.1377081
301.3189283
299.4196274
299.0948972
299.2757312
299.6401753
298.0181289
296.8607003
296.1789086
299.3839625
297.94718
299.4537365
299.2284641
301.3413619
298.7122327
297.7182123
297.8552347
297.808842
296.3408304
295.8576818
300.1641478
298.650225
298.1900016
301.0524428
302.0267215
303.1249911
300.1752888
300.4733959
299.1798974
300.5319112
300.5321
300.4166985
298.8320864
299.7604609
299.827264
298.6917646
293.9000483
294.4147317
297.5447281
300.0031827
300.3058186
300.9225085
300.5242685
298.0812608
296.3211576
299.1772033
299.1445023
298.9438943
300.0970052
300.9952301
303.9360462
301.9837936
300.9517938
302.999544
303.8892128
300.307318
302.0821125
302.5922389
303.7391543
302.5166297
297.3877007
298.7067406
298.0637116
300.4601791
298.2531751
296.0563553
293.5158956
296.146255
298.4487281
299.1919062
298.7340045
299.868874
300.3316247
300.0026836
302.4011804
303.2951695
308.7508345
305.0069466
299.991496
297.9009947
299.3894272
296.9588315
295.5288431
296.2835058
295.3474285
294.7438099
297.6961264
295.7497179
296.7808081
296.7210331
299.7787433
303.4094803
300.3924851
299.4418595
299.4330646
297.6050381
297.8983309
299.6749751
300.7604694
300.4633122
299.1207902
299.5901425
297.9192467
294.8681183
295.3421372
297.4810936
298.2697686
302.3117972
301.2678599
298.6493812
298.7416968
301.7187461
300.8993939
300.1973947
298.2104221
298.3103435
298.1514885
302.8817329
302.5669192
301.334604
298.6103617
297.4031005
297.1977423
299.0006305
301.3437089
300.7547919
298.0004781
296.708585
296.3563717
299.231768
298.7119278
295.6552226
292.8113808
291.5814445
294.1774168
295.7451728
294.1643965
292.8936062
293.9633026
296.0401939
301.4244995
302.0305279
302.3974592
299.1632777
297.9847437
296.6670291
295.4256159
296.9202381
298.1224893
296.7770963
294.9297573
296.1138856
297.0667176
298.1183662
297.8591034
296.2207645
296.2139789
294.6060257
297.7679685
299.0131256
295.933422
297.1211143
296.2124916
298.523546
298.7008175
297.737939
300.092349
299.4314051
301.399196
299.9831269
301.0899758
297.3811507
297.5608152
296.0441587
298.5717025
300.4616248
302.1325259
302.0850642
300.1389734
298.4993063
302.637506
300.8354743
299.573304
300.6415564
300.6788611
303.1325052
303.3478745
301.0213049
298.7024809
295.11461
294.2694944
296.8581309
298.140757
300.2242482
301.4764224
300.0064594
300.5219266
299.9032451
301.169507
302.9287911
300.3325587
301.219867
301.6542721
300.5633726
295.8212459
296.9436287
296.8236593
297.7016411
300.3260026
298.9397441
298.032288
295.373343
292.6275064
295.7158324
294.5003745
296.0427753
298.7053667
300.6331727
301.8990328
302.6501258
297.0862375
299.1941146
296.5336977
298.4030079
299.6533069
300.2469794
299.5399005
296.9730441
295.5675869
297.9118759
298.3088907
300.1786339
302.0738082
302.3211712
300.6136885
300.746186
304.0392693
300.4020432
294.7559791
296.8980313
303.3803972
302.8039906
301.1959654
297.1656107
297.819285
298.7846768
300.3925087
299.9978755
302.824726
301.1905044
300.5677552
301.1880723
301.0574042
299.4869531
301.2701522
303.1807945
301.1543562
300.010161
299.4448402
303.7379403
300.2000261
300.0734461
302.316092
302.1829799
302.7740939
304.194306
305.1952699
303.740852
301.1872732
300.8267833
302.4236082
303.7107905
305.165346
303.0306167
301.6430407
299.3587383
296.2120278
297.6650466
299.8866645
298.0834377
298.7907362
297.766609
299.1434598
298.2551245
301.9258962
302.1356893
303.5024004
302.625797
301.9636838
304.6348495
303.9141474
302.3953293
299.9353109
298.1850705
300.3473156
299.1813653
301.271545
300.5362576
300.288677
300.3247534
292.7446528
293.5441118
294.4758291
297.9078208
298.2110962
297.0892477
297.0465511
295.0902988
295.0255034
296.0745622
295.4642846
291.4293638
293.2120348
296.8043846
296.4258572
295.9075813
296.4484266
294.3087451
294.6546573
295.348349
294.8691694
293.2932978
294.1269849
294.0885329
293.7450308
295.7500644
298.434359
301.6664045
300.9781644
298.7123466
301.0040852
301.5969617
299.6729779
298.0123904
298.526657
298.1471989
299.6927832
299.6336261
295.2631371
293.4918372
300.0029629
301.9644246
300.6900061
301.2833852
301.4962114
301.709275
297.5721301
297.3202773
299.297869
298.5290962
298.5980489
298.8055042
297.851244
296.4997154
297.9708811
296.2772465
295.897571
296.1866536
297.2736283
297.1850751
301.4599233
302.0421537
305.5407336
307.4111869
305.3278682
303.1217498
303.0040687
300.5849402
298.5438642
297.2270864
298.2282064
300.0968864
302.6776233
304.9895083
304.1769427
302.4803562
301.5681486
302.6823024
302.1526555
301.5430388
299.9044208
298.8459927
299.9970875
302.0870623
303.9600378
304.0221143
305.4804298
306.2175106
307.644633
304.3158266
302.7717154
299.8333856
301.8881419
303.1979913
301.3049356
298.9372873
296.8202703
299.6313452
301.8363631
299.8567857
298.1813439
300.7737312
299.9722294
297.8789691
299.7157528
302.2390408
302.2475156
303.4840869
303.0162213
303.5448937
304.8914946
303.3806075
302.8945068
302.6476091
301.3155485
300.8012161
298.1107363
298.8070769
299.0642945
298.2192713
298.6241512
298.1520961
298.8577553
298.6280847
300.9376441
298.2096961
297.8182094
299.8204706
299.336142
299.4176043
298.143541
297.5782073
302.1523096
302.3333573
307.6095596
305.2548355
303.6606981
300.2026957
298.4871782
297.8679107
299.8627019
297.9229765
298.3319726
296.8071112
295.5450979
295.1408742
295.1756084
298.6805654
299.6294843
300.9892281
300.0836067
299.088319
300.7557513
301.6086108
297.5698547
296.8895835
298.5786793
302.0846297
302.6057491
301.4941926
296.6425561
295.8198671
296.5186315
299.1619764
299.2421767
298.6426118
300.0411977
295.6603103
296.4253797
299.4604797
299.5235722
298.3400954
300.2265782
298.138561
296.6911927
298.6994075
299.2524864
298.4459367
297.4897315
296.3019558
288.4388935
291.4512629
296.6604345
296.3080887
298.323582
301.9205091
302.3471047
304.2099415
306.007604
306.5150972
304.1807224
305.7467353
305.2636305
303.5136444
301.5113033
300.0053633
295.7006723
293.3730124
290.505316
288.7393129
296.5612542
294.4160814
297.3315717
294.8700889
295.7334369
296.3749316
293.3213506
293.6745685
290.6507036
293.8210507
292.5191184
294.8760841
294.2561395
295.1094202
297.9394617
299.1785977
297.8280906
297.0167045
298.5740804
296.0448741
295.9649604
296.7505764
296.4804951
297.8017722
298.3530142
299.521341
298.0992673
298.390404
301.1173061
302.0944224
301.0832633
302.5803944
299.4822425
299.6684324
297.1419458
293.8164609
291.4073192
294.7769091
293.9507659
295.0179832
298.1301258
298.8989686
300.2906976
299.8114451
301.1335069
301.3944084
306.2005443
305.4312182
305.0459607
302.8461755
301.5043586
300.804054
301.7770666
300.9481005
299.6184069
300.6737284
304.020834
305.5039001
304.8738936
301.0692159
299.9225314
297.6677713
299.3890431
299.9267454
300.4895974
300.2173218
298.1981207
297.2912493
298.6885697
302.9188353
301.6247934
300.0934503
298.8251789
298.8296073
298.6973938
297.1361387
297.4034659
297.866296
300.0542805
300.0567325
297.3171894
298.6330081
297.9513767
297.7493181
295.3028294
295.3329848
296.2630381
299.1489977
296.4834881
298.5697361
298.9169539
296.3481642
296.9239645
299.4086374
299.4769146
301.0242859
301.3995786
297.8365859
296.8938189
296.6183312
296.0573132
296.7413713
296.3972976
299.4160395
297.138287
294.9644416
295.7573269
297.4036962
296.32639
295.0902663
294.1955836
294.6295223
292.7403471
296.6442278
294.9684292
295.5416625
295.2898859
295.851006
300.0406032
295.6923933
297.6771568
297.9718336
295.4791697
294.2242817
294.7243467
294.682966
294.3698868
296.1476421
295.3661002
297.8386299
296.3717015
297.8421059
298.9640456
297.2501962
296.1631952
295.2990311
297.5948021
298.1612681
296.9355822
297.6979552
295.655313
295.5611232
296.2147695
296.0938216
296.8517104
296.2395591
294.6479491
295.6158759
298.3272987
298.3071232
296.2413197
294.9354687
296.2190961
295.4550863
297.1907971
296.0600427
294.8741555
295.5477477
298.0084954
297.4894327
301.2465306
297.6022859
298.3265493
298.3679204
297.719785
298.3700277
300.7023865
300.6240385
301.2099397
300.252686
301.0177412
299.0479712
299.0085383
298.519563
298.2132583
298.2601378
301.0060676
299.0709928
299.2683004
298.9027376
298.7009102
299.5735525
299.0948657
300.8058623
301.682931
302.068338
299.1889194
300.5642753
300.9983384
298.754504
299.6533936
301.7303489
298.7815639
301.4553673
301.1060305
305.3319915
301.9621449
300.32607
300.926071
301.0632664
296.5312894
297.5465602
295.3684589
293.4013644
294.445549
295.5535866
296.872654
297.8386423
296.0323246
298.5201011
299.2393931
301.9998748
301.6246316
299.8554708
297.8531232
298.3250893
298.0936661
296.48151
295.4342715
296.7183303
298.4458422
298.5426827
302.0002414
301.4976625
301.988581
302.0961096
300.895562
300.569553
299.4190474
297.201662
296.0235799
294.1395427
294.4913206
297.4776844
296.9385195
295.569715
296.1814422
295.3260394
299.239895
300.1910409
297.9266237
300.8213205
299.0138424
298.0833705
299.1015253
299.0730528
298.5707216
296.2539895
294.9304207
296.8363448
300.0246521
301.9438589
302.8607522
299.6168405
296.4090536
298.7551557
301.4301187
299.5256189
299.8717102
296.4998713
296.367437
297.1563429
298.8374456
297.1474318
299.6232463
297.5201891
299.4526621
297.2121167
294.8574609
293.9270666
292.6474628
295.0142087
293.0893753
295.7732094
296.820893
298.0035576
296.1102391
294.9080248
295.8410656
296.7855171
297.9943909
296.0302583
295.060283
294.4062437
295.0061814
294.0284539
294.8140557
297.9238539
298.9872709
296.092717
297.9906432
295.6583926
297.7191138
298.8651063
300.6905394
301.4969145
298.7979079
298.0866942
297.0525317
296.7746301
299.3098398
299.6859841
296.0175268
298.3291883
295.3776744
295.6253574
296.2037805
298.0786531
299.0090053
301.3089542
303.5709892
302.7498026
302.1276667
301.8777184
300.1302804
299.362149
300.2556061
300.315145
298.3181206
300.6916764
298.1166105
298.436791
300.3302909
301.3426027
301.6167508
299.4496547
298.4391004
296.7473833
296.8779412
296.3201292
293.7007974
293.7389496
293.6461061
294.5916828
295.8883252
291.2903259
292.9987084
294.3350141
295.2523399
297.557731
299.9722843
299.701416
297.3058546
298.9102119
296.3130957
297.2913866
300.6117771
303.2014601
303.9920023
301.5971752
301.2195074
300.4896452
301.682471
299.0878915
297.596662
300.1970506
302.2961325
299.7191282
299.8641805
300.4726445
302.3279951
301.068285
296.4826069
298.3742124
299.5496538
301.3716988
298.7883556
297.7583257
298.8341089
301.4464137
301.0873194
301.4221942
302.1748536
301.6619654
299.2182881
296.6273426
298.0784534
297.187429
298.526332
300.1080629
297.8324314
300.3391316
302.1110806
301.5557629
299.1241342
296.6037289
297.3544875
300.9251031
300.5447263
299.6543374
300.7564534
301.4192126
301.6727488
300.6310818
302.6621806
304.2842292
304.8860103
302.4485383
302.6406534
300.4726331
295.8944887
295.774274
297.0664261
299.6168287
297.4564679
295.8298178
296.1088931
293.8789416
293.5998617
293.7038089
294.035588
295.5888894
296.3645838
295.3681123
294.6864123
293.8793411
291.4570047
294.4305615
297.9509605
296.5468794
300.8378947
299.1446447
299.7037746
298.9745746
300.2198841
299.8739886
298.8373846
299.0595014
301.4026418
299.3876233
299.9377733
298.2584202
296.0006055
297.1941867
297.5787067
297.6769826
299.4654281
299.0377334
300.0954199
299.7247013
295.8217312
298.5351801
297.8635705
300.1722101
298.4532176
294.9172186
293.4073474
292.735171
292.0590706
292.7708748
295.8179897
295.6871875
296.9756703
296.6996195
297.2163841
296.7577383
294.2542276
293.7303859
294.7336207
294.811673
298.1619775
296.2409971
300.48991
299.008552
299.1450055
302.1472929
303.6596169
303.3825564
302.250538
301.2085838
299.9075982
299.9414659
295.0862569
296.1887985
296.2098435
296.8025446
296.8761775
297.446601
298.2003427
298.4432108
303.2307377
306.1548448
307.8046691
304.0267471
303.7500325
301.2509335
299.3793558
298.0106369
299.3207739
297.3070513
299.2292676
299.0447279
300.5991794
297.9302788
297.3673443
299.0328806
300.2318696
300.4040395
297.4053124
300.2332727
304.5322896
302.8756477
300.4336705
297.4632807
297.9809361
298.4086736
300.9996682
300.6555793
299.2755756
299.5577908
298.4150066
297.7052336
300.4503271
299.389647
300.3005118
301.5046137
301.1057954
301.8658099
302.5150432
303.5352717
295.3362318
294.3716624
295.6824001
296.8561362
296.8033851
299.8552054
298.5255523
299.6315954
298.9989531
300.3415104
301.5312688
302.7154018
301.6461606
300.9469821
300.4362255
300.4707917
299.8885946
300.8345141
301.6827513
298.1154996
295.2401301
296.9331656
295.835526
298.2403888
296.4509772
297.2673025
296.8488729
298.5244019
300.5161029
298.6675
297.7390163
292.8916789
290.2408271
291.7619219
293.9541622
292.3163265
292.8139031
292.9181976
292.7791479
294.4898223
298.7998543
300.4455647
299.9041599
297.6558036
299.0356664
297.2914131
297.3809312
294.8304999
296.6500007
298.0108788
297.9815329
297.0233661
298.0823683
299.7534629
300.6201739
297.7644926
294.3077199
293.3004022
295.3661102
296.8740258
298.7709692
296.7163389
295.1536861
296.2947442
296.5476201
298.206717
297.4536028
297.430773
296.1416366
295.771157
294.6763389
295.360259
294.7927661
294.0326896
292.5281638
293.1754048
297.1541757
301.2606746
300.0509319
298.5485543
302.7396992
304.4475251
304.3049868
301.9897428
301.6356629
298.2342426
299.6862347
300.0763852
296.4374132
295.9777042
297.4903313
297.3104595
297.6151398
298.8559852
299.2467039
296.6189588
296.3226641
297.101509
298.8296691
300.321684
301.8811375
300.9235421
303.734557
305.027014
304.5557263
307.7035397
306.00886
302.5092813
300.9025585
301.3385813
301.6226944
302.777119
302.2008425
299.7733622
300.8700348
301.9840078
302.5715709
301.6773969
299.2178656
300.8373601
296.9669909
297.878865
298.3019074
296.433685
296.5790758
295.9397604
297.8431237
296.337509
295.2974037
296.3549967
295.5758196
296.2856831
297.5599779
298.1935086
298.3010565
297.2922511
296.6063334
295.7014448
296.2256196
298.6033268
297.3450028
297.7742893
298.4919326
297.279302
295.7742595
295.0393887
294.1173478
295.9941
296.2016952
296.211001
297.2573169
298.9314688
297.1630961
296.4971394
299.2164391
299.5822697
301.4833853
301.3750189
299.5941034
297.0405321
297.3785742
297.7851018
297.899252
298.1410243
298.1011333
299.9784794
298.4177587
297.280091
295.9853109
296.6125171
297.0884539
299.3697369
300.3313007
300.400454
298.7372014
298.1560885
298.6949511
297.5965618
295.2632186
294.7168794
297.0597505
296.2656147
298.8998759
293.8692559
295.4171456
294.9644351
297.3556421
297.3619531
299.7018484
300.8591109
299.2081914
299.726556
300.1954332
302.0881449
300.8809518
302.1638467
298.6326517
300.8567894
299.0418289
296.8050422
300.6406598
299.0160944
296.2577229
296.0611011
298.1039067
298.7796067
298.1355316
294.3904783
295.9324918
295.0164926
295.3485883
298.3318028
297.8373479
299.0472432
299.0633452
297.0390828
299.095164
300.0901059
297.9568155
298.5140202
298.3979426
299.3279684
298.3423611
295.0879574
293.5609791
294.7843655
297.4956628
298.828813
299.8631474
298.8238983
296.9720791
296.6849515
297.2293937
297.5939237
298.8703999
298.633083
299.5229431
299.5996823
302.1991353
302.0316037
302.0648872
300.7512328
298.1300393
297.2375027
296.5384482
297.6905989
298.4293216
295.4891321
297.6397433
297.8077689
296.5187704
298.6118576
299.0751945
298.2135712
296.4289774
297.2339659
295.91724
295.2630122
297.8371053
298.4942059
294.5087667
298.1591018
299.3644225
300.0012929
299.7419742
300.9462083
302.4216627
298.6525494
298.4684145
296.7837952
298.3714041
297.7749666
299.7627004
301.8332388
303.142121
305.1089769
305.3673027
301.5107214
298.48795
295.0315628
299.6942231
299.4119504
299.2543515
299.0586849
300.298791
299.7753597
297.6443873
295.0051512
293.5830248
295.5229444
296.9280853
298.7494883
298.0967924
298.2715433
295.1074812
296.4771141
298.3995022
298.1910755
297.5146745
297.9742427
298.8105895
296.831529
297.2200019
298.8715593
296.6648181
299.2817486
299.432956
298.5601537
302.2803866
303.2148179
301.2184684
299.562414
298.2832513
298.8143366
299.3582934
299.7611042
298.454854
298.1776087
298.8431542
299.3720862
297.8340884
298.7541173
302.4966206
303.036789
301.0017698
300.4937037
300.558469
299.3704818
298.4395592
299.8996116
303.5025427
303.7392244
303.6120069
304.7521429
300.9707181
300.0776687
303.0336443
300.2400494
301.4467768
298.8318767
300.1055388
299.0588751
299.3257909
298.3175424
298.5980742
296.6489843
297.0266112
296.8092985
300.0409814
296.5825311
294.3990242
296.7542091
296.5640742
296.3789819
297.791295
298.9032859
299.6641213
300.2201008
299.9228341
299.9650466
298.9534002
298.5868087
300.3828771
299.7962437
298.9520579
298.0625565
296.2058462
298.4268323
295.9612803
295.506195
295.6041927
295.8915591
298.1622547
294.4662933
295.2673827
297.1234527
299.0200878
300.8039381
300.1981374
299.4502628
294.250473
293.3292666
292.2943428
291.5499815
292.7790081
295.1408913
295.5253254
294.6603282
297.6824824
295.5093448
294.7893498
296.0528408
296.4584254
296.2393821
298.7158676
297.8436337
298.5455573
294.840454
293.4292066
293.9677968
297.1225648
296.4396843
295.8901014
293.2006035
292.1203619
293.758233
296.0485857
295.5694567
297.5279936
296.9404915
296.9355741
297.8427464
297.031073
298.0819105
299.1821784
296.8339676
299.4990394
298.5523518
297.9336186
298.9243064
304.5177963
306.8156962
305.8852571
306.318057
305.2711625
303.4254055
298.5883576
298.3027028
297.2478939
298.6550635
297.5415766
295.9419563
294.4769204
297.3713781
295.1612699
297.2903567
301.1367851
303.410313
301.3006193
303.127317
299.8744581
300.2662228
298.5240625
298.2462746
299.0987447
297.1407436
298.9235962
298.5600693
297.6890694
297.1803586
294.5761119
294.5493699
295.9040644
298.0233579
298.8631929
299.2844664
299.4205812
303.2946643
300.4620611
297.9941093
298.6045781
296.9144259
297.448628
299.4913685
295.9450484
295.5464408
294.0501877
295.5427637
297.003589
296.8384617
298.5151296
300.7387814
302.1887317
301.0904889
298.7538398
298.8371601
300.7078149
299.4323185
299.2170802
297.1506086
294.9148665
294.4679161
294.9457838
295.6082262
295.6280714
295.7008792
295.4139288
299.0166304
299.8245591
301.3623911
300.0152373
297.9180775
297.0034617
298.2117
300.5001378
300.2233425
295.7019631
295.6164268
296.664017
297.5801824
298.0110124
297.3765381
296.1616076
297.7342527
297.7182633
300.4180654
301.7710012
301.9434816
299.8538664
298.4941623
297.735148
297.6550701
296.8041117
298.8336908
298.4250139
297.0486262
297.5054029
295.9238297
296.5376093
298.5567791
296.0735345
295.9726659
299.9323834
299.9685159
296.5157608
296.6526639
294.3006508
296.7200595
295.0466501
296.1060745
295.7623299
294.6231223
294.4721567
293.8512278
292.3590538
295.4291256
296.5973248
294.8090222
297.1111676
297.9780604
293.3549583
293.9073643
295.4471614
296.8571349
295.8369432
294.1237647
295.502417
295.9318062
294.0736977
293.2581788
292.2992592
291.2858221
292.5876686
293.896876
294.4111546
297.633847
298.8950402
296.5672343
294.0458258
293.3151433
299.8191996
295.8714128
294.9980892
292.9665722
292.4506554
295.0399856
295.9119914
298.0230583
300.6608841
301.9626083
301.8746859
300.0676456
298.0145223
295.433704
296.0084845
293.5960836
297.1756892
301.5915691
300.1214681
301.4659539
298.6535292
298.6434617
300.3249029
299.3868414
301.8814832
302.1957305
300.8596452
302.46678
300.8099638
304.2010115
303.2681105
307.5122959
305.3415771
302.4766983
297.6497089
299.8660357
297.5091123
299.352437
300.3988515
298.1651832
300.3329824
300.1442856
299.104564
298.0893269
297.5442004
295.5471604
297.8932623
298.5662518
300.3659183
299.5616216
297.7247896
297.6509594
299.2237543
301.4246596
301.4093227
299.3266365
299.6313558
299.1837133
299.065654
300.8787192
300.8979093
297.6795968
295.7320473
294.1772622
295.4535269
297.642758
297.875731
299.1180469
297.8039004
294.642172
297.4488761
297.3174213
296.9797544
296.1263071
298.229923
298.8375825
297.0479162
298.3228664
301.3158146
302.9652516
295.7805086
298.9400289
298.5041486
299.3486698
297.6161482
298.2300494
298.0234289
295.9591326
295.7048855
295.9238046
293.6183433
295.4506499
295.5734146
294.0381165
297.2276482
298.332877
299.1627405
300.446853
300.5857497
297.9895222
300.2276123
298.9470706
297.0841637
296.9887466
295.6693473
296.062191
296.9944317
297.9768652
298.8857637
298.4152677
297.2988185
300.4608416
295.6663134
294.4451451
295.087714
297.1644611
298.6088261
297.3317035
299.0827151
297.5882713
291.8267786
292.7197778
291.9132733
293.0710058
294.0715481
294.5757199
298.6502952
296.1262665
299.4716456
296.2269549
299.5798567
299.2363759
299.9569568
300.5799915
299.736981
299.7382074
298.7734236
297.5508078
297.2187135
295.617495
294.5128971
295.696563
296.2158469
297.7098995
299.894035
298.4639701
297.4356655
297.6997679
295.3340223
297.6249102
298.2564342
296.9140462
295.6200611
297.1757154
295.2869057
296.0379392
296.5308611
295.6479034
297.5178246
299.0077658
295.0921641
295.2002586
296.486521
297.472741
295.6737771
300.4747639
300.5403608
298.655706
296.2204368
294.9644246
295.7550746
293.0247522
295.1983229
296.5504412
295.6381545
294.5395167
292.2937675
292.9193844
293.161108
291.4867205
298.0725551
296.4703184
295.0222876
294.5835624
294.5217382
291.9334956
293.1826903
295.3217392
295.6639639
297.9877567
299.6056269
297.5658083
297.4038632
294.4045981
297.8121933
294.9093001
293.6720743
295.6189015
298.5607383
298.6165061
291.5236845
292.8726119
294.1280507
295.5527093
297.4511885
298.6565289
299.8690201
297.4770716
295.1201518
296.4537427
297.1567382
298.3342402
298.8656613
293.8125636
291.7454074
291.7384746
290.5957062
292.1210273
293.4456979
292.2127185
298.3799883
294.0382003
294.2740945
294.3235756
296.9574451
297.7539961
295.8343433
296.7817625
298.0605523
298.1886342
299.2093843
298.121931
297.6860015
297.2247879
299.3959453
299.0914988
298.0084355
296.614359
297.37025
299.3728697
302.6265084
301.7640252
302.2839526
298.8489892
297.7313613
299.2316673
299.2922696
299.0107068
299.5146777
299.1355088
299.014929
297.7095322
298.0877671
297.4234681
295.5600303
296.6610039
300.104591
298.6508301
299.3573961
298.014657
294.6918074
294.2423154
295.6996523
299.8268412
298.6144969
296.7767002
298.9462185
298.8210166
298.6085071
299.6635811
298.5560807
298.8646721
298.6820513
296.4432784
297.8977113
296.9671639
298.3101625
295.7155377
296.7674439
296.5541629
295.9725326
298.8126376
297.3809494
293.6744749
295.291865
298.2075632
297.413334
299.0901897
297.1421287
298.5018123
300.2575718
299.667925
299.3032112
298.3395458
299.9413445
298.5134495
296.0386927
294.4664611
295.1249061
294.6025553
297.1192981
296.4158232
297.7805819
300.0141753
299.9186448
298.0924227
292.3105272
292.137297
292.5507046
294.1232536
293.5425784
296.1000007
293.7066356
295.0827673
295.0948412
295.5346494
295.7904293
299.2855484
297.8103199
297.6917017
302.083085
301.8608546
300.0603986
300.7186886
301.6544141
299.7042331
299.4823375
297.6735342
298.3120546
298.3168835
296.1394229
298.2613702
295.9073602
297.6234294
297.3968769
299.9468287
299.5145226
299.2372432
297.8803818
301.206897
294.5337102
293.1299204
296.4201893
299.4315883
299.1595453
300.4962011
300.7941138
299.8025248
299.4922374
300.0453231
301.6999846
302.0014208
300.1584109
301.6365274
302.2094657
302.3133275
299.6003336
297.0208192
297.8899751
295.2681112
297.2815847
299.1725318
300.9025028
298.0862982
300.7938789
299.379675
296.6723372
296.9033424
298.7585447
298.1236594
298.6361967
296.5218085
295.7927797
297.6338138
299.7325242
299.2412592
300.1011999
300.6185113
297.6772594
297.3665202
297.5444714
299.0268835
298.1226799
298.9917483
296.7614504
294.4848136
297.5992454
298.183156
296.6075768
294.7958887
293.6015331
296.8817897
298.1040084
299.1078541
298.5323518
299.4730228
299.2494557
301.5349761
303.371977
301.600156
295.3888771
294.4766575
298.0901225
301.6790175
302.4334481
302.3290771
299.0508733
297.5195822