/*--------------------------------*- C++ -*----------------------------------*\
| =========                 |                                                 |
| \\      /  F ield         | OpenFOAM: The Open Source CFD Toolbox           |
|  \\    /   O peration     | Version:  v1706                                 |
|   \\  /    A nd           | Web:      www.OpenFOAM.com                      |
|    \\/     M anipulation  |                                                 |
\*---------------------------------------------------------------------------*/
FoamFile
{
    version     2.0;
    format      ascii;
    class       volScalarField;
    location    "0.01";
    object      translationalT_O2;
}
// * * * * * * * * * * * * * * * * * * * * * * * * * * * * * * * * * * * * * //

dimensions      [0 0 0 1 0 0 0];


internalField   nonuniform List<scalar> 
5120
(
300.3025812
299.6259592
298.9173997
297.5765711
300.7087355
299.8067094
301.6413499
299.0459589
297.0846586
295.6080756
295.9517867
298.0167987
295.2970409
295.3821918
295.1080549
297.0917548
297.4479639
296.8275171
299.8221567
302.6768641
299.5967679
298.2364105
300.0793598
297.9543346
296.038416
296.6048661
297.180982
293.9225399
296.9157
298.5694172
296.4398777
297.4851807
298.6466812
300.1295459
299.4638107
296.2112126
300.5065453
300.5746144
297.7606189
297.7358405
299.6503518
299.3427844
298.1562153
299.9643979
301.0026853
299.1387728
299.2065264
300.0586852
300.7176522
297.7228804
300.8754527
301.8834949
301.594462
299.7507115
300.2024779
302.312643
302.3937573
301.0899426
300.7768977
299.5392207
303.957717
302.2803737
300.8793485
297.4419543
297.8697079
298.6377603
299.5345679
299.0542662
299.3523213
299.6892232
295.4048759
295.9071942
294.9228908
297.5821963
299.6620261
301.8644558
301.8555313
301.1455892
302.8810899
304.3262564
297.2135291
293.8397057
295.8127448
295.8800795
294.5794529
296.0531422
296.5672132
296.703452
299.412906
300.779915
300.4676006
297.9250966
297.4388815
297.638253
297.8142407
297.0347186
299.9221479
298.1076463
297.4626902
297.0020983
301.1533071
298.4383165
297.0636231
298.9632119
297.4111547
296.4694558
294.9492636
297.9829169
299.432957
299.6376234
301.6864378
299.6677729
297.0399606
297.0750913
296.1481721
297.7555883
299.19698
297.7341938
298.3453232
301.4015822
300.7300675
301.163539
300.5138753
301.0241752
298.0101739
299.7223193
299.9495528
300.2350177
302.2497328
301.6596974
298.8492643
296.7353296
297.3572043
297.7428898
298.055671
298.4379944
297.7892008
299.0477474
298.3773183
300.6255083
298.4095968
297.9963199
299.489229
301.8195023
300.5136528
298.3085661
299.4217413
299.1139313
297.9664467
293.4409239
296.7236481
295.459543
295.1747629
295.9125546
300.630301
300.8816474
299.8696402
301.2382481
305.3507969
300.2693625
300.1479189
299.0597244
297.641529
297.1055769
296.7461648
298.9416829
301.3152235
300.4240485
299.1279162
299.9104741
297.6348702
299.5677978
299.2475609
302.5561198
300.4753572
296.593055
298.1323836
299.0363294
298.3704205
299.6309752
298.4937214
296.6327052
297.9240956
298.6388857
300.2647032
300.9756069
298.2058323
297.0971739
297.7226337
295.243364
294.6832923
297.145969
299.3910977
296.9982363
295.7007907
293.4839697
294.4562723
298.2376553
300.0950184
300.485802
297.444806
295.5754465
296.9045163
296.1286463
294.7873325
295.3737988
297.8503069
299.7909306
298.7379246
300.6586665
301.9149618
297.3805785
296.8586842
297.1569978
298.4901439
298.1846037
298.9541809
295.7108589
297.370058
301.0022537
294.3513645
297.9264343
296.8650033
298.2507322
300.2367028
299.5048094
300.0589906
298.4731167
298.1146332
297.4819179
296.0123321
297.4845749
299.010268
301.4574447
298.6457273
293.9358964
293.9545945
298.32971
300.4151924
299.2928043
297.7658012
299.5636499
302.2089537
301.2155475
303.0950657
299.6525159
297.6497971
295.0326668
296.6855791
297.0143073
293.6180655
294.1827489
297.1293947
297.1618828
298.0856054
298.7119619
300.8676262
302.5106541
300.5213204
297.1629812
303.080666
303.7445051
302.1599001
299.0843399
294.7181786
298.4793755
298.4309568
299.0248081
299.228102
297.383267
298.1611325
300.4129274
300.5928518
301.0313711
300.9330637
299.3142221
299.7745467
299.7803006
301.655321
301.4574616
297.4056242
299.275335
299.8863783
302.3115536
300.0579554
300.1875938
299.6495183
297.8296383
297.9163759
297.305141
296.3578819
299.9120668
298.4933367
297.8081061
299.7128404
298.0973702
296.7041896
295.1402104
294.5814129
298.3839252
299.9234926
294.8574649
294.3923556
295.3545878
295.8766618
296.185081
295.0834132
297.922635
294.7728797
296.7417828
299.22637
297.8978884
296.5408314
297.548855
300.3619053
301.3253318
297.6711034
299.9334287
298.5916029
300.8110456
296.341156
301.1268196
302.5636476
303.0718676
299.1404712
299.8812156
299.952478
298.6795031
297.6194632
296.3904021
298.2435723
300.9700326
301.0957279
299.2520325
301.5946338
304.0722604
302.9615647
302.2479567
297.2803585
296.7555298
298.5864011
298.6193033
299.4028485
301.3226806
303.0790597
301.3763439
299.6572222
299.6843747
299.1651531
298.8066084
299.1681764
298.353064
297.6071094
298.5797372
299.0728113
297.0242403
294.8293478
295.6695737
297.665146
297.5893471
298.8202322
296.2470051
295.6318619
297.6773665
295.3875169
296.165954
296.6482076
296.3287177
295.3578064
299.2390443
300.6729815
302.1092027
302.2464791
297.7473172
297.594069
298.7939593
299.6587708
300.7855291
301.6823283
299.7535461
300.3218232
300.4768447
298.8276058
297.1450858
298.1582033
298.4586323
299.0043684
298.3239121
298.0524493
299.912087
302.024115
302.3198813
301.1957355
299.2918266
298.3473991
296.7040537
296.8588383
295.7541342
298.6620643
297.5138957
299.509799
300.3718071
302.0886138
301.8902421
304.4731433
303.9844438
304.3542933
304.6029039
301.8223328
299.6651109
298.5439212
300.7946679
300.1344178
301.5656781
303.1780876
301.535343
297.7682984
297.8707363
298.2019526
300.2438465
298.3540033
299.7870425
298.7639368
298.5624759
302.2699686
303.3061521
300.0221019
299.7647665
299.7015639
299.6820183
298.19455
297.8908617
299.2506592
298.7152288
297.2017218
299.988739
300.2983041
301.8623713
301.8813386
299.742542
298.85394
298.9429705
301.7207303
303.3098231
301.2690155
300.4863492
303.9218798
302.9072619
298.292849
298.4483007
298.5107729
299.1222945
299.8918323
298.0798619
297.3230347
296.72772
294.1202724
295.3799979
296.3214108
298.8010706
300.9185869
300.8816329
300.2094798
295.2278374
297.2744994
301.2511775
300.570757
302.0261265
301.9004178
303.9986882
304.1038428
305.1128466
300.8266995
297.8235624
297.1821675
301.0739589
301.9180001
305.1970843
300.4925216
301.1132132
300.2096582
299.821717
300.6016371
302.2073146
303.1911721
301.9177513
299.6875476
296.7706003
298.5165399
298.4860392
297.1813422
295.7227267
296.9353338
299.1535463
301.9613655
301.5464862
300.966606
301.0072701
301.0335444
300.6972619
298.8855359
302.0995352
301.0603331
301.3953791
297.8216227
299.1574832
297.9478178
295.3300998
295.8611267
294.6606801
298.031539
299.4569368
298.5738322
296.5545049
299.5666662
301.5371542
303.3978684
298.5980958
296.8466496
297.3616723
297.0470874
295.6328001
293.6455202
293.8051844
296.0820735
298.2754845
296.685798
299.0162254
300.1422029
298.992524
299.3683106
301.197101
298.6285448
297.8801937
299.4411027
298.0167412
294.5993622
295.5062132
298.9838799
295.709579
302.3447157
301.4796685
299.8885471
300.8536775
299.3072106
297.791203
298.8937397
296.7244763
300.9314287
299.7843365
300.9714259
300.0881681
298.1795933
297.3218929
296.5099
296.6806502
299.7968662
300.195724
298.6050125
302.2929141
297.9097534
297.5103814
297.3600861
298.7449624
297.1550374
297.5462605
297.6445574
297.8080372
296.6759291
295.8181803
295.3250634
295.7757169
295.9319346
297.7117737
300.5251262
299.9817134
299.9668564
297.0108788
298.0693423
298.3006822
299.2339073
297.4962746
297.3976773
297.42299
298.3280197
298.72935
298.7425579
296.6287729
298.3789759
299.2634562
296.803776
296.5511241
297.4826394
296.3247472
296.5229688
297.0229539
296.8265613
297.363948
298.1767973
298.9187959
295.7784365
297.4869402
296.7524848
301.1643258
299.7673871
299.0089652
299.3166138
299.3795567
299.3984836
299.557024
299.7869902
301.0499725
304.3107564
304.9922979
303.0620596
302.7047036
303.8007652
298.1557421
292.8792851
296.4229928
298.3204724
301.4080657
301.9614246
299.6503687
296.9328573
298.3750396
299.7351245
299.183564
299.5823739
302.025339
299.2332955
299.6969461
301.8741145
304.0772638
300.0920118
298.695378
299.9216515
299.4252119
298.4128519
299.5993452
301.6770434
299.5482137
296.6080124
297.3985991
299.9093451
297.5915885
294.3233258
296.9327309
299.8782895
298.8346078
296.7536203
296.2090997
296.3815211
297.8735222
299.9510349
298.0949993
295.4113987
299.5649886
299.8716513
301.6087379
297.4351435
297.5932256
297.7893108
299.1256462
298.3426755
298.0156119
297.8993389
297.3938525
300.2911159
298.6292277
297.2439626
295.8814712
296.381509
299.1191323
298.0268275
302.8249409
302.9841679
302.4773136
301.1542554
297.6567714
297.429168
298.493719
295.8467509
297.7483131
297.1104686
298.5384563
298.041534
299.2738187
297.7595686
297.3924816
297.6325851
297.4798978
294.6102635
293.771031
295.1658823
297.2129628
296.7780169
295.6945218
293.6543227
296.8383979
296.5008473
297.2617291
296.3616207
297.6607729
298.1981444
299.7642244
297.5444762
298.3313248
297.0895859
296.8857948
295.8766148
296.2543713
298.4462032
300.7192121
298.2651207
297.3207711
298.1945621
297.1279417
297.2286433
297.0240817
297.2597998
298.9154804
299.8755968
302.1266212
301.9678511
300.8075965
302.8654435
302.3812871
305.4793828
302.4413362
302.0855603
302.0978472
301.4804986
299.9697171
302.2262248
301.3056157
302.3065565
298.5408177
298.9716036
297.9211189
300.6899677
300.1422182
300.4378028
300.2545778
300.0407882
299.6935157
299.0975332
297.1408793
296.4330741
295.5814001
296.3379832
301.2870926
300.9757639
300.1975189
301.1169307
298.5770551
297.4638635
295.3594242
297.499378
298.4632744
294.3949357
297.7106569
297.7814045
298.2988572
300.3975089
299.4764966
296.8147602
295.8566745
296.5115279
297.2700679
298.3907575
297.8995248
295.6831515
296.6637623
295.1257129
293.7026873
293.2352015
295.4333694
293.461388
296.7431915
297.398164
297.238095
301.0356463
301.3691166
300.4866829
297.8831147
299.3900138
303.6480334
304.5784897
302.7415483
303.4148257
302.9350418
301.8487556
300.9250849
300.0776829
301.0116394
298.9088478
300.4132558
301.982286
298.3452076
300.6376349
300.2567963
301.253959
301.6408824
300.7717688
297.2955541
297.8017267
298.3883681
296.5741298
296.5181545
298.6344817
299.2604476
301.7912544
304.2064836
302.8244107
299.4828512
299.508886
297.5510337
300.1105556
302.3425226
299.367764
299.2612698
298.2295903
299.0374956
297.0056899
297.3320937
298.484806
298.1464836
297.3731922
299.1764616
300.4657943
298.3054553
300.6663388
300.9692623
302.4754526
301.2468889
300.8199889
298.6768643
297.6092979
300.9537911
300.7404701
304.2450739
302.8484393
301.2588813
298.3265754
300.0955681
301.0966436
300.6827988
298.5688175
300.4559445
297.702239
297.8595147
302.3395581
300.7341919
298.4662629
295.5768198
297.8447012
299.7330063
300.6945877
300.9189852
298.6116947
298.9346645
299.3577724
296.3314244
298.6594346
299.7817253
299.9949796
300.4132847
297.4235724
298.1769029
297.5540206
297.8792368
297.2555783
297.9237774
299.6656065
299.7396191
299.7556733
297.6466836
299.295156
299.2865055
298.5279114
299.6545146
298.9468824
297.5229571
297.5639799
295.89957
297.1670457
297.3835952
297.5169145
296.6393949
296.0777312
296.8143108
295.9377109
292.7995385
294.0828309
294.3144041
293.5518988
295.2582977
295.4616674
294.7645032
298.5117287
296.8169702
298.6080959
297.9051148
300.1176676
298.7278006
299.3527122
297.442669
297.0420067
295.6583359
299.0412836
296.2758673
295.8856633
297.4251211
296.4330613
295.5535555
297.7367419
297.16408
296.5533816
298.0631941
298.468986
297.8642846
296.7092054
299.7550279
299.811572
299.8894348
299.2201175
300.4690497
302.3454163
300.5304024
296.5672261
299.0097033
295.6587356
298.6639482
300.5731168
299.8025703
298.607279
301.3630052
301.5574879
299.3718516
298.8078042
299.1781778
304.0383722
300.83859
296.2828268
296.6732595
301.0655965
297.0599653
294.7790728
297.0372842
302.5486794
302.2574775
299.591592
298.9608575
296.7499675
299.8339373
303.3042198
303.4801404
302.8249058
298.6072899
302.03795
298.3730608
298.7471023
300.5123219
300.9144584
301.2581516
302.3329069
298.306024
296.9079891
295.5016987
295.5796794
296.0377834
296.5179443
296.2847835
295.4416962
295.4852365
292.4217922
294.1321715
301.183229
304.5062478
298.3408412
301.1446058
302.0907102
300.7636867
300.8822265
300.4935829
300.356747
299.0978132
298.2398195
299.3730312
299.3074525
300.3478766
300.0290452
301.954991
301.3081929
297.4138578
298.6832636
296.8525527
295.3887901
297.2867429
304.0295801
303.7814163
305.6832608
303.026138
300.5096177
298.8520718
300.4441583
301.6217571
301.4566522
300.4634472
299.2775941
295.6547393
300.2638975
300.1019563
301.8913119
301.0324672
298.746909
301.9475034
303.5351942
304.2965486
299.2458047
298.6917374
298.8405405
298.7528445
298.8504784
299.5201587
299.8973295
298.2685409
296.6210653
297.2335819
297.229017
299.092709
297.7883848
299.3046113
300.8799321
300.737742
301.6484006
300.7480821
299.7338415
301.8810832
298.4842948
298.4496091
298.6945159
301.0839398
299.7311744
300.0246808
298.8521076
296.3236858
297.2265318
298.3529068
300.417287
299.5590036
299.3460583
299.3735838
297.316704
295.8128515
295.6165501
298.03153
299.228486
299.4302894
298.0995431
300.7378245
299.4468499
298.056228
298.2788294
297.5484912
300.7400667
300.6750812
303.3130067
301.1027227
300.2219325
296.9249284
297.0966413
296.3322457
293.2796604
294.8968978
294.1123924
297.3909771
299.2595034
301.0816172
299.1739275
298.9360308
299.192732
299.0693737
299.4250013
299.8762119
300.3368449
299.2995743
299.9592002
300.8830545
300.7534735
303.6977198
302.8045389
300.157899
296.3495213
296.2472766
298.8140784
299.5470279
299.3598444
298.9914912
303.6514203
303.2715352
297.8237845
297.5676074
297.7524366
297.5003562
304.2019704
304.835291
304.4437875
302.9636293
303.4254365
301.5330778
299.631487
299.3571221
302.9196806
302.6030829
303.15034
302.6657752
300.3890366
300.8899827
298.7096262
301.3332384
301.8806998
305.3928601
303.3978118
302.2713832
299.3050101
297.7038655
299.5322576
299.9672597
299.6200988
296.838464
299.9076548
300.8356513
300.2669952
302.3845658
301.0013105
300.4833519
298.0011317
298.1419737
300.2217866
299.0079737
299.779998
298.8085694
299.4812928
299.2008164
299.8861591
301.471349
301.5219842
300.7334248
303.008743
302.7166541
300.4629608
296.4681491
293.8380181
292.6708099
296.9603763
298.6037619
298.1265473
299.6431506
297.3064477
297.0350064
298.8191624
299.8991564
304.0114859
302.2406183
302.4709133
301.6715069
301.7135347
301.3476879
301.1507908
301.3316008
300.7806467
298.8931056
299.6764105
302.8090721
300.0921442
297.9960239
297.3084587
297.5892558
297.9816085
302.8544522
303.3761011
302.4845013
298.8698301
299.3409642
300.3471446
301.2165241
298.1389736
299.2331747
298.1800371
298.4351289
300.2104315
300.838226
299.8462416
298.7763319
300.3090373
299.1434927
297.9905816
296.2222281
299.8151704
298.2405316
297.4129323
298.0409921
300.8527305
299.6082366
297.4219584
296.6893137
299.6196991
298.2931775
297.6412333
296.7552737
295.599925
295.2114436
295.1604937
296.4076974
294.5942487
296.0148496
299.7457279
300.0781126
298.4873527
296.0483173
296.9907912
297.4438393
297.995082
297.1135635
298.8696017
300.7595616
301.6366447
304.0001052
302.4056167
300.8493783
300.343736
300.3221949
300.7368537
299.7343118
298.3541931
300.756397
300.4710847
299.1146043
300.2781559
298.4740182
299.5882639
297.4798241
297.3843235
296.8762377
298.0066912
299.602563
299.9272196
299.4197013
298.1345155
298.2833095
298.1109376
294.7705913
297.0260649
298.7568176
294.8094693
295.2931434
294.7626854
297.0385261
299.1248722
298.999173
296.3561687
295.5157976
301.3314188
301.9068166
300.0589006
300.8258174
301.7409492
298.0296988
298.0796521
298.8219293
300.5976887
298.5256398
296.840457
298.7445647
301.1703911
299.2829276
298.0492789
297.697863
300.9637539
299.0299492
297.6380569
299.0342921
299.6339302
300.2845141
298.1216738
297.4907874
298.3917611
300.7392193
297.318227
301.2235689
303.0587004
303.177478
300.2696614
302.2901848
299.9186154
297.9161311
298.3553842
300.8677909
301.6442889
302.3413954
304.0538888
298.719678
297.9731509
297.0747962
300.8224073
301.8289399
300.628013
299.9861683
300.3719402
302.92304
299.4662029
299.1644792
301.0935555
301.4386256
299.1299394
300.4612396
299.911006
299.0056884
301.1929857
299.4914759
298.400338
301.1847275
300.5058085
302.1295172
301.129344
299.6581902
301.446397
302.3291426
300.3469722
297.9889881
296.1835194
298.1666746
299.8253294
302.1353149
303.5003068
301.1782958
300.8562243
302.0712654
304.2499198
302.2391732
300.3221368
296.6354632
297.4010038
298.2629072
298.4053461
301.7196337
298.7885495
297.051513
298.3617275
301.9367644
301.1297841
301.2072715
298.1730577
298.5209227
298.4632011
299.9023494
300.4900972
303.1516161
296.1876391
296.1027926
296.5250922
299.3986667
297.580638
298.3781234
297.5681318
299.6308091
300.0736659
299.5184493
297.0675876
299.8550739
300.1490371
297.9742024
298.848504
297.3927194
298.1243548
297.7066033
295.2983562
296.9184683
296.0813147
297.9888247
298.3932548
296.7112032
296.8839163
299.7659129
296.6994338
298.0959156
297.32406
298.714025
295.6164789
296.3622367
294.8315055
297.5637719
298.5105368
300.1001865
300.5264056
299.4525356
294.9107547
293.8883216
298.976278
297.2601633
298.1163226
299.2752821
300.6828993
300.2996529
299.5597195
300.7796819
299.8802983
300.140474
303.0977847
300.5384474
302.940147
302.7997098
302.3635057
301.1304565
300.0257407
300.012376
300.0871431
298.8754015
299.2192108
299.724879
298.9229551
299.0615539
301.2941851
299.2820538
297.9194997
299.7059918
301.8714456
301.9521142
299.6235591
302.0310084
299.4969711
299.7076988
299.2931072
299.5247633
299.0779302
299.4449199
298.0158221
299.651042
298.4455544
298.1581576
299.6186004
301.2711748
299.5410902
301.2234538
301.3720425
302.3433011
301.1106268
301.5381539
299.5439331
299.0577775
301.5795601
302.8532881
301.6558538
299.7233083
302.1588606
303.8890965
302.5098763
301.0885905
301.6127142
301.1210707
298.4408764
297.4039551
300.1070179
298.6889437
296.2634311
298.2391704
298.2251774
299.2646424
297.7194182
299.8650354
302.7336846
301.814884
306.0235959
303.9188953
301.6429709
299.577959
302.0450011
304.0351987
298.5719855
299.3149232
299.7737624
298.8608704
301.0625708
302.4091127
300.0632497
302.0940231
307.2749018
306.9666742
302.9847496
301.2852775
299.6064359
298.3106255
298.9780836
296.0447235
299.2187826
299.1638688
299.0401089
299.3776803
298.4633726
297.4125777
298.7528554
300.9136718
301.8633356
298.7002291
301.0883468
302.7209679
300.6552186
300.261459
301.6157384
298.8571402
298.2547333
298.8103924
300.5834895
298.561381
297.2702851
299.156908
300.6173869
301.540676
298.0355945
297.7638677
298.7704212
297.5825127
297.44373
297.7400618
303.167683
301.0851594
298.440259
297.9891641
299.2013446
295.885669
294.5311608
294.0080781
294.7331601
294.7904428
298.9724661
297.5436709
296.3298653
294.8112823
295.7405513
297.4625236
298.6424652
300.4767837
300.403817
302.1446503
302.8045783
302.8915274
304.4763443
302.6838851
301.14462
297.5868132
296.8136604
298.9127834
296.7092462
299.0396446
296.4173198
295.7318561
296.5435555
296.1576296
302.2929387
302.7053899
301.5609849
295.7865021
293.7378706
295.8192492
298.9749505
296.6466085
299.4316541
299.8734528
299.8468535
299.9552607
302.1388047
299.6088671
296.548553
295.3983408
299.0114949
298.1042512
297.76352
300.2450612
299.1757916
299.7274674
301.7212494
304.4852532
302.4276651
300.7483879
302.2588608
303.0634545
303.1842332
301.3912607
301.6837278
301.7079172
300.5300332
299.2181005
301.6928226
302.2227092
301.4041406
303.1354555
303.2512167
301.3310207
296.1139695
296.0557501
299.0932691
299.6521089
300.069997
300.4928092
300.6840118
302.1101274
301.2676519
303.1176876
304.2768267
302.0563365
299.6632921
298.2561648
299.7992056
298.90731
300.5767727
299.8911012
298.3185791
297.6373336
301.8542307
298.6493396
296.646728
298.5165719
298.8796017
300.0459557
296.5857711
299.7766719
297.058996
297.7810315
299.3141051
301.6919201
303.619264
303.143332
299.8219768
298.3742573
296.5023041
299.1309577
301.1119492
301.0498528
298.4553159
296.6693171
297.4880073
298.6157401
299.2648669
300.164116
301.9751584
301.886048
302.1431378
301.824406
301.5447361
303.7549402
303.6493957
299.3715015
298.2857683
300.6460505
301.6306873
300.6853858
300.3203633
298.3337269
300.5390968
301.1305924
301.8248893
302.3880299
301.0592696
300.6189264
299.1130706
299.5999491
300.1858781
299.2031383
300.9212412
300.767307
303.3147815
306.4352155
306.2722671
306.0019409
301.7593949
300.290899
302.2566633
299.4046032
301.751683
301.0722502
299.3916453
300.7875888
300.035678
300.7738341
300.9944689
298.8592461
299.8592645
303.0374892
300.8843534
301.2513999
301.267495
300.8728009
300.7713367
300.4027575
302.9017812
303.7669702
306.1134509
304.4211332
301.1517557
298.5417091
297.9223831
297.8711633
297.8362152
302.5652179
302.0208041
300.6496507
300.4116391
297.691162
296.5996519
294.1119493
296.9236853
298.8285274
301.7218314
300.1204657
299.5136239
299.5828577
298.8653401
299.5023233
298.9210801
297.8739004
296.2991868
297.4267069
296.8677309
297.9100565
297.4135249
298.7940016
297.7590871
297.9620516
299.7892363
301.4709952
301.2401405
299.9410787
297.3083114
300.0100478
298.621837
298.1864075
295.2092912
297.9085025
297.9333242
297.8751722
297.8322324
298.9060622
302.5778298
301.1527644
301.4822887
302.1441665
300.1260288
300.2251315
300.300173
299.8580091
300.2150986
300.6485981
301.3565094
299.0753343
298.4868585
296.8976468
300.1766796
298.7675115
302.2736809
301.1315499
300.3716117
298.9456815
299.3342265
299.9034177
302.4948214
300.6735636
297.1495354
296.1313149
298.6438728
297.886383
296.1258913
295.6380516
295.9481675
297.2226643
295.7929457
293.8623062
293.8043675
300.3314127
300.3800064
302.9368937
301.084865
299.5037997
298.0960665
299.5692244
296.7739394
296.8701954
297.9279928
295.6978344
298.6723567
297.8030667
296.6687613
296.0435819
297.4287089
295.1148403
295.2810552
297.7848175
299.5384291
298.7333826
304.6570269
301.7546705
303.1252684
301.2109043
297.227359
295.9079249
299.3373319
299.270524
297.0391218
297.2178367
297.1545786
298.3128534
297.7174157
299.0923603
298.6916394
298.7850947
301.552091
302.4352635
303.8752747
303.3315935
299.1991654
300.7695248
300.2482216
298.5625617
298.5809533
300.1708063
298.6764611
299.032126
297.7165549
299.1562413
298.4993653
298.480838
299.5832264
296.8405074
298.3304892
298.6783934
297.7620049
299.04989
299.0871338
298.9057135
305.2267468
302.4214409
303.9614044
302.7404316
302.0424558
302.4034494
303.3153018
301.2717412
299.9859585
298.3794041
296.2446278
298.7156146
299.8659896
302.1974786
301.0923406
301.1761351
300.0872533
301.259188
300.8548851
303.6916345
299.8262115
301.4241103
300.1299559
300.7103404
301.6581994
301.2923962
298.2738037
296.6541875
294.0756227
293.1223809
296.2388715
297.7890321
297.2332871
297.9711392
297.8951163
298.6959869
299.7396633
297.4966123
298.7051839
300.8685555
293.3779857
293.353464
294.4398373
297.9660581
298.5584585
296.715929
298.6710072
298.0276661
297.9498827
297.4912931
295.9709493
300.0345635
301.3616137
299.246171
300.4594279
299.520283
298.2966778
295.9577697
296.1645075
294.5369354
295.1593009
296.154883
298.9575307
297.8138224
300.8664236
300.0874642
302.2716053
301.3154976
301.0916066
302.2686081
304.3902081
300.0487417
300.3756194
301.149221
299.7733545
298.4998596
298.0573343
297.2020146
296.367734
295.9408136
297.6265122
298.0430796
298.6674011
299.2015163
297.7884894
298.1110379
298.7923582
300.1059256
301.6352927
298.0791647
300.2084867
300.3526217
300.0977797
299.8615956
297.3548181
301.925934
305.6329114
300.6378459
298.4582349
297.9059935
298.7485028
298.9772856
296.5104342
294.8247536
293.6322794
293.9772432
295.4076393
295.2471896
300.0008102
301.2038359
298.3787012
297.7791725
296.1496054
299.7973876
300.2610044
300.6244554
298.7905635
296.5009263
299.6453434
298.9983585
298.7446331
298.1610609
299.9374719
297.8946664
296.4333446
296.4825804
299.6431384
297.5977503
298.726488
298.2822085
299.6084502
299.0861422
300.6805539
299.804276
297.7599248
300.2183772
300.5831269
300.988945
297.5434698
298.2907649
302.4163016
301.5628025
299.4904846
299.4752971
300.0312342
300.1310146
300.6678337
301.7954102
299.2485167
301.182326
302.5735903
304.0454731
303.418069
302.1714534
303.8450637
302.517565
303.8733427
298.8777779
299.1374632
304.3229548
301.8880041
301.2454454
301.4876869
301.4223038
300.1723247
297.4540464
297.7550693
297.5015088
299.0072604
298.3304105
300.4015048
302.8697308
305.5962079
304.7877777
302.8632945
302.5735117
299.6126732
301.5385832
302.0918554
302.6916873
299.2570127
299.230414
300.465735
300.8972995
303.4897854
302.1705074
301.218299
301.3725705
302.1422
301.4690162
302.3533355
300.2819038
300.4371616
300.3209533
300.7181717
300.9986381
301.0177701
299.4203826
299.3900576
297.8348519
298.6715324
298.0893204
299.170786
296.9184556
294.0650994
294.0122649
293.8191908
294.4649864
297.9827544
296.1686368
297.3614464
294.8073355
294.4571446
296.3581884
296.8613832
297.0387614
295.9615532
300.5321574
301.8184591
300.1109823
301.2430442
302.2820075
302.19595
301.6260419
301.1714673
302.5682267
298.7147121
300.0024099
297.7072165
300.3315875
300.4926824
297.8979147
298.150072
299.204571
297.6051277
298.8242674
297.3719734
296.6520321
296.0119176
296.4282193
296.9170992
300.8954201
301.1562287
303.894118
300.867043
298.1418508
299.7460266
298.5721586
298.9967517
296.8878157
297.2503808
297.3652506
298.4028408
295.7858902
294.6301747
295.631367
298.8619699
300.1960582
301.3665107
298.421723
297.5816519
298.3353569
300.5290653
299.1817058
297.064754
296.3012895
300.1986827
300.6684655
300.840505
301.7076738
301.6530304
299.5221964
300.3105302
298.4094261
297.5744497
299.3263614
296.2161773
297.8607763
296.8079068
296.208633
299.298886
299.3975498
295.9613864
298.2567062
302.1333384
302.1393081
302.0761229
298.9989325
299.9328118
299.9271553
301.6979877
301.1299571
297.8657587
297.7685666
297.1585923
297.4687108
298.6344196
296.7332981
299.101212
297.0472058
297.7089551
297.5714627
299.4363623
299.5492692
299.8282722
299.2679879
298.8327193
300.9239178
302.2867998
299.5393104
300.5103097
298.8737761
297.7978293
301.7329733
302.290501
303.8728434
303.7033218
303.5918219
299.0385766
296.6286332
297.0779191
300.9256359
302.0295771
301.317983
300.1159917
297.4443383
298.431754
299.9992482
298.6085486
300.7241073
301.7428564
300.437746
299.1653521
300.6077519
302.3436581
304.1198995
300.0845453
297.7493705
298.7368792
299.8832782
298.5664416
299.0189048
300.1849529
300.3958146
299.8742668
298.8692308
300.3183925
298.6650908
300.1157697
298.9813199
299.3248981
298.8793022
299.4338949
296.1929838
298.2140888
298.2326916
300.0480737
302.0590684
300.7892731
296.8262001
299.0582476
297.0697663
297.2999601
299.4385774
297.688241
302.0140516
302.4094725
302.0641561
298.5416554
297.0759008
299.1992251
299.5637691
300.090852
299.9670027
301.9829281
299.2195136
299.3006368
301.9203291
303.2167027
304.3289308
301.708222
300.5768957
298.9404174
295.5001978
297.7488347
297.9424361
298.7504115
300.7616013
300.5736256
301.5655033
301.1276121
300.7527478
299.7257985
302.0507735
302.4051964
302.6365121
301.055678
300.0450207
300.8656661
301.6822068
300.4755319
301.0607861
298.2950276
298.7021398
296.8692687
296.4592811
297.4857083
299.7952396
297.6060039
296.4192601
297.5959157
294.1364519
295.6233974
296.8270668
298.0411375
298.8344351
298.6314497
299.8743835
298.6513502
300.9120042
298.9839489
301.5255685
302.3401001
304.4564366
300.6727562
300.5442858
298.9758223
300.5923422
298.3894034
298.7783959
298.7988109
300.957539
302.1776869
301.9534963
301.4604898
298.0432691
297.8231927
300.7068111
301.2888137
298.4009764
301.7088017
300.9953384
299.5550943
298.9052392
300.4866845
304.3144791
299.8989538
301.1680988
300.2960922
297.2076035
298.1797099
295.3676167
294.7641395
295.1196826
295.986182
296.1242417
296.8510985
296.6567527
297.6796223
298.2228263
300.3873138
299.678131
297.8472211
298.9247711
300.2480255
298.6105312
297.3827625
296.7562966
301.611971
300.2429359
300.8683271
299.5075003
298.678413
299.900125
301.9934204
297.6609538
295.9691303
298.4336163
301.3063916
300.3994006
296.117044
299.422306
298.2685894
298.6441894
299.0121429
300.9479365
302.2449613
304.4922325
302.8620469
303.353052
301.6021957
300.9031073
302.1319998
302.6635818
299.9005088
301.8345304
302.3749898
301.230794
299.8519963
297.7072758
301.9588595
297.6687563
297.9409084
297.3281045
299.4115058
299.1737005
301.2551339
300.2886335
301.9218554
302.3717295
297.5016943
301.7711943
302.0815283
299.461413
298.225126
297.6734268
299.9940504
298.2775611
302.1447028
300.8032131
294.8610425
295.0370047
296.8039304
299.41841
298.2788087
298.9150201
297.6424973
297.27717
295.0445861
296.7289417
299.6951092
301.0889136
298.6064182
299.4865717
297.5667903
298.2920912
298.473423
300.0841658
297.0808864
297.230502
300.1793644
298.8418639
299.4764171
298.9468533
297.7462737
298.1990483
296.8814282
295.0735833
297.7526152
297.6561833
296.1067942
295.5245821
298.2767729
297.2669892
298.8121517
297.4568005
299.0501915
298.3348946
299.2031872
299.4978721
300.3809624
298.3024991
297.6596469
296.535934
299.4964224
299.6361445
300.4563443
298.3116229
299.8021862
297.1581643
297.7970246
299.1482711
298.3230939
295.3926529
296.2552466
296.8612607
295.0261658
296.115334
296.9835921
297.2596634
302.7643395
298.5320426
298.6563123
300.2412977
302.3661027
303.1183089
302.0695394
300.1747544
298.5228062
300.6399072
300.9057904
297.3376807
297.952547
303.0561261
302.2486239
302.4963998
302.4250864
299.5383346
301.1686711
303.178859
296.6280525
298.2688722
299.7141708
302.5178707
301.6160142
300.6991089
299.1644764
299.5775963
299.3252154
300.9181419