/*--------------------------------*- C++ -*----------------------------------*\
| =========                 |                                                 |
| \\      /  F ield         | OpenFOAM: The Open Source CFD Toolbox           |
|  \\    /   O peration     | Version:  v1706                                 |
|   \\  /    A nd           | Web:      www.OpenFOAM.com                      |
|    \\/     M anipulation  |                                                 |
\*---------------------------------------------------------------------------*/
FoamFile
{
    version     2.0;
    format      ascii;
    class       volScalarField;
    location    "0.01";
    object      translationalT_N2;
}
// * * * * * * * * * * * * * * * * * * * * * * * * * * * * * * * * * * * * * //

dimensions      [0 0 0 1 0 0 0];


internalField   nonuniform List<scalar> 
5120
(
300.291624
301.0936611
300.3465556
299.1590097
299.1710119
299.8084066
301.5497711
301.8240998
302.1334941
300.0996435
300.464633
301.175674
300.1645787
300.4586896
298.9010496
298.7585399
300.102775
300.0700521
299.9329241
299.7306905
300.590132
301.1269313
302.4029724
301.1502151
300.0413329
300.1783538
300.5636619
299.3782065
298.4686
300.0696434
299.5421632
301.3857599
300.7518603
301.9033867
300.5425804
298.7452034
296.8061135
297.6800942
298.7833217
300.345537
300.7538424
301.9905747
301.2464856
299.0669457
299.3255277
299.9453515
301.9305945
301.2425553
300.1100813
300.2429416
298.806321
298.9953377
299.9546853
300.4768147
301.1657032
300.9227536
300.7624078
300.8383572
301.9955306
300.681365
299.4245421
297.843795
297.9771448
299.0580188
299.6751533
299.0538033
300.4338083
299.434026
300.0281733
299.2110957
298.7635374
297.0419183
298.3143112
297.7084419
298.1503088
298.7360063
299.3091095
297.7385706
297.6159587
299.2405862
299.3265502
299.2128818
298.6331277
297.7694921
297.9902018
299.6555606
299.2821465
298.5033098
299.2182915
298.7337175
296.7214276
295.1771739
294.7155237
295.6328969
297.8672513
297.6739116
296.24438
296.8303644
296.9735787
298.7786868
299.1521484
300.0718909
299.8537566
298.784054
298.4850321
298.3223808
298.0938138
298.6056043
297.8631201
297.9675328
299.2354225
299.8132363
298.712684
296.9269824
295.805393
296.0569121
296.5208288
298.211669
296.7822706
296.0276835
299.8961821
299.2900728
299.2880483
298.7911432
299.5467957
300.1245187
298.202194
298.257128
297.4613829
297.1513842
296.0188545
297.3181721
297.9707989
297.8380217
297.55112
296.952568
296.9041005
296.9755119
297.269179
299.2708639
299.3700943
298.443377
297.8304548
297.3759624
299.6051
299.1523911
298.4106916
297.9668159
297.468106
297.7351382
297.6038501
298.0396317
298.5438591
298.4184042
300.5397959
300.4256996
298.9388473
298.1060224
298.3249865
299.3860344
297.9611492
298.6521383
298.3565476
297.9036106
297.4321327
298.0743195
297.8104584
297.9423732
299.8565756
299.9171803
299.3928755
299.0509063
296.8336975
298.4461545
298.6559213
300.1953416
300.2063575
298.5528091
298.115026
298.1319203
295.3034203
295.371245
296.314528
296.6719919
298.2198898
299.4158136
300.059663
298.697123
298.6638333
299.7761792
299.6961957
299.6415225
300.1373266
299.2593537
299.001113
298.90597
299.2145287
297.6968561
297.9322699
297.4761943
300.2130131
299.8767387
298.9057851
299.3186376
298.9135404
298.5861734
296.8129705
298.2758062
298.851645
297.1356631
295.8694805
295.7349365
295.877046
295.7413562
295.4615756
297.1412519
298.9306532
298.815093
300.0059584
299.8136853
297.1687814
297.7756358
298.6346698
298.4571145
297.2052148
296.7838195
296.7563393
296.8731869
297.2828881
298.5152097
297.64887
298.7805747
298.08254
298.303395
299.4884733
299.2293382
297.8923159
298.1723282
297.1668489
297.5579801
297.9064035
298.4034133
297.8113261
297.387
296.9650565
297.0886879
297.9294272
299.4058052
300.2090236
298.8931519
299.2634353
299.9148582
299.7269908
300.4002388
299.5627398
300.460956
299.9590208
299.7258604
297.5675096
296.8279873
300.2911396
299.5799179
299.5649948
298.3459576
299.0162342
297.7168328
299.3618245
299.3474045
298.9844436
299.2931238
299.2739207
298.5353805
299.4865708
298.5049398
298.9356173
299.7050433
299.7223835
299.4750414
297.7428249
299.7431339
299.5263231
299.9996388
299.35733
298.8869424
300.5716952
301.4659908
299.5502028
298.4895758
298.7833558
298.9619748
298.8275905
300.0711138
299.7400576
298.0015301
299.2697483
300.850685
300.9725667
298.5081298
298.0914584
298.2626315
297.2971181
299.1964936
300.6946025
299.6740692
299.8896205
300.4633098
301.6914813
302.9328135
301.7586495
302.1788357
301.4240502
301.3394736
300.7144073
301.2064806
300.7957501
299.7812611
298.5040614
299.7385088
299.7012769
299.5300671
298.8010577
296.9524478
296.0005466
297.9702416
297.8675445
298.1810848
298.5655205
301.2526431
300.3492146
299.4849918
298.6214028
297.3915864
296.340838
296.3954541
299.2760548
299.7811785
298.6650373
298.4718133
297.6696474
298.9758106
298.1238176
298.4513995
299.5468595
299.085974
299.9100649
298.9824999
297.4701813
298.1827291
298.7696625
299.4947959
299.742688
300.304215
300.3780787
301.2024564
299.9441556
299.6609538
298.9349295
298.9236321
298.1519695
297.0035538
300.1230144
299.2382281
300.4338039
301.8872746
300.9452487
299.9905962
299.7655937
300.5986028
300.0627733
299.5860504
301.2113035
300.402797
301.6300827
300.7845112
300.0506131
298.5253988
300.0948911
299.0793367
299.5862661
301.0560146
299.7607872
299.9094516
298.5265104
298.2390129
300.3506582
300.9007918
299.3960433
300.0760004
299.2697332
298.9406667
298.5491065
298.8508447
299.2813767
300.8276772
300.3869925
299.5171735
300.9704734
301.3085898
301.0340627
298.7585266
300.2247087
300.608911
301.1977191
300.194078
297.9431217
297.4602625
298.8274879
298.959444
299.2957317
298.3055822
298.8634001
299.1978433
298.6598938
298.9611167
298.8296712
298.6426077
298.402722
299.7043129
300.0208413
299.6178138
297.3305759
299.1593784
300.7100105
300.5337747
300.8853777
300.5536092
299.7001043
298.7985367
297.3382236
298.9651465
301.2549034
301.1623049
300.2727723
300.3819633
300.1625094
300.1272492
300.0206423
299.1412918
299.441672
299.6522494
299.4113247
300.1728346
299.5942997
298.9611564
299.0423612
300.1203777
299.4898962
299.441332
300.043028
299.3401245
298.5800647
298.1092653
299.5994384
299.6472047
299.8123856
300.8240246
300.5950462
301.0846056
300.5341094
299.4023112
299.4141987
297.2589068
297.9778534
300.5009443
300.5417104
301.8386182
299.6863468
300.4203981
301.1880479
300.4821916
299.49574
298.7825151
298.5858463
299.2711076
299.9437151
298.8729147
301.4349501
301.715117
300.606051
299.9985508
297.1286696
298.4334523
298.1912992
296.7050171
296.9039623
295.7043159
298.1549328
298.2895983
296.2701144
296.8557613
296.5590977
297.9611964
298.177633
299.9682971
299.2229556
298.2123677
299.3029262
299.7842695
297.4561378
297.5155001
299.0456822
299.0152971
299.5515056
299.0992568
298.6851574
298.1620092
297.3837442
297.5292596
297.0364603
297.0703274
298.2250788
296.4027824
297.1558011
296.6697197
296.4933896
297.503983
295.9247772
296.789874
298.5416839
298.1192696
297.9415766
299.2664606
297.8411118
296.3884834
297.3582453
298.7600591
298.740426
297.9072281
296.879695
298.7005314
299.0698962
298.0214232
296.6284341
297.8283734
298.0448666
298.0501143
298.2062893
299.6810245
298.7050236
298.1196072
299.8224706
299.5635326
298.7107297
298.5866086
297.6798301
297.8219503
297.4608768
297.392419
298.4652995
297.8344425
297.8895946
298.9511125
299.7383993
297.9363
296.575471
297.5106171
297.0290984
296.5891005
297.7733438
300.2126061
296.5737576
296.2396782
298.3566993
299.3118859
299.4542173
300.1108921
300.3767501
298.3374087
297.2849485
298.4948227
298.4302541
297.1666971
297.4249219
297.4384123
296.8035915
295.4630511
297.1564372
298.5071539
298.4550445
296.5700032
299.0930403
297.7586839
297.3960896
298.1395758
298.2109404
299.3942468
297.9319077
297.4205833
298.5743279
298.8525635
298.9572977
298.325079
296.4735076
295.1025767
296.7437967
297.9169184
296.8046048
297.0493542
298.4242836
299.3999701
298.3584598
298.374626
297.2947187
296.6128942
298.7426343
298.3913717
298.2104188
298.7201294
298.4266363
297.9583122
299.306061
298.9310522
299.2273997
299.7028954
299.1799684
298.804574
299.3016739
300.6630286
298.9238513
298.7218451
299.2676445
299.5949716
299.7239388
301.3129529
300.4353836
298.779557
299.3032153
299.6463495
299.8096909
299.4254111
297.848512
297.9739876
299.0326152
299.1596404
298.4792418
297.4897341
298.3141409
297.7597877
300.1812497
299.6685023
298.517002
299.0457458
299.4447185
299.0954248
299.8761304
299.6370268
299.2974079
298.4345712
297.3699778
299.404516
300.4259952
300.8520024
300.1905747
298.6957318
298.839818
299.2566606
300.3291286
298.6622108
299.1700231
298.9079777
298.0579118
298.0021615
301.0785434
300.5542419
299.7509679
300.4175816
300.1058561
299.7729589
300.9155525
299.1899651
299.9335495
299.5554417
299.2064701
298.2104244
300.1809612
298.0613087
299.0166721
299.0674951
299.5407354
298.707228
299.9986005
300.8984776
300.8008479
299.9881361
300.9270177
301.6387984
300.9863162
298.9557407
299.473486
300.743325
299.6966636
300.6536534
300.3030515
299.8184198
298.9380255
299.8403778
300.8409327
300.7504953
299.9393188
298.8938631
300.3821608
299.3416244
298.9226223
300.1441064
301.219242
299.9986815
299.2618009
299.1810184
298.8254876
298.6746016
299.6641251
299.0691969
298.0801823
297.7985299
298.1728171
299.2845129
299.1927138
299.4509578
301.0153129
300.9983152
299.2028029
299.5692069
298.9609078
299.4635638
298.6392893
297.2625819
298.2180101
298.3864229
298.3819745
297.5318701
298.3952474
298.6002118
299.2873339
300.2066912
299.9639478
298.896144
297.9860057
298.3040824
297.9673548
297.4770405
300.4518546
300.2618777
299.1868808
298.0762277
299.7818014
299.3562333
298.0856705
297.2309317
298.0872135
298.5202197
298.8222661
298.7171974
297.9757475
298.8307273
298.4864115
300.0009295
299.4171335
298.4538722
299.4593456
299.820003
298.4531103
298.8623548
299.0539495
299.2708096
297.6219018
297.7565874
299.4518381
299.4708546
298.7897576
298.523488
299.0469468
300.0379133
301.8203897
301.1489573
299.3756824
299.6775266
300.02699
300.2292068
300.5275409
299.9930807
297.8534008
299.5201002
299.7282418
298.6643316
298.3301365
299.5379578
298.7992641
299.1789918
298.2925208
298.2004125
298.6358607
298.8146456
298.3263083
297.8215668
299.0422836
301.0442719
300.5548547
297.9686091
298.3772362
298.7289237
300.741239
299.1701959
299.3831367
298.4722744
298.2420951
297.1856729
297.7780928
298.397853
299.6382982
298.8656584
299.4475408
299.5961271
299.688112
300.0368435
299.6822876
298.0301059
297.8066008
298.5380011
300.2722899
300.1951093
298.5006001
298.97407
300.4771949
299.3411752
297.8657621
298.3840495
298.8915233
298.5771369
299.4869414
299.5253307
300.2023426
298.0848998
298.1274899
298.3239987
298.2603554
299.0390923
299.8951121
298.7989967
298.4372146
297.7113361
300.3442501
298.5332216
298.7304476
299.2561837
298.579167
298.1891275
298.3860974
297.5932427
298.2515825
297.9430684
297.6990588
298.0157787
298.6644043
297.154764
298.0151722
298.4233901
298.3030033
299.1425221
299.0540016
301.0368906
297.6996342
298.2795459
297.3707955
298.0544329
298.7398287
299.9246125
298.153616
298.4667632
296.9792735
297.4644082
297.4309509
298.6116824
297.2119835
297.4220558
298.8930682
299.1756924
298.2672013
298.8614471
299.0875373
299.2245571
299.4842826
296.7485348
296.7130015
298.3004321
298.2721689
297.3558376
296.875959
295.9373783
295.8824996
296.4154548
296.050995
297.7154742
297.063609
295.6291711
296.5436906
297.2917505
298.1869204
297.329027
298.3564791
298.2013566
295.9762177
296.8279294
297.7348335
296.3128138
296.7926709
296.0738794
297.001329
296.8324499
295.6934084
296.3336735
298.7418111
297.4994818
296.5809336
300.3254812
300.4429058
298.6653241
297.7198451
298.0666139
298.1546714
296.702009
300.3464466
300.1100034
300.397956
300.221299
297.3483504
297.0971887
298.5441941
299.39059
299.2043077
299.5295333
299.2812447
300.6146411
301.4564684
300.8556716
301.3928325
300.9837157
299.6663878
300.4344999
299.4465982
299.416271
297.7899335
297.8633607
297.5018223
297.8192361
299.6803374
300.5847343
298.0067359
298.1469757
298.3928336
299.3370935
299.3823051
299.7305949
298.8152809
297.2068577
295.7941382
296.6399586
297.3135095
297.6764504
297.2072686
297.5117823
300.7950695
299.95077
298.596783
297.2152692
297.6597837
297.8014633
299.2073467
299.0482701
298.5526639
300.1354811
300.5781809
300.3591824
301.3130588
301.9175412
300.5218918
300.0266369
300.5445546
300.2266252
300.5179196
301.3344517
299.0944517
298.9285668
295.9257636
297.8609019
297.0000317
297.7864071
296.7954351
296.428562
297.5291732
296.6941919
296.622451
296.7884529
297.2689543
298.085514
299.3707082
298.9213695
298.2508538
298.390299
298.434603
299.4458706
299.5463452
300.9424282
302.1441337
302.5085437
301.5327286
299.954344
299.5604527
299.4854009
298.129407
297.9160157
298.8563903
298.0638218
298.0791378
299.9706538
299.2749027
299.9894039
301.1520971
299.7697691
299.23881
299.8625777
298.1685914
296.7059802
297.6180462
298.852389
296.2619447
297.4417126
297.906104
299.5586926
300.5608427
301.9192144
300.2347583
299.0232148
300.3792922
299.8137398
300.1657923
300.3761815
297.5253096
298.0893269
297.809701
299.0315077
297.717899
298.5799093
297.9588339
296.929617
299.5994834
301.4303864
302.5657095
301.0804237
298.4067486
298.2628392
297.5990346
297.9914742
298.2702129
299.6186807
297.8186737
297.3533666
297.3414299
298.1518124
298.5728384
297.7419667
299.4197223
298.4752436
298.7577822
300.0358118
298.7638869
297.9533609
299.6773408
298.6486981
299.5916942
299.2312925
299.2262369
299.532185
299.6055259
298.7304968
299.9995002
300.3839291
300.4574493
299.2766739
299.0022691
298.7169292
299.6346315
298.6781121
299.2100308
300.159706
300.0467782
297.772718
298.4969637
299.1145658
299.9156123
300.0780909
300.1805134
300.5985662
300.2208781
300.7524487
301.5375851
300.4362687
299.7487201
300.0382776
299.2370469
299.4304027
300.0321365
299.8396138
299.5050976
298.3938632
299.7742972
298.6834383
298.6608499
298.624177
299.6380836
300.2534051
300.4499626
299.7925555
300.3293567
300.1070779
301.4559224
300.1928401
300.9922313
299.164899
298.8838809
299.9794494
299.6506596
299.0711108
296.7786741
298.0978402
299.2422085
298.9507721
298.6907235
300.2660355
299.0759668
298.6758885
298.8234445
299.5430654
299.6654744
297.9468015
297.9519087
298.9063468
297.1298223
299.3665474
299.3365721
299.4393274
299.1209377
298.1209813
297.2712633
298.8399065
299.0775959
298.9495536
299.9902572
299.2778706
300.1294449
299.2162559
299.7156946
300.0905094
299.9570784
299.6524416
299.2371753
297.4994223
297.8202097
296.9005952
297.1341912
298.1351467
297.2635349
296.3123675
298.6265171
297.9534363
296.7313523
296.619198
298.0571959
300.1166403
300.5107132
300.2835649
298.4855161
299.1352591
299.0240884
299.1730888
298.0620575
298.8180443
299.7592081
299.9758251
298.6837255
296.9451297
299.0876024
298.2775106
299.3212773
298.9543009
299.3940584
297.9859912
300.0645082
300.0076318
298.8668361
298.3694294
298.07893
298.5982293
299.8165669
301.5450832
300.3302772
299.3561139
298.0966002
298.325059
299.3793859
299.6814722
297.214168
299.0913102
298.3644649
297.9145445
298.5095957
298.0623622
295.8907084
297.9542378
297.6615607
295.9893317
295.2378742
296.3102299
298.3559773
299.0452995
299.8738452
299.3703814
296.6764494
297.3063838
296.6210235
297.7435816
297.8416754
298.485025
299.529706
300.1612223
298.8156835
298.8291763
299.6018532
299.2308443
300.5640956
299.7371629
299.9082482
300.1604572
298.9958966
298.4037791
298.3337507
298.0822999
299.2233192
296.8732045
297.3902801
297.9916566
299.6982628
300.2475349
299.7699769
300.077706
300.8261129
301.854687
300.0524191
299.4652223
299.6113535
300.0653131
297.9405517
299.0976113
299.6254887
300.9171735
298.1684358
297.4945922
297.570987
298.1386788
299.0136412
300.0644793
298.9705255
298.1486676
299.427984
298.8634494
298.5091615
299.0445179
300.1270879
301.426709
300.6516745
300.0257158
300.5661026
299.3935522
297.8424479
298.8760613
298.733282
299.8084376
299.0390016
299.9102607
298.8740031
298.7374059
298.6748361
298.2285709
299.2810115
299.4931402
299.6375548
299.014349
300.1058647
300.5283487
300.2534564
299.6332933
298.7778699
299.4692481
300.9121742
300.5401775
298.8628996
298.5056245
298.6955997
298.971619
300.06271
299.6871682
299.8223298
298.9691647
297.9685394
298.0843941
296.5632504
296.1397333
296.4983468
296.9048247
297.8332652
299.8229409
299.7531309
300.559231
300.3502793
298.6012337
298.3932238
300.1246251
299.9524352
301.042116
300.3114291
300.6145141
299.9728286
299.3199799
298.6937433
298.3666784
300.100965
299.8614291
300.0906544
299.9061207
300.9399414
300.2858469
300.4393419
299.7653898
297.7230224
298.4587054
301.0857999
300.7428834
300.8648995
301.3610204
299.0264312
299.0077242
298.1977527
300.5372663
300.7298475
300.1978033
300.8354723
301.0711451
301.6656533
301.8781316
300.7131242
301.0088887
300.2090689
301.962566
300.9363643
299.4639701
299.7033207
299.4941031
300.1431267
299.6132923
297.5859931
297.897602
298.063937
298.5602128
299.9681843
301.4067428
299.7751938
297.5281991
297.7539942
299.9252102
299.2074577
300.1146494
299.9505265
297.9443101
297.7276095
299.2705401
301.2319069
299.2833547
297.9121929
298.4109242
300.2343548
298.2070986
298.402823
297.9812734
297.6701123
297.6396883
298.521769
298.0127458
298.5603263
298.4605589
298.6007976
298.9028044
298.7994652
299.2745792
298.8290652
299.6393992
299.0807001
301.015081
299.186626
298.7824325
297.6777424
298.2653812
297.7528253
297.8081598
297.7964052
297.2477502
296.7530481
298.6813728
298.105138
299.414785
299.5494048
299.8481768
300.3661939
299.8608503
298.620603
297.6578971
297.0541734
296.949998
298.4735847
299.577694
299.6516838
298.0076571
299.7251559
299.0704824
299.6909248
300.3452568
298.919146
299.3005482
299.5938528
299.7931582
300.053353
300.2021768
298.7443831
299.1269235
298.7601428
300.4460049
299.5341582
299.3333473
297.3928708
297.8882853
299.263656
299.6276243
297.3990949
298.1406761
299.5249295
298.7970228
298.7578739
300.1729366
301.5736309
299.9127099
299.2641492
299.3457952
297.6201368
296.1574634
296.9733973
299.7740445
299.7236985
298.4497263
297.6824765
297.9259194
298.6225469
298.2089922
297.2219793
297.1071418
297.8512447
298.7814999
301.1486257
300.2488569
300.0766124
298.8313448
299.2012971
299.7638183
300.1930509
300.9486352
300.1923541
297.9721039
298.3404066
298.480815
299.8421323
300.0090179
299.808567
298.4527515
299.1474609
298.381386
297.6492442
298.928568
299.1085338
301.0610677
301.3511383
302.9952773
300.407955
298.769302
299.1934792
298.9073834
298.7845988
298.4460647
299.5140199
301.1382709
299.3589805
299.6177863
299.1416876
298.8541435
299.3130388
299.514314
298.0631566
297.6596992
297.7869202
299.4669089
299.3313719
300.2563579
301.3259507
301.7871972
301.8624801
300.6827104
299.8168434
297.8889782
298.3923752
299.8003818
300.1182244
299.7959907
298.7956309
298.1283273
298.6161161
298.042645
298.9162899
299.3455843
300.1996208
298.6826985
297.6420046
296.5914738
297.0234836
296.7736578
297.6682494
298.0767628
299.1104233
299.3687161
297.1478438
298.4815528
298.3776281
297.4139996
297.9623049
298.9765521
297.2797094
297.08131
297.4039259
299.4203595
299.5431647
300.2888925
299.124178
296.9420977
295.7992114
297.9681787
299.2458715
297.8367294
298.6551121
297.8775045
298.5303601
299.4076845
298.864892
297.6171249
297.5556186
296.9098559
298.9104032
298.0654521
298.6081154
297.7104338
297.5240065
297.988286
298.4422489
298.2406765
297.9677713
297.8165994
297.2202629
297.3334887
296.5901087
297.9200351
298.8979445
299.0702962
298.6476674
299.076533
297.8330507
297.8638094
298.3817204
300.6911649
299.423841
298.5332988
298.7734363
298.2780979
297.3346317
299.0136168
299.4493745
298.8623078
298.9696799
299.7146653
299.436878
298.8180671
300.4262325
299.5508381
299.877168
298.6386872
298.1181912
298.1658145
301.6971982
301.8622983
300.0941937
298.9329502
299.5022047
299.0850513
297.8843045
296.0330441
296.7986577
297.2515505
298.520281
300.526115
299.790353
299.1224486
298.6094046
299.2361754
299.4878108
300.6033854
299.2788526
300.0293497
299.3424556
300.4247232
301.5760421
300.9598887
300.3234857
300.4646211
300.0145398
299.9106671
299.2355757
298.9433687
298.2645746
297.8518096
298.5506899
300.0940816
302.5095877
301.0717739
300.5455308
300.9585477
300.6650454
299.7637731
301.4342957
300.5167755
300.2192268
300.9038607
300.8677292
300.3558112
301.1356504
301.3660931
301.6250716
300.5912753
300.1988223
299.3377376
300.0190622
300.850793
300.5531779
301.2819592
301.4404809
300.9632577
302.3871032
302.195627
298.6643786
298.5660678
298.9461387
299.8774511
300.8281599
300.5427499
299.8331583
300.5095649
299.2881229
299.4960983
298.9690518
299.5191816
300.5425418
299.905253
297.8377802
296.9422107
297.7320639
298.3148745
298.5334662
297.9566282
299.0112785
299.527737
299.4153256
297.9496593
298.5937056
299.0520041
299.1499993
299.0431271
300.4248983
301.0574924
299.8188715
300.3078189
300.6056305
299.9568894
300.2745513
300.775804
300.0622183
300.3524323
300.302681
299.7304457
299.6807851
298.1032582
297.8153001
298.9463664
298.6598027
299.5005037
297.586736
297.5842772
297.7360407
298.0075375
298.4142401
298.2089844
299.6239813
298.3930865
297.5232709
297.6000616
297.6437326
299.3528029
299.5782669
300.4586925
300.347728
300.5326159
300.5371124
299.6213639
299.4144144
298.7130524
299.3622597
298.7337582
297.9000235
297.8252389
298.8224198
298.5050982
297.8050803
297.2115017
298.0549165
298.7622528
297.6855975
296.4151696
296.5133231
298.9422572
298.1314356
300.5243062
299.7903659
300.0273636
301.319188
300.1382818
300.4373705
297.2622078
297.4628303
298.850745
298.8841985
299.2431468
298.9297167
299.0876608
298.4245202
298.9726387
299.2161383
299.5820825
298.8427786
298.2262685
300.6808357
301.0711567
300.8727194
301.1600271
300.8553045
299.0478906
297.872837
297.4325443
298.1611107
296.7138801
297.8922509
297.6482624
297.2640301
296.843425
297.6507369
298.388529
299.6819692
301.2218919
300.6445378
301.1568743
300.8744808
302.4749283
301.9253762
300.3086246
298.1781968
298.4663007
299.0327241
298.7828414
298.6870431
298.1528357
297.0439258
297.6333395
297.8942992
298.5768424
296.614341
298.1271246
299.6727228
299.0236436
298.6199343
299.1234086
298.3918182
298.9633688
301.1816813
300.5104947
299.9618979
298.2242738
298.5092215
298.6857393
298.8301149
299.6390045
299.6235844
298.836133
298.8703055
299.0385298
299.2964921
298.756429
299.6984172
298.5486271
298.620997
298.7285812
298.2983335
298.6544443
297.9297737
300.316756
300.7192323
301.0537096
300.6442622
299.2097262
299.2930126
300.0209609
300.1322193
298.3463729
300.043013
300.1281849
300.3737966
299.9850396
301.020017
300.0693199
300.1648682
298.4568638
299.9105746
300.9977374
300.1698775
299.2916959
298.8182167
298.3651647
298.2984159
297.5936415
297.5803463
298.3456958
299.0383091
300.7611819
298.667803
298.0766104
296.7384828
296.9156358
297.005051
298.3926553
298.459795
299.5682418
298.6322425
298.0498286
298.0667374
297.2219585
297.1745985
297.4945301
298.4860089
299.8268298
299.1860978
298.4417416
298.4739411
298.0884165
298.4094956
298.9360362
299.2331451
296.9829133
296.9780912
298.0261676
297.8692699
296.940693
298.1921219
297.9745285
297.771246
297.2839879
297.1191179
297.7747738
298.3854908
297.1563333
297.8303868
298.5232074
299.5180204
299.0700839
299.1844287
297.8545732
298.1267994
300.1836307
299.569738
299.184272
299.1262171
298.3344116
301.4267945
302.3391162
302.4538936
301.190075
300.4588738
298.827221
297.3134943
298.8882334
299.1008231
299.9028335
300.5401713
300.2719805
300.242314
300.7488586
301.4727427
301.1762923
300.6712812
299.3467895
301.2497697
300.4470919
299.5401414
299.176785
299.3422841
300.1916455
299.4876256
300.268215
300.2239639
300.5371091
299.1155125
299.4143221
300.3575616
299.5641291
299.1734257
297.7168026
296.8131773
298.3240744
300.4570315
299.1024729
298.1186872
299.1883339
298.1127201
297.1960671
298.4139003
298.6792807
299.3055395
299.2384993
299.1314746
299.1123473
299.6575835
299.3729888
299.018316
299.7634782
299.667286
299.3922745
298.1713348
297.7868206
298.190527
299.6814598
299.5445855
298.6599303
298.0716667
298.5291406
298.3639632
298.5103324
298.4177918
300.6979952
301.1548854
301.5155223
299.2568352
299.0839645
301.0176307
300.7151895
300.6476279
300.2897893
299.726306
299.5781343
300.4450798
300.3058921
300.2039822
299.382849
299.5016922
298.3960183
299.6220948
299.7723332
299.259872
298.1095856
298.002707
297.8770177
300.4794487
300.8840854
301.5606638
300.0746902
299.9405934
300.6238738
300.5315471
301.3596666
301.3175153
299.981902
300.8423142
300.6757481
299.7279873
299.3672391
299.0289956
299.518962
298.4303182
299.1619714
298.0566292
299.2018596
297.7058232
297.7754431
297.6254442
297.5519044
298.1193577
299.4826991
299.322822
298.3964101
299.7428762
300.2618619
299.0818932
298.7409543
299.8817583
300.2387188
299.7513474
298.6091216
299.0437512
299.3021633
301.0034597
299.1077688
300.4011452
300.6223648
299.4631311
300.6615995
299.8056754
300.0615052
301.0041636
300.8672412
299.8012254
300.3751227
299.3210065
300.3363561
297.2887614
297.7250618
297.9079379
297.2443127
297.458625
298.2412693
298.1486604
299.5645717
298.9116748
298.6530034
299.2164838
299.2721067
299.4246891
299.1206074
298.2473946
297.2392775
297.2337224
296.7904135
297.6324153
297.3815098
298.295405
298.0688008
298.5410721
299.834812
301.1700595
299.9345232
298.3503337
297.9427757
300.0168687
298.0139699
298.0941886
298.2336027
299.7761128
298.4334835
298.1935353
298.7474785
298.5179574
299.6691196
300.035338
300.0524044
301.5415454
300.6978399
301.2043136
300.0523661
299.0565748
299.0521274
299.4461093
300.7952018
298.4701431
299.2192163
299.1164793
298.4898233
297.6333586
297.8408432
298.7467928
298.8753135
300.2270146
300.3601499
299.6949165
302.1638726
301.1414089
301.0888717
300.003197
300.4468553
301.8550235
300.634169
299.9877442
298.8039744
300.0759081
299.0850404
299.0871809
298.9831569
297.6768796
300.0271609
301.8154458
301.6213514
299.8268903
298.9914527
301.0328466
302.0647068
298.7984474
299.0079726
298.7305144
299.3811322
299.9287859
300.5843107
300.0185868
298.4212767
297.3419059
298.8173334
299.9261848
299.7903536
300.1354134
299.5448705
297.9493011
298.0986713
298.7009905
299.8817425
299.1189031
298.7905885
297.5020572
296.6065616
297.3659886
296.6087736
297.1278713
296.3107501
296.9257708
298.9795349
298.9531832
299.5796846
299.6633259
301.1414417
301.5366947
301.1612462
300.7137291
301.1195781
300.043638
299.90795
300.8114669
299.1214355
298.4440204
297.0513806
297.4662876
299.0641446
298.6551395
299.1473424
298.3604756
299.98081
298.759917
298.4285274
298.6996063
297.6346024
298.9888952
299.1169531
299.5739691
297.9621847
297.4872421
297.9150988
298.5103184
300.192563
298.0484791
296.5283985
296.8446338
297.4115946
297.5907991
298.1902166
299.1372993
298.8999935
299.3802061
297.8277578
296.9827161
297.1582758
298.7405906
299.3848371
299.4349464
298.9781008
298.3357503
298.5150459
297.5670452
297.0564764
300.3340392
299.5658199
299.4864866
297.9164078
297.0209011
296.566828
297.5097239
296.7496773
298.015124
299.2116202
300.6184586
300.454602
300.2511057
299.727805
300.9489518
301.5648825
301.0588183
301.0802521
301.6200594
300.5662709
299.4378097
298.4368005
297.9953397
298.6858648
299.1719106
299.6856574
298.0473136
298.9006774
299.2878788
298.5714592
297.8568308
296.5845812
298.6205054
300.6870207
300.5357149
298.77092
298.2554153
298.8934576
299.8055967
300.1494311
298.4901899
298.0427465
298.7348058
301.0851908
300.5954602
300.5328062
300.1996118
300.175614
301.0899472
298.6714134
298.0625942
297.4332635
298.2328144
299.8964404
299.5575692
299.9861807
300.7332957
300.3797116
299.2289168
298.5063305
299.7113309
300.5090713
301.3615472
301.0109331
301.9096903
300.8317658
300.1583504
300.2059577
300.2078815
301.8171526
299.392802
296.8527464
296.3233545
298.1493826
298.4075106
298.3350357
298.0126834
298.3600025
299.7716444
299.6746337
299.3133988
299.38539
298.2086914
297.634304
298.7993731
298.5702125
300.1548642
300.8572245
302.10633
300.9724586
299.942058
298.9848565
298.2629741
297.1071319
296.8941817
297.7134318
299.3517492
299.9413072
298.8990019
298.3263004
299.5313214
299.6199381
299.6587229
298.9187093
297.9419886
300.0238751
299.9423398
300.34363
299.8682604
299.6194819
299.4464711
300.212709
298.9499828
298.1948987
296.8083789
297.8040526
296.6638967
297.8586637
297.8180715
297.9459107
297.8926729
298.2246811
298.7877193
299.8378895
300.2362083
301.6041398
300.8912272
299.0305119
299.5878901
298.6228005
299.0962703
300.2561738
300.3248962
299.33634
301.1922803
300.863473
302.1659856
300.5498543
299.9508668
298.6432518
298.2256728
300.1814201
301.1652794
302.7268158
302.4994556
301.7395394
300.2315608
300.0631399
299.9297647
301.0685712
299.4235325
299.3520679
300.2428384
300.4461186
301.2690151
300.9107996
299.7520585
301.1416106
301.1098822
299.8575939
299.6647164
299.785936
300.3411998
301.5498936
299.5827266
299.1172812
300.3618011
301.2440477
299.5823757
301.1584461
299.7958194
299.8429108
300.4468335
299.2046012
299.4600153
301.8386476
301.868284
301.3185814
298.9492966
299.1360017
299.8686157
300.496941
300.6876856
297.6004382
299.1054664
299.7337197
298.7725422
299.3200926
299.4898371
298.7854324
299.0830184
298.9865779
298.6139797
299.5000946
300.3381226
300.8602205
299.9153883
298.6666439
298.1048788
298.7671957
299.735084
301.048485
301.7537866
300.6981099
299.6859867
297.9224816
299.0523443
298.6466147
299.2875742
299.9874306
299.3985764
298.9858119
298.8855969
299.390889
298.7767382
298.7206515
298.9476497
299.848352
299.435263
298.507746
300.6484661
299.0082712
299.0644235
297.9738305
298.28502
299.6039463
298.1819798
299.3903925
300.6543169
300.8414779
299.4775697
299.2520782
300.0977726
299.4927705
298.9500262
299.4880675
300.1787364
301.0489252
300.5023464
300.2170192
299.2970964
299.7653094
300.1119369
299.4891771
300.5485157
300.3420747
300.5348713
300.8742687
299.7161965
297.4998552