/*--------------------------------*- C++ -*----------------------------------*\
| =========                 |                                                 |
| \\      /  F ield         | OpenFOAM: The Open Source CFD Toolbox           |
|  \\    /   O peration     | Version:  v1706                                 |
|   \\  /    A nd           | Web:      www.OpenFOAM.com                      |
|    \\/     M anipulation  |                                                 |
\*---------------------------------------------------------------------------*/
FoamFile
{
    version     2.0;
    format      ascii;
    class       volScalarField;
    location    "0.01";
    object      translationalT_mixture;
}
// * * * * * * * * * * * * * * * * * * * * * * * * * * * * * * * * * * * * * //

dimensions      [0 0 0 1 0 0 0];


internalField   nonuniform List<scalar> 
5120
(
300.2990117
300.7738513
300.0389133
298.8142011
299.5154501
299.8101402
301.5712528
301.2093873
301.0179
299.1020471
299.4637151
300.4762762
299.082981
299.3257823
298.0555733
298.3882299
299.5050681
299.3466656
299.9130785
300.3900124
300.3692004
300.4806821
301.8879299
300.4440583
299.1481737
299.3898447
299.8150431
298.1677788
298.134381
299.7401893
298.8494575
300.5132135
300.2825452
301.5085455
300.3063396
298.1766034
297.6510993
298.344583
298.5515842
299.7572215
300.5108519
301.4053497
300.5663137
299.2737664
299.7111478
299.7774478
301.3441398
300.9915883
300.2572562
299.6865715
299.2777928
299.6499273
300.3256252
300.3256589
300.9593794
301.2340714
301.1291395
300.8956241
301.724848
300.4318583
300.4336439
298.8405896
298.6254628
298.7083351
299.2791544
298.9754843
300.2423678
299.3584907
299.8866293
299.3277676
298.023832
296.7902365
297.5630585
297.6815649
298.4934824
299.4469054
299.8937194
298.5096819
298.793413
300.3772696
298.8512727
297.9959695
297.9975797
297.3416722
297.2229119
298.8419048
298.6741033
298.1075786
299.2691334
299.1921289
297.5517813
295.7857812
295.3236506
296.0837663
297.8593417
297.5407287
297.0818661
297.1196274
297.0845702
298.3829638
299.6069742
299.7249602
299.2487084
298.8279112
298.2477295
297.9126229
297.3941192
298.4680081
298.2229219
298.3593847
299.7998457
299.7829821
298.3407878
296.9613126
295.8830629
296.4365543
297.1206908
298.1116035
297.1413196
297.2382754
300.090006
299.7089382
299.5670548
299.3000151
299.2053762
300.0411283
298.5949118
298.7029536
298.5393523
298.1675081
296.6584406
297.1904386
297.835625
297.8178654
297.6659886
297.286647
297.1063719
297.4426062
297.5226641
299.5823109
299.16552
298.3523678
298.2197307
298.390892
299.8165047
298.9762527
298.6542148
298.22623
297.5828077
296.7813206
297.4157775
297.4675404
297.7919617
297.862544
300.5669058
300.5312175
299.1460255
298.7992022
299.8827038
299.5844175
298.4530869
298.7469467
298.2037647
297.7299199
297.2863398
298.2731676
298.5884658
298.4920193
299.6990762
299.9161953
299.0073748
299.1668996
297.3743143
299.3708749
299.0756223
299.4001467
299.748976
298.6656421
298.182476
298.4743673
296.0100877
295.6559118
296.6739276
297.1127933
298.6774656
299.7672185
299.6467572
298.3399717
298.4620786
298.761543
298.5773871
299.0914853
299.9805305
298.7555729
298.261692
297.6965872
298.1611455
297.8260205
298.4199046
298.1527937
299.6007021
298.9153621
298.4580389
298.5969021
297.9891257
297.8739455
297.0472713
298.6164279
298.8343441
297.9375405
297.2363727
296.1073354
296.1042425
296.0604274
296.1515954
297.3791544
298.941317
298.1303864
299.4280857
300.088454
296.5470967
297.8099199
298.2460254
298.4147368
297.8745138
297.3832237
297.4886206
297.2314264
297.4691401
298.2875391
297.2833128
298.4937587
298.2968401
299.0178671
299.3056203
298.0433032
297.0163176
298.2117757
297.9181909
297.9490037
297.8799854
298.6654266
298.798685
298.253975
298.3572941
297.6764821
297.8741576
298.4434336
299.4331395
298.4806094
298.0088932
298.6198108
299.1434786
299.673129
299.2334961
300.0704922
300.1708527
300.3534943
298.231567
296.9108597
300.9161289
300.507817
300.1505107
298.5154897
298.0651275
297.8981081
299.1581765
299.2871962
299.0404011
298.8678679
299.0252833
298.9544016
299.7326332
299.0728429
299.3881129
299.6264583
299.7486289
299.5596714
298.6233087
300.1293747
299.0524726
299.8406876
299.4809902
299.6574051
300.467727
301.1940603
299.5808993
298.3504066
298.6046929
298.5990822
298.2803885
300.0387716
299.4665894
297.9660034
299.3685505
300.2454701
300.0303456
297.7595413
297.3119481
298.2931306
297.8948984
298.25161
299.3134492
298.7224776
299.0243955
299.5340257
300.2388775
301.8205733
300.2048335
300.9811644
300.9424025
300.5843112
299.798297
300.4083545
300.7094867
300.1281455
298.3256662
299.8071301
299.4683396
299.8235989
298.2629034
297.8845386
297.4609384
299.11105
298.1542376
298.5619898
298.8804803
300.6819674
299.75143
298.8098251
298.5459281
298.1958249
297.4153344
297.053718
299.8011698
300.7474168
299.6400946
299.3203528
297.5839529
298.4825746
298.2358018
298.4953766
299.5232178
299.5892717
300.6219981
299.5347104
297.963388
298.5188582
298.859186
299.3434518
299.6157733
299.8723027
299.7614165
300.6162323
299.7551903
299.0778068
298.0134767
298.1945612
298.0584969
297.1468614
299.8293867
298.5607052
299.3419769
300.943047
299.7024786
299.1310365
299.0674189
299.6481159
299.0189854
299.5155072
301.0947425
300.7901915
301.7689381
300.112251
299.510486
298.58684
299.9999779
299.4599007
300.0564805
300.7651108
299.8878237
300.0411889
298.59452
297.9960571
299.8615117
300.3585194
299.3144406
299.6939068
299.0074933
299.1638614
299.3326078
299.6465611
299.7173366
300.4941545
299.9507323
298.9023397
300.0633913
300.0773139
300.5087787
298.4822035
300.0675541
300.5612675
301.3971617
300.5727944
299.4019057
298.9200443
300.0686565
300.2289707
299.86235
298.6111267
298.7994886
299.5625027
299.0011932
299.5600124
299.8223109
299.3038632
298.2674097
299.2994019
299.6195902
299.7589022
297.5604724
299.2986659
300.2852409
300.1033651
301.1991143
301.1729232
299.7785825
299.0236851
297.8810429
299.1441299
300.5814036
300.4428325
300.0538564
300.0211614
299.5187604
300.0975172
300.0858326
299.7488227
299.9832438
299.672486
299.2858064
299.8949737
300.0770079
299.9436395
299.5502664
300.2090536
300.4948381
300.2306607
299.6571995
299.1422514
298.5662062
298.3391184
299.671757
299.3052417
299.258116
299.9098674
299.1473936
299.8035743
299.5839008
299.267042
299.7568865
298.0808042
298.4896769
299.3296659
299.8181221
301.7097497
299.8852648
300.7799927
301.3500402
301.2866421
300.5504191
300.201292
299.0902795
298.9622672
299.3307555
299.3728656
301.551507
302.498511
300.581579
300.2506993
297.8197905
298.7476268
298.7358079
297.9300052
298.2981433
297.0764811
298.4993516
297.9574723
296.7805688
297.2238798
296.7018741
297.4724878
297.9050757
299.7905937
299.8347986
298.9626406
299.6798453
300.0674688
298.2760455
298.2453839
299.0116568
299.7038087
299.8946537
299.613789
298.4992359
298.3844018
297.5157315
297.0510686
296.7885995
296.5449914
298.1833722
297.085459
297.473696
296.6444305
297.1837122
298.4105563
297.6164696
297.1997913
298.1651833
297.9513306
297.7461536
298.4676976
296.9313972
295.8357195
297.0888168
298.6549813
298.2834248
298.1561067
297.6143524
298.7713714
299.1416048
298.7303379
297.0810653
297.8488974
298.3634308
298.0441008
297.40079
298.7532093
298.7694712
297.5873942
300.3957865
300.0002637
298.9753295
299.1018102
298.0653329
297.8172501
297.7831233
297.2455325
299.0187094
298.2769159
298.584134
299.2093048
299.395573
297.8015269
296.563394
297.3392209
297.6431857
297.3912951
297.9669678
300.6779176
296.874063
296.5227866
298.147661
299.1970435
298.9566149
299.5484767
299.7763302
298.2225644
297.1548054
297.9101827
297.7511483
296.86919
297.1078242
297.5061422
297.6423731
296.4825598
297.7816238
298.1818103
298.370168
296.9566435
299.1309541
297.7083308
297.4037322
297.9883549
298.2400442
299.2539663
298.1163844
297.2547705
298.5409747
298.949724
298.4884775
297.9328246
296.7112052
295.3827955
296.7019511
297.7236583
296.8106044
297.125535
298.3714052
299.2941555
297.7883823
298.1781633
297.1793872
297.6402455
298.9740399
298.5359685
298.4681346
298.8781974
298.6451973
298.3158522
299.4131494
299.4159778
300.3575488
300.8868587
300.0617034
299.6773472
300.3134685
300.1092332
297.5676658
298.2171421
299.0617076
300.0161104
300.225922
300.9465544
299.665336
298.6949154
299.4032562
299.5473522
299.7607014
300.0072699
298.1605436
298.3607177
299.6720172
300.2660192
298.8452445
297.7689306
298.6814493
298.1371092
299.8004685
299.6577124
299.2396632
299.1704745
298.8184193
298.722187
299.8929957
299.1785036
298.1891059
298.1073249
297.9412858
299.279199
299.6078023
299.824725
299.3526322
298.5186268
299.0901225
299.008936
299.248566
298.8681217
299.3294119
299.5170862
297.9242822
297.9123431
300.3476201
300.2368402
299.4364628
299.8775248
299.6146427
299.2443117
300.777618
299.0642184
299.3298218
298.7333348
298.5812241
298.4135418
299.7083486
299.120225
299.9006
299.8328986
299.9024122
298.4817861
299.4276805
300.3648582
299.7043
299.4890559
300.0681264
300.9446662
300.3350989
299.0370846
299.105982
300.0200391
299.251275
299.9513831
299.0342428
298.473277
298.0939315
299.2533594
299.9254685
299.6227751
298.5417311
298.4421209
299.5210445
298.8813196
298.3523134
299.5947802
300.5530702
299.9508483
298.8879329
298.9926948
298.4411775
298.279886
298.8218752
298.4465737
298.1698121
298.4630751
298.1975052
298.8453506
298.9702239
298.9324624
300.1704446
300.1155557
298.7656336
299.4242719
299.1677931
300.0680434
299.3917763
298.061771
299.2693982
299.2928445
299.9812748
298.6387585
299.2264518
299.394804
299.7965564
300.1685168
300.4752443
299.4330351
298.9471407
298.3583632
298.2104718
297.5842714
300.5128857
300.2440003
299.4764089
298.5679333
299.8471621
299.4326401
298.3171584
297.2154166
297.7200816
297.8642871
298.2646669
299.2927994
298.6526472
299.14421
299.0792133
299.6838358
298.9862546
297.7827496
299.0354748
299.5243455
297.5491232
298.6107447
298.7722315
299.0562133
298.2641285
298.1524081
298.8627449
298.657025
298.2901753
298.2504953
298.9086996
299.5624682
300.4573475
300.1477626
298.4271462
298.3402012
298.5081874
299.1556548
298.9440848
299.2781722
297.7537784
299.0197618
300.0219859
299.2694944
298.8093186
299.1734042
298.9328262
300.1723418
299.6881661
299.2171896
299.7103399
299.7335333
299.1122402
298.5177021
299.2751396
301.0429925
300.1953264
298.5228627
299.1885877
298.643865
300.7197569
299.41607
299.8105091
299.1933008
298.8224504
297.2128587
297.7869842
298.4039078
298.9518163
298.3384636
299.266
299.5248535
300.1656354
300.9843181
300.3906517
298.3682598
298.1812339
298.3261011
300.2468103
300.6772539
298.6966471
299.0462145
299.9937821
299.273974
297.6762155
298.1525701
298.8033191
298.4915174
299.0210602
299.4603232
300.271893
298.1365469
298.6907296
298.9114966
299.2058445
299.5310049
300.1087443
298.7766617
298.2530013
298.4404326
300.4440012
299.8123032
299.6588365
299.7059335
298.5282854
298.6199687
298.98275
298.2865527
298.3277573
298.5109326
297.7061899
297.9811744
299.4892272
297.9679748
298.1249641
297.7966639
298.212479
299.277977
299.4284694
301.0183415
297.9050041
298.4313956
297.8131373
297.6781574
298.7268273
299.898949
298.5731127
298.9029691
297.0828004
297.626872
297.4620709
298.4525403
297.2264771
297.5393961
299.0647981
299.3015817
298.6023749
298.5915695
299.1371829
299.2402823
299.287324
297.4139166
297.2144721
298.1320116
298.1209083
297.0343174
296.9494138
296.2739625
296.2548953
296.4684797
296.0600153
297.520631
296.8235586
295.0081677
295.9997257
296.631284
297.1607199
296.8675046
297.7107253
297.4455307
296.5332035
296.8272549
297.9283991
296.6675088
297.5329245
296.6599863
297.5203327
296.968122
295.9954287
296.1864752
298.8127403
297.2294309
296.4271247
299.6767298
299.5399493
297.9679496
297.7311763
297.869104
297.805798
297.0097957
299.9323964
299.612422
299.57931
300.1230869
297.9089629
297.726943
298.69731
299.6436796
299.9235088
299.7689023
298.6980485
300.2708359
300.1569406
300.3638165
301.2083183
300.7173934
299.4299232
300.643911
299.920606
299.4099956
298.0241248
298.1624976
298.96977
298.5016046
298.9412798
299.7248429
298.6972636
297.9095385
297.5867635
298.8230427
300.0951302
300.3008234
298.9962608
297.6022192
296.008012
297.348225
298.6780271
298.9843235
298.4640006
297.7586516
301.0806934
299.6029449
298.6363531
297.9592941
298.393539
298.5793527
299.9092146
298.8877849
298.1877514
299.100913
299.4600977
299.3931676
300.2405779
300.6595151
299.3823866
299.0017512
298.7063582
298.8592281
300.6700297
302.058966
298.9323735
299.4317899
297.3202797
298.5318069
297.8806389
298.3975797
297.5935562
297.0260114
297.6923134
297.300146
297.2462513
297.5961634
297.8991447
298.9484116
299.8000319
298.5916847
298.3534341
298.0596717
297.7560157
298.9613852
300.5465838
301.5807916
302.9380154
302.6321845
301.3121263
299.7113619
299.7609963
299.9786707
298.8928091
298.5008746
298.9597054
297.5423839
298.5763775
300.0155146
299.865744
300.2254257
300.6280277
300.2621458
300.1995494
300.8529678
298.4107999
297.1515825
297.8938987
298.8446644
296.837487
297.9104559
298.3581246
299.2760175
299.6883321
300.8801686
299.5728407
299.0534087
299.8033178
299.7205374
300.3369592
300.4672235
298.4608502
298.6908866
298.2456755
299.6731718
297.8911895
298.5659238
298.1379495
297.8739009
299.6321474
301.1196184
301.7464885
300.0258026
298.1444192
298.2857557
298.2342777
298.3484314
298.516558
299.5655226
297.7111762
297.0227881
296.9684661
298.131967
298.7212914
298.1208121
299.1291454
298.9780839
298.9146156
299.60146
298.657227
297.8738312
299.9224795
299.1091923
300.4380844
299.6549338
299.4503071
298.9586079
299.0541252
298.2088347
298.5293925
299.1897925
299.0641566
298.8587169
299.0651806
299.2453967
299.5364815
298.7427556
299.2114745
299.9316533
299.9127567
298.2455223
298.9154509
299.1603571
299.9313346
300.2590231
300.3078855
301.3004912
300.8080924
300.6212976
300.3982536
299.5221428
299.5452169
299.9336289
299.2707891
299.339213
300.849394
300.6096999
299.1390143
298.2161031
299.3475403
298.4327342
299.8883177
300.0004162
300.704311
300.8594426
301.1105207
300.1770223
300.1775975
299.9444711
301.7815029
300.7353884
301.4734874
299.9469092
299.2215075
300.1869173
299.4484815
299.5693214
297.898325
299.6889132
300.1556179
299.6866487
298.8325055
299.7127791
299.1779895
298.9685887
299.0085232
298.9525548
299.7211726
298.5919777
298.4690633
299.6791183
297.9961815
299.6203984
299.0448612
299.157174
299.3694192
298.318157
297.8297461
298.835802
299.1675411
299.0061588
299.9690747
299.775673
300.4459314
299.5489314
300.4423084
300.6752928
300.0712665
298.946722
298.0412759
296.4315299
297.6313871
297.2926784
297.3636769
298.4776328
297.275571
296.4782402
298.6840761
298.3917456
298.3282281
297.8509406
299.029541
300.4583096
300.7793807
300.5234956
299.0813737
299.6282061
299.4174391
299.1180019
298.4345066
299.7221456
299.8371162
299.539262
298.3857256
297.0913771
298.848879
299.3036825
300.2347457
299.7595866
299.2830442
298.2963248
300.1318223
300.282314
298.7126163
298.5669846
298.1019162
298.5638815
299.9089164
301.3932765
300.2279477
299.231745
298.5899295
298.5139885
299.0727104
298.9206137
297.7920663
298.9063186
298.1567633
297.9489145
299.044748
298.4166817
296.2364879
297.6765314
298.0973035
296.5050756
295.777444
296.4117553
297.7517026
298.1989315
298.8279803
298.7188902
296.2233193
297.0289471
297.3041207
298.257581
297.9924552
297.9438758
298.9619911
299.5662151
298.6375243
298.4527757
299.4411814
299.5751558
300.8046651
300.6870563
300.4682326
300.3190435
299.2954923
298.8270635
298.8627309
298.4488884
299.0336037
297.7431209
298.0859815
298.2502693
299.8311142
299.8561898
299.7311741
299.5017351
300.0609162
300.746744
299.5978406
299.5015583
299.6873502
299.9224871
297.9872266
298.9168614
299.2986493
299.5641611
297.9179929
297.7787586
296.964066
297.5148695
298.0852875
299.3963269
299.0088255
298.3393531
298.7521259
298.1275608
299.1415364
299.6879931
300.11595
301.3052763
300.9032403
299.5917652
300.0210624
299.2743792
298.4620146
298.8013541
298.3161766
299.5821971
299.5194724
299.7810998
298.6922082
298.5163496
299.1793788
298.4073891
298.9198058
299.3970603
299.6438519
299.3041003
299.6600536
299.8484614
299.8424788
299.8893546
298.4562577
299.8741304
301.4013092
301.1414361
299.1871535
299.353506
298.9739729
298.7442091
299.6860221
299.9509621
300.2367881
299.7246681
299.3349418
298.227357
296.8883399
296.3539913
297.4634807
298.011063
298.4565438
299.8633525
299.8910877
301.0882109
300.1600744
298.733351
299.0115067
300.427095
299.7728016
300.9165935
300.2263489
300.2632075
300.2511115
299.3680371
298.6335477
299.010994
300.2018021
300.3704109
300.3256674
299.8628646
301.0604579
300.7494665
300.4243375
299.3707208
297.3819899
298.3939751
300.8120221
301.0556327
301.4547952
301.3217962
299.4352369
299.6902346
299.5673491
300.9264592
300.6384308
299.3997458
300.0719774
300.4527635
300.9456651
301.8495264
300.2856729
300.131838
299.8003135
301.9638081
300.9807422
299.8587762
299.3676407
299.2865605
299.7817545
299.6915649
298.2513294
299.0885342
297.6497629
298.0094552
299.1927212
300.9630422
299.2907655
297.7181512
297.7153086
299.8593981
299.40359
299.9860091
299.3275375
298.3854843
298.2699034
298.9874615
300.7195589
298.8696722
297.9690867
298.2549064
299.1238509
297.9293661
297.8915114
297.9922182
297.838939
297.4461019
298.1621294
298.4006218
298.1542138
298.3848314
298.3310888
298.872454
298.0980597
298.6344683
297.9440425
299.1865949
298.9595874
300.815727
299.4972376
298.9390234
297.0796997
297.3064702
298.0272246
297.6947159
297.8737931
297.7018116
297.6279076
299.0404819
298.4308513
299.7307572
299.6329086
299.9249145
300.9707596
300.0126203
299.5715579
298.7813425
298.2230699
297.8714248
298.817398
299.6739883
299.7487678
298.2011139
299.6300369
299.2178851
299.5267592
300.0748767
299.442679
299.3001615
299.2298988
299.7889816
300.4794252
300.6103456
298.9482545
299.7853213
298.930077
300.2881705
299.4853508
299.3832337
297.7838837
298.2521184
299.0072088
299.6511409
297.6356571
298.1729482
299.5660338
299.359171
298.9429322
300.4113413
301.5293892
300.4463259
299.6796092
299.8335483
298.0494802
296.7999064
297.9916038
300.4559303
300.1577154
298.7432301
298.6882344
299.2593849
299.4876736
298.8467363
298.1943664
297.9833692
297.9816649
298.4915981
300.9282102
299.9163174
299.2445174
298.7025583
298.9935651
299.6603334
299.6474651
300.7153259
300.753802
298.8267616
300.0545254
299.6887538
300.2478428
299.9156531
300.3117276
299.7005005
299.0213101
298.5912631
298.1246052
298.9148337
299.5475453
301.3640665
301.0681976
302.7986185
301.9229685
300.5747854
300.0305509
299.42805
298.9635093
298.4215319
299.3995954
300.0246506
299.3304977
299.5229349
299.1210464
298.970394
299.127535
299.0455368
298.2164714
298.3833087
298.6973181
299.3050339
299.7305438
300.8080988
301.1792241
301.4555626
301.8084794
300.2808106
299.4754874
298.0957338
298.8813933
299.5322018
299.5000508
299.6555216
299.2081802
298.9012371
298.5023868
297.9904511
298.8939441
298.9608418
299.5943114
298.4750252
298.8813763
297.5936364
297.3429054
297.0471175
298.0129195
297.5944428
298.0962115
298.1790477
296.6115563
297.6649036
298.5146561
297.449878
297.6047223
298.0530173
296.943116
297.1736234
297.6870108
299.6703288
299.7428208
300.7109039
299.959214
298.2830076
297.7515034
299.0220714
299.6676139
297.7885104
298.2500362
298.1094713
298.1361321
299.3373805
298.3493611
297.2125249
297.3450504
296.7519151
299.6730152
299.1199988
299.2844373
297.2799154
296.6741319
297.5077044
298.5654955
297.8889762
298.2988085
298.2804529
297.8113064
297.928049
297.8407099
298.3041882
298.3793969
298.2567925
298.7302634
298.8664006
297.820802
298.3964449
298.5592854
300.4779193
299.9379688
299.8735681
299.5945902
298.8310827
298.4353202
299.9262671
300.2882914
299.4366104
299.5795836
300.1595088
299.6825163
298.9136537
300.714396
300.1426447
300.2206642
299.6378769
299.26517
298.8710973
300.4735756
300.5878402
299.8781396
299.09869
299.6367506
299.403256
298.5068412
297.378989
297.793709
298.5689933
299.8132325
300.8841993
299.7753544
298.9351262
298.8769249
299.1690415
299.7357849
300.4569474
299.0716527
299.5054827
299.9137043
300.0436159
300.4930488
300.4221354
300.0033408
300.3765002
299.2616259
299.8931885
298.7580632
298.6969483
298.5085694
298.7171383
299.6979637
300.7784914
301.9095677
300.4754413
299.6601064
300.5607898
300.7707328
300.0581666
300.7806086
299.6674323
299.6225762
300.4030186
300.5198553
300.336856
301.3357219
301.4872322
301.7445064
300.8681416
300.5080324
300.3370168
300.8326192
300.528613
300.0487002
301.1419408
301.4923814
300.9109134
301.9231662
301.3400483
299.0820145
299.1411393
299.5891102
300.4476742
300.8869361
300.5646253
299.6769402
300.316922
299.4882769
299.4333237
299.3959053
299.7938001
301.153377
301.3434663
299.6994024
298.9548136
298.6242487
298.7481779
299.3491199
298.2765903
299.6290352
299.8770937
299.4124534
298.5878012
298.923272
299.438321
299.5696262
299.0085275
300.3042277
301.5028256
300.0605704
300.5253733
300.759069
300.1622216
300.3858341
300.6936614
300.6993075
301.1206262
301.610424
300.7834937
300.0050817
298.2002041
297.8405782
298.7275258
298.4875999
300.1840997
298.5734547
298.266844
298.3325764
297.939564
298.0145117
297.3061838
299.0252801
298.4942197
298.4579525
298.169136
298.0615873
299.4055206
299.4211978
300.2532298
300.034202
299.9459841
299.6001824
299.1334053
298.8485479
298.5375219
298.9351177
298.752442
297.8711753
297.869128
299.0529573
299.1751063
298.5718692
297.8157095
297.8914904
299.0389301
297.8938255
296.8062413
296.2311111
298.7228289
298.0991244
299.9555121
299.3682633
299.7811049
301.6096044
300.3649149
300.6703363
298.3506643
298.0590365
299.1567841
299.2040905
299.3808673
299.2235885
299.4537332
299.087787
299.0000817
299.0637449
298.9864189
299.1470976
298.3515718
301.054513
301.0879302
300.7660995
300.6745231
300.5207569
299.2457176
298.9075041
298.1592903
297.9381276
296.5915953
298.0622859
297.7102429
297.0175333
296.5771922
297.2717207
298.1320186
298.8147564
299.6031815
299.1265834
300.9837979
300.768974
302.5859451
301.7485303
300.1414141
298.1728071
298.7256223
298.5513349
298.3729532
298.5297916
297.6199793
297.4141741
297.6905483
297.6384237
298.0335248
296.8039068
297.4708965
298.7073104
298.7482866
298.8264321
299.0364317
299.7743429
299.5885463
301.6293618
300.6685583
299.3600175
297.7133029
298.6925776
298.8180656
298.4355064
299.107578
299.0804602
298.7240551
298.616607
299.0546639
299.162212
298.7652332
300.1110927
299.4161149
299.7839274
299.7438728
298.5019454
299.1274606
298.4533479
299.9429833
300.2553629
300.8600777
300.2065131
299.1703792
298.9479612
299.8336055
299.7778964
298.3821118
299.9440259
299.4100075
299.9289405
299.697219
300.2916782
299.8441034
299.9308847
298.5632515
301.0904514
301.313773
301.017332
300.0627574
299.54036
299.2738301
299.4268423
298.4200087
298.1244508
298.3566845
298.4242649
300.3086772
298.9440569
298.9986258
297.7003348
297.8510267
297.6779781
299.0221309
298.9969881
300.4845451
298.9055242
298.7998807
298.5288235
297.9916718
298.1688884
298.3378709
298.439856
299.121828
298.0494911
297.2709925
297.9799399
298.0247831
298.1498954
298.723564
298.9422533
297.3730576
297.6133944
297.9110625
298.0592528
297.818935
297.1336107
296.9518372
297.033769
297.4397197
297.4454443
297.5450273
298.4538225
297.3513693
297.8593339
298.3024879
298.7282566
299.2889959
299.6736168
298.166087
298.6473489
300.0380685
299.2927793
298.4777863
298.4774497
297.5063324
300.0378716
300.9703359
301.6804978
300.4483281
300.5563666
299.1175477
298.4275895
299.441349
299.5509559
300.4347388
301.4140288
300.2285272
300.2775185
300.8416091
301.1012144
300.5905126
300.0903998
298.870217
300.1700034
299.4532226
299.139278
298.9427762
299.2014516
299.9762262
299.1138502
299.7897126
299.9088297
300.4448698
299.679351
299.1243183
300.3257711
299.7479721
299.383207
298.2069308
296.9398921
299.1283068
301.6025254
299.4495241
298.2053735
298.920523
298.2568211
297.6011722
297.9972545
297.8315498
298.0619371
298.0778514
298.3073766
298.2383588
299.7366541
299.7871203
298.8799128
299.3264792
298.9006483
299.4926064
298.6470657
298.4381734
298.3365719
298.9788631
299.5695304
298.7372623
298.2219121
298.4530773
298.7133266
298.3804494
297.9895609
299.7780754
300.8251332
300.6585299
299.1444263
298.9091931
300.7149782
300.354626
300.6567366
300.1833823
299.2923936
299.7267186
300.4807598
300.4620529
299.6173384
299.1431019
300.1631462
299.1099511
299.5982207
299.7124784
299.4377268
298.5626598
298.5894435
298.7423028
300.2211818
300.9632014
301.7882737
300.9551897
300.7122655
300.9681888
301.2674693
301.6279484
301.9071288
299.7544629
300.4724182
301.4962373
300.2057311
299.7828164
299.5804447
299.9535571
298.8187464
298.7855837
297.9959672
298.8438521
298.0039689
297.9091625
298.2515146
298.7308314
299.7664578
300.6493485
300.1005996
299.3246539
299.7303876
300.5513359
299.7570716
299.6179489
299.7513113
300.0194886
299.9100486
299.1174845
300.0389088
299.9406647
301.0554048
299.6106696
300.7893622
300.8125851
300.1039876
300.5794082
299.9527771
300.1315789
300.9475446
300.9128745
300.0761669
300.1673015
299.3371013
299.7847448
297.6042217
297.8075684
298.1921175
297.1739289
296.7136283
297.3004969
297.180497
298.4153648
298.7053532
298.1006754
298.8103626
298.2936592
298.3306461
298.5026493
297.9390626
297.2024673
296.9617052
297.6229987
298.5713169
297.9908678
298.9566523
299.0220136
299.360443
300.245866
301.1771635
300.5262598
298.4345346
298.4113488
299.5016563
298.53714
298.6347619
298.1638258
299.4206519
298.6103565
298.0694915
298.7677161
298.271237
299.0098516
299.1566267
299.2554985
300.5130592
300.7480011
301.1980931
300.9241875
299.4650592
298.8505189
299.5172837
300.3051557
298.591578
298.6974873
298.6950144
298.2436321
297.809765
297.3919838
297.8359282
298.164312
299.9319695
300.3249696
300.0703983
301.3381592
300.3384555
300.4688514
300.1262018
300.1741611
300.7838125
299.6707228
300.0442084
299.2248896
300.248436
299.6776779
299.6693042
299.1122042
298.2819911
299.6914389
300.8926889
301.1143948
299.009114
298.737481
300.082927
300.7473879
298.9216224
299.1000296
298.1282617
299.136018
300.4253381
300.9298712
300.4805584
298.5615469
297.9201546
299.0657539
300.3220061
300.0920213
299.6347234
299.1545243
297.7740958
297.9590022
298.6911377
299.1916553
299.1310956
298.410032
297.5519626
296.8238329
297.8296831
297.2655823
297.7323932
296.9695514
297.3544195
299.418803
299.6964579
299.5782862
299.8538214
300.6494631
300.7343738
301.2995149
301.0714706
301.7377929
300.860538
300.7260077
300.422116
298.577007
298.146371
297.912411
298.471939
299.5625882
298.9818355
298.7775985
298.3819397
299.986671
298.7281027
298.9383264
299.3727448
298.2602727
299.0337447
299.4566948
300.1955703
299.3438627
298.0685593
297.8860911
298.569594
300.1282316
298.1664264
297.0834185
297.5837678
298.0775092
298.0937984
298.3399255
299.3969761
298.8551476
299.5503086
298.0850401
297.506634
297.5403302
298.8941567
298.6800032
299.1664087
298.8159749
298.7230172
299.3028879
298.2809665
297.0091481
300.0588347
299.0178269
299.0089128
298.2715897
297.1754088
297.8028009
298.6369492
297.9502663
298.1454194
298.7392424
300.3057495
300.2587582
300.2222829
299.7912038
301.1827155
301.0443258
300.6670227
301.2724502
301.9845194
301.4144969
299.9498655
298.9228245
298.2196981
298.0003644
298.8610628
299.3089978
298.223001
299.3317666
299.5769515
299.2380483
298.5913548
297.5154186
298.8681999
300.9874606
300.9478817
299.6272561
298.8815598
299.1544728
300.0410722
300.5024888
298.9383387
298.7306229
298.6400498
300.5555431
299.756707
299.619544
299.5990438
300.0925224
300.3191913
298.1728671
297.9611401
296.6986105
297.6542543
299.2177006
299.2247917
299.7366612
300.2732417
300.2730573
299.1028795
299.0478989
299.5494114
300.7389131
301.5831323
301.7813656
301.6379896
300.7736442
299.8991362
300.3013669
299.8076873
301.1361051
299.2609015
297.7828306
297.6625641
299.0174245
299.0994634
298.2730829
297.9753644
298.8964773
300.115997
299.3918898
299.8576054
299.7523238
298.5130187
297.9227246
299.1821237
299.8648489
300.1024637
300.9286871
301.710875
300.1452842
299.5599897
298.184289
297.4922319
296.6667934
296.6965242
297.3650844
298.8034754
299.2104788
298.6345107
298.3078307
299.7290089
299.6417794
299.2591983
298.9214458
298.4635847
299.7099782
299.3774414
299.5489724
300.2563626
299.7601841
299.7640046
300.0635097
298.8972763
298.5786488
297.968745
297.7729193
296.520218
298.0000723
298.6144853
298.5019024
297.5017768
298.4963449
298.6785915
299.576534
299.9681253
301.4639961
301.203376
300.2532586
300.3229921
299.6796262
299.6499621
300.4102628
300.7288697
300.0734608
300.914262
301.089144
302.2199004
300.7074823
299.9414061
298.4388826
299.0720686
299.6210134
300.446698
301.5285429
301.8057525
301.1660545
300.4691734
300.1233037
300.38508
301.3712541
298.988353
299.899663
300.6603316
300.2274514
300.6031893
300.2028509
299.8070689
300.5074582
301.340915
300.0718077
298.5969254
298.7351669
299.5559585
301.0792254
299.3143788
299.0881987
299.7644216
300.3680967
298.5815834
300.176803
299.7776287
300.126386
300.0584633
299.2813577
299.0457978
301.0482414
301.110835
301.0401853
298.5312354
298.7084338
299.9391472
300.1333954
300.419146
297.9036175
298.8050095
299.3954164
298.3558649
298.3843124
299.1130716
298.547758
298.4436382
298.2380064
298.5522737
299.0051258
300.0031707
300.1081945
299.7296924
298.6056344
298.3638965
298.9387397
299.8829743
300.438048
300.8534445
299.7753186
299.6512982
298.3109299
299.3751289
298.5761933
299.4027994
299.3587035
299.0451907
299.0252187
298.7670799
298.5150716
298.2236837
298.3097672
298.0794161
299.0230763
298.9012434
298.2353838
301.1256244
298.9063711
298.9824042
298.4869795
299.1967787
300.397963
299.0526785
299.5680437
300.1813311
300.7987747
299.7955589
298.8355488
299.6221962
300.2879991
299.7006538
300.1718465
300.7001383
300.7466996
300.6506153
300.8772282
298.7096501
299.4482114
300.0450503
300.1837895
300.7967511
300.4258981
300.2360779
300.5953801
299.63101
298.2644504