/*--------------------------------*- C++ -*----------------------------------*\
| =========                 |                                                 |
| \\      /  F ield         | OpenFOAM: The Open Source CFD Toolbox           |
|  \\    /   O peration     | Version:  v1706                                 |
|   \\  /    A nd           | Web:      www.OpenFOAM.com                      |
|    \\/     M anipulation  |                                                 |
\*---------------------------------------------------------------------------*/
FoamFile
{
    version     2.0;
    format      ascii;
    class       volVectorField;
    location    "0.01";
    object      UMean_mixture;
}
// * * * * * * * * * * * * * * * * * * * * * * * * * * * * * * * * * * * * * //

dimensions      [0 1 -1 0 0 0 0];


internalField   nonuniform List<vector> 
5120
(
(1951.912354 1.332570034 -0.1837454221)
(1951.634763 1.839984953 0.8673423573)
(1951.287894 -0.1382950839 1.79992103)
(1951.854454 -1.693866049 0.5139652995)
(1952.33642 -1.695312738 2.047563903)
(1952.943739 -1.235574021 1.074176624)
(1952.82474 -0.5262748366 -0.0169703209)
(1952.987707 1.104223891 0.9576712008)
(1952.868841 2.932209474 1.523977332)
(1952.526372 0.2214033751 1.817504223)
(1950.819298 0.5711597205 1.515802834)
(1951.825413 0.3863294474 0.5059938649)
(1952.582234 0.6192101835 2.222166826)
(1952.928794 0.5604340002 3.125810228)
(1953.557417 0.7271378047 2.606566184)
(1953.678203 2.019456967 1.76370234)
(1952.689797 1.088089826 2.198653447)
(1952.193354 -0.07341294676 2.188956475)
(1951.677544 0.2379757351 2.00278986)
(1952.434692 0.5087443486 0.6869986092)
(1950.734053 0.8967295563 1.290511121)
(1950.438223 -1.027586547 2.169741483)
(1949.863561 1.121973048 1.865080428)
(1950.964471 0.5898963873 1.14421743)
(1952.275854 -0.7832876145 1.965124997)
(1951.434042 0.0407258654 1.934299854)
(1950.888159 -0.6083383492 0.6644940405)
(1952.394954 -0.3868815393 1.209646016)
(1952.729867 -1.161256378 1.464611322)
(1951.378368 -0.4627405137 1.714200575)
(1952.835833 2.017456199 4.280239175)
(1952.768668 1.844162191 3.053511929)
(1952.889164 2.330592078 1.928096011)
(1950.379325 2.516573135 1.775876634)
(1949.166947 1.566898065 -0.235893314)
(1950.710554 1.12699567 -0.2106499152)
(1950.447506 0.8030561928 0.3700804764)
(1950.736811 2.844315929 2.383184776)
(1950.942959 3.544531381 2.453559116)
(1950.206488 1.93075029 1.450086345)
(1948.753024 0.3404514612 1.118349708)
(1948.166722 0.8419032628 0.311598713)
(1948.143403 0.6829583608 0.7920451337)
(1948.441271 1.169133251 1.073649997)
(1948.400105 1.655278281 1.140962158)
(1948.49501 0.2289054361 1.443048369)
(1949.72151 -0.2563624372 1.571291755)
(1949.621666 -0.8041646414 0.4655724073)
(1949.672627 -1.3625424 0.1489660162)
(1948.767182 -2.026412614 -1.153651238)
(1949.732911 -0.6084044227 -1.112182569)
(1948.988587 1.877637403 0.9708526251)
(1948.014396 2.325776836 1.144798921)
(1949.19886 3.189752269 0.005266964028)
(1949.588052 2.321917347 0.08617570849)
(1950.036936 2.269906235 -0.3121920923)
(1949.460425 1.899140292 0.2106222513)
(1950.50128 0.4997403896 1.154014763)
(1950.291257 -0.07004888461 0.2758904095)
(1948.742857 0.9739657894 -0.1519217718)
(1949.34775 0.5348157745 4.010900916)
(1949.757583 0.8895220678 3.734134839)
(1948.673879 -0.41319454 1.90099174)
(1948.630893 -0.8402042983 1.574741192)
(1948.244038 -0.2544298129 2.652941726)
(1948.44699 -0.123036585 3.137615284)
(1948.815246 -0.1633782029 3.397784286)
(1949.654697 1.200858374 3.353394602)
(1949.876443 1.064955321 1.468202277)
(1950.642347 1.901466389 1.311605324)
(1951.648255 1.996944573 1.981631584)
(1952.87882 0.9952783442 1.451227376)
(1952.048649 -0.3233389594 -0.2876725794)
(1951.580185 -1.938797845 -0.4743764446)
(1951.224495 0.8265189387 -0.9673041283)
(1949.660212 1.617114791 -1.275523291)
(1949.089814 -0.3075241126 -0.9401401766)
(1949.623144 -0.3264994053 -0.2460294941)
(1950.229251 1.298555386 1.682867731)
(1949.782337 1.491049641 1.787219071)
(1950.643702 -1.42454955 1.231060127)
(1951.477402 0.2119907583 1.78647134)
(1951.927735 0.8079470874 1.604418159)
(1952.319656 1.584288385 1.747193846)
(1953.223497 0.563186635 1.717233694)
(1952.569474 1.085088726 2.079381066)
(1952.085659 1.441292166 1.442635752)
(1950.349171 1.794740031 1.275811767)
(1948.762694 1.392566579 3.358502574)
(1948.960676 2.670766872 2.336193774)
(1949.321532 0.7116593701 1.426845633)
(1951.150287 -0.2432830407 1.140374108)
(1951.511757 0.7357429713 0.6214429723)
(1951.116794 0.494639168 1.476320059)
(1951.653663 1.095171367 0.5460586687)
(1951.896715 0.9933652362 1.166519038)
(1951.721631 1.44982143 0.4341988555)
(1951.924801 1.110787592 0.01316240373)
(1952.271743 -0.5716400396 1.042348435)
(1952.37063 -1.498425364 -0.2014799282)
(1952.528263 1.917992829 1.085893546)
(1951.173514 1.897040122 2.500764237)
(1951.949482 1.016049994 3.392838743)
(1951.948765 0.8693930397 3.384470977)
(1953.762848 0.4167174294 2.366551762)
(1953.177799 0.9069961956 1.770247021)
(1954.232054 0.443581245 1.429371982)
(1953.109898 0.01061407542 -0.07494847356)
(1954.179623 1.166978625 -0.06400032037)
(1953.607924 0.9944422892 0.6350813451)
(1951.275914 1.554248378 -0.8328004041)
(1949.737814 1.809117043 0.06509496131)
(1950.86415 1.18729239 0.2577554043)
(1952.711456 0.9808461104 -0.2597325797)
(1952.023493 0.6060245277 -0.9003508613)
(1952.60279 0.5267065322 -1.959826344)
(1952.968487 1.072696919 -2.23743021)
(1952.460108 0.9602343345 -1.218733781)
(1952.910044 0.5049431024 -2.10855811)
(1953.643238 1.713763927 -0.4616318256)
(1953.074782 0.2100034461 1.921555132)
(1953.662646 -0.2201528443 -0.2330197385)
(1952.0807 1.251247343 -1.043654091)
(1952.246685 3.569288834 -0.2549204117)
(1952.747233 3.519778924 0.5439403115)
(1951.738817 1.939954611 1.448047288)
(1951.341669 0.1963950493 -0.3383051031)
(1951.336477 -0.5581198051 0.2480330032)
(1951.432595 0.3413936368 1.714011258)
(1951.948228 0.2803614996 3.339957595)
(1953.098183 0.8969089257 3.217131337)
(1953.579927 1.582971682 2.11865733)
(1952.319188 1.548634913 1.825835162)
(1952.173546 2.409938154 0.6079295239)
(1953.144199 1.476885519 0.5691634577)
(1953.021489 1.248700776 1.664501919)
(1952.539777 1.241173655 1.407700462)
(1950.953141 0.8180248172 1.21093934)
(1952.514236 0.6775771184 -0.5352999797)
(1952.734872 -0.6426901781 1.892414076)
(1953.070069 1.66693235 3.260154549)
(1952.913377 1.983000907 2.850007676)
(1952.510979 0.4139866788 4.577548509)
(1952.072674 -0.5585936981 3.669471993)
(1950.136315 0.9476512172 3.704501476)
(1949.914736 0.4844986428 3.830949204)
(1951.012009 0.5778845337 4.972278466)
(1950.749883 0.9538496995 3.767509875)
(1950.499545 0.6072457617 3.545018855)
(1950.950475 0.64812288 3.627575494)
(1949.590185 0.5736011015 4.557295601)
(1949.904325 0.1724622418 3.623486179)
(1949.389517 -1.16927223 2.993342643)
(1950.995824 -2.341290392 2.580677868)
(1950.69496 -1.292542952 2.383001506)
(1951.308903 0.1048314091 1.778460251)
(1952.823824 0.7592595344 2.00993761)
(1953.545436 1.319312128 1.088511713)
(1953.012361 0.5281348651 1.028132299)
(1952.7244 0.990390422 1.873782603)
(1949.689447 -1.677269278 1.672576708)
(1949.637017 -0.9891968228 1.029253942)
(1949.329626 -0.6900668696 1.57834655)
(1950.034189 -0.5803316545 3.482134923)
(1951.038297 -0.7265758508 2.368853168)
(1951.522907 -0.648370451 1.583553141)
(1950.408325 0.8127145273 0.3824102483)
(1951.368706 1.541394661 0.2841087226)
(1951.330784 1.482122923 1.519378578)
(1950.916047 -0.6375513627 1.91824627)
(1951.309817 -0.2638996059 2.277922684)
(1950.530705 -0.9947248971 1.336736261)
(1951.587935 0.1458406004 1.125281626)
(1950.339547 2.021128999 0.6767832229)
(1949.777362 0.4648131722 1.020045396)
(1950.643479 0.5316316572 1.393508769)
(1951.189042 -0.9332608646 1.714191965)
(1951.539435 -0.6963142297 2.943855601)
(1952.362465 0.8886548011 3.418383893)
(1950.933646 0.4496395874 2.654606523)
(1954.39088 0.530511919 2.379326665)
(1954.814504 0.3467602208 1.462239943)
(1953.309068 1.817505224 1.684864469)
(1952.88833 0.9791415662 2.485627739)
(1953.348166 2.629744992 1.711357587)
(1952.310173 3.658461143 1.18211063)
(1951.256752 2.487151095 0.7217537764)
(1950.992517 2.410920302 0.7465756457)
(1952.038345 2.433258692 1.984625512)
(1952.346326 1.973014373 2.077759219)
(1951.349571 2.040836504 0.4556710251)
(1949.802254 1.779837593 -1.91180185)
(1950.291272 1.336994153 -0.7488580405)
(1950.186408 0.8134646091 0.5200981659)
(1950.438554 1.012024527 0.1853449737)
(1948.85326 1.948977775 -0.6374800528)
(1948.736675 1.58742973 0.2981963289)
(1951.189831 1.184373748 0.9275134571)
(1951.66816 -1.284649849 1.311109257)
(1952.807528 -1.149316716 1.928175167)
(1952.0586 2.159990595 1.189693415)
(1951.848511 2.057882041 0.818195697)
(1952.918772 0.8009100506 0.5636782536)
(1953.165654 1.269568316 -0.159280738)
(1952.624371 1.328207798 1.155102389)
(1952.274955 0.6266500678 1.118739571)
(1952.642757 2.240812717 0.1584714128)
(1950.754566 3.336709632 0.5086657526)
(1948.810927 3.991657262 -1.449728969)
(1948.670131 2.649312311 0.5220373147)
(1949.735086 1.758865319 1.612414059)
(1949.787651 3.121951271 1.715345633)
(1949.889121 3.058573558 0.7533214263)
(1949.352452 2.702629053 0.5605385852)
(1950.002505 1.597577825 -0.8793617933)
(1951.006774 2.068202718 -0.9354378913)
(1951.222913 2.512112021 1.015691344)
(1952.162896 1.888993423 1.392231106)
(1952.736278 2.050007201 2.743875163)
(1952.586356 2.245795741 2.542511655)
(1949.407307 1.855460321 1.672513388)
(1949.355363 0.6027876897 1.175178319)
(1949.358398 -0.02895816804 1.44128298)
(1948.775909 0.1776219054 2.311997917)
(1949.951305 0.476814316 2.205491823)
(1950.593921 -0.1146456937 2.35742714)
(1950.55438 -0.2114964071 1.465593107)
(1951.595806 0.01960782911 2.21423523)
(1951.387839 1.138280215 2.21204644)
(1951.315106 1.165028861 0.7833814805)
(1951.787578 0.02184589795 0.5702767586)
(1951.480203 -0.9341029265 0.6460561608)
(1951.577963 -0.3501767962 1.474720739)
(1950.441857 0.2780652032 1.685214372)
(1950.847891 -0.3962115867 4.27623094)
(1950.667374 0.13091565 2.21116718)
(1949.817832 0.2040647147 1.239769677)
(1948.921912 2.436710263 -0.00536066679)
(1948.609284 4.369914764 1.301126959)
(1948.11083 2.619410879 0.3458463064)
(1952.863933 0.04100559453 1.054879846)
(1951.893526 1.235170723 1.672815402)
(1951.56045 0.6102823709 2.174661042)
(1950.863958 0.6956566384 2.260271951)
(1951.642 0.6680605141 3.30319958)
(1952.503681 1.037724479 2.872687254)
(1952.254191 1.274786888 2.337581472)
(1951.802161 -0.4884031199 1.939228078)
(1951.601069 -2.150624571 1.035417237)
(1951.616029 -1.349881981 1.59093666)
(1951.617404 1.254270669 1.516057874)
(1951.777103 1.166308145 1.847493267)
(1951.596566 0.7682959515 2.03141046)
(1950.644664 0.04634806211 1.469552147)
(1951.117809 0.7843559248 2.008682801)
(1952.369244 -0.05967305032 2.418916814)
(1953.417362 1.385375165 2.647163698)
(1953.332837 1.063159408 3.521100884)
(1953.356074 0.2250544334 0.9823641103)
(1954.448915 -0.0517808251 1.169959908)
(1949.595938 -2.119075319 1.91102502)
(1949.703501 -3.782772188 0.3602784172)
(1951.211673 -3.182674053 1.986344426)
(1951.87231 -2.660267211 2.946069413)
(1951.450017 -2.442790677 2.554308818)
(1951.014907 -0.5522666987 3.254895613)
(1950.195019 -3.234390058 2.936068958)
(1950.003749 -1.663733222 2.301747402)
(1950.631902 -0.5844502189 0.9612183595)
(1951.759188 -0.232429081 0.07280749337)
(1953.555403 -2.04718899 -1.059878043)
(1952.243283 -0.6217783394 0.2268038437)
(1952.245366 -2.275507835 0.05462411336)
(1950.759253 -1.136792991 1.050388194)
(1950.555921 -0.3067717518 2.708199777)
(1950.253548 0.05187413237 0.7117576304)
(1949.37709 -0.02699452039 1.270672418)
(1949.407662 -0.2691745336 3.121452328)
(1949.390706 0.3511758537 2.597562111)
(1949.441386 -0.70244618 1.820718051)
(1951.224618 -0.2166818827 -0.5633363976)
(1949.570548 -1.51514898 0.6585911676)
(1950.027897 -1.06196328 2.258754229)
(1950.06991 -1.036850066 0.5228639412)
(1949.656754 -0.5566738564 -0.1447018745)
(1949.736183 -1.361186316 1.029626165)
(1949.849046 -0.04676170822 -0.3239783948)
(1951.763171 -0.2996159016 0.3234642638)
(1951.289142 0.4005658387 -0.2076154462)
(1950.77158 -0.7306199772 1.330718455)
(1950.326931 0.9077709288 2.282561752)
(1949.270718 0.2955269707 1.719331412)
(1949.566318 -0.2267250044 0.3382965791)
(1949.623511 -0.5713749411 -1.222015306)
(1949.571448 -1.791197688 -1.374167638)
(1948.925554 -1.071766606 0.8050884493)
(1949.679195 0.4624427866 1.980346156)
(1950.795608 0.8464976966 -0.2120552834)
(1950.193199 0.3790399818 -1.0422499)
(1950.511934 0.346348453 -1.325979429)
(1950.290778 1.00514379 0.9610702669)
(1949.511135 0.3903361981 1.455909044)
(1948.62032 -0.2270500911 1.473825941)
(1949.879494 0.737004931 1.521766848)
(1949.625354 0.6202700298 0.126410735)
(1948.609447 0.4572731711 1.795357639)
(1947.931038 -0.03764652684 1.651545308)
(1947.070751 -2.123685373 0.9742577524)
(1949.425156 -1.729645586 -0.6982581484)
(1949.700067 -1.914028649 -2.052320066)
(1950.498274 -0.5843700221 -0.7742374598)
(1949.577936 0.8283655044 -0.8964551189)
(1950.750003 2.171359416 0.1355408978)
(1952.442208 0.9569757698 -0.7390698803)
(1950.851208 -0.1363956582 0.3604716428)
(1949.707654 -0.5915170453 0.9904565804)
(1949.77936 -1.575023074 0.9467257691)
(1951.404328 -0.2820788549 -0.7035086078)
(1950.948535 0.2607124712 -0.353098391)
(1951.064048 0.3202054292 0.2220578052)
(1950.976703 -1.472469474 1.549377187)
(1950.486136 -1.93042179 1.250297857)
(1951.524772 0.1643980338 0.6930631623)
(1950.662744 0.9625884089 1.73660639)
(1950.448516 1.961522721 2.823862807)
(1949.988412 2.046512892 1.417286)
(1947.975366 0.3271393352 0.7471283748)
(1948.919316 0.573186485 1.853477012)
(1949.636483 0.5582312797 2.511169044)
(1949.870877 0.9087049568 1.541227325)
(1950.836143 1.264985508 0.8384193686)
(1952.057967 -0.1132787892 0.02577282599)
(1951.54535 0.7504277506 -0.01090296761)
(1952.479951 0.1685430469 0.6517246918)
(1952.287053 -1.378628939 1.148396275)
(1951.112673 -1.948131399 1.994792859)
(1950.225206 -0.8159625134 2.402590128)
(1950.986419 -1.855098531 1.348736593)
(1951.365654 -1.368234546 1.906816283)
(1951.458737 -0.9981961479 2.747306073)
(1950.26786 -0.9767052414 0.3029332144)
(1949.529712 0.01482682715 0.5938152032)
(1951.96564 -0.4329749324 1.708479345)
(1952.068572 -0.8031065943 0.8226894669)
(1951.124438 0.1842635264 -0.8393249045)
(1952.700941 -1.39704016 0.6475310726)
(1952.855995 -1.622234459 0.7449470136)
(1949.479304 0.4761125534 0.5791814182)
(1950.711631 1.154248183 0.8076253419)
(1951.30473 1.774174089 0.5995726703)
(1950.58628 0.5993324523 -0.178990426)
(1951.249122 -0.9220402779 -0.1891950412)
(1951.209271 -2.110149804 2.23566342)
(1951.376731 -0.8738593447 2.804604398)
(1950.574687 -0.1366847579 2.444840703)
(1950.236265 0.88114667 2.275670341)
(1951.323169 0.7879700011 0.6773598599)
(1950.600208 0.4061648438 -0.6583096267)
(1949.651293 0.5497902149 -2.362672714)
(1950.033287 -0.1717884308 -0.9577625909)
(1950.448634 1.757265746 1.561431401)
(1951.572884 1.760747799 2.319095529)
(1950.966481 1.505863824 1.067837656)
(1950.193397 2.356437748 -1.018789385)
(1950.895677 1.860530792 -1.740344905)
(1949.973285 3.4188515 -1.484702929)
(1948.599003 1.796167339 -0.6248712165)
(1948.320761 0.9115378467 -0.6097241084)
(1948.610917 0.6253398967 0.1101630686)
(1949.638709 0.6400637324 1.532423976)
(1949.727169 -0.2744982276 3.288469781)
(1949.288561 -0.9163368146 2.556196878)
(1948.608006 -0.6769864363 1.351861646)
(1948.273552 -0.9410477693 1.759014195)
(1949.925229 -0.2859465183 0.4442321027)
(1949.871321 -0.5872181705 2.422894251)
(1950.030135 0.1541926227 1.791687758)
(1950.617968 1.559488517 1.24119153)
(1950.669105 1.090405436 1.583252352)
(1951.833663 0.1619605966 1.093690254)
(1951.661929 0.8998651195 2.113507622)
(1952.572064 1.835291975 1.778638027)
(1951.552226 2.503182004 1.98900512)
(1951.978733 2.854114175 2.608947994)
(1951.277176 3.714453767 2.340433209)
(1950.921859 4.159624774 1.254571264)
(1952.484425 4.036288834 1.327126656)
(1952.114524 2.618315697 0.07651608664)
(1951.531888 3.419560966 2.865360969)
(1950.024512 1.76955435 3.240171641)
(1950.170056 0.4037965121 2.545251856)
(1949.380121 -0.5546856489 1.552428946)
(1949.702185 -0.9557375887 -0.3136405368)
(1949.861443 -0.8732298093 -0.5287100833)
(1949.920758 -0.683878258 0.3097226241)
(1949.580737 0.9804142771 1.106159454)
(1950.20039 -0.3176538094 0.9856307569)
(1949.958238 -1.132753339 1.259553692)
(1950.02761 -0.5143866496 1.497785758)
(1951.502592 0.7373020096 2.062843066)
(1951.986526 2.440067538 1.37425958)
(1951.008953 3.204174492 1.082445101)
(1950.663254 2.556733798 1.12498263)
(1950.01024 0.1582625017 0.7038708579)
(1951.68026 0.5318378326 0.974088368)
(1951.402997 -0.3846666958 1.108968099)
(1951.137749 -1.627485929 1.227588183)
(1952.032596 -0.5849810266 0.9701665034)
(1951.912888 0.0516298303 -0.1847660815)
(1951.395263 2.003218011 -0.197096288)
(1951.672476 0.9182645228 0.3190492418)
(1951.924363 1.257673464 0.8702398122)
(1951.482181 0.5436673447 0.1878897791)
(1950.474785 0.4819661707 0.6460776851)
(1949.887423 -0.2030822554 1.322863253)
(1949.069474 -1.613902909 1.213388764)
(1950.112272 -1.236939913 2.20506549)
(1949.556762 2.730119289 0.9693278884)
(1951.049869 2.994892407 1.166046578)
(1950.804098 1.413412814 1.402792892)
(1952.380311 0.0710953009 1.148976834)
(1952.290048 -1.147015175 -0.6075547651)
(1952.413725 -1.101629818 -0.1980085845)
(1952.175483 0.5837257766 -0.3120558943)
(1952.444502 1.078373079 1.331595916)
(1952.340056 0.7638362792 1.066703558)
(1952.012432 -0.004307815284 1.176640087)
(1951.168144 1.166583075 1.189284882)
(1949.699235 0.1635641806 1.20492882)
(1950.907324 0.3566351915 2.407558043)
(1950.149289 1.591313933 1.581924482)
(1949.188241 1.208908802 0.1740163916)
(1949.716409 0.572028365 0.1350699102)
(1949.136678 1.506735518 0.7843845499)
(1951.602758 2.325383885 0.8035398227)
(1952.041454 1.818962091 0.4487400671)
(1951.690044 0.8770036388 0.8752144355)
(1951.619868 -0.1979513813 1.04533908)
(1951.563373 -0.2568931493 1.282080868)
(1951.117116 -0.3808015482 1.809874949)
(1952.321658 -0.2746430133 -2.083524429)
(1951.608349 0.3559055618 -0.6377387723)
(1952.127902 0.2008581241 0.4566559998)
(1952.611377 0.2381566096 1.368057069)
(1952.365117 0.665693771 1.019700749)
(1952.371913 2.261197356 0.7853951297)
(1952.496347 3.163339382 2.270361053)
(1951.859531 1.012307485 3.959709234)
(1952.342725 0.6843167422 2.649971207)
(1951.442562 0.06922749519 0.9502495647)
(1951.759449 0.6682018761 1.214026888)
(1952.533343 0.8095162597 1.470640848)
(1951.819974 0.4122703853 1.913020826)
(1951.121754 1.55942586 1.621898434)
(1950.420898 0.6242839768 1.704590728)
(1949.535231 1.007408271 1.701126771)
(1950.61309 -0.9318891962 1.360334016)
(1951.630315 -0.964148772 -0.01065163939)
(1951.135612 -1.643920862 -0.2969186641)
(1952.247739 -0.4379666937 -1.169032223)
(1950.825247 2.100659001 3.87903592)
(1951.696936 0.6446674807 3.556746934)
(1951.768467 0.4772886836 3.563733061)
(1951.506048 0.3376137146 3.176401198)
(1952.074064 0.2209138178 2.488931081)
(1949.339693 -1.994531265 2.610265598)
(1948.363587 -2.425202354 1.638846775)
(1949.284869 -0.7526999834 0.933166474)
(1949.432687 0.9241416825 1.706522891)
(1949.771636 0.5536500679 2.777606965)
(1950.207391 0.2786004125 2.638345747)
(1950.288164 1.400359125 3.759319854)
(1950.12536 0.477177872 2.553131104)
(1951.774695 -0.1895893873 3.320603379)
(1951.165071 0.2824681919 2.094792758)
(1950.827846 0.9395605127 2.316744711)
(1950.512587 1.59364114 1.814007528)
(1949.746071 2.169420979 2.218416803)
(1950.560428 2.156299307 3.993893847)
(1951.198326 1.672485246 4.155973177)
(1951.412677 1.616567594 1.588619979)
(1951.972978 2.35402811 1.84376219)
(1952.697823 1.821375647 0.8507533464)
(1951.522624 0.6393243033 2.591758331)
(1950.141493 -0.1476375528 1.779751306)
(1950.396891 -0.09465713074 0.8724479852)
(1949.693378 0.3259180294 1.31355943)
(1950.473785 0.878451325 1.852075852)
(1951.570268 -1.03376068 0.6538355384)
(1952.30329 -0.2997422795 0.3075822213)
(1952.411886 0.06334081019 1.449690609)
(1951.20576 0.2604318311 2.52234491)
(1950.839723 1.294194448 1.079145038)
(1950.222103 0.6232439855 0.774900497)
(1950.89643 1.8703579 1.311032849)
(1950.261828 4.023571211 2.901307189)
(1950.097962 4.142002115 1.278863823)
(1950.28617 2.613949986 0.6296113344)
(1950.91521 1.810991286 -0.3801066771)
(1951.007363 1.138985228 -0.1969940103)
(1947.924616 0.6289209921 0.1502291075)
(1950.098614 1.010760207 -0.5295949438)
(1950.0123 0.5472151561 0.4207914265)
(1950.406383 -0.1680431054 -1.071417813)
(1949.595551 0.4652269562 0.8600926604)
(1950.600138 0.8836962173 2.16680747)
(1951.661834 1.969062389 2.889987214)
(1951.217641 1.509447833 1.349967281)
(1949.843036 0.966797317 0.5761409175)
(1948.696352 1.770604454 -0.4288193421)
(1948.653515 0.9490719713 0.4254213294)
(1949.732172 -0.07186905161 1.412967426)
(1949.501358 0.4866373488 0.8198246674)
(1949.315725 1.03950255 0.4006085045)
(1950.415245 0.4323003142 1.700650936)
(1950.80066 -0.6201970193 3.075426454)
(1951.281734 -0.7032708022 1.673441446)
(1951.272743 1.232224695 0.08074699951)
(1949.348164 1.883133194 -0.6181817094)
(1948.113459 1.397836482 -0.2771380433)
(1952.709503 -0.2347521292 0.7796877293)
(1950.726516 0.02681732243 1.262011739)
(1950.684278 1.444907714 2.49964804)
(1951.181488 1.928453079 0.2692835901)
(1951.248256 0.50742906 -0.5312291287)
(1950.285978 1.69627446 -0.3568135572)
(1949.575978 1.860151089 0.1140252215)
(1949.222337 0.8905272734 0.9738354466)
(1949.079658 1.082297418 1.941346874)
(1949.060423 0.2802938589 2.710612809)
(1949.449691 0.196349167 0.4390379874)
(1949.514113 0.6910004355 -1.350131398)
(1950.539237 0.8569224257 -1.278435315)
(1950.348193 1.716546892 -1.701203466)
(1950.582894 2.07774568 -2.050706578)
(1950.647276 2.247562051 -0.63365954)
(1950.937921 0.2342526153 -0.2517603193)
(1950.851813 0.1613794284 0.7032881029)
(1951.78493 -0.7972775365 0.8245103941)
(1953.402129 -0.09964587279 0.8825615907)
(1952.100725 2.89668754 3.027292806)
(1950.951407 2.463487209 3.267167655)
(1951.280247 1.232513747 2.755214767)
(1951.26286 1.692389451 2.627815229)
(1948.804869 1.079925951 2.350583573)
(1949.247156 -0.1528765833 1.169598752)
(1950.227685 0.1738848981 2.214234763)
(1949.849077 0.1245333539 2.222230763)
(1949.58368 0.6497281126 0.94304176)
(1948.524573 0.2754059115 3.387909962)
(1947.785921 0.1609828658 2.973773294)
(1947.588495 0.7104841938 3.388139537)
(1948.620932 0.9228794184 3.090259596)
(1949.535371 2.504010656 3.46664997)
(1949.898341 2.621615332 3.419139268)
(1950.125432 2.311115572 2.90004994)
(1950.556834 1.377705168 3.060558087)
(1950.532803 0.6851567654 3.687076389)
(1951.28556 0.09122658018 3.120196315)
(1951.473766 1.604789556 3.965467781)
(1950.115934 -0.2948932967 4.596229147)
(1951.531794 0.7304819008 4.11008778)
(1949.527298 2.806703601 3.421528549)
(1949.676245 0.3676498003 3.130063208)
(1949.566285 -0.5918328754 0.4188955654)
(1950.417917 0.08796831262 0.9281694166)
(1950.207836 0.1655544594 0.5146944832)
(1950.652957 -1.30209369 1.261260363)
(1951.245462 -0.3567786785 3.589288857)
(1949.919195 0.09927989139 3.793696479)
(1949.113645 1.109590667 3.298080587)
(1948.16457 0.7684164685 3.361709591)
(1948.995811 0.9576357906 2.931078215)
(1950.286565 -0.4603615622 1.494059282)
(1949.796566 0.3926422771 0.07173572372)
(1949.660338 -0.2400389536 1.596470783)
(1948.157757 0.4253392146 2.648405784)
(1947.421266 0.719723935 2.841287405)
(1948.652304 -0.1513431153 2.646336528)
(1950.760392 -0.4886203422 3.684689566)
(1948.586018 2.536867438 2.721962156)
(1950.593154 0.8070312514 2.52795251)
(1951.866946 0.7288550496 2.105892452)
(1951.693708 0.8245565704 2.22718403)
(1949.938056 1.129886224 1.176634905)
(1949.217189 0.2689964003 0.9734754886)
(1949.729879 1.451917102 1.105909705)
(1951.162293 0.8136761516 0.8896577257)
(1950.47998 0.198313883 1.035871413)
(1950.78816 0.1692247518 0.1532591566)
(1950.660838 0.9755526146 -0.6677930735)
(1951.657919 1.414703262 -0.5648506952)
(1951.744069 1.855128898 0.6398011925)
(1950.810728 3.561646175 2.197742945)
(1951.221795 2.292658513 0.8902264946)
(1950.109831 1.438616959 1.241222078)
(1950.835991 0.2319720902 2.623633823)
(1950.420944 -0.7172260904 3.176970367)
(1949.463742 1.979096586 3.913488341)
(1947.721648 1.738829913 3.881271644)
(1950.089995 -0.1116985263 0.5414286428)
(1948.911447 0.1675455908 0.9710151194)
(1948.642816 0.02749451729 0.281713927)
(1948.442433 0.03147128068 0.07430954531)
(1949.479192 -0.1817342857 0.6802708319)
(1950.071135 -0.530978184 0.9893468786)
(1951.003505 0.123763241 0.09174607279)
(1949.347416 1.778229868 0.2758018557)
(1949.127328 1.712081482 -0.2829815022)
(1948.53428 1.238517174 0.4323530075)
(1948.419584 2.677764792 0.0352130499)
(1948.671525 2.082796099 1.008592836)
(1948.400331 1.256185999 0.02697684072)
(1948.79363 0.8665731943 -0.4067261925)
(1950.431173 0.2373630793 -1.930249182)
(1950.831442 -0.3868898758 -1.173456338)
(1950.02743 -0.7274808745 -2.469631134)
(1950.298091 -1.916527972 -1.103871744)
(1950.91063 -2.643862248 0.4561234795)
(1950.753106 -1.126859394 0.2418978682)
(1948.632221 -0.7757370994 1.023885545)
(1949.914273 0.006287382793 0.05864467927)
(1949.220724 0.2302430702 0.6728686741)
(1948.502688 -0.02088335016 -0.02628767754)
(1947.985314 0.2147296801 0.8821459928)
(1948.994334 1.947351852 1.06268935)
(1949.278336 1.237076624 1.61110028)
(1950.655796 1.594691538 0.2278617232)
(1951.670998 0.3520706057 1.839286526)
(1950.746143 -0.2957040235 0.6941492467)
(1953.567679 -1.948555781 1.751472063)
(1953.106685 -1.350573913 -0.1107407238)
(1951.537468 -1.057229068 0.09242292588)
(1950.94352 -1.471915162 0.5185461519)
(1950.31362 -0.9321379846 1.457751196)
(1950.403168 0.02191744286 1.107940283)
(1950.444143 -1.456096075 1.164049571)
(1949.390267 -0.4022122113 0.1164414334)
(1950.358493 -0.6034197725 0.141152372)
(1949.631192 -1.775165415 1.728058543)
(1951.098667 1.846351912 0.383175529)
(1951.666676 1.808805031 -0.5849698073)
(1952.220919 1.367460825 0.7003386954)
(1952.249789 0.09620805253 0.7390286676)
(1952.206884 -0.4801073525 0.05552095403)
(1951.71383 0.2228510818 -0.002766796968)
(1952.090478 -0.3525913936 0.1353805222)
(1952.612532 -0.6167234242 1.394140138)
(1952.404904 0.3557612803 0.2438571343)
(1951.932595 -0.9934435506 1.405218831)
(1950.073277 -1.373744605 0.5813661268)
(1948.397263 -1.23151446 1.877342188)
(1948.90731 -0.2375891939 1.742547374)
(1950.424251 0.71450642 1.027871294)
(1950.699514 0.9666124158 0.7847965225)
(1950.51089 0.05800251033 1.566738579)
(1952.108033 -0.003775318357 0.202802484)
(1951.518327 0.1134661311 0.865657052)
(1951.842236 2.025346007 0.3021697734)
(1951.565139 3.137198642 -0.8152419211)
(1951.131125 0.573865566 0.8489126382)
(1951.104072 0.7248298191 -0.2955972848)
(1950.346425 1.134066834 0.1389313189)
(1951.345692 -0.503354043 -0.08798773735)
(1951.402883 0.1316680164 -0.1094595608)
(1950.774517 0.1973825907 0.5660183821)
(1950.169217 0.7544470106 0.05522150879)
(1950.911775 0.4305900621 -1.392640301)
(1950.523167 -0.9692768022 -1.088173546)
(1951.429552 -0.9517157648 0.9123351303)
(1951.273366 -0.2336091056 1.951851948)
(1951.499699 0.0316220104 3.144993945)
(1951.006032 1.891467945 2.403947883)
(1950.869947 0.7804343933 2.125273146)
(1951.261497 1.28333764 2.50471678)
(1950.508804 2.265039532 1.767817451)
(1950.211209 2.966780921 1.537971509)
(1950.836706 1.332827796 0.740442325)
(1950.34152 -1.324943706 2.161985603)
(1951.157826 -1.418402759 2.523131829)
(1951.532057 -0.381800136 0.7893998219)
(1950.893982 0.4829929119 0.4629783812)
(1950.725537 -0.8689995602 -0.2899297863)
(1951.100311 0.4889716103 -0.2999213999)
(1950.357047 0.4209296766 -0.02970231358)
(1950.7024 -0.8836489143 -0.3376239239)
(1951.795978 -1.255501389 -1.045980258)
(1951.83293 -0.3983991534 -0.7591857544)
(1951.593966 -0.2304232137 -1.117495357)
(1951.299181 0.1773211584 -1.239056262)
(1950.902347 2.311121631 -1.986114158)
(1951.485631 2.366307962 -0.8199164212)
(1951.48606 2.280322246 0.2190550957)
(1953.515681 2.604263313 1.367626188)
(1953.01413 0.603400866 1.198666971)
(1953.15758 -0.08127756821 1.120523284)
(1953.246662 -0.1617266179 2.10181445)
(1952.614164 0.8843122295 3.521873893)
(1952.792571 1.033620149 2.667083228)
(1951.477444 0.8584343628 1.851575016)
(1951.391816 1.140997967 1.206518161)
(1950.304972 0.3765421335 0.8067245407)
(1950.462016 1.453243639 1.429774133)
(1949.574056 1.180260173 0.3529609845)
(1948.925364 1.485773989 1.163372037)
(1949.01248 0.4844529847 0.3330498396)
(1948.647016 1.757071139 1.54249354)
(1949.331084 0.4409435173 1.40519795)
(1949.935025 0.3242268655 1.462865792)
(1949.994311 -0.8301127484 -0.5186335697)
(1949.861502 -0.2429095019 -0.4270293495)
(1950.237662 -0.3993499601 -0.3990657764)
(1950.21709 -0.04809965539 1.983587331)
(1949.548969 -0.6013001298 1.564915499)
(1949.150766 -0.695191924 1.014037988)
(1950.673113 -2.248431792 1.549045706)
(1951.927102 -2.330564794 2.374790889)
(1952.810923 -1.105241161 0.5334986549)
(1952.09853 0.2739198035 0.5386890836)
(1952.099816 0.5726963004 0.6404871169)
(1950.026197 0.1753412194 2.248399201)
(1949.772019 1.372315695 2.276243534)
(1949.217063 0.872756879 2.496618425)
(1949.525043 1.926109557 2.98974896)
(1949.673113 2.339154029 2.131425584)
(1949.749271 2.239521849 1.364341681)
(1950.971437 1.859009187 0.7063028564)
(1950.972673 0.8909908142 1.670052168)
(1951.21557 1.057761167 0.529135177)
(1951.430476 0.8427558691 0.7991092394)
(1952.343359 -0.09058691016 0.6622708096)
(1952.013736 -0.2444127329 1.070415088)
(1951.650438 0.1180859777 1.032242544)
(1951.093963 0.3455656839 0.9308228927)
(1951.329585 -0.5025186678 0.8623369896)
(1951.233836 -0.511762159 0.3392159005)
(1951.919652 0.1284340927 0.5524201407)
(1951.377721 -0.04859245077 0.4704597676)
(1950.41201 1.691818381 0.4017331516)
(1951.031532 0.6135454353 0.7612312025)
(1950.367955 1.002237365 1.538981993)
(1950.914566 1.018027081 2.179722731)
(1952.159876 1.596239482 2.122665633)