/*--------------------------------*- C++ -*----------------------------------*\
| =========                 |                                                 |
| \\      /  F ield         | OpenFOAM: The Open Source CFD Toolbox           |
|  \\    /   O peration     | Version:  v1706                                 |
|   \\  /    A nd           | Web:      www.OpenFOAM.com                      |
|    \\/     M anipulation  |                                                 |
\*---------------------------------------------------------------------------*/
FoamFile
{
    version     2.0;
    format      ascii;
    class       volVectorField;
    location    "0.01";
    object      UMean_O2;
}
// * * * * * * * * * * * * * * * * * * * * * * * * * * * * * * * * * * * * * //

dimensions      [0 1 -1 0 0 0 0];


internalField   nonuniform List<vector> 
5120
(
(1950.853989 4.689750583 -1.004680369)
(1949.650763 4.798974792 -2.230371255)
(1950.427293 2.405175566 -2.801069909)
(1950.797356 1.383718807 -2.889173566)
(1952.261379 -1.558092433 0.116478906)
(1951.80618 -1.213490189 -0.9841147694)
(1951.938706 -1.102248488 -1.341129485)
(1952.490491 3.097705995 -0.08810884579)
(1952.789056 5.206656967 1.758814698)
(1954.146457 1.072965718 2.554885049)
(1952.680627 2.907170885 2.50271247)
(1954.85126 3.124814895 2.814723062)
(1955.239448 3.129139495 4.631670411)
(1954.711134 2.218438574 6.879855831)
(1956.869257 3.533165492 4.231949518)
(1950.052026 1.863875814 2.803139379)
(1951.016673 0.07601694988 1.791561193)
(1950.391913 0.6369927586 3.329546707)
(1951.188512 3.04133151 4.16771358)
(1952.805355 2.028373934 2.272361405)
(1950.761863 3.721879112 2.702272269)
(1952.274569 2.03079454 4.110232987)
(1949.568534 4.749736031 2.257821165)
(1948.440096 4.09391172 -1.188699304)
(1949.035046 0.8584973288 -0.7811927618)
(1947.875396 2.855257469 -0.7508307428)
(1949.195653 3.432784713 -2.465573457)
(1952.334572 5.097139899 0.1893439375)
(1952.171889 4.844622504 0.6153781761)
(1949.816352 2.872843283 -0.2174159877)
(1952.665799 4.729553727 4.30909983)
(1952.337911 2.93732091 3.034586584)
(1954.729871 0.9868849999 3.131291973)
(1948.633737 2.319736092 0.3249721564)
(1945.437437 -0.01411596308 1.296663626)
(1947.972318 0.7134253486 -0.03576332706)
(1948.868273 0.7645344615 3.370218391)
(1950.76328 5.62110376 4.312993688)
(1950.919924 5.132754301 3.450401873)
(1952.026408 4.909998895 3.032217991)
(1951.247452 1.005316313 2.850441647)
(1951.189845 2.53352981 2.45030743)
(1952.36805 2.727593405 1.662061751)
(1950.672447 4.412302112 0.3585571105)
(1951.690282 5.792601221 -2.006513681)
(1950.711765 4.121165958 -1.259015212)
(1951.99455 5.202983567 -1.259517152)
(1948.642656 2.413812752 -4.09639589)
(1946.635689 0.05132442723 -4.112578586)
(1945.961502 -2.806468518 -3.865876875)
(1947.303278 -3.172183826 -0.1171846642)
(1947.550765 -0.4860828727 3.363110221)
(1947.58085 0.8699245102 3.192563171)
(1951.414713 -1.448069331 0.1008819435)
(1954.062218 0.6937640915 -0.4197061404)
(1951.27162 1.363890543 -0.1323153198)
(1949.845591 -0.3645363037 -0.152632116)
(1951.039078 -1.083392539 0.5610156572)
(1951.254396 -0.7316643434 1.718700003)
(1950.94985 3.196435903 1.770708123)
(1949.021955 1.930718138 2.4468803)
(1946.604254 3.348224268 0.242743907)
(1945.520718 0.2610524213 -0.002305858289)
(1946.303061 2.503591372 -0.8972926013)
(1944.594972 1.968508673 1.429298434)
(1944.502878 3.280199945 -0.2666497134)
(1944.145245 2.555493182 2.923160651)
(1946.135192 2.493511243 -0.130999449)
(1946.774114 -0.5758904965 -2.410577436)
(1949.0292 -0.3560149595 -2.938049126)
(1951.74365 -1.920367939 -0.3599788074)
(1952.867255 0.3797806719 0.4091528102)
(1953.343944 1.720869155 -0.4021127498)
(1952.935754 -0.6007946863 -0.2012780188)
(1954.239124 -1.030651874 -1.263359376)
(1954.518989 0.89536869 -0.871026129)
(1955.137307 -0.9987418022 0.8840143829)
(1951.424968 -2.923559372 3.431931948)
(1949.797571 1.650729274 3.26948864)
(1948.894342 0.6853293325 3.076472849)
(1951.162285 -0.210816048 3.554331831)
(1951.854359 0.4086154361 4.588736097)
(1950.006389 0.1440380845 4.457625303)
(1952.591139 1.661240712 3.02368691)
(1954.912627 1.653637164 1.217976504)
(1952.256941 0.7081692205 1.345268611)
(1951.166973 0.7756993037 1.567114859)
(1950.956151 5.219130131 -0.9920190688)
(1947.366309 5.04210565 1.309198823)
(1946.450778 5.476731051 1.268036933)
(1946.193887 0.4101992145 0.321845531)
(1949.566562 -3.099172999 0.254938003)
(1950.310353 -2.30480522 -0.5245753245)
(1949.560588 -3.533769902 3.87027108)
(1949.086461 0.006024439493 2.073546198)
(1947.190949 0.7197104154 2.456627111)
(1947.476423 1.534198147 1.840981021)
(1952.420038 1.061943909 1.393180664)
(1953.342393 -0.6469417495 2.221100036)
(1953.497968 1.185562899 1.133198362)
(1957.089545 2.257964897 0.8417587164)
(1957.078949 -0.05833402519 3.477006866)
(1956.801492 -0.1111329129 4.130319428)
(1952.318071 0.2142676196 6.574689375)
(1952.570279 0.4097993566 4.742288258)
(1952.69371 4.383267363 1.920416065)
(1952.489572 2.75727391 -0.772635701)
(1952.350597 0.9581506433 -1.784189478)
(1951.347627 -0.8918653311 -2.493883466)
(1949.537478 -2.456996052 -3.562953462)
(1947.103272 -0.2209875648 -4.470310139)
(1948.380714 2.561358178 -1.946341657)
(1951.067778 -1.208619472 0.5421598246)
(1952.803612 -0.6661457265 -0.5138195254)
(1951.778765 -0.5071143682 -0.53577817)
(1953.286426 0.2254206092 -1.871539391)
(1955.239438 -0.8384180782 -2.185356872)
(1956.052672 2.618080154 -0.7500008072)
(1956.197784 0.9157879161 2.400350013)
(1958.694678 2.889312711 1.918794886)
(1953.519105 3.295716609 5.136622061)
(1952.668952 1.924754288 1.448032008)
(1952.880434 4.330559836 0.9294161338)
(1951.977732 6.403659089 1.563630569)
(1950.345744 3.432347983 1.396002552)
(1949.335027 -1.445629436 1.005500528)
(1950.392603 -0.1380489921 -1.439391749)
(1948.745182 0.2463253044 -2.050165689)
(1948.446645 -1.97736696 0.8728420173)
(1948.689531 -1.354119027 2.259247965)
(1950.424871 0.1452254382 1.778785592)
(1951.633139 0.9389831623 1.000984724)
(1951.282464 0.3708623041 0.6060110469)
(1951.686216 0.9293313123 0.2223493124)
(1952.781746 -1.000878343 1.354509863)
(1954.15226 0.7771116929 3.780897457)
(1953.036322 3.511560279 2.966273787)
(1952.458677 2.785241546 1.551168356)
(1955.028254 3.8524491 -1.405460041)
(1953.298132 2.422189677 4.877298679)
(1951.51466 1.881360144 7.327852381)
(1949.270896 0.1633797989 5.093687021)
(1945.160594 1.695952064 3.442618336)
(1944.14807 -0.6255164821 4.496136644)
(1945.124781 1.118015065 4.910326129)
(1945.437457 2.535882937 5.263396148)
(1945.002188 3.440746485 7.361980891)
(1947.491418 -0.2143243088 5.049276444)
(1950.627648 0.2137260224 6.691093203)
(1948.737799 2.116695823 8.216901149)
(1944.979923 1.642908769 6.256462188)
(1946.550217 2.011621992 4.950705814)
(1946.516064 -1.356929782 3.140789035)
(1948.594038 -3.811606028 5.219113204)
(1949.015256 -2.375092364 6.141349745)
(1950.00144 -3.026385786 2.895009171)
(1950.399987 -1.531417871 2.426159999)
(1951.050957 -0.3894102326 1.853324682)
(1948.631501 -0.2553720606 1.450493572)
(1949.481673 1.04655169 3.322073319)
(1949.41274 -2.714270921 -1.348537625)
(1947.60848 0.01574447027 -1.331611146)
(1947.191571 -2.440744881 4.135768889)
(1948.03015 0.8708400318 5.419186206)
(1949.179262 2.343540333 4.130079707)
(1950.083765 1.261266726 4.818851934)
(1948.655412 2.562343301 1.03951837)
(1950.423342 3.232735378 1.499554008)
(1950.367152 2.25291267 3.367273982)
(1950.630036 -0.4885721181 3.009994955)
(1951.512585 1.5257348 2.006908479)
(1950.631804 0.713804225 2.553476673)
(1951.726065 1.867868991 2.260920904)
(1947.370402 3.460851057 2.76527565)
(1945.955804 -0.3050754694 5.515501122)
(1947.457938 -0.7653852287 4.753796487)
(1947.701434 -2.302214651 2.415048221)
(1951.620746 -3.699197286 1.511621521)
(1953.647712 -1.157677109 -1.295648056)
(1952.773621 -3.158213875 -0.5015914243)
(1952.955499 1.962222987 4.319675086)
(1955.083611 2.389622843 5.321633718)
(1952.753836 0.3967718606 3.371510598)
(1953.755617 -0.7916416413 4.430021166)
(1954.882712 0.6054683248 1.411446629)
(1953.930515 2.052060716 0.3556562303)
(1953.290566 2.491134279 -1.100672158)
(1950.180888 2.406033697 3.493710246)
(1950.876368 5.918664963 5.93657863)
(1948.681912 4.38243931 3.848546827)
(1947.209659 1.964881463 -1.644430614)
(1944.767866 -0.2537197159 -5.594324396)
(1945.863311 0.8371964897 -4.102036757)
(1946.605872 1.65468288 -1.065608403)
(1948.334105 -0.780733859 -0.2793641444)
(1948.620626 0.8930290382 0.1649216899)
(1948.075286 0.5324165698 2.407603467)
(1947.447436 0.9536421674 4.019616441)
(1947.427924 -0.07334487858 3.09835725)
(1948.459395 1.754221693 2.189168188)
(1956.779645 0.1737745587 -0.5010158551)
(1955.214301 -1.348665347 -1.701961152)
(1955.527753 -2.013178529 -2.427310905)
(1954.741907 1.717835056 0.9560069446)
(1955.351774 2.709943219 3.404689848)
(1955.365022 2.960046282 2.260402719)
(1954.94964 3.285127996 1.828782265)
(1952.769096 3.953942991 1.375646479)
(1950.322226 0.534540363 -4.134019822)
(1950.306928 0.2916203542 -2.169698447)
(1951.051871 2.564849867 0.04354541783)
(1952.031641 4.798694711 2.687064679)
(1952.631394 6.076967901 0.754310081)
(1952.013908 3.425761056 0.4536983111)
(1950.145801 5.556114482 1.354398048)
(1951.558308 5.062239319 0.03430058971)
(1954.792401 2.62126665 -0.1615415592)
(1955.974487 1.388426724 -0.3625292186)
(1956.869313 -1.358099245 2.278617487)
(1955.502591 -1.131752679 0.5144854398)
(1948.574649 1.010122675 0.1394919983)
(1948.85455 0.7800831218 -0.4356917232)
(1948.687512 1.863266157 3.03422696)
(1951.215838 1.493707583 2.86665291)
(1951.247816 1.015256746 0.1924969236)
(1951.553897 -0.907668989 2.760450391)
(1951.160799 -1.533733132 1.197041456)
(1951.430385 0.8930505674 1.10244836)
(1950.895877 2.531597882 2.376189628)
(1951.321218 3.549613106 1.976703985)
(1950.72662 1.597291314 1.026581973)
(1951.371577 1.63948602 -1.535384279)
(1948.576711 -2.02486441 0.05071617926)
(1948.393913 2.214966014 -0.6998046968)
(1949.580397 2.004741297 1.357838205)
(1949.075304 3.525705144 0.3799795969)
(1948.097581 1.417474408 -2.731966731)
(1948.494715 2.530464106 -3.170912669)
(1947.754099 4.77248169 -5.206688293)
(1948.53451 2.623006292 -2.507961044)
(1954.995958 2.610800793 -0.5385482423)
(1952.827077 2.014983945 0.9115218499)
(1951.661958 1.940698146 1.389683132)
(1949.895601 3.977921766 1.942617297)
(1948.585499 1.833643409 4.803358849)
(1949.464559 4.023281656 6.076813988)
(1950.483652 4.515217767 4.401708688)
(1950.463087 -0.4609563281 1.044441182)
(1950.01977 -3.047269766 -1.779766881)
(1949.512436 -2.401114691 -1.669072747)
(1952.386677 -1.279485424 0.3293523959)
(1950.025468 0.6637744446 1.867700206)
(1948.700142 2.192871849 0.7863340671)
(1949.208834 1.666557261 1.225596142)
(1948.750439 1.022628659 2.444459812)
(1952.141867 0.71449389 5.149715424)
(1953.925085 5.357382522 5.141486753)
(1953.145488 3.885387741 4.861228752)
(1954.124157 2.389652989 2.892465111)
(1955.650491 3.80351374 3.019620002)
(1952.166725 2.377479694 2.95039434)
(1951.826113 -1.871122723 -2.155042114)
(1953.510168 -2.934005146 -1.828282697)
(1954.092287 -2.109812979 0.495456307)
(1952.632717 3.549516182 1.295737859)
(1952.794185 3.785739075 3.730201131)
(1950.766292 0.9170195566 4.114196448)
(1950.090611 4.020019425 2.639434405)
(1949.202082 0.1482435157 1.828077183)
(1951.251446 -2.182422244 0.264637721)
(1953.162782 -3.314964745 -1.904107313)
(1953.179784 -2.483127348 1.409954382)
(1954.627461 -1.99594653 1.297601393)
(1953.178443 -2.082589925 3.297095558)
(1952.638254 -0.2304662776 5.887655836)
(1953.295491 1.278176078 4.155182493)
(1953.661264 2.850165073 4.70628221)
(1955.390527 1.973016773 5.087405852)
(1952.787724 3.984294148 0.8235406822)
(1952.296522 2.292371282 0.7618854958)
(1953.016209 1.513652818 -1.538782749)
(1951.315298 0.4674553125 1.581953178)
(1951.493107 2.577032758 2.114384965)
(1953.046931 3.683764475 -0.6128740172)
(1952.297585 3.763883038 -1.275554191)
(1953.001852 2.587345701 2.085082417)
(1951.513208 3.773946027 2.044722047)
(1952.429666 1.788890733 4.092692647)
(1953.627899 3.77639661 4.319477162)
(1952.322129 2.024430803 4.606275852)
(1950.410005 3.091223926 5.850420501)
(1947.062628 1.674641239 0.5916779225)
(1947.715767 0.1506478294 -2.22436107)
(1945.971235 1.864148125 -1.939736779)
(1948.747397 -1.374537505 -0.9835201013)
(1946.817594 -0.06549572306 -1.812905057)
(1949.199116 1.891797882 -2.694370513)
(1950.02634 0.1718487305 -3.18613633)
(1950.690704 2.138068766 -3.28929526)
(1951.61008 2.310353005 -3.180187139)
(1949.050504 5.33910233 5.13183358)
(1951.235981 3.334185652 5.407558101)
(1950.161431 3.395468352 2.421528539)
(1950.490832 4.683301225 -0.03465142863)
(1949.105448 6.919391135 -4.249520412)
(1948.109943 7.117781389 -0.8639820611)
(1949.719407 6.066739397 1.38751756)
(1948.235178 0.07220466451 2.148940443)
(1949.838689 -1.536703651 0.4973491059)
(1949.459597 0.7286513478 -1.00978531)
(1947.86554 0.1977523469 -0.07959457855)
(1947.579107 0.9636116105 -2.629100547)
(1948.017631 1.3584752 -0.1375210654)
(1949.252065 0.180382607 0.02268320848)
(1946.429481 2.127242748 0.5889199436)
(1946.768991 1.657002217 2.438605577)
(1947.978023 1.468589263 2.997625919)
(1947.282472 6.128343359 2.366498792)
(1947.227255 4.753689456 1.491518753)
(1948.895539 3.323735963 2.310886348)
(1950.110608 -2.108755407 2.708119242)
(1948.552859 -1.125652869 4.488240747)
(1950.652688 0.1337318629 3.392797965)
(1951.152084 3.28951746 5.712482923)
(1949.752139 4.809202294 5.212865818)
(1948.592395 3.609134762 3.125855297)
(1945.559988 3.347312956 1.729981349)
(1947.979164 0.05225010872 1.590704695)
(1949.78878 -0.6439642254 0.4724019829)
(1948.981192 -2.960518717 -1.445623563)
(1948.588856 -2.429412518 -0.8528381244)
(1947.248715 -2.146914014 0.1707574169)
(1944.726823 1.798023502 1.156978076)
(1946.559189 3.119530904 -1.240587243)
(1948.810495 -0.01206225114 0.2207880798)
(1950.862736 2.231873314 0.1330465905)
(1949.422578 4.277485842 3.220665219)
(1949.400312 0.6288002723 1.324361878)
(1950.295034 -1.486659096 3.21300678)
(1951.966272 -1.701895171 2.316742743)
(1949.445581 3.054147768 3.100920661)
(1950.803689 0.9021832526 4.396157211)
(1956.267642 0.4511524385 3.489411787)
(1955.382962 -0.2204011295 1.564985725)
(1954.530818 -1.500712257 -0.7805565541)
(1957.73225 -5.661504647 0.1560930265)
(1955.766218 -4.757787275 1.482141381)
(1951.230288 -1.916358415 0.7178688896)
(1951.429184 0.4734888435 2.639592477)
(1952.321889 0.4540177989 0.03428681387)
(1949.976562 0.7719218146 1.054174631)
(1951.417683 -2.873787618 0.2640806405)
(1952.172442 -3.271335216 1.621161301)
(1953.02968 -1.500188865 3.75126936)
(1953.568257 1.276451369 0.256650505)
(1953.59334 2.349297343 0.6882051929)
(1951.057918 1.695392008 0.2896039136)
(1950.56634 2.312326065 0.7883385786)
(1946.207876 4.951413681 0.6148092966)
(1945.408139 2.299866976 1.359728603)
(1950.721638 1.290868487 3.517324155)
(1952.761505 2.578319707 4.442209221)
(1953.125088 0.6978599555 1.575257267)
(1953.901988 -1.513114707 -1.493152852)
(1954.38194 1.300605943 -1.668249347)
(1953.066453 4.674197454 -2.429948202)
(1951.67411 3.673564607 -1.828777744)
(1948.650574 2.998183275 -4.04182833)
(1951.037039 1.216076635 -4.725641504)
(1950.082427 2.153584842 -2.60304985)
(1951.019038 -2.048117608 0.591521945)
(1949.823614 -4.210743366 2.493155278)
(1949.891628 -1.647977528 2.188279713)
(1950.811738 -0.497194322 3.98945289)
(1950.426374 0.1747828012 3.991023813)
(1950.232433 1.058048569 3.806764876)
(1951.031507 1.220765547 2.845633396)
(1953.115579 3.432455437 0.383961297)
(1952.652403 1.379469161 -0.2005216336)
(1953.532515 1.454329703 0.4502521109)
(1952.578101 1.14502903 0.6413273305)
(1955.446266 0.7008341912 0.6618425399)
(1950.455446 2.313121683 1.407617216)
(1950.303358 4.259245585 2.457083864)
(1950.066512 4.854668513 0.9791536706)
(1949.638889 2.699432837 0.8265527791)
(1950.12165 1.282963776 0.3626604647)
(1951.003383 -1.439789137 1.671457178)
(1949.678137 -0.8730481742 4.614657892)
(1950.591823 -2.014013579 3.601423205)
(1953.864637 -2.113605304 4.205892068)
(1955.5008 -3.544021256 1.314587412)
(1953.657587 -0.2943214171 -1.9299289)
(1953.974989 1.503980989 -1.389744563)
(1955.222156 2.539721064 0.5544723336)
(1953.266703 0.5191192831 3.302364968)
(1952.315575 -2.902977582 2.204592773)
(1953.286888 -0.7988877036 -0.246130615)
(1951.364343 0.1912425546 -2.729039454)
(1953.052658 3.283184924 0.1645393715)
(1949.944095 3.734213288 1.762120247)
(1948.510432 4.077022305 3.572331137)
(1949.280858 2.219232053 2.057650118)
(1950.294587 0.2213739157 1.500571031)
(1953.461816 -0.9119208782 1.97012806)
(1951.908545 -2.709366511 1.808090219)
(1949.918792 -2.992459623 2.048485369)
(1948.213208 -3.320357252 0.6962395873)
(1951.015066 -1.329364636 0.7114632158)
(1950.976132 -0.1478818276 1.29473246)
(1948.407171 3.817849196 -0.3029170938)
(1948.699548 4.522466129 1.572569304)
(1946.27807 2.448917953 -0.2042248308)
(1944.859006 2.576389811 -1.172530669)
(1945.93945 4.38009418 1.346410209)
(1946.080771 1.061262604 -0.84922536)
(1947.388149 0.4119237802 -0.8756906496)
(1948.357331 -0.1063547071 -1.342111874)
(1951.565789 -0.7106429582 0.2231817548)
(1950.585029 -0.5354703897 2.635113687)
(1950.458407 -0.3497230581 3.858990228)
(1952.219021 0.08184308919 0.8576730064)
(1952.038198 0.1987308057 2.766825993)
(1951.331455 1.653375302 1.153858619)
(1948.187787 1.100485089 3.426055377)
(1947.833754 3.755377424 1.381663019)
(1947.819849 0.6907967347 1.518652931)
(1945.957402 0.4583473007 1.058686461)
(1943.035665 0.8578553293 -0.4158696591)
(1945.513727 4.057157525 0.1644270264)
(1947.899821 4.943611217 2.588289852)
(1946.174118 0.5321717654 -2.368661952)
(1947.105205 2.293395086 -2.523629881)
(1947.880233 5.181617484 -1.80278603)
(1950.227625 5.368541488 -2.299218251)
(1950.653225 2.145053282 -0.1483221862)
(1952.990923 -1.834569009 -0.0347413721)
(1952.305535 -0.2171417708 -0.8518666449)
(1952.338992 1.036979103 -0.1409622758)
(1950.362214 -0.7270289351 1.203198078)
(1953.063392 0.9531696956 -1.203662625)
(1951.374817 1.60519929 -1.262033195)
(1952.056654 -0.03898505759 -0.4634001139)
(1953.761833 -1.008067519 0.8419202739)
(1956.14922 0.9194651656 -0.5904660519)
(1955.305787 3.713052431 -1.53839991)
(1950.470352 5.45915214 -0.3956548882)
(1951.06162 3.347240725 1.452366721)
(1951.937882 4.272548189 -0.4749662654)
(1952.193414 2.127720151 -0.3068361191)
(1951.226155 2.359222531 0.0613413864)
(1951.563777 2.741984339 3.230523319)
(1952.934059 2.292964903 5.445164593)
(1953.260991 -1.043597017 4.899407928)
(1952.016209 -1.043694749 2.557403125)
(1950.582079 1.898697351 4.074104607)
(1950.443631 0.3462755174 3.584608139)
(1951.073389 -0.1414445941 1.776889225)
(1949.034927 0.001861314555 1.447677291)
(1951.256985 1.583454839 -0.9659992287)
(1947.768834 3.105860606 5.664770419)
(1951.258323 4.719960631 6.318560707)
(1952.825932 5.350279314 3.795851044)
(1953.003459 4.668620527 3.900230925)
(1949.200791 4.001986089 3.485214462)
(1948.053272 -0.9465116058 4.911170917)
(1946.966098 -2.360058015 2.864416474)
(1947.136989 0.921725666 2.191424684)
(1946.664518 2.179041122 1.645804383)
(1944.470535 3.943689458 0.7253241269)
(1945.002051 5.246663938 2.347478634)
(1946.699587 3.11787639 2.171924308)
(1946.938775 1.576811238 2.226751645)
(1947.712987 4.106985975 4.731962805)
(1948.355146 1.885898185 2.370599648)
(1946.764527 3.657449645 2.935648434)
(1948.700908 0.2514785011 5.909489719)
(1948.370156 3.084934531 5.514736989)
(1949.467414 3.079930838 4.03565412)
(1948.394589 1.637004026 4.678021231)
(1950.473513 0.7899431792 5.634491047)
(1950.81995 4.660536611 5.157484335)
(1951.147286 6.580354843 2.550695022)
(1949.435278 3.725586776 1.434175991)
(1947.496224 0.4707649457 0.4074811809)
(1950.225747 0.9047316058 0.3959509286)
(1952.153611 2.089037214 2.309033513)
(1952.821279 2.910910796 4.185279214)
(1954.189384 -1.614891255 4.738959275)
(1953.623582 1.661398402 2.674604911)
(1953.879779 2.945219401 3.662047597)
(1951.261358 3.777187635 3.586126988)
(1951.390011 3.107988584 0.7946987832)
(1952.678938 -0.05634982985 0.7716669878)
(1952.643559 3.087030645 -2.319155328)
(1949.440521 6.458593404 -0.4007089735)
(1947.22492 4.671752532 -0.5711903766)
(1947.724064 2.846975425 5.476524819)
(1949.012455 0.3583527938 6.994224646)
(1949.397931 -0.9809132103 6.716506794)
(1949.433805 1.009243255 1.536811812)
(1949.355422 1.818944696 0.8930867809)
(1948.745866 2.211803783 3.742091294)
(1949.881835 3.957082487 -1.433692777)
(1950.632434 3.264729066 3.06915963)
(1950.875503 3.238074548 2.895769257)
(1951.904417 5.942491036 1.869729727)
(1952.646942 5.849810577 -1.192138581)
(1950.353853 5.981694622 -2.039559157)
(1950.193852 5.133890289 -0.7576266636)
(1948.436533 2.531008753 -0.05140775995)
(1946.982213 0.2401022492 1.647487829)
(1947.934082 -0.4082215172 2.292410653)
(1949.564052 1.232395488 1.370250999)
(1952.520624 -1.50101629 1.967467329)
(1952.804296 -2.026642742 3.854978566)
(1950.904271 0.1580541685 4.182869766)
(1951.86545 2.461131794 2.008398403)
(1951.653114 2.009655946 -0.2174395496)
(1949.688372 1.217439692 -1.013769773)
(1953.855512 1.237447887 2.824639787)
(1954.296162 2.954377383 1.542257202)
(1955.143322 5.984884859 -0.104206909)
(1953.927223 6.434385013 -4.216961674)
(1953.682029 5.160140997 -3.36728931)
(1952.172287 3.880690062 -0.1606371822)
(1951.345084 2.832697859 -0.6424063615)
(1950.914276 1.554267955 1.093034236)
(1950.411619 4.901935735 3.025080104)
(1950.650986 3.56921227 4.044058817)
(1950.57378 3.428713954 1.270018755)
(1947.988692 1.929097948 -2.175317472)
(1948.374746 3.821427754 -3.022123089)
(1949.823597 6.491658275 -2.543765684)
(1949.179655 4.829743327 -5.674015553)
(1950.347525 2.492673279 -2.542962098)
(1951.645431 0.8301631649 -1.268613822)
(1952.785001 0.7977188694 2.559928251)
(1952.126922 1.203759698 1.946739586)
(1952.236261 2.950483 1.988610481)
(1954.80376 6.254778489 -0.7620460355)
(1955.496576 4.628896867 0.8448476374)
(1954.305686 2.106734552 1.77503616)
(1949.2344 -1.741049373 2.714509251)
(1943.264342 -2.374364461 2.233981148)
(1947.634389 0.204445307 2.932873629)
(1949.581412 0.9642469572 4.02487932)
(1949.116208 2.20751892 3.554413995)
(1951.107314 4.184204014 -0.1089027072)
(1948.778555 5.522539782 2.744005105)
(1947.794486 3.885677002 0.04266958094)
(1946.381463 3.579123662 2.268322123)
(1949.769164 4.176883615 3.28976205)
(1950.649209 3.483035149 1.331833874)
(1951.986838 3.624288759 2.30566512)
(1954.947457 0.9094280169 1.446764832)
(1953.931226 -0.7797055971 0.5656931691)
(1951.456319 2.079253278 -0.5764254408)
(1953.818988 3.791101413 0.2151730326)
(1953.441211 3.879842753 1.42212289)
(1951.265337 1.927091536 6.327235891)
(1952.26607 3.011258991 4.836437417)
(1949.205561 8.337493453 1.922550694)
(1949.81536 5.174668988 0.466122169)
(1950.606149 3.753240292 -2.600838334)
(1950.763146 2.813519746 0.1678316774)
(1949.219077 3.116923372 -2.187227741)
(1949.804951 0.2892570861 -0.7922189875)
(1948.433612 1.887725287 3.036479591)
(1946.904124 3.396008324 4.793468462)
(1946.368707 5.153850746 3.38946052)
(1947.357038 5.605024027 2.168468353)
(1947.202451 4.907459674 -0.692481763)
(1948.685082 2.097134528 -1.775378571)
(1948.025303 -0.6676523794 -4.008668514)
(1947.732355 -0.6913003422 -2.721729509)
(1947.053193 -1.003473084 1.782254247)
(1949.703193 -0.8197733528 3.856539574)
(1949.172495 -0.438140658 3.491067772)
(1950.776626 1.003477981 2.440908327)
(1948.21417 6.080813332 1.02320347)
(1951.22606 5.293806474 1.037271503)
(1951.371606 4.981903729 2.91924453)
(1949.888543 4.797752946 4.127034042)
(1949.460725 3.381786394 2.841898223)
(1951.286857 2.668621807 4.071465069)
(1949.40807 4.425280269 0.3921786034)
(1950.657537 5.842043239 0.5416319757)
(1948.251325 4.818040167 1.45824787)
(1948.965029 2.272319792 2.704621705)
(1952.872938 3.242328441 2.540825547)
(1954.268484 1.267041327 0.6993383077)
(1955.049634 5.528184376 3.326109693)
(1952.987718 7.218179105 1.631116127)
(1953.130591 5.933515332 2.33156915)
(1953.205325 2.945466648 2.964816797)
(1952.447661 0.6131847075 2.135885284)
(1954.032844 -0.5107979603 1.281919098)
(1951.002975 3.13163365 2.425906327)
(1949.632707 1.943312398 2.12924217)
(1947.921529 1.28476739 -2.32604933)
(1948.024672 0.7894964815 -1.205711447)
(1947.408156 1.632582956 3.696593405)
(1947.162813 2.385178247 3.441426618)
(1950.302424 1.004044732 3.355751323)
(1950.952035 2.166773112 3.672572589)
(1954.993822 2.340166561 3.34374862)
(1953.660899 2.895844148 3.302397037)
(1951.00332 1.296932703 1.18474734)
(1949.556937 2.045129373 -0.7844432642)
(1948.013179 3.221363998 -0.4384356438)
(1946.63817 7.830034912 0.7235740341)
(1947.775942 3.543552152 1.516780644)
(1950.100942 3.548515016 3.327093701)
(1952.505668 6.526652667 -1.270480834)
(1951.808161 2.263848334 -0.9322277092)
(1951.127837 1.192716247 -3.10130029)
(1949.488993 0.2104603146 -4.87241716)
(1948.879715 -3.712750953 -1.986763375)
(1947.600635 -1.811294884 -3.610257437)
(1944.480699 -0.08092668626 2.480744347)
(1944.025647 1.846222766 1.290560767)
(1947.143272 2.429012765 0.1258734789)
(1947.155214 2.780705233 -1.528405471)
(1949.964579 1.699232573 0.6955340973)
(1948.392318 5.205571366 1.678088983)
(1946.112722 3.029095019 1.397347049)
(1948.265495 1.236539654 1.503606224)
(1951.266946 1.022343364 3.331524646)
(1949.959012 2.69763741 2.078011319)
(1953.76774 0.1474143434 0.9489345869)
(1953.619275 -1.213125141 -2.372293419)
(1950.558483 -0.2417061909 -2.219625028)
(1948.867403 -2.247630693 -2.82254469)
(1948.469303 -2.220289152 -0.8032454048)
(1946.147561 -1.041776872 3.049950245)
(1948.133637 0.9115547519 4.82296323)
(1950.815948 1.239469821 4.251674684)
(1953.141719 3.783601511 0.5376544397)
(1949.1125 1.233877713 3.430003971)
(1947.392709 4.148004218 3.279502459)
(1946.663352 3.346948357 1.08825913)
(1948.973745 1.520038131 5.005964617)
(1949.402515 0.5070557888 4.862423484)
(1947.415551 -0.4253744751 1.19577774)
(1950.510126 -1.378191595 -0.3104338398)
(1952.186678 -1.558292397 -2.043481609)
(1950.206678 -0.8908005816 -2.625100605)
(1948.467317 -0.004716539687 -2.139114245)
(1951.179476 0.779994394 -0.5824721237)
(1948.833784 0.3807433545 -1.103357648)
(1949.368459 1.068840573 -0.3581527467)
(1951.829439 2.212486128 -0.9837355518)
(1954.080923 1.268348659 1.053405083)
(1953.254029 0.7542031681 2.808644441)
(1952.591283 1.666318615 5.61451005)
(1955.971479 -0.4943008744 1.567470639)
(1954.059455 0.682450262 3.333139887)
(1951.790486 4.384245355 1.566061313)
(1949.093029 3.880275725 0.4400859811)
(1954.320353 1.128959257 2.58980689)
(1951.778886 0.1164554216 1.609516914)
(1949.964307 -0.538311175 -0.1527832175)
(1951.739608 -1.832173735 -0.8784621256)
(1949.027598 0.6249708969 -1.190625131)
(1949.685361 0.6915042239 0.6320755422)
(1948.562751 0.4539373622 3.864553562)
(1949.540044 -1.295593258 3.486641111)
(1950.041147 -2.159465123 1.313931943)
(1949.86556 -0.6328283144 1.080708106)
(1950.313183 0.5588597407 0.9435434049)
(1953.294986 0.2625114133 2.406433057)
(1952.924915 0.3104530713 1.651731914)
(1952.122321 0.5992583892 3.423718717)
(1952.116417 2.529986346 5.044474217)
(1949.687763 2.204473773 2.789255362)
(1951.457565 3.296881647 5.548340423)
(1951.730757 0.04124359473 4.365807566)
(1951.076548 -3.239668327 3.902323674)
(1955.371181 -0.1505769463 2.431899862)
(1951.182242 -2.198345811 0.690288924)
(1949.543854 -1.141367895 -0.09816265438)
(1950.26058 -2.008830761 1.435660564)
(1949.322906 -1.07498846 0.3669122191)
(1950.127677 -2.034352285 1.194959497)
(1951.872995 -3.580547454 0.3521478929)
(1953.629883 -5.038967688 -0.794090542)
(1956.493693 -2.739768478 -0.8077758337)
(1957.097382 -2.577132132 -3.842432662)
(1957.816503 -3.948995905 -1.951295681)
(1956.262441 -0.1802076678 -2.152750746)
(1953.230539 4.28436751 0.143776038)
(1951.074865 4.549662335 1.925162988)
(1954.436813 3.583342206 2.900573959)
(1953.20517 -0.2497294847 4.051689971)
(1954.886455 0.1792013775 2.036971708)
(1953.570611 0.4659825442 2.396973387)
(1952.376723 1.003472664 6.027568983)
(1950.836622 0.8657975749 5.131796457)
(1948.723546 0.2488172796 4.936067399)
(1953.012409 2.237403659 -0.912840042)
(1951.084521 0.639516634 -1.591692947)
(1951.19251 -0.952126776 0.8620842171)
(1951.598783 -1.08079878 0.6598975388)
(1951.585961 -1.736629258 1.282113838)
(1950.843075 -2.046124885 1.786627742)
(1952.060886 -0.9774836649 3.033902983)
(1951.574646 0.4599404766 2.431654755)
(1951.557596 1.365419392 0.4083773572)
(1952.389764 1.347174889 -0.3802515024)
(1950.934159 1.527039887 -2.035215837)
(1950.707215 -0.9128772711 -2.836875369)
(1953.234749 -3.198896821 0.5815355995)
(1950.759702 -4.553025206 -1.077618922)
(1950.367382 -3.053995038 -0.8852526703)
(1951.983873 -0.7773685893 1.519989706)
(1951.735675 -2.841147721 0.5210286041)
(1953.196886 -1.842924706 2.009830063)
(1951.507585 -1.715370023 1.31577423)
(1953.880461 0.4902487317 -0.8976471765)
(1950.449434 0.37553176 0.7673785947)
(1949.616384 -0.6778182158 1.38417672)
(1948.657631 -0.4413444393 3.60100228)
(1947.068409 1.846697198 3.997121882)
(1947.094487 1.365105434 2.54384346)
(1948.981248 1.925220158 0.7493398798)
(1951.214222 2.904928489 -2.988755436)
(1954.92138 -2.392816706 -0.6941449592)
(1956.758142 -1.091801421 0.4769088375)
(1955.681354 0.8350909258 0.118397163)
(1955.002299 -2.93706954 0.8819985684)
(1955.042203 -4.074265258 -1.688553487)
(1953.40927 -6.0717112 -2.864233616)
(1952.120125 -4.875664096 -2.20653926)
(1951.185619 -3.900814528 -1.56733164)
(1953.158043 -1.820249346 0.5879986822)
(1953.635517 -1.008364288 -0.4195386212)
(1952.993596 0.472745146 -0.144606036)
(1955.373896 6.432123361 -1.936387764)
(1952.44902 4.165361303 -1.693929757)
(1946.943379 3.467831975 -0.4786196965)
(1947.620859 4.164035389 0.7144554367)
(1947.733657 4.5442135 0.09207373848)
(1948.607722 -2.487785209 -1.430295419)
(1949.072543 -2.974276582 -1.964184944)
(1950.662105 -1.557104867 0.1319964357)
(1947.92392 -0.6584216466 1.008485041)
(1949.47846 1.214332811 -1.353528692)
(1950.447239 1.373156155 0.5666649208)