/*--------------------------------*- C++ -*----------------------------------*\
| =========                 |                                                 |
| \\      /  F ield         | OpenFOAM: The Open Source CFD Toolbox           |
|  \\    /   O peration     | Version:  v1706                                 |
|   \\  /    A nd           | Web:      www.OpenFOAM.com                      |
|    \\/     M anipulation  |                                                 |
\*---------------------------------------------------------------------------*/
FoamFile
{
    version     2.0;
    format      ascii;
    class       volVectorField;
    location    "0.01";
    object      UMean_N2;
}
// * * * * * * * * * * * * * * * * * * * * * * * * * * * * * * * * * * * * * //

dimensions      [0 1 -1 0 0 0 0];


internalField   nonuniform List<vector> 
5120
(
(1952.258493 0.2346004612 0.08474225083)
(1952.287826 0.8659898156 1.88700047)
(1951.569715 -0.9712040655 3.306605087)
(1952.201484 -2.704192612 1.631166531)
(1952.361032 -1.740318697 2.680927399)
(1953.319015 -1.242859389 1.753198725)
(1953.114716 -0.3377734811 0.4163929011)
(1953.149775 0.4544458232 1.298544559)
(1952.894752 2.193591691 1.447714831)
(1951.99695 -0.05687619429 1.576537697)
(1950.210366 -0.193064263 1.192936221)
(1950.82724 -0.5170479029 -0.255614588)
(1951.707477 -0.2070613577 1.428955547)
(1952.338758 0.01155941431 1.883051156)
(1952.458513 -0.203932864 2.067246221)
(1954.884052 2.071193924 1.41804794)
(1953.246992 1.425137303 2.334226112)
(1952.786319 -0.3072509232 1.813518455)
(1951.837874 -0.6811093287 1.293015855)
(1952.313062 0.01008861774 0.1667729892)
(1950.724761 -0.04721788235 0.8188092547)
(1949.826471 -2.046441047 1.523295391)
(1949.960767 -0.07331878862 1.735678425)
(1951.796109 -0.5644773398 1.912780786)
(1953.351419 -1.328166153 2.876577873)
(1952.604959 -0.8853522285 2.817800548)
(1951.448183 -1.945484047 1.700185412)
(1952.414871 -2.195740524 1.546184194)
(1952.914255 -3.14593865 1.745246014)
(1951.893473 -1.562714091 2.351188674)
(1952.891968 1.122102682 4.270711314)
(1952.910575 1.484036507 3.059746616)
(1952.281694 2.774042463 1.531017124)
(1950.953971 2.581371794 2.253513686)
(1950.408826 2.093355088 -0.74621476)
(1951.621625 1.264599412 -0.2688384447)
(1950.977708 0.8159892543 -0.6371683352)
(1950.72788 1.907355314 1.732016932)
(1950.950728 3.008883273 2.117361389)
(1949.593764 0.9277086938 0.9174205414)
(1947.932657 0.1217910092 0.548700094)
(1947.173231 0.2859827256 -0.3912467829)
(1946.759112 0.0129923802 0.5069666116)
(1947.706996 0.1018142193 1.308985338)
(1947.331118 0.3110511398 2.163585364)
(1947.777043 -1.031728946 2.318199001)
(1948.983926 -2.027877107 2.489866892)
(1949.941253 -1.854637886 1.954776666)
(1950.67283 -1.82819326 1.552487105)
(1949.687931 -1.770419236 -0.2635716939)
(1950.540345 0.2436101799 -1.442847814)
(1949.465085 2.660981171 0.1780515063)
(1948.15793 2.807767222 0.4668437025)
(1948.476944 4.700734579 -0.02588398464)
(1948.119008 2.856503749 0.2522765081)
(1949.631345 2.56753007 -0.3712811515)
(1949.33375 2.643627166 0.3300907782)
(1950.325083 1.018418687 1.348297733)
(1949.975126 0.1471132814 -0.1976832536)
(1948.019505 0.245540892 -0.7820726455)
(1949.45409 0.07919063022 4.521400172)
(1950.787111 0.08678201442 4.874036753)
(1949.699155 -0.6324313267 2.519864162)
(1949.38827 -1.928132591 2.379035405)
(1949.4439 -0.9853618871 3.055292099)
(1949.745747 -1.243688799 4.258606162)
(1950.368544 -1.06770706 3.555649734)
(1950.825226 0.7709432688 4.512246812)
(1950.905262 1.609105584 2.754513871)
(1951.172759 2.643738888 2.708915486)
(1951.617052 3.278227847 2.74753071)
(1952.882596 1.196247404 1.791480077)
(1951.626006 -0.990345661 -0.2503317822)
(1951.13291 -2.3802766 -0.5644862115)
(1950.231423 1.438304052 -0.8697782615)
(1948.055554 1.855478481 -1.409112425)
(1947.100897 -0.08019446491 -1.540073337)
(1949.030015 0.5284063225 -1.456748671)
(1950.371131 1.182806155 1.16139196)
(1950.073938 1.755633216 1.36385209)
(1950.470491 -1.829947098 0.4550671676)
(1951.350901 0.1460066209 0.8460755319)
(1952.572408 1.030709642 0.6470765519)
(1952.228696 1.558505479 1.31950437)
(1952.661853 0.2006060224 1.88323937)
(1952.67369 1.210775716 2.324177058)
(1952.388855 1.66095903 1.401553678)
(1950.149573 0.6686708034 2.021560483)
(1949.221062 0.1945931209 4.031193414)
(1949.775131 1.760239038 2.682807797)
(1950.332482 0.8091005267 1.784015514)
(1951.660351 0.6765014666 1.425542803)
(1951.902564 1.724808888 0.994233524)
(1951.619058 1.794803666 0.7036750589)
(1952.48382 1.447369128 0.05211457841)
(1953.435187 1.08283216 0.7447395145)
(1953.134566 1.421738285 -0.03402115112)
(1951.759782 1.127062807 -0.4466737935)
(1951.916801 -0.5466760548 0.6515693001)
(1951.996826 -2.388383083 -0.6440329989)
(1951.030271 1.80634101 1.166071009)
(1949.253951 2.532635053 2.183436289)
(1950.383876 1.37975996 3.154874636)
(1951.828284 1.083117861 2.343710176)
(1954.154935 0.4189919236 1.58546732)
(1953.337137 -0.2372164608 1.720818967)
(1954.807041 -0.3198955801 2.155994779)
(1953.359796 -0.3012351938 0.4875897715)
(1955.117561 1.848853333 0.7407599692)
(1954.95078 2.133085601 2.020029817)
(1952.659661 2.142958738 0.373484133)
(1950.187996 1.559581174 0.732335239)
(1950.797132 1.975839161 0.1641517159)
(1952.680965 1.525765788 -0.1756659963)
(1952.10465 0.975167342 -1.021251667)
(1952.378179 0.6256950872 -1.988833334)
(1952.224356 1.698918716 -2.254493265)
(1951.288133 0.4194075031 -1.371645087)
(1951.837456 0.3709096608 -3.579538037)
(1951.987342 1.328411166 -1.241951635)
(1952.928866 -0.8033481523 0.8657236146)
(1953.986342 -0.9188578535 -0.780623529)
(1951.818108 0.2401570671 -1.69151043)
(1952.33635 2.624349029 -0.8612001332)
(1953.538237 3.54857699 0.2632874364)
(1952.530958 3.055635 1.593883497)
(1951.6551 0.3068460584 0.02533160754)
(1952.185948 -0.8218310347 1.001422881)
(1952.416815 1.105696237 1.991274827)
(1953.023805 0.8198439886 3.696660481)
(1953.982992 1.145699983 3.693192825)
(1954.21711 1.793748826 2.484471056)
(1952.658578 1.934199347 2.225165892)
(1952.332508 2.892897623 0.7337020173)
(1953.262688 2.286887056 0.3124272104)
(1952.649958 1.403648465 0.9691283216)
(1952.374975 0.4876401213 0.8904153203)
(1950.455964 0.1683856557 1.098584616)
(1951.690592 -0.3625747471 -0.2502180561)
(1952.548451 -1.657072874 0.904507393)
(1953.572367 1.597685795 1.946546556)
(1954.099371 2.575470418 2.119464598)
(1954.903298 -0.003252700435 4.946932555)
(1954.670545 -0.5366548466 3.398472015)
(1951.766652 0.8922289721 3.312226295)
(1951.360667 -0.1779931834 3.368342371)
(1952.972902 -0.3562139381 4.192563125)
(1951.810015 1.333911601 3.350490975)
(1950.457663 0.7359050902 2.516425439)
(1951.682751 0.1621048257 2.108757423)
(1951.116466 0.2195943655 3.994766747)
(1951.011396 -0.434578105 3.185418813)
(1950.337696 -1.107349153 2.944688409)
(1951.788265 -1.85617718 1.710157409)
(1951.246797 -0.9368903602 1.148262218)
(1951.732453 1.119183325 1.41675633)
(1953.596201 1.48920383 1.877304722)
(1954.349856 1.870341698 0.841874476)
(1954.429236 0.7815398043 0.8915305288)
(1953.76485 0.9723707259 1.409089421)
(1949.78026 -1.336935978 2.664075433)
(1950.300795 -1.318033607 1.801775968)
(1950.023035 -0.1222918986 0.7489305271)
(1950.688691 -1.05427141 2.849511217)
(1951.641819 -1.723266915 1.797083682)
(1951.992576 -1.271587094 0.5277022829)
(1950.977348 0.2447576391 0.1691026658)
(1951.674537 0.9942348813 -0.1090957734)
(1951.638846 1.235710136 0.9286272628)
(1951.007228 -0.6850459821 1.570196524)
(1951.244489 -0.8404859462 2.365238333)
(1950.497902 -1.549078611 0.9419495659)
(1951.542572 -0.419688647 0.7523277133)
(1951.316278 1.547518013 -0.01024727102)
(1951.032284 0.717628941 -0.4561708173)
(1951.689022 0.9573323614 0.2906111406)
(1952.333793 -0.4839239177 1.48414723)
(1951.512533 0.2971940952 3.417712377)
(1951.942302 1.557624806 4.959456462)
(1950.334527 1.624400601 3.682303002)
(1954.854934 0.06764385421 1.752017609)
(1954.727794 -0.3114764171 0.2186935809)
(1953.490137 2.280826499 1.134825274)
(1952.604583 1.558482221 1.849487665)
(1952.846321 3.291748208 1.809438063)
(1951.776324 4.187717767 1.454400439)
(1950.585048 2.485835576 1.323642792)
(1951.262006 2.412542823 -0.1655676111)
(1952.426687 1.268409511 0.6638528408)
(1953.566857 1.170491112 1.48795116)
(1952.721304 2.066003715 1.151526087)
(1951.492258 2.462486425 -0.6756086519)
(1951.770376 1.503945109 0.3712280116)
(1951.377565 0.5336116966 1.047624275)
(1951.136343 1.606464125 0.3394323863)
(1948.92961 2.295537586 -0.9008263563)
(1948.952088 1.931045838 -0.3888342211)
(1952.412004 1.259724948 -0.08229053925)
(1953.046583 -1.67842314 0.7301073277)
(1954.219873 -2.092433897 1.843400328)
(1950.490706 2.819627634 1.751190472)
(1950.724907 3.195092349 1.659501577)
(1952.036712 1.752313486 1.574889266)
(1952.63769 1.119421935 -0.5328449445)
(1951.717844 0.8689505344 0.4073909479)
(1951.258054 -0.141240576 0.7430329313)
(1951.888565 1.899393511 -0.3876052518)
(1950.092138 3.133748002 0.2235809964)
(1948.311772 5.13348259 -0.5631545848)
(1948.124431 3.435354916 1.419448439)
(1949.296382 1.490341425 2.135102389)
(1949.046618 2.568240458 1.394454953)
(1948.979954 2.057862408 0.7529936502)
(1948.478142 2.465074271 0.5956364898)
(1949.954923 0.2831308777 -1.621090129)
(1950.824616 1.079349241 -1.255717633)
(1950.046781 2.476146021 1.403584732)
(1950.915005 2.052875857 1.966728757)
(1951.378033 3.170018293 2.896773485)
(1951.627598 3.3562179 3.209257166)
(1949.677408 2.129674891 2.16980202)
(1949.516938 0.5455876872 1.694885844)
(1949.575832 -0.6422275929 0.9250102388)
(1947.990833 -0.2458442535 2.133531102)
(1949.533462 0.3032836786 2.854245094)
(1950.284513 0.1409514787 2.227529817)
(1950.357305 0.2182069904 1.552867612)
(1951.650175 -0.2674660978 2.579645587)
(1951.54906 0.6816762337 2.158255093)
(1951.313103 0.3834541869 0.3922564244)
(1952.137967 -0.4984555645 0.4195788872)
(1951.516163 -1.786082638 1.368216162)
(1952.574789 0.2060487793 1.947685218)
(1951.120544 -0.3638215597 2.475607024)
(1951.266293 -1.18876942 5.239596377)
(1951.196373 -0.99707356 2.819617229)
(1950.386492 -0.1970500348 2.552699731)
(1949.064101 2.405505119 1.04826552)
(1948.894783 4.235519963 3.473726061)
(1947.971466 2.618228215 1.284568441)
(1952.155265 -0.8131734406 1.58452239)
(1951.583652 0.9763271619 1.925511726)
(1951.526917 0.1707826817 2.43397663)
(1951.185602 -0.3945622055 2.365782346)
(1952.663274 0.2786022398 2.80194871)
(1953.51165 0.04752142925 1.809992462)
(1952.830607 0.219833603 1.665585103)
(1952.234337 -0.497261377 2.228014192)
(1952.114753 -1.859350473 1.949926366)
(1952.305058 -1.00555215 2.658748266)
(1951.365494 2.083985606 1.90466168)
(1952.361887 1.334079149 1.840747175)
(1952.56502 0.2919720882 2.447716533)
(1951.12112 -0.4912914255 1.550504892)
(1951.900304 0.7055987213 1.864643749)
(1952.444668 -0.3164764838 1.513067671)
(1953.250136 0.07713997367 1.825624133)
(1953.394629 0.1323286342 3.079098284)
(1953.103287 -0.4873454047 0.3537229981)
(1954.050901 -1.328820777 0.5572726553)
(1948.766121 -3.570503544 1.575530411)
(1949.013603 -4.404102589 1.177815912)
(1950.459247 -3.264077319 3.235085615)
(1951.141134 -2.841566134 3.753209211)
(1951.05831 -4.42742852 2.97114454)
(1950.419926 -2.002871635 3.095956099)
(1950.003733 -4.624447789 2.541584824)
(1949.974885 -3.552434863 2.189534568)
(1951.104526 -0.8266403951 0.6746802313)
(1951.926118 0.4086714781 0.009739340876)
(1953.685086 -1.628442457 -0.7810289809)
(1951.937976 -0.01496221004 -0.1589136262)
(1951.478008 -2.365564553 -0.3457834288)
(1949.966044 -0.8266827875 0.3137323082)
(1949.870143 -0.3319015863 1.661103154)
(1949.255879 -0.3503174772 -0.4175862415)
(1947.971506 -0.9709549185 0.1434914318)
(1947.457643 -0.9999810453 2.480681117)
(1948.281147 -0.835499021 3.177005578)
(1948.514458 -1.67472215 2.164471039)
(1950.631331 -0.7896842643 -0.2403161852)
(1948.996624 -2.167312443 0.3548578564)
(1949.548347 -2.252973246 2.306004963)
(1949.102775 -2.570422042 0.8918277466)
(1948.795032 -1.966502924 0.2243034427)
(1948.679461 -2.638872239 0.6880963025)
(1949.307123 -1.290948728 -1.095329293)
(1951.546238 -0.9793925534 -0.9033613578)
(1950.525098 -0.7022784597 -1.686563477)
(1950.260866 -1.638068541 0.2518273238)
(1950.299494 0.1866172481 1.104164749)
(1949.992635 -0.1553628861 2.088008273)
(1950.171034 -0.3500414318 1.175711882)
(1950.816641 -1.367014966 -0.987549068)
(1949.840261 -1.927116059 -1.501600445)
(1949.610684 -1.398824841 1.655988887)
(1949.836494 -0.005887985175 3.512025494)
(1951.048386 1.068184301 0.7652143215)
(1950.030098 -0.1976346475 -0.3055854054)
(1950.148602 -0.303460747 -0.712497537)
(1950.69549 -0.4090672277 -0.3998886289)
(1948.955028 -0.5587905615 0.1818575265)
(1948.123407 -1.39508812 1.168250498)
(1949.680323 -0.5486784365 2.028840048)
(1949.793984 -1.422834714 1.545733453)
(1948.772051 -1.710925651 2.661053922)
(1947.347609 -2.029113459 1.737680512)
(1946.689933 -2.841834814 0.5900865495)
(1949.289954 -1.792726529 -1.089153122)
(1949.777928 -2.769687955 -2.389876852)
(1951.34917 -0.83715092 -0.9987451048)
(1950.222662 0.7847416661 -0.3375876875)
(1951.631603 2.433636583 0.2236443655)
(1953.466278 1.206270545 -0.9836008314)
(1952.276843 -0.8662288478 0.2868162606)
(1950.65905 -1.319478443 0.5216162265)
(1950.36564 -2.565625641 0.2792206046)
(1952.744862 -2.366913957 -1.701954416)
(1952.166518 -1.209848502 -0.9568455259)
(1951.778139 -0.668858605 -0.4657944281)
(1951.254378 -1.268471938 1.177876716)
(1951.116125 -2.192668631 0.1951623119)
(1951.809132 0.1743973339 -0.187237758)
(1950.503208 0.203953958 0.4403756739)
(1950.67421 1.038593106 2.049589729)
(1950.444573 1.535912508 0.8589960147)
(1948.766059 -0.6615378418 0.4253838575)
(1949.22571 0.7429585027 1.939113931)
(1949.587481 0.9450355167 3.167138671)
(1950.159501 2.163925489 2.510196006)
(1951.565292 2.463660055 1.387160272)
(1953.624452 0.5491232167 -0.021452007)
(1953.769127 0.4087675616 -0.3917926929)
(1954.433505 -0.8051350377 1.276092785)
(1953.43373 -1.829364835 1.454350104)
(1951.194764 -3.321054717 2.606283763)
(1950.490654 -2.500484486 2.132033646)
(1951.508943 -2.673388734 1.356766546)
(1951.716518 -1.329424435 1.478751344)
(1951.292999 -0.7683989039 2.887909177)
(1950.535738 -2.289853404 -0.6085790801)
(1949.110517 -0.2771530616 -0.6573251103)
(1950.550228 -0.7238637067 1.122530678)
(1950.981909 -0.9941536976 0.5793185729)
(1950.008102 0.7364627473 -0.858584432)
(1951.044599 0.006851667245 0.8093159482)
(1951.905944 -0.5986240919 0.5042877613)
(1948.909754 1.254321277 0.5340699826)
(1950.477435 1.376435606 0.2097047057)
(1950.97391 2.203539934 0.7834254772)
(1950.78523 0.5430169465 -0.5813693036)
(1951.19413 -0.2852908985 -0.3370743302)
(1950.893654 -1.729646661 2.4370266)
(1950.831337 -0.6672008724 2.492250711)
(1949.588904 -0.6020307587 3.16541216)
(1949.132644 0.398499276 2.797541789)
(1951.410907 0.4878188565 0.8056192477)
(1950.611422 -0.2250253103 -1.137340515)
(1950.782522 -0.8962289437 -3.340833628)
(1951.552242 -0.9835100921 -1.718854852)
(1950.357253 1.913380652 0.9067448494)
(1951.173317 1.485912523 1.605388844)
(1950.238928 1.778199453 0.8968131792)
(1948.949566 3.654254894 -0.8596916467)
(1949.74295 2.045669116 -1.764183195)
(1948.941775 3.000218482 -1.169482347)
(1947.57475 1.170845956 -0.2238753758)
(1948.211969 0.2232341434 0.5223944647)
(1947.809709 0.4302537893 1.707149053)
(1949.491563 0.1381507295 2.903827435)
(1949.298312 0.3142824649 4.183763796)
(1949.111594 0.1732710444 2.57704756)
(1948.186574 -0.3581962818 1.077253725)
(1947.442375 -1.086395893 1.028615272)
(1949.761989 -0.4360227106 -0.7110861554)
(1949.753544 -1.123822604 1.971544269)
(1949.7067 -0.1903024147 1.451271239)
(1949.809718 0.9533789159 1.518599245)
(1950.018755 0.995617703 2.168174905)
(1951.270836 -0.2661994254 1.306860383)
(1951.359226 0.818863089 2.599915236)
(1951.619509 2.211269011 2.148761502)
(1951.913634 2.565810101 2.18058229)
(1952.530468 2.39137675 2.658959841)
(1951.67619 3.338659423 2.789086547)
(1951.341671 4.637427784 1.39462718)
(1953.254268 4.933381427 1.641370509)
(1952.477674 3.944612104 -0.4447530093)
(1952.140416 4.828688971 2.291122038)
(1949.837486 3.016884206 3.121077742)
(1948.958875 1.229067426 2.000850062)
(1947.358852 0.4325006494 1.630972788)
(1948.397864 -1.173844089 0.2193415902)
(1948.513395 -1.652264453 -0.2465408749)
(1948.202755 -1.728537512 0.2304075407)
(1948.38586 1.129951973 0.3942169501)
(1949.511809 0.523977753 0.5888073814)
(1948.869476 -1.241956727 1.752044714)
(1949.585011 -0.748024014 2.897308761)
(1950.985886 -0.1113544635 2.695632465)
(1952.656197 2.015743626 1.247088003)
(1951.823199 2.919721162 0.2710134112)
(1951.115536 2.667155229 0.8198390847)
(1949.916951 0.137556801 0.4424881023)
(1951.096047 1.005279108 0.6474643284)
(1951.236874 0.3792297506 0.8792365435)
(1951.540386 -1.176617486 0.9564352391)
(1953.288156 0.3142286372 1.060215444)
(1952.20849 0.5063133074 -0.4798437686)
(1951.532506 2.707592334 -0.6855933096)
(1952.744308 -0.03352007767 0.5232088188)
(1952.983073 0.1858385974 0.6396643013)
(1953.193245 -0.08276144974 0.3168134396)
(1952.328544 -0.2093997761 1.24639744)
(1951.1971 -1.723477301 1.315051928)
(1950.065673 -2.505593385 1.900902624)
(1951.016708 -1.784379436 3.227907873)
(1949.952095 3.665024029 1.731180806)
(1950.880012 4.21486943 1.476466883)
(1950.875563 2.04917503 1.000786759)
(1953.001483 0.2071066527 0.2730820985)
(1952.312899 -1.542362552 -1.078946765)
(1952.53494 -1.521370713 -1.155021813)
(1952.445996 0.2409001745 -0.7818855106)
(1953.820111 1.071227315 0.6547459646)
(1953.80044 -0.2056504334 0.9646327535)
(1953.381976 -0.2313698912 1.064918553)
(1952.868599 1.397706235 1.23190391)
(1951.872489 -0.06287161681 1.733535294)
(1952.6876 -0.8648040598 3.147953053)
(1950.883444 0.497230348 1.253478722)
(1950.169448 1.429211362 1.001750824)
(1950.559434 0.01628714569 0.9934280078)
(1949.54479 0.3130804712 1.624735138)
(1952.045947 1.344611241 1.803520973)
(1952.491717 1.713196561 0.6423932755)
(1951.267451 1.75786367 1.170815478)
(1951.395452 -0.1916704536 1.666285937)
(1951.311534 -0.6770061843 1.744134964)
(1951.360008 -0.2694020031 2.00507478)
(1952.072591 -0.6869313585 -2.378974024)
(1951.686496 -0.06214346635 -0.428832195)
(1952.151782 0.2812435958 0.7650205912)
(1952.228405 0.6530090242 1.543201423)
(1951.10888 0.581447362 1.554239999)
(1951.396941 1.778723401 1.557628256)
(1953.169495 2.40054278 3.15615973)
(1952.126224 0.2318820757 4.797760521)
(1952.477357 -0.508956888 3.689175488)
(1951.194084 -0.6119865797 1.366255159)
(1951.936088 0.1080979802 1.595822129)
(1952.853001 0.1723972509 0.8904219114)
(1951.451123 -0.2103893772 0.743599754)
(1950.418151 2.41556913 0.5439141728)
(1949.896098 1.172989883 1.424045663)
(1949.190292 0.713725764 0.9192232384)
(1950.668961 -1.353305939 0.6269806813)
(1951.814855 -1.236755569 -0.6029614905)
(1951.838293 -2.194436097 -0.8804871737)
(1952.582596 -1.121170608 -1.237653703)
(1951.835125 1.768527415 3.289006189)
(1951.841814 -0.7014416539 2.644492868)
(1951.417637 -1.13939732 3.486724521)
(1951.01318 -1.087924096 2.938154829)
(1953.022774 -1.027537489 2.159973791)
(1949.765425 -2.341365264 1.84879878)
(1948.822898 -2.446613255 1.236040444)
(1949.98433 -1.297979237 0.5234127786)
(1950.337578 0.5139259321 1.726371245)
(1951.519759 -0.5642697975 3.454380149)
(1951.929426 -1.364938096 2.734570624)
(1951.464872 0.8371791666 4.279832442)
(1951.171091 0.1163146308 2.66023803)
(1953.106763 -1.598683671 2.857737414)
(1952.088546 -0.2444950035 2.004149524)
(1952.159697 0.04870651595 2.113884024)
(1951.110025 2.036246846 0.4634381324)
(1950.198478 1.868395891 1.13457149)
(1950.917517 1.854548027 3.980250726)
(1952.119853 1.684147155 3.984387287)
(1951.719028 1.886208274 0.2688774159)
(1952.347801 1.604233905 0.7665454097)
(1953.20191 0.2742080987 0.2980939447)
(1952.201424 -0.3643211325 2.968201438)
(1950.99976 -0.3482802946 2.224988899)
(1950.45228 -0.4180984871 1.026661104)
(1948.890382 -0.2495467392 0.988646476)
(1949.70677 0.2143697052 1.089729794)
(1950.710635 -0.843025055 -0.6869623183)
(1951.869941 -0.9434316182 -0.4693264851)
(1951.938273 -0.8664916476 0.73587798)
(1951.187786 -0.8765240323 2.178427578)
(1950.661896 0.708062259 1.171064569)
(1949.425404 0.8436217122 0.7759490548)
(1950.330201 1.476045258 2.487544031)
(1950.531155 3.225065511 3.98412226)
(1951.044353 3.967500324 1.888278672)
(1951.122562 2.537879523 -0.9526491925)
(1951.538387 2.286749145 -2.795295388)
(1951.53458 1.833420588 -2.46171544)
(1947.430518 0.5044062215 -0.3037280872)
(1950.34205 0.7460357637 -0.9956007051)
(1950.428802 -0.0002305529859 -0.6715092963)
(1950.576614 -1.506769278 -0.9538487929)
(1949.25891 -0.4436748343 0.1428847978)
(1950.510853 0.1203034503 1.930446072)
(1951.582464 0.6690098028 3.223801787)
(1950.751352 0.09346572288 2.179293455)
(1949.6773 -0.6603066759 1.424815532)
(1948.213482 0.6861107509 -0.3227952076)
(1948.723785 0.4367631173 0.5798420162)
(1950.631523 -0.1738967022 1.336269456)
(1950.014404 0.7795686841 0.3377748209)
(1949.234346 0.976290002 0.08284895891)
(1949.722586 1.068351362 1.612869739)
(1950.139367 -0.1560047524 2.818138131)
(1951.40764 -0.9905730043 0.8364004841)
(1951.075596 0.8234648987 -0.560429535)
(1948.590925 1.841567048 -0.7498363457)
(1947.596492 1.457052018 -0.0353374939)
(1952.33658 -0.713820454 0.1142402728)
(1949.562604 -0.9277373145 1.170635439)
(1949.238692 -0.02691547618 3.343796364)
(1950.291934 0.4686352235 1.722723419)
(1950.456593 -1.006016299 0.3912913664)
(1949.666032 0.978353921 -0.4212880321)
(1948.995002 1.54076538 0.3624384031)
(1948.666721 0.6725614884 0.9346917591)
(1948.642612 -0.1710130645 1.585749275)
(1948.539109 -0.7976636327 2.273570009)
(1949.078194 -0.8719074201 0.1644091205)
(1950.013345 0.2858019678 -1.080068556)
(1951.249562 -0.1159447439 -0.7062060886)
(1950.519572 0.1565797631 -1.425949287)
(1951.040384 1.180527847 -0.8694201656)
(1950.745842 2.166963604 -0.005835094665)
(1950.70526 0.03829081657 0.08262617804)
(1950.218249 -0.04716836757 0.09481063666)
(1951.672317 -1.456194852 0.4549739183)
(1953.783714 -1.097944878 0.5205547535)
(1951.217765 1.79974965 4.265100065)
(1949.471695 1.758523009 4.055770812)
(1950.298705 0.948890455 3.073213929)
(1951.933929 2.828263328 2.599134515)
(1950.660521 2.236848068 2.389636434)
(1949.786466 -0.2723649762 0.5799598666)
(1950.440486 -0.0863613625 1.618035249)
(1950.090336 -0.5611796971 1.78367975)
(1949.087113 -0.5021910173 1.285880412)
(1948.442015 -1.430196478 3.597213877)
(1947.78312 -1.0574075 3.932571089)
(1947.985165 -0.2322462346 3.756148819)
(1948.244828 -0.1429731614 3.024912353)
(1949.169039 2.182018213 4.168771986)
(1949.21643 2.294234275 3.782697665)
(1948.583514 2.759326937 3.364760424)
(1949.47661 2.068344126 3.859224218)
(1950.234808 0.2353165699 5.062802158)
(1950.469236 -1.100951224 4.056256164)
(1950.836599 0.8680020804 4.789142877)
(1949.74091 -1.019876692 4.031440797)
(1951.293901 -0.008453212937 3.874762174)
(1949.632323 1.001274367 3.91084355)
(1949.63069 -1.206488421 4.002414918)
(1949.228932 -2.001462319 1.398558198)
(1950.30637 -0.7926890818 1.173843391)
(1950.530341 -0.7970979296 1.395984475)
(1950.929829 -1.82166678 1.93171758)
(1952.161519 -1.088003405 3.769385577)
(1950.898425 -0.9714270337 3.46899191)
(1950.006338 -0.205659197 3.268362556)
(1948.425891 -0.7967298023 3.747847406)
(1949.574965 -0.3179356257 4.101284703)
(1950.804523 -1.287517236 2.551474024)
(1950.378128 0.7407704353 1.411461057)
(1950.295065 -0.09147533596 3.018102399)
(1948.517635 0.8908595948 2.930606037)
(1946.68783 1.214534959 2.514974413)
(1948.483625 -0.05834461702 2.372419477)
(1950.755082 -0.9766289458 4.091483097)
(1948.710271 1.352664324 3.2895993)
(1950.382937 -0.6832294962 3.023075016)
(1952.030934 -0.6791652728 1.836622961)
(1952.28568 -0.4783847617 1.604160934)
(1950.094084 0.3937928487 0.6322993648)
(1948.541987 -0.5138502307 -0.03720338588)
(1949.835469 0.4763151727 1.340094836)
(1951.326464 -0.8217834481 1.002851938)
(1951.205977 -1.30658993 0.8982797247)
(1951.386808 -0.5213526267 -0.684512426)
(1949.9429 0.23986933 -1.709151931)
(1950.802396 1.463094397 -0.9791452833)
(1950.656552 0.646708706 -0.24398329)
(1950.094776 2.359112514 2.384091006)
(1950.599869 1.106389048 0.4206060546)
(1949.0981 0.9461188669 0.677883136)
(1950.310635 0.1077081529 2.782625291)
(1949.242717 -0.7845643693 3.795149153)
(1948.959915 1.601844087 4.400408936)
(1947.086671 1.670887578 4.463409394)
(1950.801564 -0.5699399461 1.482373324)
(1949.203633 -0.03738294047 1.688231518)
(1949.049454 -0.501144968 -0.8429843056)
(1948.864795 -0.7454122437 -1.037068301)
(1949.210216 -0.5691659967 -0.1938937208)
(1949.779553 -1.423945095 0.1011879972)
(1949.70097 -0.5997235679 -0.9697849779)
(1947.933231 1.411817781 -0.7164734539)
(1948.513636 1.847888626 -0.7631179541)
(1948.199207 0.9742313974 0.8310352349)
(1948.552161 2.500432305 0.1897263386)
(1949.335148 0.207079161 1.101613957)
(1948.60356 0.5116854361 -0.4579301202)
(1948.36698 -0.008696487859 -1.625283331)
(1949.75181 -1.822277693 -2.146312662)
(1950.511219 -1.255951161 -1.25254467)
(1949.663651 -1.362270954 -2.260810222)
(1950.564625 -2.617203703 0.1375682435)
(1951.584497 -2.289199943 1.26668484)
(1951.79106 -0.9015083162 1.510223898)
(1950.013006 -1.006829153 0.5393382701)
(1951.855409 -0.6002318303 -0.3474460905)
(1949.900856 -0.4896066048 0.8519480539)
(1948.944735 -0.9399621346 0.4664915278)
(1947.345678 -0.2650153789 0.9424531403)
(1949.187963 0.8993955975 0.8647555122)
(1950.299183 0.6591865881 1.680031415)
(1951.425672 1.710046374 -0.1830346159)
(1951.80132 0.1358828374 1.357984512)
(1951.002914 -1.272167009 0.2427172533)
(1953.501735 -2.639429292 2.016004404)
(1952.93837 -1.395707052 0.6318702959)
(1951.860452 -1.326283911 0.8552068005)
(1951.627089 -1.216507966 1.618612616)
(1950.923625 -0.5060838414 2.205572564)
(1951.808666 0.3732236259 0.4665529046)
(1951.200597 -2.231258852 -0.03386932854)
(1948.926546 -0.9361904767 -1.228596542)
(1949.456016 -2.025936112 0.01258434515)
(1949.801451 -2.762873216 1.169400955)
(1952.330206 1.0814826 -0.579311977)
(1953.327205 1.298318187 -1.140289553)
(1953.296132 1.316939042 -0.7253510492)
(1953.197953 -0.04060736995 -0.6340931827)
(1953.803187 -0.4983424167 -0.324372387)
(1952.112906 0.753661166 0.09923721031)
(1952.058884 0.04337282961 0.8509405565)
(1953.403503 -0.5266152186 2.715543843)
(1953.707157 0.4749798256 1.031962159)
(1952.182454 -1.581809248 2.064666306)
(1950.480995 -1.950865348 1.13553866)
(1948.080367 -1.982108763 2.606772966)
(1947.95386 -1.037014755 2.632095642)
(1949.234562 0.5343152996 1.019563943)
(1949.868568 1.035706 0.1264687554)
(1949.837576 -0.4625243061 0.2566891478)
(1950.855744 0.1552225753 -0.2395381024)
(1950.686718 -0.07273945563 0.05814931336)
(1951.859231 1.250681778 -0.1128931095)
(1952.382039 2.891651448 -1.230060586)
(1950.086696 0.3920799894 0.2787936288)
(1950.88181 0.9252089097 -0.9230810385)
(1950.471393 1.68099976 0.2343333655)
(1951.216652 -0.0680547518 0.1709585614)
(1952.191794 -0.03217401093 0.2496309005)
(1951.135883 0.03344031074 0.5441015893)
(1950.703912 0.8544684707 -1.212674401)
(1951.371649 1.009293606 -3.028421051)
(1950.683465 -0.5734749734 -1.887003218)
(1951.95132 -1.05810079 0.8561637031)
(1951.591514 -0.4961861987 2.285945493)
(1950.907139 -0.04458634115 3.388766535)
(1950.379692 2.407524885 2.649477687)
(1950.461341 0.8395459202 1.701634814)
(1950.98456 0.8795064318 1.682004409)
(1950.77668 2.284799941 1.434559319)
(1949.807018 2.859729926 0.2374170228)
(1950.544031 1.755638584 -0.4463510189)
(1950.101288 -0.6991491935 1.593186308)
(1949.787928 -1.830613882 2.552794289)
(1951.64655 0.2127538584 0.8218387421)
(1951.335752 1.014494007 0.6465872651)
(1950.876821 -0.4981288983 -0.8513908471)
(1951.68592 1.004256766 -0.5196261556)
(1950.433473 1.239025506 -0.4377575739)
(1950.314124 0.01088878915 -0.5664152143)
(1951.193197 -0.01192532447 -1.128773125)
(1950.302982 0.3701816053 -0.7432355155)
(1949.778562 0.5436826528 -0.2186237769)
(1949.166866 1.527355203 -1.006028249)
(1949.153263 3.124081983 -1.931737991)
(1950.916231 1.740405225 -1.134389321)
(1951.621209 1.534446304 -0.341700358)
(1953.214211 2.283828359 0.8659198884)
(1952.950888 0.8858194283 0.2542079517)
(1952.587518 -0.1671653989 0.818342366)
(1953.13899 -0.3703601505 2.00371161)
(1952.692248 0.8451256825 2.69786264)
(1953.433734 1.088632591 1.859147255)
(1952.380358 1.058308127 0.8402695262)
(1950.861485 0.7822047752 1.900067364)
(1950.050152 0.2905808753 1.590720648)
(1950.221577 2.244960578 1.616626736)
(1948.911664 1.91996879 0.2525462592)
(1948.054572 2.540441046 1.124508786)
(1948.411364 1.315423802 -0.1442643864)
(1947.531552 2.650572756 1.055183229)
(1948.58964 0.4346654698 1.065978157)
(1949.40476 -0.01604075233 1.807478588)
(1949.209454 -1.543488664 -0.5639736673)
(1949.509689 -0.8234223681 0.1004280758)
(1950.084551 -0.2319003442 0.3958486732)
(1949.227272 0.9853890497 2.443472419)
(1949.148859 0.7046233161 2.43819175)
(1948.750708 0.08044800719 1.638577471)
(1950.239907 -2.734618419 1.558648718)
(1951.990347 -2.161874196 2.987252163)
(1952.68389 -0.8624469619 0.04759287013)
(1952.292961 0.9284296527 0.2830149855)
(1951.517194 0.5996729071 1.143760223)
(1949.885446 0.108766084 2.740925707)
(1949.823534 2.05089706 2.57151201)
(1949.402403 1.308117859 2.130736715)
(1950.344302 1.95259268 2.653801491)
(1950.52917 2.662520424 1.994510359)
(1950.004464 2.343955448 1.568689456)
(1950.890914 1.512114231 1.931824824)
(1949.671743 1.972864286 2.448953532)
(1949.393766 1.764307361 0.5463016096)
(1950.028585 0.8452836812 1.023600438)
(1951.468239 0.8462577479 0.5899532149)
(1951.016521 1.016683106 1.9788897)
(1951.075713 2.140696641 2.305475577)
(1950.75983 2.045668153 1.952390104)
(1951.376806 0.6121323686 1.659275446)
(1950.60672 -0.08531444631 0.2581353601)
(1951.360318 0.4990052545 0.869257228)
(1950.844799 -0.2205316735 0.6733109276)
(1948.791807 0.1439681848 1.165198991)
(1950.564832 -0.5558703892 1.569579435)
(1951.482256 0.1999731367 2.195476639)