/*--------------------------------*- C++ -*----------------------------------*\
| =========                 |                                                 |
| \\      /  F ield         | OpenFOAM: The Open Source CFD Toolbox           |
|  \\    /   O peration     | Version:  v1706                                 |
|   \\  /    A nd           | Web:      www.OpenFOAM.com                      |
|    \\/     M anipulation  |                                                 |
\*---------------------------------------------------------------------------*/
FoamFile
{
    version     2.0;
    format      ascii;
    class       volScalarField;
    location    "0.01";
    object      vibrationalT_O2;
}
// * * * * * * * * * * * * * * * * * * * * * * * * * * * * * * * * * * * * * //

dimensions      [0 0 0 1 0 0 0];


internalField   nonuniform List<scalar> 
5120
(
319.5462304
323.0271753
324.9057856
304.5842411
290.8910253
296.7107829
307.0455992
311.7009598
302.473262
302.4425904
309.454112
299.5185342
296.8710794
296.9452359
307.0470949
313.5802954
311.2687142
319.4766586
328.5790819
319.635418
313.2808417
306.7033816
302.1736529
304.728479
284.2364715
291.0629104
299.554053
291.0925531
294.0643207
302.3434744
304.7152058
299.6594244
304.5402147
311.2778859
299.1880117
287.593005
293.5603798
304.2395078
313.2144811
319.0094124
288.0524887
288.1721591
284.6202905
276.8123076
294.7167429
302.8362418
302.5698502
291.2832376
291.0588705
302.6990898
309.5151273
304.8778072
304.9965769
281.2450296
307.5231834
302.4571922
309.4358292
297.1786561
267.3434694
276.8601617
272.1219681
287.9954849
299.8669246
291.2683177
299.5725386
299.6223618
299.3344811
308.900956
306.7359615
296.8640927
272.1290284
294.3222301
304.9594146
315.6559171
304.6857294
309.2111625
291.0817705
290.9446331
276.5172303
276.4578705
325.558902
327.0174449
328.7308147
322.3850987
322.7692922
315.2162341
311.2855309
311.4172977
299.3443642
306.9768696
280.7807433
255.1879159
280.7392572
302.4644956
302.5449435
302.3056582
304.4933192
315.3914347
321.089815
330.9776406
317.5930804
302.5918428
309.8789522
313.6130377
306.8160678
313.4217071
315.463651
304.4918548
309.1174945
317.5659176
332.7367399
343.9486118
330.0327014
332.0025621
331.8300862
330.3802379
325.4261749
322.037744
319.9485422
323.4066703
313.6879955
312.0385895
313.9674096
311.2228929
302.2403126
302.2330603
309.3369712
311.6638248
323.3384311
317.7227944
323.2354851
314.1095608
316.0021637
304.9564435
302.4367515
317.7998901
332.8169732
327.9072546
319.7183212
311.2641292
316.371268
313.9012741
311.702508
296.9186311
294.257202
305.2114635
307.1639713
313.8085852
319.5090005
322.9267587
319.2045482
319.2478807
311.2442684
319.4362729
328.3218699
328.876232
329.5501079
337.0890026
335.3959226
324.1268357
313.488473
293.999841
297.0940841
326.7722658
330.2443142
329.9739403
328.7653862
320.1291943
300.4831068
281.388656
300.1727864
302.6314677
307.0590631
311.3100066
315.5549226
313.3349518
299.4292045
304.2671261
304.7904924
330.0707726
311.9246319
322.0044044
331.6793768
304.8274615
319.4992948
317.1862641
313.0361047
306.3925452
306.2856882
287.1174943
280.2659244
286.9317398
279.8673768
293.4740546
321.0054664
324.8072646
319.6711563
313.5071288
311.5973933
307.308392
276.2049286
276.0244958
286.9036597
290.5277051
280.3079499
302.1736529
299.6679835
299.4547014
301.7751637
298.9500542
303.9919998
301.615446
299.0128673
308.7588699
290.2368036
287.0674161
287.2398412
296.7121732
293.8017722
271.8608884
309.6512886
311.9230735
313.9784446
320.1885177
323.9234671
310.098855
307.53229
304.8422609
294.1330666
302.1895806
296.731644
304.3588719
308.9564598
306.7789572
302.1013542
293.8222023
271.9051953
236.0666898
301.3561921
308.9354474
261.1964158
276.1582117
280.3277485
283.9753928
280.1635981
287.4639686
280.7041051
272.3512115
291.1748985
302.2200102
309.4647816
319.018984
308.8141364
315.3334573
313.307113
309.0511801
315.7508686
321.4554658
299.5824969
290.8201432
307.9570123
288.2642384
299.8009487
302.3376536
302.3769645
319.5429915
304.4801421
309.3217883
299.6366115
284.4187237
302.2867668
316.1765964
312.4428654
315.8874228
324.8823835
315.7619633
319.4685778
307.4322554
313.8603971
302.7875078
290.730778
302.2243596
315.9782279
329.1513077
332.2112884
320.2859577
325.5331928
312.2141786
313.9516514
311.4372608
313.4263609
311.5973933
304.8274615
307.3415779
309.496811
299.7565645
306.9127522
293.9354978
299.5029186
301.8252402
311.8965917
302.87913
305.311932
316.0452899
309.7664645
307.5459546
288.0498349
296.9844848
294.2945416
284.929254
288.3057017
294.6802843
300.3370366
303.2123509
303.1451309
312.4681947
316.5475746
307.6311067
302.6226579
325.0834634
325.8887684
311.8374721
317.93199
333.2401219
340.988176
340.7409404
321.5392437
304.9980642
309.9098369
319.9731223
314.0858278
309.7756958
307.4519352
311.6051112
290.9943062
287.6439945
293.5819996
309.0903499
309.277797
323.3700381
291.6655455
304.8541054
297.1405701
307.503461
300.0065025
291.2303732
288.3284645
300.2540778
297.2295103
276.8835057
280.8475014
276.7302923
272.1867583
280.5502083
299.5284754
296.7608733
302.1432675
313.3674591
309.4495403
291.3525094
290.5899397
280.2622193
271.5919849
266.6425893
261.5639253
284.2646319
302.1114662
309.3779996
302.2171109
299.4490336
296.7622659
272.0139453
280.6614797
287.867301
272.5441738
276.9364106
285.018519
285.0369316
304.8881822
293.908159
255.0172333
267.1182674
254.9116985
267.1148704
276.3757076
272.1031498
267.3172076
280.7179096
291.1411229
299.6294858
311.6267306
322.7889378
317.3335041
311.5588304
316.1910385
310.0569309
300.0252559
291.2574715
284.27616
261.378403
309.6482227
318.2856289
311.8436904
304.7476609
291.0965975
280.652712
306.9231814
323.4166674
337.565553
319.7411131
328.193931
311.2702426
293.7378469
283.9665199
283.8211444
287.1728087
306.5630664
309.0993956
306.9589638
315.9686583
0
0
247.2899896
267.7569077
276.9820158
280.831112
291.1789541
294.2254303
294.3374695
296.6871572
304.9713019
294.3749076
297.446576
294.2378587
299.9834367
287.9584257
299.7193873
299.5881888
294.4763604
267.7592298
301.5302116
306.3910791
304.1061099
304.2685804
311.2183143
315.3710531
296.4960386
301.5557579
304.1538958
308.9819926
306.6161678
311.4080879
306.7374431
326.628307
319.1532603
304.3559553
287.5408004
276.3455629
276.0495174
290.1975334
313.522683
309.2717338
299.5185342
276.6010387
246.8757606
0
236.3030494
236.5073292
267.1897078
280.4120497
261.277013
313.6723657
325.1945332
325.120449
297.1433897
304.9430767
291.1559794
284.4431978
302.624126
311.6901245
290.9943062
311.5203116
313.6036796
299.4887294
306.8948814
294.2240497
267.1454592
272.249343
293.9437043
294.1633641
300.2875262
284.9344973
281.0588993
291.402866
305.0531451
294.1165534
313.4542974
309.3779996
321.2705387
309.2399202
313.8085852
305.0188947
296.9550435
309.8326785
302.6858482
314.1222251
321.478444
304.868917
313.819569
311.9433383
297.039236
304.7225791
304.7934483
307.2030227
302.3187433
287.6858986
301.7294482
301.788033
302.0869141
304.8023179
302.2620796
291.0077456
284.4586659
276.7461864
287.9676861
284.0553732
293.9026942
290.7214568
290.6735651
293.7745535
306.4527142
299.5014994
296.717735
293.9505447
294.1000492
293.8099426
296.7803749
304.5901158
319.1292448
319.5251826
284.6722035
291.314458
284.6176974
276.3732948
290.3746598
308.7245614
307.1249663
304.7417576
309.5105473
294.4318464
299.7093855
294.0039527
302.3638555
287.8725758
261.749759
281.4916978
291.829516
300.3545294
294.9039268
288.348564
309.6758261
314.4915427
307.5626636
309.4846057
302.6109153
302.7020332
307.3793299
320.0010004
314.3892636
318.372148
284.8180615
297.3811546
291.4997343
272.5381972
284.4573766
284.3159037
276.7767782
305.4051802
316.1733879
307.1985144
290.4867279
293.7215471
287.6191424
261.5900758
291.1033395
280.4953609
290.8803153
294.0959245
287.7160543
271.8341072
284.4380436
284.337722
294.1550981
296.9326308
299.9819957
299.8741043
272.4582393
267.3560389
267.2533783
266.7819055
276.2613353
290.7854323
293.9396008
287.4808803
284.3762657
290.6602756
299.895653
304.7476609
317.9755958
315.89697
294.1978297
280.7417698
280.7996209
276.6132063
267.1567977
220.3248948
246.5567294
266.7640305
261.0765476
280.3277485
324.3877998
328.2382331
315.7651339
317.7099617
330.6482997
327.4989141
323.977587
327.4677724
316.4439465
299.9647082
304.9386223
307.2421204
307.0336359
319.4378875
317.3335041
340.2400828
333.1343319
327.0516273
330.5201616
321.5014371
313.3303104
329.8343221
319.6679059
324.832287
324.7456163
331.1272833
324.9677066
334.6443197
333.0130366
329.4355941
315.4259541
329.9825759
330.2234466
323.6893206
319.9550952
320.2809967
302.9621113
305.0218715
291.172195
296.7539115
284.4328903
276.4639217
280.5701795
267.0741421
246.5882353
246.7127877
246.7012612
266.6448124
266.8658618
304.4318718
302.013371
313.6551812
313.898128
313.9311767
300.3297508
314.0557897
318.0613509
321.3277145
315.5959159
315.904928
287.7580618
272.0526419
284.5374248
287.7029393
290.5727128
296.4463756
293.9122583
280.7467955
287.947846
297.2946123
294.4527042
294.5376735
299.9057141
312.0495371
321.208566
321.1971617
317.1578378
306.8799964
296.819415
287.6767269
313.7505863
315.9989713
302.4323731
291.3103839
288.0140321
304.8378204
291.1992406
290.821479
291.0709918
291.0534848
293.9519129
302.315835
299.7151004
280.3934319
297.001321
315.5628021
307.1024845
307.1324637
309.303578
311.6916722
296.4312167
301.766587
299.1823919
326.0697129
337.173703
327.871787
317.0868735
324.541427
321.2167141
321.2738034
304.6842563
311.6514555
307.2993471
307.3385596
307.0037467
297.2478948
291.329401
276.4736064
287.9875397
304.6636397
297.194186
297.2535538
305.0382492
307.3430872
299.963268
294.2281917
311.4633844
304.3880521
290.7694255
306.8666057
299.2259718
293.7500775
301.8725274
296.6441217
301.9299395
299.4915667
291.2317276
294.5265164
291.3906093
294.4276765
309.1491912
293.7310543
287.2837535
287.1959948
308.3494931
304.0179641
308.9054529
293.6334084
294.2475288
287.8950046
317.801498
319.3894834
313.522683
308.9174474
301.8438601
293.4565498
306.648661
308.8126415
308.8964598
304.3370041
281.1110441
288.6978022
281.1352417
299.990643
305.2879113
307.4473926
294.7996378
276.9401055
294.6005078
299.9747914
294.3582628
294.2641133
305.1157828
309.8743219
325.6354075
313.7631183
311.6916722
304.6960431
304.8363403
297.3740519
315.9766328
306.9455408
293.8849404
290.7867666
276.3383332
267.1999299
297.0406411
290.9929626
287.7042505
299.6366115
294.1055496
302.3172892
307.1759822
311.6344552
319.8749043
316.2890829
330.8988166
326.11796
309.4251688
317.6426671
313.7177118
323.5084366
318.0905232
323.5585912
328.6410794
313.731797
311.9293075
311.8141639
312.0949295
314.0368319
325.3330029
325.5723412
320.1506052
320.2958819
321.7950773
325.4974852
317.9949937
321.83983
307.3023618
307.1324637
325.4261749
328.6772925
325.0733829
319.8324278
314.0889913
314.136478
320.3008451
311.9386607
316.2440444
320.0995698
328.99959
309.5854334
317.6170652
304.5299505
296.9256301
299.9301617
303.0586989
294.7167429
302.8569393
310.111287
254.8735331
280.4642456
302.4966505
309.801865
319.8928905
313.7599849
315.931999
323.570304
322.0828017
307.614363
291.495635
284.6786992
297.3357252
300.3574458
310.1797461
304.9430767
299.6508676
280.6702502
287.96504
261.6686943
312.9839987
304.0786288
293.6889738
296.7692296
307.0740295
276.2974009
276.2121229
271.6473956
246.4719821
254.4304374
276.3371284
290.8615821
296.7497351
287.5069174
294.0245192
276.467553
267.1420587
280.3537555
299.1332616
313.0054444
284.9856688
288.2642384
291.402866
290.9728158
296.9200308
304.9638719
294.23924
294.2696434
294.0437272
296.8445383
296.847331
299.6180881
299.2822934
299.2780658
293.7745535
302.0378666
310.9765313
306.9097731
276.849111
284.7776158
300.3282938
297.4010509
291.3402733
276.5961732
272.1431547
272.25762
284.8598717
288.1828202
294.4902843
305.2474165
291.3280422
294.0972993
261.3017826
266.7350103
287.4769767
309.0481689
315.6227457
315.8095525
307.3763081
297.5135625
299.9546282
302.3201976
302.356575
311.9558149
297.2662903
294.4068358
284.3531333
284.2134518
294.0080649
299.5185342
317.7902438
323.2073094
325.5757474
320.1473103
302.4498905
261.810183
0
236.2633189
276.7021946
299.9675888
299.5014994
302.1071321
306.8963702
290.8722853
296.9004409
294.1055496
307.0381216
319.614317
307.1189696
287.7331126
299.4717108
267.1205323
266.9321021
261.3762414
276.3094334
290.5343196
296.3816579
311.4664591
311.5773351
309.0240896
271.5482006
279.9088048
261.0648064
276.0936593
287.8699383
294.1055496
313.819569
311.6591858
307.0381216
311.4956826
317.7468685
317.9788281
315.8746973
311.8997061
311.6483639
302.1881323
306.860656
290.9607342
276.6168576
254.5236686
316.08847
317.911014
317.738842
317.8272356
304.5006421
287.6008438
276.4941979
266.841206
276.6351216
288.0763837
280.8336328
291.4601305
307.2797584
299.7065285
294.4318464
300.3545294
302.758008
307.2707213
309.6359618
323.6859626
301.9443086
307.0979899
302.2142118
302.8273756
300.1162961
299.941673
299.9186546
294.417949
276.3950177
266.944471
271.726094
287.2308086
301.7551551
301.9903336
301.6823728
280.2202627
280.2251955
299.1248469
308.8081572
308.9294463
272.6207946
291.1060368
290.9593921
246.630313
261.4487584
276.5123797
291.0588705
280.6264252
297.0603199
284.4251622
280.6089144
261.3416817
261.4000294
254.98718
276.6314678
276.6144233
267.2636259
294.5586039
284.8063133
284.6994954
291.2940932
272.5657011
267.7012417
288.348564
302.2998443
297.0814182
294.0918004
287.8593905
276.3926032
271.9413956
254.9096339
261.5193157
267.2613483
267.2841333
236.6794318
277.1801084
272.434418
261.639183
267.4086692
280.8323724
321.2672743
322.9843405
321.5129392
296.5070857
290.7654252
280.5252643
280.6114153
267.2442728
261.6905774
255.2674345
261.9547009
267.1250626
287.892365
284.7059974
300.2962577
312.4143927
327.4072943
333.564612
319.6695311
317.4781826
255.0961762
276.7865748
288.1588383
305.3404796
281.3295776
285.4103444
267.8010624
297.4850399
300.5314585
297.8506786
291.6312117
281.3090577
272.5310269
247.4007104
236.7217819
272.3880278
267.4499337
272.3417188
247.1611815
220.6993625
294.6438691
300.442139
312.4381183
312.5633483
307.9693158
305.6076341
312.639664
300.7167574
307.8418893
309.9624067
300.180036
291.5147702
272.3749581
280.652712
267.3834847
236.7416354
255.2056797
267.6815555
294.9025151
300.4787149
291.218187
302.7860321
302.7270624
294.9774244
291.505201
303.1466231
295.0780631
288.0219845
272.7445726
267.738339
255.2779175
284.7059974
287.947846
272.398726
261.7234385
272.4332275
276.4215916
280.4555395
301.9514957
287.9372701
288.40223
284.9423639
288.539524
303.2617351
312.5712899
303.2677262
316.4552657
312.4872041
327.031114
326.9236068
319.54785
313.6926858
291.4273945
291.397418
294.1881754
291.0952493
284.6164009
297.3414003
281.0284204
302.6858482
320.0864114
319.7981571
315.7413617
313.5335752
291.1208759
297.308783
297.6293474
288.2936579
300.2933469
318.3639767
326.0488789
310.1517232
307.9923973
291.4396663
299.9474302
299.7265333
306.9843333
317.7789932
317.7597149
328.787875
294.4499223
305.2744074
288.044528
272.1455098
287.4769767
297.1152055
297.0209748
276.7351818
267.0967609
246.7743643
246.8225904
247.0155769
272.5537393
291.3851635
287.9425575
276.822117
272.7000422
291.7425964
297.6881195
307.4398232
309.2580957
304.9178434
307.1144729
294.3873973
302.4323731
287.978273
280.8109536
290.9741585
284.408425
284.2864112
291.0265709
288.0127069
272.3607076
280.9586978
288.3807518
302.8406759
305.0650668
313.522683
304.5006421
317.5068716
261.1964158
261.3039376
272.1620015
297.1687774
284.3904113
284.308207
293.7419232
290.6085028
306.2345789
308.4676333
310.9008569
317.3922569
319.5494696
309.6007369
297.1194315
284.2300753
294.2890069
288.1548432
267.3823405
254.7624849
297.3059483
284.5801226
276.8994894
261.761832
287.7830324
290.9674456
307.1414628
309.5579047
291.1168281
288.2455323
288.272259
297.2634595
288.0949822
299.5213742
317.3239859
313.6161577
302.4090314
302.4703396
315.7381933
311.6669178
302.9265216
302.4163239
300.175686
291.4410302
304.5226209
315.3271953
308.9699747
293.7500775
320.9746965
320.9051576
304.5021069
290.3996737
296.3692806
280.2005402
266.8311264
280.3673879
280.5714282
284.4754324
294.1633641
291.0629104
284.3544179
294.4193385
294.1785241
294.5446487
299.9647082
288.0432014
288.0021076
294.0986742
307.4171251
302.7889835
302.6270625
313.8368365
284.5283759
284.5710602
280.6514596
255.0462867
267.3709017
280.8538075
276.752302
277.0252259
297.1476195
272.1513985
287.7909223
307.0530785
309.6666224
302.3682246
297.194186
287.9002844
288.0286131
293.856283
315.6006491
313.6629913
302.6094478
312.0338987
303.0616754
302.4455102
280.9055717
284.9607277
300.3108155
276.9746152
304.3574136
302.3231062
304.6062767
299.5597397
302.1852359
302.6887903
304.7934483
304.588647
313.8934093
305.1053348
294.45966
281.1084982
272.2434325
280.5314982
271.9788157
284.2160086
291.281881
299.5725386
271.769014
287.505615
276.4639217
290.7640919
290.6005458
294.2157672
291.3769966
284.4676928
287.7121192
271.8061904
260.9413305
246.5739088
0
0
236.5976823
267.3160664
284.969914
284.5180378
291.2100656
276.2865762
261.2888562
266.9804874
313.4574028
315.5943384
311.46031
307.2601813
287.9690093
277.0945048
261.9934563
261.9403215
277.1217696
276.9955887
288.1135925
291.1330224
276.4590806
266.7127095
280.1832945
287.3523374
293.6645667
284.3865527
312.1450884
317.5323927
291.3130999
297.4864654
306.9410677
307.0127106
288.0113818
276.6265969
276.7608662
267.4981597
288.242861
281.2360773
277.4347761
284.8912694
297.8304924
288.4425441
300.0454644
288.2455323
261.6424602
288.0896672
299.7851923
294.5837393
294.4540952
280.9726284
255.2192728
262.0878304
284.8768745
297.3229602
304.8866999
304.6710012
296.3486629
295.8633423
301.6126012
304.17419
284.4754324
284.5607066
277.0388204
247.3700093
255.6105406
247.2545175
267.4935628
294.4318464
272.6940303
276.7095216
272.2978594
276.4228001
306.8725564
306.9858262
307.0007592
310.0476216
297.4366117
288.473489
280.9764289
277.1527854
281.1428874
305.1023502
297.5363994
302.4966505
280.515293
284.4148612
267.3035165
267.5533864
236.7669313
237.1400252
247.6859684
262.338274
247.5488679
236.9603874
267.5672117
276.8074042
291.0373335
287.8976444
288.0538157
272.5896407
284.650129
272.1926562
267.2556552
247.2132048
281.1977426
284.8089236
247.2328679
236.7443442
302.4615741
297.4650897
294.2793236
297.4807638
284.7737047
284.4097122
297.4793386
267.5960384
236.6803319
0
267.6665116
261.9303715
288.5422225
305.598542
308.0201164
300.3661966
291.672417
284.8154504
310.1408317
294.8151177
307.2270773
304.7683311
305.2969169
280.9903684
284.6280715
284.5736491
302.024896
309.3582389
311.8234853
297.4038942
294.397115
313.8478294
314.0289359
318.3264132
316.1942487
312.2771105
326.0644108
314.2602528
297.0589139
307.0366263
290.9231784
296.7594808
306.7167058
322.7742026
317.8256265
311.6499097
302.2620796
307.3400687
309.6512886
307.3279978
294.5390684
302.6887903
309.5548473
319.6711563
313.7083249
311.5511231
302.0263369
297.0279971
284.5904831
272.2789156
302.0681517
306.756711
309.1703392
311.5079948
309.2066241
317.5020884
334.347054
334.398203
328.3372523
325.2907307
325.5434014
324.101352
320.012486
307.4307421
311.6761986
290.9634186
305.1262341
311.8421357
307.3793299
299.4788007
296.7330353
287.3070281
299.1486942
301.8137872
304.090197
299.0870091
311.2061075
301.8954798
287.8159209
294.1344431
296.7511272
296.6718797
311.0903632
317.2162948
315.8016164
326.9679368
309.5777842
296.7121732
291.0117786
291.2900219
300.1467014
304.8052749
317.2400216
320.8534959
317.5882854
309.4617328
291.3158161
302.358031
291.1060368
284.0007592
299.6066945
315.6859568
321.722267
316.3390153
325.7379095
316.3874056
314.2110067
311.9293075
311.7272885
299.9920844
311.7489864
317.9739798
328.8692944
330.4081808
330.0742356
325.2299448
333.1448977
318.1278343
309.7403231
293.9669679
287.6806573
299.8453956
284.5425969
307.3385596
307.3732866
297.0265925
302.2055163
291.1073855
304.7270039
320.0847669
309.2641564
294.2019682
297.0223791
306.9559804
317.7516854
330.2965341
315.9989713
305.1247409
294.2433841
284.667008
284.6449375
294.0959245
313.2422442
313.4325671
308.8979584
302.2882196
291.513403
304.9936023
309.6114536
309.1899886
314.2427703
316.1172867
322.5382175
316.5832684
284.9331864
299.8554406
313.6411276
311.6112867
317.738842
330.3470827
317.4813691
296.5305739
276.6533979
287.9888637
290.9446331
307.0620558
324.7839259
317.0900244
309.0572032
314.0415704
316.3293453
317.7838144
302.425077
291.0050572
288.0777118
291.0736861
302.6358735
314.1539063
314.0210417
320.1918164
316.5767759
322.1613712
316.0245188
312.0620531
314.1887897
297.4864654
284.7554601
281.4298273
292.0430525
312.5220823
293.8740201
291.1127809
291.3674714
306.9261618
304.4684336
304.9401071
280.6414432
272.3618949
272.4272757
254.898282
267.2567937
288.2255032
297.1828907
297.2309241
280.8714723
294.0272625
284.4341786
261.6118891
280.4008776
280.4617578
272.5680941
277.1614761
262.1379395
247.5209509
272.608808
291.1586814
284.3852666
291.0306064
294.0108066
290.6722359
294.0121776
307.371776
304.8526246
294.0643207
280.7153992
280.590165
302.6358735
319.4265872
309.3384899
287.8857671
280.6089144
290.8174717
284.3698381
280.7091241
296.8096504
294.126185
288.0816964
284.8978149
255.4991442
288.2415254
276.6558356
271.947239
276.4663425
280.9574317
288.228173
307.1534654
294.2171475
288.2495397
272.4808894
276.8847349
272.5095278
277.2273672
291.6380753
284.9043619
284.5632947
284.8520276
284.6657092
291.2385001
309.3612782
304.954958
317.9045624
311.7040562
317.5962774
317.3874895
321.2167141
309.2096497
306.8264663
301.921321
271.9390586
280.6965782
299.3429522
296.6885465
302.2258095
296.9690597
276.2673429
236.4725467
236.4832428
236.3809682
267.4017982
276.9795487
276.9746152
280.9182116
284.4007035
284.3775513
276.3323099
280.2461696
276.6521791
280.9473051
294.2820899
290.8843311
293.8508275
293.9628613
276.6375577
284.5322537
281.0754225
288.1828202
267.6792405
291.5270779
294.420728
272.3357876
267.3823405
267.2909727
255.1764289
280.9764289
284.9358082
291.4505788
280.6965782
267.079795
284.2326336
284.1725735
284.8454926
299.9330391
304.5240867
304.5519492
307.4504209
316.1493334
307.5064944
294.2199082
294.4235072
297.2083109
302.4469702
287.9095265
302.3071118
284.4844646
280.6314303
284.5270835
300.197442
297.2762
281.0296897
281.2092375
276.9992916
255.1847826
261.6326297
280.7505655
284.372409
271.9940328
261.3708382
287.8264531
287.8330376
288.1135925
297.446576
312.1090292
302.4557317
297.194186
304.9415919
302.2853141
284.2518282
314.2141817
305.099366
302.7550595
317.7581088
307.2827713
294.0039527
294.0643207
293.8671969
301.9342495
304.1452022
293.6510157
299.3062608
319.044521
315.3475509
306.7404067
296.9690597
307.1174706
300.2221169
318.6033665
332.7633904
322.4301421
313.9579538
319.8307951
297.1800676
297.1152055
299.9920844
294.4707926
291.1884194
272.1678939
261.5291011
287.7567482
294.0258908
312.1043286
314.0036809
321.316272
332.8676424
329.9394181
329.8326017
317.2669315
320.4285372
305.9773293
315.2693258
311.5973933
304.8555862
302.2765992
302.2258095
296.9452359
304.9653577
314.0273569
309.5884935
302.7771797
311.9074935
299.7136716
290.6642618
296.2978646
302.0782532
291.1033395
276.7669851
299.9316004
312.3370044
318.4392246
320.2116148
328.9613226
354.7025662
355.7330611
343.4004618
331.4492218
328.0104732
326.4260285
329.8963102
335.7298814
338.93441
349.6952394
347.3760942
335.0676402
328.6652175
333.2012981
329.8171214
334.8116599
329.8377632
338.7674089
331.819552
336.696042
315.5202739
311.2259457
313.1836598
315.3538166
317.572307
321.7206139
325.3313111
324.0945594
321.7735497
304.9638719
301.7808827
301.7994767
309.1159859
290.8629198
299.7851923
309.496811
304.8866999
319.601338
313.7991733
309.1809182
317.8079307
323.5636105
319.8798087
318.3264132
307.7516072
309.5533187
307.1669736
306.4497765
322.4077753
313.1482497
311.3973463
315.7144397
325.3566968
328.6031797
317.9578239
321.1597162
324.7123365
304.895595
294.1427034
304.9995517
291.8640779
281.3501125
262.0511482
267.8103678
294.9053385
288.5354768
291.8530138
303.0274619
294.7237592
311.6530014
311.7288379
315.6638197
313.6536194
317.7548969
309.5151273
304.8600292
297.091269
307.08451
297.5121357
288.418349
291.1600325
284.7098992
284.8978149
272.5704873
262.0012146
262.0222854
273.189129
267.6977666
285.2986076
277.6134536
294.6116919
291.4342116
305.181533
297.1955982
288.174824
302.6270625
300.3414089
288.430444
302.7108648
307.0470949
284.622884
272.4034822
287.81987
304.5739629
311.6267306
305.1157828
287.9504905
294.3457851
291.4915361
294.6662733
277.0561323
300.142356
288.3834358
305.3795855
316.6401298
297.3641108
299.8497002
302.2925784
302.5010378
291.3416326
316.3422392
320.3670868
310.0848744
302.6050457
287.8119724
280.904308
294.6088955
291.5969172
284.6293685
284.7203068
281.0805085
255.173297
247.2082917
288.1162521
302.4630348
317.8755448
302.543479
316.1990645
307.7073216
305.1845248
277.253519
277.1106125
267.4121054
272.4844675
267.7534251
272.1820409
280.6790235
271.7330492
287.7147425
276.5791507
302.2490177
314.1776866
315.8079652
313.3488797
299.2259718
297.0983073
294.4096137
267.4178333
276.6680277
262.0067578
296.6732682
293.5644323
309.3536804
323.3900147
321.485012
331.3780197
328.3971338
325.0045745
307.0680421
327.0653092
321.5886169
306.9440497
287.9346267
280.9498364
284.9056714
291.46559
291.342992
302.8909714
302.7978391
307.3400687
297.0828253
294.1138021
266.8995219
275.9531323
301.8094934
311.0432659
315.1788068
315.3679186
321.17762
311.2687142
276.1199399
293.8058572
280.7003414
276.6059051
272.1360906
267.2818539
255.1461717
267.12393
276.4941979
272.3844627
301.997531
301.9759437
306.7478167
307.0142048
311.3023561
307.1414628
307.0905004
291.080423
284.4934997
299.7866244
302.4542713
272.5776682
288.1441923
294.5097886
311.8903637
307.1219678
318.9377085
313.3875983
306.8027032
309.1839414
309.6252373
312.1419513
310.4110507
297.980761
284.8376524
281.1913586
277.1738962
310.0336625
310.0274603
317.8465513
319.6906652
333.0130366
319.3524186
302.0047301
293.8153908
284.0172594
254.8344007
271.9788157
297.0364259
291.0750334
323.8390668
319.8389593
313.9689858
318.0241106
311.8810239
325.5434014
324.1030504
310.1377205
291.7370862
288.6314111
272.7289182
281.0119249
291.7991345
288.2495397
291.329401
305.0561251
307.488298
302.9368979
294.4262867
316.5556836
277.1478205
305.1247409
309.9438432
314.3557697
316.2745998
307.8097266
294.4707926
302.5639881
305.2024814
299.986319
297.1786561
287.9584257
291.229019
300.0512406
272.3927821
280.7518222
284.9174603
291.7894741
294.7265661
288.348564
328.9491548
328.9665385
322.4099142
323.9589742
324.0962574
327.5474091
332.6860768
320.6483325
302.9102229
291.7109265
302.5142032
314.1396461
309.8851268
291.2696737
307.489814
309.4785047
321.4374218
325.2164506
318.1781862
319.9780404
323.1063893
321.2705387
315.4400856
304.4816059
287.6531559
290.8776384
306.7507812
306.8591687
304.5446147
296.9410336
311.8514648
305.0069899
313.5756205
328.4159737
331.4805239
328.8519562
323.4333353
326.9645249
317.7822073
313.3736545
302.1837878
302.2736948
302.6182539
300.133667
291.3103839
299.5426826
293.5955197
296.7052223
306.9723922
315.8810595
327.0430787
327.2677105
320.5082629
319.9043411
297.5249788
307.5140793
291.3878863
309.5579047
307.1970117
313.6005608
333.0657261
322.9645878
322.902109
329.3369998
325.960006
311.2396868
311.3237821
309.2596108
311.7629424
305.0308038
311.8048452
313.6786168
315.6069609
315.9144801
313.3334046
331.6409198
326.760389
319.7900023
326.6858228
326.9065711
311.4249744
311.2794148
307.0964919
305.0203831
317.7773863
328.4039835
319.5494696
317.6634825
311.5742503
306.8829728
319.4863581
311.403484
311.2595449
313.8651112
326.9423553
315.8016164
317.541968
327.8988068
319.0110075
313.3055671
306.761159
299.1430815
311.1390491
317.5802953
304.6665841
306.938086
302.0551688
313.6286404
317.8819911
309.6696901
307.7592486
305.4338098
305.6743869
305.2339295
305.0129418
299.3034401
307.4322554
307.1639713
294.18266
296.7775882
304.8866999
302.3696811
297.1180227
299.4093879
290.8482084
304.641565
305.0591054
305.0948901
284.4960817
291.1451739
291.4519432
296.847331
290.9996812
296.8752722
304.8274615
300.156843
307.4807191
304.8896646
311.6452726
299.7823284
316.281036
313.791332
311.9074935
300.4202138
305.2504144
307.6158848
302.2620796
293.9710751
302.124472
302.6637909
310.0802156
312.2960129
307.9523997
302.6637909
297.7053421
305.1800372
307.4958786
303.0274619
312.2361915
318.4490515
281.193912
291.3538693
299.9848779
309.8650633
321.2313855
313.4620616
317.5770997
309.0421475
296.7135635
276.249324
280.1746756
261.2092936
261.4986703
267.3389002
288.3070402
277.103177
288.532779
276.9474968
291.8115596
277.1465794
291.1303228
291.3919709
272.2907538
293.7460001
297.2252692
297.3229602
284.6267745
297.2917789
300.0671307
304.9252629
299.9014018
302.6608511
299.9704697
302.2983909
287.8159209
284.1100918
290.7654252
301.5103564
293.5671343
287.4353711
331.800247
331.511852
322.9497804
315.9622799
313.8745413
300.0844744
284.7359252
284.6761007
288.4694508
277.3108913
297.7541914
303.082519
300.569606
302.7152815
309.4830803
297.0856396
287.8936848
304.8171059
321.6496049
323.3583902
298.866499
290.7187941
324.90913
317.4686248
302.0450747
304.6724737
315.6891204
327.0242788
320.1440158
307.2963327
320.0174096
311.5110736
309.5640202
315.9782279
309.8882146
316.21191
327.0430787
321.5228011
317.6250638
309.1703392
297.1532602
300.0151566
277.0969823
299.9287231
310.0104102
319.9878786
309.3506417
302.3900789
313.976868
320.0979248
305.4232591
307.7149528
299.8468304
307.4837504
311.2519058
304.8718801
291.5667704
305.8769977
297.7829623
302.7329545
316.0548809
311.9792211
319.7622901
317.7565028
291.0750334
294.3762951
277.2298568
297.5935652
300.2134059
314.1111435
315.9065199
320.0617524
333.4100009
323.5669571
333.8111523
330.514905
330.6694056
319.5591891