/*--------------------------------*- C++ -*----------------------------------*\
| =========                 |                                                 |
| \\      /  F ield         | OpenFOAM: The Open Source CFD Toolbox           |
|  \\    /   O peration     | Version:  v1706                                 |
|   \\  /    A nd           | Web:      www.OpenFOAM.com                      |
|    \\/     M anipulation  |                                                 |
\*---------------------------------------------------------------------------*/
FoamFile
{
    version     2.0;
    format      ascii;
    class       volScalarField;
    location    "0.01";
    object      vibrationalT_mixture;
}
// * * * * * * * * * * * * * * * * * * * * * * * * * * * * * * * * * * * * * //

dimensions      [0 0 0 1 0 0 0];


internalField   nonuniform List<scalar> 
5120
(
71.12206185
72.25753711
72.38684651
67.9906992
64.88758093
66.48526416
68.37601962
69.19441696
66.95263564
67.27301551
68.89188538
67.11221579
66.4124101
66.71751943
69.11084368
70.70146984
70.2598473
71.46272474
73.271632
71.32641894
70.8941029
69.24679481
67.6438084
68.20906751
63.98716518
65.08749549
67.27834918
65.21803309
65.97910769
67.72723591
68.31694099
67.07328646
68.25955976
69.63506328
67.52670865
64.86964645
66.67902461
69.37351047
71.39328526
72.6164979
64.39074616
64.37965543
63.44171265
61.9099838
65.26021998
66.89408026
66.93323254
64.73713651
65.13435891
67.55191381
69.75038269
68.55716581
68.53060807
62.41032279
68.65544789
67.54973858
69.17145735
66.23429807
59.66982791
61.72434146
60.47323484
64.01411964
66.44126725
64.56686845
66.95546724
67.04196234
67.50082686
69.65350753
69.01129806
66.34888967
60.57279892
65.42435299
67.75274219
70.73993824
68.19543008
69.34554203
65.06841459
65.08370223
61.78168926
61.72620205
73.65307427
74.25278659
74.63280722
73.11092484
72.76739161
71.22225332
69.77338073
69.60682821
66.81594372
67.90898376
61.92492557
56.12233007
62.22311584
66.62965803
66.74739163
67.26597954
68.6991129
71.22077372
72.22241009
74.4570572
70.91625649
67.02773711
68.25024605
69.66600889
68.56830763
70.10636899
70.70158955
68.10353455
69.47640293
71.15970261
74.86037824
77.40086365
73.81711303
74.56138194
74.65632444
73.79576009
72.53789501
71.53536948
71.07399531
72.11050864
70.04202876
69.23619784
70.09583814
70.3081695
67.64218212
67.66571059
69.37258815
69.49397662
72.40425976
71.22157335
72.61303823
69.95329189
70.38613376
67.73580425
67.29111678
70.98766785
74.92616633
73.53375445
71.25657627
69.92231981
69.72475099
69.62450169
69.11499987
66.2070421
65.22313204
67.26723299
68.2409592
69.56176625
71.09584706
72.53813163
71.72147746
71.56350479
69.75548207
71.58455731
73.33233216
72.65760087
71.8769776
74.20890141
74.0045433
71.07475271
69.96248159
65.46240285
65.69431334
72.65082356
73.08167785
73.32112244
72.74966269
70.65001457
65.70279843
61.39397038
66.03407983
66.94211457
68.56312899
69.60290998
70.45531345
69.93243988
66.83179226
68.33156677
67.81537919
73.21300407
68.80459899
70.84220284
73.65804168
67.86465943
71.108385
71.00163014
70.20471017
68.99950582
69.32470374
64.81591574
63.01399407
65.16706825
63.32018003
66.1891275
72.21334705
72.48988564
70.9208775
69.69895705
69.02779635
68.03438829
62.2118552
62.42087469
65.51924471
65.87080839
63.17573379
67.5804644
66.67870286
66.9309226
67.68152145
67.53699996
68.63898762
67.63733718
67.25950786
68.95888533
65.36418554
64.38165946
64.30248054
66.09362489
65.63746107
60.75497223
68.48209457
68.69277493
69.39157153
70.36576616
71.27643556
68.23852459
68.11099612
68.110093
65.56827628
67.3724657
66.5463389
68.38353798
69.59353726
68.98402372
67.72584596
66.20515039
61.0232635
53.26217601
68.15163749
69.0682131
58.87040251
62.17561754
62.88094963
63.9690743
63.40110121
64.68088623
62.25515457
59.99516038
64.46761468
67.34525607
68.94586538
72.14701663
69.92195593
70.97967635
70.30935213
69.54647725
70.66305219
72.01724095
67.00521739
65.37161439
67.84580148
63.84985548
66.77567153
67.6610449
67.96215669
72.35664099
69.01687645
69.70206406
67.24372485
63.56211647
67.79906919
70.19759387
68.72581009
70.44657497
72.70118924
70.43339212
71.27984803
68.24400092
69.78612674
67.00721704
65.33745836
67.56879408
70.36799244
72.87897193
73.81014383
70.69797871
72.21185585
69.23110861
69.81658291
69.69976514
70.29442362
69.3348242
67.80171879
68.34551355
68.74740038
66.39488349
68.407705
65.66174938
66.78543962
67.78441748
69.29699783
66.66637643
67.20641413
70.13262805
68.50146798
68.20346345
63.98746773
66.09910252
65.48485117
62.92378747
63.57961808
64.88392746
66.14521175
66.51360137
66.72587628
68.99997138
70.18945629
68.17264576
67.39553504
72.74078107
71.41770512
69.2106299
70.59753752
73.98870744
75.36075677
75.78670053
71.6178039
67.69779737
68.10463246
70.76941219
69.47495119
68.72956983
68.28149701
69.8315481
65.19436118
64.23423285
65.91211492
69.18454588
68.94602265
71.88842797
64.71939819
68.17311088
66.44309496
68.57356727
66.87909011
65.15145238
64.08257248
66.54553158
66.04967686
61.36069544
62.39679747
61.4744628
60.6724265
62.87232555
67.02254415
66.31634998
67.84219118
70.42148502
69.11499061
65.05653498
65.85090872
63.7209315
61.87547343
60.51723435
58.71343992
64.23206726
68.20110907
69.31801385
67.7741945
67.37050625
66.82004248
61.07295145
62.65479929
64.134806
60.4709376
61.50625891
62.82344285
62.92100415
67.99852926
66.07431514
57.21045706
60.06805259
57.06822609
59.77241539
61.88296065
60.58677295
59.3232981
62.44660825
64.9872333
67.10361871
69.48717121
72.38653938
71.08300835
69.45277655
69.87491939
68.53635044
66.53745143
64.83143615
63.87997196
59.04214238
69.05468651
70.64599359
69.42778967
67.99436725
64.92412821
62.69520501
68.84102049
72.27105306
75.52363576
71.23263941
73.25456141
69.48573189
65.64787606
63.65989262
63.87160311
64.86530674
69.03400035
69.21317151
68.67398399
70.18656986
0
0
54.48046878
58.66339469
61.07703992
62.06222312
64.74786061
65.37506162
65.36925567
66.50750533
67.76786953
65.28348302
65.54008477
65.1404212
66.00947924
63.67821981
66.35993399
66.71868889
65.17444322
58.84239315
68.49822989
69.41607878
68.98279299
68.65750961
70.07696759
71.06803733
66.80526868
68.25907313
68.57806335
69.40295887
68.9189517
69.74504513
68.92318261
73.0180411
71.357278
68.13530945
64.40149226
62.13416194
62.52343233
66.25573857
70.33776081
69.36727364
67.40901013
61.86994132
55.35604013
0
52.7964617
52.46462742
59.44637612
62.81392863
58.67272542
69.95608643
72.57104159
72.51855067
66.3865085
67.98841777
65.22132277
63.57268337
67.299596
69.64155983
64.63530937
69.01001093
69.47608028
66.36377789
67.88367783
64.95369811
59.36565761
60.54997997
65.60448021
65.65461827
66.13397853
62.85104233
61.97459864
64.42988187
67.41759059
65.5980999
70.15571376
68.75998232
71.5843173
68.91459362
69.90174172
67.96988864
66.38048309
68.54608526
66.98675716
69.44739637
71.575163
67.72373863
69.41551609
68.6682256
65.60832958
67.82123014
67.88656711
68.48152007
67.59818161
64.48581167
68.19077323
68.05549319
67.47176378
68.03391859
67.01232719
64.61720179
62.88138399
61.14490434
63.82376647
63.4636684
65.62429945
64.91222188
64.86051053
65.49526832
68.76369649
66.69615239
66.21688308
65.36854929
65.29855627
65.66913884
66.33624442
67.90267245
71.40634355
71.15899507
63.30043616
64.60793915
62.95251943
62.06365976
65.83223167
69.90781907
68.71821258
68.17251557
68.70130706
65.22079533
66.71651585
65.68290949
67.37770152
64.35228391
58.18296662
61.56174425
63.8784932
66.15305794
64.88128856
63.68969093
68.79835318
69.48561939
68.35414325
68.95064059
66.93076174
66.74040942
68.27091719
71.12963073
69.76341395
70.4773717
63.11535964
65.6451308
64.24448562
60.13509662
63.50479817
63.60633125
61.42078559
67.05977706
69.90447643
68.3755714
65.73972836
66.16309436
64.62457949
58.34459344
64.76458463
62.30955124
64.90528176
65.17642316
63.84024595
60.69110314
62.93101244
63.3855671
65.77297406
66.37471588
66.57229632
66.71003061
60.48565902
59.38650192
59.52164832
60.11149651
61.6476251
65.09578374
65.78004675
64.44314785
63.2461601
65.29912876
66.64882031
67.95737772
70.78556317
70.40974719
65.35065373
62.38381846
62.26505388
61.46469873
59.52278808
49.13197749
55.33663351
59.70823722
58.76283611
62.71891368
73.1479429
73.50573606
70.33668042
70.88221081
72.91212127
71.95012171
71.32238713
72.02161137
69.67349439
66.63047088
68.28453424
68.59663201
68.80174463
71.46964078
71.24878903
76.30608582
74.20742013
72.48275868
73.07477966
71.76040232
70.60777231
74.25270102
71.83583228
73.31814301
73.32535515
74.48374133
72.56214755
74.78636199
74.76484613
74.14224543
70.51977538
73.31282695
73.36479119
71.75208911
70.91377376
70.7074449
66.96301011
67.92300814
65.01451401
66.58098712
63.37228561
61.87151043
62.44529497
59.51843156
55.54433031
55.52733525
55.66135282
60.49796976
60.17094104
68.81024564
67.90314733
70.30988773
69.75821254
69.74180009
66.3485742
69.76914422
70.3274101
71.57078343
70.20635156
69.99048959
64.08467422
60.57365384
63.07721749
64.40292682
65.61446742
66.70616143
65.67075277
62.66599088
64.51757482
66.18919946
65.42235248
65.44199707
67.00805644
69.4916325
72.16776252
71.94399876
71.4802509
68.59549599
66.1814447
64.15302398
69.86428338
70.30403064
67.64764751
64.85301081
64.14059082
68.06122049
64.76561787
65.2545523
64.74646778
64.87168499
65.57028281
67.13120376
66.85994712
62.9136376
66.3830337
70.80995473
68.89342202
68.69653037
69.16358606
69.39793442
66.83788075
67.79258443
67.26016278
73.67974001
75.92208632
73.87752229
71.34631335
72.64629112
71.77259154
71.97104812
68.14782184
69.73195053
68.34976623
68.17097384
68.48496113
65.97931887
64.67624877
61.93722584
64.01850263
68.16263853
65.88464254
65.79739613
67.62393801
68.13734775
66.58499912
65.60499847
69.82807328
68.51929421
65.05933183
68.55221073
67.18217286
65.76281404
67.88008715
66.70125577
67.74512501
66.87921494
64.49991016
64.74331174
64.1953382
64.91625905
69.52508885
66.40332261
65.09786352
65.50509562
70.48672144
69.0356031
69.67162372
66.30606172
65.5999389
64.25351521
70.73047502
71.60179319
69.95305825
69.31744962
68.16469119
66.45414011
69.1784105
69.69958417
69.58701249
68.26028498
62.29724943
63.34357655
62.0909973
66.65066496
67.45354445
67.98159146
64.76533215
61.31189739
65.17511174
66.75890888
65.55608053
65.52950259
67.74410987
68.65944423
71.8232815
69.73042677
69.4903077
68.29288596
68.30404706
66.24349654
69.88400446
68.56149988
65.89869282
65.61742707
62.59942384
60.28931251
67.03203079
65.32533273
64.55901776
67.41449327
65.85542498
67.59214209
68.40249493
69.32541923
70.65089255
69.53540238
72.58229038
71.30395254
68.66664457
70.61733285
70.38311686
72.08130375
70.51754151
71.8466
72.74093833
69.84328587
69.0200317
69.3406673
69.03169332
69.41644882
72.02496687
71.69161895
70.6412136
70.39174206
71.22160349
72.30774585
70.55912756
71.74130595
68.82150396
68.90893912
72.26233141
73.19250969
72.42659203
70.90209944
69.46283471
69.38788853
70.36431114
69.4282516
70.32295746
71.03652167
72.6869687
68.82101397
70.93625555
68.48306909
66.48040385
66.64419709
66.58757255
64.86379261
66.93880932
68.39042481
56.5989401
62.53890235
66.98922046
68.64125269
70.79548592
69.58748682
70.16300601
71.68916706
70.98908896
67.86244987
64.39326874
62.94510979
65.92338692
65.9702242
67.80141069
67.43508038
66.72967825
62.51979537
63.64643176
57.74852128
70.37998
68.16003443
65.43558128
65.58737411
67.88697486
61.52169329
61.78028267
61.07690352
55.65293588
57.68516048
62.1895813
65.02419904
66.1297375
64.34167634
65.45963028
61.65170025
59.35095796
62.83582953
67.38240818
70.48091491
62.53372955
63.37138665
64.16075635
64.53000079
65.75888267
67.19140436
64.83344332
64.79288753
65.42013546
65.99194089
66.10821464
66.89165843
67.4372517
67.46075974
66.26523821
68.05840953
70.58875376
68.97006517
61.41670492
62.9282502
66.84984429
66.16807302
65.03191962
61.98469028
61.00666048
60.84732828
62.86655708
64.13147912
65.52435545
67.73928501
64.8687378
65.88522673
58.86023069
60.47522653
64.87861075
69.70201961
70.93028114
70.78244384
68.98150073
66.29126617
66.71897452
67.55972791
67.69627456
69.34805195
65.94182491
65.47346977
63.61331916
63.8720618
65.95522139
67.22738462
70.85177066
72.17047341
71.89682537
70.81347239
67.00961019
57.90629664
0
53.10670804
61.68992562
66.68462981
67.50300614
68.01815163
68.91899542
65.35527913
66.72164374
65.96142799
68.74296406
71.45625598
68.31538027
64.2929158
67.06916029
59.77160134
59.77340053
58.51784837
62.2447409
65.69523531
67.07938026
69.95224976
70.00840592
69.84108856
61.02825209
63.01245684
58.72464353
62.0656791
63.73760953
65.23480014
69.74242155
69.41420671
68.74847562
69.52633022
70.96998198
70.60929618
70.0149185
68.89000981
68.829828
67.18579001
68.59946083
65.08384303
61.7831321
57.42598247
70.15309048
70.74092999
70.66923426
70.4065465
67.89763841
64.29665934
61.81707144
59.8842992
61.5550454
63.90311423
62.62078222
64.73214582
68.56755769
67.00822207
65.39327332
66.49879074
67.10009104
68.57098927
68.70030087
71.71626805
67.56678023
68.33411778
67.22641243
66.56972753
66.20244192
66.32056696
66.40999432
65.02861904
61.69590582
59.54106048
61.03022248
65.06189876
68.31543916
67.68283243
68.02578078
63.03314073
63.26081714
67.5131961
69.80688619
69.3844201
60.10518253
64.86523398
64.98444957
55.24876823
58.07340391
61.3250268
64.48978208
62.40742184
66.3253585
63.53479796
62.8376795
58.54840244
58.3801741
56.98193141
62.08733574
61.92555
59.59918606
64.89870917
62.73347092
62.89112741
64.89261959
60.3948142
59.00442625
63.70505006
67.47271291
66.3214464
65.64021425
64.35229794
62.23932882
61.13308142
57.0164905
58.28425449
59.49223616
59.44926459
52.40102073
61.16818054
60.46778123
58.34863034
59.47454257
62.67871295
71.50336389
72.26306845
71.50322094
66.70729394
65.27752224
62.82005198
62.62617632
59.53674524
58.12597495
56.45678316
57.98385257
60.03201799
64.39183077
63.14833533
66.20057325
68.51221396
72.00378154
73.57933392
70.84122452
70.85358679
56.77565907
61.51503227
63.88575425
67.59321789
61.96958367
62.34560121
59.05730222
65.75371084
66.05374283
65.22207751
64.0817929
61.69707283
60.14083338
54.4210388
52.36859177
60.48354799
59.40871397
60.59109526
54.90659214
48.81906111
64.75557361
65.64296148
68.45182762
68.14416684
67.35988727
66.81281675
68.20061963
65.71941204
67.75692259
68.32762451
66.17277556
64.21803712
60.0731675
62.62693528
59.42546711
52.43266004
56.73702903
58.97598111
64.61875255
65.72062408
64.51088743
66.83467327
67.21036744
64.81352279
64.58614998
66.56907953
64.29638286
63.55539505
59.52625609
58.40931601
56.22785182
63.13160327
64.39554177
60.54302265
58.16869842
60.35140005
61.53977078
62.62484453
67.50906075
63.75742367
63.5664327
62.53842772
63.16653589
66.16142108
68.44665297
66.36749364
69.44750828
68.28254539
72.18963065
72.23559457
71.04568998
69.73950705
64.3047769
64.42975566
65.45020796
64.8435828
63.29787912
65.88863939
62.17963815
66.92288152
70.74628128
71.24414514
70.51643102
70.13089411
64.98333912
66.13750586
65.97934472
64.01435076
66.52693621
70.54695697
71.89607957
68.49870808
67.72602493
64.19056179
66.14801165
66.36068093
68.31456195
70.48586157
70.62679806
72.60493827
64.37763088
66.86312997
63.53151358
60.62590423
64.69703198
66.1134371
66.097806
61.00687441
59.366875
54.89579329
54.97003008
54.76545526
60.04182899
64.51568082
63.94607037
61.2199995
59.6250541
63.76045998
64.7888266
67.34764831
69.48578695
68.1894046
69.06637929
65.49808235
67.58122541
64.38219987
62.49604204
65.26361625
63.09437492
63.30767803
64.7636202
63.61039352
59.93130341
61.82729516
63.11568337
66.64196862
67.52262395
70.13422874
68.50116329
71.09704297
58.56455426
58.30284029
60.54975822
66.12070279
63.45116878
63.45607386
66.06158239
65.249358
69.10527077
69.98090011
70.10815313
71.46557018
71.62983599
68.84152792
66.1459311
63.66626289
65.5556643
64.06042937
59.35542441
57.02602714
65.79151911
63.15899767
61.24501845
57.89094396
64.01090569
64.7327914
68.12052665
68.57276599
64.8095759
63.57909529
63.81514726
65.89839917
63.87799681
66.87891294
71.49483963
70.06801562
67.04620967
66.94987073
70.2063027
69.16980705
66.66804321
67.46107547
66.27561779
64.91288167
68.49638851
71.27065927
69.68581302
65.99920464
72.09563453
71.85556988
67.86909983
65.34505146
66.4862862
62.58400946
59.56519987
62.60613687
62.36532998
63.08889776
65.19027696
64.85179377
63.51096664
65.31414447
65.82635272
65.27797499
66.87897789
64.11988724
64.09081808
65.71573762
68.33768907
66.93890694
66.97253717
69.90365939
63.35534724
63.36271262
62.99001306
56.87518265
59.21671852
62.26166442
61.29090205
60.98410237
65.98919688
60.78931402
64.42763306
68.94222744
68.93732705
67.29322757
66.28608714
64.37816529
64.29910034
66.33381794
70.79120222
70.62303572
67.80358883
69.80141808
67.13475475
67.71211833
62.67186162
63.08585951
66.19720812
61.29715037
68.40530349
67.4267208
68.47422973
67.1798996
67.63299442
67.13979759
68.14605067
68.48533162
70.05818927
68.06419507
65.50164087
62.14051041
60.81514934
63.00289421
61.20369976
63.9563689
64.75215539
67.26797127
61.61875276
64.93641398
62.59590035
65.814948
65.61970312
65.38991021
64.57340934
63.43943084
64.33737455
61.07100274
58.99180339
55.48247145
0
0
52.66903906
59.64381728
62.50510198
63.1852633
65.11073481
62.4468
59.06153571
60.4629744
70.06077299
70.5858647
69.9417712
68.69079315
64.14325583
61.24951199
57.89061262
57.75182924
61.07721164
61.16086755
63.67888938
64.48965837
61.36543038
59.79020233
62.76959078
64.06984278
65.69223551
63.1370912
68.83875579
70.96339053
64.44425994
65.29044308
68.44276744
68.39419935
63.89068418
61.32552755
61.27831346
58.79270103
63.36000683
61.37456322
60.42203218
62.22929669
64.63618922
62.843141
65.83881457
63.27626535
57.78394574
63.55810649
66.30229416
64.88466602
64.92562212
62.00626594
56.21369808
57.0297984
62.51647337
65.76302235
67.67680801
67.76290334
66.5976627
67.19916362
68.04541282
68.37261254
63.24077937
62.98861526
61.24733076
54.39504216
56.08556757
54.60571821
58.88652557
65.00816131
60.0538579
61.53062593
60.31929743
61.81437491
68.56233206
68.16868912
68.38494818
67.89140101
65.6359727
63.41656637
62.17326814
61.08187211
62.03277988
67.48820126
65.54835191
66.96086919
62.66221097
63.34588116
59.39721546
59.08613633
52.24108045
51.57627927
53.85264185
57.05208472
53.81471346
51.50524522
58.67204749
61.36679102
64.66646168
63.85154372
63.81004552
59.97277445
62.83456688
60.47349535
59.5708386
54.52807704
61.94631217
63.04818517
54.7218708
52.35884377
67.39640822
66.1378013
65.78457578
65.99168442
63.1570293
63.44620745
65.66649915
58.84772285
52.15983984
0
58.49743121
57.25076605
62.72108418
66.41172969
66.91770082
65.74747089
64.07466087
62.61337087
68.10674561
64.80720912
68.6471844
68.10492813
67.32565003
62.34693324
63.19360122
63.12952261
67.54318024
68.82275326
69.16131377
65.77685692
65.0915521
69.84258259
69.4211494
70.1967966
69.87056334
68.76067774
71.53641252
69.51560484
66.17227308
68.99177642
65.08698271
66.33427723
68.78414136
72.39771193
70.5706656
69.26521407
67.66279127
68.48551936
68.96989172
68.448128
65.14681391
66.83673918
68.68388081
71.20851647
69.94779944
69.31337246
67.33063559
65.86841054
63.06478489
60.53356404
67.35974321
68.85715404
69.23519975
69.47585217
69.31919106
71.05983414
75.17568103
75.16430008
73.58397286
72.43369803
72.15199597
71.2587981
70.65569314
68.04847516
68.87945674
64.28079699
67.01988548
68.73566096
67.73917161
66.58147353
66.82218901
65.06849359
67.74843013
67.85298796
68.58125106
67.22027982
69.53718566
67.61013117
64.03538538
65.5468141
66.40700652
66.53651608
69.90638679
71.29038671
70.44783873
72.9431465
69.12411095
66.63381902
65.10001875
64.99229881
66.21063352
67.56217164
70.89542107
71.83256873
70.66872192
68.73606693
64.61625902
67.38555396
65.03440192
63.99588289
66.8500145
70.3985385
71.54113732
70.15270262
71.98866775
69.6253054
69.55226402
69.1478517
69.32624443
66.35171538
68.8721515
70.27849348
72.71779618
73.29100429
73.42069161
72.02600514
74.06848023
70.32610445
68.63891242
65.92365119
64.2176283
66.3278142
63.10002292
67.89992385
67.86911136
65.72277206
67.0727033
64.28233697
67.43232893
70.31534049
68.96848219
65.4088053
66.1005002
68.85384898
71.12768715
73.93480897
70.5874118
67.7776867
65.65671572
63.50306428
63.44912857
66.01887558
70.70895886
70.24141703
69.03565464
67.00842443
63.98207734
67.40765373
68.36182637
68.82684153
69.57140578
70.26156335
70.83354362
69.74763789
62.94614111
67.04142989
70.13500922
69.65425821
70.92462156
73.37779515
71.47948473
66.75064074
61.48516151
64.06266871
64.98335989
68.40129805
72.98076368
71.80782081
69.69029343
70.03125246
70.12062338
71.01073376
67.36783986
65.08983095
63.89444614
64.62943606
66.83842958
69.07984916
69.12315446
70.21173128
68.98114072
70.57695332
69.54267118
68.59507488
69.25934376
65.91584356
62.89258124
61.495164
63.6183019
68.47027242
65.73624309
64.82343829
64.55814713
68.97654419
68.55645335
68.07472164
62.94552442
60.59587099
60.69338733
57.1941686
59.8906482
64.00420738
66.36359902
66.16710278
62.6521504
65.80705548
63.49535424
58.38099717
62.94008919
62.70548309
59.9885706
61.15962382
57.48258833
54.15067236
60.04538655
64.55563931
63.13555026
64.7209008
65.25061087
64.61116344
64.9323671
67.79773937
67.61613313
65.48560217
62.38817669
62.7157677
67.11690515
71.26453234
68.56174113
63.82936748
62.02683541
64.71914844
63.18045442
62.45687104
66.21799093
65.38067555
63.68332374
62.6412161
56.24104418
63.7606687
61.61710871
60.63599308
61.49874973
61.98923434
63.209662
67.84812706
65.17517447
63.61174938
60.19733798
60.92544327
60.3159965
60.8506654
64.0040099
62.78503007
63.13079269
62.7672164
63.05985569
64.70619045
68.85858141
67.51243908
70.67658264
69.560085
71.3674823
71.38224868
72.42306529
69.49298467
69.02384396
67.80527388
60.88411438
62.54253923
67.14854988
66.55700177
67.4856028
66.21910833
62.14491731
52.86071573
52.75804137
52.97631367
59.85977907
61.70499407
61.60081706
62.57180788
63.64625417
63.74776191
62.09883725
63.26286533
61.7054209
62.21810647
65.62761501
65.02978145
65.93082727
65.53568878
61.38192083
62.88419999
61.88954802
63.36381976
58.80973087
64.18384439
64.9570505
60.23165995
59.29458313
59.53423662
56.55356505
62.34312681
62.95024083
64.66833701
62.54303987
59.75908275
63.69083324
63.85795582
62.70334318
66.32243559
67.80481492
68.14401567
68.15007647
70.03588921
67.95310355
65.30437643
64.94933405
65.50136618
66.75532735
63.59829383
67.18659525
63.46492324
62.75283412
63.38225919
66.54260959
65.935266
62.10042137
61.9349894
61.04835487
56.48108385
58.06092828
62.1499838
62.94972285
60.64864994
58.290904
64.41096268
64.09269333
63.92458224
65.74529051
69.05106962
67.36478714
65.69490805
67.77864237
67.74446738
63.70588307
69.75924587
67.69616463
66.93787416
70.41706425
67.79398823
65.32044466
65.20712166
65.54875048
67.67566519
68.17970225
65.89604782
67.33511491
71.71865809
70.7512305
68.79914053
66.24879087
68.55329231
66.130868
69.90955585
72.60117703
70.48464469
69.43291263
70.86466058
65.63172403
65.5050087
65.83734875
64.77850529
64.44124711
60.35798887
58.25830867
64.38754057
65.80172145
69.0281581
69.59253291
71.767321
74.49894854
73.19295423
73.42958907
71.10798269
72.50947527
69.37914368
70.54986677
69.25850202
67.38400134
67.10730229
67.02865507
65.66471698
67.28661611
69.16297461
68.32572914
66.21011135
68.41996564
66.10071102
64.93114561
66.69707015
67.52144567
64.92749483
61.49589056
66.3637147
68.40019578
69.86053593
70.36875988
71.94299658
79.00428046
78.94031648
76.29747684
73.60598989
73.07546148
72.66136015
73.51974912
75.38810951
76.08565023
78.20145031
77.31609308
74.52500195
73.19948023
74.399197
74.02952058
74.72973253
73.74948373
76.08702982
73.81653352
74.82827147
70.15485432
69.58245297
70.45345877
70.88339005
70.8896637
71.55769593
72.14538488
71.09365204
71.29987024
67.38147527
67.54009063
67.88899503
68.97460804
65.02062142
66.76755479
68.68539855
67.44776048
71.15888324
69.62798652
68.73795091
70.86233813
71.84626918
71.10093293
70.40630051
67.85294702
68.68327108
68.38678389
69.34088108
73.30052899
70.73199254
69.73552873
70.35160679
72.00992429
72.91527186
70.59362981
72.09189053
73.09008661
67.86208482
65.74710051
67.93516253
64.25295599
61.93733389
57.62067467
58.81993552
64.73780587
63.40356163
63.95048334
66.56337817
64.83738276
69.47118683
69.32520347
70.40303751
69.87304592
70.87491582
69.14546152
68.15475938
66.19155355
68.27853225
65.76871189
63.71617367
65.05009928
63.20833526
62.84695668
60.18403608
57.6289279
57.62968896
59.31740253
58.78891592
62.24288643
60.11010517
64.86650883
64.38212519
67.6475267
65.939552
63.83029936
66.81948277
65.86754718
63.71179382
67.19624621
68.78203751
62.77905665
60.10974962
63.93754923
68.07763363
69.41491033
67.77679281
64.30196101
65.60363962
64.64036286
65.23409428
61.40056721
66.44030414
63.51819594
67.02435953
68.98669836
65.42745577
66.25718817
67.06139491
67.0070307
64.3656877
69.5932171
70.26286273
67.92363651
66.83220056
64.02555985
62.14468512
64.74206846
64.45036547
63.38635298
63.13294716
62.29464335
56.7857437
54.83307334
63.96878352
67.39755227
70.61697287
67.13839735
69.8394148
67.8434722
67.41681372
61.41969135
61.32525021
59.75899473
60.71767644
59.05579883
60.87850904
62.8154593
61.26154102
64.24499605
61.59651943
67.41055816
69.38770159
69.99203497
70.23384367
67.25071517
66.04826515
65.18413222
59.37681363
61.83078386
58.15519554
65.87370105
65.74049515
68.53292215
71.36467234
71.11594847
74.08427236
73.58250846
73.03655961
68.93086964
73.05579788
71.86554359
68.77272543
64.06306892
62.37511172
62.87131381
64.78605515
64.97121336
66.72175819
66.56269246
67.78115104
66.30179762
65.95756978
60.1124664
62.53282392
67.98067163
69.98715229
70.76194614
70.48913726
71.8487635
69.92035443
62.41162402
65.97981309
62.57119667
61.4714104
60.28942928
59.00655542
56.01692943
59.30776633
61.74498214
60.47475365
68.21651341
68.2491931
69.37720848
68.99326003
70.22988762
68.87504524
69.00042887
65.19548092
63.47745075
66.91985942
67.52895292
60.42952987
64.25394388
65.33263145
69.31342209
68.70868243
72.29762222
70.44752648
69.06946516
69.61043383
68.74719337
68.80335975
68.20967732
65.45373093
63.12545079
62.22897867
61.09333665
68.42096427
68.44111522
70.72814935
71.11277142
74.19857209
71.54063584
67.67653534
66.10822749
63.75786736
56.90427531
60.63961037
66.08463096
64.61711752
71.94769437
71.55650018
70.17000755
71.01581502
69.42504647
71.97557673
71.15946361
68.21550479
64.09506628
63.43327697
60.13908538
62.28927935
63.86085088
63.5593245
64.38032445
67.44731685
68.24236022
67.08825117
65.23266602
69.82936031
60.90172572
67.39556117
68.25050096
69.04430198
69.61555218
67.47920485
65.15183103
66.75110106
67.19392741
66.16743778
65.56326273
63.9245336
64.83672344
66.41087315
60.31658812
62.79475495
62.84472711
63.99756462
64.71645373
63.3800009
72.81310367
72.9821516
71.06650226
71.04785395
70.85426683
71.54138178
72.36042182
69.7282963
66.22518318
63.89178734
67.03801259
69.44025633
68.18284461
64.40209379
67.88359602
68.72633471
71.67371471
72.24835428
70.42684266
71.05370919
71.95741672
72.00483535
70.77427148
68.74039539
64.78933089
65.29739653
68.8881681
68.57424431
68.03821657
65.97428027
68.97469261
67.57954
70.16966223
73.41614422
74.47579177
73.11379526
72.18552383
72.89607007
70.97246472
70.29922105
67.40557092
67.18960899
66.84914001
66.14835425
64.65339751
67.15696575
66.34631016
66.6121397
68.37389041
70.02580031
72.54444388
72.14934919
70.12024027
70.28726165
65.13603788
67.67657872
64.46564456
68.68510041
68.14000338
69.87996287
74.82860045
72.70640301
72.82929563
74.71546464
73.96748622
69.8985135
69.59086853
68.87104464
69.0589549
67.58524216
69.06388409
70.0320117
70.49632222
70.13136247
70.22343956
73.90154824
72.6652741
71.08918825
72.96189859
72.93142993
69.9739508
70.26169105
68.57370341
67.51572305
70.50601846
73.28146571
71.78313132
71.36080036
70.12747314
69.27734021
72.08785445
70.53721217
70.9100846
70.95165296
73.74044495
71.38094163
71.88659949
74.34785967
72.05473288
70.58410024
68.79588104
67.33358488
70.14095699
71.14287219
68.07879978
68.78341963
67.40316514
69.69885968
70.19608522
68.65269487
67.9519588
67.7511588
67.47131381
67.91934486
68.13354698
67.6268951
68.4653922
68.73677045
65.82070762
66.49107581
68.11056044
67.27874802
66.01301812
67.10900074
65.28451758
68.19430299
67.66046991
67.65309321
63.09491484
64.62276377
64.28470105
66.15933508
64.78752243
66.30004781
67.85597102
66.44448566
68.43168369
68.04722044
69.71088471
66.93149538
69.97658195
70.19212557
69.57067835
66.52665478
67.65216357
68.01721051
67.34540482
65.52972918
67.41319747
67.07100936
68.1450475
68.63172743
67.40166587
66.84404469
65.43555572
67.5475924
68.18732463
66.82195381
69.05910351
70.20006708
62.92986791
65.43643893
66.99589619
69.08054522
72.56242614
70.71126792
71.7271788
70.04676212
66.8103863
62.44597576
63.53399245
59.11630661
58.87845499
59.66300775
63.67098652
61.22596546
63.63824426
61.48173363
64.42703117
61.71163503
64.91495031
64.77799849
60.66306303
65.83651358
65.76976395
65.60383183
62.7126459
65.6974901
66.39166233
67.830144
66.47264505
67.13449483
66.62265577
67.23990959
64.12440939
63.64834914
65.25197188
68.65603604
66.57567965
64.91486867
73.34793008
73.50535319
72.2282066
70.25324675
69.89425219
66.3320843
62.90081033
62.9334823
63.40481362
60.57125511
65.3444567
66.57844732
66.22374286
67.23538112
69.15385508
66.04940367
63.88810649
67.56474462
71.29599652
71.7422832
67.28711426
64.67647608
71.9557842
70.69881905
67.53551515
68.09978732
70.6771602
72.72687447
71.13823847
68.49564897
71.20201204
69.86666147
68.92330905
70.13867062
68.619688
70.01991126
72.68177804
71.45008148
70.47399942
68.63620721
66.01052523
66.56541888
61.18159519
66.4251714
68.0577122
70.94023698
69.10508555
67.50218742
69.82614395
71.03073143
67.40288917
67.97786933
66.52984111
68.16388944
70.01061829
68.06334893
64.43569394
66.72669014
65.3254912
67.14675648
70.59723126
69.52534501
71.48817037
71.35510897
65.19315173
65.34060452
61.06672612
65.56064688
66.23356682
70.04376356
70.63531805
71.08906946
74.1715909
72.01495458
73.83393689
73.10146597
73.04881891