/*--------------------------------*- C++ -*----------------------------------*\
| =========                 |                                                 |
| \\      /  F ield         | OpenFOAM: The Open Source CFD Toolbox           |
|  \\    /   O peration     | Version:  v1706                                 |
|   \\  /    A nd           | Web:      www.OpenFOAM.com                      |
|    \\/     M anipulation  |                                                 |
\*---------------------------------------------------------------------------*/
FoamFile
{
    version     2.0;
    format      ascii;
    class       volScalarField;
    location    "0.004";
    object      dsmcSigmaTcRMax;
}
// * * * * * * * * * * * * * * * * * * * * * * * * * * * * * * * * * * * * * //

dimensions      [0 3 -1 0 0 0 0];


internalField   nonuniform List<scalar> 
4000
(
5.271054238e-16
5.298339575e-16
5.617823394e-16
5.328225353e-16
5.32255811e-16
5.269511725e-16
5.471359462e-16
5.706767674e-16
5.560673993e-16
5.749744107e-16
5.679305795e-16
5.88589912e-16
5.52716157e-16
5.700905108e-16
6.030550987e-16
5.740097515e-16
5.683357631e-16
5.569582262e-16
5.918106086e-16
5.972209326e-16
6.055107267e-16
6.250146058e-16
5.893086131e-16
5.944490447e-16
5.906360083e-16
5.960751292e-16
6.240587526e-16
6.033026205e-16
5.994954067e-16
6.42716213e-16
6.094925926e-16
6.379286171e-16
6.225715429e-16
5.921343949e-16
5.929151606e-16
6.073281578e-16
5.954290749e-16
6.178804638e-16
5.733569039e-16
5.664927774e-16
5.365012484e-16
5.018491737e-16
5.498234405e-16
5.704618674e-16
5.47283468e-16
5.515320763e-16
5.393195374e-16
5.38707709e-16
5.402205072e-16
5.4785956e-16
5.433496209e-16
5.42145173e-16
5.551832878e-16
5.699083177e-16
5.713439686e-16
5.611387802e-16
5.633761023e-16
5.866021817e-16
5.767632924e-16
5.812874812e-16
5.689193631e-16
5.931901962e-16
5.753927117e-16
5.895897101e-16
5.908976927e-16
5.94297384e-16
6.04261538e-16
6.070982542e-16
6.052052996e-16
6.406230673e-16
6.112095682e-16
5.954882355e-16
6.073753547e-16
6.029257841e-16
5.943226015e-16
6.00588391e-16
5.901833023e-16
5.899419581e-16
5.780992661e-16
5.587943563e-16
5.445367438e-16
5.532047745e-16
5.308732108e-16
5.668104731e-16
5.286881685e-16
5.85508016e-16
5.465811614e-16
5.880973702e-16
5.491708377e-16
5.643094041e-16
5.480914246e-16
5.548619399e-16
5.557763009e-16
5.565230693e-16
5.594413001e-16
5.49382545e-16
5.728113965e-16
5.589982176e-16
5.698845002e-16
5.786472494e-16
5.730651832e-16
5.687400641e-16
5.734602407e-16
5.798945334e-16
5.924009904e-16
6.063800645e-16
5.789064324e-16
5.798997564e-16
6.040977783e-16
5.949972758e-16
5.978295929e-16
5.847976356e-16
6.074343093e-16
6.052798639e-16
5.93775867e-16
5.947134181e-16
6.107206553e-16
5.898595744e-16
5.73536077e-16
5.517340414e-16
5.119409804e-16
5.2103822e-16
6.101350818e-16
5.207599685e-16
5.645019346e-16
5.565963942e-16
5.457550911e-16
5.321428971e-16
5.457425956e-16
5.329748731e-16
5.391095947e-16
5.390924727e-16
5.629746662e-16
5.38415386e-16
5.635896875e-16
5.605622952e-16
5.760985498e-16
5.591551873e-16
5.693545071e-16
5.811939308e-16
5.749764304e-16
5.716549293e-16
5.734699448e-16
5.749882818e-16
5.931024277e-16
5.732566627e-16
5.88731137e-16
5.990587994e-16
5.927254287e-16
5.91309766e-16
6.050983319e-16
6.076210874e-16
6.120277711e-16
5.986414531e-16
5.886947431e-16
6.054048687e-16
5.858633476e-16
5.856234021e-16
5.761124742e-16
5.557717821e-16
5.232887866e-16
5.570970032e-16
5.32821684e-16
5.463527039e-16
5.471181438e-16
5.44373369e-16
5.377753304e-16
5.419143324e-16
5.481241853e-16
5.473828831e-16
5.799167768e-16
5.72366915e-16
5.43143529e-16
5.391459684e-16
5.572566364e-16
5.556528516e-16
5.635232351e-16
5.848011176e-16
5.634485145e-16
6.037060742e-16
5.73576586e-16
5.776816094e-16
5.862170718e-16
5.700416672e-16
5.966132018e-16
5.787436284e-16
5.989991358e-16
5.858298692e-16
5.87190886e-16
6.174074305e-16
6.073838429e-16
5.930796777e-16
6.032660404e-16
6.048290665e-16
6.076987722e-16
5.869399756e-16
5.805764545e-16
5.861350887e-16
5.690513806e-16
5.686201748e-16
5.815571935e-16
5.255046687e-16
5.241804808e-16
5.50732455e-16
5.246552723e-16
5.319257616e-16
5.832037234e-16
5.498373604e-16
5.392160757e-16
5.596461483e-16
5.390857907e-16
5.477335315e-16
5.497235966e-16
5.479252959e-16
5.612007625e-16
5.608908388e-16
5.867151551e-16
5.515365153e-16
5.615404187e-16
5.717619042e-16
5.577229487e-16
5.664271828e-16
5.840147481e-16
5.743278242e-16
5.806079089e-16
5.856813616e-16
5.76542629e-16
5.87357109e-16
6.011931906e-16
5.961527289e-16
5.966766597e-16
6.028257826e-16
6.054250876e-16
6.025200791e-16
6.101521724e-16
5.953143614e-16
5.808647949e-16
5.844437639e-16
5.737027523e-16
5.579461092e-16
5.483610888e-16
5.385565284e-16
5.388071827e-16
5.561716847e-16
5.323898808e-16
5.505211977e-16
5.282552059e-16
5.561992123e-16
5.597470074e-16
5.407663517e-16
5.478082477e-16
5.543557265e-16
5.513983226e-16
5.697957542e-16
5.532622998e-16
5.716628353e-16
5.773867267e-16
5.603396377e-16
5.663428781e-16
5.577258913e-16
5.633240702e-16
5.744589311e-16
5.663118026e-16
5.815667654e-16
5.997148552e-16
5.759180009e-16
5.841285015e-16
5.863205859e-16
5.894608683e-16
5.89827719e-16
5.855818446e-16
6.136138438e-16
5.952095696e-16
5.946744564e-16
6.221973096e-16
5.998376771e-16
5.876820457e-16
5.843211498e-16
5.80506136e-16
5.594458817e-16
5.026557663e-16
5.15523382e-16
5.141857303e-16
5.492036783e-16
5.349562257e-16
5.554399334e-16
5.499284201e-16
5.509506852e-16
5.377313626e-16
5.435407275e-16
5.396841421e-16
5.476823222e-16
5.595622986e-16
5.502104733e-16
5.711836956e-16
5.619383854e-16
5.574750934e-16
5.833252521e-16
5.54289746e-16
5.61498597e-16
5.698555419e-16
5.787376855e-16
5.634115958e-16
5.899385515e-16
5.945900958e-16
5.924305568e-16
5.802324529e-16
5.859616039e-16
5.915886629e-16
5.894384182e-16
5.989731097e-16
6.047083502e-16
5.957236875e-16
5.998444749e-16
6.047337267e-16
5.934746587e-16
5.969119147e-16
5.937845657e-16
5.849682987e-16
5.662423359e-16
5.175809031e-16
5.193088477e-16
5.144277912e-16
5.578638291e-16
5.310661417e-16
5.648461459e-16
5.355143854e-16
5.604444081e-16
5.616639413e-16
5.511631521e-16
5.451480671e-16
5.644542678e-16
5.49622206e-16
5.36631384e-16
5.693121703e-16
5.55767613e-16
5.912360113e-16
5.546238162e-16
5.622505967e-16
5.700593499e-16
5.788089809e-16
5.700139597e-16
5.724449173e-16
5.856748958e-16
5.85606677e-16
5.80637724e-16
5.789028444e-16
5.861366242e-16
5.805543961e-16
6.176429503e-16
5.992200383e-16
5.949943452e-16
5.957078474e-16
5.961834481e-16
5.862458626e-16
5.982674659e-16
5.893079874e-16
5.724476225e-16
5.661759239e-16
5.551779188e-16
5.525787912e-16
5.414069057e-16
5.411044001e-16
5.211352096e-16
5.346595065e-16
5.713453051e-16
5.998265432e-16
5.436842635e-16
5.468636939e-16
5.421180425e-16
5.512622778e-16
5.562959323e-16
5.426001872e-16
5.590362745e-16
5.402852423e-16
5.601687062e-16
5.615926592e-16
5.56245525e-16
5.696611394e-16
5.740823581e-16
5.753385731e-16
5.774503449e-16
5.745980632e-16
5.898734631e-16
5.63513083e-16
5.872922478e-16
5.663930699e-16
6.007114843e-16
6.067183728e-16
5.968358959e-16
5.993154122e-16
5.871610808e-16
5.931515419e-16
5.851665975e-16
5.912212297e-16
5.973565977e-16
5.970603332e-16
5.836956986e-16
5.871306666e-16
5.660027137e-16
5.296977104e-16
5.350222613e-16
4.964515343e-16
5.654807922e-16
5.244002008e-16
5.342574105e-16
5.630140399e-16
5.525582497e-16
5.52265825e-16
5.458395801e-16
5.678703704e-16
5.574079364e-16
5.420814169e-16
5.35147689e-16
5.476148867e-16
5.593037695e-16
5.46065354e-16
5.574397135e-16
5.694348896e-16
5.612759539e-16
5.502714455e-16
5.625649757e-16
5.668765562e-16
5.878057391e-16
5.721171623e-16
5.767570867e-16
5.720576537e-16
5.95843907e-16
5.777264592e-16
5.95168751e-16
5.851276161e-16
6.086319092e-16
5.901549149e-16
5.955886559e-16
5.851851913e-16
6.113080949e-16
5.875417733e-16
5.714088031e-16
5.755589866e-16
5.708387687e-16
5.433401537e-16
5.544169362e-16
5.483714789e-16
5.417129245e-16
5.352425057e-16
5.582366762e-16
5.58966264e-16
5.295024692e-16
5.404577225e-16
5.332707502e-16
5.472211054e-16
5.702464275e-16
5.532125164e-16
5.741446214e-16
5.702345525e-16
5.411620413e-16
5.572484183e-16
5.538324961e-16
5.598846951e-16
5.766169405e-16
5.586062107e-16
6.141760374e-16
5.734740346e-16
5.793628804e-16
5.829354699e-16
5.920287131e-16
5.796960514e-16
5.791168901e-16
5.913552478e-16
5.818168349e-16
6.015843692e-16
6.006812848e-16
5.933374746e-16
6.083337892e-16
5.86081275e-16
5.863505006e-16
5.796807263e-16
5.794331852e-16
5.86680707e-16
5.546145104e-16
5.360432644e-16
5.273649278e-16
5.525999407e-16
5.303796499e-16
5.309576121e-16
5.316842384e-16
5.318987414e-16
5.176479485e-16
5.293054494e-16
5.452807037e-16
5.584611411e-16
5.551314254e-16
5.606566315e-16
5.461062003e-16
5.485865102e-16
5.680063699e-16
5.643398756e-16
5.580861822e-16
5.699551843e-16
5.624020246e-16
5.640417013e-16
5.850053371e-16
5.634049294e-16
5.685114419e-16
5.667953101e-16
5.741989989e-16
5.765565814e-16
5.80598165e-16
5.829118282e-16
5.848789839e-16
5.98926214e-16
5.94552731e-16
5.945949863e-16
5.847160703e-16
5.905912289e-16
5.821914865e-16
5.847844205e-16
6.018520189e-16
5.771630257e-16
5.574328204e-16
5.386647195e-16
5.348171378e-16
5.160639619e-16
5.177904009e-16
5.475514408e-16
5.644827319e-16
5.252924015e-16
5.263971923e-16
5.450331564e-16
5.493149538e-16
5.432421965e-16
5.565553161e-16
5.734849368e-16
5.520841429e-16
5.430790098e-16
5.486357489e-16
5.676034092e-16
5.60560912e-16
5.66461785e-16
5.524832197e-16
5.659296026e-16
5.71506948e-16
5.667823278e-16
5.63313923e-16
5.87756214e-16
5.814679475e-16
5.917850118e-16
5.823428907e-16
5.864910992e-16
5.964011174e-16
5.8463001e-16
5.949646564e-16
5.863360243e-16
5.940125358e-16
5.918176201e-16
5.838486331e-16
5.80584416e-16
5.817692656e-16
5.71266493e-16
5.717583783e-16
5.185649356e-16
5.313232091e-16
5.249824265e-16
5.511813118e-16
5.147950471e-16
5.3915407e-16
5.466911445e-16
5.549002244e-16
5.323623537e-16
5.516739955e-16
5.455559281e-16
5.493839119e-16
5.406144803e-16
5.534166312e-16
5.547546615e-16
5.676736393e-16
5.499385141e-16
5.548219098e-16
5.549009765e-16
5.731182207e-16
5.705800758e-16
5.737848161e-16
5.897348063e-16
5.76982179e-16
5.710209026e-16
5.665302896e-16
5.875903893e-16
5.745611087e-16
5.922360546e-16
5.946147953e-16
6.06756615e-16
5.852328919e-16
5.952123898e-16
6.047602826e-16
5.780088459e-16
5.931296207e-16
5.860692029e-16
5.923186318e-16
5.739779303e-16
5.611384947e-16
5.294857722e-16
5.487135491e-16
5.434962925e-16
5.353912097e-16
5.098935474e-16
5.173124768e-16
5.283156231e-16
5.51931133e-16
5.296039292e-16
5.317776555e-16
5.549604137e-16
5.376707004e-16
5.604359156e-16
5.816669169e-16
5.578666702e-16
5.427392282e-16
5.723766658e-16
5.661507394e-16
5.759848434e-16
5.594158226e-16
5.684633634e-16
5.666101437e-16
5.523938925e-16
5.53037896e-16
5.6763975e-16
6.027795297e-16
5.757893027e-16
5.873854642e-16
5.755480318e-16
5.957415458e-16
5.76943681e-16
5.834470473e-16
5.886424848e-16
5.88755757e-16
5.827255039e-16
5.853067602e-16
5.765213438e-16
5.726189266e-16
5.986510016e-16
5.532741106e-16
4.936575071e-16
5.408569814e-16
4.910892887e-16
5.150873753e-16
5.303564098e-16
5.280929943e-16
5.398440606e-16
5.302297071e-16
5.473142136e-16
5.283839227e-16
5.330416012e-16
5.622016707e-16
5.471484295e-16
5.43808061e-16
5.54144696e-16
5.65138434e-16
5.673503286e-16
5.618283764e-16
5.457205563e-16
5.650468884e-16
5.570807172e-16
5.545494562e-16
5.847140372e-16
5.804311537e-16
5.659238001e-16
5.786332502e-16
6.130434857e-16
5.663777736e-16
5.846022052e-16
5.751948608e-16
5.9456395e-16
5.903241728e-16
5.878520021e-16
5.808470341e-16
5.874680287e-16
5.839301006e-16
5.833133054e-16
5.827562171e-16
5.796644918e-16
5.577811209e-16
5.408146784e-16
5.123522757e-16
5.665058915e-16
5.103979681e-16
5.160776752e-16
5.224226985e-16
5.422329113e-16
5.248692051e-16
5.245729855e-16
5.40123903e-16
5.519707153e-16
5.427003166e-16
5.560356174e-16
5.487289412e-16
5.414246073e-16
5.733441969e-16
5.745524289e-16
5.597316043e-16
5.620995268e-16
5.53375604e-16
5.655027585e-16
5.739982688e-16
5.587611874e-16
5.778773883e-16
5.803250698e-16
5.932620422e-16
5.73903597e-16
5.692706859e-16
5.705907723e-16
5.758895712e-16
5.918654471e-16
5.782075162e-16
5.840373155e-16
5.775061972e-16
5.897699983e-16
5.865247746e-16
5.978434438e-16
5.697805437e-16
5.674219017e-16
5.704391327e-16
5.667718324e-16
5.153929389e-16
5.403611792e-16
5.153900923e-16
5.2458083e-16
5.282590758e-16
5.346649278e-16
5.38892691e-16
5.699604577e-16
5.259665322e-16
5.575053649e-16
5.336467394e-16
5.599701466e-16
5.502659067e-16
5.573854003e-16
5.475545507e-16
5.550770612e-16
5.560966552e-16
5.599476883e-16
5.759850462e-16
5.726298073e-16
5.629963056e-16
5.765757897e-16
5.588488459e-16
5.759834901e-16
5.835750559e-16
5.819981877e-16
5.728000656e-16
5.993509783e-16
5.837955655e-16
5.794931422e-16
5.849578649e-16
5.829338773e-16
5.935503137e-16
5.843718829e-16
5.769836857e-16
5.855730259e-16
5.726265641e-16
5.63766502e-16
5.478771821e-16
5.069769571e-16
5.564045969e-16
5.025857413e-16
5.486882788e-16
5.114272133e-16
5.174633781e-16
5.203415348e-16
5.160181945e-16
5.389644503e-16
5.390765283e-16
5.341336594e-16
5.566153438e-16
5.540016121e-16
5.537646667e-16
5.620130913e-16
5.577324729e-16
5.545606101e-16
5.493491577e-16
5.608806449e-16
5.438057316e-16
5.491619182e-16
5.496358119e-16
5.49475682e-16
5.719341449e-16
5.662211819e-16
5.713422968e-16
5.587825556e-16
5.690998256e-16
6.026287323e-16
5.740994259e-16
5.68517517e-16
5.809517989e-16
5.786066265e-16
5.713609292e-16
5.819436726e-16
5.877259712e-16
5.867065065e-16
5.611786272e-16
5.618068783e-16
5.586741688e-16
5.260437214e-16
5.153386695e-16
5.155231401e-16
5.304258994e-16
5.162421404e-16
5.341848415e-16
5.444231248e-16
5.161376396e-16
5.42968476e-16
5.32345401e-16
5.401646803e-16
5.336876222e-16
5.349872072e-16
5.57329468e-16
5.604498312e-16
5.534921022e-16
5.42655254e-16
5.588683171e-16
5.394991152e-16
5.592431707e-16
5.62312967e-16
5.535722401e-16
5.741188456e-16
5.702663274e-16
5.538411796e-16
5.513613248e-16
5.597338168e-16
5.811421316e-16
5.689678756e-16
5.680202074e-16
5.861556923e-16
5.857393268e-16
5.822447988e-16
5.732626514e-16
5.784139129e-16
5.806640488e-16
5.852339047e-16
5.747521235e-16
5.682183676e-16
5.514458288e-16
5.097131684e-16
5.296094192e-16
5.292071175e-16
5.289120654e-16
5.463941104e-16
5.35025717e-16
5.10664577e-16
5.114010416e-16
5.308548269e-16
5.578341717e-16
5.505488476e-16
5.426773098e-16
5.474160565e-16
5.463326528e-16
5.498873012e-16
5.377936485e-16
5.631600754e-16
5.548800965e-16
5.652629783e-16
5.894951243e-16
5.595041741e-16
5.747403638e-16
5.536414666e-16
5.588978021e-16
5.475287935e-16
5.638262447e-16
5.623598843e-16
5.777309825e-16
5.55018259e-16
5.754813988e-16
5.842214528e-16
5.852991702e-16
5.726349986e-16
5.784161825e-16
5.700686682e-16
5.754699853e-16
5.731035019e-16
5.781519705e-16
5.502451343e-16
5.644942797e-16
4.942350457e-16
5.161401753e-16
5.425459023e-16
5.314090781e-16
5.177700333e-16
5.259759111e-16
5.218601581e-16
5.323663014e-16
5.48629773e-16
5.374668278e-16
5.432771047e-16
5.39054794e-16
5.287033362e-16
5.44185174e-16
5.651961218e-16
5.51059192e-16
5.406935619e-16
5.431784683e-16
5.452693274e-16
5.615123935e-16
5.582095685e-16
5.470895689e-16
5.443496777e-16
5.509235472e-16
5.505304032e-16
5.547295731e-16
5.706855841e-16
5.663917166e-16
5.524300576e-16
5.83473246e-16
5.700677602e-16
5.687671537e-16
5.71961019e-16
5.795256796e-16
5.739076537e-16
5.613072113e-16
5.732865545e-16
5.592203744e-16
5.73990507e-16
5.514509555e-16
5.382627906e-16
5.142520283e-16
5.222517005e-16
5.311709218e-16
5.577684871e-16
5.300992906e-16
5.129358501e-16
5.278477596e-16
5.064232263e-16
5.679629508e-16
5.541706897e-16
5.547111727e-16
5.51272325e-16
5.554172347e-16
5.521156536e-16
5.627613392e-16
5.63763963e-16
5.585042589e-16
5.441691634e-16
5.544622678e-16
5.484208966e-16
5.66567314e-16
5.551640714e-16
5.546350465e-16
5.56685538e-16
5.886023774e-16
5.619454422e-16
5.697214294e-16
5.563247504e-16
5.630404765e-16
5.946679089e-16
5.608791789e-16
5.800141388e-16
5.531024436e-16
5.781714204e-16
5.669363835e-16
5.698324049e-16
5.568508597e-16
5.493921559e-16
5.421277343e-16
4.934583103e-16
5.24813201e-16
5.10516409e-16
5.158022451e-16
5.530858225e-16
5.449171263e-16
5.401560919e-16
5.159642828e-16
5.133157423e-16
5.205566141e-16
5.45182267e-16
5.409916222e-16
5.513100724e-16
5.697255464e-16
5.416221985e-16
5.252949359e-16
5.387222901e-16
5.310992732e-16
5.696770789e-16
5.530102037e-16
5.606423991e-16
5.44303501e-16
5.487171945e-16
5.704557505e-16
5.490688265e-16
5.601819703e-16
5.812181238e-16
5.66476771e-16
5.624211389e-16
5.576953981e-16
5.667553392e-16
5.724706507e-16
5.567909754e-16
5.865228039e-16
5.623682674e-16
5.675244674e-16
5.663743653e-16
5.619275264e-16
5.612835958e-16
5.564127463e-16
4.944211629e-16
4.861842104e-16
5.156820134e-16
5.404242268e-16
5.147691392e-16
5.409875142e-16
5.301351701e-16
5.444184184e-16
5.44861713e-16
5.54602262e-16
5.408985447e-16
5.339409158e-16
5.519842337e-16
5.539781079e-16
5.340645994e-16
5.412442115e-16
5.346279846e-16
5.572176255e-16
5.37765998e-16
5.471946585e-16
5.526099437e-16
5.498491133e-16
5.407551987e-16
5.414965607e-16
5.487491713e-16
5.546350599e-16
5.4322605e-16
5.615465697e-16
5.673094787e-16
5.631382376e-16
5.580136853e-16
5.641366463e-16
5.658440033e-16
5.844410971e-16
5.566662694e-16
5.867748865e-16
5.606489691e-16
5.512632541e-16
5.612715119e-16
5.647421239e-16
4.717757863e-16
5.263945079e-16
5.414954843e-16
5.243763708e-16
5.301680249e-16
5.390851145e-16
5.223127279e-16
5.374406022e-16
5.123953672e-16
5.457696186e-16
5.243641929e-16
5.423917372e-16
5.327637988e-16
5.358604534e-16
5.495881811e-16
5.338719507e-16
5.557350419e-16
5.444639759e-16
5.653243121e-16
5.63808119e-16
5.395935023e-16
5.394353502e-16
5.53695232e-16
5.451848865e-16
5.618758097e-16
5.52171332e-16
5.54852834e-16
5.542583337e-16
5.591375566e-16
5.578916204e-16
5.634671016e-16
5.622980151e-16
5.578930802e-16
5.495335653e-16
5.626732944e-16
5.641047121e-16
5.552296696e-16
5.641680791e-16
5.484616933e-16
5.375959635e-16
4.98258952e-16
4.879188985e-16
4.822982427e-16
4.968285895e-16
5.080057414e-16
5.154642908e-16
5.278464014e-16
5.216557158e-16
5.070140886e-16
5.154159528e-16
5.207939881e-16
5.54317209e-16
5.257350295e-16
5.258025779e-16
5.203179101e-16
5.291930243e-16
5.47224371e-16
5.815549579e-16
5.396437135e-16
5.497325395e-16
5.459192728e-16
5.556865946e-16
5.475038222e-16
5.403279333e-16
5.464267581e-16
5.647979384e-16
5.387782794e-16
5.558695505e-16
5.42416414e-16
5.514273541e-16
5.59190268e-16
5.599636546e-16
5.705416834e-16
5.720605024e-16
5.697176055e-16
5.517082375e-16
5.670510272e-16
5.543413569e-16
5.481170078e-16
5.409597651e-16
4.41712912e-16
5.350714646e-16
5.12404416e-16
5.044468396e-16
5.274823259e-16
4.900547096e-16
5.480546821e-16
5.208329252e-16
5.442573965e-16
5.242750566e-16
5.237486826e-16
5.443707151e-16
5.356219142e-16
5.281988948e-16
5.384154825e-16
5.412559732e-16
5.567563224e-16
5.386511553e-16
5.316725884e-16
5.480472069e-16
5.426806178e-16
5.496372692e-16
5.689347382e-16
5.543571713e-16
5.548610527e-16
5.460408258e-16
5.749691786e-16
5.626718928e-16
5.417755625e-16
5.737546415e-16
5.356365191e-16
5.528230037e-16
5.594914614e-16
5.473985653e-16
5.594417477e-16
5.746951339e-16
5.468464436e-16
5.474001951e-16
5.45078317e-16
5.541550136e-16
4.826459137e-16
5.549828823e-16
5.207725229e-16
5.213900022e-16
5.140138996e-16
5.072163959e-16
4.90041876e-16
5.089370269e-16
5.108428649e-16
5.151035472e-16
5.088465699e-16
5.278882326e-16
5.420790871e-16
5.368776464e-16
5.485205264e-16
5.320281761e-16
5.406610792e-16
5.352343874e-16
5.337655817e-16
5.484712136e-16
5.426028381e-16
5.50399784e-16
5.457515853e-16
5.510704499e-16
5.590887212e-16
5.477796086e-16
5.565129769e-16
5.30757046e-16
5.588161015e-16
5.566581835e-16
5.479865072e-16
5.647213894e-16
5.594032379e-16
5.50893099e-16
5.479728767e-16
5.456213222e-16
5.59295984e-16
5.45203824e-16
5.530229704e-16
5.484298503e-16
5.214188216e-16
5.441668138e-16
5.159285429e-16
5.094352077e-16
5.145134611e-16
5.085934096e-16
5.255698807e-16
5.160493627e-16
5.355354048e-16
5.372884947e-16
5.075324327e-16
5.536550984e-16
5.349774613e-16
5.267817444e-16
5.412827904e-16
5.237184589e-16
5.522730486e-16
5.297539149e-16
5.393897316e-16
5.423850312e-16
5.457788858e-16
5.308846947e-16
5.584554225e-16
5.575089222e-16
5.444005049e-16
5.423681004e-16
5.41720321e-16
5.4581625e-16
5.480450618e-16
5.49361617e-16
5.412573773e-16
5.364552396e-16
5.417588137e-16
5.485370464e-16
5.510137808e-16
5.571370387e-16
5.378693424e-16
5.592701912e-16
5.408791052e-16
5.397018265e-16
4.901632879e-16
4.516666934e-16
5.111299123e-16
4.997050077e-16
5.010844745e-16
5.437550653e-16
5.413857647e-16
5.006712854e-16
5.347711564e-16
5.056893113e-16
5.479052574e-16
5.464505877e-16
5.234121409e-16
5.420354152e-16
5.240572758e-16
5.239750227e-16
5.610642006e-16
5.314523028e-16
5.570910499e-16
5.446306407e-16
5.645904142e-16
5.589555078e-16
5.495551153e-16
5.348437788e-16
5.201920314e-16
5.587321466e-16
5.482238716e-16
5.492115792e-16
5.542315947e-16
5.499763531e-16
5.479351918e-16
5.524430226e-16
5.433351527e-16
5.456469704e-16
5.496210245e-16
5.633393925e-16
5.39850814e-16
5.479966936e-16
5.414527257e-16
5.305004479e-16
4.946849132e-16
4.940153886e-16
5.00691307e-16
5.157215903e-16
5.540456021e-16
5.071263227e-16
5.420154135e-16
5.475136073e-16
5.376960873e-16
5.220302899e-16
5.248219457e-16
5.337360963e-16
5.225774604e-16
5.30294425e-16
5.324604651e-16
5.469703455e-16
5.228585597e-16
5.383793299e-16
5.261174456e-16
5.366565029e-16
5.426669402e-16
5.477515147e-16
5.40739539e-16
5.561678885e-16
5.423447534e-16
5.365544446e-16
5.482139962e-16
5.370165238e-16
5.436748257e-16
5.381111685e-16
5.433324594e-16
5.675298073e-16
5.429020187e-16
5.494862269e-16
5.34370657e-16
5.413459278e-16
5.411752253e-16
5.457713306e-16
5.333164933e-16
5.293280424e-16
5.352501506e-16
5.286841718e-16
4.790809655e-16
5.021472479e-16
5.573885098e-16
5.214561013e-16
5.262349492e-16
5.209076028e-16
5.257868242e-16
5.337842188e-16
5.117152475e-16
5.335044822e-16
5.283607725e-16
5.169482531e-16
5.465679014e-16
5.211746634e-16
5.265411327e-16
5.220188405e-16
5.296449394e-16
5.388172629e-16
5.269957021e-16
5.313076053e-16
5.381694334e-16
5.401275479e-16
5.520552102e-16
5.377552538e-16
5.627760442e-16
5.24857725e-16
5.480761292e-16
5.378466238e-16
5.404439948e-16
5.284049826e-16
5.392668965e-16
5.402933499e-16
5.400878212e-16
5.389722844e-16
5.370212765e-16
5.33968947e-16
5.299016172e-16
5.502320409e-16
4.916200566e-16
4.540327216e-16
5.421692801e-16
4.993014285e-16
5.365856317e-16
5.512353163e-16
4.890800519e-16
4.968155634e-16
5.287612867e-16
5.130383722e-16
5.229523821e-16
5.240752111e-16
5.306331996e-16
5.240149445e-16
5.320004392e-16
5.108166241e-16
5.321538814e-16
5.260955572e-16
5.300746125e-16
5.289217206e-16
5.326082527e-16
5.427888686e-16
5.31317715e-16
5.467920378e-16
5.440653034e-16
5.205482394e-16
5.744347252e-16
5.499114134e-16
5.365875337e-16
5.472513412e-16
5.382658843e-16
5.224468049e-16
5.337472426e-16
5.378932157e-16
5.328747537e-16
5.356228007e-16
5.375047464e-16
5.293412078e-16
5.427513108e-16
5.338687178e-16
4.928175545e-16
5.562672867e-16
5.058313133e-16
4.967567411e-16
4.899858303e-16
4.935901177e-16
4.71897942e-16
5.083826793e-16
5.393218046e-16
5.383241843e-16
5.287696832e-16
5.247685993e-16
5.530699261e-16
5.190769227e-16
5.510635818e-16
5.302023309e-16
5.356004615e-16
5.193197284e-16
5.289636774e-16
5.525851979e-16
5.14750531e-16
5.321370184e-16
5.296782436e-16
5.412082691e-16
5.351687469e-16
5.361002016e-16
5.291154806e-16
5.345472012e-16
5.376862364e-16
5.388499938e-16
5.447713853e-16
5.262623172e-16
5.444716244e-16
5.315493508e-16
5.445759854e-16
5.460452534e-16
5.218714457e-16
5.334428894e-16
5.359953505e-16
5.489991077e-16
5.047521847e-16
4.804176577e-16
5.193883219e-16
4.640431938e-16
5.121216393e-16
5.294587202e-16
4.87291083e-16
4.870748414e-16
5.359347564e-16
5.095720493e-16
5.244947207e-16
5.103264555e-16
5.276068283e-16
5.117652094e-16
5.307631795e-16
5.271755246e-16
5.31397565e-16
5.370309699e-16
5.206663405e-16
5.506838583e-16
5.323976343e-16
5.290300905e-16
5.264293486e-16
5.295728386e-16
5.361271268e-16
5.384513644e-16
5.345068066e-16
5.296263795e-16
5.462154249e-16
5.283935321e-16
5.212499229e-16
5.372468285e-16
5.464598244e-16
5.314753351e-16
5.371104023e-16
5.388295905e-16
5.163897132e-16
5.224459202e-16
5.338564117e-16
5.258655003e-16
5.006415028e-16
5.018007795e-16
5.006949732e-16
4.903660871e-16
5.136850075e-16
4.875300564e-16
4.968707871e-16
4.81820815e-16
5.180455956e-16
5.257186747e-16
5.357118465e-16
5.057216849e-16
5.16458924e-16
5.198042841e-16
5.193407894e-16
5.321753049e-16
5.355900618e-16
5.287628193e-16
5.21694689e-16
5.226902425e-16
5.557863553e-16
5.295739085e-16
5.209791775e-16
5.518200969e-16
5.405888924e-16
5.235070711e-16
5.442004142e-16
5.407419256e-16
5.293199826e-16
5.274490736e-16
5.29552041e-16
5.530412389e-16
5.391256988e-16
5.324986645e-16
5.33351057e-16
5.170954631e-16
5.38390133e-16
5.271364376e-16
5.220205504e-16
5.316574294e-16
5.058479211e-16
4.774555526e-16
5.020938011e-16
4.894996972e-16
4.938604615e-16
5.1009673e-16
5.326301114e-16
4.92841252e-16
5.15340448e-16
5.552734272e-16
4.972517294e-16
4.930925713e-16
5.374315718e-16
5.108698243e-16
5.449609753e-16
5.079789329e-16
5.200307543e-16
5.573626749e-16
5.110772754e-16
5.254690519e-16
5.327896574e-16
5.451603922e-16
5.407639582e-16
5.289222807e-16
5.449103776e-16
5.318319254e-16
5.3384798e-16
5.21814582e-16
5.534433566e-16
5.425457806e-16
5.604104699e-16
5.424692525e-16
5.362731222e-16
5.320681489e-16
5.179681767e-16
5.365747241e-16
5.245179167e-16
5.223799306e-16
5.197632249e-16
5.415969025e-16
4.913961914e-16
4.57528782e-16
5.271079393e-16
4.899998762e-16
5.095173537e-16
4.915670286e-16
4.999217156e-16
4.924152356e-16
5.225554813e-16
5.230896587e-16
5.233802629e-16
5.322578865e-16
5.184234797e-16
5.239349665e-16
5.194238336e-16
5.035459136e-16
5.225503655e-16
5.14661841e-16
5.421565908e-16
5.34632549e-16
5.609459824e-16
5.443474843e-16
5.334151914e-16
5.113548998e-16
5.247550816e-16
5.36306063e-16
5.478944256e-16
5.510936366e-16
5.248811265e-16
5.212369978e-16
5.204442579e-16
5.541952879e-16
5.207459753e-16
5.309075323e-16
5.17405194e-16
5.315570769e-16
5.191310236e-16
5.300910517e-16
5.459056501e-16
5.127604182e-16
4.882681428e-16
4.617876706e-16
4.712461566e-16
4.698133432e-16
4.849795523e-16
4.84835828e-16
5.099806639e-16
4.836369053e-16
5.012408822e-16
4.915009779e-16
5.108137459e-16
5.332686167e-16
5.260677465e-16
5.480535113e-16
5.244742687e-16
5.290511067e-16
5.388415441e-16
5.27329076e-16
5.292894148e-16
5.470789458e-16
5.147819009e-16
5.303898624e-16
5.208141662e-16
5.421651134e-16
5.400653109e-16
5.272816694e-16
5.235576487e-16
5.364875098e-16
5.360689976e-16
5.261974525e-16
5.285184396e-16
5.218235367e-16
5.273938262e-16
5.160957091e-16
5.226783485e-16
5.091280534e-16
5.141055712e-16
5.199973163e-16
5.158734479e-16
5.228911431e-16
5.059690705e-16
4.897310426e-16
4.934907768e-16
5.156523178e-16
5.203300019e-16
4.762991037e-16
5.146397042e-16
4.798765985e-16
5.082546533e-16
5.288294561e-16
5.0100915e-16
5.023138025e-16
4.994729893e-16
5.32491776e-16
5.144742585e-16
5.202682362e-16
5.225313599e-16
5.175364362e-16
5.136102545e-16
5.375605675e-16
5.194630051e-16
5.121288861e-16
5.323509282e-16
5.265443792e-16
5.251774624e-16
5.263667677e-16
5.165893148e-16
5.264528932e-16
5.247099043e-16
5.093138634e-16
5.23171046e-16
5.356440077e-16
5.273938262e-16
5.169640347e-16
5.119875973e-16
5.200619152e-16
5.155934361e-16
5.173506359e-16
5.217570698e-16
5.531980443e-16
4.260158343e-16
4.648282995e-16
4.653819571e-16
4.300601841e-16
4.86785833e-16
5.001813386e-16
4.927049661e-16
5.187210425e-16
4.942813567e-16
5.1061244e-16
5.147472085e-16
5.115138302e-16
5.41901082e-16
4.949131067e-16
4.952748428e-16
5.073053141e-16
5.011962406e-16
5.145986937e-16
5.320562199e-16
5.213940553e-16
5.279695424e-16
5.057225218e-16
5.320352842e-16
5.217891362e-16
5.215367603e-16
5.195605806e-16
5.311713264e-16
5.245609446e-16
5.01949564e-16
5.119473884e-16
5.201089721e-16
5.195239978e-16
5.456721354e-16
5.213135107e-16
5.375997982e-16
5.248879053e-16
5.066083345e-16
5.056710053e-16
5.134669841e-16
5.149171529e-16
5.473481208e-16
4.848455167e-16
4.208174138e-16
4.075357146e-16
4.842850601e-16
4.633296019e-16
4.831867265e-16
4.972034906e-16
4.447855759e-16
4.775007665e-16
5.35548286e-16
5.336628534e-16
4.94900962e-16
5.099293844e-16
5.381755677e-16
5.13755248e-16
5.093936952e-16
5.258847024e-16
5.243385682e-16
5.257045379e-16
5.154445742e-16
5.302809832e-16
5.184818335e-16
5.369205115e-16
5.129866112e-16
5.458894e-16
5.218585244e-16
5.255981186e-16
5.322686581e-16
5.056114451e-16
5.063934292e-16
5.141799885e-16
5.169683748e-16
5.218189177e-16
5.298962425e-16
5.233873301e-16
5.13777807e-16
5.250009466e-16
5.143064637e-16
5.152706293e-16
4.9887558e-16
4.424700678e-16
4.652261772e-16
5.130686407e-16
3.840329279e-16
5.035442145e-16
4.539903496e-16
4.876658671e-16
5.386463509e-16
5.0063604e-16
5.312092569e-16
4.962950057e-16
4.951078709e-16
4.993032299e-16
4.771416169e-16
5.004937403e-16
5.302233609e-16
5.249669084e-16
5.119538629e-16
5.205307575e-16
4.986010636e-16
5.18704663e-16
5.060423283e-16
5.030648988e-16
5.106515306e-16
5.327020079e-16
5.080312232e-16
5.140078587e-16
5.187544474e-16
5.168132762e-16
5.156377357e-16
5.119225131e-16
5.320341928e-16
5.177640646e-16
5.129867604e-16
5.110746788e-16
5.169866105e-16
5.318283627e-16
5.1176434e-16
5.152958309e-16
4.654845902e-16
5.270752525e-16
4.845784368e-16
5.216661057e-16
5.15144087e-16
5.011617617e-16
4.979829741e-16
4.757685504e-16
5.186569816e-16
5.242346307e-16
5.341991089e-16
5.051424187e-16
4.737870755e-16
5.116658859e-16
4.877526732e-16
5.403699667e-16
5.085955472e-16
5.20271817e-16
5.120171131e-16
5.109953647e-16
5.182604292e-16
5.193172221e-16
5.18268468e-16
4.925534881e-16
5.20558521e-16
5.225075236e-16
5.146113994e-16
5.03184701e-16
5.114755943e-16
5.101486311e-16
5.204281242e-16
5.095365893e-16