/*--------------------------------*- C++ -*----------------------------------*\
| =========                 |                                                 |
| \\      /  F ield         | OpenFOAM: The Open Source CFD Toolbox           |
|  \\    /   O peration     | Version:  v1706                                 |
|   \\  /    A nd           | Web:      www.OpenFOAM.com                      |
|    \\/     M anipulation  |                                                 |
\*---------------------------------------------------------------------------*/
FoamFile
{
    version     2.0;
    format      ascii;
    class       volScalarField;
    location    "0.004";
    object      dsmcSigmaTcRMax;
}
// * * * * * * * * * * * * * * * * * * * * * * * * * * * * * * * * * * * * * //

dimensions      [0 3 -1 0 0 0 0];


internalField   nonuniform List<scalar> 
4000
(
5.119709385e-16
5.204330903e-16
5.215061412e-16
5.365146517e-16
5.694154922e-16
5.234536212e-16
5.377283227e-16
5.540399163e-16
5.540524601e-16
5.60874657e-16
5.522550364e-16
5.860022437e-16
5.540135688e-16
5.603875638e-16
5.685515762e-16
5.663191965e-16
5.799922612e-16
5.942566024e-16
5.911798278e-16
5.839951541e-16
5.778127482e-16
5.811834246e-16
6.089595447e-16
5.775287042e-16
6.053625727e-16
6.077373085e-16
6.189410256e-16
6.101470812e-16
6.107613163e-16
6.155678807e-16
6.207889159e-16
6.127694769e-16
6.525349459e-16
6.090047099e-16
6.338927452e-16
5.900812476e-16
5.903799561e-16
6.049499601e-16
5.704485978e-16
5.783327576e-16
5.433474449e-16
5.067197712e-16
5.517550482e-16
5.3367452e-16
5.470581803e-16
5.531132132e-16
5.448837245e-16
5.404354363e-16
5.557210665e-16
5.768382038e-16
5.496583592e-16
5.871736144e-16
5.539557159e-16
5.855575933e-16
5.600749047e-16
5.612485775e-16
5.675068441e-16
5.740637348e-16
5.955394997e-16
5.808641856e-16
5.8344326e-16
5.992094512e-16
5.847874637e-16
5.78019553e-16
6.117300396e-16
5.725080474e-16
5.901485196e-16
6.063677267e-16
5.984191808e-16
5.846319933e-16
6.144679288e-16
6.126856352e-16
6.149251904e-16
6.023967557e-16
6.035648e-16
5.871003401e-16
5.976137537e-16
5.786408318e-16
6.024958943e-16
5.668379631e-16
5.046394532e-16
5.455594929e-16
5.299539123e-16
5.505923338e-16
5.198446894e-16
5.519350559e-16
5.711543287e-16
5.305424867e-16
5.615782715e-16
5.720938514e-16
5.747590308e-16
5.663805606e-16
5.514261865e-16
5.606510376e-16
5.74656108e-16
5.55073341e-16
5.644701879e-16
5.726165035e-16
5.644534409e-16
5.702945837e-16
5.880774031e-16
5.717575646e-16
6.190910887e-16
5.839022411e-16
5.772083181e-16
5.852515192e-16
5.90193365e-16
6.128421117e-16
5.829380823e-16
6.140122233e-16
6.004204456e-16
5.946361242e-16
5.914615149e-16
6.030570021e-16
5.994305808e-16
5.969879148e-16
5.926001616e-16
5.737472176e-16
5.715157096e-16
5.568605805e-16
5.338809896e-16
5.400617607e-16
5.251961305e-16
5.443930795e-16
5.275003636e-16
5.307995957e-16
5.545572154e-16
5.500426377e-16
5.532610152e-16
5.544521747e-16
5.554220437e-16
5.456183254e-16
5.539289117e-16
5.808525401e-16
5.628959318e-16
5.644047613e-16
5.586952216e-16
5.856843964e-16
5.7156607e-16
5.714006859e-16
5.665816787e-16
5.831313569e-16
5.868759923e-16
5.768482364e-16
5.729638864e-16
5.853160192e-16
5.805243789e-16
5.816856359e-16
6.055102184e-16
5.931344454e-16
5.95307575e-16
6.028422437e-16
6.031605128e-16
6.081603115e-16
5.93345927e-16
5.92235492e-16
5.909384569e-16
6.111742565e-16
5.760980203e-16
5.567964771e-16
5.062022221e-16
5.471634891e-16
5.331400797e-16
5.534486072e-16
5.337692056e-16
5.408124636e-16
5.644223947e-16
5.541967643e-16
5.457894016e-16
5.715308086e-16
5.671703711e-16
5.792804992e-16
5.713611588e-16
5.584872932e-16
5.861278465e-16
5.593512147e-16
5.646499842e-16
5.731832382e-16
5.573391917e-16
5.771937739e-16
5.742134388e-16
6.051537858e-16
5.807838238e-16
5.833838282e-16
5.832263354e-16
5.844126814e-16
5.968006501e-16
5.930061639e-16
6.132216591e-16
5.866914581e-16
6.014133587e-16
6.098470951e-16
5.943837268e-16
6.137269047e-16
6.049973978e-16
6.030181465e-16
5.897479744e-16
6.006998215e-16
5.620334443e-16
5.63599087e-16
5.446675294e-16
5.309326558e-16
5.55408224e-16
5.388179856e-16
5.285304286e-16
5.391230789e-16
5.47314825e-16
5.50430473e-16
5.504409479e-16
5.476574023e-16
5.561150821e-16
5.576580782e-16
5.726214396e-16
5.719709886e-16
5.525653131e-16
5.632945063e-16
5.54085042e-16
5.786919103e-16
5.763717274e-16
5.700407369e-16
5.664194423e-16
5.677783169e-16
5.835359427e-16
5.710360899e-16
5.777686945e-16
5.78153637e-16
5.814096782e-16
5.778702071e-16
6.085252556e-16
5.990981176e-16
5.880319087e-16
5.990911132e-16
5.987803851e-16
5.963257652e-16
5.948688793e-16
5.943143433e-16
5.864379289e-16
6.130030307e-16
5.839292992e-16
5.77028032e-16
5.538340578e-16
5.52299122e-16
5.473463153e-16
5.53532468e-16
5.323424271e-16
5.443610556e-16
5.373874822e-16
5.233576917e-16
5.478686051e-16
5.474670845e-16
5.498483486e-16
5.54143291e-16
5.492770368e-16
5.531063992e-16
5.687007716e-16
5.606952963e-16
5.580706238e-16
5.59884751e-16
5.662318222e-16
5.717488578e-16
5.802142411e-16
5.856447866e-16
5.732575861e-16
5.878106515e-16
5.842337209e-16
5.906358967e-16
6.046973511e-16
5.722939016e-16
5.953584959e-16
6.046057455e-16
5.99559917e-16
6.024628738e-16
5.962999171e-16
5.94225532e-16
5.993718055e-16
5.918365621e-16
5.901716498e-16
5.905134605e-16
5.79319497e-16
5.741044253e-16
5.46480228e-16
5.438509971e-16
5.384558713e-16
5.351986659e-16
5.360814468e-16
5.325298406e-16
5.339029762e-16
5.420621106e-16
5.728044777e-16
5.727628035e-16
5.833794927e-16
5.72051534e-16
5.490159622e-16
5.490613559e-16
5.582144482e-16
5.801128645e-16
5.586590972e-16
5.613814078e-16
5.803498271e-16
5.797932286e-16
5.676827658e-16
5.695691438e-16
5.717915984e-16
5.93799402e-16
5.801509932e-16
5.787384778e-16
5.70137425e-16
6.016861637e-16
5.813290803e-16
5.922969572e-16
6.070001915e-16
6.130963347e-16
6.11877677e-16
6.075925408e-16
5.90028549e-16
5.858599374e-16
5.898297894e-16
5.837436149e-16
6.140340341e-16
5.543163257e-16
5.172292881e-16
5.359461575e-16
5.441575721e-16
5.168396825e-16
5.137609521e-16
5.480608198e-16
5.270946232e-16
5.688773642e-16
5.673309928e-16
5.470568285e-16
5.457709173e-16
5.539331659e-16
5.508116724e-16
5.569572364e-16
5.64475639e-16
5.453934119e-16
5.582758516e-16
5.481636693e-16
5.581032692e-16
5.62805559e-16
5.51867027e-16
5.695314148e-16
5.813783905e-16
5.711144511e-16
5.788816437e-16
5.948033905e-16
5.773677895e-16
5.785151463e-16
6.011732118e-16
6.041615659e-16
6.118808255e-16
5.93385542e-16
5.985190049e-16
5.885991609e-16
6.035664844e-16
5.971698914e-16
5.894015495e-16
5.904320902e-16
5.720162539e-16
5.550527006e-16
4.750122098e-16
5.016476725e-16
5.325400155e-16
5.207600492e-16
5.435331799e-16
5.476241295e-16
5.347822934e-16
5.467315878e-16
5.314906453e-16
5.476268024e-16
5.402834491e-16
5.464511817e-16
5.648337685e-16
5.512244362e-16
5.545168337e-16
5.520221262e-16
5.539040882e-16
5.692242474e-16
5.744849998e-16
5.638608101e-16
5.677932797e-16
5.704682372e-16
5.816582589e-16
5.844127865e-16
5.719504032e-16
5.707398313e-16
5.766801717e-16
5.750132827e-16
5.964691875e-16
5.890110192e-16
5.861834612e-16
6.009720834e-16
5.853585397e-16
6.124971926e-16
5.812870753e-16
6.072767882e-16
5.96028761e-16
5.839446316e-16
5.798382941e-16
5.719900058e-16
5.030441098e-16
5.575581934e-16
5.311158123e-16
5.721231834e-16
5.296187183e-16
5.406842404e-16
5.188703915e-16
5.364390527e-16
5.337493878e-16
5.66190926e-16
5.632702048e-16
5.4995293e-16
5.375317436e-16
5.62086907e-16
5.589509492e-16
5.758914727e-16
5.794915156e-16
5.600797696e-16
5.64103071e-16
5.749261851e-16
5.673092123e-16
5.708889844e-16
5.707964519e-16
5.856595393e-16
5.812975332e-16
5.818373437e-16
5.69751188e-16
5.885187061e-16
5.878956592e-16
5.833616046e-16
5.948841342e-16
5.985632116e-16
5.790289941e-16
5.88018822e-16
5.907374686e-16
5.960640779e-16
5.800311588e-16
5.908825756e-16
5.786021612e-16
5.707580433e-16
5.249067983e-16
5.348832371e-16
5.507559367e-16
5.115415883e-16
5.568247894e-16
5.189529421e-16
5.254441127e-16
5.310712087e-16
5.499734884e-16
5.652161583e-16
5.728690465e-16
5.47688789e-16
5.388899049e-16
5.851418038e-16
5.432904934e-16
5.503232364e-16
5.499457433e-16
5.564026227e-16
5.653918226e-16
5.633890321e-16
5.620973342e-16
5.66652874e-16
5.761614616e-16
5.655260972e-16
5.779558404e-16
5.757629914e-16
5.781031909e-16
5.790368075e-16
5.81302446e-16
6.035567635e-16
5.867167701e-16
5.846875344e-16
5.94306888e-16
5.972522112e-16
5.944465165e-16
5.872030451e-16
5.819060182e-16
5.711023412e-16
5.821328108e-16
5.626928592e-16
5.306599651e-16
5.781704545e-16
5.248804992e-16
5.333249985e-16
5.338577268e-16
5.145417197e-16
5.584936734e-16
5.719463834e-16
5.488006401e-16
5.180244524e-16
5.499486866e-16
5.480753407e-16
5.696873694e-16
5.487317431e-16
5.444724192e-16
5.631208758e-16
5.617602028e-16
5.660100877e-16
5.565496656e-16
5.574987614e-16
5.677371338e-16
5.718480539e-16
5.824644457e-16
5.722965873e-16
5.695987707e-16
5.787292452e-16
5.848716468e-16
6.288406596e-16
5.875320062e-16
6.044746434e-16
5.895700759e-16
5.824399901e-16
6.143026331e-16
6.02377696e-16
5.806669839e-16
6.066205854e-16
5.755370335e-16
5.865648578e-16
5.683932661e-16
5.690488971e-16
5.415180534e-16
5.315805136e-16
5.487966696e-16
5.564707945e-16
5.083301301e-16
5.274182202e-16
5.442244e-16
5.18570115e-16
5.565626755e-16
5.611758654e-16
5.624740596e-16
5.332909063e-16
5.4543725e-16
5.75077936e-16
5.728375122e-16
5.522234695e-16
5.553026477e-16
5.727861367e-16
5.571473866e-16
5.467610228e-16
5.612325613e-16
5.790417593e-16
5.671308053e-16
5.746858663e-16
5.692545112e-16
5.7680267e-16
5.665799595e-16
5.921574218e-16
5.788539476e-16
5.895238977e-16
5.993347305e-16
6.026627282e-16
5.911406853e-16
5.934829939e-16
6.170669683e-16
5.945670242e-16
5.765072505e-16
5.842177714e-16
5.823105915e-16
5.609014108e-16
5.347367854e-16
5.026804628e-16
5.420224632e-16
5.321269549e-16
5.36230184e-16
5.312878215e-16
5.31286836e-16
5.099846639e-16
5.492512793e-16
5.380164328e-16
5.477057231e-16
5.528103371e-16
5.561261535e-16
5.563026061e-16
5.403688464e-16
5.730520292e-16
5.622345919e-16
5.519492857e-16
5.641819071e-16
5.503939178e-16
5.780796809e-16
5.66838451e-16
5.673458696e-16
5.782782665e-16
5.748556374e-16
5.681741889e-16
5.790597797e-16
5.731477472e-16
5.786150916e-16
6.009534756e-16
5.991940615e-16
5.970521434e-16
5.873046657e-16
6.028073688e-16
5.899343559e-16
5.801771367e-16
5.834569333e-16
5.770342727e-16
5.68467029e-16
5.725182177e-16
5.132521357e-16
5.090987762e-16
5.012697738e-16
5.229252408e-16
5.295788446e-16
5.332265028e-16
5.426881735e-16
5.399008968e-16
5.499716462e-16
5.517232745e-16
5.66588554e-16
5.809329408e-16
5.425680574e-16
5.662561325e-16
5.567562255e-16
5.594317996e-16
5.583104344e-16
5.705245656e-16
5.613684615e-16
5.503651507e-16
5.696116616e-16
5.637560571e-16
5.731616386e-16
5.582388378e-16
5.967291337e-16
5.819607527e-16
5.699019925e-16
5.878594748e-16
5.79292045e-16
5.826277388e-16
5.768550115e-16
5.957341002e-16
5.822623599e-16
5.820666028e-16
5.990786131e-16
5.998089116e-16
5.81807859e-16
5.754788433e-16
5.837462585e-16
5.514290285e-16
5.153684237e-16
5.38332536e-16
5.38553258e-16
5.136969661e-16
5.32131109e-16
5.30040973e-16
5.492348909e-16
5.354686433e-16
5.313114277e-16
5.354102649e-16
5.421660261e-16
5.42845993e-16
5.555022463e-16
5.523600977e-16
5.507153508e-16
5.659295198e-16
5.464872018e-16
5.524386666e-16
5.558172905e-16
5.656334013e-16
5.54431654e-16
5.596728055e-16
5.478507276e-16
5.73467259e-16
5.784231487e-16
5.682823727e-16
5.734149642e-16
5.988597407e-16
5.76102554e-16
5.784514285e-16
5.771147466e-16
6.269515538e-16
5.920122626e-16
6.075506376e-16
6.034806474e-16
5.862666278e-16
5.732196185e-16
5.80805078e-16
5.706788758e-16
5.835612351e-16
5.336705708e-16
5.354429393e-16
5.206299728e-16
5.194798678e-16
5.341382215e-16
5.329235694e-16
5.317921143e-16
5.085085068e-16
5.200398202e-16
5.296796009e-16
5.564769855e-16
5.55552953e-16
5.412633719e-16
5.758250566e-16
5.617634217e-16
5.451428089e-16
5.60955389e-16
5.585451236e-16
5.741921628e-16
5.517569456e-16
5.501280083e-16
5.503485125e-16
5.703971706e-16
5.920038022e-16
5.602874751e-16
5.721301672e-16
5.863452354e-16
5.817287547e-16
5.692804146e-16
5.748909347e-16
5.748583332e-16
5.796127543e-16
5.754463209e-16
5.931140343e-16
5.829187711e-16
6.039355857e-16
5.880759489e-16
5.765073059e-16
5.810714222e-16
5.609110614e-16
5.182144109e-16
5.351784438e-16
5.397517838e-16
5.201093183e-16
5.253753237e-16
5.265423744e-16
5.459401317e-16
5.214665236e-16
5.190790375e-16
5.541832372e-16
5.314418642e-16
5.518173981e-16
5.504338833e-16
5.50945715e-16
5.522084501e-16
5.593157122e-16
5.569349384e-16
5.703086364e-16
5.485934629e-16
5.811927801e-16
5.690927195e-16
5.520890915e-16
5.630763317e-16
5.584542812e-16
5.805551967e-16
5.876185313e-16
5.701642245e-16
5.665831609e-16
5.752140253e-16
5.722652866e-16
5.958913001e-16
5.990118128e-16
5.83139078e-16
5.868414821e-16
5.80829353e-16
5.847945944e-16
5.978567064e-16
5.792788976e-16
5.669126667e-16
5.594454302e-16
5.158819769e-16
5.152293627e-16
5.591320084e-16
5.101421378e-16
5.203006196e-16
5.481513782e-16
5.410125587e-16
5.381237518e-16
5.304670806e-16
5.510500731e-16
5.405797393e-16
5.376180871e-16
5.627371203e-16
5.51605022e-16
5.36050419e-16
5.815625443e-16
5.600453909e-16
5.461449368e-16
5.629338143e-16
5.534892277e-16
5.459374147e-16
5.74489332e-16
5.735876667e-16
5.659398027e-16
5.571897641e-16
5.575361943e-16
5.692831343e-16
5.768588448e-16
5.790939444e-16
5.659673413e-16
5.774008832e-16
5.785756818e-16
5.783388636e-16
5.854526328e-16
5.810736289e-16
5.86030704e-16
5.713220583e-16
5.652389083e-16
5.865494173e-16
5.687979725e-16
4.946377412e-16
5.35492925e-16
5.507215245e-16
5.250689017e-16
5.40511989e-16
5.536126313e-16
5.336622913e-16
5.424495344e-16
5.288696184e-16
5.452653516e-16
5.337263645e-16
5.602342796e-16
5.399680859e-16
5.348156245e-16
5.516839096e-16
5.447958036e-16
5.437473253e-16
5.524105201e-16
5.6792827e-16
5.502986708e-16
5.448702847e-16
5.513050993e-16
5.563104013e-16
5.574272328e-16
5.617190403e-16
5.607135599e-16
5.692268079e-16
5.575909804e-16
5.734597976e-16
5.866300181e-16
5.691179647e-16
5.743346685e-16
5.710986566e-16
5.78330652e-16
5.924730614e-16
5.734663147e-16
5.665183765e-16
5.810850205e-16
5.551632201e-16
5.528269557e-16
4.889356792e-16
5.280079021e-16
5.444805705e-16
5.405655562e-16
5.081502247e-16
5.285608439e-16
5.39989051e-16
5.393905015e-16
5.552168888e-16
5.565259499e-16
5.343530795e-16
5.177080644e-16
5.268186023e-16
5.495086075e-16
5.243535322e-16
5.612599615e-16
5.553625595e-16
5.573535243e-16
5.470589933e-16
5.433946477e-16
5.500376139e-16
5.482030653e-16
5.589684864e-16
5.497091036e-16
5.545244297e-16
5.738457817e-16
5.71624538e-16
5.660635223e-16
5.652218103e-16
5.689782496e-16
5.853429299e-16
5.770936724e-16
5.870142506e-16
5.860438832e-16
5.834157676e-16
5.78959045e-16
5.660373922e-16
5.69278184e-16
5.554362942e-16
5.670939756e-16
5.093670817e-16
5.273936503e-16
5.237789743e-16
5.377107564e-16
5.359319312e-16
5.410048224e-16
5.10956553e-16
5.381297441e-16
5.252186276e-16
5.261880813e-16
5.382266318e-16
5.24887012e-16
5.466616441e-16
5.410576182e-16
5.608051048e-16
5.487509116e-16
5.493205514e-16
5.537222614e-16
5.557244206e-16
5.726120568e-16
5.603464453e-16
5.449879844e-16
5.464243852e-16
5.668351036e-16
5.591532715e-16
5.50319599e-16
5.605440186e-16
5.592293144e-16
5.833159507e-16
5.654575485e-16
5.781374214e-16
5.761267745e-16
5.642922354e-16
5.744988181e-16
5.726089605e-16
5.814481459e-16
5.795537575e-16
5.741804025e-16
5.503188651e-16
5.43779445e-16
4.527149798e-16
5.136466683e-16
5.326837471e-16
5.610735233e-16
5.074644112e-16
5.405675042e-16
5.322708769e-16
5.347644833e-16
5.31404863e-16
5.404326876e-16
5.208906119e-16
5.338506014e-16
5.401091882e-16
5.528239202e-16
5.451594281e-16
5.485085037e-16
5.427268186e-16
5.519929269e-16
5.535770286e-16
5.551479858e-16
5.437136164e-16
5.517935668e-16
5.456673701e-16
5.528490651e-16
5.618719158e-16
5.613972455e-16
5.520208514e-16
5.583576228e-16
5.612348044e-16
5.569504882e-16
5.745698887e-16
5.809441127e-16
5.719716622e-16
5.657081968e-16
5.752671365e-16
5.69274968e-16
5.664132466e-16
5.508529688e-16
5.617131582e-16
5.528390826e-16
5.088054661e-16
5.07197483e-16
5.109032068e-16
5.086359893e-16
5.251518637e-16
5.379181698e-16
5.587134586e-16
5.223204415e-16
5.213181322e-16
5.164916968e-16
5.35560944e-16
5.639688601e-16
5.319387058e-16
5.475087878e-16
5.345659607e-16
5.442385805e-16
5.59216356e-16
5.326583025e-16
5.367638918e-16
5.3352509e-16
5.468849583e-16
5.560696533e-16
5.416800139e-16
5.401256628e-16
5.603431128e-16
5.650466936e-16
5.698405867e-16
5.676019724e-16
5.68583121e-16
5.742327629e-16
5.63381148e-16
5.644421151e-16
5.671246113e-16
5.611125129e-16
5.766752175e-16
5.60883091e-16
5.575533831e-16
5.52821611e-16
5.75274199e-16
5.468737906e-16
4.982793305e-16
5.223154349e-16
5.016801922e-16
5.383267998e-16
5.325744319e-16
5.056916262e-16
5.211986472e-16
5.268416372e-16
5.196916107e-16
5.456606468e-16
5.334188099e-16
5.206215087e-16
5.36276772e-16
5.444639427e-16
5.377213391e-16
5.36169024e-16
5.40149367e-16
5.404562615e-16
5.483734097e-16
5.526484073e-16
5.409956175e-16
5.403577676e-16
5.482007381e-16
5.567514738e-16
5.518525699e-16
5.565303419e-16
5.580139358e-16
5.57514351e-16
5.566121078e-16
5.725611218e-16
5.512574033e-16
5.64741122e-16
5.659933657e-16
5.634342575e-16
5.639215608e-16
5.629613399e-16
5.565773971e-16
5.712616871e-16
5.595983143e-16
5.427565269e-16
4.919544737e-16
5.462282801e-16
4.978104515e-16
5.435772286e-16
5.242962114e-16
5.011925568e-16
5.20989466e-16
5.512862539e-16
5.379219377e-16
5.364607787e-16
5.249396359e-16
5.37399829e-16
5.396606028e-16
5.437065524e-16
5.356866039e-16
5.532985609e-16
5.444176072e-16
5.929220583e-16
5.437138526e-16
5.405040798e-16
5.60968002e-16
5.413718431e-16
5.54788958e-16
5.570418905e-16
5.560658361e-16
5.638336202e-16
5.560136242e-16
5.644924084e-16
5.568200223e-16
5.573788544e-16
5.432053915e-16
5.542621889e-16
5.562881475e-16
5.808109741e-16
5.757599892e-16
5.728912221e-16
5.612269569e-16
5.528311171e-16
5.547299601e-16
5.576455527e-16
5.053308748e-16
5.101935416e-16
5.36865645e-16
5.399001265e-16
5.191149208e-16
5.293873208e-16
5.063737251e-16
5.350286199e-16
5.401019549e-16
5.293674034e-16
5.554958075e-16
5.338053853e-16
5.334876544e-16
5.76057025e-16
5.303179045e-16
5.26628674e-16
5.412955917e-16
5.354255329e-16
5.464358629e-16
5.343686953e-16
5.46943415e-16
5.52432912e-16
5.549695409e-16
5.547881131e-16
5.604752789e-16
5.504704491e-16
5.572637188e-16
5.417132948e-16
5.69161527e-16
5.554623285e-16
5.613610049e-16
5.585991016e-16
5.603585601e-16
5.576111706e-16
5.54310148e-16
5.538218666e-16
5.512017458e-16
5.592212169e-16
5.550768124e-16
5.390871316e-16
5.04954122e-16
4.906754969e-16
5.041124306e-16
5.15507032e-16
5.249123914e-16
5.22409108e-16
5.145680526e-16
5.305666899e-16
5.328350981e-16
5.599372886e-16
5.333838924e-16
5.279776646e-16
5.274897577e-16
5.34264578e-16
5.299626414e-16
5.400685863e-16
5.414859686e-16
5.464229528e-16
5.515495101e-16
5.314695571e-16
5.51863532e-16
5.503027484e-16
5.46468693e-16
5.416255101e-16
5.452117646e-16
5.560465789e-16
5.483188896e-16
5.466423169e-16
5.827320195e-16
5.568336532e-16
5.612485895e-16
5.586604679e-16
5.702875982e-16
5.609085011e-16
5.574388205e-16
5.42399167e-16
5.640300855e-16
5.43173793e-16
5.466386465e-16
5.571256796e-16
4.692710801e-16
6.01241964e-16
5.784823536e-16
5.136225303e-16
5.041951094e-16
5.447148145e-16
5.120936449e-16
4.987819501e-16
5.211841432e-16
5.376158196e-16
5.326301427e-16
5.361570335e-16
5.207875468e-16
5.325747189e-16
5.304448829e-16
5.3632212e-16
5.436188621e-16
5.481000097e-16
5.461290995e-16
5.259513524e-16
5.56998868e-16
5.644648928e-16
5.465145126e-16
5.456788814e-16
5.635393395e-16
5.537863777e-16
5.552905014e-16
5.5494925e-16
5.509152367e-16
5.576351583e-16
5.649361289e-16
5.535690713e-16
5.532671279e-16
5.64454891e-16
5.498511052e-16
5.537337233e-16
5.450401434e-16
5.443786523e-16
5.627033231e-16
5.350956171e-16
5.56809139e-16
4.837818261e-16
5.149060845e-16
5.115741118e-16
5.391766562e-16
5.341289953e-16
5.364086143e-16
5.299445879e-16
5.372139822e-16
5.243452647e-16
5.138533676e-16
5.360720678e-16
5.34624109e-16
5.374955544e-16
5.350295359e-16
5.67486131e-16
5.335189353e-16
5.549951201e-16
5.212023643e-16
5.257696478e-16
5.315575268e-16
5.550693345e-16
5.582855709e-16
5.43467375e-16
5.409024075e-16
5.489769016e-16
5.473678092e-16
5.431118158e-16
5.664487387e-16
5.792465435e-16
5.463678101e-16
5.438609885e-16
5.43399636e-16
5.663295072e-16
5.449021093e-16
5.485611662e-16
5.676032373e-16
5.433366851e-16
5.544469891e-16
5.313184435e-16
4.499998188e-16
4.564006208e-16
4.798069939e-16
5.109045833e-16
5.244954278e-16
5.345947285e-16
5.110425657e-16
5.437633264e-16
5.667987515e-16
5.242331856e-16
5.270739453e-16
5.444226631e-16
5.257832133e-16
5.54991606e-16
5.583941502e-16
5.449799141e-16
5.413585041e-16
5.3867712e-16
5.35177156e-16
5.446409461e-16
5.447426499e-16
5.377546712e-16
5.345545236e-16
5.446583767e-16
5.368594234e-16
5.625004244e-16
5.62362095e-16
5.450002665e-16
5.520374524e-16
5.371397381e-16
5.396732737e-16
5.408301121e-16
5.380789434e-16
5.586151157e-16
5.425351801e-16
5.534870413e-16
5.444803574e-16
5.522795813e-16
5.402715221e-16
5.395670544e-16
4.561435854e-16
5.126210013e-16
4.843696326e-16
5.036118311e-16
5.084526055e-16
5.075313747e-16
5.094235386e-16
5.007219882e-16
5.526441457e-16
5.28520845e-16
5.056437278e-16
5.399114636e-16
5.133718608e-16
5.396529928e-16
5.311976851e-16
5.466246025e-16
5.368929205e-16
5.509537359e-16
5.384187999e-16
5.495804271e-16
5.31584512e-16
5.477216208e-16
5.353345052e-16
5.537668267e-16
5.438865251e-16
5.368351701e-16
5.526341861e-16
5.604127945e-16
5.536603301e-16
5.638560524e-16
5.646415417e-16
5.533273798e-16
5.486335024e-16
5.504494142e-16
5.430987275e-16
5.315723611e-16
5.382233204e-16
5.241928469e-16
5.443543378e-16
5.597879546e-16
4.709590366e-16
4.829780153e-16
5.095674629e-16
4.996727041e-16
5.102862199e-16
5.073479501e-16
4.832847862e-16
5.087057835e-16
5.392326634e-16
5.176836922e-16
5.243101716e-16
5.2091351e-16
5.377834206e-16
5.241297153e-16
5.303858124e-16
5.30934439e-16
5.233384694e-16
5.567071451e-16
5.340816933e-16
5.243224411e-16
5.219477395e-16
5.519843072e-16
5.341729212e-16
5.67951604e-16
5.391684148e-16
5.375837813e-16
5.329965553e-16
5.395910267e-16
5.352662529e-16
5.272662718e-16
5.39486794e-16
5.446411012e-16
5.53348583e-16
5.393757179e-16
5.340762086e-16
5.576146081e-16
5.515060771e-16
5.353927628e-16
5.25165522e-16
5.441843246e-16
5.33600559e-16
5.144322379e-16
5.168735497e-16
5.123722916e-16
5.165217813e-16
5.183965492e-16
4.991694855e-16
5.355612343e-16
5.163357332e-16
5.292840927e-16
4.848746498e-16
5.415684234e-16
5.206511284e-16
5.348036512e-16
5.337795129e-16
5.404999243e-16
5.465907108e-16
5.629543878e-16
5.411858725e-16
5.375514512e-16
5.272122123e-16
5.2856939e-16
5.451792935e-16
5.444443393e-16
5.346554486e-16
5.349749652e-16
5.72590228e-16
5.290684136e-16
5.380522949e-16
5.398740131e-16
5.248118217e-16
5.298052891e-16
5.340846242e-16
5.407242256e-16
5.362220221e-16
5.374389332e-16
5.436668111e-16
5.34864654e-16
5.231404512e-16
5.298559349e-16
4.761667934e-16
5.168621785e-16
4.795313701e-16
4.845210883e-16
4.947903045e-16
5.260793265e-16
5.364539868e-16
5.168262675e-16
5.265534135e-16
5.087392516e-16
5.109338532e-16
5.211558887e-16
5.131661027e-16
5.096685977e-16
5.213284386e-16
5.285848618e-16
5.448706715e-16
5.334601542e-16
5.685778192e-16
5.343687814e-16
5.247643226e-16
5.446673232e-16
5.349243814e-16
5.338306247e-16
5.242710393e-16
5.169237345e-16
5.403249164e-16
5.26386772e-16
5.351056777e-16
5.312228947e-16
5.499067414e-16
5.21273148e-16
5.345262741e-16
5.458353235e-16
5.294347615e-16
5.378202394e-16
5.372962119e-16
5.291697417e-16
5.430174166e-16
5.321206619e-16
4.537039018e-16
5.013002325e-16
4.685424102e-16
5.240774047e-16
4.895949142e-16
5.14898472e-16
5.086564101e-16
5.486587827e-16
5.051849107e-16
5.119359124e-16
5.408725713e-16
5.223169773e-16
5.291894045e-16
5.278530902e-16
5.133086473e-16
5.54799556e-16
5.173881985e-16
5.266480081e-16
5.352890319e-16
5.229758647e-16
5.582165758e-16
5.331684755e-16
5.377410769e-16
5.408578732e-16
5.395609749e-16
5.354761375e-16
5.324512559e-16
5.431181984e-16
5.447243377e-16
5.164823458e-16
5.495454224e-16
5.247896929e-16
5.315583163e-16
5.306370478e-16
5.34758771e-16
5.304935097e-16
5.253673381e-16
5.33887051e-16
5.218528112e-16
5.243782914e-16
4.008573483e-16
5.15485705e-16
4.993094529e-16
4.813107108e-16
4.831402885e-16
4.875210333e-16
4.819557468e-16
5.303775547e-16
5.401415856e-16
5.003948478e-16
5.271909696e-16
5.017028671e-16
5.330833103e-16
5.075441581e-16
5.372040703e-16
5.060222983e-16
5.359280974e-16
5.356830322e-16
5.297200424e-16
5.384157959e-16
5.367348352e-16
5.308399918e-16
5.273412215e-16
5.513238783e-16
5.296658438e-16
5.265585716e-16
5.35580222e-16
5.201893874e-16
5.376861831e-16
5.478479287e-16
5.312243936e-16
5.398415736e-16
5.350544219e-16
5.403420284e-16
5.314770602e-16
5.448010264e-16
5.351498176e-16
5.323086435e-16
5.314486117e-16
5.282767149e-16
4.944355562e-16
4.938202571e-16
5.308401319e-16
4.498899002e-16
5.502455325e-16
4.881170702e-16
4.881790977e-16
5.324430176e-16
5.195723095e-16
5.215393074e-16
5.327431663e-16
5.302865409e-16
5.245077527e-16
5.357881045e-16
5.290067549e-16
5.486679838e-16
5.141047869e-16
5.117984558e-16
5.250966306e-16
5.222567325e-16
5.274542152e-16
5.316540254e-16
5.197278923e-16
5.302116374e-16
5.162159201e-16
5.399784518e-16
5.300991337e-16
5.326138904e-16
5.241744928e-16
5.238332923e-16
5.191329811e-16
5.521937293e-16
5.381916023e-16
5.405937082e-16
5.298616879e-16
5.182157927e-16
5.219209994e-16
5.198224826e-16
5.278637946e-16
5.410952897e-16
4.975469096e-16
4.829726143e-16
5.157638951e-16
4.663282298e-16
4.863758227e-16
4.625108312e-16
5.296685313e-16
5.078230542e-16
5.164304854e-16
5.080813372e-16
5.176629733e-16
5.281710903e-16
4.948491329e-16
5.304336674e-16
5.324375998e-16
5.144281376e-16
5.170861683e-16
5.392461605e-16
5.447475778e-16
5.049997737e-16
5.296430289e-16
5.4234271e-16
4.968164242e-16
5.269777061e-16
5.262160134e-16
5.35252415e-16
5.350758949e-16
5.322894267e-16
5.463117071e-16
5.288312394e-16
5.31343586e-16
5.24222272e-16
5.235713858e-16
5.331950564e-16
5.201281635e-16
5.17820855e-16
5.234669615e-16
5.177281131e-16
5.262316549e-16
5.084336965e-16
4.087842672e-16
5.135317795e-16
4.809785373e-16
5.33376694e-16
4.890877372e-16
5.149571695e-16
4.974266398e-16
5.142835156e-16
5.204114844e-16
5.166514638e-16
5.113002655e-16
5.300963877e-16
5.022777219e-16
4.957355146e-16
5.305808309e-16
5.106651234e-16
5.28828415e-16
5.148189709e-16
5.178251855e-16
5.451517656e-16
5.248474572e-16
5.194557037e-16
5.261498234e-16
5.28914702e-16
5.211607808e-16
5.340337645e-16
5.400505348e-16
5.307386715e-16
5.485642749e-16
5.3112737e-16
5.485605307e-16
5.200321585e-16
5.334577911e-16
5.380256121e-16
5.292610664e-16
5.221273202e-16
5.220533809e-16
5.223268448e-16
5.416909149e-16
5.248887003e-16
5.10987267e-16
4.495434274e-16
4.774031169e-16
4.782292974e-16
5.062756871e-16
5.07368809e-16
4.737963263e-16
4.963130765e-16
4.95275987e-16
5.226980777e-16
5.08689677e-16
5.184014124e-16
5.215119868e-16
5.135834534e-16
5.064004138e-16
5.233568188e-16
5.045054063e-16
4.990050198e-16
5.292864357e-16
5.486817352e-16
5.572353429e-16
5.067417861e-16
5.309033539e-16
5.12806226e-16
5.133115731e-16
5.408026255e-16
5.074687909e-16
5.258861513e-16
5.146210742e-16
5.208834136e-16
5.141264087e-16
5.236453731e-16
5.183712698e-16
5.292074969e-16
5.139730757e-16
5.280557658e-16
5.115612616e-16
5.135223073e-16
5.116745854e-16
5.311844893e-16
4.713766442e-16
5.02791484e-16
4.614371747e-16
4.859594103e-16
4.255378213e-16
5.090173096e-16
5.331937237e-16
5.105827784e-16
5.336690608e-16
5.22607352e-16
5.065991975e-16
5.231204904e-16
5.039693888e-16
5.120394738e-16
5.315737016e-16
4.989275357e-16
5.369257228e-16
5.091989127e-16
5.054016269e-16
5.339895864e-16
5.284566936e-16
5.143109422e-16
5.320455621e-16
5.099158405e-16
5.364644215e-16
5.380889019e-16
5.198799983e-16
5.329658178e-16
5.366884813e-16
5.252566841e-16
5.141699799e-16
5.349926275e-16
5.19707748e-16
5.218724338e-16
5.026475021e-16
5.223580029e-16
5.400006515e-16
5.004155695e-16
5.122934522e-16
5.070876236e-16
4.597346358e-16
5.073944562e-16
5.068613051e-16
4.106575942e-16
5.151516328e-16
4.650218567e-16
4.760115936e-16
5.057554969e-16
5.294794299e-16
5.221169517e-16
4.835717253e-16
5.080865164e-16
4.939812195e-16
5.019178712e-16
4.912239566e-16
5.180886499e-16
5.038650393e-16
5.009111208e-16
5.200374104e-16
4.973927413e-16
5.198771362e-16
5.162337434e-16
5.037648891e-16
5.24410451e-16
5.293296187e-16
5.226432579e-16
5.27130759e-16
5.236549966e-16
5.284872343e-16
5.115238529e-16
5.22117371e-16
5.128507034e-16
5.186408967e-16
5.139895257e-16
5.164260514e-16
5.159154822e-16
5.171059749e-16
5.266932831e-16
5.114374407e-16
5.103970177e-16
4.463402444e-16
4.617250252e-16
4.825353286e-16
5.013836119e-16
5.062367026e-16
4.899188472e-16
4.810212742e-16
4.607665253e-16
4.824641857e-16
5.059567244e-16
5.169424286e-16
5.325753159e-16
5.197723127e-16
5.223135481e-16
5.283395725e-16
5.036555657e-16
5.183298101e-16
5.193849327e-16
5.07408186e-16
5.100920936e-16
5.239803386e-16
5.103788767e-16
4.973569021e-16
5.09284555e-16
5.233922512e-16
5.154417987e-16
5.11431901e-16
5.017410573e-16
5.28042653e-16
5.244267005e-16
5.259676037e-16
5.110967926e-16
5.013493351e-16
5.178304483e-16
5.081892602e-16
5.333129199e-16
5.169933065e-16
5.090995663e-16
5.079322932e-16
5.191686873e-16
4.456969561e-16
4.563960356e-16
5.206292198e-16
4.12222085e-16
4.483661071e-16
4.884185892e-16
4.56415406e-16
4.970741604e-16
4.499679143e-16
5.134013085e-16
5.384711895e-16
5.002220093e-16
5.204800908e-16
4.875261626e-16
5.411285773e-16
5.343886422e-16
5.129978434e-16
5.346888641e-16
5.285939078e-16
5.157693813e-16
5.069938929e-16
4.96548931e-16
5.357983668e-16
5.167305946e-16
4.967968474e-16
5.287913305e-16
5.18351071e-16
5.108312397e-16
5.228106979e-16
5.065572741e-16
5.174215817e-16
5.089001772e-16
5.062959315e-16