/*--------------------------------*- C++ -*----------------------------------*\
| =========                 |                                                 |
| \\      /  F ield         | OpenFOAM: The Open Source CFD Toolbox           |
|  \\    /   O peration     | Version:  v1706                                 |
|   \\  /    A nd           | Web:      www.OpenFOAM.com                      |
|    \\/     M anipulation  |                                                 |
\*---------------------------------------------------------------------------*/
FoamFile
{
    version     2.0;
    format      ascii;
    class       volScalarField;
    location    "0.004";
    object      dsmcNMean_Ar;
}
// * * * * * * * * * * * * * * * * * * * * * * * * * * * * * * * * * * * * * //

dimensions      [0 0 0 0 0 0 0];


internalField   nonuniform List<scalar> 
4000
(
22.54985
22.57135
22.57835
22.6201
22.6625
22.71695
22.7474
22.766
22.81245
22.978675
23.112925
23.323175
23.51805
23.749925
23.9499
24.20225
24.531925
25.11
25.90885
26.8789
28.028525
29.54245
31.628175
34.432725
37.8999
42.34485
48.14395
54.498975
61.4061
68.96805
75.828825
83.1375
90.251125
96.9639
104.420975
114.1855
126.588475
145.007925
172.77915
222.17385
30.48345
30.48175
30.481225
30.482425
30.4994
30.513425
30.610925
30.628375
30.6688
30.813725
30.8166
30.87625
31.089925
31.283075
31.58055
32.0164
32.554925
33.12455
34.0401
35.150475
36.573425
38.666925
41.097625
44.74375
49.022125
55.012525
62.331075
71.113225
80.769625
90.862075
101.152425
110.6502
120.1346
129.494375
139.9942
153.042725
170.088825
194.8109
232.21895
298.847725
31.638325
31.641025
31.615825
31.58855
31.64395
31.615875
31.675675
31.777525
31.855
31.960925
32.0925
32.2393
32.353525
32.595325
32.843025
33.21305
33.6553
34.187
35.018225
36.057825
37.52185
39.49565
42.19905
45.580125
50.0776
55.9021
63.531725
72.653525
82.570725
93.352925
103.889475
114.125525
124.0121
133.578175
145.08485
158.47235
176.385525
202.040925
239.690425
309.8682
32.020775
32.04315
32.126125
32.213775
32.2364
32.25635
32.266675
32.311475
32.410425
32.4859
32.59685
32.6888
32.835125
32.9404
33.14895
33.503125
33.92005
34.519925
35.292
36.26685
37.782875
39.740875
42.19835
45.7397
50.363975
56.33555
63.7951
72.90085
83.206325
93.9097
104.56085
114.937025
125.05225
135.1099
146.734025
160.56175
178.586025
204.378925
242.96025
313.63495
32.304925
32.331575
32.293375
32.290325
32.357225
32.376725
32.441325
32.479
32.47735
32.57045
32.6265
32.743125
32.916875
33.09815
33.30775
33.586175
34.02455
34.673475
35.5213
36.5527
37.992075
39.906675
42.516125
45.997325
50.241325
56.120975
63.68345
72.760875
83.149875
93.76455
104.770425
114.991725
125.00805
135.325975
147.1233
160.104925
178.8283
205.199125
244.71985
314.9701
32.38185
32.41795
32.459725
32.466425
32.50455
32.466525
32.487925
32.492975
32.576525
32.668575
32.764175
32.855325
32.96885
33.17075
33.4532
33.797925
34.255025
34.861675
35.663775
36.64825
37.96535
39.886475
42.391075
45.906075
50.295425
56.192525
63.60555
72.64865
82.5036
93.424325
103.935075
114.231775
124.624525
134.811125
146.8254
160.30075
178.67545
204.438325
244.858425
315.69385
32.4657
32.499575
32.509575
32.517525
32.53725
32.6165
32.631475
32.691625
32.691875
32.739725
32.8169
32.9348
33.04985
33.230275
33.5377
33.859175
34.2881
34.874
35.654225
36.72685
38.129575
39.945775
42.396825
45.9484
50.21955
55.8907
63.164975
72.09225
81.863775
92.989075
103.6235
114.0882
124.157175
134.3938
146.2748
160.0564
178.112075
204.212925
244.001775
315.2178
32.5014
32.50675
32.5568
32.52075
32.519725
32.513675
32.564075
32.58815
32.70825
32.78955
32.91885
33.033875
33.204675
33.44045
33.66105
33.92005
34.274225
34.90575
35.6533
36.611675
38.05955
39.74635
42.279025
45.370475
49.6487
55.309475
62.589375
71.011325
81.00025
91.9751
102.6502
112.9966
123.34435
133.881475
145.592075
159.568225
177.482
203.43705
242.48795
313.0499
32.57885
32.61535
32.623625
32.663225
32.71945
32.748275
32.80595
32.8163
32.788025
32.843475
32.923175
33.033125
33.14785
33.338725
33.587575
33.968525
34.447375
34.976775
35.66045
36.6644
37.9445
39.650025
41.885375
44.8864
49.128275
54.60125
61.388675
69.868475
79.92115
90.561525
101.2235
112.0397
122.35855
133.014575
144.4657
158.5483
176.467225
202.28435
241.063525
311.4076
32.564475
32.537475
32.56525
32.5822
32.64365
32.6722
32.73305
32.805025
32.941425
33.01065
33.1227
33.23805
33.38555
33.551575
33.7159
33.9757
34.34145
34.834
35.483325
36.4042
37.605625
39.366725
41.588075
44.4982
48.64625
53.89175
60.447675
69.101475
78.706225
89.380225
100.1544
110.720775
121.296875
131.730975
143.33825
156.830275
175.19455
200.94755
239.8486
310.434325
32.616225
32.625425
32.6546
32.669925
32.6747
32.723625
32.7301
32.77705
32.81305
32.87705
32.96885
33.029275
33.1584
33.330825
33.571975
33.85765
34.3506
34.814925
35.49085
36.405525
37.596325
39.13365
41.3402
44.20485
47.993775
53.245575
59.6016
67.515175
76.929375
87.532975
98.6357
109.0279
119.741525
129.735675
142.024675
155.836675
173.96235
199.217325
238.19685
308.486875
32.679825
32.7176
32.74615
32.74995
32.8273
32.8067
32.82775
32.776125
32.823125
32.84695
32.8859
32.9452
33.1526
33.352325
33.615625
33.92345
34.305025
34.773175
35.3392
36.16685
37.430375
38.7713
40.865275
43.6723
47.2317
52.064975
58.245425
66.2246
75.4854
85.601425
96.5346
107.3318
117.974175
128.3704
140.255775
154.00495
171.8329
196.664525
235.943975
306.162625
32.64465
32.649225
32.679275
32.67835
32.662175
32.657175
32.76825
32.822975
32.89175
32.97465
33.1001
33.160575
33.2404
33.369
33.563275
33.823025
34.14775
34.6121
35.249175
35.981775
37.024175
38.5231
40.499475
43.016175
46.65685
51.440575
57.069125
64.8281
73.7609
83.87495
94.4503
105.54185
116.19225
126.7237
138.2756
151.930675
169.57075
194.143525
232.466625
302.86835
32.65325
32.64165
32.681775
32.7251
32.7957
32.79915
32.798125
32.819525
32.783275
32.830775
32.943175
33.022275
33.17235
33.312425
33.487925
33.81835
34.108025
34.4505
35.037425
35.795775
36.821175
38.272675
40.041975
42.48265
45.873325
50.1617
55.859775
63.074875
71.7133
81.859225
92.32865
103.265975
113.69155
124.4415
136.138575
149.432825
166.267225
190.810175
228.9708
298.619675
32.68595
32.727775
32.734975
32.7334
32.693175
32.717525
32.7177
32.773875
32.87705
32.92495
32.9789
33.015725
33.104425
33.2642
33.456575
33.65695
34.007625
34.436525
35.0037
35.7369
36.65505
37.8885
39.70275
41.960475
45.13195
49.23575
54.577
61.474575
69.4082
79.034625
89.98725
100.56375
110.7191
121.929125
133.274025
145.872125
163.358975
186.99535
224.78635
293.4636
32.70795
32.71955
32.68945
32.699675
32.705875
32.73
32.778375
32.801025
32.7823
32.7705
32.83325
32.9441
33.026775
33.2085
33.4081
33.587425
33.8985
34.3356
34.848575
35.5469
36.5205
37.758
39.39345
41.472625
44.182425
48.1687
53.28825
59.609875
67.609125
76.891275
87.186125
97.965975
108.386
118.968375
129.776125
142.7976
159.061675
181.86725
218.66935
285.914175
32.71565
32.762925
32.77265
32.76835
32.8005
32.834875
32.8067
32.815025
32.884425
32.90395
32.96565
33.0918
33.208025
33.257475
33.379825
33.60325
33.8842
34.24115
34.732125
35.309775
36.194525
37.292225
38.734775
40.925275
43.701925
47.259475
51.8356
57.8284
65.6429
74.804675
84.118275
94.77095
105.210825
115.65145
126.2261
138.51245
153.984375
175.9288
211.533325
277.62575
32.6791
32.650175
32.608125
32.68795
32.73055
32.7507
32.7897
32.8178
32.83385
32.897125
32.973425
33.048425
33.08815
33.2354
33.42235
33.672725
33.9262
34.2248
34.67025
35.298525
36.05875
37.04015
38.48395
40.3281
42.83605
46.21105
50.64475
56.25435
63.348275
71.695775
81.09465
91.38335
101.687475
111.569825
122.22925
133.84305
148.105025
168.466475
201.600175
266.49605
32.69605
32.696825
32.737975
32.713975
32.6993
32.7642
32.73735
32.749375
32.803625
32.83275
32.883775
32.935925
33.041525
33.17635
33.312325
33.50595
33.745875
34.11175
34.577425
35.061075
35.758925
36.771075
38.000775
39.7334
41.9503
45.0113
49.050975
54.265875
61.0043
68.830875
77.681975
87.5842
97.68215
107.50105
117.86725
128.437675
141.174125
158.8611
187.9553
248.295175
32.704125
32.738175
32.7704
32.8353
32.8526
32.837525
32.803225
32.8176
32.861325
32.9238
32.966075
33.000475
33.0512
33.118875
33.2262
33.360125
33.617975
33.93285
34.285
34.8052
35.5405
36.465325
37.58335
39.10475
41.095125
43.837775
47.547225
52.27465
58.410375
65.865725
74.4299
84.014875
93.41895
103.247525
112.670225
121.94875
132.763225
146.682
166.75205
212.5759
32.7346
32.73195
32.686775
32.672175
32.6645
32.66135
32.708975
32.79475
32.81975
32.817725
32.8555
32.9013
33.01835
33.119025
33.284975
33.477475
33.6844
33.851275
34.19605
34.724875
35.351975
36.106625
37.14195
38.525225
40.424
42.91065
46.2997
50.51865
56.1971
63.008825
70.8654
79.736875
89.247375
98.448675
106.715925
115.021975
123.8892
132.293325
139.6022
131.23825
32.6896
32.694
32.704775
32.683025
32.709875
32.7624
32.8027
32.8085
32.817
32.85715
32.87075
32.94245
33.04415
33.166675
33.258575
33.3741
33.549325
33.815425
34.17505
34.53015
35.06945
35.875
36.719325
38.1084
39.82045
42.0635
45.085675
48.84935
53.81115
59.9587
67.44755
75.683575
84.8394
93.2001
101.375125
108.266175
114.4498
118.818
118.254125
105.017
32.729375
32.762825
32.813075
32.835525
32.83535
32.81775
32.855225
32.832075
32.824625
32.9225
32.9693
33.0073
33.02955
33.094825
33.206725
33.2941
33.4884
33.72045
33.99725
34.390325
35.01145
35.67245
36.556125
37.7176
39.162375
41.154525
43.9171
47.23315
51.755725
57.360475
64.0767
71.9708
79.96805
88.206425
95.3812
101.7375
106.609075
108.556375
105.88755
95.717575
32.766025
32.7774
32.7548
32.733325
32.745875
32.75495
32.786425
32.8387
32.874375
32.836925
32.8574
32.903625
32.94475
33.001525
33.1539
33.338525
33.539
33.8124
34.084925
34.448325
34.855225
35.393175
36.216775
37.2113
38.597825
40.443225
42.850075
45.8029
49.688425
54.44055
60.635425
67.61255
75.3019
83.12765
89.6834
95.3725
99.53565
100.8793
98.262925
91.084875
32.746525
32.702775
32.775225
32.825375
32.83695
32.8312
32.78035
32.772475
32.7939
32.81045
32.872875
32.920575
33.0007
33.1134
33.14175
33.2161
33.3792
33.531075
33.8059
34.1226
34.594025
35.067475
35.7963
36.700675
37.80865
39.4489
41.54075
44.317375
47.9461
52.26515
57.482975
63.83
71.0541
78.313425
84.592725
89.9583
93.32165
94.91465
93.065025
87.625875
32.752325
32.78895
32.7248
32.710525
32.8071
32.8345
32.873375
32.870725
32.916225
32.97575
32.99755
33.039075
33.02955
33.083475
33.191825
33.2867
33.311875
33.524875
33.7889
34.04545
34.365625
34.87315
35.4376
36.2261
37.29575
38.693275
40.533575
42.78405
45.901825
49.827525
54.622875
60.2349
66.77035
73.179125
79.481825
84.8566
88.3049
89.918975
88.6992
85.047025
32.724425
32.7353
32.749975
32.763975
32.730175
32.723725
32.7406
32.77135
32.810525
32.824325
32.83115
32.871375
32.939675
32.997675
33.0567
33.18015
33.3283
33.41415
33.569975
33.88555
34.257525
34.697775
35.33645
36.042425
36.96345
38.176275
39.622525
41.7551
44.253825
47.5205
51.878
56.9072
62.4212
68.400075
74.5241
79.668175
83.139075
85.307425
85.30445
82.878375
32.704075
32.6638
32.6426
32.668625
32.6673
32.69865
32.6955
32.674175
32.702225
32.742325
32.8104
32.8574
32.88875
32.933825
33.05745
33.1646
33.34595
33.49435
33.786575
33.981275
34.242425
34.62425
35.12345
35.6813
36.46875
37.5248
38.871425
40.584425
42.877325
45.87055
49.4334
53.783675
59.10935
64.3302
69.883475
74.882
78.66755
80.980775
82.0013
80.415725
32.7464
32.7817
32.8096
32.780625
32.7847
32.757
32.7447
32.77955
32.8386
32.8575
32.8117
32.85475
32.863575
32.92865
32.971425
33.047525
33.110575
33.166425
33.356425
33.5843
33.8651
34.2414
34.644925
35.229475
35.946425
36.87075
38.1202
39.647525
41.606375
44.0426
47.115475
50.69605
55.2894
60.1231
65.442975
70.27345
74.270325
76.97385
78.449325
78.40285
32.754125
32.76
32.7963
32.809575
32.800625
32.811025
32.7815
32.789025
32.7507
32.74345
32.786775
32.842225
32.897925
32.957575
32.992825
33.031875
33.101975
33.227725
33.338625
33.539625
33.762125
34.05975
34.4356
34.997
35.6047
36.464675
37.511125
38.8573
40.5241
42.687775
45.290825
48.543
52.21415
56.644425
61.55555
66.159375
70.204275
73.178525
75.299925
75.887825
32.7006
32.69775
32.6988
32.716375
32.74485
32.786775
32.834875
32.81605
32.87035
32.861725
32.864
32.87235
32.883575
32.95955
33.00835
33.062475
33.154975
33.2618
33.374625
33.513425
33.7981
34.070775
34.372275
34.811325
35.348575
35.97785
36.769775
37.8898
39.43705
41.2094
43.41495
46.2158
49.505525
53.247325
57.763475
62.144675
65.947
69.420275
71.985975
73.092375
32.7532
32.724225
32.718625
32.73335
32.763975
32.75955
32.74775
32.795025
32.792675
32.812925
32.858825
32.88775
32.96445
32.96785
33.037575
33.07175
33.134325
33.216375
33.3127
33.479525
33.66325
33.8028
34.0788
34.401075
34.917725
35.439725
36.234625
37.209875
38.57845
40.01025
41.952525
44.390375
47.177425
50.3749
54.217775
58.156675
62.2116
65.660975
68.665925
70.490775
32.729075
32.73625
32.7317
32.6936
32.6428
32.685575
32.75295
32.78055
32.796025
32.808375
32.782425
32.794975
32.785625
32.83035
32.84845
32.948125
33.024675
33.14035
33.249575
33.34915
33.434675
33.703975
33.9282
34.28035
34.714825
35.23035
35.9091
36.779075
37.851525
39.07465
40.774375
42.746
45.08285
47.95685
51.057725
54.639875
58.40045
61.840575
64.9578
67.4166
32.716625
32.70845
32.72025
32.740675
32.72905
32.73545
32.68345
32.68025
32.696125
32.741325
32.83375
32.88625
32.95465
32.9888
33.0444
33.05035
33.0475
33.062025
33.148025
33.3028
33.445875
33.650475
33.90395
34.169275
34.50365
34.9423
35.52185
36.182625
37.0681
38.15075
39.580975
41.181825
43.14465
45.6526
48.4714
51.631225
54.854475
58.25955
61.5036
64.11745
32.749275
32.75445
32.749725
32.768375
32.84075
32.8333
32.899825
32.861625
32.864825
32.86315
32.878475
32.8822
32.876625
32.897725
32.91225
32.989425
33.065625
33.15905
33.219875
33.3431
33.511825
33.5427
33.78335
34.04175
34.40055
34.73835
35.17485
35.849725
36.56335
37.399375
38.55645
40.032025
41.726
43.7929
46.2132
48.8896
52.049825
55.123125
58.156275
61.150975
32.755875
32.772075
32.83965
32.849675
32.785875
32.77525
32.7405
32.7893
32.788525
32.790725
32.754575
32.7887
32.81275
32.838475
32.90005
32.932325
33.0127
33.000575
33.1068
33.1682
33.29695
33.47495
33.69095
33.897275
34.1429
34.421525
34.825475
35.3785
35.9916
36.785425
37.7197
38.92095
40.338675
42.171525
44.2476
46.48125
49.1949
51.96695
54.821875
57.58655
32.730525
32.742325
32.710025
32.6806
32.70585
32.69465
32.75725
32.71925
32.753875
32.8027
32.89675
32.902075
32.8845
32.901125
32.93315
32.96135
32.966
33.032075
33.068575
33.118425
33.2012
33.290625
33.414175
33.619575
33.844
34.135175
34.382675
34.79435
35.398825
36.06935
36.93165
37.8546
39.102875
40.520375
42.304875
44.330725
46.579
49.27275
51.9932
54.52885
32.718775
32.7045
32.66925
32.7023
32.7427
32.759
32.743175
32.76355
32.75735
32.735375
32.68995
32.682225
32.741425
32.8154
32.873875
32.870225
32.90025
32.943025
32.9576
33.04745
33.1018
33.180975
33.219775
33.412175
33.65885
33.8715
34.18255
34.5971
34.96425
35.561075
36.2454
37.05415
37.967375
39.27275
40.664625
42.49005
44.2615
46.636625
49.09935
51.718175
32.77275
32.77565
32.81175
32.698075
32.71665
32.6703
32.6678
32.69595
32.650675
32.694875
32.735825
32.707075
32.68555
32.70275
32.688275
32.7378
32.779425
32.7904
32.8045
32.8802
32.985875
33.0988
33.23375
33.405925
33.556975
33.76555
34.007225
34.356075
34.692925
35.1757
35.759725
36.464525
37.28565
38.330975
39.470625
40.781025
42.5713
44.474925
46.684975
48.870375
32.7515
32.7435
32.766475
32.85975
32.79395
32.79745
32.8072
32.74755
32.774525
32.812825
32.7639
32.79225
32.808525
32.801975
32.80605
32.838325
32.8216
32.87385
32.884075
32.91805
32.955375
33.050875
33.131375
33.2066
33.348075
33.582475
33.7927
33.987225
34.346675
34.658575
35.091725
35.71615
36.399375
37.243975
38.38025
39.775025
41.153075
42.6345
44.446225
46.488875
32.75535
32.74515
32.744375
32.671175
32.68935
32.7448
32.72495
32.7483
32.73475
32.67835
32.729975
32.703575
32.71625
32.740525
32.7718
32.7499
32.790025
32.823275
32.884625
32.9998
33.042025
33.1186
33.197425
33.312825
33.4227
33.586475
33.73905
33.95955
34.221425
34.569925
35.034275
35.49535
36.059175
36.790025
37.550875
38.514375
39.632075
41.18715
42.719325
44.46425
32.74985
32.74875
32.752675
32.8029
32.79275
32.7883
32.811775
32.803825
32.8055
32.84825
32.82185
32.834625
32.845275
32.80925
32.821
32.854375
32.891175
32.962375
33.000175
32.9896
33.033075
33.093875
33.11365
33.178625
33.2587
33.3923
33.550775
33.7627
34.0137
34.23185
34.6323
35.016925
35.4731
36.053825
36.75575
37.675275
38.602325
39.66375
40.9879
42.545125
32.7045
32.681675
32.651375
32.685625
32.728925
32.74435
32.743475
32.76185
32.762825
32.752575
32.7799
32.82855
32.8164
32.83845
32.869075
32.880675
32.907975
32.9317
32.896675
32.914275
32.95195
32.999
33.132425
33.231
33.343975
33.44915
33.591925
33.74835
33.970625
34.23235
34.452275
34.787175
35.21475
35.625875
36.12815
36.6936
37.596
38.60915
39.77475
41.038375
32.758225
32.754475
32.7811
32.729925
32.718575
32.7024
32.710875
32.742525
32.73905
32.76435
32.783175
32.820775
32.82135
32.834425
32.811625
32.834375
32.8389
32.866875
32.90435
32.968125
33.02125
33.109275
33.1724
33.2215
33.353925
33.4492
33.574025
33.742975
33.868975
34.08345
34.318625
34.59555
34.8946
35.277925
35.74855
36.30875
36.984775
37.709525
38.608575
39.6848
32.7702
32.799975
32.75755
32.798775
32.809175
32.810925
32.8041
32.755925
32.7469
32.764
32.752325
32.747075
32.778525
32.778225
32.7943
32.821225
32.881625
32.889275
32.97045
33.0231
33.068725
33.13035
33.139975
33.215125
33.253
33.295775
33.393575
33.5147
33.625725
33.82835
34.0445
34.273925
34.6224
34.9536
35.328975
35.74445
36.284225
37.0014
37.775075
38.66385
32.7347
32.7488
32.756975
32.712575
32.687125
32.6784
32.698
32.7272
32.746925
32.76495
32.785625
32.786225
32.748475
32.7513
32.78245
32.78695
32.850675
32.8711
32.887225
32.8562
32.8735
32.84895
32.897975
32.971075
33.05645
33.0926
33.187125
33.271575
33.3617
33.4567
33.60075
33.785725
34.0065
34.33675
34.734375
35.14005
35.6239
36.129925
36.788475
37.58595
32.732075
32.728675
32.7774
32.8161
32.831325
32.837325
32.7804
32.763525
32.7555
32.71935
32.7215
32.75265
32.812225
32.85945
32.9096
32.8753
32.8236
32.84155
32.8209
32.8155
32.8165
32.87705
32.917975
32.943925
33.014475
33.1027
33.171325
33.2751
33.37735
33.4568
33.62375
33.82765
34.059625
34.233075
34.47475
34.778325
35.11295
35.61135
36.116025
36.77165
32.757325
32.76405
32.734825
32.70835
32.7306
32.72815
32.77825
32.813875
32.892175
32.8973
32.871975
32.83475
32.807275
32.7934
32.749225
32.7921
32.799625
32.769275
32.7976
32.81215
32.8012
32.85195
32.9182
32.95595
33.020225
33.051925
33.143475
33.227275
33.340775
33.4591
33.6126
33.766225
33.855975
34.052075
34.32135
34.68915
34.962475
35.303025
35.653525
36.0518
32.76435
32.77745
32.83195
32.91675
32.93165
32.9063
32.900025
32.8684
32.85295
32.85645
32.870875
32.8531
32.856275
32.8436
32.849325
32.855775
32.830725
32.904875
32.96255
33.012975
33.066925
33.0278
33.02545
33.0149
33.008775
33.028425
33.0813
33.17
33.263475
33.3247
33.37265
33.4803
33.6825
33.9134
34.11405
34.339275
34.638275
34.906725
35.29885
35.6899
32.7369
32.758775
32.69295
32.648075
32.634725
32.6807
32.751175
32.75365
32.74935
32.74725
32.8012
32.85595
32.87865
32.879525
32.8729
32.877375
32.864375
32.82145
32.792975
32.753325
32.737925
32.803775
32.8636
32.888325
32.939675
32.9628
32.98185
33.0302
33.0726
33.174825
33.310525
33.407525
33.51985
33.61255
33.79185
33.91135
34.162025
34.425975
34.776825
35.12065
32.7472
32.735625
32.738325
32.782475
32.73315
32.73295
32.698175
32.665675
32.646075
32.68325
32.687325
32.684975
32.67255
32.67715
32.684675
32.72125
32.76575
32.820775
32.824125
32.85205
32.846625
32.824875
32.8004
32.799775
32.8282
32.8365
32.898475
32.945075
33.0098
33.0822
33.07825
33.19365
33.295925
33.3706
33.49605
33.704875
33.9392
34.183775
34.42735
34.73665
32.766825
32.7427
32.688325
32.658175
32.7011
32.6738
32.644975
32.69655
32.70655
32.6436
32.634025
32.592525
32.637125
32.67155
32.715225
32.677375
32.65385
32.6678
32.7071
32.73745
32.793025
32.812425
32.844275
32.90025
32.966175
33.03175
33.024225
33.0223
33.09265
33.1295
33.14845
33.184
33.232925
33.333325
33.42515
33.5893
33.76135
33.89955
34.0999
34.3441
32.745075
32.745425
32.803275
32.782275
32.761125
32.723175
32.75215
32.710225
32.747425
32.70805
32.70585
32.7327
32.684725
32.662525
32.6195
32.650825
32.69155
32.71775
32.719425
32.755175
32.784625
32.812975
32.856875
32.872775
32.9035
32.9192
32.96705
32.97295
32.995375
33.0011
33.091175
33.179325
33.231425
33.2955
33.417275
33.477225
33.596825
33.797275
33.981925
34.213125
32.762
32.768075
32.787575
32.7425
32.7282
32.74635
32.73355
32.771975
32.7145
32.7521
32.78435
32.76575
32.801175
32.8441
32.860075
32.906975
32.8647
32.829975
32.8529
32.82735
32.799975
32.808725
32.80015
32.8025
32.78285
32.776575
32.78555
32.835675
32.889275
32.9164
32.970775
33.0287
33.12155
33.184275
33.24605
33.35115
33.4784
33.58515
33.709925
33.892925
32.74805
32.762325
32.751925
32.78865
32.841525
32.8441
32.87085
32.854575
32.88575
32.93865
32.94985
32.931875
32.8661
32.8412
32.8249
32.809175
32.787675
32.76635
32.717025
32.74655
32.71605
32.66295
32.65845
32.656475
32.66025
32.73305
32.758425
32.819
32.895925
32.938425
32.99265
33.0349
33.067125
33.129525
33.1968
33.28465
33.30355
33.4771
33.597075
33.7701
32.778675
32.809875
32.828625
32.7736
32.77845
32.806825
32.835675
32.820475
32.805475
32.7743
32.783775
32.828975
32.848475
32.8292
32.84975
32.8057
32.7698
32.8026
32.81295
32.81095
32.82485
32.83915
32.8741
32.908775
32.963375
32.9541
32.984425
33.01775
33.020425
32.9747
33.009075
33.073325
33.0976
33.1347
33.13875
33.168
33.250225
33.30865
33.4597
33.593625
32.7257
32.673875
32.650075
32.71645
32.72615
32.708325
32.676975
32.6826
32.6543
32.63305
32.599325
32.612425
32.64565
32.65475
32.672925
32.71675
32.801575
32.852125
32.834125
32.861025
32.8717
32.924
32.938725
32.9085
32.876725
32.85935
32.8556
32.838225
32.821
32.93475
33.01185
32.999025
33.041925
33.106825
33.1275
33.1947
33.27625
33.32855
33.31995
33.349825
32.76365
32.779325
32.768875
32.74265
32.693025
32.69635
32.6878
32.69795
32.7382
32.784675
32.789925
32.791525
32.76025
32.797775
32.780925
32.76675
32.76205
32.757225
32.823825
32.7972
32.792075
32.76235
32.74165
32.764125
32.797175
32.8437
32.897375
32.9136
32.949
32.900125
32.874775
32.903775
32.944675
32.96735
33.0425
33.087325
33.1128
33.240175
33.3221
33.4069
32.7368
32.7611
32.7923
32.80915
32.809725
32.829325
32.844675
32.843925
32.80895
32.799075
32.764825
32.79825
32.817225
32.7869
32.74865
32.790875
32.75675
32.766125
32.75175
32.741375
32.79925
32.82705
32.86065
32.8499
32.884175
32.884025
32.8546
32.856225
32.844675
32.860725
32.8877
32.9037
32.97045
32.9954
32.992975
32.979925
33.052975
33.059975
33.102475
33.133275
32.73165
32.73325
32.7326
32.7052
32.7403
32.735375
32.723325
32.7458
32.73515
32.77695
32.78315
32.7746
32.765725
32.806325
32.828825
32.865025
32.890475
32.85955
32.838875
32.830825
32.8043
32.7915
32.8067
32.8335
32.8077
32.836175
32.842
32.910775
32.938025
32.97085
32.97695
32.993525
33.0091
33.007625
33.014375
33.04425
33.08845
33.150125
33.227175
33.294125
62.91825
42.438025
37.541425
35.02845
33.48025
32.20125
31.4358
30.621025
29.8024
29.322025
28.521225
27.885725
27.383225
27.10745
26.655375
26.102175
25.940725
25.540575
25.181425
24.782675
24.350575
24.277925
23.94765
23.664775
23.231625
22.72535
22.530025
22.2992
22.060475
21.895175
21.601625
21.2962
20.819575
20.446475
20.111875
19.53185
19.01695
18.492075
17.42565
15.514925
77.4009
55.6109
45.314575
39.72745
36.53645
34.51245
32.7936
31.591625
30.556225
29.5311
28.77695
28.3217
27.680525
27.0677
26.56005
26.162775
25.646125
25.2751
25.1202
24.676325
24.3057
24.27695
23.8168
23.3854
23.1045
22.641375
22.3437
22.02645
21.87775
21.57455
21.3342
21.123175
20.466275
20.0456
19.767825
19.1879
18.628175
18.0321
16.922375
15.276025
79.6503
63.71145
52.41425
45.4119
40.5596
37.3336
35.119725
33.523675
32.10645
31.032225
29.972975
29.156575
28.305675
27.6231
27.208175
26.626125
25.973875
25.696675
25.1216
24.773175
24.5825
24.24565
23.827925
23.690175
23.21125
22.7723
22.67525
22.24645
22.0098
21.83015
21.271575
20.889625
20.5946
20.27145
19.8329
19.3541
18.8465
18.1702
17.13215
15.747
80.139875
68.01955
58.048825
50.478375
45.09615
40.90545
38.175725
35.781575
33.826025
32.52635
31.277725
30.362975
29.483775
28.789525
27.9604
27.4554
26.923925
26.32385
25.89005
25.32465
24.91245
24.53715
24.142625
23.755025
23.399775
23.122575
22.896575
22.545875
22.289525
21.937925
21.554975
21.27045
21.0505
20.634475
20.14735
19.541225
19.0371
18.327225
17.49195
16.6031
79.876225
70.975725
62.124925
54.97725
49.2505
44.91295
41.294125
38.65165
36.4075
34.834175
33.2155
32.03385
31.0061
30.09945
29.15225
28.5376
28.025925
27.30955
26.650725
26.19235
25.84725
25.280825
24.6844
24.245375
23.849775
23.639525
23.32205
23.051725
22.808875
22.421175
22.0342
21.625475
21.2467
20.8238
20.488475
19.9096
19.36025
18.898675
18.163825
17.411325
79.196375
72.316225
65.1919
58.785075
53.170875
48.5538
44.79745
41.695825
39.14165
37.21035
35.3559
33.836675
32.630325
31.5734
30.493
29.701975
29.120375
28.363675
27.57535
27.075775
26.648
25.8796
25.31355
24.9164
24.6487
24.205625
23.89785
23.424925
23.1045
22.822175
22.5109
22.171675
21.59795
21.23405
20.82095
20.38885
20.00795
19.5381
18.878075
18.14595
78.555
73.287
67.481825
61.612525
56.204975
51.795025
47.91165
44.762975
41.97005
39.621
37.664675
35.93895
34.50755
33.2382
32.054225
31.053025
30.359875
29.5779
28.7591
28.15445
27.41985
26.8765
26.236275
25.801275
25.433875
25.067675
24.480125
23.970975
23.4938
23.322725
23.055725
22.72135
22.364525
21.925625
21.507825
21.02765
20.4386
19.931475
19.325125
18.7725
77.653175
73.4917
68.734
63.85355
59.208275
54.626125
50.763225
47.515675
44.5402
42.2326
40.036225
38.271275
36.60085
35.210275
33.88145
32.867775
31.803925
30.929925
30.224825
29.505475
28.73355
28.19555
27.5016
26.895675
26.40765
25.925525
25.276175
24.917775
24.490325
23.99615
23.6304
23.320525
22.919525
22.4425
22.093475
21.611
21.138375
20.601075
19.9621
19.3637
76.366375
73.513125
69.771525
65.70545
61.53225
57.565075
53.576175
50.336875
47.189075
44.627775
42.444025
40.48845
38.7428
37.063775
35.518225
34.39625
33.256825
32.2284
31.302375
30.567425
29.723825
29.129075
28.532575
27.990025
27.4664
26.907425
26.38255
25.695325
25.0959
24.74995
24.34985
24.0003
23.536425
23.089825
22.6914
22.281575
21.871075
21.3484
20.823
20.349025
75.019675
73.02
70.327825
66.75675
63.111525
59.647875
56.18575
52.92325
49.95555
47.265875
44.80875
42.770825
40.764825
39.081525
37.5539
36.106575
34.82705
33.705475
32.772675
32.060425
31.227975
30.4267
29.763875
29.0416
28.454575
27.847
27.2967
26.818775
26.33305
25.790325
25.179475
24.6756
24.30445
23.91895
23.390725
22.883625
22.488475
22.04375
21.590675
20.967925
73.287325
72.169825
70.0053
67.389875
64.278925
61.208075
58.052875
55.181925
52.244175
49.51465
47.153325
44.99435
43.112775
41.21645
39.6283
38.099375
36.755375
35.56505
34.419
33.473575
32.6064
31.7029
31.03355
30.322175
29.68985
29.0563
28.43565
27.817325
27.291375
26.712475
26.167275
25.70185
25.213425
24.743625
24.3703
23.840725
23.387625
22.958075
22.4834
21.896225
71.456475
70.9892
69.9966
67.991075
65.708675
62.816275
60.11145
57.208975
54.5545
52.074075
49.538575
47.1913
45.116575
43.3927
41.73605
40.08245
38.67415
37.439725
36.155175
34.949325
34.0283
33.326275
32.40405
31.570875
30.8852
30.2025
29.5797
28.9789
28.336325
27.91205
27.41735
26.86805
26.348225
25.8099
25.24465
24.7265
24.2308
23.830525
23.343475
22.851575
68.853875
69.401725
68.9406
67.96165
66.11745
64.1016
61.66965
59.2236
56.584625
54.1399
51.789
49.49565
47.411875
45.454175
43.721075
42.110475
40.560975
39.167975
38.0109
36.71615
35.606675
34.623625
33.854725
32.87315
32.076975
31.276225
30.65715
30.1097
29.471225
28.933125
28.41575
27.913375
27.384275
26.864525
26.340175
25.858225
25.354675
24.8245
24.2828
23.66415
66.2223
67.692375
67.78105
67.43505
66.32135
64.651
62.7318
60.467075
58.17595
55.918925
53.8605
51.6328
49.5038
47.511275
45.802425
44.0689
42.577425
41.14415
39.717825
38.5931
37.504625
36.3591
35.320825
34.4447
33.6943
32.824225
32.16655
31.4456
30.858325
30.205325
29.544925
28.924775
28.280525
27.830975
27.34155
26.757225
26.20515
25.8331
25.3357
24.78385
63.537025
65.186075
66.2335
66.35865
65.898825
64.69755
63.493325
61.8594
59.84155
57.652025
55.5281
53.623925
51.790275
49.804975
47.932825
46.2421
44.68385
43.0123
41.723675
40.341575
39.117125
38.083625
36.98665
36.1141
35.158025
34.271475
33.435675
32.70245
31.916175
31.2785
30.637825
29.99925
29.482075
28.859025
28.280125
27.815475
27.342925
26.78115
26.336675
25.83655
60.289175
62.549675
63.857375
64.870125
65.0721
64.724125
63.721275
62.488575
60.934425
59.209875
57.277975
55.364675
53.48315
51.733075
49.9076
48.2248
46.631775
45.2149
43.615725
42.325325
41.116525
39.96375
38.748425
37.645275
36.825275
35.909325
34.931125
34.11905
33.340625
32.71285
32.016375
31.39705
30.84665
30.244325
29.5468
28.937675
28.384225
27.860875
27.420325
26.858825
57.0654
59.597
61.3321
62.71405
63.599175
63.9867
63.547775
62.619725
61.641975
60.324175
58.79195
56.860425
55.103625
53.509875
51.762225
50.09315
48.472025
46.9888
45.547875
44.085175
42.80335
41.64225
40.51835
39.33895
38.23605
37.2826
36.4531
35.669425
34.8585
34.0749
33.2746
32.60615
32.011075
31.3788
30.822275
30.156125
29.535025
28.9502
28.429725
27.971
54.146775
56.596725
58.806
60.53765
61.65885
62.38925
62.814075
62.608375
61.839725
60.812175
59.6299
58.322675
56.7449
55.073825
53.574375
51.91
50.32405
48.676825
47.338725
46.008025
44.73025
43.376725
42.266825
41.227225
40.1018
38.9867
37.979875
37.0731
36.17055
35.4585
34.781875
34.04475
33.2381
32.5715
31.889425
31.317475
30.728175
30.189725
29.626025
29.03935
51.42215
53.7443
56.035325
58.1272
59.69465
60.7995
61.524175
61.926675
61.787475
61.31425
60.36055
59.241275
57.934325
56.5893
55.1691
53.67355
52.169975
50.738025
49.0474
47.675425
46.3206