/*--------------------------------*- C++ -*----------------------------------*\
| =========                 |                                                 |
| \\      /  F ield         | OpenFOAM: The Open Source CFD Toolbox           |
|  \\    /   O peration     | Version:  v1706                                 |
|   \\  /    A nd           | Web:      www.OpenFOAM.com                      |
|    \\/     M anipulation  |                                                 |
\*---------------------------------------------------------------------------*/
FoamFile
{
    version     2.0;
    format      ascii;
    class       volVectorField;
    location    "0.004";
    object      fD_Ar;
}
// * * * * * * * * * * * * * * * * * * * * * * * * * * * * * * * * * * * * * //

dimensions      [1 -1 -2 0 0 0 0];


internalField   uniform (0 0 0);

boundaryField
{
    flow
    {
        type            calculated;
        value           uniform (0 0 0);
    }
    cylinder
    {
        type            calculated;
        value           nonuniform List<vector> 
60
(
(2.930146776 -4.923981694 -0.04535887216)
(2.874161568 -4.713365575 0.01243355289)
(2.880071937 -4.592620682 -0.007971597073)
(2.804523362 -4.472772824 0.01974001967)
(2.813515046 -4.392937949 0.01016721298)
(2.714589915 -4.328025627 -0.03515745907)
(2.645098096 -4.252002425 0.0001415178192)
(2.654606451 -4.236202488 0.01545350658)
(2.651051219 -4.133253097 0.008654204672)
(2.592086768 -4.080836679 0.02534504164)
(2.583271101 -4.012668253 0.02607305063)
(2.506362039 -3.971947317 -0.007848262841)
(2.513062212 -3.896710909 -0.02674394618)
(2.474866007 -3.879694266 0.005215204005)
(2.420427321 -3.7639044 0.02576784821)
(2.462711316 -3.819910702 -0.0223907893)
(2.400392164 -3.725509505 -0.01094582603)
(2.352149187 -3.658283996 0.01893770631)
(2.352611713 -3.581807546 -0.004582730791)
(2.353110831 -3.606025336 0.00336339698)
(2.290727335 -3.485815938 -0.0144323506)
(2.265528247 -3.436429047 -0.004284400539)
(2.242150236 -3.417783788 -0.02269524277)
(2.244810918 -3.397357968 0.01151193114)
(2.243459518 -3.356404363 0.02123985604)
(2.215418887 -3.323171205 -0.003131832319)
(2.179065157 -3.278605383 -0.01361540631)
(2.201370595 -3.295924322 -0.01246171913)
(2.122835117 -3.182316898 -0.00688187508)
(2.144998771 -3.157570023 -0.02143574002)
(2.11384518 -3.11144788 -0.01293459844)
(2.11181998 -3.06119395 0.01531434059)
(2.126585631 -3.01581663 0.001685018062)
(2.121372522 -2.997902819 0.004948250776)
(2.039195313 -2.874345767 0.01285655495)
(2.091307883 -2.868422196 0.01305037245)
(2.001992474 -2.680444805 0.003698932472)
(2.056601019 -2.700884181 -0.007790160901)
(2.079810999 -2.628619793 -0.008553335216)
(2.034459039 -2.437073674 0.0102687463)
(60.86554477 0.2663769302 -0.02151918492)
(60.48244201 0.425839649 -0.006154113218)
(60.24105494 0.5225207991 0.02493421918)
(60.17273738 0.72209422 -0.03092326511)
(59.91704667 0.9972884342 -0.02814802194)
(59.86083942 1.164492176 0.009178000249)
(59.57423037 1.401950037 -0.06240666123)
(59.28719406 1.52238049 0.05828817096)
(59.1606909 1.794265964 0.1318151994)
(59.18022936 1.98062843 0.02629387026)
(58.80133942 2.395462736 0.03096103623)
(58.68837057 2.629368415 -0.03619742411)
(58.38728553 2.952737474 -0.02707790971)
(58.04761572 3.524403989 0.08801155371)
(57.71831913 3.979334177 0.03419492861)
(56.94548219 4.560868539 -0.02439958234)
(56.29240096 5.363573099 -0.01614208213)
(55.12634305 6.493041073 0.01105439661)
(53.65709371 8.020964283 0.07103448131)
(51.90172188 10.6311117 0.02804090776)
)
;
    }
    wedgeFront
    {
        type            symmetry;
    }
    wedgeBack
    {
        type            symmetry;
    }
    defaultFaces
    {
        type            empty;
    }
}


// ************************************************************************* //
