/*--------------------------------*- C++ -*----------------------------------*\
| =========                 |                                                 |
| \\      /  F ield         | OpenFOAM: The Open Source CFD Toolbox           |
|  \\    /   O peration     | Version:  v1706                                 |
|   \\  /    A nd           | Web:      www.OpenFOAM.com                      |
|    \\/     M anipulation  |                                                 |
\*---------------------------------------------------------------------------*/
FoamFile
{
    version     2.0;
    format      ascii;
    class       volVectorField;
    location    "0.004";
    object      fD_Ar;
}
// * * * * * * * * * * * * * * * * * * * * * * * * * * * * * * * * * * * * * //

dimensions      [1 -1 -2 0 0 0 0];


internalField   uniform (0 0 0);

boundaryField
{
    flow
    {
        type            calculated;
        value           uniform (0 0 0);
    }
    cylinder
    {
        type            calculated;
        value           nonuniform List<vector> 
60
(
(2.959398564 -4.937405952 0.02300558867)
(2.840827128 -4.670492863 0.01438841505)
(2.799833462 -4.622053108 0.02267147106)
(2.800406111 -4.52701779 -0.02958174057)
(2.796679261 -4.452093399 -0.007059589674)
(2.71515556 -4.336968059 -0.02574762085)
(2.693971399 -4.293943081 -0.0397909766)
(2.688729748 -4.250653467 -1.10674139e-05)
(2.624787729 -4.128877958 0.006441578376)
(2.59487239 -4.043155294 -0.008962016661)
(2.565817807 -3.992347855 -0.005657179082)
(2.573462583 -3.942519429 -0.0162654775)
(2.516036412 -3.868902 -0.003989898931)
(2.465152026 -3.852416591 0.006699620756)
(2.450141323 -3.806433913 0.0113469422)
(2.396794183 -3.699604808 -0.004697131353)
(2.402227984 -3.723835506 -0.02516085143)
(2.371361487 -3.633032821 0.01705797473)
(2.299718036 -3.57904773 0.001735925761)
(2.332432133 -3.579445243 0.002098903127)
(2.280735352 -3.498633681 0.02850194489)
(2.254668174 -3.479109387 0.03330840974)
(2.261975189 -3.464423784 0.004405616215)
(2.261309693 -3.418020928 -0.01118115807)
(2.226457611 -3.349039526 -0.008667553354)
(2.215239524 -3.321744759 0.004417979017)
(2.154381433 -3.270189902 -0.006245677145)
(2.145561648 -3.19533913 0.0006982013097)
(2.135158291 -3.17026951 0.03663012497)
(2.163557434 -3.198177422 -0.007115507161)
(2.123169539 -3.1336035 0.006531752123)
(2.145091898 -3.092440459 0.001561744434)
(2.132385185 -3.069446253 0.01723876555)
(2.094229046 -2.945305982 0.01242471632)
(2.124605277 -2.963484505 0.0002178560442)
(2.104738485 -2.855247748 0.01276873616)
(2.02717309 -2.711251775 0.006886024529)
(2.101691958 -2.706448349 -0.02245285714)
(2.074462034 -2.608947861 0.02942787295)
(2.030815429 -2.463547292 0.006793966533)
(60.44029593 0.2604843031 0.07588140157)
(60.38297407 0.3303611781 0.00063349531)
(60.16703937 0.5604117526 0.04862610373)
(60.18746784 0.6998709718 -0.03769236867)
(59.94858589 0.9287081399 0.1011975834)
(59.79183616 1.034205369 0.05991876216)
(59.77162927 1.341820893 0.003779484246)
(59.352078 1.567164103 0.03339181696)
(59.35573711 1.831945809 -0.06524021358)
(59.24386938 2.081035474 -0.1557665819)
(59.02414332 2.334903729 -0.03400310426)
(58.87101241 2.695700587 -0.04460569901)
(58.60217884 3.088650468 0.07375135236)
(58.11074602 3.487940084 0.01164199302)
(57.52641374 3.878974409 0.1117685884)
(56.8195008 4.607526679 -0.04231516985)
(56.0670304 5.384784578 -0.06570742671)
(54.95415378 6.4635278 -0.01953005441)
(53.63218865 8.06062295 0.01554183946)
(51.89067977 10.79862489 0.0105647886)
)
;
    }
    wedgeFront
    {
        type            symmetry;
    }
    wedgeBack
    {
        type            symmetry;
    }
    defaultFaces
    {
        type            empty;
    }
}


// ************************************************************************* //
