/*--------------------------------*- C++ -*----------------------------------*\
| =========                 |                                                 |
| \\      /  F ield         | OpenFOAM: The Open Source CFD Toolbox           |
|  \\    /   O peration     | Version:  v1706                                 |
|   \\  /    A nd           | Web:      www.OpenFOAM.com                      |
|    \\/     M anipulation  |                                                 |
\*---------------------------------------------------------------------------*/
FoamFile
{
    version     2.0;
    format      ascii;
    class       volScalarField;
    location    "0.004";
    object      Ma_Ar;
}
// * * * * * * * * * * * * * * * * * * * * * * * * * * * * * * * * * * * * * //

dimensions      [0 0 0 0 0 0 0];


internalField   nonuniform List<scalar> 
4000
(
5.30941469
5.26776714
5.201422362
5.149364249
5.086327886
5.034723172
4.881603075
4.754497925
4.664190233
4.434749913
4.329737401
4.121403046
3.919507443
3.771436404
3.51931826
3.26955555
3.055117696
2.766286046
2.489196621
2.210721043
1.970725535
1.738308495
1.518821413
1.295597719
1.103157449
0.9359456794
0.7851029793
0.6579998807
0.5531979978
0.4584677417
0.3850341933
0.3201355563
0.2641674844
0.2169034179
0.1710688347
0.1286362389
0.0888826114
0.05223357959
0.0276338508
0.007878964994
5.285448462
5.261125254
5.219400627
5.202166792
5.105825223
5.037754486
4.929884809
4.853869164
4.733312188
4.53123101
4.402112172
4.220839384
3.995621092
3.809038285
3.595607454
3.352132406
3.063212528
2.828112054
2.515002328
2.25095591
1.993940976
1.735525388
1.516395988
1.302925263
1.114539156
0.9329995394
0.7776389967
0.6477374527
0.5409427708
0.4518312274
0.3766571241
0.314529156
0.2619201175
0.2148265581
0.1707477443
0.1282666014
0.08988321142
0.05656802165
0.0280512495
0.01191154493
5.291739374
5.260932608
5.205605128
5.169413294
5.100296849
5.055964364
4.993209544
4.88872281
4.765394681
4.592598766
4.455015549
4.299853409
4.101240959
3.873381485
3.643869329
3.397858663
3.12215058
2.844486763
2.548465242
2.284787507
2.014033564
1.760953936
1.522594724
1.30623561
1.111333967
0.935312061
0.7772094848
0.6464727847
0.5410000341
0.4508707814
0.3763328523
0.3142885292
0.2599073991
0.2146209776
0.1717388331
0.1319201368
0.09433623315
0.06244022375
0.03758210871
0.01561975561
5.309222217
5.288293144
5.228047749
5.169854981
5.122461599
5.078183248
5.005233385
4.911861531
4.785813522
4.637822662
4.496582974
4.316634042
4.134411126
3.949143278
3.716937329
3.417537125
3.144547448
2.852741966
2.570417783
2.302381866
2.019449392
1.769575906
1.536312676
1.318819998
1.123087201
0.9450307673
0.7880555833
0.6541177452
0.5455380238
0.4566095726
0.3836745079
0.3231728576
0.268973802
0.2196347892
0.1756073385
0.1356092613
0.100591618
0.06902572884
0.04484557173
0.02176331575
5.30657073
5.259418117
5.232814
5.191277054
5.112918132
5.083090734
4.994346305
4.903294349
4.808462466
4.643149024
4.499818584
4.341964596
4.174181166
3.978638577
3.718116305
3.47112887
3.181485962
2.884778426
2.595844032
2.32918226
2.06328114
1.798288964
1.551597672
1.326251191
1.133281879
0.956031515
0.80178422
0.6673302362
0.5562128094
0.4666465033
0.3934482876
0.3306020767
0.2769174654
0.2284915228
0.1856451785
0.1456661319
0.1109162748
0.07936369697
0.05361862233
0.0272605297
5.297082662
5.259566971
5.196142735
5.172288785
5.124476334
5.070071004
4.992205217
4.898128543
4.815869831
4.704135091
4.573439727
4.406665247
4.194396337
3.979711405
3.749501043
3.484779895
3.226590519
2.933270064
2.649264516
2.363473722
2.095738911
1.824452454
1.580300732
1.349373015
1.14900331
0.968936032
0.8107002807
0.6768000089
0.5666608169
0.4757052088
0.4020099024
0.3418885311
0.2887418798
0.2405605853
0.1985483636
0.1594747079
0.1228805393
0.09130726923
0.06469457351
0.03303877419
5.294297782
5.274610053
5.231366886
5.194476244
5.130386271
5.080885118
5.004652669
4.933345856
4.83608569
4.719895555
4.600191089
4.402673981
4.209196043
3.991534629
3.749817065
3.524465084
3.252808462
2.957580791
2.666934012
2.381369707
2.114707145
1.858917499
1.615301109
1.374365911
1.174289555
0.9917381311
0.8326322046
0.6951118064
0.5810592018
0.4851925543
0.4141648758
0.3536561197
0.3007906745
0.2528468465
0.2104046451
0.1732841373
0.1389456153
0.1053014167
0.07549988948
0.03930517343
5.304976678
5.264801208
5.221510287
5.183957153
5.134876609
5.090888379
5.000781399
4.942975361
4.835135499
4.727656347
4.579511796
4.439124795
4.266842561
4.026849984
3.792228882
3.546887544
3.282533188
2.994711073
2.715283223
2.437119929
2.140923053
1.887930275
1.636385582
1.411874992
1.202013542
1.015240542
0.852056695
0.7172953923
0.6006835179
0.5049872059
0.4285899213
0.3672148469
0.3140267394
0.2673627787
0.2264001856
0.1879765278
0.1542576769
0.1216278926
0.08764011818
0.04580407643
5.295287436
5.274056357
5.236113237
5.191357076
5.149852027
5.101062042
5.023083494
4.939418545
4.860834318
4.753374827
4.602902917
4.451466869
4.276278491
4.063054237
3.857409395
3.595109398
3.314890158
3.040185531
2.752473262
2.458218232
2.181916371
1.922585267
1.67171812
1.445992011
1.225599133
1.03702859
0.8749615802
0.735118456
0.6188942472
0.5232210563
0.4465070089
0.3837318424
0.3330832389
0.2868363813
0.2440837923
0.2053908214
0.1709661057
0.1373087851
0.1010679415
0.05344275941
5.312373905
5.272024537
5.252943221
5.21312827
5.162628305
5.110901791
5.04402627
4.974863826
4.859768081
4.759541452
4.598972528
4.476739386
4.303557987
4.089390458
3.865788138
3.625831767
3.335117955
3.061529619
2.786455709
2.501556189
2.217592298
1.940315294
1.694719651
1.46746555
1.251982181
1.066520533
0.900768343
0.7535270178
0.6386198645
0.5432079038
0.4659401978
0.4041676282
0.3503929829
0.3054459436
0.2640650309
0.2250020702
0.1900977966
0.1527372427
0.1150100465
0.06169554654
5.316493537
5.28895166
5.243820391
5.219105251
5.169972534
5.116785285
5.077882944
5.001278858
4.888754235
4.780958279
4.670012659
4.518686984
4.332061092
4.109093851
3.888730978
3.663282197
3.369531785
3.105664816
2.820136411
2.53830134
2.259239491
1.999331977
1.740819605
1.506008026
1.292860161
1.093619037
0.9275167129
0.7827516061
0.6633477141
0.5660680589
0.4868771444
0.4228039281
0.3723500921
0.3274195048
0.2853686969
0.2486295173
0.2118380789
0.173528699
0.1309017502
0.06959678934
5.321535436
5.293301306
5.24922654
5.203160614
5.163539458
5.123065931
5.071904953
4.994201624
4.909628941
4.815427845
4.671804196
4.568515804
4.353694945
4.135948395
3.924104415
3.688520067
3.427349534
3.144757617
2.873304292
2.594770415
2.294333229
2.043329434
1.781701502
1.539631796
1.325596279
1.129033189
0.9613360472
0.8117459211
0.687406084
0.5897445735
0.5103426672
0.446848415
0.3959522133
0.3500105899
0.3088008531
0.270727971
0.2359992704
0.1958222375
0.14782587
0.07965071446
5.316247963
5.278937394
5.23480352
5.207388983
5.191286089
5.155146156
5.05820339
5.004759685
4.9499848
4.869509953
4.711282684
4.568476279
4.390586176
4.226799918
3.981647412
3.716518513
3.464673858
3.212068475
2.922064521
2.644056945
2.359534021
2.077250641
1.821628684
1.587014199
1.364884315
1.161632563
0.9942614713
0.8423087323
0.7182569503
0.6159154985
0.5362465726
0.4713258167
0.418200578
0.3756784054
0.3361800511
0.2971330832
0.2587407906
0.2190296962
0.1682452764
0.09113331593
5.312040802
5.303645736
5.264527397
5.23021251
5.184211081
5.154714578
5.08509227
5.019785754
4.95892281
4.851463734
4.713324027
4.602702299
4.437608603
4.261354268
4.039643939
3.773005798
3.510883612
3.263423285
2.968876498
2.686981654
2.412252707
2.127950409
1.868039545
1.63254031
1.40492301
1.208509714
1.030350545
0.876933856
0.7533233069
0.6485626625
0.5658681292
0.4992492325
0.4474421975
0.4035308552
0.3648676696
0.3277697725
0.2888713473
0.2453434342
0.189939715
0.1048793507
5.314840639
5.291619697
5.259632098
5.232820502
5.217969464
5.164997522
5.11736537
5.051414497
4.962876925
4.878347444
4.766555168
4.632378052
4.478192378
4.294467891
4.076621022
3.833652309
3.573163338
3.333028631
3.045910287
2.755938291
2.482748594
2.206957821
1.938402275
1.704931134
1.472688452
1.26376351
1.080353386
0.9234721575
0.7922754707
0.6845089924
0.5973284282
0.5316016404
0.4794823757
0.4347066328
0.3965063968
0.3611400109
0.32099584
0.2762910708
0.216078056
0.1212565853
5.314334064
5.286207905
5.277905469
5.257798355
5.21780603
5.165838086
5.124419954
5.048337879
4.984622983
4.92184697
4.803206312
4.654274713
4.515118179
4.313401559
4.132280535
3.933198343
3.680003406
3.378544458
3.111699972
2.838342706
2.55546496
2.278322272
2.014187458
1.759732992
1.531157218
1.314838137
1.127854831
0.9693157062
0.8357442917
0.7200408627
0.6343229958
0.5669978523
0.5139465279
0.4719375127
0.4355059185
0.3982692006
0.3595690274
0.3128576792
0.2474343106
0.1413363789
5.32026568
5.292056088
5.273818093
5.250330652
5.226053146
5.167160366
5.127445999
5.094068183
5.018002741
4.949217877
4.838244757
4.677423335
4.552790054
4.40385421
4.208575647
3.969668538
3.72194394
3.447943792
3.178665962
2.914578797
2.631783498
2.353074896
2.084773732
1.825940408
1.584957959
1.376909268
1.186292645
1.022076476
0.879324252
0.76495899
0.6784383066
0.6097877285
0.5558837179
0.5140457693
0.4788232044
0.4447133483
0.4066978086
0.3584031874
0.2878803864
0.1661595465
5.336133328
5.318684083
5.306300346
5.277133313
5.238571995
5.189765864
5.157143265
5.126052749
5.028707317
4.955739446
4.85907819
4.738721155
4.615035205
4.458478359
4.256132813
4.023811846
3.784020726
3.554676512
3.280579337
2.977038691
2.699352811
2.434688484
2.166007043
1.900520071
1.666095059
1.444197738
1.25034688
1.079766015
0.9331052243
0.8163238136
0.7248030125
0.6531456948
0.5993825201
0.558380863
0.5246764969
0.4936511222
0.4606189033
0.4170024513
0.3427490869
0.2012381551
5.343345633
5.313436209
5.293060651
5.273892186
5.247590874
5.193005754
5.167053305
5.105556302
5.040218215
4.951486439
4.866096728
4.776103296
4.65319234
4.467096891
4.295642998
4.087061062
3.880467281
3.622414232
3.338580272
3.078994551
2.787426404
2.503719544
2.237054386
1.976327327
1.739561175
1.52168956
1.320241067
1.143769336
0.9892421615
0.8685642051
0.7746349592
0.7017028175
0.6466538208
0.6087480919
0.5771985749
0.552617294
0.525951245
0.4924529429
0.4229979679
0.2600072859
5.325060732
5.302458464
5.292677816
5.266077297
5.251424576
5.20214516
5.184046271
5.150115191
5.072294555
4.993050043
4.907267701
4.817535594
4.672403589
4.53455634
4.343817666
4.159531188
3.947684348
3.676352157
3.428890341
3.160616745
2.874193692
2.580204524
2.318757971
2.071054995
1.827706658
1.598225385
1.388051565
1.208687427
1.05589995
0.9293644661
0.8304686832
0.7568821019
0.7043219491
0.6643260984
0.6382694445
0.6206348472
0.604255522
0.5888847963
0.5530832715
0.3963470384
5.337102342
5.306376392
5.2921785
5.281123445
5.234314068
5.204663543
5.160349668
5.124412505
5.045022583
4.977677879
4.908985835
4.823434072
4.695018497
4.560640798
4.393545211
4.204992872
3.976205128
3.761405391
3.518717701
3.236208978
2.961705819
2.688854401
2.430583871
2.161037656
1.906954353
1.676483335
1.470016427
1.289880645
1.125726923
0.996412888
0.8916736966
0.8122869413
0.7579539222
0.7223576479
0.7018124316
0.6920784125
0.6901809947
0.703383158
0.733368316
0.8077572295
5.340649922
5.319595208
5.308552894
5.284761936
5.248940926
5.223851322
5.17947731
5.155960739
5.08849479
5.008704851
4.963797663
4.873926042
4.745422477
4.594758994
4.424781662
4.270315469
4.057747783
3.866435959
3.609191775
3.332984866
3.062144937
2.774624916
2.530936484
2.248860763
2.004919773
1.777330707
1.556500338
1.371888798
1.207361887
1.07251641
0.9604185082
0.8792839879
0.8191957157
0.7858805674
0.7675579831
0.7661423493
0.7799141852
0.8146374624
0.8840774725
1.003482983
5.335790087
5.313236943
5.290185185
5.264684095
5.261778743
5.237871671
5.184630288
5.148487337
5.111910234
5.03958696
4.975584004
4.924174281
4.804701115
4.664489541
4.519709033
4.33122773
4.122905905
3.906925351
3.682189483
3.431482245
3.12890937
2.890599246
2.622868944
2.368605702
2.128735556
1.884889614
1.650638488
1.464042434
1.294007437
1.149476983
1.034882178
0.9449716755
0.8889711713
0.8533321502
0.8379172369
0.8410617428
0.8624225109
0.9092578372
0.9861578505
1.094079607
5.309163634
5.313613307
5.296270587
5.279755342
5.267785775
5.239247583
5.204717547
5.167837006
5.117053427
5.094362579
4.99227198
4.903954413
4.831326247
4.686591044
4.566361941
4.394876074
4.206930354
3.992217534
3.762522077
3.520802499
3.253023307
2.997791823
2.726941229
2.47960038
2.224392264
1.986892409
1.757064759
1.562963066
1.377723362
1.237016738
1.113813862
1.022132048
0.9561507596
0.9191018224
0.9073567805
0.91370657
0.9396545273
0.9875837357
1.057992799
1.151904531
5.341010865
5.327525407
5.29955141
5.291427902
5.269613218
5.241874893
5.224526103
5.192540006
5.135197831
5.097407651
5.031807202
4.945980735
4.868722214
4.746925667
4.604710475
4.471872169
4.292935491
4.088662536
3.845007617
3.610644258
3.348645481
3.112632798
2.845633517
2.594774727
2.345601836
2.08968211
1.866486535
1.663236414
1.47825874
1.329125097
1.20382218
1.104411279
1.03051926
0.9910132194
0.9774587014
0.9802080325
1.006745495
1.052737933
1.118977155
1.202678624
5.321729527
5.327465092
5.316019774
5.296107622
5.266942734
5.261860853
5.240878834
5.227635298
5.161383069
5.110237679
5.064026322
4.967764349
4.889683184
4.781855252
4.664838884
4.515797623
4.353657881
4.168959304
3.914150728
3.699499823
3.473896166
3.213100435
2.955139186
2.7060141
2.447015026
2.205429886
1.983833539
1.778476273
1.590553921
1.432022873
1.295929212
1.189150536
1.108243482
1.065392592
1.048558543
1.047401416
1.07077498
1.112270065
1.171889366
1.246738321
5.342418644
5.338046907
5.322164278
5.309174563
5.281251468
5.274499125
5.263080303
5.22525061
5.171287848
5.132723646
5.079378012
5.026591882
4.94535419
4.841765621
4.719181909
4.570826157
4.407550951
4.251808766
4.025503151
3.804922678
3.583662467
3.339866216
3.076944917
2.837363195
2.589293642
2.331977055
2.124408315
1.90077178
1.711779141
1.539312616
1.393448232
1.280113863
1.199009361
1.146143775
1.115715556
1.112828989
1.133065121
1.168805746
1.218726165
1.281141363
5.343993487
5.337951394
5.332064871
5.307429938
5.29081401
5.283881047
5.25825724
5.232266622
5.196972315
5.156883417
5.09178831
5.053935921
4.980712617
4.864035098
4.753655598
4.652938961
4.481044321
4.342463244
4.116680011
3.929877877
3.701956867
3.477735834
3.201581797
2.970045476
2.718675666
2.485163887
2.246740034
2.040764694
1.839615672
1.656525996
1.506814885
1.386841837
1.289751143
1.23290305
1.194921785
1.184310787
1.194790262
1.223904892
1.265327327
1.320578418
5.344459094
5.330916631
5.322289015
5.315767481
5.296191396
5.27852847
5.279857235
5.247490808
5.218486464
5.176593502
5.130315291
5.069115218
4.985646127
4.893774263
4.795456394
4.689058185
4.552379343
4.424998471
4.238684216
4.025588564
3.815458653
3.570083444
3.341682771
3.107353492
2.864019885
2.617862441
2.377420659
2.158809373
1.958552509
1.774366807
1.617775964
1.490609197
1.388545661
1.31828046
1.271818981
1.249941695
1.258547032
1.280117809
1.312041775
1.360400268
5.351345201
5.339770417
5.331036429
5.309048358
5.306910288
5.304639586
5.281541812
5.255489872
5.231983506
5.1937678
5.14174066
5.095358021
5.03570081
4.937298611
4.837187336
4.748287614
4.630708034
4.494673481
4.330154747
4.12847965
3.913122589
3.713166823
3.492727987
3.240566614
3.001661381
2.74834525
2.527799654
2.305378619
2.100959626
1.905418769
1.74703304
1.607597304
1.503677351
1.418124948
1.355437152
1.326377514
1.323826057
1.338626284
1.361783973
1.400095099
5.35569757
5.347987335
5.337229697
5.320020068
5.325226855
5.313001184
5.282398576
5.259039051
5.227392894
5.181372888
5.147939701
5.117487041
5.05366548
4.972656211
4.893702118
4.792795958
4.657711823
4.528423584
4.392661009
4.219638622
3.994582706
3.821851155
3.610347969
3.355088633
3.132125166
2.907244312
2.684646373
2.455319872
2.236155273
2.049423259
1.889460234
1.735633129
1.615170506
1.522527382
1.4500851
1.411608793
1.397195245
1.399287892
1.412643006
1.446009462
5.353733042
5.347345987
5.342220255
5.344805556
5.324804065
5.313755889
5.29056739
5.276593349
5.252352334
5.216583297
5.183028325
5.136946396
5.064614069
4.996204665
4.922487319
4.841084766
4.754477007
4.623263984
4.465489826
4.313843484
4.091723416
3.9311935
3.721530719
3.530504968
3.274097661
3.069703529
2.83670963
2.609556715
2.382963496
2.20420981
2.022909636
1.861727632
1.737057467
1.632947202
1.549390917
1.496849748
1.465631776
1.461944853
1.470225476
1.494365326
5.352966867
5.350299377
5.334113247
5.329744735
5.325426872
5.309265796
5.295485437
5.276620863
5.25673496
5.219541615
5.179875702
5.152329154
5.086036528
5.022633568
4.943954045
4.860044482
4.786893381
4.678894776
4.533144464
4.407369353
4.257053697
4.054300161
3.871357865
3.657151919
3.431592022
3.219130567
2.994487226
2.766766426
2.545803178
2.365044017
2.169684753
2.009129922
1.875132168
1.75382446
1.663486042
1.593291793
1.551533551
1.532202822
1.529179022
1.540988358
5.346047852
5.343490471
5.333152324
5.334738005
5.32777824
5.310425933
5.295483311
5.281970288
5.263879647
5.231254041
5.207645767
5.161076571
5.12175715
5.053082047
4.970396979
4.897386546
4.86532095
4.763482889
4.660523749
4.491413865
4.346463776
4.192816424
3.992365435
3.786913982
3.572475614
3.368165303
3.137266062
2.925694696
2.718824978
2.525975535
2.318409581
2.161377426
2.014542749
1.883136434
1.783155046
1.702582434
1.649061285
1.614855044
1.597507491
1.600576829
5.347860873
5.338585298
5.328454581
5.326584085
5.3269438
5.303963478
5.290248137
5.278920739
5.268855213
5.25005059
5.211767175
5.166693809
5.146105234
5.085299454
5.042661701
4.960760171
4.894258414
4.795778308
4.715322667
4.568160664
4.440718456
4.317823871
4.091637667
3.909661722
3.695121653
3.512533644
3.315063525
3.069316276
2.883387239
2.703901561
2.503051719
2.320422217
2.167119276
2.023685191
1.907847955
1.822459033
1.748259784
1.700405905
1.675317972
1.66625904
5.342825649
5.339555182
5.332639711
5.336682722
5.339519742
5.312169111
5.296772173
5.282182464
5.272770667
5.247951025
5.237258635
5.199996345
5.171343411
5.130291095
5.084138244
5.002916699
4.931467122
4.873265457
4.750607987
4.65382876
4.534715721
4.38812369
4.220487125
4.035308014
3.854393819
3.666911659
3.480108203
3.265685731
3.052038584
2.8473862
2.663328361
2.489982099
2.32921948
2.172617312
2.042637872
1.945427349
1.860308886
1.800201282
1.757938096
1.737177302
5.351419057
5.346121982
5.342758345
5.342152621
5.329925106
5.335572771
5.321128931
5.294952105
5.291259548
5.27819399
5.241514859
5.222196403
5.19690204
5.149938048
5.086946576
5.039642101
4.980135732
4.88531239
4.824981651
4.739002133
4.595612933
4.469131226
4.320666424
4.155252821
3.977024171
3.791041177
3.622339177
3.417020226
3.216890776
3.024567476
2.827531986
2.665292654
2.489652747
2.335518002
2.197182309
2.082293049
1.990257307
1.910054942
1.856013018
1.819729567
5.356486511
5.354732073
5.358540175
5.351719647
5.338510572
5.328597628
5.318227916
5.309308167
5.298177674
5.270358432
5.264375166
5.232975502
5.202973122
5.151131707
5.106568134
5.07861925
4.998633967
4.927907704
4.886873735
4.784831757
4.6815824
4.570499758
4.441155644
4.263531222
4.094971744
3.931356715
3.769263935
3.572516523
3.399171752
3.193774145
3.004310616
2.825393087
2.667865259
2.503093078
2.362509983
2.225325197
2.128889586
2.032700336
1.961927406
1.913757745
5.3500368
5.348343529
5.342497001
5.343920387
5.33274128
5.330132298
5.314402728
5.301782521
5.308163485
5.281337857
5.251027907
5.246213081
5.225273569
5.179324254
5.15642245
5.09904277
5.041169174
4.985786955
4.958083523
4.857978175
4.734057507
4.63452923
4.526309622
4.380019059
4.247387462
4.056976726
3.902153136
3.710050185
3.547405107
3.354123298
3.183760292
2.99954082
2.841811565
2.665966685
2.517763352
2.387460202
2.267085971
2.16841739
2.080276901
2.022514619
5.350904526
5.352646281
5.341641378
5.332288682
5.333478018
5.324254326
5.318058794
5.313710508
5.307679522
5.28844951
5.276561047
5.271628402
5.2368089
5.210471858
5.183454597
5.123517684
5.086040496
5.02759538
4.97747234
4.882651479
4.829564893
4.69890271
4.596077343
4.478304857
4.34057524
4.161358129
4.025311284
3.887824526
3.691962404
3.525681951
3.359583593
3.169565292
3.009666821
2.858612524
2.696773684
2.544614879
2.425099494
2.315889695
2.216874183
2.136566595
5.35714063
5.352911694
5.350066646
5.347241188
5.338571577
5.331304383
5.328381064
5.323781916
5.305880148
5.301445293
5.282845222
5.264772473
5.252026419
5.222861339
5.188664712
5.150473662
5.115002965
5.064939596
5.010469002
4.945082304
4.88201183
4.76248854
4.688166054
4.585263725
4.45182514
4.322937535
4.1735998
4.017881069
3.863501506
3.713170553
3.515552018
3.358466772
3.198823963
3.02067226
2.87612792
2.721235992
2.595153343
2.466175723
2.370339916
2.278954408
5.373608379
5.370084711
5.36467057
5.362828134
5.359339417
5.338141735
5.339660785
5.33664142
5.33069129
5.310947989
5.303139032
5.285392251
5.271664566
5.239025543
5.212897732
5.210407708
5.170950144
5.118601468
5.056301177
4.998396829
4.917395873
4.844695368
4.757385651
4.67918757
4.54850615
4.432627876
4.286022322
4.134040594
3.987103146
3.868267883
3.68023147
3.522212259
3.35962338
3.198892269
3.065261872
2.907349233
2.76285973
2.639061664
2.521347527
2.418953463
5.36501098
5.374121858
5.373665981
5.373587036
5.358373984
5.345185882
5.348931345
5.337556783
5.339060856
5.3300677
5.312670734
5.298191983
5.28810806
5.261811953
5.246909896
5.233141357
5.204873874
5.1274414
5.086422649
5.041864197
4.979750825
4.927271045
4.853372227
4.747115083
4.647773998
4.539807724
4.408046904
4.270404132
4.141693769
3.981014671
3.836818336
3.685262906
3.519486035
3.379634246
3.24575975
3.094085223
2.944601356
2.813110733
2.68014781
2.571573499
5.363523745
5.359910994
5.360673564
5.360362238
5.360012714
5.356582027
5.348537479
5.340099288
5.339736511
5.324638109
5.322753092
5.305649
5.302981214
5.275282585
5.251621254
5.240424501
5.19857038
5.143618841
5.115285433
5.074639005
5.029243732
4.967813226
4.885609854
4.808257092
4.720944226
4.631711993
4.514784017
4.378862118
4.283573561
4.129710454
4.009034193
3.866489162
3.70904887
3.566040281
3.416120211
3.280433345
3.127337836
2.99250815
2.861886473
2.742746365
5.3617821
5.365349032
5.356985334
5.357842112
5.356362843
5.353059039
5.346081587
5.331070961
5.331232355
5.323817937
5.308573026
5.307437838
5.291303443
5.279129962
5.275945831
5.265030144
5.213692678
5.182098721
5.142477865
5.121362858
5.072733765
5.021195157
4.961535503
4.879350371
4.774656113
4.720272736
4.616214821
4.491408327
4.410298412
4.27772453
4.156673362
4.027753867
3.8640787
3.72666601
3.578922671
3.45338674
3.315394134
3.171149907
3.044570953
2.915319282
5.360186563
5.357352965
5.355885274
5.350325941
5.350346103
5.357419423
5.358216901
5.352715565
5.343795789
5.328850208
5.321724636
5.316362829
5.300571233
5.296412415
5.28495639
5.265047685
5.228418939
5.185990582
5.15317087
5.153645729
5.116421844
5.074477352
5.007875281
4.93782619
4.856644514
4.795472472
4.691198873
4.584851869
4.519467827
4.399758204
4.284660809
4.158611477
4.020972526
3.893343959
3.746818378
3.612482058
3.471890664
3.355487685
3.222790221
3.085092478
5.368122357
5.363268667
5.363291533
5.363328471
5.35687566
5.352399735
5.352489129
5.347739069
5.340303626
5.328667986
5.325746971
5.312001029
5.301648625
5.296133008
5.283713626
5.252276076
5.226306054
5.211189573
5.193786399
5.167972881
5.157514391
5.112261937
5.052602057
4.980948584
4.924292566
4.861610415
4.773787201
4.687570026
4.595325538
4.52684526
4.401858217
4.281029002
4.157956373
4.05933072
3.918442622
3.777931169
3.654017169
3.509780768
3.394515868
3.267677831
5.365815224
5.366975642
5.364111444
5.363697441
5.35837593
5.354936811
5.351438482
5.340411387
5.331698997
5.322759075
5.317749618
5.317152797
5.313431823
5.306278819
5.288992359
5.267022403
5.267154799
5.254027955
5.221469511
5.201783949
5.162979859
5.126544625
5.075745656
5.041258585
4.983941324
4.931000666
4.867250973
4.771370478
4.697752949
4.620052119
4.53236166
4.403766807
4.301873462
4.196040165
4.065428672
3.927845747
3.817455066
3.684699087
3.557528771
3.435887828
5.372385803
5.365347831
5.364480916
5.357791109
5.350300622
5.352228854
5.351899704
5.349393476
5.349556702
5.337638409
5.335262041
5.329004002
5.31774586
5.314099477
5.302227931
5.300948225
5.300759749
5.277459853
5.227887619
5.207997909
5.198238578
5.151157046
5.123531181
5.096041995
5.024382923
4.991426827
4.932119446
4.868123924
4.75878223
4.698634824
4.628941009
4.53285393
4.437075402
4.325723645
4.226537059
4.104222109
3.973935812
3.864962334
3.727661978
3.623265769
5.374018099
5.36587568
5.363145686
5.364843327
5.363999876
5.363765514
5.365599919
5.359583135
5.358368178
5.35672235
5.351033999
5.338503608
5.327473496
5.32488335
5.30806069
5.299340045
5.291699562
5.274873083
5.248567263
5.239042544
5.202530702
5.179597729
5.142666385
5.128340211
5.062115432
5.026175742
4.983004896
4.918791425
4.854084144
4.778606553
4.712895245
4.627873038
4.544114583
4.454613628
4.341588986
4.25576547
4.109073691
4.013232409
3.885740854
3.772071761
5.358613195
5.364619613
5.372679104
5.36343261
5.369948247
5.368205864
5.367893697
5.366327659
5.355823133
5.353661011
5.344723772
5.344972278
5.333825255
5.32517513
5.31569658
5.304429763
5.298343177
5.275907685
5.272178009
5.253703231
5.234734351
5.210387813
5.178466072
5.158324022
5.09412728
5.056962552
5.025864078
4.959672613
4.905364851
4.841557202
4.798735384
4.714529867
4.64171753
4.587335893
4.478089564
4.399103775
4.275883414
4.147551661
4.04920426
3.926979933
5.354578581
5.353332527
5.354645523
5.354804399
5.348077714
5.34858863
5.34992663
5.347692448
5.342217592
5.346020358
5.346317484
5.331063119
5.324038539
5.3217615
5.316673221
5.316091078
5.312233055
5.291302
5.28184109
5.257779268
5.233809197
5.229422769
5.197922866
5.174959867
5.132468095
5.108282668
5.078728902
5.035090927
4.973697196
4.952442234
4.867581218
4.822175635
4.731058173
4.671000201
4.585202602
4.498591556
4.398844881
4.295584523
4.194385735
4.076051318
5.36730616
5.365744669
5.358742101
5.353893017
5.350022035
5.35098343
5.349300945
5.347686819
5.347581788
5.34849946
5.341585595
5.342561472
5.343206131
5.334803735
5.330553985
5.321714408
5.310603816
5.303268038
5.290187745
5.274571376
5.25536055
5.242759517
5.229852659
5.201585813
5.177361899
5.142821048
5.112954988
5.071845021
5.018770283
4.984452071
4.930157734
4.87569758
4.814572041
4.76902725
4.681295526
4.61123593
4.528756203
4.428245189
4.324647199
4.234327916
5.36315084
5.358542619
5.360060169
5.364126859
5.35929333
5.35328713
5.352942153
5.348934584
5.347436051
5.349340575
5.347753763
5.346027029
5.343305933
5.332860121
5.327946287
5.326438796
5.318262438
5.315692413
5.297881717
5.290321818
5.283313717
5.258272772
5.247542881
5.218383376
5.190562471
5.167332942
5.143219414
5.104083559
5.065994678
5.010543924
4.967483792
4.926230744
4.870612254
4.815238188
4.779325913
4.7117952
4.631836805
4.542201549
4.454219414
4.356600251
5.363197421
5.367342618
5.36896196
5.371181756
5.36752988
5.373800142
5.36994232
5.367094977
5.365424674
5.356827337
5.34599176
5.342870284
5.340172639
5.338250954
5.328694828
5.321492467
5.318538951
5.314980449
5.305053406
5.284447614
5.286025791
5.287836695
5.258923757
5.244216495
5.229456608
5.204167441
5.184465441
5.139857268
5.099856349
5.076927109
5.03102045
4.989852191
4.938865269
4.899606484
4.862301576
4.802575767
4.728086769
4.65852315
4.577384391
4.484162197
5.365855099
5.361867418
5.361255037
5.359177348
5.352091003
5.347356455
5.344873612
5.35193433
5.347953756
5.346346408
5.35060243
5.350065259
5.352251158
5.353157101
5.345302986
5.338908154
5.333520065
5.334731918
5.322637624
5.310445973
5.292793315
5.280576323
5.282903752
5.272305665
5.241993631
5.228136745
5.2025647
5.164760954
5.144200842
5.118600693
5.091403354
5.03533864
4.988158959
4.938920185
4.923453403
4.880152798
4.818301962
4.748480534
4.678907896
4.62277221
5.362905196
5.364752347
5.362466537
5.36005289
5.359989064
5.361052639
5.351909565
5.354438248
5.353435067
5.350250083
5.355588108
5.350578147
5.339447811
5.339988989
5.34180798
5.334095935
5.334244893
5.327036998
5.321647244
5.313374274
5.306545369
5.298464401
5.296128584
5.27836493
5.256993497
5.235421617
5.219352883
5.201304452
5.171636686
5.154624771
5.133868734
5.097963677
5.059347993
5.010180804
4.97982771
4.928270855
4.894820309
4.816077575
4.763684364
4.721001705
5.363395806
5.360541358
5.366784087
5.363814287
5.370344517
5.368558111
5.366509831
5.36141418
5.359705088
5.358549102
5.360721443
5.354640796
5.35260687
5.350535825
5.349754944
5.34775561
5.348019332
5.341486831
5.324525708
5.319735383
5.302623679
5.299883664
5.299106226
5.293717353
5.28207313
5.259593215
5.2482993
5.236582007
5.205302406
5.19859876
5.169572688
5.151674753
5.106400725
5.059469729
5.041550667
5.008897135
4.960241964
4.894098659
4.837654577
4.811234142
5.368794202
5.368004589
5.364097413
5.361660644
5.366091228
5.362102174
5.364571336
5.366480076
5.367974002
5.37048555
5.366370389
5.36130255
5.35696486
5.352151017
5.358925843
5.350734665
5.353003692
5.347747502
5.333702723
5.329578732
5.313792509
5.304409085
5.302457479
5.297335448
5.276157065
5.277531625
5.269462259
5.246224172
5.229624306
5.203049209
5.18183284
5.168055933
5.132483986
5.105542936
5.072589503
5.060866579
5.0100185
4.959449973
4.921420111
4.880666546
5.371160001
5.371611767
5.367773996
5.369475094
5.367707907
5.36552657
5.366872672
5.368034147
5.365469525
5.369404363
5.364096397
5.35936477
5.363009341
5.35859922
5.359118935
5.352671437
5.350907304
5.347626147
5.346805493
5.339839965
5.326447205
5.319445197
5.322068336
5.311255339
5.294868583
5.292863912
5.283795509
5.271072669
5.255346175
5.231072552
5.223741798
5.213357216
5.177868199
5.164036228
5.129298457
5.107211293
5.081682919
5.035087683
4.996702466
4.970777584
0.9092157387
0.7867247898
0.7153469455
0.6826098357
0.6623646843
0.6542790623
0.6391887417
0.6318738415
0.6276244484
0.6236344889
0.6221267788
0.6183274009
0.61483677
0.6091515163
0.6099339957
0.6120612877
0.6065472065
0.6117410375
0.607333988
0.607187823
0.6083502053