/*--------------------------------*- C++ -*----------------------------------*\
| =========                 |                                                 |
| \\      /  F ield         | OpenFOAM: The Open Source CFD Toolbox           |
|  \\    /   O peration     | Version:  v1706                                 |
|   \\  /    A nd           | Web:      www.OpenFOAM.com                      |
|    \\/     M anipulation  |                                                 |
\*---------------------------------------------------------------------------*/
FoamFile
{
    version     2.0;
    format      ascii;
    class       volScalarField;
    location    "0.004";
    object      Ma_Ar;
}
// * * * * * * * * * * * * * * * * * * * * * * * * * * * * * * * * * * * * * //

dimensions      [0 0 0 0 0 0 0];


internalField   nonuniform List<scalar> 
4000
(
5.297026306
5.266296922
5.172381416
5.158370067
5.125090817
5.036245906
4.97711219
4.869946939
4.691987519
4.531186876
4.423156591
4.167424504
3.95349723
3.755226614
3.534489916
3.218083926
2.997456488
2.720978886
2.478102016
2.176618095
1.952763898
1.722800678
1.508106882
1.301229349
1.110091741
0.9311723032
0.7828074105
0.6602647599
0.5515623083
0.4582648546
0.3815049926
0.3205455063
0.2642248846
0.2155540089
0.1717379431
0.1282848695
0.08933020738
0.05447454271
0.02790605218
0.008478370017
5.326039969
5.28397289
5.231549283
5.172065732
5.129418775
5.029473232
4.925824599
4.868203885
4.790351557
4.619425991
4.461960672
4.261783538
4.111210928
3.841702063
3.568846149
3.318931266
3.052875279
2.770905887
2.504072554
2.25177397
1.992309554
1.732305959
1.512689245
1.300759866
1.10551713
0.9305689201
0.7788362752
0.6489495954
0.5407820461
0.4518169043
0.3790603154
0.3162087908
0.263122955
0.2161774676
0.1725796646
0.1295413965
0.09144204802
0.0570824755
0.02907491541
0.01142265194
5.329906065
5.282141126
5.224928116
5.171361914
5.110080924
5.017393664
4.930603128
4.864673561
4.768026355
4.656301725
4.472703672
4.332225633
4.153351296
3.872847738
3.642733858
3.3627389
3.104331807
2.83568162
2.561182664
2.279642208
2.010279096
1.757905061
1.524315631
1.299373577
1.109140681
0.9343457147
0.7781687403
0.6468902985
0.5411534968
0.4522588773
0.380801867
0.3204594339
0.2664863899
0.2189358249
0.1757616921
0.1348486974
0.09680456631
0.0621581469
0.03779545069
0.01651618754
5.293567528
5.262349412
5.232223848
5.199991101
5.131978029
5.063906851
4.965754107
4.903794468
4.776719489
4.661197804
4.511781584
4.36666915
4.172672282
3.905106819
3.665085589
3.439205739
3.165473072
2.878308671
2.588882046
2.306488187
2.036529655
1.772811988
1.53635971
1.30621132
1.11644552
0.9403227741
0.7867794952
0.6553636375
0.5479952538
0.4584315469
0.3846435148
0.3217747658
0.2688424931
0.221909933
0.1790325517
0.1386859452
0.1030626884
0.07172442193
0.04667285667
0.021675501
5.292580968
5.243215113
5.220250863
5.195463212
5.15076531
5.070158452
4.974412434
4.88573154
4.78398695
4.656992254
4.502304374
4.351776622
4.138309187
3.925836899
3.700833187
3.459238042
3.174110286
2.89733953
2.601977037
2.316081759
2.036584365
1.787974527
1.551269143
1.335512685
1.127159143
0.954873297
0.7978536378
0.6643359442
0.5531173843
0.4671581395
0.3905313211
0.3309452203
0.2784002384
0.228857305
0.1882340655
0.1499865135
0.1146051373
0.08236583545
0.05636508397
0.02805072217
5.304404362
5.266123435
5.24097491
5.194469644
5.14415622
5.068624824
5.013246766
4.903599602
4.769916496
4.676471606
4.549938824
4.381080789
4.16754708
3.94537369
3.701260641
3.449745156
3.21119056
2.911070099
2.619635243
2.343929212
2.084104853
1.825702358
1.571263359
1.35585192
1.149976942
0.9678225043
0.8083571974
0.675098695
0.5677664169
0.4756895036
0.4005179231
0.3374827142
0.2853702887
0.2403266648
0.1963035422
0.1580891174
0.1251109299
0.09295774681
0.06641537578
0.03502448719
5.303630475
5.262356004
5.227004663
5.16341924
5.135300389
5.097203485
5.023370024
4.935413283
4.814211851
4.708493168
4.578914607
4.417071856
4.221191049
4.011142763
3.739324975
3.494817141
3.216259951
2.93562889
2.658797968
2.384626955
2.113077381
1.838109385
1.596350387
1.372764803
1.165377987
0.9845696921
0.823805012
0.689384766
0.5774078683
0.4864043857
0.4111657972
0.3485798055
0.2965245914
0.2504749961
0.2083404407
0.1714142556
0.1389826291
0.1066620821
0.07670498025
0.04100107209
5.297540482
5.277298821
5.244618455
5.199489724
5.151733262
5.104762251
5.040470037
4.951535998
4.836151702
4.727538064
4.585377781
4.421973186
4.232056591
4.018179978
3.78760007
3.543915256
3.260984706
2.994782468
2.698993388
2.408769817
2.142419642
1.876987545
1.634504578
1.404161995
1.193650405
1.00651067
0.843546402
0.7086067104
0.5958279025
0.5043593951
0.427876692
0.3635767466
0.3112499483
0.2661304162
0.2251851648
0.1861652085
0.1532144829
0.122547029
0.08680850012
0.04785921638
5.30613587
5.282685887
5.251621958
5.202643
5.15159809
5.096434473
5.004432782
4.930385846
4.85746408
4.709921296
4.591378114
4.442547536
4.282304965
4.059874734
3.826447634
3.602827325
3.312837447
3.030065977
2.748463665
2.463337664
2.181268108
1.904412648
1.655140295
1.428793832
1.218528104
1.032227053
0.86937606
0.7293773386
0.6154256327
0.5213700444
0.4461371973
0.3804741086
0.3275555224
0.2825182487
0.2416802378
0.2026255521
0.1690983322
0.1365796961
0.1003778028
0.05442249754
5.299569954
5.267694169
5.236704827
5.203749175
5.138404224
5.101183116
5.025876449
4.948131857
4.858627864
4.748872285
4.603693541
4.486244801
4.317024874
4.104867138
3.870276548
3.630454929
3.369972381
3.079652367
2.7970343
2.512537591
2.219320831
1.943274044
1.70102242
1.469137228
1.255155848
1.060787635
0.8948665702
0.7530091301
0.6373246922
0.539154729
0.4609043649
0.3995146336
0.3462175732
0.3013834426
0.2606310592
0.2234227927
0.1882940981
0.1526616994
0.1122546549
0.060928765
5.293913833
5.264272081
5.220488344
5.197684144
5.160808128
5.105075517
5.049170469
4.954827206
4.880297342
4.788125331
4.637554115
4.508776373
4.342702293
4.137506531
3.914628468
3.632094634
3.388398946
3.096024873
2.82853279
2.542835658
2.263518532
1.989850194
1.730821143
1.50495025
1.281842863
1.09486916
0.9271191588
0.7848907057
0.6639841307
0.5646096581
0.4854120459
0.4200394938
0.3689632517
0.3228320877
0.2818313572
0.2448687934
0.2101672247
0.172378456
0.1270029604
0.06904530475
5.310969382
5.282644239
5.240669751
5.199857243
5.159124265
5.098206823
5.05076349
4.989055562
4.884283707
4.767757888
4.644243462
4.527361181
4.364838171
4.163591188
3.926619992
3.669660419
3.408795576
3.129787942
2.87812297
2.575482727
2.304408339
2.033106283
1.77929112
1.55064261
1.326526552
1.130697435
0.9600738366
0.8112125731
0.6893023755
0.5900637296
0.5109066911
0.4466695592
0.3905858553
0.3466271226
0.3040275128
0.2686587363
0.2325835259
0.1951919432
0.1437194155
0.07909887088
5.324418674
5.296601345
5.248883135
5.21108268
5.173610964
5.116034916
5.060115092
5.00339421
4.900653008
4.826040667
4.697773054
4.539194336
4.36639811
4.188391329
3.991706889
3.756140963
3.489355701
3.193338141
2.921219574
2.638666653
2.343470823
2.079341145
1.825842492
1.579528958
1.367836449
1.169819323
0.9949615335
0.8474684001
0.7193696797
0.6178336811
0.5369853107
0.4729827856
0.41869616
0.3746969648
0.3338277949
0.2954144184
0.2568958835
0.2170134968
0.1654062441
0.09028836748
5.320225022
5.296720981
5.25565221
5.222022769
5.176935988
5.126546909
5.070258903
5.021093956
4.939724978
4.837698536
4.713056923
4.57279824
4.411197114
4.262384012
4.057330074
3.794811936
3.537559276
3.282805284
2.990241777
2.693868138
2.414893969
2.14728909
1.879298199
1.635775382
1.409221887
1.215635292
1.030670021
0.8786842841
0.7547552344
0.6486325705
0.5688903289
0.5020851698
0.4488085323
0.4037934145
0.3638964272
0.3261877738
0.2879256354
0.2425443741
0.1888963797
0.1037106044
5.323744774
5.288504196
5.252761513
5.222477047
5.195889496
5.145174995
5.115520509
5.042853901
4.981264089
4.86496528
4.7388111
4.631742435
4.468479446
4.289005068
4.107896764
3.855810468
3.571215865
3.305471231
3.016094766
2.734252302
2.45160617
2.174351413
1.926020986
1.694385204
1.466190855
1.258809841
1.081441574
0.9232603599
0.7898308663
0.6840143555
0.6012569657
0.5363940235
0.4806231116
0.4366370873
0.3978157264
0.3588255735
0.3208280126
0.2738488493
0.2147771231
0.1193601652
5.326255808
5.304445388
5.285104212
5.273823613
5.248469764
5.174100205
5.116546922
5.062425186
4.973982705
4.887119189
4.78887539
4.661799301
4.474891324
4.325912652
4.092938159
3.895561446
3.603085211
3.343723961
3.095126962
2.805386282
2.524101273
2.254216643
2.001335956
1.757395102
1.524038092
1.318279327
1.131878956
0.9691839388
0.8345304486
0.7255143055
0.6369356532
0.5715518214
0.5179063966
0.474881658
0.4342658973
0.3978256261
0.3596248144
0.3130593494
0.2452491517
0.1390842248
5.330419055
5.318871375
5.285531081
5.270960924
5.237524514
5.180517825
5.122786844
5.071306003
4.994288803
4.908248949
4.832601522
4.695802767
4.546321649
4.351370364
4.148498534
3.929032688
3.668428859
3.448157847
3.163741813
2.869631009
2.598808907
2.329081802
2.076631676
1.81335733
1.586781427
1.372996989
1.191325793
1.023775719
0.8846312343
0.7711139101
0.6791343156
0.6092254767
0.5590396416
0.5142148605
0.4784875501
0.4427732515
0.4046939381
0.3576555591
0.2869678564
0.1649243566
5.33049085
5.303774954
5.282094421
5.25739112
5.23633338
5.208341541
5.142027155
5.092836001
5.053644675
4.97286757
4.834321935
4.722275486
4.584891225
4.392938739
4.215410281
3.982959762
3.783653724
3.524760125
3.236804291
2.95989919
2.68987146
2.411071444
2.159957778
1.897595927
1.664882162
1.448270298
1.257336327
1.081746218
0.9388089886
0.8174214348
0.7245037824
0.6534102467
0.6007405919
0.5610691523
0.5283136587
0.4943130993
0.4621769216
0.4164766374
0.3404051186
0.2011490571
5.321852175
5.299816255
5.28164437
5.248838737
5.225431469
5.197112449
5.153942782
5.076946959
5.038864789
4.968153044
4.869885433
4.761466452
4.613076813
4.445390401
4.258833292
4.039560243
3.819472744
3.558386063
3.293009275
3.064055104
2.791337028
2.516794203
2.25216958
1.983097204
1.7360556
1.510672013
1.323147048
1.143724805
0.9909383145
0.8685428997
0.771573472
0.7009085614
0.6504778999
0.6098400931
0.5795397012
0.5532555612
0.5256629339
0.4910673894
0.4202615827
0.2601276128
5.325878376
5.309707547
5.290801786
5.261593187
5.251648222
5.217000234
5.169968524
5.120430385
5.076594366
4.989741183
4.915302584
4.78762611
4.656389188
4.501593236
4.314959956
4.098082106
3.869859544
3.639414091
3.413558886
3.153872438
2.889211624
2.614572299
2.319010206
2.067607094
1.825182971
1.589936552
1.394117697
1.206326686
1.056114508
0.9246741734
0.8295870586
0.7551198898
0.701184974
0.6645105964
0.638839453
0.6186756183
0.604275675
0.5895492873
0.551001759
0.3943508077
5.331783284
5.315435668
5.293791431
5.27291878
5.250933218
5.201244014
5.174573894
5.136841852
5.113302109
5.025579146
4.90499658
4.830311464
4.708939829
4.551206602
4.391614111
4.180636175
3.957489361
3.71326337
3.488306194
3.232633374
2.975146629
2.699155818
2.420643311
2.159113829
1.911978459
1.688855587
1.471866521
1.290478448
1.132196513
1.000451199
0.8953966557
0.8172423777
0.7622519947
0.7271964023
0.7035272614
0.6935833822
0.6920913846
0.7028409716
0.7301316034
0.8051205146
5.331796296
5.311026861
5.279366119
5.275228987
5.247042388
5.202178735
5.183186017
5.127912027
5.095769081
5.041001563
4.921338406
4.854611336
4.710325467
4.582313293
4.411723444
4.247760776
4.035913401
3.807920238
3.551107414
3.319559007
3.060415094
2.787006121
2.495857887
2.243396984
1.999620475
1.775934605
1.559897652
1.367142444
1.20483971
1.06966082
0.9597388519
0.880188012
0.8238083221
0.7873163338
0.7678803369
0.7648533599
0.7791671189
0.8137547492
0.8811245378
0.9980974842
5.3402642
5.319738676
5.303855188
5.283093706
5.260913252
5.221825479
5.188281542
5.158465844
5.086101008
5.057468377
4.953173819
4.853779607
4.772097278
4.641356406
4.481709959
4.300793084
4.109972514
3.886894122
3.65268655
3.417124085
3.153966811
2.883448654
2.618393002
2.338218244
2.101322193
1.864613767
1.647497655
1.454851117
1.289439443
1.146507067
1.033801131
0.9494645377
0.8887982594
0.8501961757
0.8342406634
0.8381410417
0.8584863855
0.9071143498
0.9880216265
1.092258332
5.340771311
5.325640749
5.304452913
5.294404316
5.279932726
5.250016096
5.210835434
5.153069967
5.113789427
5.064658846
4.980039545
4.915501514
4.790402462
4.686238355
4.542290928
4.370598681
4.16745939
3.958567384
3.75656442
3.530676917
3.245723816
2.986713222
2.731811348
2.455558666
2.218396725
1.975594753
1.747000839
1.557903594
1.38039358
1.233694208
1.109305126
1.020761754
0.9538534549
0.9202273898
0.9050777694
0.9109250984
0.9353768212
0.9886320991
1.060185651
1.154107423
5.355496468
5.331901596
5.311194451
5.280390179
5.26008218
5.251864835
5.224952865
5.171958349
5.146295264
5.079251986
5.015908503
4.954198972
4.822087142
4.695687708
4.571646337
4.454327198
4.242687094
4.080629378
3.831051538
3.612410757
3.351704044
3.116143765
2.853009188
2.577453062
2.328156018
2.101953251
1.867279277
1.661875595
1.479291897
1.323103285
1.195814579
1.097466601
1.031182037
0.9897065586
0.9713560051
0.9787317794
1.00559749
1.054103973
1.118362309
1.201140799
5.337388112
5.323858593
5.317775288
5.286452602
5.272746593
5.260023862
5.23668541
5.20242029
5.138838473
5.099677626
5.048989653
4.964680817
4.857005154
4.745702427
4.626796249
4.495893116
4.33772484
4.131440533
3.932410692
3.704944073
3.471721784
3.225271391
2.976551455
2.707512172
2.444247942
2.220634617
1.987634363
1.779430494
1.591986467
1.426206885
1.290670936
1.185763348
1.112237476
1.065011448
1.043862899
1.045136256
1.070987228
1.11006882
1.172021269
1.243458514
5.334687531
5.317779762
5.304624904
5.28888379
5.27151687
5.260120027
5.230980984
5.206328862
5.157985365
5.127397375
5.0668071
4.996563925
4.888313603
4.784408498
4.686805507
4.551164137
4.406659204
4.20157079
4.011157557
3.785905423
3.588940786
3.337928404
3.099853869
2.818232193
2.593208779
2.342716897
2.103180026
1.894415939
1.697912108
1.52791256
1.387122368
1.276320282
1.196051042
1.143103637
1.11634914
1.114655145
1.13156578
1.167161304
1.2168322
1.284050606
5.342591673
5.334572805
5.323138242
5.313826047
5.290881607
5.269730208
5.260612167
5.220024906
5.183913455
5.144596338
5.10256389
5.021383701
4.966738113
4.832883691
4.750930164
4.608838996
4.473324349
4.29211101
4.099931722
3.896639254
3.69551193
3.458406304
3.211812863
2.94598626
2.691348552
2.475834459
2.227826571
2.020959848
1.822784899
1.642948378
1.502353141
1.380582912
1.28819737
1.225991364
1.192621636
1.183886903
1.193036337
1.220864136
1.266267257
1.322815141
5.338504462
5.338520169
5.333724156
5.320842039
5.289772958
5.28127335
5.261147638
5.234717021
5.206956356
5.170223352
5.124934061
5.075653241
4.986887614
4.885612721
4.795999731
4.643898634
4.536834044
4.388556859
4.187465489
4.016620746
3.811109377
3.586152839
3.343357737
3.091543955
2.834853767
2.614969444
2.370222232
2.145179585
1.936811976
1.762099777
1.609352558
1.483957661
1.386095581
1.311396806
1.269584444
1.250380335
1.254915625
1.273189433
1.311013418
1.356829689
5.347516139
5.334612073
5.330797643
5.316270839
5.294953441
5.272694923
5.26458851
5.253413869
5.213245272
5.183900207
5.150909259
5.075391361
5.023527377
4.921372591
4.79976236
4.711606379
4.61194587
4.476078277
4.287532536
4.112939012
3.908287175
3.704735956
3.485857804
3.233194582
2.997233029
2.760015401
2.516932871
2.29521801
2.077510438
1.899544525
1.745207838
1.605415486
1.493979621
1.411528923
1.356685525
1.325909503
1.319986329
1.331743884
1.358177914
1.397792147
5.344695943
5.335868496
5.327543567
5.320699472
5.315924768
5.294523465
5.279621828
5.25042335
5.227964286
5.212881527
5.177762316
5.11976211
5.032786679
4.981229185
4.877486557
4.781678996
4.671002279
4.546026444
4.367405474
4.227533921
3.996149615
3.813497216
3.601468749
3.365134833
3.128466388
2.895085002
2.665607895
2.445173566
2.231913106
2.045831685
1.869832477
1.732101074
1.609323209
1.515326303
1.449145943
1.40818699
1.392138168
1.389936041
1.412176357
1.440050369
5.349863725
5.343605825
5.332701901
5.315273869
5.320496791
5.300566344
5.272801457
5.26626991
5.244146327
5.231857052
5.170516839
5.127714629
5.072558629
5.002373631
4.899264237
4.805786908
4.715584299
4.599622184
4.45747988
4.31312344
4.120046829
3.92547035
3.728240065
3.495408446
3.264854619
3.046063981
2.808930821
2.589884437
2.37388579
2.183245428
2.021899108
1.867394575
1.728728805
1.630078354
1.547765905
1.494350576
1.464069615
1.45960754
1.468460819
1.487054207
5.353138431
5.338676253
5.333105215
5.324794219
5.324549627
5.30968421
5.28518658
5.268635665
5.253712028
5.223998965
5.186033922
5.156257242
5.112561834
5.048051057
4.952594678
4.866987663
4.769380343
4.685017354
4.559368226
4.415472769
4.231090747
4.048267432
3.845964286
3.636685231
3.409013635
3.186726537
2.970108357
2.767445892
2.548802901
2.347428113
2.17624778
2.011468782
1.864677307
1.752652633
1.653511802
1.58940721
1.552471657
1.530763932
1.526178611
1.537515571
5.351344659
5.346670938
5.333179321
5.32846194
5.315179168
5.310292916
5.294853566
5.278741797
5.24502791
5.206124984
5.201730651
5.188635494
5.132917934
5.079191983
4.979643132
4.922188911
4.861809353
4.739351329
4.614548533
4.497500282
4.341747262
4.132592908
3.971267315
3.77088518
3.549497838
3.347460817
3.139072578
2.918038239
2.705576015
2.51399315
2.332992954
2.158705982
2.013148893
1.87889542
1.78370775
1.700522766
1.643246317
1.614192609
1.599701662
1.594592161
5.350339701
5.337805131
5.33209368
5.322731411
5.322625874
5.329676775
5.31752172
5.290263917
5.271524517
5.248114653
5.223765893
5.185717842
5.154945392
5.072889328
5.013431905
4.967612432
4.904943238
4.816547836
4.708445816
4.576812591
4.432954248
4.245115621
4.097107566
3.892664928
3.669934766
3.48587013
3.286856824
3.080756515
2.873339328
2.67840648
2.491267458
2.32071134
2.148623866
2.012310418
1.908381602
1.819481748
1.746533956
1.703600958
1.675641599
1.663953522
5.362099147
5.342598226
5.341898474
5.335888499
5.328478171
5.32169245
5.31445272
5.300607047
5.289836317
5.267134754
5.219824666
5.192909311
5.172109665
5.102860492
5.045955286
4.988469533
4.933704873
4.856270754
4.768365946
4.643321853
4.525726289
4.337290047
4.199983212
4.028182685
3.839498074
3.626516857
3.447807791
3.239054011
3.046673523
2.855017256
2.652436185
2.490776318
2.318917267
2.165002544
2.051633195
1.944172029
1.863519462
1.802714686
1.763359848
1.740005151
5.362307965
5.355481234
5.34998499
5.343647428
5.344241074
5.319243769
5.320872535
5.299762169
5.283165954
5.268987165
5.217992928
5.191938584
5.157268417
5.133605301
5.093235775
5.024760685
4.989195096
4.905779705
4.815925797
4.69065865
4.591773758
4.451795877
4.320742296
4.151942189
3.971225199
3.79618265
3.601186011
3.4119456
3.20699831
3.018635614
2.82369187
2.65468805
2.477096397
2.32525046
2.191531261
2.078859121
1.988469965
1.921454072
1.858926513
1.820940921
5.358091597
5.354170422
5.3512399
5.345256156
5.334010827
5.325488943
5.313952463
5.304065431
5.280631963
5.272630241
5.247201386
5.217623749
5.195972764
5.169395168
5.117199329
5.075620283
5.021370022
4.940739427
4.864550346
4.754650131
4.665281848
4.55733797
4.436249255
4.295373437
4.094590894
3.945251927
3.752021826
3.565174035
3.394249593
3.182981596
3.003560123
2.819069559
2.665631208
2.491942144
2.352705612
2.224523008
2.129035095
2.039813457
1.964851372
1.914285546
5.353128569
5.347862508
5.33956665
5.333607733
5.330158834
5.329019965
5.312719266
5.297478421
5.28985392
5.26122028
5.248756983
5.231691445
5.200994158
5.189406164
5.136792007
5.094126568
5.067350394
4.986964282
4.915198998
4.832348163
4.735887571
4.625501139
4.501224281
4.376901283
4.2025686
4.073052456
3.887769324
3.708961563
3.54088205
3.360781192
3.181680902
3.011265237
2.839204061
2.663908391
2.51839274
2.378613002
2.267737482
2.171165748
2.083948169
2.022045813
5.352161977
5.345222773
5.336411091
5.339837686
5.330937577
5.331221562
5.322833137
5.321587848
5.30866228
5.283488749
5.274967301
5.231813315
5.227226739
5.20604194
5.16173871
5.114430953
5.098254568
5.019257333
4.964655024
4.887494708
4.80674896
4.725276691
4.606563494
4.481367432
4.312703905
4.194744135
4.029142435
3.857326252
3.697013916
3.540007903
3.334925548
3.183746527
3.024764692
2.857093341
2.701839926
2.553313616
2.430851497
2.314171491
2.215513294
2.148008221
5.360612539
5.354465276
5.351481797
5.347299007
5.34737106
5.33270916
5.327721527
5.32807135
5.313309951
5.297853506
5.268165796
5.262167173
5.24607467
5.242870074
5.193399862
5.161564731
5.129222322
5.070405135
5.023970679
4.960724425
4.880022213
4.76681002
4.670159936
4.564866888
4.439035582
4.315962345
4.176496954
4.00951962
3.842794922
3.686570811
3.500517299
3.354151792
3.193601451
3.03279464
2.859065791
2.720515595
2.601845629
2.469640907
2.368126146
2.281755492
5.34771853
5.345833681
5.34862616
5.338036158
5.336287086
5.331769214
5.339463575
5.325596651
5.318136185
5.311718605
5.285770829
5.266423556
5.257869466
5.224956288
5.197110929
5.19875331
5.163072389
5.10391956
5.066138204
5.018977838
4.919290777
4.827719248
4.756150845
4.663294342
4.555201497
4.43547251
4.30628791
4.165080674
4.019954768
3.847614045
3.66678756
3.522133622
3.376599528
3.21318254
3.050740441
2.900616972
2.757470035
2.636076869
2.520479116
2.412933824
5.353763411
5.35219849
5.352213032
5.347493337
5.341892568
5.346030219
5.33781085
5.322665656
5.321761577
5.30723477
5.293801843
5.281006989
5.26963346
5.246703737
5.236166108
5.232681988
5.192483682
5.142508193
5.105755536
5.039504929
4.985268799
4.899521
4.830762335
4.731773174
4.655253103
4.534189899
4.419568001
4.285327199
4.158990922
4.004467325
3.832182357
3.681016304
3.525921677
3.394404694
3.216370685
3.078039146
2.935142018
2.799417863
2.676976253
2.576881503
5.362705876
5.365649139
5.361308388
5.362281697
5.358236154
5.355944303
5.356710767
5.349351905
5.333953137
5.329266904
5.312203668
5.302950217
5.289325671
5.26843355
5.258258159
5.245286476
5.1992549
5.157756799
5.132839702
5.087512912
5.029533026
4.969977528
4.900025025
4.813557831
4.719138978
4.612859382
4.522983034
4.406015643
4.283651119
4.158500617
4.009041755
3.845229113
3.692728785
3.553868539
3.391254624
3.255003922
3.115673915
2.977076437
2.844214385
2.740209977
5.36894549
5.368267113
5.368568387
5.370334835
5.362442696
5.357521616
5.355563726
5.349635453
5.349383247
5.338095079
5.321134836
5.325783534
5.295405222
5.279883764
5.267458245
5.260587287
5.236120136
5.197560368
5.168874834
5.105836618
5.067048116
5.02647496
4.96943451
4.883926174
4.798084643
4.708634316
4.61270812
4.519612256
4.407011935
4.277574944
4.13751344
4.006406653
3.863105774
3.736973825
3.580627736
3.426498167
3.300907505
3.162480596
3.03013078
2.906559751
5.372085084
5.366416601
5.362441737
5.362806859
5.363057317
5.354852607
5.347317671
5.344981299
5.342121038
5.331911447
5.323711055
5.307011841
5.304685992
5.279685841
5.273481807
5.263031912
5.252345129
5.224537764
5.187288856
5.127691346
5.093942495
5.065286515
5.016356577
4.935177306
4.856987433
4.795862308
4.711321943
4.626022936
4.511996713
4.411415718
4.271837188
4.174204413
4.032494189
3.885614805
3.736162117
3.597992831
3.470938404
3.336319864
3.212125703
3.078179155
5.366808849
5.363541554
5.362090284
5.3618967
5.35633217
5.359490706
5.354665524
5.350563611
5.338822215
5.338458464
5.326616491
5.316507907
5.30067908
5.293397698
5.281139237
5.274459596
5.249876556
5.224148402
5.199577427
5.151191779
5.124291942
5.09230337
5.049929053
4.988198124
4.91928417
4.878016721
4.819819372
4.718072115
4.603005573
4.506366291
4.378718232
4.292142879
4.162318961
4.04312739
3.916757611
3.777576811
3.626443026
3.508364544
3.404312203
3.255945586
5.359935279
5.365058876
5.361752688
5.361578195
5.3617659
5.363374191
5.358226408
5.342870227
5.34133163
5.327212323
5.328449489
5.315761232
5.304024451
5.30637308
5.297925457
5.273423974
5.260129894
5.247187521
5.213429613
5.178303265
5.157472626
5.122824061
5.105916882
5.051775931
4.977453557
4.932875228
4.873842006
4.779905738
4.712280903
4.607216917
4.531670923
4.427015733
4.307844694
4.194902005
4.083668698
3.943289833
3.796007977
3.68860588
3.56816064
3.448215434
5.368173471
5.36749136
5.367431771
5.368978719
5.368062143
5.359973374
5.356730495
5.368552295
5.356304589
5.35168397
5.350151311
5.330025774
5.326578179
5.323338729
5.30802261
5.30295283
5.285945863
5.261994664
5.250468994
5.21608088
5.16578602
5.163147205
5.142316107
5.081905428
5.03669138
4.979827169
4.921943998
4.841657105
4.786052568
4.694820733
4.622855888
4.531883588
4.414302395
4.338013846
4.22204342
4.09337591
3.967252524
3.850172673
3.741435082
3.609962038
5.372212887
5.370278828
5.370049985
5.370027326
5.375326149
5.370212916
5.360685525
5.356010973
5.352994346
5.355022675
5.347745102
5.335936313
5.33084861
5.328912985
5.307503827
5.308281033
5.278125953
5.259195415
5.266183016
5.241739182
5.191293756
5.188045909
5.159317244
5.123591505
5.076911057
5.01784726
4.985608289
4.907231032
4.855562323
4.794450717
4.718693514
4.625266293
4.53599382
4.425230735
4.343129472
4.232657236
4.105070685
4.002468787
3.892899014
3.780884823
5.372176725
5.372234686
5.369780628
5.367599731
5.363167417
5.3611402
5.349465017
5.354128965
5.350781201
5.353380908
5.349568823
5.348614468
5.329894565
5.326276498
5.313739585
5.318514065
5.302006585
5.283725718
5.283232525
5.260023759
5.227090151
5.208305235
5.172471847
5.146088667
5.122780445
5.079248947
5.046407649
4.965813654
4.921043926
4.863271957
4.823360076
4.73427947
4.648306031
4.566918771
4.474609879
4.370619958
4.25806823
4.160969428
4.056409183
3.94122945
5.358218851
5.355790336
5.362477939
5.360198312
5.366280771
5.364452901
5.357101499
5.358094734
5.357113154
5.356841508
5.352492359
5.353899496
5.346318886
5.327357794
5.329249778
5.315635862
5.302358332
5.285661938
5.278759338
5.258742309
5.236744556
5.225115769
5.192410312
5.179123144
5.15624662
5.116669498
5.076560089
5.03381142
4.980415829
4.915230445
4.873801984
4.827451627
4.747639942
4.650043077
4.561162643
4.500870669
4.390788877
4.302370298
4.189905469
4.095284957
5.374248829
5.375838552
5.371842632
5.366157519
5.361803386
5.360350378
5.356325722
5.356899378
5.359537946
5.355278362
5.347619285
5.34714567
5.343916322
5.334820126
5.330865289
5.331531111
5.326361942
5.312992793
5.297668302
5.282963221
5.256308781
5.250071313
5.217375814
5.214009974
5.190495941
5.168733133
5.115781374
5.071704184
5.049969096
4.966445647
4.937665842
4.88499554
4.848673961
4.746028924
4.680093399
4.602434064
4.519403887
4.44014302
4.348395399
4.246538731
5.36951353
5.36382698
5.366693974
5.367367383
5.364910517
5.361949153
5.350930357
5.345319106
5.347732018
5.343407252
5.350486364
5.345523148
5.344842893
5.340890283
5.341709673
5.337965443
5.320548268
5.304625143
5.291794556
5.27613759
5.266758987
5.25930615
5.23486118
5.221250983
5.195768815
5.179870754
5.159348582
5.10882675
5.066473226
5.028733816
5.000036955
4.946869415
4.886632154
4.798892265
4.752452517
4.684067535
4.609207012
4.557912767
4.486794952
4.370639656
5.366146251
5.363728942
5.361839006
5.358698812
5.36135585
5.361640775
5.358967053
5.357586517
5.354359517
5.346251353
5.343683289
5.337391275
5.340637938
5.335384294
5.33094253
5.328672142
5.317391302
5.314195547
5.30502413
5.29443842
5.285700956
5.278438636
5.262772817
5.236500239
5.222569091
5.197105955
5.184353756
5.16244544
5.119272583
5.078100364
5.048578097
5.007780136
4.960571748
4.900957517
4.831483884
4.769996361
4.712074535
4.657029579
4.597503061
4.499336505
5.35612694
5.360507828
5.362018018
5.365274554
5.364287713
5.365779131
5.361642793
5.35760525
5.360261788
5.354420855
5.355253411
5.361496142
5.351069842
5.352506471
5.33809506
5.343756692
5.342782111
5.334367943
5.32714358
5.319715753
5.307333281
5.301839203
5.283017203
5.25399945
5.235451937
5.224626578
5.206944731
5.182023233
5.153226861
5.121296217
5.088868941
5.047568306
5.00965769
4.962416964
4.926699355
4.857784874
4.793258278
4.74437291
4.686800635
4.630133959
5.368120139
5.363203745
5.356621521
5.357243965
5.362096063
5.361482407
5.364816781
5.371690692
5.368152234
5.365902531
5.361748654
5.352628228
5.35842604
5.363031219
5.359844731
5.351906505
5.344285797
5.332478907
5.32447476
5.32444618
5.315933919
5.300122702
5.296253434
5.277219021
5.25760921
5.235275914
5.222830172
5.197031369
5.187012854
5.164408661
5.141297478
5.103966321
5.054113493
5.022297557
4.986229489
4.942634998
4.872340176
4.819420221
4.763139528
4.707721106
5.369266177
5.369651289
5.37094546
5.369335132
5.366301683
5.365310163
5.363961119
5.361769347
5.35958013
5.361605181
5.360463911
5.362395659
5.361372663
5.356422836
5.353093242
5.346971977
5.348928524
5.333408409
5.334168366
5.339942059
5.328777792
5.321210919
5.317951052
5.284754301
5.289427933
5.268136385
5.254081617
5.24952808
5.217083664
5.188748406
5.155412037
5.133134334
5.099741702
5.062709503
5.02336738
5.001635795
4.928588286
4.893744396
4.844228934
4.792522365
5.368781405
5.371632466
5.367346132
5.369013466
5.365464796
5.365627858
5.368548296
5.36416593
5.361916856
5.36153973
5.3634291
5.355345085
5.352618181
5.361212983
5.36344565
5.354013597
5.348308177
5.339252538
5.340198164
5.335493675
5.32468301
5.320198496
5.321945518
5.307649366
5.295202011
5.278627659
5.269708565
5.245422496
5.224975196
5.21956133
5.195214942
5.172863458
5.138410559
5.103714637
5.078364762
5.067237401
4.994403284
4.967595501
4.925399434
4.866888307
5.368792169
5.364977156
5.362394071
5.359802513
5.360773858
5.364402786
5.36210926
5.358618455
5.356836239
5.357301333
5.356057399
5.355384329
5.349534842
5.349337671
5.353462612
5.352098334
5.349906765
5.338889217
5.338164025
5.331348578
5.323760708
5.317447146
5.31236492
5.306068529
5.306165482
5.28622648
5.27818392
5.273063928
5.245099765
5.237117841
5.227523368
5.206497394
5.174355774
5.154348247
5.137424345
5.109829402
5.06809619
5.02863107
5.020327263
4.963652467
0.9048614842
0.7835668259
0.7177470488
0.6878293272
0.6679953125
0.6530831459
0.6446460496
0.6299720846
0.6272106264
0.6248833888
0.6213604163
0.6170344527
0.6147848293
0.6119981431
0.6142360637
0.6093239541
0.6126529852
0.6088450678
0.6088426676
0.6031661275
0.6018608141