/*--------------------------------*- C++ -*----------------------------------*\
| =========                 |                                                 |
| \\      /  F ield         | OpenFOAM: The Open Source CFD Toolbox           |
|  \\    /   O peration     | Version:  v1706                                 |
|   \\  /    A nd           | Web:      www.OpenFOAM.com                      |
|    \\/     M anipulation  |                                                 |
\*---------------------------------------------------------------------------*/
FoamFile
{
    version     2.0;
    format      ascii;
    class       volScalarField;
    location    "0.004";
    object      mct_Ar;
}
// * * * * * * * * * * * * * * * * * * * * * * * * * * * * * * * * * * * * * //

dimensions      [0 0 1 0 0 0 0];


internalField   nonuniform List<scalar> 
4000
(
4.099181098e-06
4.089021863e-06
4.063873802e-06
4.072197397e-06
4.075379198e-06
4.038280586e-06
4.015644729e-06
3.969277228e-06
3.892653676e-06
3.831975366e-06
3.775278405e-06
3.660161632e-06
3.554957803e-06
3.458061673e-06
3.359113355e-06
3.206800695e-06
3.090922953e-06
2.940180244e-06
2.802332383e-06
2.606732234e-06
2.439094782e-06
2.248284838e-06
2.058389196e-06
1.850796095e-06
1.650233261e-06
1.444393995e-06
1.268031443e-06
1.118929038e-06
9.801370903e-07
8.725437498e-07
7.884948358e-07
7.23305786e-07
6.688415749e-07
6.254935646e-07
5.875750406e-07
5.446186519e-07
4.982382027e-07
4.469262152e-07
3.86817527e-07
3.146817825e-07
4.103059162e-06
4.086896598e-06
4.070992843e-06
4.050346741e-06
4.034551276e-06
4.002936763e-06
3.963939578e-06
3.951131793e-06
3.925233457e-06
3.859458177e-06
3.807036091e-06
3.738461308e-06
3.684223732e-06
3.576805113e-06
3.456291875e-06
3.332978796e-06
3.20055076e-06
3.041678594e-06
2.882346148e-06
2.721404768e-06
2.536529817e-06
2.333922449e-06
2.137995764e-06
1.925525451e-06
1.710305741e-06
1.503957106e-06
1.312646972e-06
1.143722445e-06
1.00384115e-06
8.903199102e-07
8.044369865e-07
7.357371463e-07
6.817728917e-07
6.347710612e-07
5.934764911e-07
5.505118665e-07
5.025807175e-07
4.496039797e-07
3.875485952e-07
3.156213733e-07
4.107760107e-06
4.089083735e-06
4.063268592e-06
4.044847289e-06
4.021734425e-06
3.991582409e-06
3.96129658e-06
3.937671421e-06
3.911459465e-06
3.873407736e-06
3.802883455e-06
3.746133732e-06
3.676223186e-06
3.565965413e-06
3.474598381e-06
3.352354377e-06
3.229171399e-06
3.089704811e-06
2.928002773e-06
2.748598547e-06
2.559378145e-06
2.361760567e-06
2.159903594e-06
1.9386444e-06
1.730574817e-06
1.527470465e-06
1.327436435e-06
1.156217394e-06
1.017234606e-06
8.995706442e-07
8.093144701e-07
7.428258022e-07
6.863903364e-07
6.378738221e-07
5.956104685e-07
5.53249496e-07
5.039540588e-07
4.499847156e-07
3.890430335e-07
3.167435325e-07
4.09169315e-06
4.083931071e-06
4.079642305e-06
4.071162416e-06
4.04428241e-06
4.016334287e-06
3.979669459e-06
3.960009918e-06
3.910593876e-06
3.872872579e-06
3.821769378e-06
3.76767034e-06
3.696149076e-06
3.588293945e-06
3.480151834e-06
3.37548266e-06
3.244854048e-06
3.099899986e-06
2.94363466e-06
2.772152129e-06
2.587904233e-06
2.382562944e-06
2.172777326e-06
1.951253405e-06
1.750703704e-06
1.540328728e-06
1.3436187e-06
1.168412795e-06
1.024623365e-06
9.097008013e-07
8.163717206e-07
7.455130997e-07
6.891678843e-07
6.411126686e-07
5.979829981e-07
5.542329576e-07
5.046659505e-07
4.520649133e-07
3.899631349e-07
3.172744417e-07
4.094425087e-06
4.081413402e-06
4.071561513e-06
4.055155109e-06
4.041869531e-06
4.021427948e-06
3.993829567e-06
3.962811473e-06
3.92778398e-06
3.880560714e-06
3.823674026e-06
3.773372837e-06
3.686029737e-06
3.595356867e-06
3.502110036e-06
3.399784697e-06
3.270683899e-06
3.129131488e-06
2.961287528e-06
2.781409556e-06
2.589719696e-06
2.402530385e-06
2.195934565e-06
1.982915956e-06
1.757654741e-06
1.554686941e-06
1.356582737e-06
1.177328632e-06
1.032017769e-06
9.192591462e-07
8.234248579e-07
7.503322579e-07
6.936026923e-07
6.448376465e-07
5.996676501e-07
5.552977513e-07
5.056970332e-07
4.521303061e-07
3.915902727e-07
3.190000479e-07
4.095174614e-06
4.087958267e-06
4.079663047e-06
4.068554142e-06
4.047612784e-06
4.023536675e-06
4.004546748e-06
3.965828524e-06
3.916634084e-06
3.885941553e-06
3.842222112e-06
3.784170395e-06
3.706434881e-06
3.616172516e-06
3.51301136e-06
3.396961859e-06
3.281632829e-06
3.128878731e-06
2.96483098e-06
2.793126585e-06
2.618221329e-06
2.419405041e-06
2.200287006e-06
1.999246871e-06
1.778138379e-06
1.564042563e-06
1.365782974e-06
1.191330533e-06
1.044565589e-06
9.236100548e-07
8.304766128e-07
7.563775121e-07
6.971329884e-07
6.483962696e-07
6.02524144e-07
5.573362282e-07
5.083497306e-07
4.532926475e-07
3.936384019e-07
3.202271571e-07
4.100259279e-06
4.07995507e-06
4.067444491e-06
4.043530497e-06
4.038759821e-06
4.029606678e-06
4.008752065e-06
3.983841134e-06
3.940809397e-06
3.901326489e-06
3.856739117e-06
3.788805004e-06
3.709040586e-06
3.627754891e-06
3.517903954e-06
3.414127919e-06
3.282273255e-06
3.140734582e-06
2.989202318e-06
2.823051163e-06
2.640677593e-06
2.438983858e-06
2.232290424e-06
2.018430974e-06
1.796456585e-06
1.58231808e-06
1.379581159e-06
1.203290003e-06
1.05625756e-06
9.34076779e-07
8.369207122e-07
7.606272532e-07
7.007068528e-07
6.514471559e-07
6.060820088e-07
5.604395958e-07
5.106125091e-07
4.565887032e-07
3.952755355e-07
3.213781741e-07
4.09109338e-06
4.08494835e-06
4.076220929e-06
4.063607055e-06
4.048482596e-06
4.026324982e-06
4.003511398e-06
3.972332822e-06
3.93622199e-06
3.900682094e-06
3.844733735e-06
3.79067334e-06
3.718915661e-06
3.632625312e-06
3.530721691e-06
3.429385179e-06
3.304393871e-06
3.165942341e-06
3.004882728e-06
2.829067473e-06
2.650019095e-06
2.452063121e-06
2.249919959e-06
2.034182469e-06
1.816856458e-06
1.605180078e-06
1.40006681e-06
1.224552465e-06
1.071004958e-06
9.468830625e-07
8.458377344e-07
7.682318441e-07
7.071785419e-07
6.557499576e-07
6.109025482e-07
5.626534271e-07
5.125838979e-07
4.592572855e-07
3.974975758e-07
3.22862118e-07
4.100151527e-06
4.092128429e-06
4.084091034e-06
4.068249285e-06
4.051530641e-06
4.027162198e-06
3.997015255e-06
3.971936499e-06
3.947617679e-06
3.893812874e-06
3.851475365e-06
3.793071024e-06
3.735573803e-06
3.650419237e-06
3.55178243e-06
3.448828085e-06
3.315524539e-06
3.176136571e-06
3.025898287e-06
2.862086439e-06
2.676792589e-06
2.473033377e-06
2.272177058e-06
2.060072705e-06
1.83887141e-06
1.625950083e-06
1.425880211e-06
1.239515174e-06
1.089672869e-06
9.598563789e-07
8.606220823e-07
7.767174098e-07
7.14686672e-07
6.627129221e-07
6.151474022e-07
5.674265589e-07
5.180568517e-07
4.62345837e-07
3.998933202e-07
3.242940286e-07
4.094751577e-06
4.085099942e-06
4.072579561e-06
4.060834492e-06
4.043041395e-06
4.038570256e-06
4.009743134e-06
3.98151726e-06
3.950427304e-06
3.913403253e-06
3.859174465e-06
3.808709946e-06
3.733236259e-06
3.649273026e-06
3.558860403e-06
3.460134451e-06
3.343943486e-06
3.204405719e-06
3.058342094e-06
2.893687919e-06
2.706426982e-06
2.507090856e-06
2.305481486e-06
2.091404811e-06
1.876938419e-06
1.661130012e-06
1.454936239e-06
1.267492411e-06
1.107434596e-06
9.735224131e-07
8.684466475e-07
7.88340987e-07
7.219854308e-07
6.693381222e-07
6.208608416e-07
5.727855063e-07
5.214378706e-07
4.650180503e-07
4.009894199e-07
3.249463164e-07
4.095047892e-06
4.084396875e-06
4.062202064e-06
4.048734456e-06
4.033243997e-06
4.012213199e-06
3.996686986e-06
3.962117427e-06
3.936864843e-06
3.907885189e-06
3.853547107e-06
3.813329344e-06
3.755986239e-06
3.679137849e-06
3.588429641e-06
3.464062765e-06
3.353275946e-06
3.206040641e-06
3.066101005e-06
2.901738149e-06
2.72348027e-06
2.533365872e-06
2.330309751e-06
2.126546084e-06
1.900959184e-06
1.68904207e-06
1.483824427e-06
1.295661203e-06
1.129655548e-06
9.943187936e-07
8.837605117e-07
7.994582614e-07
7.332304082e-07
6.773833731e-07
6.261662424e-07
5.761076794e-07
5.250110748e-07
4.682976319e-07
4.038590225e-07
3.278876107e-07
4.099725554e-06
4.088573522e-06
4.075938797e-06
4.067322325e-06
4.058614447e-06
4.037675977e-06
4.019404993e-06
3.997397488e-06
3.963654158e-06
3.916181698e-06
3.8761167e-06
3.839289299e-06
3.781454517e-06
3.698030877e-06
3.604832981e-06
3.494382478e-06
3.378031515e-06
3.24231213e-06
3.106522496e-06
2.932119514e-06
2.758533524e-06
2.567060099e-06
2.368591796e-06
2.165159788e-06
1.941186661e-06
1.724348535e-06
1.520210281e-06
1.329906423e-06
1.159159814e-06
1.015961723e-06
9.036375585e-07
8.153831946e-07
7.43816559e-07
6.8536662e-07
6.327656326e-07
5.839545214e-07
5.309745773e-07
4.740393735e-07
4.095793943e-07
3.314594831e-07
4.102105379e-06
4.090379982e-06
4.076633206e-06
4.064098282e-06
4.045912515e-06
4.02037112e-06
4.002220033e-06
3.989416388e-06
3.955885807e-06
3.934897335e-06
3.886709028e-06
3.828735815e-06
3.762636001e-06
3.698238445e-06
3.622126285e-06
3.521759424e-06
3.400450597e-06
3.261528079e-06
3.122815411e-06
2.964758555e-06
2.780491964e-06
2.599768053e-06
2.408183202e-06
2.195655574e-06
1.991534719e-06
1.77391073e-06
1.559695837e-06
1.365679128e-06
1.190601429e-06
1.044526789e-06
9.242642775e-07
8.327195124e-07
7.55641404e-07
6.971043401e-07
6.432538273e-07
5.933165619e-07
5.384366966e-07
4.803136699e-07
4.151091034e-07
3.338819915e-07
4.102383005e-06
4.098443145e-06
4.084302967e-06
4.072464388e-06
4.058859395e-06
4.040656744e-06
4.019794816e-06
3.998492641e-06
3.967559581e-06
3.932411144e-06
3.890314609e-06
3.837899752e-06
3.783055205e-06
3.728897741e-06
3.649225593e-06
3.539669014e-06
3.42918783e-06
3.308677527e-06
3.161770629e-06
2.999190956e-06
2.82964316e-06
2.646541219e-06
2.440966554e-06
2.241614632e-06
2.028346613e-06
1.818331367e-06
1.600278649e-06
1.403198912e-06
1.22589166e-06
1.070277637e-06
9.512486353e-07
8.511311868e-07
7.741580587e-07
7.092641109e-07
6.562557981e-07
6.021283995e-07
5.486265715e-07
4.894598648e-07
4.207368681e-07
3.386490347e-07
4.104076914e-06
4.09176785e-06
4.079830432e-06
4.078174167e-06
4.071090958e-06
4.060610462e-06
4.055179927e-06
4.032432318e-06
4.018077885e-06
3.97433262e-06
3.926810915e-06
3.884468993e-06
3.816952123e-06
3.747030868e-06
3.672216518e-06
3.567181082e-06
3.446240662e-06
3.324336424e-06
3.180683611e-06
3.030309627e-06
2.859974047e-06
2.676830775e-06
2.495184013e-06
2.29852576e-06
2.078781455e-06
1.863356505e-06
1.652679525e-06
1.446133285e-06
1.260641981e-06
1.103965168e-06
9.757823189e-07
8.760327366e-07
7.915836563e-07
7.279868455e-07
6.710133916e-07
6.15542375e-07
5.590427007e-07
4.977850759e-07
4.283840667e-07
3.448721196e-07
4.108573139e-06
4.106497255e-06
4.100184636e-06
4.088162995e-06
4.080590474e-06
4.058803578e-06
4.037726252e-06
4.023367008e-06
3.991757227e-06
3.962781401e-06
3.928418926e-06
3.884037922e-06
3.820274709e-06
3.762184996e-06
3.672069317e-06
3.586065813e-06
3.457241605e-06
3.33428933e-06
3.212964974e-06
3.054014832e-06
2.893068722e-06
2.722207074e-06
2.537655509e-06
2.337179209e-06
2.125829642e-06
1.91308146e-06
1.702855644e-06
1.494441791e-06
1.308908741e-06
1.144894792e-06
1.009163608e-06
8.993480295e-07
8.138848087e-07
7.455679712e-07
6.858370674e-07
6.314402299e-07
5.732838497e-07
5.112478644e-07
4.388588787e-07
3.51062096e-07
4.102714173e-06
4.098596582e-06
4.088766792e-06
4.09187715e-06
4.076938938e-06
4.055165809e-06
4.03776675e-06
4.013960702e-06
3.982785485e-06
3.948686436e-06
3.922536375e-06
3.877233582e-06
3.822538877e-06
3.753296467e-06
3.676189846e-06
3.593377573e-06
3.482365747e-06
3.385411694e-06
3.244622074e-06
3.090351993e-06
2.930669448e-06
2.765883734e-06
2.592711978e-06
2.386591412e-06
2.180461606e-06
1.964524591e-06
1.756282004e-06
1.550630365e-06
1.355177861e-06
1.18762264e-06
1.041371124e-06
9.262504238e-07
8.389903518e-07
7.647116493e-07
7.064367535e-07
6.511863601e-07
5.910407148e-07
5.27634908e-07
4.532267587e-07
3.620803066e-07
4.109204447e-06
4.097906424e-06
4.08965132e-06
4.081632988e-06
4.072214552e-06
4.063617948e-06
4.03532354e-06
4.019325885e-06
4.009479172e-06
3.987452104e-06
3.939066236e-06
3.903986866e-06
3.848986131e-06
3.770477666e-06
3.696665531e-06
3.60419715e-06
3.522424581e-06
3.40467773e-06
3.268362213e-06
3.127441219e-06
2.980402496e-06
2.803414771e-06
2.629306794e-06
2.426611104e-06
2.230340404e-06
2.026787838e-06
1.820364948e-06
1.605268615e-06
1.414061813e-06
1.235424745e-06
1.084894175e-06
9.622547429e-07
8.694293573e-07
7.929294509e-07
7.328784145e-07
6.739045576e-07
6.163723604e-07
5.51701241e-07
4.737833248e-07
3.762850028e-07
4.101485553e-06
4.099148323e-06
4.096598357e-06
4.082952686e-06
4.076453606e-06
4.06637041e-06
4.050279585e-06
4.033567722e-06
4.019931072e-06
3.989506982e-06
3.955529576e-06
3.913345023e-06
3.858702739e-06
3.793874434e-06
3.723667555e-06
3.63161235e-06
3.53521291e-06
3.426006494e-06
3.300466793e-06
3.183827686e-06
3.032648623e-06
2.868192797e-06
2.697169169e-06
2.50292078e-06
2.295470556e-06
2.083438175e-06
1.883500569e-06
1.671930888e-06
1.471351353e-06
1.288358306e-06
1.131602452e-06
1.005772104e-06
9.075211282e-07
8.246125674e-07
7.615475201e-07
7.034528322e-07
6.477860898e-07
5.845534366e-07
5.073507773e-07
4.030578981e-07
4.103434629e-06
4.096917154e-06
4.093111942e-06
4.082087948e-06
4.086339726e-06
4.071759242e-06
4.050835729e-06
4.024038382e-06
4.007307009e-06
3.983321817e-06
3.959291504e-06
3.913699933e-06
3.86927095e-06
3.819399634e-06
3.751868138e-06
3.66884911e-06
3.573431787e-06
3.471460415e-06
3.362992523e-06
3.232148456e-06
3.091038931e-06
2.932214929e-06
2.73536806e-06
2.557126994e-06
2.361190918e-06
2.149828139e-06
1.949522862e-06
1.734134267e-06
1.53751667e-06
1.350143149e-06
1.19230142e-06
1.05761016e-06
9.491018369e-07
8.64520615e-07
7.983012869e-07
7.375679178e-07
6.878200448e-07
6.356309199e-07
5.710643997e-07
4.662139014e-07
4.109838297e-06
4.105968342e-06
4.095440666e-06
4.085869893e-06
4.069315732e-06
4.056642786e-06
4.054630679e-06
4.044090416e-06
4.040138094e-06
4.011090054e-06
3.962349871e-06
3.933396035e-06
3.888773153e-06
3.826080079e-06
3.767950017e-06
3.688621538e-06
3.59463368e-06
3.488383655e-06
3.386176951e-06
3.265584942e-06
3.134370585e-06
2.97675652e-06
2.806647678e-06
2.622254498e-06
2.428022089e-06
2.227943179e-06
2.015441344e-06
1.812986241e-06
1.613341586e-06
1.423011025e-06
1.255410079e-06
1.114128964e-06
1.001085671e-06
9.099915252e-07
8.385940786e-07
7.844253619e-07
7.401296904e-07
7.028211485e-07
6.818760534e-07
7.491408645e-07
4.103925214e-06
4.09396792e-06
4.085053807e-06
4.08518662e-06
4.079062388e-06
4.067935724e-06
4.067838435e-06
4.048273352e-06
4.042151096e-06
4.022137387e-06
3.980411878e-06
3.956427915e-06
3.905633694e-06
3.861388127e-06
3.792479022e-06
3.727128177e-06
3.641697816e-06
3.545117836e-06
3.427174205e-06
3.31855755e-06
3.187230002e-06
3.032079532e-06
2.852379362e-06
2.681155971e-06
2.500274988e-06
2.311930079e-06
2.102173477e-06
1.89266603e-06
1.691246693e-06
1.503692868e-06
1.326669876e-06
1.178903556e-06
1.060733991e-06
9.619701637e-07
8.885717709e-07
8.352644481e-07
7.977052226e-07
7.810359839e-07
7.99949611e-07
9.235149841e-07
4.110957607e-06
4.102810445e-06
4.097216568e-06
4.088332007e-06
4.083558653e-06
4.070524426e-06
4.057825338e-06
4.050761213e-06
4.022675657e-06
4.012907505e-06
3.979117739e-06
3.950542627e-06
3.924784247e-06
3.876559375e-06
3.813902844e-06
3.742291548e-06
3.665036775e-06
3.570814265e-06
3.470034396e-06
3.353104556e-06
3.222065819e-06
3.081122969e-06
2.929246665e-06
2.74848652e-06
2.572740063e-06
2.383283651e-06
2.189096655e-06
1.985792255e-06
1.784692224e-06
1.586926903e-06
1.409725676e-06
1.253834022e-06
1.121783431e-06
1.017321402e-06
9.411097747e-07
8.911895292e-07
8.56766316e-07
8.548704027e-07
8.941062991e-07
1.006760301e-06
4.111866732e-06
4.104828448e-06
4.100304396e-06
4.095899758e-06
4.091427538e-06
4.075854583e-06
4.055285669e-06
4.028987374e-06
4.014317896e-06
3.995951023e-06
3.964784207e-06
3.93926574e-06
3.89596908e-06
3.861991449e-06
3.812345375e-06
3.746602882e-06
3.669576626e-06
3.588667855e-06
3.50140402e-06
3.408220986e-06
3.272154027e-06
3.139813848e-06
2.996923375e-06
2.826269874e-06
2.663727339e-06
2.470301656e-06
2.266010411e-06
2.0772183e-06
1.876956877e-06
1.683054639e-06
1.496734263e-06
1.336941402e-06
1.194665469e-06
1.088735778e-06
1.004788017e-06
9.526702837e-07
9.219337574e-07
9.234720293e-07
9.590820505e-07
1.054926649e-06
4.110174024e-06
4.102451178e-06
4.093335124e-06
4.079827148e-06
4.076070425e-06
4.075977426e-06
4.068736359e-06
4.051669799e-06
4.042176458e-06
4.016973182e-06
4.000927361e-06
3.977452706e-06
3.926180725e-06
3.878584014e-06
3.831784375e-06
3.788525834e-06
3.706687638e-06
3.643520961e-06
3.540549054e-06
3.442319256e-06
3.316958072e-06
3.197047616e-06
3.056697471e-06
2.892349035e-06
2.728736074e-06
2.563646772e-06
2.368902689e-06
2.169785148e-06
1.97197132e-06
1.774542364e-06
1.5856342e-06
1.418461458e-06
1.277109879e-06
1.161386688e-06
1.072108371e-06
1.01497453e-06
9.861452998e-07
9.855125587e-07
1.016155137e-06
1.091798902e-06
4.104887444e-06
4.098833684e-06
4.09853617e-06
4.091745278e-06
4.085525348e-06
4.078491473e-06
4.066816526e-06
4.057937453e-06
4.035495259e-06
4.02571313e-06
4.006592095e-06
3.981649664e-06
3.947623351e-06
3.909078159e-06
3.86486618e-06
3.817716588e-06
3.754466502e-06
3.66953279e-06
3.588081507e-06
3.491498618e-06
3.385225199e-06
3.267001459e-06
3.128550922e-06
2.968253487e-06
2.800639029e-06
2.636740775e-06
2.448868575e-06
2.261374326e-06
2.064870934e-06
1.869160693e-06
1.684755564e-06
1.514617587e-06
1.365495532e-06
1.24342167e-06
1.14906853e-06
1.082397661e-06
1.046018817e-06
1.038177422e-06
1.064033456e-06
1.123512199e-06
4.111534448e-06
4.111626033e-06
4.104199972e-06
4.102002662e-06
4.093917525e-06
4.088120766e-06
4.078103466e-06
4.070208559e-06
4.055636165e-06
4.046372875e-06
4.028847945e-06
4.004354152e-06
3.969292393e-06
3.93078569e-06
3.893205227e-06
3.843232618e-06
3.789040438e-06
3.710646103e-06
3.631556398e-06
3.532266273e-06
3.440772161e-06
3.316480264e-06
3.193810212e-06
3.038208278e-06
2.89461274e-06
2.722010832e-06
2.541987017e-06
2.364855379e-06
2.172700349e-06
1.981440916e-06
1.79764794e-06
1.625578976e-06
1.470765841e-06
1.334798766e-06
1.228541959e-06
1.157010474e-06
1.107915349e-06
1.093302038e-06
1.106541859e-06
1.152933515e-06
4.107040047e-06
4.100876116e-06
4.097406085e-06
4.097502852e-06
4.092544049e-06
4.088609743e-06
4.087598531e-06
4.073679665e-06
4.059608626e-06
4.045566431e-06
4.024306239e-06
3.994928146e-06
3.973103966e-06
3.935518466e-06
3.911948771e-06
3.86209389e-06
3.814722271e-06
3.740774952e-06
3.661424736e-06
3.576233985e-06
3.485926353e-06
3.370368642e-06
3.245777554e-06
3.100239462e-06
2.954752084e-06
2.815253104e-06
2.633127575e-06
2.4615943e-06
2.277759332e-06
2.088438037e-06
1.908281918e-06
1.72938306e-06
1.569387778e-06
1.431642185e-06
1.321017704e-06
1.235316133e-06
1.180794437e-06
1.151356304e-06
1.155634788e-06
1.18462905e-06
4.106192587e-06
4.107804219e-06
4.106962825e-06
4.097069809e-06
4.081232713e-06
4.075660801e-06
4.071217143e-06
4.065860297e-06
4.057060348e-06
4.048721125e-06
4.040048493e-06
4.023018047e-06
3.992910049e-06
3.952398541e-06
3.913860825e-06
3.860393007e-06
3.823146523e-06
3.765302113e-06
3.69192408e-06
3.620774304e-06
3.529365632e-06
3.430739354e-06
3.310156028e-06
3.180425717e-06
3.03347269e-06
2.897018384e-06
2.732744692e-06
2.555761689e-06
2.376888847e-06
2.201348985e-06
2.019057092e-06
1.846385826e-06
1.688419218e-06
1.538425466e-06
1.419576007e-06
1.32285132e-06
1.254660479e-06
1.211324561e-06
1.201230044e-06
1.215967229e-06
4.110229358e-06
4.109866101e-06
4.109354648e-06
4.108949875e-06
4.107061934e-06
4.103905582e-06
4.099062586e-06
4.093137114e-06
4.074791101e-06
4.063839733e-06
4.051510549e-06
4.02576423e-06
4.007044717e-06
3.973436619e-06
3.9292584e-06
3.891360264e-06
3.852635006e-06
3.802678407e-06
3.719255938e-06
3.654154699e-06
3.570545615e-06
3.479063282e-06
3.37512556e-06
3.250948652e-06
3.122858243e-06
2.979250184e-06
2.817553472e-06
2.651077316e-06
2.473154803e-06
2.302142135e-06
2.140121654e-06
1.966931743e-06
1.80074107e-06
1.652421088e-06
1.520969633e-06
1.414335385e-06
1.335241773e-06
1.280558517e-06
1.255960036e-06
1.257660597e-06
4.110239153e-06
4.104241124e-06
4.102865912e-06
4.103721698e-06
4.103014139e-06
4.092630864e-06
4.087130672e-06
4.08088073e-06
4.07866963e-06
4.077161212e-06
4.061937273e-06
4.044357564e-06
4.011341683e-06
3.993386172e-06
3.959497073e-06
3.929221573e-06
3.88903881e-06
3.84175275e-06
3.773966969e-06
3.713078612e-06
3.611252028e-06
3.534237329e-06
3.432308356e-06
3.314538999e-06
3.189565037e-06
3.054698558e-06
2.911166866e-06
2.759121483e-06
2.592135163e-06
2.432368736e-06
2.257827148e-06
2.092662998e-06
1.922268694e-06
1.768928928e-06
1.632588861e-06
1.517655634e-06
1.426625051e-06
1.356043961e-06
1.317416579e-06
1.301892769e-06
4.11007897e-06
4.10838745e-06
4.098570567e-06
4.098464368e-06
4.099315432e-06
4.094521653e-06
4.090350552e-06
4.092289712e-06
4.082059555e-06
4.074673639e-06
4.051130703e-06
4.041984847e-06
4.023144901e-06
4.001635633e-06
3.95990847e-06
3.924036149e-06
3.893588619e-06
3.854796266e-06
3.800118784e-06
3.743195258e-06
3.671196062e-06
3.582195866e-06
3.496975377e-06
3.385379269e-06
3.26607832e-06
3.146203232e-06
3.00568377e-06
2.865455486e-06
2.703934102e-06
2.542771469e-06
2.388440084e-06
2.225040408e-06
2.056443927e-06
1.902783037e-06
1.752453758e-06
1.627264358e-06
1.524140033e-06
1.44649724e-06
1.390448842e-06
1.353603233e-06
4.113634396e-06
4.107806928e-06
4.115315861e-06
4.110387211e-06
4.108149251e-06
4.105948862e-06
4.089450343e-06
4.079797823e-06
4.078496315e-06
4.066233036e-06
4.06010773e-06
4.050861783e-06
4.03233339e-06
4.010913209e-06
3.977717649e-06
3.950517321e-06
3.915415807e-06
3.879723111e-06
3.828694076e-06
3.771836124e-06
3.692494929e-06
3.618406567e-06
3.530955427e-06
3.435077231e-06
3.321239364e-06
3.201211701e-06
3.078051102e-06
2.947318151e-06
2.803030021e-06
2.651250927e-06
2.501181329e-06
2.342241034e-06
2.178193802e-06
2.033674709e-06
1.878796902e-06
1.743718673e-06
1.635364427e-06
1.542811492e-06
1.472595088e-06
1.424426024e-06
4.111827089e-06
4.116142102e-06
4.112281791e-06
4.109790743e-06
4.105523629e-06
4.099326758e-06
4.095587139e-06
4.089661745e-06
4.072111563e-06
4.062648189e-06
4.060565079e-06
4.056045007e-06
4.041406945e-06
4.020164402e-06
3.985176011e-06
3.965811592e-06
3.940358301e-06
3.895796205e-06
3.854541607e-06
3.80748598e-06
3.754781237e-06
3.670091931e-06
3.59672058e-06
3.506785527e-06
3.403715291e-06
3.296427702e-06
3.185641869e-06
3.052266281e-06
2.91138983e-06
2.767427998e-06
2.615294653e-06
2.453656549e-06
2.302486933e-06
2.145341903e-06
2.008712981e-06
1.870557778e-06
1.747359202e-06
1.644997671e-06
1.562334815e-06
1.496783712e-06
4.115095646e-06
4.107612017e-06
4.101739137e-06
4.095826384e-06
4.096452705e-06
4.101813544e-06
4.095358731e-06
4.088066786e-06
4.086271787e-06
4.079172886e-06
4.070113167e-06
4.051379406e-06
4.039853451e-06
4.004046686e-06
3.982247279e-06
3.964613494e-06
3.947188512e-06
3.913410996e-06
3.874876915e-06
3.831528074e-06
3.772071668e-06
3.694162417e-06
3.631818029e-06
3.543587047e-06
3.441579757e-06
3.358632585e-06
3.252343261e-06
3.139693385e-06
3.010634732e-06
2.880353437e-06
2.740291171e-06
2.596787904e-06
2.438141818e-06
2.28551895e-06
2.14381896e-06
2.005786311e-06
1.873920739e-06
1.762631602e-06
1.665406681e-06
1.585249791e-06
4.111757995e-06
4.10742812e-06
4.10505276e-06
4.105250727e-06
4.105211321e-06
4.105627976e-06
4.102537089e-06
4.097985517e-06
4.091809008e-06
4.079958789e-06
4.059054193e-06
4.053573481e-06
4.04663647e-06
4.032608734e-06
4.018076654e-06
3.999898857e-06
3.97694741e-06
3.949667894e-06
3.915100296e-06
3.862432794e-06
3.81218318e-06
3.740618191e-06
3.682339098e-06
3.610258932e-06
3.526947868e-06
3.421066206e-06
3.333763149e-06
3.220130273e-06
3.109448818e-06
2.992725761e-06
2.853164991e-06
2.722066155e-06
2.567135412e-06
2.412119544e-06
2.276909399e-06
2.13159429e-06
2.004336034e-06
1.882631139e-06
1.780050893e-06
1.690275363e-06
4.119267902e-06
4.11409772e-06
4.113843979e-06
4.112678327e-06
4.107923356e-06
4.097762935e-06
4.09943585e-06
4.090057722e-06
4.084838868e-06
4.083454759e-06
4.065061399e-06
4.059798837e-06
4.04808895e-06
4.037473918e-06
4.019641073e-06
3.989378573e-06
3.975668912e-06
3.949931011e-06
3.919467047e-06
3.876967005e-06
3.846479334e-06
3.796377992e-06
3.745689319e-06
3.677915674e-06
3.596674232e-06
3.514744001e-06
3.417340233e-06
3.320440252e-06
3.204672917e-06
3.087429849e-06
2.961773552e-06
2.837408937e-06
2.695347247e-06
2.552493413e-06
2.411463833e-06
2.282759883e-06
2.145434088e-06
2.022420008e-06
1.901907888e-06
1.79951333e-06
4.116921997e-06
4.115707079e-06
4.116455302e-06
4.109376666e-06
4.10569482e-06
4.102969943e-06
4.095164189e-06
4.097872032e-06
4.089822414e-06
4.078419e-06
4.073750416e-06
4.060270865e-06
4.054644934e-06
4.044975532e-06
4.031413063e-06
4.023172318e-06
4.006468352e-06
3.973388842e-06
3.94843644e-06
3.909333623e-06
3.870761832e-06
3.825194634e-06
3.774395374e-06
3.716917179e-06
3.634788882e-06
3.567646971e-06
3.475067823e-06
3.381920143e-06
3.290549681e-06
3.165594649e-06
3.052606959e-06
2.93102047e-06
2.812254995e-06
2.673262811e-06
2.538844066e-06
2.402793549e-06
2.284589805e-06
2.1586441e-06
2.034560977e-06
1.922916208e-06
4.110366819e-06
4.107790971e-06
4.106667464e-06
4.108394478e-06
4.109702934e-06
4.110290596e-06
4.106136667e-06
4.099632491e-06
4.097217345e-06
4.094230936e-06
4.088754225e-06
4.083660016e-06
4.076247817e-06
4.077320486e-06
4.058950778e-06
4.039767055e-06
4.03230255e-06
3.999654184e-06
3.9721116e-06
3.935505187e-06
3.894510892e-06
3.851186689e-06
3.799407834e-06
3.744705581e-06
3.675371578e-06
3.617012014e-06
3.53618053e-06
3.448527443e-06
3.363554664e-06
3.265744397e-06
3.158827824e-06
3.04896645e-06
2.931759605e-06
2.800202336e-06
2.678827995e-06
2.545934207e-06
2.416730028e-06
2.291733687e-06
2.16454263e-06
2.053939183e-06
4.114820393e-06
4.112550502e-06
4.108128776e-06
4.107753156e-06
4.107577305e-06
4.105736095e-06
4.108339144e-06
4.108157823e-06
4.10448468e-06
4.101191759e-06
4.102566863e-06
4.079773654e-06
4.069970218e-06
4.05195787e-06
4.03468547e-06
4.025696877e-06
4.017838646e-06
3.991050363e-06
3.968324526e-06
3.938309576e-06
3.911825745e-06
3.889493782e-06
3.845349891e-06
3.79603112e-06
3.728672093e-06
3.678987021e-06
3.601245792e-06
3.522643715e-06
3.440275292e-06
3.359789024e-06
3.250774524e-06
3.156491063e-06
3.047600255e-06
2.929386328e-06
2.80725007e-06
2.671742621e-06
2.545013042e-06
2.420548629e-06
2.295359372e-06
2.189926234e-06
4.113846251e-06
4.111504372e-06
4.113110417e-06
4.11655918e-06
4.113265311e-06
4.102559608e-06
4.102409625e-06
4.10211751e-06
4.090319532e-06
4.08268733e-06
4.068121865e-06
4.072172108e-06
4.067358469e-06
4.071637767e-06
4.056905377e-06
4.043792992e-06
4.029706751e-06
4.008661497e-06
3.996481576e-06
3.979078721e-06
3.948460917e-06
3.90484837e-06
3.868975343e-06
3.829430847e-06
3.780019696e-06
3.728342172e-06
3.668677034e-06
3.590721177e-06
3.517143234e-06
3.434463108e-06
3.339481783e-06
3.254048812e-06
3.158006968e-06
3.052648594e-06
2.921993916e-06
2.809256121e-06
2.698866594e-06
2.559764894e-06
2.437635084e-06
2.316808926e-06
4.106955184e-06
4.104199181e-06
4.103131948e-06
4.092970589e-06
4.088574304e-06
4.08945498e-06
4.092224319e-06
4.09073965e-06
4.098034498e-06
4.096015309e-06
4.087992774e-06
4.081191458e-06
4.081608577e-06
4.074221495e-06
4.06714253e-06
4.06575466e-06
4.058648681e-06
4.039104388e-06
4.026093729e-06
4.000526633e-06
3.966462344e-06
3.93069731e-06
3.896444814e-06
3.85557036e-06
3.808813404e-06
3.755991022e-06
3.703983515e-06
3.642101407e-06
3.567954921e-06
3.488507755e-06
3.397316113e-06
3.320172641e-06
3.237773835e-06
3.138119954e-06
3.032219451e-06
2.920277711e-06
2.806881967e-06
2.698697448e-06
2.582136386e-06
2.458752808e-06
4.117167695e-06
4.114374598e-06
4.114769812e-06
4.124630234e-06
4.129900486e-06
4.135213508e-06
4.124855563e-06
4.116525294e-06
4.110775774e-06
4.102856574e-06
4.099723634e-06
4.09557841e-06
4.092754794e-06
4.081345907e-06
4.07411786e-06
4.072105527e-06
4.0560397e-06
4.037515677e-06
4.020812736e-06
4.003239188e-06
3.982349368e-06
3.949330931e-06
3.929508467e-06
3.895243031e-06
3.868983732e-06
3.816490848e-06
3.767059345e-06
3.708943691e-06
3.652923408e-06
3.580132228e-06
3.496323513e-06
3.410090537e-06
3.322213245e-06
3.244382574e-06
3.136299735e-06
3.039829087e-06
2.93020084e-06
2.818097074e-06
2.706354575e-06
2.599124352e-06
4.114442012e-06
4.116896947e-06
4.1116632e-06
4.106647307e-06
4.106049473e-06
4.102576666e-06
4.10820357e-06
4.104454131e-06
4.098252725e-06
4.100979181e-06
4.094423229e-06
4.089194286e-06
4.08671641e-06
4.085644756e-06
4.081619601e-06
4.072879595e-06
4.054427349e-06
4.036926008e-06
4.029512781e-06
4.014600066e-06
3.996959896e-06
3.981846532e-06
3.950275265e-06
3.914572927e-06
3.881327462e-06
3.842651495e-06
3.808034938e-06
3.756802295e-06
3.70086696e-06
3.639846747e-06
3.566366133e-06
3.486286509e-06
3.405014151e-06
3.326091817e-06
3.230093762e-06
3.14752094e-06
3.046826875e-06
2.940236065e-06
2.830497156e-06
2.728693439e-06
4.11880057e-06
4.117244272e-06
4.118230283e-06
4.11766273e-06
4.108259055e-06
4.108797001e-06
4.106801462e-06
4.107379921e-06
4.106318239e-06
4.100227706e-06
4.094410848e-06
4.097202611e-06
4.086060015e-06
4.078540991e-06
4.07348241e-06
4.075049927e-06
4.069509933e-06
4.057588197e-06
4.044098778e-06
4.022930837e-06
4.003790074e-06
3.982579318e-06
3.966129375e-06
3.937327815e-06
3.901128084e-06
3.864352158e-06
3.829594523e-06
3.792865748e-06
3.747980104e-06
3.696225421e-06
3.634308606e-06
3.564147662e-06
3.485931291e-06
3.418866918e-06
3.332746811e-06
3.236699054e-06
3.15822325e-06
3.063547825e-06
2.961185319e-06
2.859015824e-06
4.116922163e-06
4.10931728e-06
4.110789237e-06
4.117269396e-06
4.12532839e-06
4.120606065e-06
4.123662238e-06
4.124971242e-06
4.124731235e-06
4.120797546e-06
4.117214386e-06
4.111387409e-06
4.111272091e-06
4.101279217e-06
4.095577889e-06
4.093713415e-06
4.092243127e-06
4.078860207e-06
4.063645524e-06
4.039123608e-06
4.026376402e-06
4.019239603e-06
3.998180141e-06
3.966065223e-06
3.934153791e-06
3.906641074e-06
3.869877873e-06
3.832854177e-06
3.785546324e-06
3.743653889e-06
3.680603827e-06
3.636593051e-06