/*--------------------------------*- C++ -*----------------------------------*\
| =========                 |                                                 |
| \\      /  F ield         | OpenFOAM: The Open Source CFD Toolbox           |
|  \\    /   O peration     | Version:  v1706                                 |
|   \\  /    A nd           | Web:      www.OpenFOAM.com                      |
|    \\/     M anipulation  |                                                 |
\*---------------------------------------------------------------------------*/
FoamFile
{
    version     2.0;
    format      ascii;
    class       volScalarField;
    location    "0.004";
    object      mctToDt_Ar;
}
// * * * * * * * * * * * * * * * * * * * * * * * * * * * * * * * * * * * * * //

dimensions      [0 0 0 0 0 0 0];


internalField   nonuniform List<scalar> 
4000
(
51.23976372
51.11277329
50.79842253
50.90246746
50.94223998
50.47850733
50.19555911
49.61596535
48.65817095
47.89969208
47.19098006
45.7520204
44.43697254
43.22577092
41.98891694
40.08500869
38.63653691
36.75225305
35.02915479
32.58415293
30.48868477
28.10356047
25.72986495
23.13495119
20.62791577
18.05492493
15.85039304
13.98661297
12.25171363
10.90679687
9.856185447
9.041322325
8.360519686
7.818669557
7.344688008
6.807733149
6.227977534
5.586577691
4.835219087
3.933522281
51.28823952
51.08620747
50.88741054
50.62933426
50.43189095
50.03670953
49.54924473
49.38914741
49.06541821
48.24322721
47.58795114
46.73076635
46.05279666
44.71006392
43.20364844
41.66223495
40.0068845
38.02098242
36.02932685
34.01755959
31.70662271
29.17403062
26.72494705
24.06906814
21.37882177
18.79946383
16.40808715
14.29653056
12.54801437
11.12899888
10.05546233
9.196714329
8.522161146
7.934638266
7.418456139
6.881398331
6.282258969
5.620049747
4.844357439
3.945267166
51.34700134
51.11354669
50.7908574
50.56059111
50.27168031
49.89478012
49.51620725
49.22089277
48.89324331
48.4175967
47.53604319
46.82667165
45.95278983
44.57456766
43.43247977
41.90442972
40.36464249
38.62131014
36.60003467
34.35748184
31.99222682
29.52200709
26.99879492
24.233055
21.63218522
19.09338081
16.59295544
14.45271742
12.71543257
11.24463305
10.11643088
9.285322527
8.579879205
7.973422777
7.445130857
6.9156187
6.299425735
5.624808945
4.863037919
3.959294157
51.14616438
51.04913839
50.99552881
50.8895302
50.55353012
50.20417859
49.74586824
49.50012397
48.88242345
48.41090724
47.77211723
47.09587924
46.20186345
44.85367431
43.50189793
42.19353325
40.5606756
38.74874983
36.79543326
34.65190161
32.34880291
29.7820368
27.15971657
24.39066756
21.8837963
19.2541091
16.79523374
14.60515994
12.80779206
11.37126002
10.20464651
9.318913746
8.614598554
8.013908358
7.474787476
6.92791197
6.308324381
5.650811416
4.874539186
3.965930522
51.18031359
51.01766752
50.89451891
50.68943886
50.52336914
50.26784935
49.92286959
49.53514342
49.09729974
48.50700892
47.79592533
47.16716047
46.07537171
44.94196084
43.77637545
42.49730872
40.88354874
39.1141436
37.01609409
34.76761944
32.3714962
30.03162981
27.44918206
24.78644945
21.97068427
19.43358676
16.95728421
14.7166079
12.90022211
11.49073933
10.29281072
9.379153224
8.670033654
8.060470581
7.495845626
6.941221891
6.321212915
5.651628827
4.894878409
3.987500599
51.18968267
51.09947834
50.99578809
50.85692677
50.5951598
50.29420844
50.05683435
49.57285655
48.95792605
48.57426942
48.02777641
47.30212993
46.33043601
45.20215645
43.912642
42.46202324
41.02041036
39.11098414
37.06038725
34.91408231
32.72776661
30.24256302
27.50358757
24.99058589
22.22672974
19.55053203
17.07228717
14.89163166
13.05706986
11.54512568
10.38095766
9.454718901
8.714162355
8.10495337
7.5315518
6.966702853
6.354371632
5.666158094
4.920480024
4.002839464
51.25324099
50.99943838
50.84305614
50.54413121
50.48449776
50.37008348
50.10940081
49.79801417
49.26011746
48.76658111
48.20923896
47.36006255
46.36300732
45.34693614
43.97379943
42.67659898
41.02841569
39.25918228
37.36502898
35.28813953
33.00846991
30.48729822
27.9036303
25.23038717
22.45570731
19.778976
17.24476448
15.04112503
13.2032195
11.67595974
10.4615089
9.507840665
8.75883566
8.143089449
7.57602511
7.005494948
6.382656363
5.70735879
4.940944194
4.017227176
51.13866725
51.06185438
50.95276161
50.79508819
50.60603244
50.32906227
50.04389247
49.65416027
49.20277487
48.75852617
48.05917169
47.38341675
46.48644577
45.40781641
44.13402114
42.86731474
41.30492339
39.57427926
37.56103411
35.36334342
33.12523868
30.65078901
28.12399949
25.42728086
22.71070572
20.06475097
17.50083513
15.30690581
13.38756198
11.83603828
10.57297168
9.602898052
8.839731774
8.19687447
7.636281853
7.033167839
6.407298724
5.740716068
4.968719697
4.035776474
51.25189409
51.15160537
51.05113793
50.85311606
50.64413301
50.33952747
49.96269069
49.64920623
49.34522099
48.67266093
48.14344206
47.4133878
46.69467254
45.63024046
44.39728037
43.11035106
41.44405674
39.70170714
37.82372859
35.77608049
33.45990737
30.91291722
28.40221323
25.75090881
22.98589262
20.32437603
17.82350264
15.49393968
13.62091086
11.99820474
10.75777603
9.708967623
8.9335834
8.283911526
7.689342528
7.092831986
6.475710647
5.779322962
4.998666503
4.053675358
51.18439471
51.06374928
50.90724452
50.76043115
50.53801744
50.48212819
50.12178918
49.76896575
49.3803413
48.91754066
48.23968082
47.60887432
46.66545323
45.61591283
44.48575503
43.25168064
41.79929358
40.05507149
38.22927618
36.17109899
33.83033727
31.3386357
28.81851857
26.14256013
23.46173023
20.76412515
18.18670299
15.84365514
13.84293245
12.16903016
10.85558309
9.854262338
9.024817885
8.366726527
7.76076052
7.159818829
6.517973383
5.812725629
5.012367748
4.061828955
51.18809866
51.05496093
50.7775258
50.6091807
50.41554996
50.15266499
49.95858733
49.52646784
49.21081054
48.84856486
48.16933883
47.6666168
46.94982798
45.98922311
44.85537051
43.30078457
41.91594932
40.07550801
38.32626256
36.27172686
34.04350338
31.6670734
29.12887188
26.58182605
23.7619898
21.11302588
18.54780533
16.19576504
14.12069436
12.42898492
11.0470064
9.993228268
9.165380103
8.467292164
7.827078029
7.201345992
6.562638435
5.853720399
5.048237782
4.098595133
51.24656942
51.10716902
50.94923496
50.84152906
50.73268058
50.47094971
50.24256241
49.9674686
49.54567698
48.95227123
48.45145875
47.99111623
47.26818146
46.22538596
45.06041226
43.67978097
42.22539393
40.52890163
38.8315312
36.65149393
34.48166905
32.08825123
29.60739745
27.06449736
24.26483326
21.55435668
19.00262851
16.62383029
14.48949768
12.69952153
11.29546948
10.19228993
9.297706988
8.56708275
7.909570408
7.299431517
6.637182216
5.925492169
5.119742429
4.143243538
51.27631724
51.12974977
50.95791507
50.80122852
50.57390643
50.254639
50.02775041
49.86770485
49.44857259
49.18621668
48.58386285
47.85919769
47.03295001
46.22798057
45.27657856
44.0219928
42.50563246
40.76910098
39.03519264
37.05948194
34.75614955
32.49710066
30.10229002
27.44569468
24.89418399
22.17388412
19.49619796
17.0709891
14.88251786
13.05658487
11.55330347
10.40899391
9.44551755
8.713804251
8.040672842
7.416457023
6.730458707
6.003920874
5.188863792
4.173524894
51.27978756
51.23053931
51.05378708
50.90580484
50.73574244
50.5082093
50.2474352
49.98115801
49.59449477
49.1551393
48.62893261
47.9737469
47.28819006
46.61122176
45.61531991
44.24586267
42.86484787
41.35846909
39.52213286
37.48988695
35.37053951
33.08176524
30.51208193
28.0201829
25.35433266
22.72914208
20.00348311
17.5399864
15.32364575
13.37847046
11.89060794
10.63913984
9.676975734
8.865801386
8.203197477
7.526604993
6.857832144
6.118248309
5.259210851
4.233112933
51.30096142
51.14709813
50.9978804
50.97717708
50.88863698
50.75763078
50.68974909
50.40540398
50.22597357
49.67915774
49.08513644
48.55586241
47.71190154
46.83788585
45.90270648
44.58976352
43.07800828
41.5542053
39.75854514
37.87887034
35.74967559
33.46038469
31.18980017
28.731572
25.98476819
23.29195631
20.65849406
18.07666606
15.75802477
13.7995646
12.19727899
10.95040921
9.894795704
9.099835569
8.387667395
7.694279688
6.988033759
6.222313449
5.354800833
4.310901495
51.35716423
51.33121569
51.25230795
51.10203743
51.00738092
50.73504473
50.47157815
50.2920876
49.89696533
49.53476751
49.10523658
48.55047402
47.75343386
47.02731245
45.90086647
44.82582266
43.21552006
41.67861663
40.16206217
38.1751854
36.16335903
34.02758842
31.72069386
29.21474012
26.57287053
23.91351824
21.28569555
18.68052238
16.36135926
14.3111849
12.6145451
11.24185037
10.17356011
9.319599639
8.572963343
7.893002874
7.166048121
6.390598305
5.485735984
4.388276201
51.28392716
51.23245728
51.1095849
51.14846437
50.96173672
50.68957262
50.47208438
50.17450878
49.78481856
49.35858045
49.03170469
48.46541978
47.78173596
46.91620584
45.95237307
44.91721966
43.52957183
42.31764617
40.55777593
38.62939991
36.63336811
34.57354667
32.40889973
29.83239265
27.25577008
24.55655738
21.95352505
19.38287957
16.93972327
14.845283
13.01713905
11.5781303
10.4873794
9.558895616
8.830459419
8.139829502
7.388008935
6.59543635
5.665334484
4.526003832
51.36505559
51.2238303
51.1206415
51.02041235
50.9026819
50.79522435
50.44154425
50.24157356
50.11848966
49.8431513
49.23832795
48.79983582
48.11232664
47.13097082
46.20831913
45.05246437
44.03030726
42.55847162
40.85452767
39.09301524
37.2550312
35.04268464
32.86633492
30.3326388
27.87925505
25.33484798
22.75456185
20.06585769
17.67577266
15.44280931
13.56117719
12.02818429
10.86786697
9.911618136
9.160980181
8.42380697
7.704654505
6.896265513
5.922291561
4.703562534
51.26856942
51.23935404
51.20747946
51.03690857
50.95567007
50.82963012
50.62849481
50.41959652
50.2491384
49.86883728
49.4441197
48.91681279
48.23378423
47.42343042
46.54584444
45.39515438
44.19016137
42.82508118
41.25583491
39.79784607
37.90810779
35.85240996
33.71461461
31.28650975
28.69338195
26.04297719
23.54375712
20.8991361
18.39189191
16.10447882
14.14503065
12.5721513
11.3440141
10.30765709
9.519344001
8.793160402
8.097326122
7.306917958
6.341884716
5.038223726
51.29293286
51.21146442
51.16389927
51.02609935
51.07924657
50.89699052
50.63544661
50.30047978
50.09133761
49.79152271
49.4911438
48.92124916
48.36588687
47.74249542
46.89835172
45.86061387
44.66789734
43.39325519
42.03740654
40.4018557
38.63798664
36.65268661
34.19210075
31.96408742
29.51488647
26.87285174
24.36903578
21.67667834
19.21895837
16.87678937
14.90376774
13.220127
11.86377296
10.80650769
9.978766086
9.219598972
8.59775056
7.945386498
7.138304996
5.827673768
51.37297871
51.32460427
51.19300832
51.07337367
50.86644665
50.70803482
50.68288349
50.5511302
50.50172618
50.13862567
49.52937338
49.16745043
48.60966441
47.82600098
47.09937521
46.10776922
44.93292099
43.60479569
42.32721189
40.81981178
39.17963231
37.2094565
35.08309598
32.77818123
30.35027612
27.84928974
25.1930168
22.66232802
20.16676983
17.78763781
15.69262599
13.92661205
12.51357089
11.37489406
10.48242598
9.805317024
9.251621129
8.785264356
8.523450667
9.364260806
51.29906518
51.174599
51.06317259
51.06483275
50.98827985
50.84919655
50.84798044
50.6034169
50.5268887
50.27671734
49.75514848
49.45534894
48.82042118
48.26735158
47.40598778
46.58910221
45.5212227
44.31397295
42.83967757
41.48196938
39.84037503
37.90099415
35.65474203
33.51444964
31.25343735
28.89912599
26.27716846
23.65832538
21.14058367
18.79616085
16.58337345
14.73629446
13.25917489
12.02462705
11.10714714
10.4408056
9.971315283
9.762949799
9.999370137
11.5439373
51.38697009
51.28513057
51.2152071
51.10415008
51.04448316
50.88155533
50.72281672
50.63451516
50.28344571
50.16134382
49.73897174
49.38178283
49.05980309
48.45699219
47.67378555
46.77864435
45.81295969
44.63517832
43.37542995
41.91380695
40.27582273
38.51403711
36.61558331
34.3560815
32.15925079
29.79104564
27.36370818
24.82240319
22.30865279
19.83658628
17.62157095
15.67292527
14.02229289
12.71651752
11.76387218
11.13986911
10.70957895
10.68588003
11.17632874
12.58450377
51.39833415
51.3103556
51.25380495
51.19874697
51.14284422
50.94818229
50.69107086
50.36234217
50.1789737
49.94938779
49.55980259
49.24082175
48.6996135
48.27489311
47.65431718
46.83253603
45.86970782
44.85834819
43.76755025
42.60276233
40.90192534
39.2476731
37.46154219
35.32837343
33.29659174
30.8787707
28.32513014
25.96522875
23.46196096
21.03818299
18.70917829
16.71176753
14.93331837
13.60919722
12.55985021
11.90837855
11.52417197
11.54340037
11.98852563
13.18658311
51.3771753
51.28063972
51.16668905
50.99783935
50.95088032
50.94971782
50.85920448
50.64587249
50.52720573
50.21216477
50.01159202
49.71815883
49.07725906
48.48230018
47.89730469
47.35657292
46.33359547
45.54401202
44.25686318
43.0289907
41.46197589
39.9630952
38.20871838
36.15436294
34.10920093
32.04558465
29.61128361
27.12231435
24.64964149
22.18177955
19.8204275
17.73076823
15.96387349
14.5173336
13.40135464
12.68718162
12.32681625
12.31890698
12.70193921
13.64748627
51.31109304
51.23542105
51.23170213
51.14681598
51.06906685
50.98114342
50.83520657
50.72421816
50.44369074
50.32141413
50.08240118
49.77062079
49.34529189
48.86347699
48.31082725
47.72145735
46.93083127
45.86915987
44.85101883
43.64373272
42.31531499
40.83751823
39.10688652
37.10316859
35.00798786
32.95925969
30.61085719
28.26717908
25.81088668
23.36450866
21.05944455
18.93271984
17.06869414
15.54277087
14.36335663
13.52997076
13.07523521
12.97721778
13.30041819
14.04390249
51.39418061
51.39532542
51.30249965
51.27503327
51.17396906
51.10150958
50.97629332
50.87760699
50.69545206
50.57966094
50.36059931
50.0544269
49.61615491
49.13482112
48.66506533
48.04040773
47.36300547
46.38307628
45.39445498
44.15332841
43.00965201
41.45600329
39.92262765
37.97760348
36.18265925
34.0251354
31.77483771
29.56069224
27.15875436
24.76801145
22.47059925
20.3197372
18.38457301
16.68498458
15.35677449
14.46263093
13.84894186
13.66627548
13.83177324
14.41166893
51.33800059
51.26095145
51.21757607
51.21878565
51.15680061
51.10762179
51.09498164
50.92099581
50.74510783
50.56958039
50.30382799
49.93660182
49.66379957
49.19398083
48.89935964
48.27617362
47.68402839
46.7596869
45.76780919
44.70292481
43.57407941
42.12960803
40.57221942
38.75299327
36.93440105
35.19066379
32.91409469
30.76992875
28.47199165
26.10547546
23.85352397
21.61728825
19.61734722
17.89552732
16.5127213
15.44145167
14.75993046
14.3919538
14.44543485
14.80786313
51.32740734
51.34755274
51.33703531
51.21337262
51.01540892
50.94576001
50.89021429
50.82325372
50.71325435
50.60901407
50.50060616
50.28772559
49.91137561
49.40498177
48.92326032
48.25491258
47.78933153
47.06627641
46.149051
45.2596788
44.1170704
42.88424192
41.37695035
39.75532146
37.91840862
36.2127298
34.15930865
31.94702111
29.71111059
27.51686231
25.23821364
23.07982282
21.10524023
19.23031833
17.74470009
16.5356415
15.68325598
15.14155702
15.01537555
15.19959036
51.37786697
51.37332626
51.36693311
51.36187344
51.33827417
51.29881978
51.23828233
51.16421392
50.93488877
50.79799666
50.64388186
50.32205287
50.08805896
49.66795773
49.11573
48.6420033
48.15793758
47.53348008
46.49069923
45.67693373
44.63182019
43.48829103
42.1890695
40.63685815
39.03572804
37.24062729
35.2194184
33.13846645
30.91443503
28.77677668
26.75152068
24.58664679
22.50926338
20.6552636
19.01212041
17.67919231
16.69052216
16.00698147
15.69950045
15.72075746
51.37798941
51.30301405
51.2858239
51.29652122
51.28767674
51.1578858
51.0891334
51.01100912
50.98337037
50.96451515
50.77421591
50.55446955
50.14177104
49.91732715
49.49371342
49.11526966
48.61298512
48.02190937
47.17458711
46.41348265
45.14065035
44.17796661
42.90385445
41.43173749
39.86956296
38.18373197
36.38958582
34.48901854
32.40168954
30.4046092
28.22283935
26.15828748
24.02835867
22.11161159
20.40736076
18.97069542
17.83281313
16.95054951
16.46770723
16.27365962
51.37598712
51.35484313
51.23213209
51.2308046
51.2414429
51.18152066
51.1293819
51.1536214
51.02574444
50.93342049
50.63913379
50.52481059
50.28931126
50.02044541
49.49885587
49.05045186
48.66985774
48.18495333
47.50148481
46.78994073
45.88995078
44.77744832
43.71219221
42.31724086
40.82597901
39.3275404
37.57104713
35.81819357
33.79917627
31.78464336
29.85550105
27.8130051
25.70554908
23.78478796
21.90567198
20.34080448
19.05175042
18.0812155
17.38061053
16.92004041
51.42042995
51.3475866
51.44144826
51.37984013
51.35186564
51.32436077
51.11812928
50.99747279
50.98120393
50.82791295
50.75134662
50.63577229
50.40416737
50.13641511
49.72147062
49.38146652
48.94269758
48.49653889
47.85867595
47.14795155
46.15618662
45.23008209
44.13694284
42.93846539
41.51549205
40.01514626
38.47563878
36.84147689
35.03787527
33.14063659
31.26476661
29.27801292
27.22742252
25.42093386
23.48496127
21.79648341
20.44205534
19.28514365
18.4074386
17.8053253
51.39783861
51.45177627
51.40352238
51.37238428
51.31904536
51.24158447
51.19483924
51.12077182
50.90139453
50.78310236
50.75706348
50.70056258
50.51758682
50.25205502
49.81470014
49.5726449
49.25447876
48.69745257
48.18177009
47.59357475
46.93476547
45.87614914
44.95900725
43.83481909
42.54644114
41.20534627
39.82052337
38.15332851
36.39237288
34.59284998
32.69118316
30.67070686
28.78108666
26.81677379
25.10891226
23.38197222
21.84199003
20.56247089
19.52918518
18.7097964
51.43869557
51.34515021
51.27173922
51.1978298
51.20565881
51.27266931
51.19198414
51.10083482
51.07839734
50.98966107
50.87641459
50.64224257
50.49816814
50.05058357
49.77809099
49.55766867
49.3398564
48.91763745
48.43596144
47.89410092
47.15089585
46.17703022
45.39772536
44.29483809
43.01974696
41.98290731
40.65429076
39.24616732
37.63293415
36.00441797
34.25363963
32.4598488
30.47677272
28.56898687
26.797737
25.07232888
23.42400924
22.03289502
20.81758352
19.81562239
51.39697494
51.3428515
51.31315951
51.31563408
51.31514151
51.32034971
51.28171361
51.22481896
51.1476126
50.99948486
50.73817742
50.66966851
50.58295588
50.40760917
50.22595818
49.99873571
49.71184263
49.37084868
48.9387537
48.28040993
47.65228975
46.75772739
46.02923872
45.12823665
44.08684835
42.76332757
41.67203937
40.25162841
38.86811023
37.40907201
35.66456238
34.02582693
32.08919265
30.15149429
28.46136749
26.64492862
25.05420042
23.53288924
22.25063616
21.12844204
51.49084878
51.4262215
51.42304974
51.40847909
51.34904195
51.22203668
51.24294812
51.12572152
51.06048586
51.04318449
50.81326749
50.74748546
50.60111187
50.46842397
50.24551342
49.86723216
49.6958614
49.37413764
48.99333809
48.46208757
48.08099167
47.4547249
46.82111649
45.97394592
44.9584279
43.93430001
42.71675291
41.50550315
40.05841146
38.59287311
37.02216941
35.46761171
33.69184059
31.90616766
30.14329791
28.53449854
26.81792609
25.2802501
23.7738486
22.49391663
51.46152496
51.44633848
51.45569128
51.36720832
51.32118525
51.28712428
51.18955236
51.22340041
51.12278017
50.9802375
50.9218802
50.75338582
50.68306167
50.56219415
50.39266329
50.28965398
50.0808544
49.66736052
49.3554555
48.86667029
48.38452291
47.81493292
47.17994217
46.46146474
45.43486102
44.59558713
43.43834779
42.27400179
41.13187101
39.56993311
38.15758699
36.63775587
35.15318744
33.41578514
31.73555083
30.03491936
28.55737257
26.98305125
25.43201221
24.0364526
51.37958524
51.34738714
51.3333433
51.35493098
51.37128667
51.37863245
51.32670833
51.24540614
51.21521681
51.1778867
51.10942781
51.0457502
50.95309771
50.96650608
50.73688472
50.49708818
50.40378187
49.9956773
49.651395
49.19381484
48.68138615
48.13983361
47.49259793
46.80881976
45.94214473
45.21265017
44.20225663
43.10659304
42.0444333
40.82180496
39.4853478
38.11208063
36.64699506
35.0025292
33.48534994
31.82417759
30.20912535
28.64667109
27.05678288
25.67423979
51.43525491
51.40688127
51.3516097
51.34691446
51.34471631
51.32170119
51.3542393
51.35197279
51.3060585
51.26489699
51.28208579
50.99717067
50.87462772
50.64947338
50.43356838
50.32121097
50.22298307
49.88812953
49.60405657
49.2288697
48.89782181
48.61867228
48.06687363
47.450389
46.60840116
45.98733776
45.0155724
44.03304644
43.00344116
41.9973628
40.63468155
39.45613829
38.09500318
36.6173291
35.09062588
33.39678276
31.81266303
30.25685786
28.69199215
27.37407793
51.42307814
51.39380465
51.41388021
51.45698975
51.41581638
51.2819951
51.28012031
51.27646887
51.12899415
51.03359162
50.85152332
50.90215135
50.84198086
50.89547208
50.71131721
50.5474124
50.37133439
50.10826871
49.9560197
49.73848402
49.35576146
48.81060463
48.36219179
47.86788559
47.2502462
46.60427715
45.85846293
44.88401471
43.96429043
42.93078885
41.74352229
40.67561015
39.4750871
38.15810742
36.52492395
35.11570151
33.73583242
31.99706117
30.47043855
28.96011157
51.33693979
51.30248977
51.28914935
51.16213237
51.1071788
51.11818725
51.15280399
51.13424562
51.22543123
51.20019136
51.09990968
51.01489322
51.02010721
50.92776868
50.83928162
50.82193325
50.73310851
50.48880485
50.32617161
50.00658291
49.58077931
49.13371637
48.70556018
48.1946295
47.61016755
46.94988777
46.29979394
45.52626759
44.59943651
43.60634694
42.46645141
41.50215802
40.47217294
39.22649942
37.90274313
36.50347138
35.08602458
33.7337181
32.27670483
30.7344101
51.46459619
51.42968247
51.43462265
51.55787792
51.62375608
51.69016885
51.56069454
51.45656617
51.38469718
51.28570717
51.24654542
51.19473012
51.15943493
51.01682384
50.92647325
50.90131909
50.70049625
50.46894596
50.26015919
50.04048985
49.7793671
49.36663663
49.11885584
48.69053789
48.36229665
47.7061356
47.08824182
46.36179614
45.6615426
44.75165285
43.70404391
42.62613171
41.52766556
40.55478218
39.20374668
37.99786358
36.6275105
35.22621342
33.82943219
32.4890544
51.43052515
51.46121184
51.39578999
51.33309134
51.32561842
51.28220833
51.35254463
51.30567664
51.22815907
51.26223977
51.18029037
51.11492857
51.08395512
51.07055945
51.02024501
50.91099493
50.68034187
50.4615751
50.36890976
50.18250082
49.9619987
49.77308165
49.37844081
48.93216159
48.51659327
48.03314369
47.60043673
46.96002869
46.260837
45.49808433
44.57957666
43.57858137
42.56267689
41.57614772
40.37617202
39.34401175
38.08533594
36.75295081
35.38121446
34.10866799
51.48500712
51.4655534
51.47787853
51.47078413
51.35323819
51.35996251
51.33501828
51.34224901
51.32897799
51.25284633
51.1801356
51.21503264
51.07575018
50.98176239
50.91853013
50.93812409
50.86887416
50.71985246
50.55123472
50.28663546
50.04737593
49.78224147
49.57661718
49.21659769
48.76410106
48.30440197
47.86993154
47.41082184
46.8497513
46.20281776
45.42885757
44.55184577
43.57414114
42.73583647
41.65933513
40.45873817
39.47779063
38.29434782
37.01481649
35.7376978
51.46152703
51.366466
51.38486547
51.46586745
51.56660487
51.50757581
51.54577798
51.56214052
51.55914044
51.50996932
51.46517982
51.39234261
51.39090114
51.26599021
51.19472361
51.17141769
51.15303909
50.98575259
50.79556905
50.48904509
50.32970502
50.24049504
49.97725177
49.57581529
49.17692239
48.83301343
48.37347341
47.91067722
47.31932906
46.79567362
46.00754784
45.45741314
44.69144317
43.73971841
42.77423878
41.77269233
40.73294728
39.62551763
38.57213328
37.30405663
51.46964087
51.50902636
51.57434383
51.49769925
51.38508201
51.44883309
51.38121091
51.31763689
51.31185799
51.34467847
51.29336696
51.17677775
51.1359358
51.18062217
51.1747208
51.09411533
50.96878122
50.91937824
50.8995399
50.71263741
50.56349384
50.38253305
50.14014222
49.79786881
49.51604103
49.40334224
49.1298818
48.71510134
48.1476615
47.6054909
46.94107273
46.36870497
45.64234796
44.85815836
43.92550317
42.95034305
41.88373369
40.89586666
39.97853057
38.65241071
51.41175622
51.47462106
51.37557499
51.46099187
51.49342026
51.49575796
51.40528862
51.3144547
51.31313617
51.20601993
51.25542413
51.30344434
51.24332154
51.20942643
51.12259213
51.02170858
50.93111778
50.81806763
50.63811926
50.50309541
50.46260731
50.38063193
50.30901029
50.13198707
49.74860823
49.47909866
49.10817676
48.63455778
48.21239169
47.63779672
47.24263004
46.69403215
46.00923884
45.40711284
44.77139064
43.9170986
42.90671035
42.10872298
41.13720615
40.14642399
51.46260744
51.41799957
51.39273244
51.39686192
51.38499941
51.29863985
51.38790536
51.44596822
51.36942967
51.35624389
51.35952866
51.2118154
51.14669995
51.09137652
51.03826046
51.01727438
50.94982157
50.90403765
50.8982025
50.69664471
50.45656033
50.42069751
50.35083965
50.05999646
49.86455574
49.57749541
49.39954522
49.05349018
48.79188768
48.39721648
48.02607291
47.50443743
46.83824413
46.30363628
45.58397366
44.74500122
44.01703901
43.16227064
42.34318319
41.42177636
51.5016729
51.46813112
51.56545256
51.55709043
51.60671964
51.54421302
51.39617595
51.38468302
51.36469828
51.33257249
51.31416257
51.20788576
51.18661292
51.23068609
51.20673449
51.23131319
51.13116344
51.03195541
51.04479692
50.98605455
50.80354473
50.81859557
50.67021954
50.55501945
50.29208971
50.01450569
49.78090832
49.41607908
49.09929559
48.77862612
48.41372857
47.89895519
47.44571342
46.82688711
46.40910808
45.81677703
44.96567324
44.36791169
43.58170874
42.74261497
51.48924415
51.54242181
51.43337918
51.41498907
51.4493333
51.50285162
51.49140599
51.52896337
51.55566625
51.59327797
51.56177941
51.57295272
51.51102758
51.47670526
51.43938413
51.4471469
51.36418025
51.21917748
51.20340662
51.09739687
50.82519196
50.62882638
50.47891852
50.36190537
50.22454418
50.11895454
49.9860833
49.5253909
49.36210718
49.10492668
48.93545065
48.48730316
48.02061692
47.5691796
47.06076093
46.39386808
45.67950997
45.02107759
44.29391467
43.48448346
51.37987446
51.38039063
51.4777057
51.48644086
51.45770376
51.47662278
51.52804416
51.48962151
51.47782227
51.47121145
51.45148358
51.49865868
51.52986317
51.39486632
51.34221016
51.27328114
51.16969898
51.14486755
51.13724666
51.09066433
50.96151834
50.94416082
50.80654656
50.67492643
50.62447045
50.38351374
50.17846026
50.01708853
49.82412628
49.52373446
49.17828235
48.99246681
48.56399102
48.01317599
47.42387614
47.04405742
46.42684844
45.83989927
45.17516075
44.57377867
51.50201776
51.48046693
51.45003081
51.39396989
51.36781678
51.34519982
51.294609
51.35326141
51.36030006
51.39185125
51.31676301
51.28630021
51.27005069
51.25934789
51.24690165
51.25376595
51.30158225
51.27299728
51.21685742
51.09248725
50.96821639
50.92561178
50.82705038
50.84199193
50.69358925
50.64940793
50.41188871
50.11206743
49.95760503
49.48349244
49.36996059
49.06410514
48.87620152
48.41131877
48.11770629
47.70070596
47.23142904
46.77463263
46.14375402
45.42585619
51.49205846
51.48315299
51.50493633
51.52239162
51.4770744
51.36561282
51.32827581
51.2316612
51.21065719
51.13132328
51.28809217
51.28571245
51.22478797
51.17542913
51.2519975
51.28284763
51.1690693
51.04444363
50.98822347
50.95565238
50.9762034
50.97758382
50.80800424
50.753578
50.70843158
50.68163191
50.53982231
50.33075914
50.1027648
49.96549337
49.79424435
49.51166704
49.23961448
48.85556062
48.57699519
48.20953061
47.86746144
47.57803537
47.16416231
46.56596934
51.42370823
51.42132084
51.32372114
51.35450941
51.39320722
51.46353406
51.46966007
51.49189949
51.48438893
51.4257623
51.34107963
51.32550783
51.34816692
51.31372182
51.28781286
51.30241639
51.23346087
51.20369603
51.16304018
51.13392875
51.1161354
51.06055391
51.05896496
50.96109121
50.87224349
50.67125985
50.57322846
50.52539226
50.37287074
50.18453498
50.08305699
49.89720062
49.65008418
49.31349487
48.90406606
48.5674733
48.24674634
47.87486128
47.49763722
46.95831714
51.40808991
51.4743976
51.57833624
51.55323612
51.6058735
51.63856459
51.58726779
51.50569185
51.56838981
51.56567126
51.54304362
51.54888506
51.56841622
51.51180755
51.36610185
51.34869493
51.31082756
51.27013238
51.26920644
51.11994071
50.97445655
50.98189262
50.88538718
50.75333938
50.67236492
50.65334476
50.63638627
50.55896027
50.42112962
50.31653421
50.17753633
49.96841019
49.76539517
49.5537409
49.4256561
49.14660289
48.74833052
48.45755136
48.21934535
47.81967539
51.49112702
51.42440867
51.32620245
51.32457934
51.3568024
51.36125776
51.42573473
51.50905329
51.43783576
51.42556354
51.40480768
51.35113654
51.37933833
51.38747478
51.44076593
51.4417146
51.39805093
51.38674321
51.28832947
51.31634242
51.33629462
51.21297524
51.19357967
51.06641811
50.98370461
50.82953304
50.7682185
50.54520227
50.48859368
50.34789215
50.28128762
50.12142349
49.89145292
49.73122835
49.52815626
49.3049668
48.95347505
48.67733546
48.29316251
47.94002062
51.41391026
51.3890449
51.39012806
51.39174959
51.34002834
51.32616598
51.25674541
51.25327564
51.22639576
51.27978857
51.27918622
51.29821511
51.33218866
51.2530255
51.19502786
51.14487458
51.24704519
51.22259854
51.28310891
51.35009504
51.27917626
51.27139293
51.26098773
51.1232425
51.13197693
51.05288546
50.9993875
51.05530654
50.85851042
50.67753414
50.40574771
50.26460213
50.14168989
49.91438864
49.65554596
49.50626175
49.02515966
48.86189057
48.61285757
48.4310369
51.45520035
51.49043945
51.47176978
51.45674955
51.41903552
51.41048378
51.44649361
51.40138091
51.40373545
51.33282834
51.33057428
51.31432427
51.3066778
51.45654646
51.50345758
51.49484619
51.42654584
51.36997551
51.37131751
51.25644749
51.25362543
51.1954584
51.14671878
51.15797056
51.13426046
51.05392497
51.01812881
50.84219235
50.81118703
50.812666
50.76356615
50.67253805
50.48767857
50.3619903
50.26831062
50.17947173
49.89543968
49.6980772
49.39303056
48.94644907
51.48148321
51.50424809
51.49956878
51.50223853
51.52139131
51.52920875
51.49467354
51.5274007
51.53694181
51.56334612
51.55216047
51.52530186
51.41907332
51.43042472
51.4321071
51.43359927
51.39826246
51.35102764
51.3252343
51.37675634
51.38000501
51.34187445
51.35918535
51.25497627
51.20188337
51.12412362
51.1147836
51.09637706
50.92234637
50.83291249
50.77695297
50.67669426
50.53011754
50.38809508
50.32453433
50.18137021
49.9928233
49.7916755
49.73600896
49.51159931
19.92762905
29.60844573
33.76080997
36.29777512
38.15661637
39.47877473
40.42255795
41.03981588
42.27266183
43.32245569
44.33962761
45.05431905
45.79380043
46.35011517
47.37459693
47.78029949
48.72906738
49.40990096
50.29207711
50.57026747
51.66387506
52.29171121
52.86656201
53.36729516
54.32116057
54.98206868
55.96308687
56.20328272
57.02215856
57.51680394
58.81755525
59.35282508
60.78099453
62.34388918
63.72256223
65.16824567
67.10734589
68.49924853
71.5914792
82.21347783
16.12729021
22.61944912
28.06087353
31.73681556
34.48792123
36.61080045
38.42619969
39.6697116
41.12459072