/*--------------------------------*- C++ -*----------------------------------*\
| =========                 |                                                 |
| \\      /  F ield         | OpenFOAM: The Open Source CFD Toolbox           |
|  \\    /   O peration     | Version:  v1706                                 |
|   \\  /    A nd           | Web:      www.OpenFOAM.com                      |
|    \\/     M anipulation  |                                                 |
\*---------------------------------------------------------------------------*/
FoamFile
{
    version     2.0;
    format      ascii;
    class       volScalarField;
    location    "0.004";
    object      meanCollisionTime_Ar;
}
// * * * * * * * * * * * * * * * * * * * * * * * * * * * * * * * * * * * * * //

dimensions      [0 0 1 0 0 0 0];


internalField   nonuniform List<scalar> 
4000
(
4.105102403e-06
4.08992511e-06
4.070115087e-06
4.048534178e-06
4.023840474e-06
4.000017458e-06
3.95213461e-06
3.912487556e-06
3.879056167e-06
3.785653377e-06
3.732608654e-06
3.638060418e-06
3.548018794e-06
3.470602915e-06
3.365184538e-06
3.252707626e-06
3.143797722e-06
2.981257233e-06
2.80482244e-06
2.621342486e-06
2.445647038e-06
2.257983271e-06
2.056943014e-06
1.84312974e-06
1.641920654e-06
1.448063876e-06
1.261070076e-06
1.107287991e-06
9.804020031e-07
8.720667299e-07
7.943238932e-07
7.267107538e-07
6.728369992e-07
6.302452206e-07
5.903709416e-07
5.463041508e-07
5.011592847e-07
4.477135582e-07
3.876384304e-07
3.159271162e-07
4.090886223e-06
4.084212729e-06
4.073207988e-06
4.067999515e-06
4.039231655e-06
4.018724907e-06
3.975661547e-06
3.952426585e-06
3.913169065e-06
3.836612025e-06
3.797768839e-06
3.73718061e-06
3.643722213e-06
3.564657132e-06
3.465834743e-06
3.343851999e-06
3.198498775e-06
3.070304536e-06
2.889885276e-06
2.718246109e-06
2.536143213e-06
2.327831272e-06
2.134677481e-06
1.916000754e-06
1.716025304e-06
1.50427132e-06
1.313109255e-06
1.144070606e-06
1.005019398e-06
8.932579596e-07
8.038882128e-07
7.370089052e-07
6.821243738e-07
6.369478346e-07
5.946348097e-07
5.507871023e-07
5.039269177e-07
4.498441989e-07
3.893361061e-07
3.169815559e-07
4.094575411e-06
4.085945276e-06
4.073848947e-06
4.067430649e-06
4.040997395e-06
4.032076222e-06
4.006773398e-06
3.964639639e-06
3.919634456e-06
3.85764293e-06
3.802319145e-06
3.740065794e-06
3.667717484e-06
3.57237442e-06
3.475542551e-06
3.361456135e-06
3.230978522e-06
3.093421392e-06
2.926414938e-06
2.76063491e-06
2.571169922e-06
2.372462516e-06
2.16003735e-06
1.952096836e-06
1.741937171e-06
1.536010842e-06
1.336870224e-06
1.162381945e-06
1.020553209e-06
9.029521204e-07
8.129198606e-07
7.42429363e-07
6.863755434e-07
6.411690291e-07
5.957310367e-07
5.525373295e-07
5.044783717e-07
4.504838723e-07
3.914266668e-07
3.173906476e-07
4.103605413e-06
4.094799821e-06
4.067961217e-06
4.040989184e-06
4.025383938e-06
4.010815472e-06
3.989450971e-06
3.958088764e-06
3.910664298e-06
3.859445318e-06
3.805385144e-06
3.74238571e-06
3.671870473e-06
3.605203166e-06
3.511941702e-06
3.382586986e-06
3.255777836e-06
3.106960898e-06
2.949443509e-06
2.7859475e-06
2.589247606e-06
2.39170754e-06
2.191442388e-06
1.97387732e-06
1.756816301e-06
1.546128971e-06
1.350129731e-06
1.173692051e-06
1.026245989e-06
9.095126796e-07
8.179540374e-07
7.4671341e-07
6.897501257e-07
6.423254185e-07
5.969227611e-07
5.525948059e-07
5.050101299e-07
4.513667879e-07
3.914492718e-07
3.178469591e-07
4.093359502e-06
4.077329192e-06
4.07479443e-06
4.063926423e-06
4.033834216e-06
4.023265405e-06
3.990302181e-06
3.960513983e-06
3.933787514e-06
3.875859645e-06
3.82759486e-06
3.768009546e-06
3.698762976e-06
3.620299859e-06
3.51876651e-06
3.412915046e-06
3.278942191e-06
3.123736093e-06
2.957967646e-06
2.791518765e-06
2.605402567e-06
2.40522552e-06
2.193183578e-06
1.977139296e-06
1.77372465e-06
1.563263503e-06
1.36270378e-06
1.18454898e-06
1.033980057e-06
9.166145694e-07
8.219182763e-07
7.511331132e-07
6.94231347e-07
6.455858249e-07
5.991787752e-07
5.571281755e-07
5.071899687e-07
4.523506696e-07
3.911596965e-07
3.184605877e-07
4.095561537e-06
4.080729721e-06
4.058265895e-06
4.050894339e-06
4.033148574e-06
4.022725327e-06
3.998333846e-06
3.971509013e-06
3.937963018e-06
3.895544509e-06
3.847050636e-06
3.788218171e-06
3.71270997e-06
3.625840494e-06
3.525371137e-06
3.407658668e-06
3.282094775e-06
3.133188004e-06
2.974058385e-06
2.805240816e-06
2.626943598e-06
2.422837717e-06
2.215902439e-06
1.993697986e-06
1.781272381e-06
1.568668277e-06
1.370105536e-06
1.191821049e-06
1.045771757e-06
9.232627988e-07
8.311524442e-07
7.588018848e-07
6.989268009e-07
6.501366055e-07
6.024390152e-07
5.585802261e-07
5.09503367e-07
4.552848006e-07
3.922575739e-07
3.189333879e-07
4.09481567e-06
4.085248803e-06
4.072084517e-06
4.060875366e-06
4.040554538e-06
4.017178594e-06
3.994080261e-06
3.967156824e-06
3.939784419e-06
3.900797515e-06
3.857057803e-06
3.785786757e-06
3.7157615e-06
3.630563699e-06
3.525096926e-06
3.422282232e-06
3.29501224e-06
3.147203329e-06
2.987047501e-06
2.811454274e-06
2.628013115e-06
2.434671686e-06
2.229514651e-06
2.001763176e-06
1.79352698e-06
1.584225387e-06
1.385325915e-06
1.204494407e-06
1.056756645e-06
9.301032954e-07
8.359782741e-07
7.616499206e-07
7.029568859e-07
6.5379212e-07
6.061786952e-07
5.606340285e-07
5.120008565e-07
4.568185655e-07
3.942727918e-07
3.200997129e-07
4.099872611e-06
4.088369972e-06
4.070516672e-06
4.064576899e-06
4.051358492e-06
4.03994401e-06
4.008406412e-06
3.98933105e-06
3.944270058e-06
3.904197948e-06
3.846627275e-06
3.792972222e-06
3.722462827e-06
3.62541296e-06
3.530941437e-06
3.429233573e-06
3.31149629e-06
3.161881871e-06
3.007989628e-06
2.842712305e-06
2.64489686e-06
2.459488708e-06
2.245592379e-06
2.039261241e-06
1.822054209e-06
1.606627536e-06
1.402317853e-06
1.226925678e-06
1.071248763e-06
9.426787561e-07
8.453282146e-07
7.70224521e-07
7.088123808e-07
6.572350435e-07
6.100284208e-07
5.635614193e-07
5.14860431e-07
4.592092923e-07
3.973886816e-07
3.226477277e-07
4.092594668e-06
4.081707405e-06
4.069673167e-06
4.05245398e-06
4.034163017e-06
4.017333735e-06
3.989125941e-06
3.964574144e-06
3.945597937e-06
3.909038493e-06
3.857044561e-06
3.801252522e-06
3.737160627e-06
3.652461808e-06
3.563759699e-06
3.443507399e-06
3.309475182e-06
3.174012544e-06
3.022448157e-06
2.848534417e-06
2.668721314e-06
2.478852965e-06
2.277679413e-06
2.071392107e-06
1.848019383e-06
1.63322064e-06
1.434238576e-06
1.249460222e-06
1.087990909e-06
9.589572833e-07
8.589841229e-07
7.783563229e-07
7.158517457e-07
6.628889183e-07
6.152819391e-07
5.675010526e-07
5.181155312e-07
4.622256425e-07
3.999458584e-07
3.244688646e-07
4.102346113e-06
4.094919114e-06
4.086560513e-06
4.073487732e-06
4.051972474e-06
4.034331821e-06
4.00817563e-06
3.980263218e-06
3.932148177e-06
3.895659558e-06
3.836706992e-06
3.787826536e-06
3.721177632e-06
3.639893362e-06
3.555123071e-06
3.455083712e-06
3.328911952e-06
3.19645434e-06
3.051093311e-06
2.885376316e-06
2.706326942e-06
2.504147764e-06
2.30374554e-06
2.096508888e-06
1.873398067e-06
1.660860865e-06
1.460260141e-06
1.265819465e-06
1.106668579e-06
9.732317426e-07
8.692674644e-07
7.882241246e-07
7.227026052e-07
6.698381851e-07
6.206443994e-07
5.73745389e-07
5.221385471e-07
4.655053609e-07
4.021274672e-07
3.257416562e-07
4.100542351e-06
4.091743429e-06
4.075940461e-06
4.067368204e-06
4.053293744e-06
4.032740903e-06
4.021167631e-06
3.994118001e-06
3.958374777e-06
3.919783236e-06
3.877435268e-06
3.827036124e-06
3.757941356e-06
3.672772785e-06
3.58049431e-06
3.481574723e-06
3.342110527e-06
3.214891834e-06
3.064036939e-06
2.899802429e-06
2.722232693e-06
2.53831706e-06
2.331551755e-06
2.121782798e-06
1.908777561e-06
1.686915169e-06
1.485586342e-06
1.298840283e-06
1.134660565e-06
9.955015438e-07
8.839177475e-07
8.014291835e-07
7.328556457e-07
6.80330617e-07
6.268897074e-07
5.779340114e-07
5.260577261e-07
4.696533692e-07
4.05104239e-07
3.279475752e-07
4.096909083e-06
4.084530646e-06
4.06846703e-06
4.054998026e-06
4.034535815e-06
4.026168857e-06
4.009507735e-06
3.994345238e-06
3.965339803e-06
3.935618121e-06
3.89038268e-06
3.853396103e-06
3.766640478e-06
3.680359687e-06
3.588525834e-06
3.484860484e-06
3.36564321e-06
3.232618384e-06
3.095820019e-06
2.938114613e-06
2.746614241e-06
2.575936987e-06
2.371463983e-06
2.157613011e-06
1.94849938e-06
1.732214373e-06
1.525577074e-06
1.328579145e-06
1.158304099e-06
1.019382168e-06
9.039740447e-07
8.147636398e-07
7.44725728e-07
6.879293684e-07
6.348849499e-07
5.849245301e-07
5.32777799e-07
4.756127705e-07
4.089024401e-07
3.303326036e-07
4.102253795e-06
4.091557579e-06
4.075713176e-06
4.068588598e-06
4.06617433e-06
4.056851883e-06
4.016345715e-06
3.994679161e-06
3.970773093e-06
3.938132068e-06
3.87890983e-06
3.830935072e-06
3.7702224e-06
3.707819959e-06
3.614465071e-06
3.505860616e-06
3.394795329e-06
3.270495804e-06
3.120738961e-06
2.969465445e-06
2.798114083e-06
2.604323635e-06
2.404667173e-06
2.203393476e-06
1.982181018e-06
1.760192344e-06
1.562129342e-06
1.360302205e-06
1.188215435e-06
1.042237676e-06
9.250424377e-07
8.29643203e-07
7.562910789e-07
6.973946483e-07
6.442957711e-07
5.929889758e-07
5.397613054e-07
4.81637605e-07
4.147053425e-07
3.338570218e-07
4.101527696e-06
4.100905018e-06
4.085576193e-06
4.070496675e-06
4.049124247e-06
4.040161276e-06
4.021247869e-06
4.000375195e-06
3.988114493e-06
3.952503248e-06
3.900007521e-06
3.858753995e-06
3.79377733e-06
3.726064389e-06
3.640580034e-06
3.525054568e-06
3.414766646e-06
3.304152834e-06
3.156408077e-06
3.000952823e-06
2.831778881e-06
2.638046439e-06
2.446784071e-06
2.243887613e-06
2.025054424e-06
1.813992877e-06
1.601594807e-06
1.401977314e-06
1.224973398e-06
1.069628596e-06
9.478487825e-07
8.490721908e-07
7.735955842e-07
7.107641445e-07
6.549356919e-07
6.030694804e-07
5.503696432e-07
4.899634945e-07
4.208829226e-07
3.384366088e-07
4.099801579e-06
4.088294304e-06
4.078606178e-06
4.071520936e-06
4.072717546e-06
4.054987201e-06
4.041853196e-06
4.016524426e-06
3.979397437e-06
3.949804717e-06
3.911812611e-06
3.86976516e-06
3.815040248e-06
3.743864472e-06
3.65728477e-06
3.562048848e-06
3.445532823e-06
3.328798618e-06
3.185483278e-06
3.028826898e-06
2.868352655e-06
2.690524362e-06
2.489629829e-06
2.292584903e-06
2.075217635e-06
1.859876136e-06
1.647649878e-06
1.444384906e-06
1.269018189e-06
1.109738145e-06
9.741621885e-07
8.729169684e-07
7.951891388e-07
7.259266254e-07
6.691687679e-07
6.17659706e-07
5.599806561e-07
4.997335937e-07
4.28434064e-07
3.441501908e-07
4.098487769e-06
4.089528432e-06
4.090843343e-06
4.084113498e-06
4.07203608e-06
4.054704329e-06
4.037307361e-06
4.013459199e-06
3.998355943e-06
3.982316318e-06
3.941118268e-06
3.885054943e-06
3.835439978e-06
3.75548872e-06
3.680020943e-06
3.601031256e-06
3.490907448e-06
3.353227099e-06
3.220970247e-06
3.072570121e-06
2.902598237e-06
2.72276361e-06
2.532575804e-06
2.33517302e-06
2.133989544e-06
1.911459028e-06
1.695590209e-06
1.495081409e-06
1.307177716e-06
1.143123176e-06
1.006591653e-06
8.971830745e-07
8.133406319e-07
7.446481426e-07
6.873680022e-07
6.311330539e-07
5.748008254e-07
5.131746631e-07
4.39853252e-07
3.527124132e-07
4.099532641e-06
4.086007756e-06
4.079894157e-06
4.073901966e-06
4.063381751e-06
4.043194428e-06
4.035674448e-06
4.025445736e-06
3.995949846e-06
3.974323319e-06
3.936220205e-06
3.87575359e-06
3.826706729e-06
3.777497915e-06
3.706659368e-06
3.611133288e-06
3.506321921e-06
3.385323587e-06
3.253607867e-06
3.117749211e-06
2.953401186e-06
2.780484603e-06
2.596278364e-06
2.384775874e-06
2.171874099e-06
1.962255293e-06
1.753365654e-06
1.548549217e-06
1.350849002e-06
1.17850738e-06
1.045855847e-06
9.292241886e-07
8.38945773e-07
7.665477768e-07
7.074318179e-07
6.509503846e-07
5.935755398e-07
5.299555547e-07
4.541279541e-07
3.626841714e-07
4.109277869e-06
4.108425465e-06
4.110416081e-06
4.092688735e-06
4.077085955e-06
4.06118192e-06
4.047414324e-06
4.035301593e-06
4.005995969e-06
3.97808285e-06
3.941435648e-06
3.898021648e-06
3.85804284e-06
3.796441526e-06
3.716640029e-06
3.620623059e-06
3.521428143e-06
3.420919599e-06
3.292501263e-06
3.138661673e-06
2.985699937e-06
2.82469681e-06
2.638364757e-06
2.441794526e-06
2.236941593e-06
2.022128881e-06
1.808029398e-06
1.601508834e-06
1.405785971e-06
1.23426033e-06
1.087786695e-06
9.654290246e-07
8.694397657e-07
7.954919495e-07
7.308155463e-07
6.738997042e-07
6.170431376e-07
5.530097664e-07
4.755097693e-07
3.770654857e-07
4.110137716e-06
4.101942007e-06
4.090891331e-06
4.088832279e-06
4.083443537e-06
4.060532436e-06
4.056829144e-06
4.038363892e-06
4.013675544e-06
3.985272484e-06
3.955769332e-06
3.924374891e-06
3.876941229e-06
3.807081348e-06
3.741064251e-06
3.657700035e-06
3.570028921e-06
3.453515492e-06
3.319964431e-06
3.192857156e-06
3.039689361e-06
2.868209771e-06
2.694315389e-06
2.500876479e-06
2.304357271e-06
2.094957949e-06
1.880299997e-06
1.670508623e-06
1.46683958e-06
1.289875491e-06
1.138304536e-06
1.009362514e-06
9.064325617e-07
8.267545059e-07
7.589266347e-07
7.026052602e-07
6.472046203e-07
5.859598826e-07
5.090694317e-07
4.032256087e-07
4.105326518e-06
4.094994071e-06
4.088251891e-06
4.073160213e-06
4.066882588e-06
4.055340771e-06
4.054181927e-06
4.042785176e-06
4.016182177e-06
3.986680732e-06
3.957523717e-06
3.928134576e-06
3.881182007e-06
3.833223214e-06
3.765553201e-06
3.69600014e-06
3.604527485e-06
3.488946218e-06
3.37670362e-06
3.243337475e-06
3.086793705e-06
2.916534268e-06
2.750005185e-06
2.569591685e-06
2.376767697e-06
2.170058263e-06
1.95442717e-06
1.745123908e-06
1.540545248e-06
1.35421953e-06
1.192544059e-06
1.055033274e-06
9.497977296e-07
8.627375876e-07
7.949257291e-07
7.407287025e-07
6.883345784e-07
6.341677356e-07
5.728764557e-07
4.68397002e-07
4.105465601e-06
4.097199956e-06
4.098642166e-06
4.097279337e-06
4.085322776e-06
4.07717901e-06
4.059235768e-06
4.039191319e-06
4.013893596e-06
3.995026469e-06
3.971334708e-06
3.941762089e-06
3.891365917e-06
3.840896861e-06
3.77367786e-06
3.69730846e-06
3.606488041e-06
3.523407185e-06
3.413913806e-06
3.274455172e-06
3.130933439e-06
2.980769469e-06
2.817843135e-06
2.635558402e-06
2.439736396e-06
2.237709871e-06
2.026263343e-06
1.821703611e-06
1.61219254e-06
1.423667195e-06
1.258024686e-06
1.114827659e-06
9.968774806e-07
9.065488761e-07
8.407020611e-07
7.859200462e-07
7.38481966e-07
7.029465019e-07
6.825172336e-07
7.505415125e-07
4.111729828e-06
4.105432566e-06
4.101121521e-06
4.097118775e-06
4.084007431e-06
4.07096758e-06
4.053568608e-06
4.046224004e-06
4.026378918e-06
3.999287661e-06
3.985042651e-06
3.95135725e-06
3.90326763e-06
3.846344618e-06
3.786672165e-06
3.728632902e-06
3.646193361e-06
3.560038745e-06
3.444892852e-06
3.324229047e-06
3.188817986e-06
3.027306981e-06
2.881492833e-06
2.69065608e-06
2.504396974e-06
2.310161111e-06
2.100989726e-06
1.900434015e-06
1.696943687e-06
1.505736441e-06
1.327922652e-06
1.179496407e-06
1.052487301e-06
9.60172759e-07
8.870386133e-07
8.36664146e-07
7.999997778e-07
7.827929109e-07
8.032547732e-07
9.284098312e-07
4.107020411e-06
4.096749103e-06
4.084135605e-06
4.074459024e-06
4.073504244e-06
4.069054077e-06
4.049945068e-06
4.042972914e-06
4.033894687e-06
4.00216249e-06
3.978729881e-06
3.959820803e-06
3.923446036e-06
3.875946588e-06
3.821434872e-06
3.756155622e-06
3.672695514e-06
3.582898755e-06
3.485772627e-06
3.368431876e-06
3.214834548e-06
3.081503215e-06
2.923626549e-06
2.756403717e-06
2.583752744e-06
2.39095074e-06
2.181163502e-06
1.985642407e-06
1.780239532e-06
1.585062715e-06
1.406806723e-06
1.246252814e-06
1.120697936e-06
1.017992524e-06
9.452965862e-07
8.926235456e-07
8.604055441e-07
8.566468087e-07
8.940429589e-07
1.009942392e-06
4.095603649e-06
4.09561176e-06
4.093760297e-06
4.091930165e-06
4.08706675e-06
4.078170451e-06
4.064955953e-06
4.048352033e-06
4.03007989e-06
4.028157826e-06
3.99716094e-06
3.967048527e-06
3.941391801e-06
3.893535549e-06
3.841668043e-06
3.770593672e-06
3.693078047e-06
3.599777887e-06
3.502011429e-06
3.391678086e-06
3.269246213e-06
3.139866507e-06
2.984887614e-06
2.829174326e-06
2.651265932e-06
2.462242013e-06
2.263192091e-06
2.071335621e-06
1.870949586e-06
1.684082457e-06
1.496833148e-06
1.334770816e-06
1.195370939e-06
1.084275161e-06
1.008907946e-06
9.544783582e-07
9.230775014e-07
9.220061994e-07
9.608182861e-07
1.054983658e-06
4.106432022e-06
4.108092375e-06
4.091542862e-06
4.082997852e-06
4.075751781e-06
4.068807584e-06
4.07038536e-06
4.062705327e-06
4.044188688e-06
4.03193824e-06
4.006316329e-06
3.976302253e-06
3.944839935e-06
3.89736015e-06
3.853364132e-06
3.806522108e-06
3.735470311e-06
3.658053614e-06
3.555762747e-06
3.451937542e-06
3.324551724e-06
3.205869734e-06
3.057703235e-06
2.904562671e-06
2.743429475e-06
2.554548227e-06
2.364243326e-06
2.165601616e-06
1.960982324e-06
1.771592571e-06
1.592413407e-06
1.423217619e-06
1.274021184e-06
1.156311381e-06
1.073619665e-06
1.015209852e-06
9.862341052e-07
9.803765006e-07
1.012351388e-06
1.09211236e-06
4.100968472e-06
4.097841672e-06
4.102559332e-06
4.09890164e-06
4.079077892e-06
4.074679312e-06
4.064022494e-06
4.060830308e-06
4.036790287e-06
4.015422658e-06
3.999876017e-06
3.9682655e-06
3.94758955e-06
3.910782919e-06
3.864911198e-06
3.811145879e-06
3.761329599e-06
3.683392578e-06
3.57817406e-06
3.486274044e-06
3.384822937e-06
3.255449838e-06
3.123382109e-06
2.978555348e-06
2.813939026e-06
2.639149894e-06
2.456466261e-06
2.273625392e-06
2.074530894e-06
1.879046335e-06
1.690929024e-06
1.519617348e-06
1.363608498e-06
1.24383228e-06
1.147561586e-06
1.080073417e-06
1.045240555e-06
1.035630385e-06
1.06194052e-06
1.121895048e-06
4.109355569e-06
4.107016186e-06
4.10096893e-06
4.095797476e-06
4.092288003e-06
4.091182748e-06
4.086241325e-06
4.072099163e-06
4.052796016e-06
4.040426896e-06
4.025189842e-06
4.005414009e-06
3.974405741e-06
3.938635994e-06
3.89694376e-06
3.839936105e-06
3.775596256e-06
3.719797736e-06
3.635473668e-06
3.535137885e-06
3.429888692e-06
3.311713149e-06
3.170617645e-06
3.034484319e-06
2.882456314e-06
2.713391495e-06
2.553590193e-06
2.362741017e-06
2.181327515e-06
1.992781328e-06
1.798016103e-06
1.621830944e-06
1.469977264e-06
1.338792631e-06
1.229404892e-06
1.154182319e-06
1.113035545e-06
1.093121951e-06
1.104172092e-06
1.148825229e-06
4.112931822e-06
4.116042998e-06
4.116819778e-06
4.106958504e-06
4.102503591e-06
4.096705748e-06
4.089927232e-06
4.085556206e-06
4.072573834e-06
4.056386065e-06
4.030032294e-06
4.01396455e-06
3.989890781e-06
3.951838093e-06
3.906081705e-06
3.864739618e-06
3.794512358e-06
3.737854125e-06
3.63930445e-06
3.563359821e-06
3.466856717e-06
3.361461979e-06
3.228743262e-06
3.1073005e-06
2.96206671e-06
2.807834289e-06
2.639502641e-06
2.470155249e-06
2.28501869e-06
2.092059652e-06
1.910341633e-06
1.734703749e-06
1.565840161e-06
1.433478092e-06
1.318729315e-06
1.233440666e-06
1.179968816e-06
1.154050173e-06
1.149271581e-06
1.183135745e-06
4.107449253e-06
4.099358329e-06
4.093585358e-06
4.095178201e-06
4.089588005e-06
4.088251066e-06
4.090251413e-06
4.076930094e-06
4.061386821e-06
4.047546343e-06
4.040538861e-06
4.018396504e-06
3.993873834e-06
3.960185496e-06
3.927603989e-06
3.888732949e-06
3.842050354e-06
3.798565876e-06
3.722823607e-06
3.63399035e-06
3.540363381e-06
3.427332015e-06
3.317211188e-06
3.189664451e-06
3.050841872e-06
2.898555245e-06
2.731537287e-06
2.562784381e-06
2.388113979e-06
2.208838913e-06
2.029190922e-06
1.860469815e-06
1.690304483e-06
1.546066101e-06
1.417015256e-06
1.320916751e-06
1.254759031e-06
1.217201385e-06
1.202569789e-06
1.21379418e-06
4.109546146e-06
4.105713605e-06
4.09873352e-06
4.09102853e-06
4.091284823e-06
4.089343464e-06
4.086780777e-06
4.078867249e-06
4.077406733e-06
4.067499381e-06
4.048093175e-06
4.028295311e-06
4.004759885e-06
3.970320881e-06
3.937869484e-06
3.907909842e-06
3.865856573e-06
3.812190807e-06
3.751671426e-06
3.669785389e-06
3.581358563e-06
3.489277097e-06
3.384024424e-06
3.252483463e-06
3.123340231e-06
2.971764413e-06
2.82247591e-06
2.658855418e-06
2.492687076e-06
2.313731525e-06
2.143045148e-06
1.969028611e-06
1.811073589e-06
1.656512176e-06
1.517832752e-06
1.411587746e-06
1.333686252e-06
1.28521928e-06
1.255604694e-06
1.255270219e-06
4.117501911e-06
4.115595461e-06
4.112642584e-06
4.106052829e-06
4.103914037e-06
4.095243136e-06
4.080869484e-06
4.07678383e-06
4.061401179e-06
4.049853816e-06
4.040562161e-06
4.030781246e-06
4.011693417e-06
3.979979758e-06
3.951779318e-06
3.917138176e-06
3.867921827e-06
3.818391664e-06
3.766066507e-06
3.700071197e-06
3.601763039e-06
3.521799498e-06
3.427738776e-06
3.306555209e-06
3.187637518e-06
3.061902708e-06
2.927409371e-06
2.771950469e-06
2.600073988e-06
2.436546032e-06
2.270969989e-06
2.097240157e-06
1.933574207e-06
1.781480454e-06
1.632416105e-06
1.514149827e-06
1.428138674e-06
1.360458974e-06
1.317549454e-06
1.305352411e-06
4.11052944e-06
4.11227257e-06
4.111143202e-06
4.109974104e-06
4.100751375e-06
4.098458127e-06
4.09385223e-06
4.084166828e-06
4.07775551e-06
4.065471837e-06
4.050503107e-06
4.034527622e-06
4.005350726e-06
3.98578573e-06
3.956753796e-06
3.930036195e-06
3.898149045e-06
3.851068521e-06
3.794519082e-06
3.731911244e-06
3.645790688e-06
3.58267401e-06
3.489916028e-06
3.399489389e-06
3.270554025e-06
3.159227473e-06
3.018376755e-06
2.869699553e-06
2.701254315e-06
2.553663343e-06
2.386446518e-06
2.215386397e-06
2.056031152e-06
1.90487675e-06
1.756814692e-06
1.630920541e-06
1.522560068e-06
1.44563527e-06
1.386599446e-06
1.35768547e-06
4.112658991e-06
4.111316757e-06
4.107699307e-06
4.111457396e-06
4.1166576e-06
4.106693058e-06
4.09437364e-06
4.085772906e-06
4.078368672e-06
4.066741972e-06
4.059374521e-06
4.050143531e-06
4.033434157e-06
4.010398491e-06
3.985965915e-06
3.950200778e-06
3.920314739e-06
3.87572032e-06
3.820970564e-06
3.772900707e-06
3.719306864e-06
3.630063626e-06
3.551226169e-06
3.449879652e-06
3.338531298e-06
3.225222493e-06
3.095630106e-06
2.95291651e-06
2.803114999e-06
2.662854049e-06
2.49713427e-06
2.339696186e-06
2.18588916e-06
2.028042491e-06
1.887324497e-06
1.752788473e-06
1.63553567e-06
1.544353204e-06
1.47276219e-06
1.423938899e-06
4.112888336e-06
4.11333258e-06
4.108862454e-06
4.106601356e-06
4.106283764e-06
4.101012458e-06
4.103379448e-06
4.100041077e-06
4.093443812e-06
4.078986197e-06
4.060813837e-06
4.041602068e-06
4.022474392e-06
3.999437505e-06
3.969935257e-06
3.949152596e-06
3.940647885e-06
3.910040383e-06
3.870829572e-06
3.80383294e-06
3.745660407e-06
3.678043906e-06
3.591349301e-06
3.501921196e-06
3.403063787e-06
3.298178229e-06
3.173821569e-06
3.050915872e-06
2.916218467e-06
2.775654924e-06
2.615476816e-06
2.470550071e-06
2.32011512e-06
2.160992967e-06
2.014016056e-06
1.875834476e-06
1.757617564e-06
1.651590698e-06
1.563928963e-06
1.503842645e-06
4.110091911e-06
4.106668421e-06
4.104441683e-06
4.101670802e-06
4.093014807e-06
4.087607031e-06
4.075796215e-06
4.077438311e-06
4.074019545e-06
4.068834918e-06
4.056722936e-06
4.043740165e-06
4.038889114e-06
4.019745062e-06
4.006162257e-06
3.974307181e-06
3.946547234e-06
3.907896175e-06
3.877863115e-06
3.821562765e-06
3.766208476e-06
3.726794464e-06
3.633937973e-06
3.552227111e-06
3.450408089e-06
3.361869931e-06
3.260553759e-06
3.124370744e-06
3.006898046e-06
2.885330513e-06
2.739371103e-06
2.586796541e-06
2.440255125e-06
2.288587816e-06
2.141648682e-06
2.006349908e-06
1.871403914e-06
1.760433973e-06
1.66636748e-06
1.586230628e-06
4.107638228e-06
4.104985848e-06
4.094713462e-06
4.094567515e-06
4.102910083e-06
4.096586441e-06
4.096582943e-06
4.086939917e-06
4.084571974e-06
4.077374713e-06
4.078906077e-06
4.064610909e-06
4.053778296e-06
4.039184652e-06
4.018623005e-06
3.991473126e-06
3.962094661e-06
3.947028803e-06
3.899964807e-06
3.865387893e-06
3.81663848e-06
3.754096877e-06
3.680821663e-06
3.604286023e-06
3.524652487e-06
3.439015357e-06
3.343414701e-06
3.226002594e-06
3.106221618e-06
2.977449685e-06
2.84912096e-06
2.710728817e-06
2.570152698e-06
2.41691923e-06
2.271193457e-06
2.139517182e-06
2.003686024e-06
1.886414482e-06
1.781957031e-06
1.694796808e-06
4.112610863e-06
4.109515006e-06
4.112853227e-06
4.116439407e-06
4.109782596e-06
4.112640751e-06
4.100967419e-06
4.098595134e-06
4.093157265e-06
4.083929918e-06
4.062260955e-06
4.056467407e-06
4.052048835e-06
4.037262557e-06
4.016234702e-06
4.00010849e-06
3.982943951e-06
3.948612461e-06
3.927070742e-06
3.896618206e-06
3.846161402e-06
3.799192846e-06
3.74226115e-06
3.670589809e-06
3.593849584e-06
3.50774366e-06
3.431315557e-06
3.328123635e-06
3.21018761e-06
3.091494361e-06
2.960230835e-06
2.839814836e-06
2.698015133e-06
2.560976707e-06
2.416355348e-06
2.277823676e-06
2.146859717e-06
2.013468148e-06
1.898813147e-06
1.804543584e-06
4.116236033e-06
4.117542038e-06
4.12273773e-06
4.116973145e-06
4.108391438e-06
4.10376501e-06
4.103042769e-06
4.097876235e-06
4.095903946e-06
4.090893703e-06
4.094591927e-06
4.086712726e-06
4.071048743e-06
4.047575518e-06
4.028117755e-06
4.020835294e-06
3.994996163e-06
3.970057776e-06
3.957029949e-06
3.917913428e-06
3.882147033e-06
3.841088869e-06
3.79893792e-06
3.725230013e-06
3.648146454e-06
3.576667272e-06
3.49544127e-06
3.394382524e-06
3.30593029e-06
3.18780646e-06
3.070241851e-06
2.949729555e-06
2.831991671e-06
2.690632403e-06
2.559535101e-06
2.413642379e-06
2.293423151e-06
2.154963751e-06
2.032578064e-06
1.921708398e-06
4.107996624e-06
4.107389349e-06
4.101237029e-06
4.115683322e-06
4.110389631e-06
4.115477534e-06
4.111501721e-06
4.104621199e-06
4.111729865e-06
4.099296859e-06
4.085965051e-06
4.088530258e-06
4.085485125e-06
4.070908151e-06
4.066575082e-06
4.04468724e-06
4.023352565e-06
4.006637069e-06
3.996615701e-06
3.959174198e-06
3.911391906e-06
3.869870348e-06
3.823335883e-06
3.760939171e-06
3.705048886e-06
3.625752717e-06
3.553970629e-06
3.460468457e-06
3.37801123e-06
3.272975914e-06
3.168222278e-06
3.050734771e-06
2.936513427e-06
2.805613775e-06
2.681837377e-06
2.559376485e-06
2.420967172e-06
2.293368313e-06
2.164803322e-06
2.056310624e-06
4.111851079e-06
4.113285696e-06
4.107559673e-06
4.093444262e-06
4.101920431e-06
4.099042744e-06
4.096419699e-06
4.102381592e-06
4.097507088e-06
4.087463809e-06
4.090398057e-06
4.085336238e-06
4.073755589e-06
4.067218461e-06
4.059107477e-06
4.038224661e-06
4.029998813e-06
4.007182822e-06
3.991744154e-06
3.961165302e-06
3.941560889e-06
3.892908569e-06
3.854318224e-06
3.81188664e-06
3.755728741e-06
3.677164463e-06
3.614058703e-06
3.551913633e-06
3.455955369e-06
3.373895789e-06
3.282132262e-06
3.166925685e-06
3.059174784e-06
2.944788792e-06
2.811158705e-06
2.669629462e-06
2.547813506e-06
2.430489608e-06
2.307490659e-06
2.187757202e-06
4.112641107e-06
4.113004218e-06
4.112458004e-06
4.121038959e-06
4.116184113e-06
4.107181648e-06
4.108961314e-06
4.104775813e-06
4.101204207e-06
4.106769241e-06
4.095244114e-06
4.093611767e-06
4.088608146e-06
4.077718312e-06
4.064785881e-06
4.05662122e-06
4.042070747e-06
4.024172652e-06
4.001722912e-06
3.969580729e-06
3.946784511e-06
3.90362859e-06
3.873355882e-06
3.830553491e-06
3.779667834e-06
3.723984691e-06
3.663344066e-06
3.5937003e-06
3.519890111e-06
3.440071371e-06
3.335324286e-06
3.244871531e-06
3.146469606e-06
3.031370829e-06
2.927294287e-06
2.808326624e-06
2.693334681e-06
2.557194868e-06
2.440973323e-06
2.322706724e-06
4.117737759e-06
4.116882406e-06
4.114672844e-06
4.107789953e-06
4.108143615e-06
4.103202421e-06
4.100442093e-06
4.100806226e-06
4.098867024e-06
4.088082061e-06
4.08954414e-06
4.083496013e-06
4.078252261e-06
4.073605605e-06
4.064331851e-06
4.059674924e-06
4.044329415e-06
4.020839286e-06
3.999452176e-06
3.985079681e-06
3.957398098e-06
3.929795158e-06
3.902851649e-06
3.872922397e-06
3.826127529e-06
3.777732367e-06
3.717192426e-06
3.649747266e-06
3.579147076e-06
3.520653089e-06
3.423759318e-06
3.338481496e-06
3.246610345e-06
3.145875205e-06
3.046523109e-06
2.926009551e-06
2.81354264e-06
2.703753224e-06
2.5847417e-06
2.463778165e-06
4.120557794e-06
4.125921241e-06
4.129382257e-06
4.125091445e-06
4.115606802e-06
4.110240231e-06
4.111457176e-06
4.105945552e-06
4.106455392e-06
4.105501801e-06
4.097128148e-06
4.087109314e-06
4.085545644e-06
4.075586803e-06
4.067932087e-06
4.062632139e-06
4.051435975e-06
4.027443625e-06
4.02049656e-06
4.005706978e-06
3.984048051e-06
3.963722838e-06
3.927178401e-06
3.885597779e-06
3.844333885e-06
3.801300578e-06
3.7475096e-06
3.690281703e-06
3.629439363e-06
3.554601556e-06
3.489273261e-06
3.41037221e-06
3.319635384e-06
3.239503805e-06
3.154915017e-06
3.061189628e-06
2.94359123e-06
2.828418117e-06
2.70900016e-06
2.596314614e-06
4.114471961e-06
4.113705576e-06
4.110413619e-06
4.116681317e-06
4.117912752e-06
4.118793483e-06
4.115409994e-06
4.108999877e-06
4.109266852e-06
4.101835995e-06
4.099062801e-06
4.089697703e-06
4.089408702e-06
4.080264748e-06
4.076846475e-06
4.070799713e-06
4.059083011e-06
4.040264623e-06
4.02777754e-06
4.008967191e-06
3.989655267e-06
3.962263027e-06
3.931659971e-06
3.904154093e-06
3.864206425e-06
3.827893923e-06
3.77995007e-06
3.722158438e-06
3.68116611e-06
3.613325636e-06
3.553385047e-06
3.482754348e-06
3.406248393e-06
3.326912058e-06
3.238483162e-06
3.149186144e-06
3.046561915e-06
2.949484024e-06
2.842646353e-06
2.732551633e-06
4.111969868e-06
4.109328452e-06
4.112752521e-06
4.107802872e-06
4.106250369e-06
4.105397119e-06
4.104392147e-06
4.106376458e-06
4.107575847e-06
4.103355539e-06
4.100307747e-06
4.100575283e-06
4.092011175e-06
4.088614707e-06
4.085739036e-06
4.079392752e-06
4.057866299e-06
4.048206597e-06
4.027478409e-06
4.015258385e-06
3.99676329e-06
3.975244183e-06
3.957578699e-06
3.925871649e-06
3.892000595e-06
3.871276386e-06
3.830603253e-06
3.780833588e-06
3.745133273e-06
3.684258869e-06
3.625651213e-06
3.563341992e-06
3.479768597e-06
3.405957399e-06
3.326154237e-06
3.250122567e-06
3.161759042e-06
3.058576711e-06
2.959180961e-06
2.855006307e-06
4.116541868e-06
4.113790344e-06
4.11224318e-06
4.11591575e-06
4.118874081e-06
4.121735876e-06
4.119492895e-06
4.114417105e-06
4.109509344e-06
4.103454647e-06
4.09916712e-06
4.097446395e-06
4.098184048e-06
4.096805429e-06
4.089782186e-06
4.083849546e-06
4.066107902e-06
4.052290957e-06
4.04113312e-06
4.045065048e-06
4.032203162e-06
4.023483547e-06
3.999085155e-06
3.97042186e-06
3.937308083e-06
3.915656972e-06
3.875170427e-06
3.8345479e-06
3.805617894e-06
3.7600483e-06
3.710383379e-06
3.653348626e-06