/*--------------------------------*- C++ -*----------------------------------*\
| =========                 |                                                 |
| \\      /  F ield         | OpenFOAM: The Open Source CFD Toolbox           |
|  \\    /   O peration     | Version:  v1706                                 |
|   \\  /    A nd           | Web:      www.OpenFOAM.com                      |
|    \\/     M anipulation  |                                                 |
\*---------------------------------------------------------------------------*/
FoamFile
{
    version     2.0;
    format      ascii;
    class       volScalarField;
    location    "0.004";
    object      mfpToDx_Ar;
}
// * * * * * * * * * * * * * * * * * * * * * * * * * * * * * * * * * * * * * //

dimensions      [0 0 0 0 0 0 0];


internalField   nonuniform List<scalar> 
4000
(
1.91166541
1.916854366
1.936973837
1.946709523
1.959599923
1.972239644
1.982675623
1.999471673
2.028644141
2.060826734
2.074393215
2.120301758
2.156728765
2.193654817
2.242305143
2.315804602
2.364527292
2.423742743
2.47244141
2.515445093
2.518296508
2.490127393
2.433979304
2.323944768
2.179503392
1.991380912
1.795640869
1.607854554
1.416700069
1.263654959
1.137184485
1.0338992
0.9448315774
0.8679347028
0.7964502183
0.715079911
0.6256783137
0.5293969384
0.4217901701
0.3035163957
1.903045345
1.909729455
1.920864945
1.931615759
1.938776419
1.958774313
1.976899208
1.991148658
2.006983846
2.039757719
2.075065975
2.123307098
2.160068154
2.224832735
2.289807222
2.344495112
2.409769633
2.468807512
2.521886576
2.563620436
2.584870629
2.57966146
2.524075218
2.416412191
2.260516544
2.070741014
1.85924
1.643997254
1.451496504
1.288158653
1.157939411
1.050033364
0.9608240431
0.8791027352
0.8028747545
0.7218574664
0.6309721896
0.5319781928
0.4220192222
0.3037309323
1.90425162
1.91175303
1.918304114
1.927365941
1.9373225
1.955717565
1.972449385
1.98569697
2.008959497
2.033011955
2.070116859
2.097363985
2.136810177
2.203254419
2.262204196
2.334826659
2.400416598
2.46676098
2.521755653
2.57189248
2.5972109
2.588038363
2.542885023
2.436007779
2.28821083
2.103115042
1.878088763
1.664271276
1.473113493
1.300620244
1.165795642
1.060674019
0.9677875095
0.883504065
0.8056188381
0.725105429
0.6316669068
0.5319715136
0.4232422074
0.3049451212
1.90967877
1.916594748
1.924870299
1.931769177
1.942524834
1.952607561
1.969423096
1.982297677
2.004935383
2.029819176
2.063463548
2.094895593
2.139456129
2.201031087
2.255116606
2.308329275
2.37566829
2.446197138
2.516052943
2.572311507
2.604106898
2.599662139
2.546979001
2.447225279
2.312998468
2.117870681
1.898224527
1.67667479
1.483523891
1.317035863
1.175673365
1.065124553
0.9718289808
0.888174492
0.808181296
0.7257045642
0.6326032724
0.5344536325
0.4244721342
0.305587297
1.910740895
1.920877689
1.924449505
1.924707644
1.934057526
1.95250349
1.973597996
1.990784852
2.01139927
2.036486088
2.06902699
2.105663067
2.150879256
2.196954759
2.250750047
2.313239435
2.388031974
2.456047501
2.521566234
2.572381853
2.605479426
2.609577063
2.562455853
2.468016123
2.313243581
2.130887403
1.9137051
1.68901264
1.492482923
1.330118688
1.18556027
1.070238791
0.9768598716
0.893245215
0.8105691535
0.7269007466
0.633691379
0.5346358972
0.4264486196
0.3073024666
1.906620806
1.916275243
1.921184087
1.931986309
1.939189231
1.954444244
1.964849308
1.985413191
2.010879411
2.031829817
2.059032078
2.097511171
2.147288151
2.198047896
2.25615685
2.314713989
2.371870801
2.445287596
2.511166883
2.561723883
2.594438654
2.597313042
2.551368707
2.472327582
2.324592789
2.13619607
1.922529799
1.706846028
1.507878594
1.333810166
1.19513956
1.080438213
0.9824147273
0.8976590982
0.8146689013
0.730061922
0.6374707013
0.5357421946
0.4296430644
0.3090915176
1.910816908
1.914457779
1.919949309
1.930668874
1.938407891
1.947005045
1.962966987
1.982572391
2.006108008
2.02691245
2.05453027
2.084227626
2.124015369
2.172333334
2.23949367
2.301566781
2.370623282
2.439481936
2.504478955
2.557808422
2.594993584
2.608343397
2.569922991
2.483172711
2.339192976
2.152841493
1.935587454
1.721530886
1.523551117
1.34769623
1.204150355
1.086167917
0.9868728559
0.9019040381
0.8200951333
0.7351171504
0.640250499
0.5400873902
0.4310576755
0.3101441155
1.906524364
1.910592092
1.91754205
1.926978921
1.936511402
1.942102144
1.95368178
1.970778021
1.995515348
2.018694265
2.045838739
2.084045608
2.125914206
2.173348332
2.22304713
2.285211547
2.35970995
2.420357563
2.490348395
2.545569768
2.578219509
2.58794075
2.559187737
2.47729914
2.346697999
2.173446716
1.95951589
1.746744669
1.542630343
1.365004602
1.215587215
1.095330475
0.9966295168
0.9077770855
0.8274431314
0.7377219147
0.6440319386
0.5441293467
0.4338409206
0.3116864015
1.908937834
1.912715429
1.919116748
1.928275739
1.937821291
1.945193103
1.963417759
1.977624631
1.99220482
2.021178573
2.046152458
2.075671381
2.112499882
2.163484674
2.21657905
2.266028123
2.336676623
2.406687284
2.471795239
2.536514124
2.575470579
2.588068977
2.566856518
2.491355809
2.359989263
2.187947622
1.985410608
1.762014253
1.565127548
1.382779755
1.237281994
1.107871338
1.00638289
0.9186248601
0.8332504957
0.7453398975
0.6509960831
0.5485051919
0.4372958789
0.3131561133
1.908461983
1.915213586
1.920111084
1.925479131
1.939160073
1.950240555
1.962382643
1.976903014
1.994824207
2.017292334
2.045914822
2.066959469
2.096275216
2.142424028
2.199220209
2.258849194
2.323943778
2.396620245
2.466440377
2.52655963
2.57610181
2.594709274
2.569154339
2.499940919
2.386337945
2.219364739
2.013423642
1.796745487
1.587531727
1.400032923
1.245950763
1.124288299
1.017112743
0.9281652091
0.841565555
0.7517824352
0.6552824583
0.551550373
0.4383263187
0.3138307613
1.910837057
1.915285388
1.919483758
1.921007154
1.92610403
1.936026508
1.948652075
1.965152583
1.979830265
1.999118138
2.029396315
2.059955043
2.098402453
2.145334797
2.196127391
2.260937173
2.320229684
2.386291773
2.45038368
2.510664902
2.556360568
2.584557501
2.5740594
2.515121115
2.399408121
2.238447082
2.041703434
1.825889221
1.614648509
1.428859646
1.267466785
1.13926422
1.033260492
0.9396741452
0.8484037822
0.7569465187
0.6607929348
0.5560332296
0.4422395982
0.3172951402
1.818063999
1.82243409
1.830082011
1.839963038
1.849306436
1.859548302
1.867238074
1.878407948
1.898950784
1.918201353
1.944482915
1.970890492
2.006004003
2.045721023
2.09858885
2.155435311
2.217246093
2.281943222
2.335843371
2.397426934
2.43998346
2.463694589
2.458539217
2.408234975
2.30713763
2.158193613
1.97869161
1.781242714
1.574850092
1.388726626
1.233152454
1.10665345
1.000133869
0.9065778028
0.8182056578
0.7329108173
0.638432709
0.5383338836
0.4289879835
0.3067258963
1.675413007
1.678683738
1.687280811
1.693254287
1.696824303
1.703632665
1.71337053
1.725515599
1.744244436
1.759048594
1.779932466
1.808800843
1.840382728
1.877943902
1.919067208
1.966355861
2.020929505
2.086094774
2.144172832
2.199197116
2.245831696
2.271899799
2.27444588
2.235608354
2.159255298
2.03116186
1.861581087
1.676265384
1.487468264
1.314842859
1.163111633
1.040989755
0.9361077103
0.8507900363
0.7687084313
0.6875890929
0.5986867492
0.5050146398
0.4029696186
0.2858000158
1.556598574
1.561892326
1.56800213
1.572837426
1.580512777
1.587477717
1.595237217
1.601108047
1.612479394
1.629159443
1.651067226
1.674253634
1.704085405
1.731871057
1.769891339
1.81929059
1.870768237
1.919974269
1.977047753
2.033100471
2.078047269
2.103032733
2.104455162
2.082741465
2.015163056
1.907006463
1.756870096
1.58877979
1.413227895
1.245538746
1.107965745
0.9871062279
0.8895502907
0.8029046081
0.7281508376
0.6490964233
0.5679864515
0.4793273346
0.3802696393
0.2701175405
1.453410006
1.457879723
1.462798842
1.469561381
1.474171942
1.483808739
1.489556158
1.500751242
1.512346445
1.528615349
1.546901144
1.561944382
1.585230097
1.614124664
1.643020626
1.686703265
1.740131144
1.78980554
1.844199477
1.895673943
1.937953873
1.969805209
1.980018936
1.957314667
1.894447071
1.802664404
1.674910022
1.514553373
1.348648929
1.192911794
1.057541071
0.945972986
0.8466996643
0.769026487
0.6950257497
0.6197936627
0.5415906287
0.4559367602
0.3623614985
0.2576486357
1.362629863
1.367222264
1.369821089
1.368515345
1.37225821
1.383150105
1.390378907
1.399077143
1.41080119
1.423194103
1.436857197
1.455737563
1.485664249
1.508537865
1.546300078
1.576298558
1.625315923
1.668160005
1.711947713
1.756478278
1.800653891
1.833937829
1.845201434
1.830951291
1.786582001
1.706750782
1.596250833
1.453308184
1.303797284
1.154003366
1.021388435
0.9080506388
0.8152993334
0.7373998257
0.6658825043
0.5967876112
0.5214774049
0.4402652924
0.3492974943
0.2466822186
1.280147207
1.28138013
1.285727527
1.289970149
1.292829793
1.299014513
1.307025793
1.311171459
1.319410631
1.329025558
1.339049691
1.358683262
1.378781562
1.407831133
1.438335663
1.474869463
1.516023901
1.553201827
1.597942442
1.644345256
1.680515331
1.714692922
1.733620692
1.729555753
1.69232827
1.62329052
1.524899458
1.401520111
1.257665835
1.119004788
0.9872377601
0.8771438287
0.7890373954
0.7105889754
0.6452583937
0.5795598216
0.5066820478
0.428820058
0.340821644
0.2404552862
1.211351053
1.213294901
1.215126069
1.218085027
1.219738319
1.223120828
1.228997796
1.235128012
1.240629594
1.252264502
1.269625514
1.285350076
1.301604003
1.325273502
1.347718105
1.381026787
1.411349708
1.448692056
1.492732944
1.533365592
1.572725576
1.601372142
1.618452918
1.617925012
1.595481686
1.547923125
1.467177099
1.35132705
1.225362947
1.092027672
0.9665801714
0.8567709006
0.7701003769
0.6940273592
0.631115895
0.5659088101
0.4998505874
0.4247327685
0.3381375855
0.2375614079
1.146468018
1.150585903
1.153553097
1.156276873
1.159185856
1.162024905
1.166351633
1.177677129
1.181744208
1.188283488
1.199855357
1.211787838
1.229747569
1.250003688
1.274571885
1.301989795
1.331026815
1.370425336
1.408395288
1.440195548
1.475157995
1.506832307
1.530923971
1.539350186
1.52276176
1.480206677
1.411714149
1.31225253
1.195669757
1.068087555
0.9483130671
0.8435339817
0.7569283046
0.681496902
0.6195659222
0.5592144409
0.4980599171
0.4279096124
0.3452588976
0.2432829877
1.089460883
1.090560996
1.093230483
1.096430596
1.099684611
1.102508931
1.1060912
1.108470942
1.112604265
1.123544478
1.13225878
1.145979978
1.162175147
1.182845078
1.20661455
1.235122604
1.264342266
1.294441675
1.322626905
1.356654313
1.39098377
1.42324682
1.445308017
1.456820466
1.447059569
1.416341041
1.359176391
1.274344996
1.169216024
1.052612778
0.940644453
0.8370124547
0.7486540577
0.676517985
0.6148225725
0.5552824611
0.5020489405
0.4426631288
0.3712492999
0.2712759706
1.038200927
1.040493216
1.041684091
1.042819557
1.04260829
1.048721994
1.053372044
1.057712877
1.060921434
1.070376622
1.081027953
1.088238073
1.10096401
1.116886264
1.135670075
1.16155617
1.187250914
1.217290801
1.245980081
1.279772572
1.312549491
1.343506638
1.370357311
1.383619541
1.380490168
1.354434655
1.307308727
1.238480927
1.147620735
1.039325199
0.9329362717
0.8326734599
0.7475126034
0.6731247395
0.6124629002
0.5613066829
0.5136360545
0.4668386943
0.4247433483
0.4278899951
0.989817872
0.990903857
0.9944461981
0.9952425549
0.99856196
1.003524105
1.006783209
1.011740871
1.016171185
1.021126075
1.032855841
1.039827804
1.054852367
1.069286874
1.086508017
1.104167224
1.128261131
1.155333438
1.18542275
1.213689428
1.245399833
1.274358814
1.301245434
1.316026214
1.32139123
1.307573097
1.269148747
1.20847075
1.126106162
1.033273836
0.9288830504
0.8327899926
0.7489381623
0.6753045298
0.6163851489
0.5681167682
0.5274313742
0.4957688241
0.4797085878
0.5176608129
0.946589902
0.948044191
0.9490993905
0.9504006994
0.9531438888
0.9567768284
0.9596060458
0.9631608412
0.968766166
0.9715364774
0.9819520648
0.9931520207
1.002245285
1.015170802
1.030518457
1.049175626
1.069646804
1.094115709
1.121283367
1.146180583
1.176444477
1.208027598
1.234944349
1.255850399
1.261133313
1.254804444
1.231682996
1.18261544
1.112207831
1.023791662
0.9302250625
0.8366991324
0.7509400991
0.6773971846
0.6203970702
0.5765876283
0.5400689845
0.5196978805
0.5175425252
0.551658538
0.9072813478
0.9080986746
0.9104953699
0.9111841531
0.9125051695
0.913636692
0.9151432465
0.9184908562
0.9216921447
0.9258513257
0.9330030653
0.9382865158
0.9497718785
0.9604508163
0.9754279893
0.992262363
1.013584353
1.03687091
1.058727258
1.086527618
1.118294923
1.146960982
1.173123037
1.196326243
1.208292102
1.205363219
1.18596377
1.15053152
1.093413809
1.018275693
0.9312727167
0.843461464
0.7580910731
0.6879762526
0.6294160866
0.5874616944
0.5549420989
0.5375884712
0.5360725085
0.5627229435
0.8683148461
0.870315317
0.8715985401
0.8733432534
0.8756165548
0.8770060348
0.8796687344
0.8843058285
0.8861661787
0.8914458334
0.8978826264
0.902804049
0.9134940806
0.9244658102
0.9356818561
0.9471065098
0.9678155119
0.9848226512
1.010829515
1.033382338
1.060006244
1.084300682
1.11128292
1.134973473
1.150741608
1.15645407
1.146895689
1.117892593
1.071968871
1.005564657
0.9268166109
0.8450053434
0.7665778434
0.697639334
0.6387723696
0.5955000183
0.5665740008
0.5507308621
0.548370501
0.5662594638
0.8367573951
0.8375071806
0.8383030216
0.8415913937
0.8423214024
0.8429955754
0.8437659999
0.846963614
0.8519568408
0.8559245703
0.8596514847
0.8675008633
0.8777397565
0.8877188208
0.8979291438
0.910226165
0.9242973798
0.9431978684
0.9628813282
0.9865283075
1.010570649
1.036328688
1.0581675
1.080078396
1.097658682
1.102583826
1.098890006
1.080573865
1.043077988
0.9891055278
0.9241259659
0.8500012176
0.7752353075
0.7077990603
0.650371004
0.6054962799
0.5735758739
0.5564226379
0.5534766372
0.5649521079
0.8071434532
0.8094932683
0.8097963508
0.8116323727
0.8124322539
0.8128989388
0.8153018219
0.8174268633
0.8215804904
0.8243202403
0.8297319317
0.8352502031
0.8444295047
0.852750813
0.8606116314
0.872616551
0.886061927
0.9051216911
0.9226952787
0.9435787671
0.9620791102
0.9849713353
1.00732275
1.032441819
1.046685217
1.05732938
1.060450704
1.050534453
1.023443379
0.9801913121
0.9240408943
0.8589927135
0.7896421641
0.7202313879
0.6610504337
0.6169461627
0.5817044495
0.5618923003
0.5547441004
0.5607276322
0.7765088562
0.7765266881
0.7775749784
0.7788229654
0.7810453545
0.7833872622
0.7844569444
0.7872967552
0.7895137146
0.7922363483
0.7939791664
0.7999045726
0.8035666857
0.8159662344
0.8238910206
0.8360987903
0.8481524346
0.8630011285
0.8794756666
0.8979736762
0.9160381297
0.9368818287
0.9586649417
0.9813830851
1.002408874
1.014586252
1.020633404
1.014682315
0.9960381071
0.9638604208
0.915760701
0.8565529459
0.7941192521
0.7315836097
0.6759805571
0.6281195135
0.5933360029
0.568149362
0.5573087839
0.5568430592
0.750135619
0.7503818581
0.750862036
0.7508233138
0.752043111
0.7518898926
0.7535264056
0.7560182376
0.7582020351
0.7618173537
0.7664002973
0.7700908627
0.776848519
0.7836188402
0.7892896696
0.8015154654
0.8106446221
0.8224890009
0.840821874
0.8554873745
0.8725297836
0.8936579261
0.9134586168
0.9355751086
0.9552454881
0.9690730802
0.9803902342
0.9791605132
0.9706137275
0.9458832446
0.9063891095
0.8580187549
0.8043978967
0.7444361864
0.6896657654
0.6411914068
0.6022757861
0.5731758835
0.5574062895
0.5526820057
0.7246661733
0.7263547333
0.7267784598
0.728377012
0.730569342
0.7330478478
0.7333386183
0.733875982
0.7355698011
0.7373948012
0.7395211223
0.7447872799
0.7481338081
0.7560220375
0.7650287771
0.7707787675
0.7778354751
0.7889524907
0.8017051638
0.8171544092
0.8349682258
0.8518248659
0.8704106989
0.8923975274
0.9110525952
0.9260643913
0.9370134469
0.9398956623
0.9351811989
0.9178723419
0.8925763461
0.8538145379
0.8051663819
0.7532192778
0.6999381206
0.6521138474
0.6119579989
0.5808812553
0.5606390161
0.5509468614
0.7016412599
0.7016005388
0.7023790855
0.7034291927
0.7041053113
0.7047815155
0.7055757246
0.7081494952
0.7107307916
0.7124293158
0.7143430192
0.7186810638
0.7240270594
0.7276932006
0.7353731397
0.7428971707
0.7508953474
0.7602781578
0.7744218125
0.7844847564
0.8013756206
0.8169708852
0.8334203648
0.8516797141
0.8698259513
0.8851635366
0.8979014636
0.9063053695
0.9060421635
0.8979998618
0.8776210952
0.8465728658
0.8047695199
0.7593049465
0.7107084783
0.6650770579
0.6236183871
0.5883325894
0.5646300308
0.5491564583
0.679121031
0.6796728713
0.6794006581
0.6813847455
0.6809146587
0.68266255
0.6854272536
0.6864692628
0.6871861856
0.6872265843
0.6905745437
0.6944747971
0.6982056211
0.7035129737
0.7097007902
0.7158924357
0.7228916961
0.7318759388
0.7419748594
0.7525950618
0.7686259621
0.782206864
0.7979949053
0.816048418
0.8334132888
0.8486551807
0.8629957781
0.8744530101
0.8774474774
0.8730617093
0.8603019069
0.8385667426
0.8064358482
0.766356797
0.7204655307
0.6755194814
0.6349482074
0.6001095237
0.5716463584
0.5495739729
0.6587517654
0.6593662421
0.6612368573
0.6614542857
0.6611319215
0.6625772674
0.6627896929
0.6631073945
0.6648487135
0.6663983696
0.6699434165
0.6718831181
0.6740746422
0.6781622917
0.6843272447
0.6904802937
0.6969722621
0.7021319693
0.7102155844
0.7200738036
0.7321491911
0.745932931
0.7612638727
0.7767906156
0.7932037755
0.8076403103
0.8215334165
0.8307277312
0.8399422584
0.8415425285
0.8343439699
0.8197712252
0.7956059927
0.7669752566
0.7268769063
0.6844422175
0.6466239517
0.6105799098
0.5806489325
0.5567186584
0.6395084378
0.6407804567
0.641714387
0.6418904471
0.642533239
0.6419356763
0.6430059478
0.6438848988
0.6447623773
0.6477466577
0.647948582
0.648692824
0.6528903968
0.6560053988
0.6623412024
0.6661599688
0.6692996279
0.67719075
0.6864297641
0.6940495688
0.7063524982
0.7211635555
0.7319850086
0.7466413076
0.7630264642
0.7760288367
0.7900200357
0.8014994947
0.8099058034
0.8124219389
0.8087353324
0.7980401167
0.7812781811
0.7560611651
0.726880595
0.6917929551
0.654987118
0.6185259272
0.5877267692
0.5606269195
0.621694303
0.6219148359
0.6215073142
0.6215189414
0.6217353327
0.6219106845
0.622333282
0.6242631638
0.6261830593
0.6276859759
0.6288959849
0.6301535851
0.6316595876
0.635224243
0.6387113041
0.6411842801
0.6458962723
0.6510440128
0.6581525198
0.6676065372
0.6763510573
0.6884922136
0.6984009474
0.7124375505
0.7277800753
0.7419859393
0.7546798145
0.7675313881
0.776821172
0.7838417454
0.7858244616
0.7818712738
0.7718012771
0.7528261158
0.7274591223
0.6971100064
0.6638840727
0.629879423
0.5973442932
0.5679665898
0.6027590901
0.6040253459
0.6039332782
0.6047302915
0.6055226595
0.6061968176
0.6064519092
0.6072558917
0.6074257294
0.6080799336
0.6100176004
0.6122345371
0.6134368108
0.6190361798
0.6231326985
0.6267930469
0.629543879
0.6342411421
0.6392733261
0.6461329702
0.6525962472
0.6650322029
0.6734518802
0.6851337917
0.6978294123
0.7105212763
0.7224945964
0.7347611974
0.7453617666
0.7547863341
0.7602938279
0.7591777367
0.7522866653
0.7386682479
0.7199649788
0.6949446927
0.6675702305
0.6367069485
0.6070915186
0.5782602544
0.5877939505
0.5877796717
0.5881237133
0.5885388811
0.5877508068
0.5889054962
0.5890215805
0.5898107985
0.590809683
0.5921511834
0.5947336046
0.5966542471
0.5986406056
0.5995102905
0.601251214
0.6040838868
0.6059104976
0.6113595461
0.6169992452
0.6250874192
0.6321814235
0.6418983012
0.6503318158
0.6614739421
0.6726316201
0.6833905255
0.695047162
0.7070024448
0.717819023
0.7253585588
0.7330837525
0.7352368788
0.734118792
0.72591079
0.7126533018
0.6967673388
0.6710745163
0.643862728
0.614858694
0.5867143502
0.5722104782
0.5725574779
0.573055853
0.5725741096
0.5732681234
0.5735897827
0.5735239732
0.5747937339
0.5760353925
0.5750389748
0.5770514852
0.5780948805
0.5794215756
0.580846906
0.584375143
0.5876512413
0.5910951024
0.5949556712
0.5997017418
0.606186248
0.6105325601
0.6163139604
0.6229290407
0.6314271587
0.6441532524
0.6532150596
0.6644997285
0.6752439643
0.6845532197
0.6938495531
0.7006593153
0.7063154153
0.7066110458
0.7054481299
0.6970257158
0.6843712064
0.6682046088
0.6470942417
0.6221435388
0.5951381596
0.5569238225
0.5570730287
0.55770004
0.558493207
0.5590576718
0.5592904341
0.5604201195
0.5610822629
0.561565533
0.5639409343
0.56427285
0.5653296718
0.5674962805
0.5688570944
0.571522074
0.5731985507
0.5747772696
0.5786316141
0.5822169217
0.5858589864
0.5904368349
0.5965095902
0.6029905947
0.6094379074
0.620207253
0.6273177395
0.6388415825
0.6486484439
0.658080124
0.6673366639
0.6751135632
0.6807541829
0.6848654639
0.6862301403
0.6834460712
0.6753741402
0.661464711
0.6441800381
0.623459179
0.6015911628
0.5439284489
0.5442738999
0.5445094399
0.5441510168
0.5448903628
0.544509591
0.5455803578
0.5456064806
0.5462890971
0.5482718462
0.5493463262
0.5504752236
0.5495941101
0.5492334146
0.5511965639
0.5546830193
0.5552295234
0.5594577495
0.561882406
0.5655548393
0.5704209695
0.5761194318
0.5828619823
0.5898310195
0.5996245423
0.6062712379
0.6148592657
0.624784495
0.6328603681
0.6413124292
0.6522658546
0.6576302519
0.6610851976
0.6642940486
0.6642196334
0.6584280008
0.6485892863
0.6371457362
0.6207607125
0.6038187367
0.5295389912
0.5298193934
0.5302706669
0.5311668854
0.5307893434
0.5307881752
0.5312792824
0.5311629036
0.5310682491
0.5315518248
0.5324052633
0.5334683782
0.5341491736
0.5350239187
0.537793377
0.5389805413
0.5402887262
0.5432206284
0.5461271097
0.5500691018
0.5540024107
0.5598718858
0.5651310884
0.5710264005
0.5779822343
0.584687626
0.5923579468
0.6008610414
0.6108591379
0.6180860969
0.6280624064
0.6339321604
0.6403336516
0.6451409619
0.6460977371
0.6452800538
0.6400522587
0.6295060388
0.6162116684
0.5999986545
0.517458421
0.5173211448
0.5169099435
0.516479649
0.5160638681
0.5165681505
0.5162292216
0.5171317969
0.5187912672
0.5190888129
0.5204845436
0.5215311232
0.5222848076
0.5243556288
0.5261031647
0.5256676525
0.5280915789
0.531148639
0.5331643113
0.5344609451
0.5397260825
0.5440365049
0.5464548492
0.5504483089
0.5555594003
0.560993984
0.5680859739
0.5753472008
0.5814405914
0.5904282497
0.5992087808
0.6060307089
0.612110564
0.6179414344
0.6223770225
0.623420204
0.6223834663
0.6184569436
0.6108426321
0.5985632229
0.5057463235
0.505486965
0.5056028084
0.5072362047
0.5083926339
0.5086405316
0.5080813368
0.5086329095
0.5080560766
0.5083864517
0.5091801507
0.5097137405
0.5104097059
0.511085828
0.5112223208
0.511320662
0.5129435971
0.5151837668
0.5164712432
0.5203719367
0.5228753766
0.5269087088
0.5312312011
0.5365415028
0.5408617475
0.5462174313
0.55190092
0.5582895824
0.5646787618
0.5720093092
0.5801765938
0.5857050108
0.591651704
0.596575648
0.6025309984
0.6049714617
0.6053430104
0.603434902
0.5987804497
0.5908274476
0.4934141261
0.4935326934
0.4933526163
0.4926292232
0.4929508249
0.4927538724
0.4934697115
0.4936355999
0.4941270457
0.4947964953
0.4954800723
0.4956697227
0.4965372869
0.4981798906
0.4986203335
0.4987633421
0.5004516705
0.5019778143
0.5033587257
0.5055913654
0.5086854045
0.5122400133
0.5148221935
0.5186220099
0.5234610787
0.5291136215
0.5334897092
0.5389439072
0.5442843478
0.5496088228
0.5561450625
0.56357409
0.5699394886
0.5751010001
0.5808112894
0.5852636664
0.5868973767
0.5870595263
0.5848680534
0.5801031952
0.4826042019
0.4824711502
0.4825803377
0.4823039248
0.4818627839
0.4823265645
0.4822453447
0.4827617994
0.4825983036
0.4829812173
0.4837519813
0.4836572377
0.4849285516
0.4854429015
0.4857739093
0.4864137595
0.4878892903
0.4899092825
0.490762637
0.4936744485
0.4948172606
0.4958685975
0.4990270866
0.5033033799
0.5068984146
0.5107626083
0.5155978698
0.5201874646
0.5256005782
0.5322021828
0.5391111033
0.5438832681
0.5486763222
0.5537019313
0.5599371768
0.5639694467
0.5674764467
0.569952361
0.5699954684
0.5679434055
0.4716749562
0.4712621824
0.4717255172
0.472489398
0.4735073344
0.4736790072
0.4746633139
0.4750272614
0.4752045972
0.4755688665
0.4758134567
0.4764665659
0.4766525794
0.4773917229
0.4773138106
0.478079051
0.478766706
0.4793722008
0.4806930252
0.4829771698
0.4843200963
0.4859214088
0.4876670901
0.4910077258
0.4941108715
0.4965480583
0.5000493587
0.5034856603
0.5086008173
0.5132090308
0.5192450991
0.5237310703
0.5308852388
0.5364957015
0.5425079628
0.547007339
0.5495214289
0.5522160433
0.5545023427
0.5549154336
0.4621678268
0.4628275289
0.4636221264
0.4629666243
0.4623260542
0.4625778852
0.4623968142
0.4620892322
0.463032838
0.4633197326
0.46378919
0.4634211648
0.4643574874
0.465528336
0.466383596
0.4660648779
0.4669243479
0.4685144994
0.4703513935
0.4727611181
0.4736538154
0.4747077044
0.4761177973
0.4781776452
0.4815188627
0.4841581291
0.4868859467
0.4922773446
0.4975177219
0.5013310041
0.5071534389
0.5099250042
0.5159704466
0.5202107228
0.5237017083
0.5283538716
0.5335139477
0.5356206419
0.5367449972
0.5379672969
0.4523548507
0.4524607414
0.4518450946
0.4524507375
0.4528162021
0.4527635446
0.452327807
0.4527916541
0.452916045
0.4530678539
0.4535281287
0.455006018
0.4553390318
0.454846061
0.4548078847
0.4557960609
0.4560931333
0.4562031858
0.4572782694
0.4588620991
0.4601875969
0.462280397
0.4630379576
0.4659041969
0.4685883565
0.4699200073
0.4716144768
0.4754583474
0.4774498699
0.4815264621
0.4847481784
0.4892440576
0.4939807815
0.4991310594
0.5041061481
0.5098538462
0.5146992058
0.5176006448
0.5199595702
0.5222979431
0.4429467796
0.4426156305
0.4423817524
0.4424329348
0.4423261857
0.4421771361
0.4432209882
0.4427934883
0.4430362463
0.4433028066
0.4433926884
0.4436595663
0.4434057645
0.4432055658
0.4439077595
0.4440920143
0.4448977197
0.446440366
0.4472530291
0.4481591245
0.4501436602
0.4500449649
0.4510938797
0.4534522087
0.4554665656
0.4576220093
0.4608438939
0.4644146797
0.4667020151
0.4710611465
0.4739970925
0.4772049156
0.4818459736
0.4838800759
0.4879308828
0.4920811698
0.4976751089
0.5008927409
0.503507732
0.5076620647
0.4339749662
0.4338486078
0.4347068736
0.4346390779
0.4346242648
0.4344594934
0.4339068685
0.4341994113
0.4342858921
0.433862533
0.4342009833
0.4342329609
0.434439548
0.4349554103
0.4364598249
0.4367016723
0.4381192354
0.4386627818
0.4382048487
0.4395983056
0.4419694043
0.4423423188
0.4432561905
0.4451151073
0.446525437
0.4488460692
0.4494126507
0.4527078785
0.4542273295
0.4564217483
0.4595750713
0.462937081
0.4668438787
0.4710210057
0.4745872284
0.4795437397
0.4834579638
0.4877758656
0.4910184366
0.4938987914
0.4254909653
0.4258180188
0.4250160921
0.4250098926
0.4256523403
0.4262233391
0.4270414484
0.4270052801
0.4274003462
0.4275196254
0.4275760168
0.4277557639
0.4286210148
0.4285870634
0.4292069274
0.4290070455
0.4295893171
0.4297721142
0.42977725
0.4306544915
0.43080977
0.4305254301
0.4320237965
0.4330486732
0.4336965055
0.4361986135
0.437610842
0.4400504521
0.4422345921
0.4448568484
0.4468499246
0.4501826515
0.4533472342
0.456481176
0.4600053937
0.4629102051
0.4663466008
0.4693338979
0.4720517638
0.475273758
0.4173866602
0.4176186309
0.4180106725
0.4182917583
0.4175610708
0.4178603528
0.4188316043
0.4184069316
0.418431271
0.4183725414
0.4185248883
0.4188471358
0.4196407442
0.4199415703
0.4193170597
0.4196491786
0.4197080105
0.4206849465
0.4211261022
0.4222781991
0.4228015479
0.423520817
0.4248864147
0.4247494477
0.4260425724
0.427105156
0.4285143373
0.4305573011
0.4332362784
0.4358501445
0.436159089
0.4383727606
0.4411530904
0.4443166194
0.4465562282
0.4484046535
0.4523536102
0.454828749
0.458759196
0.4618669379
0.4094617414
0.4091968315
0.409129027
0.4091062413
0.409225236
0.4091573321
0.4090592178
0.4094588504
0.4092901162
0.4098701758
0.4098206474
0.4095964787
0.4096555415
0.4101879918
0.4103184571
0.4103949992
0.4112109699
0.4119861923
0.4126610723
0.4126778896
0.4135589503
0.4137544707
0.4154846045
0.415876142
0.4164013821
0.4176404365
0.4195815318
0.4204138377
0.4206527561
0.4230247336
0.4242795065
0.4257782122
0.4271084141
0.4314690969
0.4344158519
0.4372281178
0.4400895743
0.4429086542
0.4451453056
0.4475428483
0.4021528039
0.4025737053
0.4026625642
0.4027501669
0.4024918371
0.4017506795
0.4021114316
0.4016955482
0.4014174932
0.4011096605
0.4019093138
0.4022509022
0.4018993858
0.4018716584
0.4024462507
0.4029052834
0.4031552685
0.4031874585
0.4036020412
0.4044476667
0.4053633512
0.4058355351
0.4061638262
0.406812031
0.4082700418
0.4092120247
0.4095140809
0.4114982211
0.4128414714
0.4145182109
0.4153480986
0.4171653495
0.4195140794
0.4231480616
0.4243346528
0.4267671448
0.4299776506
0.4316714388
0.4341352403
0.4388614535
0.3946218533
0.3946834435
0.3939583161
0.3943913488
0.3946362896
0.3952225877
0.3955973058
0.3958683756
0.3960008427
0.3960018873
0.3954624575
0.3958004392
0.3956854879
0.3956786246
0.3958117214
0.396145229
0.3963896608
0.3963559615
0.3966940979
0.3972426657
0.3976421543
0.3977036421
0.3987743205
0.3997831088
0.400158122
0.4003681153
0.4005540653
0.4017082378
0.4035881183
0.4050856397
0.4063688467
0.4078606478
0.4094109166
0.4112413141
0.4131898928
0.4151846191
0.4170307193
0.4182808108
0.4199198285
0.4232504762
0.3878622363
0.3881406467
0.3889336212
0.3885731059
0.3890399862
0.3891736034
0.3890055109
0.3885802247
0.3888797646
0.389402357
0.3891965239
0.3888504314
0.3897131412
0.3891833854
0.3890034444
0.3885266193
0.3883938072
0.3887190546
0.3891918075
0.38843349
0.3881383761
0.3884921632
0.3891013043
0.3900122276
0.390587359
0.3911302038
0.3921739181
0.393389981
0.3943166779
0.3956604659
0.3968803338
0.3982059778
0.3994056638
0.4012251847
0.4028781677
0.4058453466
0.4074545232
0.4088255441
0.4112952381
0.4124258704
0.3810756453
0.3807887282
0.380437158
0.380339358
0.3802899563
0.3804001038
0.3807146119
0.3809190009
0.3805929407
0.3806257378
0.3807053048
0.3808599466
0.3807526118
0.3805855192
0.3811717795
0.3816538763
0.3818130098
0.382520871
0.3823794015
0.3826093573
0.3833717113
0.3835734284
0.3836133174
0.3838999809
0.3846081079
0.3849817517
0.3854288927
0.3854639526
0.385787367
0.3863875867
0.3874306511
0.3888417666
0.3906115721
0.3916352422
0.3925241668
0.3939224681
0.3962572482
0.3979041154
0.398944081
0.4002656426
0.3737389289
0.3735084403
0.3734723773
0.3736322002
0.3733914036
0.3732970645
0.3729092799
0.3730392916
0.3729645052
0.3732891393
0.3733261936
0.3733708548
0.3736926025
0.3733806486
0.3732045263
0.373248382
0.3739089114
0.3746899457
0.3750817063
0.3752042938
0.3755466149
0.3760274029
0.3763272077
0.3774150749
0.3771547051
0.378033386
0.3785347672
0.3792622383
0.3798948272
0.3803904728
0.3805710489
0.3809667235
0.3822812558
0.3831093359
0.3838260882
0.3842701444
0.3856795697
0.3869965328
0.38860051