/*--------------------------------*- C++ -*----------------------------------*\
| =========                 |                                                 |
| \\      /  F ield         | OpenFOAM: The Open Source CFD Toolbox           |
|  \\    /   O peration     | Version:  v1706                                 |
|   \\  /    A nd           | Web:      www.OpenFOAM.com                      |
|    \\/     M anipulation  |                                                 |
\*---------------------------------------------------------------------------*/
FoamFile
{
    version     2.0;
    format      ascii;
    class       volScalarField;
    location    "0.004";
    object      p_Ar;
}
// * * * * * * * * * * * * * * * * * * * * * * * * * * * * * * * * * * * * * //

dimensions      [1 -1 -2 0 0 0 0];


internalField   nonuniform List<scalar> 
4000
(
1.415077078
1.430575298
1.478687452
1.482776241
1.495650945
1.5479579
1.584411997
1.655838683
1.783975415
1.906948497
2.004086584
2.251919192
2.498743998
2.761277975
3.087280504
3.673396458
4.184022863
4.964638903
5.814627883
7.227409807
8.618134111
10.47581237
12.72185898
15.59428968
18.98146428
23.24945774
27.65630545
32.09344576
36.98775793
41.6806946
45.81338352
49.22553736
52.22596185
54.25058598
55.60198601
56.9706665
57.93793946
58.75803973
59.36759033
59.82335432
1.40127858
1.423909187
1.452142517
1.484982337
1.509282918
1.566540838
1.631403499
1.664550063
1.715350033
1.840676905
1.96161165
2.13532825
2.28123502
2.585969322
2.963972977
3.387021064
3.937955941
4.67984721
5.577245739
6.658007307
8.113372437
10.05783342
12.21650722
14.975359
18.33675517
22.28056277
26.72606952
31.41368891
36.13590102
40.78485049
44.76526887
48.27195106
51.03947868
53.29010958
54.87461418
56.23955851
57.41383576
58.30318537
59.12660228
59.42586325
1.398515851
1.424356258
1.456235633
1.484969915
1.52006899
1.574254858
1.628301745
1.672056154
1.733982985
1.813600928
1.959633423
2.082009197
2.254380362
2.565783007
2.866359765
3.313713759
3.823005426
4.4856213
5.351811901
6.520744356
7.986356213
9.801529265
12.03844836
14.90505365
18.13360069
21.93757298
26.38052203
31.14431962
35.74856132
40.31908513
44.54718402
47.84957694
50.73485731
53.04103569
54.66230633
55.9185687
57.10652627
58.17284397
58.80842814
59.25760294
1.419479001
1.434937291
1.448971288
1.46536042
1.504487068
1.544974427
1.604683329
1.642890427
1.729362207
1.809644077
1.924301654
2.0470636
2.227137919
2.520037928
2.839917899
3.194932039
3.711939784
4.387170279
5.258349644
6.378267587
7.791162196
9.648690435
11.88339343
14.76349689
17.90219064
21.70547053
26.00154299
30.66648909
35.47954791
39.95702124
44.14456575
47.72160853
50.54093045
52.79082915
54.37493622
55.73349484
57.03240631
57.90918046
58.72097177
59.19956456
1.41827583
1.442464259
1.456002111
1.471806171
1.496215224
1.539719624
1.595283183
1.651238231
1.718540585
1.809854508
1.930192307
2.055972896
2.262627634
2.499570654
2.784744751
3.146254923
3.66632723
4.308562807
5.195007349
6.323077757
7.783501665
9.498398348
11.67185286
14.34913513
17.72033478
21.39551508
25.69138497
30.42093591
35.15863824
39.50519863
43.7502707
47.288278
50.11610633
52.47733697
54.23421446
55.60208185
56.88639785
57.9192233
58.52262163
58.89582337
1.412647232
1.43085009
1.444459467
1.46809025
1.497072042
1.540082972
1.572761327
1.640751553
1.730663245
1.796621217
1.890982205
2.027855522
2.224108108
2.464034017
2.772918335
3.156366249
3.594603245
4.278931151
5.144200089
6.211896296
7.511608202
9.254908734
11.53017853
14.08383643
17.32732267
21.14689542
25.42925366
29.99919143
34.63388574
39.19505806
43.34506169
47.02144874
49.91027724
52.14079654
54.00272021
55.45934228
56.65507624
57.72389343
58.43036013
58.85724984
1.413085717
1.436006319
1.454340155
1.490365529
1.504702375
1.524564367
1.566008883
1.617629509
1.696443582
1.77115158
1.865763088
2.000665563
2.181168967
2.397335109
2.729844945
3.086344614
3.589705197
4.220457647
5.013332582
6.025905573
7.347942586
9.123947968
11.23318773
13.8335633
17.04019045
20.77251406
25.04137606
29.63268891
34.20666202
38.69866442
42.99610541
46.73497609
49.60861903
51.89858488
53.7510652
55.27279129
56.39577169
57.38456312
58.10703982
58.62856902
1.416226373
1.426732557
1.443214167
1.466598633
1.492883758
1.52159436
1.559361691
1.614257477
1.687096687
1.760294348
1.868191126
1.997800386
2.169164906
2.390731515
2.67186048
3.015459005
3.50081932
4.080620796
4.899959797
5.946008286
7.204188985
8.883259829
10.92966928
13.50276778
16.62952775
20.31741193
24.57709512
28.97811655
33.65811662
38.12238812
42.46398004
46.15647143
49.20596532
51.5503149
53.4132004
55.01917515
56.36442312
57.20182469
57.85998879
58.39254565
1.410932377
1.422740844
1.43784986
1.463812552
1.491575978
1.52468867
1.578672523
1.623776693
1.669868983
1.771969135
1.860097637
1.981526283
2.122040778
2.342990169
2.618162738
2.930822994
3.415404385
4.009436101
4.753365027
5.734755022
7.004810232
8.68795561
10.70314373
13.18295938
16.26106338
19.8572082
23.93201363
28.4691616
32.93168509
37.56632873
41.75897541
45.68175799
48.62421801
51.11760386
53.05058959
54.71797716
55.78114005
56.94015612
57.69281286
58.16099907
1.415240833
1.43218827
1.449738475
1.467371526
1.501474431
1.5197974
1.564240334
1.612605783
1.670310799
1.743378657
1.85004261
1.946968573
2.099140772
2.308051022
2.57157911
2.890899503
3.310444938
3.89091336
4.60617238
5.536734617
6.808336557
8.417000891
10.31772349
12.74258741
15.69083136
19.2128694
23.22111398
27.71472868
32.30101625
36.93489129
41.2442732
44.99768412
48.16734418
50.64316692
52.62071676
54.13641508
55.42462576
56.59217097
57.49936609
58.05766305
1.417826349
1.43292129
1.458689544
1.473328754
1.494602355
1.527880831
1.559819979
1.617676189
1.664953975
1.724368427
1.832899392
1.930151949
2.069389471
2.264261647
2.510700096
2.886635531
3.277856218
3.858624908
4.527536629
5.440671513
6.614264983
8.138350057
10.06323394
12.31846842
15.31155256
18.64898103
22.55927711
26.85469479
31.51570251
36.11812283
40.50605073
44.31654587
47.45141341
50.07211987
52.13970681
53.91694546
55.18535225
56.2930699
57.25356966
57.72055334
1.40873958
1.424358205
1.445730167
1.466505296
1.486914383
1.520747316
1.549248471
1.586954409
1.651439759
1.732484556
1.81946776
1.90676621
2.041703356
2.23444561
2.48980102
2.82083408
3.227015357
3.7643986
4.373217005
5.307047168
6.407241516
7.858320124
9.669722071
11.83177436
14.69346273
17.9866473
21.73833824
26.0280473
30.56000703
35.21290959
39.48422118
43.3723009
46.83117703
49.4947926
51.67283188
53.3520596
54.73621279
55.89222696
56.74357427
57.37059403
1.402799542
1.417832188
1.442278932
1.462310989
1.484651618
1.519314801
1.551695819
1.582785539
1.646725839
1.692858226
1.782152272
1.902671806
2.048130546
2.214191551
2.42168423
2.711554069
3.107158095
3.648831537
4.274895773
5.103309442
6.246379725
7.589581284
9.291973219
11.5111535
14.05064412
17.23220869
20.96236193
25.0505804
29.57013697
34.11947562
38.54044473
42.32067352
45.95752074
48.62594944
50.92933978
52.53616965
54.13606134
55.43104701
56.35754065
57.14828602
1.403804028
1.415104177
1.437036316
1.45524763
1.479685717
1.507917024
1.540628628
1.571550461
1.622349073
1.688534163
1.77481925
1.88104994
2.010033898
2.142839084
2.348782676
2.660078217
3.024171697
3.464009915
4.091338896
4.915885237
5.931984498
7.206554562
8.916809474
10.96111652
13.50222141
16.44229248
20.11967381
24.1215938
28.42722655
33.06231292
37.25095919
41.34413083
44.77728604
47.70609639
49.91167358
51.91473727
53.36510994
54.6638977
55.84393163
56.6638567
1.403200829
1.421340033
1.44009901
1.452444118
1.466497414
1.492102228
1.506750121
1.547782632
1.581913143
1.656404876
1.742690243
1.821230408
1.953113033
2.11092612
2.290367729
2.578614293
2.968745392
3.414712003
4.02421132
4.77701678
5.76107207
7.035169062
8.52847151
10.37931074
12.80967439
15.74281295
19.13760424
23.06698557
27.38807034
31.78615892
36.13536472
40.01251908
43.60492726
46.46616961
48.8293971
50.84639093
52.59167719
53.93260355
55.09123011
55.9598511
1.399277592
1.408789503
1.418837457
1.427587486
1.440900273
1.480088194
1.513140617
1.542839552
1.596492141
1.650478045
1.71491097
1.804488382
1.947627111
2.078212918
2.305003529
2.530210544
2.926371655
3.356128934
3.856941602
4.592414434
5.509589291
6.656896244
8.080895708
9.900234457
12.19648767
14.92987126
18.17272585
21.97691212
26.08674716
30.40127514
34.72099245
38.8087508
42.33903239
45.27354369
47.76253579
49.6637765
51.41324624
52.75759833
54.09630577
55.2636467
1.400391256
1.406271638
1.4229328
1.427699839
1.446626461
1.478451718
1.510168325
1.541635993
1.589501286
1.644951503
1.694338556
1.788376735
1.900884314
2.062648536
2.254893632
2.492862748
2.829879566
3.169145064
3.708976488
4.413904039
5.254104903
6.317017225
7.617359478
9.427802614
11.53143036
14.16584207
17.16915251
20.75363877
24.78565853
28.98579398
33.38656921
37.46979291
40.90626944
44.014215
46.33738924
48.19992483
49.97686263
51.3460289
52.70870243
53.94383279
1.39894736
1.412739958
1.423697595
1.436686497
1.448588181
1.463180448
1.501829827
1.529823049
1.550811611
1.597330261
1.686449644
1.761213815
1.865510052
2.027335754
2.194002459
2.439148696
2.683070554
3.059788047
3.574828396
4.190826778
4.95366615
5.988055851
7.206215494
8.88712645
10.83681297
13.25884009
16.10778336
19.59955414
23.31905437
27.56316281
31.79213413
35.80717928
39.2972409
42.26538238
44.53919424
46.50190116
48.04866323
49.34377932
50.8231555
52.46285035
1.403618421
1.413904765
1.422133085
1.440111133
1.452032831
1.467288288
1.491563348
1.53159882
1.553903017
1.599376599
1.661503577
1.736455137
1.845075857
1.980558058
2.146520692
2.372423672
2.638289423
3.002958259
3.461425171
3.943697139
4.657288725
5.578532144
6.724098062
8.251707774
10.17111286
12.52292043
15.10664769
18.33769879
22.04458279
26.00373125
30.12814988
33.94109791
37.27971935
40.42269322
42.67015715
44.49486934
45.77559073
46.84890829
47.95959399
49.70807626
1.402531863
1.410689707
1.419740247
1.43659403
1.439575562
1.459171464
1.486793863
1.518151189
1.544096684
1.593638009
1.639496953
1.723311755
1.816468994
1.933714502
2.09261251
2.304509387
2.56456151
2.874140511
3.234320298
3.739463292
4.377079091
5.215997082
6.415506108
7.753238342
9.450632339
11.66998965
14.10493139
17.26810256
20.58723034
24.40936318
28.17696453
31.92779886
35.38769868
38.35107059
40.4737986
42.22286509
43.06266828
43.18352237
42.99518198
44.00575247
1.398040623
1.406511978
1.418630871
1.42987503
1.444691024
1.470407091
1.482909998
1.503037739
1.514305363
1.565548418
1.642646585
1.692646009
1.777166541
1.898119635
2.029914727
2.226106419
2.467791273
2.77989263
3.120709968
3.583785935
4.157174205
4.942034005
5.953648689
7.225762158
8.807583788
10.69803443
13.13552695
15.88004756
19.05439277
22.54739716
26.28491713
29.89254148
33.21942013
35.99164131
38.25852905
39.56797192
39.90617614
39.14547491
36.35980354
28.75851281
1.400478309
1.411926155
1.428245447
1.429976964
1.443373609
1.46546111
1.473271279
1.503919693
1.520620419
1.552711735
1.625519851
1.669561103
1.767657475
1.86176194
2.002875468
2.151667013
2.367809209
2.640054359
3.007469472
3.399588084
3.940183819
4.660919458
5.658198627
6.777414551
8.192232495
9.888274703
12.08809953
14.70103961
17.60822702
20.84161634
24.3510398
27.80057389
30.87257156
33.72604373
35.8133932
36.90365625
36.90974268
35.28690229
31.42091208
24.39773856
1.393649111
1.404399833
1.411971227
1.423180131
1.434223849
1.455228418
1.474225493
1.48986855
1.531606662
1.54854083
1.610819022
1.671963011
1.726165467
1.820394734
1.946542134
2.105985534
2.295017887
2.54879038
2.858684886
3.24056262
3.752454627
4.404014266
5.210388015
6.326390885
7.573513543
9.17898475
11.12797212
13.44998583
16.10746444
19.159559
22.37081537
25.6138722
28.77536335
31.45775499
33.45717777
34.2753654
34.17985305
32.30276275
28.52691929
23.18149791
1.39307844
1.401388071
1.411456771
1.41717205
1.424573678
1.441770043
1.464913295
1.498938382
1.52188606
1.551557368
1.603581952
1.645929608
1.728010915
1.800445181
1.909802249
2.055039161
2.246027326
2.470385126
2.725532843
3.050557187
3.55641731
4.128539104
4.837959371
5.823076693
6.911163438
8.387294668
10.24295682
12.24808569
14.70945373
17.44136237
20.52301906
23.49779442
26.54477961
28.9299623
30.9072287
31.77847372
31.57793953
29.86307453
26.92128882
22.69085065
1.387563729
1.399625848
1.411171419
1.428064467
1.437556773
1.441340293
1.455199696
1.483899255
1.49813916
1.53761715
1.572042695
1.610667464
1.698442023
1.787841336
1.882029805
1.977350286
2.168454267
2.333263869
2.623752047
2.9272678
3.361789189
3.840692106
4.495562706
5.376623179
6.404340744
7.602722238
9.226237172
11.14053049
13.37103876
15.89305877
18.7028453
21.56055548
24.24223604
26.69023548
28.53283603
29.39717434
29.24557471
27.9792821
25.64332609
22.38004206
1.397142874
1.404592271
1.407022705
1.42214014
1.429826655
1.438159161
1.451147283
1.468451828
1.504200041
1.525232736
1.555286112
1.604393536
1.672367836
1.747632864
1.83416617
1.936310738
2.073850446
2.275386338
2.495327032
2.787694511
3.143094359
3.593466167
4.163491845
4.93996401
5.905030871
6.966088016
8.408820988
10.08191899
12.08182595
14.38989685
16.92141363
19.53190652
22.07499515
24.34628473
26.10318944
27.18979166
27.23971464
26.44862138
24.58537465
22.04062207
1.395012908
1.401516296
1.409024251
1.416188811
1.425801711
1.432436686
1.44858369
1.462109575
1.488082454
1.505120089
1.538557376
1.580214813
1.645935292
1.715553562
1.785627697
1.889022166
2.009803253
2.197434115
2.398610203
2.674539223
2.956455344
3.382047767
3.871254262
4.59211379
5.330198564
6.365281765
7.651539367
9.105944923
10.8986367
12.93723223
15.17406434
17.54810221
19.90129904
22.10668769
23.91038728
25.01872787
25.48114732
24.94291055
23.67242517
21.6301411
1.393686633
1.399233792
1.405408737
1.408977514
1.419994567
1.43049872
1.434593797
1.4559701
1.475937353
1.497726854
1.523961646
1.572324221
1.606900042
1.688797528
1.742660198
1.845675118
1.95105107
2.112286519
2.303844016
2.534456705
2.79898139
3.170942455
3.632611217
4.25497207
4.994607436
5.781309099
6.955148724
8.219423122
9.774854028
11.63440299
13.56366838
15.75290454
17.97112806
20.01681762
21.7413517
23.01142996
23.61697316
23.51979447
22.57662974
21.12881221
1.395590888
1.394898255
1.397094198
1.405832613
1.423910023
1.428544285
1.437687927
1.450392447
1.465481162
1.48480105
1.507745412
1.536436004
1.589311361
1.655455258
1.718460605
1.826439871
1.908117976
2.033095992
2.218507595
2.400871421
2.650583355
2.96772982
3.377191404
3.898331153
4.564003106
5.270210636
6.25776831
7.442565155
8.873902283
10.40529899
12.17876142
14.08453845
16.03641264
18.04940366
19.68709568
21.04766024
21.84603047
22.10683222
21.59834566
20.63276343
1.390497815
1.396073693
1.397848999
1.4031953
1.411742519
1.422371743
1.427695854
1.434818878
1.457238129
1.473452479
1.492173454
1.534848243
1.565030829
1.627368761
1.708205363
1.773520644
1.847686885
1.956426192
2.12806422
2.298829548
2.529394326
2.796482107
3.135519079
3.601752692
4.138179038
4.807001784
5.670730315
6.684950428
7.954420965
9.311013295
10.77389091
12.50710635
14.33270746
16.11432949
17.77938124
19.17928777
20.11860616
20.63055254
20.49397311
19.8525968
1.391562585
1.396765751
1.400506689
1.403133389
1.405953897
1.417521263
1.425122449
1.439312927
1.449879123
1.456907776
1.477665174
1.509283659
1.560672948
1.59209901
1.655974851
1.717708439
1.79547728
1.891631103
2.042023316
2.175962856
2.422585548
2.64464833
2.949115529
3.347087237
3.83029324
4.412543728
5.122744433
5.985400985
7.045720748
8.204243206
9.607620664
11.05890467
12.72690986
14.40128069
15.9636046
17.3582817
18.39097998
19.11436448
19.28906075
19.02166995
1.38968321
1.393014569
1.400863897
1.407592891
1.405255386
1.415436372
1.428544076
1.430286688
1.442133662
1.449130582
1.48292826
1.505408152
1.537233214
1.578219028
1.645340151
1.708920066
1.771863615
1.855725646
1.969748199
2.096925119
2.28302853
2.504716653
2.755589126
3.110694858
3.535843368
4.015985372
4.651268946
5.385357049
6.304305564
7.345754601
8.451302552
9.76235234
11.26485813
12.71238879
14.27013907
15.61140258
16.76330715
17.54486858
17.98577394
18.10438455
1.387206687
1.394473249
1.394200679
1.399329999
1.400221901
1.407158104
1.422819302
1.432767788
1.440071231
1.456962611
1.475355026
1.491161792
1.517163101
1.553625426
1.611274858
1.664465756
1.729872959
1.793178956
1.89122219
2.011247706
2.184521648
2.374331386
2.616330354
2.90550727
3.283069293
3.722653395
4.24124533
4.838463822
5.618010625
6.520264708
7.490691764
8.646305025
9.963252503
11.23909843
12.67898892
13.98493858
15.08929548
16.0179281
16.68187616
17.00108356
1.389222375
1.389876918
1.396589118
1.399429827
1.405521007
1.408969169
1.41615896
1.424690328
1.444016155
1.46375481
1.466463314
1.473486542
1.503134951
1.535830562
1.596070566
1.631696056
1.672144715
1.755746502
1.84547942
1.940225907
2.070499545
2.273176754
2.455218092
2.70926465
3.03437177
3.391564692
3.818297889
4.372044959
5.032607378
5.776680696
6.64988972
7.692013826
8.77931675
10.01874782
11.1685658
12.42421827
13.59339117
14.51171854
15.29143285
15.84919377
1.387944401
1.395380837
1.399134924
1.404475547
1.404704942
1.40053972
1.40787901
1.421580682
1.430314936
1.442436598
1.45539755
1.477870853
1.494712431
1.543999142
1.580194138
1.608714371
1.646805936
1.706107515
1.781993917
1.878199008
1.998446044
2.172488513
2.324757491
2.560718388
2.861459889
3.147372815
3.519444021
3.967017615
4.515323884
5.144639883
5.886442888
6.722154317
7.764568976
8.834013698
9.882572718
10.9803265
12.12367238
13.07093614
13.91726156
14.59485788
1.384652229
1.393208162
1.394976793
1.397783746
1.400787197
1.402941471
1.406670879
1.413799061
1.42004041
1.433369397
1.46029803
1.474114299
1.485457812
1.521263339
1.552218015
1.58574271
1.621292973
1.670795894
1.731752652
1.82560074
1.920034032
2.08043163
2.212444143
2.395883087
2.623906197
2.926252379
3.21723665
3.620665646
4.061291415
4.581836247
5.25404156
5.929005513
6.811538651
7.785080785
8.686774154
9.750198338
10.73451065
11.71540172
12.56026444
13.29386426
1.383059309
1.387563133
1.389103549
1.391725403
1.392923132
1.406454905
1.405400321
1.416929043
1.425579445
1.432097992
1.459389474
1.472019713
1.491209621
1.505038778
1.529764668
1.572281892
1.594305722
1.645359319
1.704240733
1.791015462
1.862181928
1.975476907
2.090018508
2.25360932
2.455064596
2.675758027
2.960224243
3.281359774
3.690757764
4.138811643
4.694697302
5.278145492
6.023591578
6.821944144
7.684434237
8.553838101
9.469421962
10.33681631
11.26845048
12.07451275
1.38463687
1.387069579
1.388364636
1.392740397
1.398757288
1.402466313
1.409219021
1.411829628
1.424091157
1.43052934
1.442972373
1.459823197
1.470587061
1.485716907
1.513624977
1.535606077
1.567202176
1.618597506
1.666852246
1.740958756
1.807579487
1.893227385
1.994922965
2.122854943
2.324785181
2.497044699
2.750385565
3.031057515
3.329600639
3.766454377
4.208809271
4.7431218
5.289623684
6.024764811
6.763826576
7.58527415
8.328207942
9.172524218
10.05044523
10.84377473
1.387912962
1.390797751
1.394333534
1.396008805
1.397129134
1.397547952
1.40584319
1.414397413
1.418559966
1.431024636
1.437421582
1.446502392
1.462438258
1.467111801
1.495855093
1.521741326
1.535961551
1.586108384
1.631328421
1.688354734
1.757334709
1.839850879
1.939936629
2.050083648
2.214932859
2.352844119
2.571087811
2.814460151
3.075669994
3.398957264
3.77896295
4.20246931
4.702668904
5.320898328
5.936706811
6.653996024
7.374002231
8.118987297
8.942724828
9.683426312
1.387780311
1.391218253
1.396123136
1.394968811
1.398197413
1.398256435
1.400386211
1.400656793
1.406789867
1.418049512
1.421305368
1.447008424
1.452384112
1.467798805
1.492923389
1.517090357
1.527311306
1.573536761
1.608485499
1.658210278
1.711373302
1.765439247
1.853646362
1.954686467
2.103948023
2.218476417
2.400229621
2.609932704
2.835221444
3.082178229
3.453860125
3.780566601
4.180126653
4.67316725
5.223851766
5.863054002
6.498686073
7.200373093
7.933243685
8.579970141
1.383853009
1.387108198
1.38760212
1.388351318
1.389664437
1.39918059
1.401412637
1.401176743
1.411382699
1.420398675
1.43749265
1.43839054
1.445838988
1.44568825
1.471741881
1.489589641
1.509185932
1.543506081
1.569369389
1.606019877
1.65788015
1.736224553
1.805865843
1.886585706
1.990546055
2.10257078
2.240148436
2.425175359
2.629733862
2.852688419
3.150870468
3.423445886
3.763753479
4.163824642
4.680675493
5.178310074
5.676477114
6.347472601
6.969629558
7.625990839
1.392213331
1.394064721
1.393219036
1.400408895
1.402526511
1.403954951
1.399977721
1.405280565
1.406014681
1.409139657
1.422571266
1.433448071
1.436420779
1.452536042
1.467055429
1.46639921
1.484155467
1.517165592
1.539462151
1.571544758
1.63287909
1.693779691
1.745565871
1.815759934
1.903023951
2.005320672
2.122695695
2.26461369
2.431139012
2.643775676
2.902353255
3.139425675
3.407755225
3.755867879
4.157227127
4.60027274
5.089517496
5.584022902
6.144264945
6.759197556
1.384582342
1.385894206
1.386059912
1.38461113
1.385086968
1.381519891
1.388151656
1.397978625
1.400530349
1.409107112
1.415502847
1.421669702
1.427392572
1.440957183
1.448291104
1.450618958
1.473265414
1.501604053
1.524152608
1.560652487
1.594541873
1.650120454
1.694295699
1.761784611
1.816736082
1.913233192
2.013188948
2.136351831
2.264623702
2.437661723
2.65400103
2.877326701
3.131864953
3.377599289
3.751013145
4.097714346
4.516139009
4.976599369
5.464137339
5.944500362
1.383152225
1.381529977
1.385322889
1.386460733
1.388456834
1.390637722
1.388915385
1.393000333
1.400785972
1.401417695
1.410455448
1.416063347
1.422337729
1.430950974
1.436706496
1.445469445
1.47079865
1.494919337
1.508835751
1.534527012
1.567753131
1.601354685
1.648477337
1.708391226
1.773479915
1.852584263
1.92251472
2.025062473
2.140152249
2.270968811
2.44193821
2.647959221
2.868487087
3.095135642
3.395901165
3.67954084
4.024866085
4.420441035
4.854174272
5.272771864
1.380012049
1.380762251
1.380402207
1.379619641
1.385852767
1.387538173
1.388926348
1.390823499
1.391002334
1.398217698
1.407058156
1.404102023
1.420182779
1.429505572
1.435745838
1.437361118
1.449588871
1.470584571
1.487659428
1.522779527
1.54771339
1.574808626
1.608438858
1.662267547
1.722734148
1.787881335
1.858867297
1.933966454
2.028982432
2.147245681
2.291808816
2.446583419
2.630156915
2.808668796
3.057794458
3.339878389
3.597659002
3.923869377
4.289794948
4.675752501
1.379562367
1.384296694
1.385201836
1.383117762
1.380855604
1.385819158
1.387788961
1.388358214
1.389409748
1.39461752
1.398964513
1.40728889
1.408282528
1.420852457
1.425663452
1.431074312
1.43576108
1.451104305
1.47192866
1.506985631
1.526368207
1.541701507
1.572175203
1.623605852
1.675349357
1.720094939
1.783423026
1.849315574
1.942022777
2.02890809
2.161800726
2.262328758
2.417896723
2.602116949
2.809084982
3.029250656
3.260180036
3.532212425
3.816023716
4.170336577
1.381527409
1.381951116
1.381203165
1.383420921
1.388261352
1.38498017
1.388879698
1.391890949
1.396910496
1.395972297
1.401932169
1.408502951
1.416075033
1.41861355
1.423268007
1.427576438
1.441086965
1.45273224
1.463463847
1.489920711
1.506058028
1.525755471
1.552598421
1.591806929
1.633981804
1.65838622
1.698064963
1.767458619
1.854089937
1.933696386
2.044112802
2.12960356
2.262330635
2.399019905
2.562395426
2.756853559
2.991335995
3.204768939
3.412603553
3.741707392
1.384668739
1.380765984
1.384693506
1.381674805
1.381201706
1.380777275
1.384991077
1.393735812
1.394450015
1.402866938
1.401630638
1.40558453
1.411581451
1.411551451
1.417649006
1.430023968
1.438214994
1.44717821
1.466271449
1.484858542
1.494951375
1.512409181
1.522088996
1.551645593
1.597972346
1.628346424
1.670479904
1.736118954
1.788299941
1.870959477
1.933009802
2.023110887
2.136039846
2.248516857
2.370921589
2.539890461
2.741281819
2.905827676
3.111921597
3.341380786
1.380174866
1.381639225
1.382235622
1.382203702
1.382499325
1.387847466
1.386827364
1.380570369
1.38719737
1.389483979
1.389707508
1.401599698
1.404976599
1.407935625
1.415403146
1.417881991
1.426989539
1.438397893
1.443075359
1.462944234
1.491893119
1.494144055
1.505247525
1.54123271
1.568330905
1.604459146
1.638159454
1.689606359
1.727136236
1.791054829
1.846034214
1.920487517
2.02437441
2.100470898
2.218225175
2.361032484
2.51026122
2.670338633
2.831589291
3.039799046
1.376832617
1.378534251
1.376126841
1.376363882
1.372822891
1.37634322
1.383897497
1.386221323
1.388082614
1.388164746
1.391226318
1.39897079
1.401574126
1.401108255
1.410694715
1.410187155
1.424896634
1.43504512
1.431674927
1.44340538
1.469783343
1.470651116
1.486923964
1.505993273
1.534553214
1.570097524
1.59272598
1.643049362
1.680063767
1.7225517
1.776479449
1.848636963
1.921242921
2.017380687
2.090700497
2.198961931
2.340307422
2.458988058
2.604723077
2.7669271
1.377816276
1.37580643
1.379243293
1.380503564
1.381466701
1.380704035
1.385806615
1.38297205
1.383166749
1.381150677
1.38365796
1.383814594
1.392729179
1.394984421
1.400913846
1.399303766
1.408324414
1.419772481
1.420945989
1.433409852
1.454459917
1.467715585
1.487511537
1.502339419
1.516797113
1.539463921
1.558347264
1.611057729
1.638144282
1.676700169
1.704254123
1.766975687
1.833005359
1.900019465
1.978771877
2.075220476
2.187380552
2.29581729
2.418399093
2.566252205
1.38591501
1.387126517
1.38236639
1.383257524
1.381364322
1.381637312
1.383220452
1.383650623
1.384612175
1.384763231
1.386972564
1.385372529
1.387423748
1.398614834
1.398999113
1.405733865
1.413522561
1.420662074
1.423632035
1.433365195
1.445799752
1.451080941
1.469042443
1.478288048
1.489468248
1.514302154
1.538758118
1.563802158
1.595673731
1.637031618
1.669246499
1.699768075
1.757247537
1.831637345
1.907343812
1.961033278
2.059117025
2.147816235
2.262934596
2.369578265
1.377030641
1.377096915
1.37886209
1.382681484
1.385179097
1.386405512
1.389450989
1.387490176
1.386066224
1.38701641
1.392067514
1.392999654
1.394482363
1.398184349
1.399795168
1.399726941
1.400811638
1.407145586
1.414937104
1.424072887
1.438148181
1.442406651
1.459579888
1.460683493
1.474926115
1.485432051
1.515178024
1.543993243
1.55796526
1.611996013
1.629526304
1.665763427
1.691118291
1.762767866
1.810947354
1.872188757
1.941729086
2.012515673
2.102493122
2.209812568
1.379230978
1.382196478
1.381159127
1.380419888
1.382168669
1.385896273
1.390559554
1.395100023
1.395033916
1.398972303
1.392281371
1.394368354
1.396737955
1.400113768
1.397871893
1.398249574
1.407824042
1.417030651
1.423495932
1.430724013
1.434458962
1.437064865
1.451565705
1.459412831
1.471322205
1.478872469
1.491550911
1.519690899
1.546016857
1.567428245
1.586723772
1.621990979
1.66061101
1.718881025
1.752759611
1.804612916
1.861055718
1.902944891
1.965041295
2.067823538
1.382778043
1.383295933
1.38606325
1.386352241
1.385011271
1.38338099
1.385074413
1.385043726
1.386324346
1.390474874
1.393411388
1.396450537
1.39418039
1.396594443
1.39920578
1.400071484
1.406418604
1.408367617
1.413252635
1.418533703
1.422141636
1.426558411
1.432902054
1.446029911
1.454864151
1.471281684
1.479878294
1.490483328
1.513742238
1.537870866
1.553989965
1.578543864
1.609070274
1.649884307
1.699283351
1.74386445
1.787199858
1.832666601
1.882937951
1.965115986
1.385523962
1.382458773
1.379725936
1.379412749
1.378408308
1.376888923
1.379513141
1.382792378
1.380113628
1.38331047
1.383716397
1.381313399
1.384906278
1.38584004
1.395117577
1.393585275
1.395508324
1.400309889
1.403136231
1.409435632
1.418251934
1.419804039
1.430495892
1.445733857
1.455264461
1.459977757
1.467581274
1.480885795
1.497211455
1.513699134
1.53233247
1.55758316
1.58197654
1.611563839
1.633371555
1.677606443
1.724775665
1.761584585
1.801972144
1.849907207
1.379767173
1.382773951
1.387638603
1.387175685
1.384605097
1.384940027
1.382244581
1.377591579
1.380677652
1.381733942
1.383664583
1.388369895
1.385741269
1.384181856
1.383874469
1.386644051
1.390671333
1.39565479
1.401841839
1.401201804
1.404296521
1.414378124
1.416021035
1.427003779
1.437362074
1.451093362
1.45842946
1.475566628
1.481917211
1.496556426
1.508328907
1.529950453
1.559929998
1.579816148
1.602719284
1.631166966
1.678018761
1.714554936
1.757938366
1.801695926
1.380597896
1.380968002
1.380675758
1.381518838
1.383722376
1.384135023
1.386715101
1.387744516
1.389201881
1.387369454
1.387635267
1.386555731
1.386085528
1.389820082
1.392884016
1.396731313
1.393432878
1.399900152
1.397941223
1.39390611
1.401030792
1.404496118
1.407058666
1.423654989
1.421427894
1.432595067
1.43962349
1.439967855
1.458544604
1.47534376
1.497427883
1.511011196
1.529244545
1.552991633
1.579065354
1.594555274
1.645610649
1.669249009
1.703119827
1.737507254
1.379154116
1.377515405
1.379913604
1.379846529
1.382283067
1.382468397
1.380154033
1.383258175
1.384296805
1.386388927
1.385881111
1.389342487
1.390608739
1.38336882
1.381137307
1.384679504
1.389524884
1.394620393
1.394210826
1.399217961
1.403275664
1.405810931
1.406224684
1.412240728
1.418249839
1.426870496
1.431515226
1.44679775
1.455984923
1.458087432
1.46959831
1.481895143
1.502382684
1.521763248
1.535877195
1.543747291
1.586296052
1.605361549
1.636094339
1.680579439
1.379437125
1.380126335
1.381249805
1.382313342
1.381563526
1.3802313
1.381900514
1.382485708
1.383004969
1.381911784
1.382691927
1.383945882
1.389266617
1.38935346
1.387992959
1.389001701
1.39039101
1.395826667
1.396907095
1.398197064
1.401188041
1.404791076
1.406255099
1.411204967
1.412678435
1.422594226
1.426307414
1.428595559
1.44505888
1.450975642
1.457354746
1.469628235
1.48723484
1.499826271
1.509003465
1.525872652
1.550093319
1.574397492
1.579943875
1.614419653
12.56199908
8.341799784
7.283095734
6.745718676
6.424733977
6.16881434
6.025948391
5.931462415
5.754426838
5.617658597
5.487689081
5.398428503
5.31807884
5.237716435
5.117174964
5.08536253
4.972187506
4.899003602
4.830769368
4.771648146
4.684924892
4.613126624
4.577645423
4.527988215
4.456978329
4.40641377
4.324243452
4.289787077
4.243815735
4.190911974
4.106066831
4.08194848
4.004973897
3.897792736
3.801555677
3.696915942
3.579217679
3.495585739
3.319024705
2.783971745
15.97144745
11.05610751
8.875099768
7.855219783
7.239137057
6.812659335
6.51062278
6.278984565
6.059585038
5.906815656