/*--------------------------------*- C++ -*----------------------------------*\
| =========                 |                                                 |
| \\      /  F ield         | OpenFOAM: The Open Source CFD Toolbox           |
|  \\    /   O peration     | Version:  v1706                                 |
|   \\  /    A nd           | Web:      www.OpenFOAM.com                      |
|    \\/     M anipulation  |                                                 |
\*---------------------------------------------------------------------------*/
FoamFile
{
    version     2.0;
    format      ascii;
    class       volScalarField;
    location    "0.004";
    object      p_Ar;
}
// * * * * * * * * * * * * * * * * * * * * * * * * * * * * * * * * * * * * * //

dimensions      [1 -1 -2 0 0 0 0];


internalField   nonuniform List<scalar> 
4000
(
1.408087995
1.429986353
1.465062101
1.494815585
1.531457352
1.563993023
1.656845079
1.741063944
1.805744292
1.990334089
2.091198093
2.302895343
2.536021185
2.73158098
3.100240887
3.545633903
4.00394818
4.794122349
5.783178593
7.059148826
8.507259865
10.34861534
12.6393516
15.67839091
19.13815691
23.10771049
27.68015083
32.34951556
36.90871752
41.66444479
45.45834517
49.04493659
51.83822801
53.86371471
55.40007912
56.9271146
57.750059
58.58715994
59.25317759
59.53145436
1.423289256
1.435913404
1.456556505
1.466152536
1.518343886
1.556514149
1.625070238
1.671917543
1.752224076
1.905561189
2.009601441
2.169151206
2.406632041
2.630798204
2.929729836
3.336942951
3.926893019
4.523057166
5.538322515
6.666612695
8.108343061
10.04109873
12.21521654
15.01615029
18.17358674
22.23444184
26.69556624
31.43265685
36.1277003
40.67300859
44.83571311
48.30647635
51.12498317
53.2546559
54.84469203
56.13404048
57.14100667
58.23584989
58.90810159
59.30444934
1.418905167
1.434227859
1.461740501
1.479354502
1.519606304
1.543214301
1.582401924
1.650200203
1.734297955
1.859589452
1.971645878
2.109173917
2.302573346
2.562314389
2.867003884
3.258185063
3.792945614
4.46069322
5.392412231
6.470198381
7.938655324
9.742652574
12.03671399
14.76304218
18.00162136
21.83573239
26.28396291
30.97275192
35.6054555
40.19105635
44.28150174
47.81531681
50.72073051
52.88593781
54.74724825
55.8463276
57.11006258
58.08194312
58.73147376
59.24615508
1.408424613
1.420202965
1.45409636
1.488519632
1.514602831
1.539716716
1.581453529
1.638806214
1.723530484
1.829141887
1.941683103
2.094697515
2.271601007
2.46767287
2.75746667
3.210806592
3.724379873
4.421188066
5.290662243
6.359385077
7.851617362
9.611972863
11.79253747
14.50124924
17.75721378
21.57357286
25.91399688
30.6631575
35.37257125
39.86891715
44.08052985
47.5728585
50.41652781
52.74410774
54.56696162
55.7914647
56.93924776
57.8530008
58.57529093
59.02933653
1.412155154
1.43656303
1.448554818
1.469651537
1.514854063
1.531976121
1.586230304
1.641893119
1.701829574
1.817715831
1.927458737
2.061777171
2.222492509
2.430426341
2.747996877
3.11472346
3.638692989
4.333166411
5.20852703
6.253235461
7.62624531
9.419184819
11.68674279
14.42195227
17.53020833
21.26118481
25.54936835
30.26359267
35.03914525
39.5832344
43.78044646
47.29126648
50.14377831
52.41241655
54.34928118
55.58523983
56.86544792
57.77306547
58.59185269
58.96389874
1.416295176
1.436758025
1.471014112
1.483851423
1.510959311
1.539341233
1.584953945
1.641026974
1.697266962
1.775337792
1.872853663
2.007179014
2.198976559
2.426802264
2.713729985
3.106064815
3.573993902
4.234298404
5.05600371
6.123039411
7.442128957
9.229506047
11.38925239
14.14298647
17.33774796
21.09811068
25.36112993
29.97042437
34.67244888
39.32120887
43.39787084
46.85362341
49.81985841
52.16025999
54.13113749
55.41799829
56.6152834
57.64058265
58.5176349
58.86401
1.416723694
1.427910154
1.450470154
1.470133366
1.50556933
1.536239625
1.580483284
1.624951183
1.685202148
1.764720395
1.853923311
2.014111793
2.189286172
2.416809294
2.713793286
3.044901505
3.522829068
4.172806715
4.99856174
6.059632546
7.366790593
9.032203583
11.13650171
13.93509492
17.00667851
20.70909127
24.90511247
29.59735936
34.2781421
38.98548397
43.08210933
46.66718799
49.62718727
51.85218387
53.79738867
55.28271613
56.50759019
57.48923634
58.42055198
58.72232942
1.411193282
1.431211184
1.454985548
1.4731528
1.498827954
1.522458138
1.576127212
1.611114824
1.683763571
1.758028535
1.869372154
1.983102942
2.141351804
2.387654416
2.667781705
3.011387225
3.462514721
4.085682864
4.85378813
5.836409196
7.231042764
8.811221858
10.9303307
13.43631188
16.55284351
20.25709055
24.464087
28.85389625
33.62595893
38.34089912
42.60921476
46.17212731
49.21264685
51.64048917
53.46993751
54.89060532
56.11701256
57.26118684
57.97654918
58.42720511
1.417659865
1.430828759
1.451667373
1.476770072
1.501304702
1.528952172
1.574860769
1.624687097
1.672370883
1.743742794
1.851832833
1.971214388
2.124139322
2.338582646
2.578578313
2.944144797
3.418128106
3.990980882
4.754227721
5.769468076
7.02489763
8.588824235
10.61338354
13.02378871
16.15735102
19.73532801
23.72882668
28.24712967
32.99059038
37.63009009
41.79435545
45.54605916
48.60447635
51.02343641
53.11532391
54.67364204
55.92889363
56.98319755
57.78695147
58.32025803
1.408440501
1.426974429
1.437165846
1.458368449
1.487591064
1.516484541
1.556899939
1.600175067
1.676041696
1.744648777
1.863325191
1.964085007
2.116116143
2.32722247
2.5802121
2.901923467
3.372052522
3.929500862
4.640096936
5.58132907
6.808541946
8.429326493
10.34716608
12.73676456
15.74846524
19.18180892
23.15082016
27.76307017
32.33207665
36.97093646
41.24431012
45.01616436
48.17580965
50.5446059
52.68414013
54.29073684
55.60921452
56.7088323
57.61549026
58.13737831
1.40675678
1.421041932
1.444764427
1.457943409
1.48386125
1.514407951
1.536192847
1.582047843
1.650952113
1.723934696
1.803795226
1.917353648
2.075502514
2.290446653
2.53943157
2.838485516
3.309569816
3.833717297
4.548553372
5.453630602
6.630290986
8.076513946
9.997256992
12.34041376
15.16666324
18.66635561
22.53075601
26.85452677
31.34940239
35.99377315
40.44519008
44.19107104
47.45150231
49.86793589
52.15004243
53.86190089
55.27605576
56.33768583
57.26519995
57.82226119
1.405351911
1.420897872
1.445290311
1.47000905
1.494568563
1.515037078
1.544238052
1.585946234
1.63792611
1.69882262
1.796297322
1.874466826
2.057352336
2.265458217
2.502395391
2.808551738
3.216162772
3.753353961
4.399062534
5.248181466
6.463808889
7.79768107
9.629936477
11.92998833
14.60806272
17.91223165
21.66806943
25.95090262
30.57160916
35.0350117
39.49972614
43.43018246
46.58021443
49.33630233
51.59861392
53.3135488
54.63523165
55.84734349
56.92471454
57.63428155
1.405226888
1.423818624
1.447505051
1.461072041
1.468740407
1.487561848
1.545701417
1.579065884
1.615269723
1.668982739
1.778509219
1.884184031
2.028554268
2.178645843
2.430670113
2.761760988
3.14108699
3.608577588
4.272727469
5.083868345
6.154266842
7.581450493
9.32046059
11.41885351
14.09413244
17.3704803
20.9132553
25.15493719
29.56495318
34.07927834
38.4851574
42.51175479
45.93071331
48.61633443
50.84853651
52.6735785
54.09907856
55.34315175
56.43235962
57.20046587
1.407534755
1.410795336
1.431361942
1.451272044
1.47840018
1.495073417
1.532660443
1.570846192
1.603969635
1.671157912
1.767061491
1.84977347
1.983994472
2.142419585
2.367159283
2.690034045
3.066360973
3.494568302
4.136940633
4.925787403
5.926727918
7.29819155
8.944980536
10.96222841
13.56056841
16.53487628
20.12999289
24.16591274
28.44835391
33.0391536
37.36650352
41.3765379
44.81989775
47.62342803
49.94279876
51.826377
53.20142532
54.54425647
55.79296292
56.65140079
1.406843236
1.420047099
1.436542652
1.450046137
1.455414659
1.484502493
1.510033445
1.549456781
1.605413353
1.659406889
1.733860451
1.826628287
1.946425984
2.105575798
2.323672868
2.602732099
2.966586268
3.371600127
3.964432339
4.732252328
5.656294802
6.879356996
8.478700663
10.33711481
12.79943542
15.72090811
19.17489495
23.08584545
27.19451273
31.66473682
36.15157002
40.10684037
43.47805527
46.55988315
48.90818525
50.72683918
52.44461336
53.66448578
55.05032752
55.95885372
1.407072279
1.421222452
1.424397669
1.434880129
1.456243517
1.484630629
1.509080013
1.552298507
1.587268398
1.623696373
1.701111924
1.808179537
1.914167018
2.089159211
2.266091791
2.482920308
2.811165866
3.289585649
3.816498653
4.495169182
5.4050069
6.565886538
8.022324898
9.875598979
12.11457169
14.9656881
18.2811291
21.98402294
26.05964473
30.50093678
34.86635955
38.86724662
42.33463326
45.28004674
47.62915865
49.65206668
51.27835393
52.6123119
53.98830173
55.02159485
1.405420025
1.421301238
1.430735081
1.442652589
1.456318529
1.488336937
1.508502099
1.527133251
1.573170099
1.614660038
1.685126887
1.798649403
1.894809717
2.015554611
2.192134052
2.444531021
2.754895162
3.169381888
3.675579488
4.288260757
5.131494443
6.206298013
7.572587622
9.36752714
11.58347819
14.15587912
17.26219277
20.8196996
24.8887607
29.24681395
33.24842083
37.26267569
40.8698992
43.90513383
46.12845971
48.1047356
49.77818845
51.22845731
52.63007147
53.92394683
1.39603051
1.402841494
1.406978318
1.42442587
1.445304365
1.471477582
1.490432143
1.508610394
1.564344178
1.609719787
1.673461419
1.756814981
1.845296131
1.970770752
2.15183899
2.392318402
2.681830618
3.008820803
3.482664622
4.149892285
4.929318858
5.885408522
7.160823653
8.816139945
10.81093786
13.31121347
16.23303258
19.64039097
23.50769961
27.50818093
31.63308165
35.62422513
39.2018124
42.14699398
44.63300627
46.44388858
47.9659347
49.30279093
50.76500122
52.37146835
1.392680997
1.40724649
1.419736288
1.427960685
1.440659697
1.47146944
1.483729542
1.517408512
1.556162125
1.609328045
1.662470721
1.721999881
1.81093373
1.95851343
2.110269336
2.318027096
2.554832904
2.905632237
3.37507681
3.906583328
4.65240681
5.60696807
6.773053157
8.289560741
10.11752939
12.37200262
15.14985929
18.35513332
22.09203522
25.97863907
29.94858378
33.80948589
37.39907019
40.34913755
42.76205309
44.49390628
45.81203863
46.73796395
47.84453527
49.78997231
1.400953608
1.413374463
1.419718272
1.435464673
1.443919068
1.468550337
1.477328373
1.496581737
1.540728437
1.588772964
1.642345859
1.700479321
1.799756288
1.904789879
2.063332107
2.237361736
2.470375766
2.818366614
3.203510247
3.714108973
4.407823779
5.325360672
6.380037352
7.699347578
9.393747352
11.51324732
14.12629762
17.11760784
20.55763934
24.27875592
28.15188265
32.00896239
35.40093881
38.33123501
40.64152323
42.05912326
43.0754523
43.34945978
42.84324057
43.91465607
1.396003052
1.411376492
1.417083696
1.422272549
1.445765298
1.461629772
1.48669279
1.508993523
1.55466706
1.594120263
1.636766768
1.692358366
1.783731698
1.885957778
2.025978896
2.201356216
2.444161811
2.705529039
3.059495384
3.569202231
4.18679953
4.955868318
5.905538629
7.184930213
8.786582941
10.73664404
13.09218694
15.80537309
19.09190455
22.55685719
26.20901362
29.94253682
33.36383271
36.20029711
38.17533258
39.53939209
39.97971465
39.17823734
36.38276101
28.71576063
1.393596022
1.404077617
1.409881223
1.421170737
1.440297901
1.454760671
1.480149571
1.493219181
1.530672413
1.577793059
1.604870553
1.662682869
1.750216108
1.861311062
1.997263242
2.134622062
2.348175332
2.574904351
2.926358318
3.378218329
3.93598621
4.696917273
5.515432597
6.752428047
8.167130053
9.888731894
12.12318614
14.60476131
17.54909342
20.75997895
24.35359295
27.80872787
31.12902602
33.80472828
35.84238053
36.83612185
36.80144032
35.17345927
31.33583637
24.25797088
1.395325453
1.407692848
1.421408428
1.435075288
1.436879158
1.448476299
1.477603846
1.495551777
1.51481611
1.559190907
1.598422912
1.63097767
1.707238981
1.805013808
1.916930199
2.075509108
2.278832833
2.520625965
2.813135779
3.207575193
3.799404461
4.384374446
5.209745381
6.216313176
7.443701255
9.061264869
11.13798699
13.3876327
16.10645913
19.14534034
22.37452049
25.8013234
28.79275572
31.43744981
33.26668631
34.1676032
33.96593292
32.17640758
28.57313511
23.13603232
1.409681918
1.407582835
1.415091499
1.422397177
1.428990997
1.443767582
1.462640516
1.484374911
1.513120092
1.524313056
1.583350793
1.637793395
1.685689407
1.784485801
1.877752818
2.023212299
2.199994563
2.431523715
2.716147062
3.072497254
3.546395392
4.108916092
4.862261446
5.743102589
6.91621349
8.364982928
10.18862728
12.22397937
14.75802353
17.39562346
20.43282098
23.47508186
26.50384248
29.0545938
30.71472695
31.64015293
31.44823865
29.88302649
26.90467516
22.72809357
1.394213374
1.399202199
1.415826645
1.422191197
1.433393265
1.447395956
1.454022079
1.470052029
1.501634907
1.522525704
1.561770257
1.614809177
1.66639646
1.750428355
1.851440814
1.955767398
2.115032421
2.316229449
2.597146344
2.917214191
3.35359602
3.832077297
4.503077895
5.305904348
6.311743442
7.666053382
9.244140371
11.13450759
13.42231017
15.85955499
18.52822288
21.41322289
24.28291847
26.71674894
28.41733047
29.34866789
29.22921354
28.06052382
25.77341583
22.35237082
1.403375657
1.402323339
1.405542671
1.414785679
1.433223714
1.43626455
1.448870651
1.455375247
1.492745598
1.523252307
1.550298362
1.607765308
1.654615873
1.726191203
1.811359218
1.926374444
2.05785891
2.23601496
2.51881104
2.796819101
3.139329565
3.620531651
4.204432613
4.914582056
5.855478623
7.015131399
8.394063523
10.0167822
12.02168849
14.2643665
16.79757256
19.42399556
22.14252313
24.30440317
26.11296116
27.1798608
27.25397292
26.48539697
24.60083057
22.04247948
1.393801011
1.396005761
1.404188718
1.410972071
1.423602696
1.426826364
1.432778539
1.453334372
1.482568159
1.503913687
1.532760236
1.564821639
1.615794531
1.681876032
1.765264885
1.877558269
2.013577834
2.153962434
2.382518116
2.65267838
2.968636528
3.381106355
3.933773331
4.555064871
5.361197903
6.421658775
7.543044401
9.07901611
10.79040492
12.81786028
15.15180284
17.57437511
19.87746235
22.01300323
23.91950382
25.08936804
25.32272146
24.95207231
23.66905514
21.72618225
1.391469942
1.393243192
1.395717939
1.408652663
1.416967138
1.421727778
1.434762536
1.446878857
1.465947005
1.489199791
1.527588112
1.550556298
1.593940067
1.666636101
1.743909647
1.819089111
1.957377552
2.078934308
2.305849656
2.51417792
2.811761264
3.155109614
3.669345446
4.198040378
4.920890703
5.77323723
6.877872081
8.112922439
9.671622374
11.54047384
13.53407367
15.69351668
17.98873452
19.96034367
21.75600898
23.04094859
23.57735527
23.42099089
22.69358426
21.16777299
1.393893902
1.401980325
1.407304425
1.409725709
1.419145178
1.426721379
1.425333134
1.443455643
1.46151159
1.484361692
1.506895166
1.542467348
1.591147904
1.649719684
1.713523142
1.787953407
1.889873981
1.992187987
2.16168311
2.384461661
2.640202813
2.987750972
3.375208719
3.863170746
4.480797995
5.264915
6.242302742
7.385416085
8.718484046
10.31475637
12.09174894
13.97327703
15.99431545
17.89234387
19.72058365
21.06634792
21.80815494
21.97271339
21.59596278
20.61741226
1.389058637
1.394829745
1.400748318
1.412250588
1.413428014
1.415049472
1.425185163
1.438390182
1.448307044
1.468355736
1.497320127
1.52543028
1.561883881
1.621945202
1.68584021
1.746156136
1.83184443
1.940088937
2.080801239
2.277950726
2.517991589
2.781910327
3.119136948
3.586878823
4.125272404
4.841445228
5.628616612
6.631697032
7.787028461
9.233255143
10.73815344
12.47710841
14.19946625
16.04689477
17.83585953
19.21445293
20.11482188
20.47889624
20.49664353
19.8560402
1.384890583
1.388786259
1.393851619
1.402449175
1.40109417
1.409070941
1.42644626
1.437496494
1.456085115
1.479724158
1.497279507
1.514859415
1.550922797
1.60124902
1.651859837
1.718165473
1.814652124
1.915563671
2.030328931
2.189235225
2.433235646
2.646216603
2.938947917
3.364848765
3.822346207
4.381746494
5.058352984
5.931721448
7.004749349
8.174860331
9.480007488
11.0400412
12.62937669
14.24754478
15.9496709
17.34999011
18.32414707
19.00928639
19.27645551
18.96906513
1.388018842
1.390160277
1.393187504
1.392600695
1.40355742
1.408506545
1.419044772
1.428036743
1.440333492
1.459540096
1.479310872
1.504746667
1.547892148
1.587604754
1.635087108
1.686993462
1.746767829
1.842598881
1.967354596
2.102144294
2.322181854
2.501237841
2.773694994
3.05941845
3.519008913
3.963756959
4.584457276
5.340387585
6.294578762
7.243134269
8.452034328
9.826404936
11.22752822
12.68851141
14.19877804
15.57285312
16.77749716
17.51135191
18.02077404
18.00443128
1.38883967
1.389928272
1.397210411
1.397423141
1.397390522
1.40744915
1.417383656
1.428020588
1.438820605
1.458260706
1.477219053
1.492588076
1.527276261
1.564895803
1.612252666
1.66888227
1.719840688
1.799552324
1.912458707
2.018339105
2.152553648
2.363826882
2.579455522
2.874691237
3.237911234
3.646677979
4.17163519
4.829130939
5.618949203
6.428476589
7.518716625
8.661019944
9.873029682
11.25516419
12.5811043
13.9063604
15.07443301
15.97325305
16.62786622
16.94757248
1.390915184
1.391606535
1.397442731
1.397773596
1.400461313
1.408786759
1.414066201
1.420729507
1.429858806
1.448180723
1.46490591
1.491733676
1.515960641
1.555602293
1.605847641
1.649561103
1.668998265
1.735662985
1.810062328
1.945258282
2.071412381
2.221336938
2.439174163
2.694314863
3.005193067
3.357689362
3.832081495
4.360993519
4.989219972
5.723349871
6.689240479
7.625532787
8.702900091
9.941528648
11.15649653
12.38990905
13.4815176
14.46959716
15.30346663
15.75001254
1.39019501
1.395365218
1.400215009
1.401794321
1.404198071
1.415371414
1.42474441
1.428786127
1.434512254
1.444472756
1.464402611
1.488598632
1.499116188
1.532877748
1.557496048
1.608194229
1.652298755
1.719336945
1.776651794
1.888756944
1.996096461
2.101471206
2.32788201
2.540016584
2.830735468
3.113336147
3.467780312
4.002997319
4.502889446
5.081200491
5.864210708
6.755661393
7.695461418
8.777951921
9.896386872
10.97505342
12.12244547
13.09485741
13.9138985
14.55921577
1.393576517
1.395377791
1.401538932
1.399979014
1.396588519
1.409919242
1.416316288
1.424916832
1.429413945
1.442331177
1.446268551
1.466715544
1.482819517
1.506194068
1.534892643
1.584008976
1.629785883
1.665401131
1.749797379
1.819336475
1.91315817
2.040072746
2.201879771
2.396176533
2.613480677
2.87338399
3.171275001
3.579127406
4.059310254
4.622100751
5.237282808
5.954935819
6.766391495
7.737443545
8.74522607
9.707511472
10.76417775
11.7042273
12.57574763
13.2761329
1.389499399
1.392875494
1.392783614
1.391738804
1.399030399
1.395957524
1.405489972
1.416770203
1.420286054
1.4281593
1.450895586
1.460826833
1.472580822
1.497957696
1.533326455
1.5604373
1.595197614
1.655369879
1.695721299
1.755333294
1.86006959
1.96170724
2.090679602
2.254978644
2.449732674
2.683426299
2.921914605
3.261570777
3.66443056
4.124578528
4.686093484
5.248486411
5.984782766
6.765049552
7.644430449
8.544617192
9.4503291
10.42271213
11.28477893
12.0427539
1.385368795
1.385633091
1.382809777
1.387038853
1.394993979
1.400316775
1.404504771
1.410105168
1.414823581
1.428046915
1.429710172
1.445733668
1.463913961
1.494702335
1.521504363
1.53679155
1.583656312
1.627678759
1.652961874
1.721591409
1.794114082
1.878149573
1.980561472
2.142302635
2.317692882
2.503949755
2.717745672
3.012653957
3.309465277
3.728961222
4.1897561
4.708246263
5.258818841
5.96131282
6.683975393
7.54888247
8.299306138
9.217261571
10.06867103
10.83858895
1.390422296
1.390979793
1.395433092
1.390263803
1.3963286
1.395676877
1.403252499
1.410488262
1.405982181
1.420356185
1.437228041
1.437864168
1.44757077
1.471756383
1.482824889
1.515733834
1.550097685
1.582178652
1.600235279
1.665064
1.750830346
1.825201512
1.911744403
2.039266242
2.164432746
2.362235611
2.545808533
2.804605153
3.0544458
3.400534142
3.761949878
4.22329586
4.695105032
5.304993044
5.937091455
6.605983799
7.37008664
8.132862631
8.960320221
9.663749837
1.387567924
1.386465907
1.392498442
1.400877417
1.397600857
1.40213457
1.405084815
1.405230864
1.409096685
1.420325513
1.424000906
1.428036382
1.446469305
1.459989665
1.474628691
1.508870415
1.528466743
1.564186764
1.594176083
1.652730052
1.688279878
1.780231911
1.85671107
1.949164261
2.069675075
2.245204228
2.394801457
2.560286693
2.827559071
3.08747367
3.385611546
3.790150378
4.19466999
4.648724303
5.222080144
5.88611727
6.509138036
7.174693201
7.896898771
8.630947607
1.385623388
1.38681981
1.387929575
1.38594683
1.391269428
1.397262337
1.397688652
1.400939472
1.409857843
1.410160459
1.421574499
1.429469508
1.436326097
1.452031195
1.470513376
1.49039889
1.510945881
1.539983735
1.573425237
1.61735899
1.658071391
1.739596786
1.794082432
1.874203974
1.982842087
2.099727227
2.245424328
2.416075711
2.608095434
2.818343032
3.133077427
3.424589833
3.765472044
4.205817716
4.632413146
5.17292594
5.706051367
6.362646748
6.955571574
7.616058835
1.377750289
1.379455057
1.382651667
1.385806358
1.38700728
1.396628581
1.397314085
1.398104748
1.401284533
1.412984577
1.415170255
1.42387272
1.431554365
1.446923219
1.462150615
1.464639979
1.48701291
1.519238481
1.554871627
1.586780597
1.636860039
1.685023647
1.742712034
1.799667702
1.898957977
1.996130816
2.129855147
2.283210406
2.451778732
2.602012866
2.867912442
3.124430646
3.424445661
3.771996629
4.113623685
4.578598057
5.073608503
5.572844883
6.140029482
6.74043322
1.381065548
1.37573133
1.375100264
1.376479099
1.385415784
1.392163442
1.39015441
1.396659578
1.395570102
1.399142157
1.409239062
1.418519005
1.423623633
1.437904667
1.446443092
1.454213007
1.47027792
1.512312255
1.533055433
1.559521447
1.596856835
1.630479226
1.682736663
1.75730179
1.832173216
1.918080087
2.030284106
2.158391193
2.290739981
2.473946165
2.654197854
2.872782068
3.142849939
3.401617051
3.683347429
4.040389633
4.476947591
4.931505322
5.451479924
5.966553132
1.382275941
1.384307291
1.385345236
1.383464029
1.383331878
1.384691718
1.389158524
1.394839717
1.39499389
1.403715864
1.405276014
1.415362169
1.415782948
1.430131463
1.440713975
1.447728899
1.468995746
1.499911613
1.517159585
1.542219183
1.571095449
1.610725017
1.664246775
1.716037128
1.781023989
1.849140037
1.944836239
2.064459679
2.153865331
2.312323301
2.452185463
2.63369258
2.853649711
3.083480332
3.358012137
3.640876015
4.006626293
4.373905962
4.803728891
5.259702651
1.38467412
1.383996138
1.385566578
1.38691983
1.387804918
1.389007799
1.392032754
1.397222742
1.396716651
1.401172006
1.40880118
1.409280276
1.419054024
1.425324989
1.427625691
1.434326607
1.463314233
1.480316602
1.504958469
1.518854624
1.547080712
1.579086733
1.614538645
1.668174049
1.737551391
1.777302462
1.855551953
1.957322229
2.02873247
2.155560189
2.282553039
2.430018182
2.637109638
2.834700595
3.068482848
3.297108154
3.575925093
3.917321125
4.267666064
4.667149567
1.383093606
1.385423601
1.386692863
1.38819689
1.3875535
1.384064754
1.384492074
1.38821242
1.393376541
1.400941007
1.404887236
1.407885347
1.41347727
1.415461872
1.422525176
1.432596755
1.45371975
1.476081405
1.494530321
1.49289503
1.514726271
1.536970914
1.576912345
1.622333807
1.676855702
1.718209291
1.792883714
1.874711014
1.928574301
2.03005235
2.137694173
2.265634398
2.41932851
2.582706498
2.790732843
3.003745918
3.255152872
3.495926544
3.797060484
4.161721479
1.379798876
1.381911895
1.384226466
1.38536
1.388825675
1.391059119
1.388753355
1.390150739
1.393347537
1.397671788
1.399439971
1.406726649
1.414217303
1.419038251
1.427436783
1.442884253
1.453834963
1.462081526
1.470147381
1.483851658
1.489879339
1.517335746
1.552924044
1.595316192
1.63266429
1.676115452
1.736092257
1.799502006
1.870104562
1.926229512
2.034204778
2.149038598
2.28008785
2.391269572
2.561987531
2.751367607
2.942286333
3.191669085
3.424915985
3.711291281
1.381900235
1.381470947
1.381936215
1.381098415
1.384222357
1.386246666
1.390207879
1.396794144
1.404071386
1.408434015
1.409858017
1.408892435
1.409553931
1.412458541
1.41846257
1.431254707
1.431733851
1.437226579
1.45543193
1.467064251
1.486483947
1.507867677
1.538442924
1.559646164
1.595486651
1.627614215
1.67111061
1.737817242
1.794722697
1.857029949
1.92997959
2.040782457
2.133129712
2.242285861
2.389347233
2.565140758
2.71534456
2.911049701
3.118501332
3.34536446
1.379115413
1.382885332
1.38508501
1.391552608
1.39565047
1.393115598
1.39268977
1.392411
1.392659974
1.398372562
1.400271353
1.40256607
1.408521861
1.409737489
1.416364981
1.416954629
1.415538095
1.430644939
1.458742857
1.47038917
1.477809539
1.500843048
1.516018241
1.531279865
1.57214324
1.593526666
1.631709247
1.674976641
1.750382542
1.795309752
1.847402932
1.923404112
2.011166068
2.119178167
2.219724473
2.352281593
2.509788558
2.657289542
2.858869156
3.033127592
1.3770058
1.381856221
1.380585778
1.378278789
1.378572936
1.38037555
1.382374256
1.385650419
1.38599032
1.386769701
1.390838719
1.399285315
1.405517302
1.406305716
1.41454123
1.41933481
1.422611017
1.429419689
1.441570686
1.444359857
1.462618161
1.477795213
1.499945366
1.508493318
1.546623532
1.568053295
1.594727233
1.635759568
1.678133236
1.731459094
1.783111537
1.849616326
1.916933533
1.991823766
2.095569197
2.179427176
2.337297192
2.450751767
2.619431147
2.783859536
1.383334034
1.380419888
1.377127628
1.383160285
1.378323075
1.379456554
1.378593962
1.378112296
1.382150744
1.385377453
1.390000019
1.389728573
1.394336897
1.398084011
1.402764958
1.409487933
1.414586324
1.428092823
1.429703061
1.441263981
1.4505108
1.462238669
1.47741381
1.487674296
1.52425351
1.545701002
1.566525748
1.607517607
1.642710404
1.685839816
1.713169246
1.775150653
1.832153643
1.876950731
1.968040018
2.043937864
2.163784675
2.300745583
2.41561535
2.569931941
1.387127731
1.386838841
1.384074126
1.383147516
1.388149667
1.386560702
1.384263487
1.386729931
1.389852216
1.385338385
1.385035633
1.390519276
1.39629996
1.399599067
1.404045278
1.402931283
1.403662348
1.414315127
1.420974881
1.434278602
1.44842405
1.451773946
1.470318498
1.48499827
1.510094896
1.525942264
1.541935834
1.566920065
1.606568197
1.622099709
1.675269028
1.705839281
1.76828012
1.814057904
1.880265797
1.955900141
2.046518064
2.145175194
2.249162223
2.382587584
1.38077078
1.381581543
1.387622087
1.388782148
1.389516853
1.386973378
1.389010373
1.388087949
1.389628024
1.387778713
1.391031565
1.391569394
1.389354389
1.392106041
1.392480586
1.397869037
1.404907541
1.410078063
1.416857983
1.426494967
1.437694063
1.445477696
1.453746811
1.469143448
1.483044501
1.501612788
1.520133397
1.543133526
1.574247094
1.593891832
1.630728356
1.668984141
1.710686511
1.743688443
1.809081794
1.863691035
1.932113504
2.022899097
2.122751656
2.218327244
1.383446297
1.385511116
1.385698668
1.381629882
1.383656389
1.387878043
1.387162116
1.390490927
1.388990951
1.388983223
1.391642316
1.391388413
1.393876879
1.401022717
1.404062411
1.407146562
1.409750242
1.40929441
1.418720886
1.421544943
1.424005177
1.43623935
1.44129847
1.456556134
1.470039169
1.482071288
1.495091986
1.518530926
1.541815622
1.574559089
1.602137731
1.629513505
1.669220488
1.70774702
1.734330252
1.784770422
1.848707376
1.921274113
1.999086674
2.090298561
1.382639733
1.380840513
1.379154338
1.379708442
1.383883668
1.381478243
1.384665965
1.385336444
1.387274391
1.393974408
1.399778708
1.400556486
1.399205935
1.39890739
1.40227435
1.404965485
1.405262843
1.405783111
1.408647613
1.419992831
1.418388676
1.415368269
1.42924638
1.436744615
1.444727191
1.460763974
1.472055928
1.49858143
1.523842242
1.538011581
1.566673841
1.592852049
1.624484567
1.651700191
1.677904806
1.719864789
1.771062362
1.828122296
1.893184254
1.975454864
1.382101091
1.385472787
1.386877404
1.385335531
1.388293872
1.391540882
1.393941463
1.390238708
1.39110784
1.390440858
1.388517496
1.390746085
1.391473815
1.390346241
1.395355772
1.396374523
1.397122864
1.398038278
1.404562279
1.410333365
1.419075931
1.426244927
1.426783143
1.43381589
1.451778173
1.458906181
1.473857562
1.495193932
1.506255749
1.518350807
1.534262009
1.567930235
1.596508035
1.628646214
1.638660424
1.66745326
1.710111887
1.760368596
1.815589185
1.86313543
1.381459804
1.378909344
1.378859192
1.382624054
1.383055458
1.381440869
1.384620783
1.383389103
1.382767789
1.382575906
1.378869859
1.381852153
1.387559283
1.387843671
1.388037298
1.393928093
1.397563983
1.403382581
1.405499464
1.410688801
1.414843309
1.4214857
1.423474693
1.431015993
1.440644745
1.450603
1.45879749
1.467029445
1.482192955
1.496674209
1.51160967
1.531443463
1.554925405
1.586184672
1.60467491
1.639099462
1.66462428
1.717338192
1.751663157
1.783154624
1.382868779
1.384894926
1.381654469
1.382403029
1.377322378
1.378679601
1.379420064
1.382468989
1.385028992
1.387927117
1.387064432
1.390328783
1.390031809
1.392309092
1.391571864
1.391664514
1.390921566
1.393936337
1.404899294
1.405814029
1.41456264
1.414468408
1.413667535
1.417432505
1.424264831
1.437549383
1.445180328
1.451936773
1.470047979
1.472201784
1.487438327
1.497967749
1.524650766
1.550992877
1.564387413
1.585242932
1.61469846
1.659940045
1.699833673
1.721339102
1.378964884
1.380531382
1.383866878
1.385611964
1.384122583
1.386645566
1.385906558
1.384486888
1.382472296
1.381308081
1.382391667
1.386390616
1.389333081
1.390356414
1.386056549
1.392008947
1.38902071
1.392226051
1.398046597
1.399820555
1.409333068
1.414354637
1.416208968
1.418550101
1.430571941
1.429766228
1.432566354
1.44482613
1.452714179
1.467326999
1.478690566
1.486783082
1.508746214
1.525441449
1.543888797
1.550521694
1.583526208
1.614327362
1.638905822
1.665841787
1.378324483
1.378287586
1.380146229
1.378139075
1.380232167
1.381685269
1.381549172
1.382178809
1.383316308
1.382583997
1.384800226
1.386294269
1.384088438
1.387794675
1.388327933
1.392930752
1.395089127
1.394743602
1.393919602
1.39682322
1.402201439
1.405685777
1.404980347
1.411147264
1.418813273
1.420759574
1.425352687
1.43471997
1.443489159
1.457094305
1.462044534
1.468081406
1.488419306
1.495686054
1.515367418
1.528326295
1.54508564
1.574496502
1.600754839
1.619186981
12.54817406
8.331950209
7.307503948
6.796795203
6.476239715
6.219793852
6.090247586
5.926434932
5.75687117
5.666007043
5.525471901
5.37404991
5.262702636
5.229295867
5.128617823
5.039264206
5.011288393
4.886604192
4.84962649
4.76719893
4.682088072
4.678137319
4.599231222
4.536961313
4.441726952
4.369828858
4.311554193
4.259551327
4.236493692
4.202240845
4.148133566
4.081620906
3.998287019
3.933866263
3.860416588
3.734036635
3.62224389
3.523930736
3.297302555
2.790888241
16.00542688
11.08463073
9.000807825
7.881033542
7.296458421
6.893516668
6.547399151
6.29721156
6.091159573
5.871628834
5.707603902