/*--------------------------------*- C++ -*----------------------------------*\
| =========                 |                                                 |
| \\      /  F ield         | OpenFOAM: The Open Source CFD Toolbox           |
|  \\    /   O peration     | Version:  v1706                                 |
|   \\  /    A nd           | Web:      www.OpenFOAM.com                      |
|    \\/     M anipulation  |                                                 |
\*---------------------------------------------------------------------------*/
FoamFile
{
    version     2.0;
    format      ascii;
    class       volScalarField;
    location    "0.004";
    object      rhoM_Ar;
}
// * * * * * * * * * * * * * * * * * * * * * * * * * * * * * * * * * * * * * //

dimensions      [1 -3 0 0 0 0 0];


internalField   nonuniform List<scalar> 
4000
(
6.627513917e-05
6.630884384e-05
6.629937129e-05
6.608928616e-05
6.58918311e-05
6.610478003e-05
6.62026631e-05
6.646767437e-05
6.690656944e-05
6.715858348e-05
6.761333958e-05
6.835308009e-05
6.915119797e-05
6.98938757e-05
7.057259533e-05
7.174770624e-05
7.282522779e-05
7.441536881e-05
7.608679758e-05
7.905802252e-05
8.234874428e-05
8.698559697e-05
9.267698741e-05
0.0001007467971
0.000110842265
0.0001245878243
0.000140480276
0.0001583171716
0.0001803333001
0.0002024195548
0.0002243511645
0.0002454019734
0.0002665779816
0.0002869961854
0.0003082476803
0.0003366102007
0.0003742268939
0.0004265561548
0.0005085912767
0.0006550127544
6.635014465e-05
6.642414981e-05
6.643797136e-05
6.650653497e-05
6.657417351e-05
6.663930894e-05
6.681077237e-05
6.676250577e-05
6.683379015e-05
6.712328093e-05
6.725480334e-05
6.742561379e-05
6.759696839e-05
6.807996091e-05
6.878556748e-05
6.972434473e-05
7.075698883e-05
7.235756813e-05
7.420976498e-05
7.642284583e-05
7.957998225e-05
8.38594396e-05
8.928042658e-05
9.685763015e-05
0.0001069189585
0.000119714179
0.0001356938525
0.00015486674
0.0001760503913
0.0001984506112
0.0002200663764
0.0002413982557
0.0002617568582
0.0002830099437
0.0003054098372
0.0003331750505
0.0003710290176
0.0004241944896
0.0005078914443
0.0006536275797
6.628709351e-05
6.637540244e-05
6.654997635e-05
6.661831751e-05
6.672465509e-05
6.679640282e-05
6.68956652e-05
6.697364958e-05
6.695457276e-05
6.705766099e-05
6.736142274e-05
6.765527922e-05
6.796716435e-05
6.846127508e-05
6.887734903e-05
6.958340119e-05
7.047157415e-05
7.168075138e-05
7.349163473e-05
7.586025318e-05
7.899566566e-05
8.314272638e-05
8.846793828e-05
9.61551651e-05
0.0001056508121
0.0001178713529
0.0001342390069
0.0001531121712
0.0001736314979
0.0001964627891
0.0002186805297
0.0002390497574
0.0002599494151
0.0002816206885
0.0003043361037
0.0003315857762
0.000370246954
0.0004239739497
0.0005061241046
0.0006512028884
6.637653109e-05
6.636349459e-05
6.629810516e-05
6.6293501e-05
6.642603875e-05
6.658113172e-05
6.674294986e-05
6.678262842e-05
6.701480228e-05
6.710347117e-05
6.723704357e-05
6.744542065e-05
6.770790955e-05
6.82230065e-05
6.889128234e-05
6.958857991e-05
7.05374509e-05
7.176241633e-05
7.331246657e-05
7.545531543e-05
7.83756467e-05
8.25512067e-05
8.808871886e-05
9.560239893e-05
0.0001044674261
0.0001169492026
0.0001326954843
0.0001516907516
0.0001723921967
0.0001941758266
0.0002168102951
0.0002381359403
0.0002588890658
0.0002801758602
0.0003032207714
0.0003311169162
0.0003697148897
0.000422016139
0.0005048264203
0.0006500072506
6.633505126e-05
6.633258388e-05
6.638516988e-05
6.654817105e-05
6.656102198e-05
6.653017975e-05
6.654256805e-05
6.664506705e-05
6.675111291e-05
6.693755417e-05
6.714753834e-05
6.725106541e-05
6.768599222e-05
6.818789807e-05
6.867371455e-05
6.922383708e-05
7.005323597e-05
7.123716627e-05
7.298047177e-05
7.529872778e-05
7.832589239e-05
8.200644959e-05
8.731038742e-05
9.434925194e-05
0.0001042068904
0.000116007949
0.0001315013363
0.0001505574635
0.000171233116
0.0001921982742
0.000214971815
0.0002367551662
0.0002573560777
0.0002785680251
0.000302353191
0.0003305162054
0.000369006277
0.0004219236228
0.000502636755
0.0006464486121
6.638195235e-05
6.63271551e-05
6.63462061e-05
6.631701505e-05
6.64355205e-05
6.648345529e-05
6.654434682e-05
6.668205692e-05
6.687543488e-05
6.693827247e-05
6.706968345e-05
6.723105367e-05
6.749756291e-05
6.793143422e-05
6.847904824e-05
6.92427273e-05
7.00888583e-05
7.13596936e-05
7.304099614e-05
7.522131216e-05
7.792179235e-05
8.179764795e-05
8.734707304e-05
9.380843703e-05
0.000103268747
0.0001154679976
0.0001307226815
0.0001488625686
0.0001692933905
0.000191434706
0.0002131853223
0.0002347326253
0.0002559950851
0.0002770996059
0.0003008862729
0.0003292228528
0.0003669810774
0.0004209217494
0.0004995948786
0.0006434906142
6.627551356e-05
6.64317406e-05
6.648594494e-05
6.658842742e-05
6.653596007e-05
6.651767058e-05
6.652528268e-05
6.65311578e-05
6.668094775e-05
6.683599976e-05
6.696872633e-05
6.734243488e-05
6.774812451e-05
6.810073373e-05
6.861299288e-05
6.917623783e-05
7.009439096e-05
7.125689789e-05
7.274488632e-05
7.476940069e-05
7.750398686e-05
8.12589532e-05
8.633050781e-05
9.309966483e-05
0.0001023707534
0.0001143016863
0.0001295767873
0.0001474626882
0.0001674697619
0.0001893551873
0.0002115613941
0.0002334489652
0.0002547461125
0.000275799417
0.0002990346378
0.0003272321872
0.0003653673188
0.0004177509385
0.0004976889098
0.0006412318217
6.642427898e-05
6.643238813e-05
6.642881807e-05
6.643254113e-05
6.646156066e-05
6.661507348e-05
6.669932702e-05
6.68018899e-05
6.686349902e-05
6.694612054e-05
6.72064803e-05
6.732408845e-05
6.761356975e-05
6.803203241e-05
6.865046974e-05
6.917246429e-05
6.992559508e-05
7.111697689e-05
7.266536523e-05
7.480699644e-05
7.75252952e-05
8.123199206e-05
8.604724521e-05
9.273545664e-05
0.0001015329137
0.0001128802644
0.0001277999245
0.0001450661886
0.0001652529192
0.0001868549766
0.0002094221757
0.0002312740868
0.0002523530276
0.0002739993539
0.000296562524
0.0003259948568
0.0003636807217
0.0004150666104
0.0004947506732
0.0006381988063
6.630137697e-05
6.633209184e-05
6.632873001e-05
6.636856256e-05
6.641348878e-05
6.656624813e-05
6.664051393e-05
6.671803968e-05
6.678588744e-05
6.698800451e-05
6.712960871e-05
6.740074509e-05
6.758885455e-05
6.794357815e-05
6.847357516e-05
6.915159439e-05
7.004054275e-05
7.112829728e-05
7.255793936e-05
7.437138994e-05
7.707485855e-05
8.080271637e-05
8.542650088e-05
9.181351232e-05
0.0001005614936
0.0001117014652
0.0001257316905
0.0001435025587
0.0001625948793
0.0001843764063
0.0002057962822
0.0002287127311
0.0002497799719
0.0002709848947
0.0002945083061
0.00032302841
0.0003598202365
0.000412089147
0.0004914273806
0.000635313493
6.636185961e-05
6.636989985e-05
6.643183001e-05
6.648032586e-05
6.648246314e-05
6.638419925e-05
6.652261342e-05
6.662769624e-05
6.672311042e-05
6.6828753e-05
6.704950325e-05
6.733655999e-05
6.781347822e-05
6.820989233e-05
6.859373722e-05
6.909467438e-05
6.981570026e-05
7.085136393e-05
7.213917547e-05
7.397723423e-05
7.654339223e-05
8.004242103e-05
8.463049455e-05
9.083943872e-05
9.887402507e-05
0.0001096332333
0.0001235096101
0.0001404844796
0.0001601060113
0.0001819082277
0.0002041024818
0.0002253528735
0.0002472131017
0.0002682634544
0.0002917222136
0.0003201026652
0.0003574793254
0.0004097563728
0.0004901555157
0.0006340038158
6.632752762e-05
6.637603726e-05
6.654526167e-05
6.666231533e-05
6.675369041e-05
6.683977723e-05
6.683535339e-05
6.698133996e-05
6.705751128e-05
6.711766527e-05
6.731724634e-05
6.737282395e-05
6.753248881e-05
6.783107226e-05
6.827925253e-05
6.902184666e-05
6.973754185e-05
7.094529971e-05
7.220492323e-05
7.402723825e-05
7.646909359e-05
7.964525474e-05
8.400939361e-05
8.969920844e-05
9.789413437e-05
0.0001081539744
0.0001213682244
0.0001377381945
0.0001571314745
0.0001781547598
0.0002005931131
0.000222284245
0.0002433943799
0.0002650394938
0.0002892962467
0.0003181283131
0.0003548379588
0.0004067218169
0.0004863478508
0.0006278469154
6.633407859e-05
6.638560723e-05
6.640735699e-05
6.635862329e-05
6.631908751e-05
6.639262e-05
6.647524877e-05
6.655091558e-05
6.662566768e-05
6.686847225e-05
6.694906833e-05
6.700217231e-05
6.718333562e-05
6.761340158e-05
6.802913709e-05
6.865357883e-05
6.936100506e-05
7.037369021e-05
7.162709643e-05
7.350895895e-05
7.583481134e-05
7.900285718e-05
8.311030976e-05
8.856187726e-05
9.632222258e-05
0.0001063247244
0.0001188207245
0.0001343545259
0.0001533120854
0.0001745170355
0.0001963330116
0.0002180356145
0.0002398640916
0.0002619449269
0.0002861790395
0.0003136329805
0.0003505957851
0.0004013207003
0.0004789800016
0.0006203890219
6.635230454e-05
6.642092346e-05
6.643062458e-05
6.646826086e-05
6.660001323e-05
6.676036105e-05
6.680307645e-05
6.675650092e-05
6.683202744e-05
6.683781763e-05
6.704900745e-05
6.726415898e-05
6.75485897e-05
6.775327824e-05
6.80698598e-05
6.862841064e-05
6.941039197e-05
7.037501846e-05
7.15466191e-05
7.318006412e-05
7.554535957e-05
7.841501164e-05
8.219138823e-05
8.760852378e-05
9.430930536e-05
0.0001037064902
0.0001161038605
0.0001311958565
0.0001494793683
0.0001698964661
0.0001920245671
0.000213672031
0.0002362800072
0.0002575783832
0.0002813844223
0.0003086483264
0.0003454993236
0.0003956266837
0.0004718701176
0.0006153968079
6.633562199e-05
6.628957417e-05
6.63332866e-05
6.637506979e-05
6.638999599e-05
6.646411928e-05
6.655433646e-05
6.668080298e-05
6.682270338e-05
6.693013138e-05
6.703710246e-05
6.724596767e-05
6.739492502e-05
6.758348248e-05
6.793165886e-05
6.850728205e-05
6.913057767e-05
6.998715858e-05
7.118902202e-05
7.27802358e-05
7.48296432e-05
7.764510971e-05
8.161593491e-05
8.638277316e-05
9.306585073e-05
0.0001017010108
0.0001135674894
0.0001280083306
0.000145524273
0.0001660859211
0.0001868073911
0.000209122258
0.0002307263536
0.0002532696319
0.0002758207287
0.0003039286353
0.0003387320579
0.0003877854797
0.0004650878454
0.000605928542
6.63085065e-05
6.635463897e-05
6.638991078e-05
6.629033771e-05
6.628287735e-05
6.622471693e-05
6.618239076e-05
6.622491993e-05
6.617767094e-05
6.635798853e-05
6.655332835e-05
6.675623004e-05
6.710747632e-05
6.741680244e-05
6.780636557e-05
6.835244416e-05
6.900728171e-05
6.981472691e-05
7.094154689e-05
7.234328395e-05
7.435930866e-05
7.699535589e-05
8.026614335e-05
8.482828488e-05
9.140827815e-05
9.96871544e-05
0.0001104273429
0.0001246329989
0.0001418214316
0.0001613343523
0.0001823217868
0.0002033638798
0.0002258734322
0.0002467721035
0.0002697346068
0.0002972189555
0.0003320927727
0.0003809961914
0.0004563097166
0.0005941987734
6.626243546e-05
6.619850962e-05
6.621388226e-05
6.635857791e-05
6.636598519e-05
6.638688792e-05
6.646973785e-05
6.64590328e-05
6.657338904e-05
6.665289046e-05
6.67708996e-05
6.691016662e-05
6.707967158e-05
6.732791694e-05
6.770847865e-05
6.821085461e-05
6.896847734e-05
6.98404563e-05
7.076382961e-05
7.231611146e-05
7.408213901e-05
7.63980303e-05
7.961126794e-05
8.402590558e-05
8.994625052e-05
9.770573186e-05
0.0001077235712
0.0001210449054
0.000136948032
0.0001558640952
0.0001765512088
0.0001982907142
0.0002197707619
0.0002410738973
0.0002639194213
0.0002896022381
0.0003236538104
0.0003705581811
0.000444798917
0.0005830006058
6.636689282e-05
6.638393503e-05
6.639732534e-05
6.628300049e-05
6.637759492e-05
6.64776672e-05
6.649957862e-05
6.66635592e-05
6.68273369e-05
6.699943282e-05
6.70841874e-05
6.719638197e-05
6.741367019e-05
6.764399368e-05
6.796429599e-05
6.82772945e-05
6.889441536e-05
6.946862636e-05
7.055689341e-05
7.193366079e-05
7.372704941e-05
7.58379507e-05
7.861116515e-05
8.282794637e-05
8.83263426e-05
9.572915545e-05
0.0001050834539
0.0001172172562
0.0001327828327
0.0001506460141
0.0001714031256
0.0001927861834
0.0002133968637
0.000235196492
0.0002562655369
0.0002807629577
0.0003137705295
0.0003586766601
0.000430069332
0.0005643679581
6.62535357e-05
6.632630261e-05
6.637123047e-05
6.639065189e-05
6.645155297e-05
6.646869249e-05
6.663577749e-05
6.667391039e-05
6.666270378e-05
6.665393118e-05
6.680991098e-05
6.686797239e-05
6.713743814e-05
6.753666732e-05
6.79346795e-05
6.837280221e-05
6.87825788e-05
6.955421229e-05
7.053157076e-05
7.174949106e-05
7.321547806e-05
7.552804594e-05
7.827478126e-05
8.227675844e-05
8.715503176e-05
9.355253616e-05
0.0001020516098
0.0001138289974
0.0001278057713
0.0001451866166
0.0001648355584
0.000185888724
0.0002061428227
0.0002270559818
0.0002471839174
0.000271398108
0.0003006903132
0.000342642338
0.0004106449671
0.0005417091239
6.635560023e-05
6.62886791e-05
6.624938828e-05
6.632710805e-05
6.632928806e-05
6.636949144e-05
6.643894746e-05
6.636533421e-05
6.641775577e-05
6.659154793e-05
6.66995343e-05
6.689238885e-05
6.710192298e-05
6.73908499e-05
6.76734396e-05
6.817828859e-05
6.874640846e-05
6.932421162e-05
7.02144655e-05
7.119176755e-05
7.270601032e-05
7.465807953e-05
7.709269068e-05
8.058110691e-05
8.537250805e-05
9.164149742e-05
9.932901205e-05
0.0001099554291
0.000123305435
0.0001397543457
0.0001584626051
0.0001782337445
0.0001979459731
0.0002186086845
0.0002381295288
0.000260071752
0.0002860250354
0.0003229340691
0.0003825361101
0.0005039742933
6.632873895e-05
6.636868124e-05
6.63452633e-05
6.638251912e-05
6.62650239e-05
6.634734151e-05
6.647761016e-05
6.669724208e-05
6.67752512e-05
6.677550464e-05
6.682999445e-05
6.700420975e-05
6.712129947e-05
6.721157513e-05
6.744722452e-05
6.778526405e-05
6.829234869e-05
6.891038978e-05
6.970715741e-05
7.075721393e-05
7.205538913e-05
7.380499334e-05
7.660531301e-05
7.963296921e-05
8.388175457e-05
8.963126512e-05
9.673714092e-05
0.0001065990349
0.0001186766617
0.0001338739437
0.0001509150593
0.0001699313923
0.0001895975985
0.0002087789721
0.0002274705965
0.0002483367949
0.0002694484762
0.0002968237476
0.0003391375886
0.0004332858302
6.625099607e-05
6.623417e-05
6.631085027e-05
6.637962432e-05
6.65520409e-05
6.65328835e-05
6.644155643e-05
6.644495206e-05
6.640876586e-05
6.648199983e-05
6.673626614e-05
6.687128019e-05
6.704911963e-05
6.73596418e-05
6.75724511e-05
6.788591276e-05
6.840985239e-05
6.903571141e-05
6.970059476e-05
7.05641981e-05
7.168916309e-05
7.336665177e-05
7.552266996e-05
7.848486998e-05
8.239130672e-05
8.753506812e-05
9.440988796e-05
0.0001029077651
0.0001138772508
0.000127819174
0.0001439328264
0.0001618341987
0.0001801704134
0.0001989166877
0.0002168993521
0.0002336859462
0.0002505709627
0.0002683017429
0.0002833773989
0.0002665723569
6.6341748e-05
6.641406234e-05
6.641375829e-05
6.639222108e-05
6.636997441e-05
6.635735614e-05
6.627662961e-05
6.635107234e-05
6.630318372e-05
6.638472106e-05
6.652595448e-05
6.66052114e-05
6.677593812e-05
6.690288097e-05
6.724448643e-05
6.755791616e-05
6.797629545e-05
6.849861076e-05
6.927065635e-05
7.003773571e-05
7.111282249e-05
7.27095658e-05
7.491979017e-05
7.751778565e-05
8.082341779e-05
8.518442383e-05
9.13886602e-05
9.936786662e-05
0.0001094442904
0.0001216300937
0.0001368810726
0.0001535187944
0.0001706538483
0.0001885868937
0.0002050918449
0.0002198185828
0.0002326570396
0.0002413345077
0.0002407749456
0.0002139779959
6.627762072e-05
6.632048848e-05
6.634856028e-05
6.640333576e-05
6.63787096e-05
6.641433139e-05
6.646849882e-05
6.644691292e-05
6.658717058e-05
6.661529305e-05
6.669464402e-05
6.670523429e-05
6.674475776e-05
6.693163285e-05
6.722684278e-05
6.755934667e-05
6.793806261e-05
6.845313453e-05
6.903260945e-05
6.992938691e-05
7.097290793e-05
7.22377604e-05
7.391598785e-05
7.64044465e-05
7.947278542e-05
8.349206924e-05
8.863376901e-05
9.562106294e-05
0.0001045762711
0.0001160719772
0.0001295466438
0.0001450333591
0.0001619121622
0.0001788992494
0.0001941250592
0.0002064632739
0.0002168940757
0.0002203888121
0.0002146803559
0.0001946723072
6.626589592e-05
6.631362412e-05
6.62925467e-05
6.631767747e-05
6.632608817e-05
6.64517927e-05
6.661884141e-05
6.679536482e-05
6.685814109e-05
6.693388807e-05
6.706324062e-05
6.718793181e-05
6.733785511e-05
6.741750345e-05
6.756205606e-05
6.785202262e-05
6.817852e-05
6.853339083e-05
6.90379823e-05
6.951420031e-05
7.051603654e-05
7.1651836e-05
7.312178355e-05
7.526636061e-05
7.778703792e-05
8.158426729e-05
8.660175782e-05
9.24604199e-05
0.000100382136
0.0001103485141
0.0001227714253
0.0001367230576
0.0001526684822
0.0001677901141
0.0001824121199
0.0001935439376
0.0002018404873
0.0002040809768
0.000199563315
0.0001846828068
6.636130439e-05
6.638065766e-05
6.643506974e-05
6.652079156e-05
6.649307889e-05
6.645396705e-05
6.645067395e-05
6.649110304e-05
6.653472389e-05
6.664263611e-05
6.662581599e-05
6.673058711e-05
6.696931123e-05
6.717221661e-05
6.737025833e-05
6.753400119e-05
6.789426589e-05
6.816891009e-05
6.87075086e-05
6.933279153e-05
7.026347111e-05
7.126958792e-05
7.259984669e-05
7.453076617e-05
7.686663512e-05
7.974890469e-05
8.401701036e-05
8.9584977e-05
9.658240059e-05
0.0001056467739
0.0001168482144
0.0001296797375
0.0001436192606
0.0001578847497
0.0001715639663
0.0001822839055
0.0001891144451
0.0001912397079
0.0001879499558
0.0001775870388
6.635965557e-05
6.639780216e-05
6.637682913e-05
6.634633213e-05
6.638706235e-05
6.643782314e-05
6.653291097e-05
6.652743975e-05
6.66076337e-05
6.65902575e-05
6.667693586e-05
6.670479857e-05
6.676234773e-05
6.688180277e-05
6.706306237e-05
6.722699643e-05
6.753211844e-05
6.797214663e-05
6.838588255e-05
6.891436219e-05
6.96079917e-05
7.048181697e-05
7.182824447e-05
7.363344417e-05
7.586854016e-05
7.86249728e-05
8.241713839e-05
8.714432589e-05
9.3442565e-05
0.0001014204696
0.0001109961741
0.00012239719
0.0001351680381
0.0001482891965
0.0001608136876
0.000171481205
0.0001787967877
0.0001817174077
0.0001793282563
0.0001720347105
6.625093933e-05
6.617687993e-05
6.624166924e-05
6.620666579e-05
6.626289419e-05
6.630666117e-05
6.633315437e-05
6.63472368e-05
6.636699272e-05
6.637712397e-05
6.639069984e-05
6.647453588e-05
6.656095539e-05
6.67154062e-05
6.688034285e-05
6.706422493e-05
6.726533012e-05
6.759403833e-05
6.80042524e-05
6.859728476e-05
6.921002239e-05
7.017699896e-05
7.122624124e-05
7.278199505e-05
7.46104313e-05
7.721188145e-05
8.04677593e-05
8.44541505e-05
8.989832638e-05
9.675854622e-05
0.0001051081096
0.0001150203666
0.0001263616357
0.0001389692088
0.0001511488383
0.0001610470129
0.0001691744488
0.0001728338034
0.0001723853945
0.0001673675921
6.635525962e-05
6.641649936e-05
6.641730981e-05
6.637587548e-05
6.635384133e-05
6.63179282e-05
6.629371596e-05
6.634290023e-05
6.641437192e-05
6.647019177e-05
6.66320288e-05
6.674655573e-05
6.685748627e-05
6.686245029e-05
6.686589471e-05
6.702408471e-05
6.717254929e-05
6.754581285e-05
6.795959899e-05
6.84155286e-05
6.898497208e-05
6.984232845e-05
7.087089269e-05
7.226952934e-05
7.385821687e-05
7.575796581e-05
7.878723085e-05
8.233022084e-05
8.699999165e-05
9.296172344e-05
0.0001002405402
0.0001092898389
0.0001194564463
0.0001304611618
0.0001413124993
0.0001514817913
0.0001591902993
0.000164389143
0.000165216614
0.0001627493971
6.635091278e-05
6.632649927e-05
6.63188004e-05
6.641934153e-05
6.653796486e-05
6.659950515e-05
6.658952701e-05
6.656035236e-05
6.657681375e-05
6.654140909e-05
6.647824799e-05
6.653102575e-05
6.662006923e-05
6.682191124e-05
6.704512773e-05
6.72255446e-05
6.73404198e-05
6.760628397e-05
6.786536097e-05
6.823926253e-05
6.881196706e-05
6.939799267e-05
7.036627715e-05
7.147952319e-05
7.302740067e-05
7.473209191e-05
7.714528152e-05
8.045356573e-05
8.443631121e-05
8.942254322e-05
9.588721096e-05
0.0001034864992
0.0001121025951
0.0001223067849
0.0001323461582
0.0001421478289
0.0001504263396
0.0001566612063
0.0001591544742
0.0001584675023
6.632732917e-05
6.627232559e-05
6.626275314e-05
6.62114975e-05
6.615477189e-05
6.610118645e-05
6.613962818e-05
6.618055165e-05
6.630701937e-05
6.635523614e-05
6.640765668e-05
6.649112436e-05
6.657003373e-05
6.665238716e-05
6.681466292e-05
6.702637099e-05
6.721012145e-05
6.739179534e-05
6.790997364e-05
6.816138964e-05
6.858227339e-05
6.916750947e-05
6.990479043e-05
7.087343084e-05
7.209298077e-05
7.376866537e-05
7.602523033e-05
7.885872511e-05
8.248703683e-05
8.684857769e-05
9.18385066e-05
9.841796809e-05
0.0001062981174
0.000114994457
0.0001244814098
0.0001337693165
0.000142017068
0.0001486623718
0.0001525025941
0.0001533878175
6.631522599e-05
6.637676023e-05
6.63625795e-05
6.631634019e-05
6.629922202e-05
6.637924186e-05
6.640618525e-05
6.637731733e-05
6.63078824e-05
6.626295987e-05
6.634915845e-05
6.6374937e-05
6.652550597e-05
6.658288729e-05
6.666913652e-05
6.672854365e-05
6.688245523e-05
6.707440155e-05
6.734545609e-05
6.76951124e-05
6.831703875e-05
6.87310148e-05
6.94612718e-05
7.039912457e-05
7.152152942e-05
7.297687758e-05
7.478010946e-05
7.703575729e-05
8.008486767e-05
8.358943274e-05
8.830589321e-05
9.384012604e-05
0.0001008357845
0.000108541543
0.000116979078
0.0001255208412
0.0001336574914
0.0001410159234
0.0001458263312
0.0001484613642
6.63394437e-05
6.633589867e-05
6.644447776e-05
6.637195665e-05
6.638081922e-05
6.636430953e-05
6.630434794e-05
6.624661466e-05
6.632318722e-05
6.639621476e-05
6.651223841e-05
6.646311447e-05
6.652034133e-05
6.655001826e-05
6.676140311e-05
6.69178907e-05
6.699370362e-05
6.70952433e-05
6.734055911e-05
6.760755024e-05
6.788071983e-05
6.846428179e-05
6.896828324e-05
6.977345999e-05
7.077427155e-05
7.193714144e-05
7.353442899e-05
7.536659984e-05
7.802562275e-05
8.121032241e-05
8.489861837e-05
8.957876203e-05
9.547064631e-05
0.0001021394991
0.0001100385772
0.0001180680617
0.0001258875793
0.0001328539104
0.0001386865421
0.0001431410702
6.629639601e-05
6.633118648e-05
6.618483358e-05
6.622575162e-05
6.626039016e-05
6.622742278e-05
6.638486609e-05
6.647009513e-05
6.641702321e-05
6.648229965e-05
6.641043987e-05
6.643135466e-05
6.653805554e-05
6.660495249e-05
6.671919891e-05
6.677611956e-05
6.690829294e-05
6.710093184e-05
6.736036642e-05
6.763291705e-05
6.809856235e-05
6.847269911e-05
6.898387081e-05
6.963506526e-05
7.054265582e-05
7.167808087e-05
7.296851847e-05
7.464230951e-05
7.667965332e-05
7.931506902e-05
8.250171356e-05
8.650661768e-05
9.152485106e-05
9.684399411e-05
0.0001038158108
0.000111245069
0.000118286568
0.0001253395118
0.0001314998549
0.0001364035887
6.630978448e-05
6.621665902e-05
6.621853267e-05
6.623650958e-05
6.62539801e-05
6.633950968e-05
6.633505344e-05
6.636017047e-05
6.650292233e-05
6.648216027e-05
6.649542773e-05
6.651234122e-05
6.649841545e-05
6.659549076e-05
6.671327751e-05
6.676903125e-05
6.691644192e-05
6.70904888e-05
6.718791859e-05
6.741812432e-05
6.755074835e-05
6.797485152e-05
6.844280823e-05
6.900404231e-05
6.971476327e-05
7.065781681e-05
7.168300711e-05
7.320684146e-05
7.508504883e-05
7.739206882e-05
8.02918711e-05
8.39550591e-05
8.803845105e-05
9.313680418e-05
9.847721262e-05
0.0001048788158
0.0001117005723
0.0001185119984
0.0001247596585
0.0001304385899
6.625906996e-05
6.632494915e-05
6.640034816e-05
6.645929003e-05
6.64442001e-05
6.638323274e-05
6.643093312e-05
6.642617321e-05
6.63667756e-05
6.637786518e-05
6.642080565e-05
6.656051409e-05
6.661773429e-05
6.684337431e-05
6.693062246e-05
6.701655404e-05
6.70131107e-05
6.716821289e-05
6.73032627e-05
6.740803137e-05
6.772907215e-05
6.814885575e-05
6.84988611e-05
6.902741373e-05
6.972205685e-05
7.026661089e-05
7.122107424e-05
7.232917131e-05
7.389756186e-05
7.569321283e-05
7.799422452e-05
8.079381153e-05
8.44289654e-05
8.87167334e-05
9.351821729e-05
9.904877771e-05
0.0001052493209
0.0001115275417
0.0001178724013
0.0001238844722
6.636243407e-05
6.635286394e-05
6.638051099e-05
6.634526859e-05
6.631265926e-05
6.6280455e-05
6.630081052e-05
6.631306434e-05
6.636805462e-05
6.646031272e-05
6.659176279e-05
6.655576086e-05
6.657682528e-05
6.649033964e-05
6.64725159e-05
6.651145469e-05
6.663819565e-05
6.673440332e-05
6.689790574e-05
6.718895927e-05
6.748097488e-05
6.779051042e-05
6.812723728e-05
6.851814426e-05
6.90338174e-05
6.987062163e-05
7.055005036e-05
7.162372802e-05
7.279655021e-05
7.418897909e-05
7.620761866e-05
7.850662765e-05
8.169398793e-05
8.550193835e-05
8.948316386e-05
9.44791778e-05
9.966517658e-05
0.0001054927287
0.0001112165283
0.0001169859001
6.623098027e-05
6.628318392e-05
6.627098112e-05
6.626485441e-05
6.63461726e-05
6.639857878e-05
6.637680616e-05
6.643731378e-05
6.644718741e-05
6.640389535e-05
6.647999823e-05
6.6451947e-05
6.648703636e-05
6.655863282e-05
6.666805287e-05
6.686162662e-05
6.692765334e-05
6.696947701e-05
6.705732699e-05
6.717884856e-05
6.721960892e-05
6.737657429e-05
6.760427534e-05
6.793400389e-05
6.844490084e-05
6.901235597e-05
6.977551146e-05
7.057223729e-05
7.172714797e-05
7.31130509e-05
7.471961677e-05
7.664806291e-05
7.917404076e-05
8.224347322e-05
8.579210577e-05
8.952337511e-05
9.437193408e-05
9.944282689e-05
0.0001051291252
0.0001107533463
6.625985522e-05
6.625671601e-05
6.622734919e-05
6.631924709e-05
6.632557615e-05
6.633874058e-05
6.642000567e-05
6.633701908e-05
6.636349985e-05
6.652223259e-05
6.648116967e-05
6.657220682e-05
6.657144734e-05
6.660785207e-05
6.659326992e-05
6.653630841e-05
6.656020693e-05
6.673792684e-05
6.679711618e-05
6.693645669e-05
6.716663182e-05
6.741969281e-05
6.770561427e-05
6.800181412e-05
6.842955708e-05
6.885866711e-05
6.953628123e-05
7.028786935e-05
7.11206213e-05
7.247590016e-05
7.38530016e-05
7.550670813e-05
7.745585503e-05
7.997866761e-05
8.295600771e-05
8.643739388e-05
8.999741226e-05
9.436192966e-05
9.936340333e-05
0.0001046517605
6.635354463e-05
6.637258189e-05
6.635546861e-05
6.630235669e-05
6.62638265e-05
6.624747269e-05
6.623820722e-05
6.627359829e-05
6.627612984e-05
6.619982892e-05
6.62399793e-05
6.624408041e-05
6.622241035e-05
6.615137505e-05
6.621911933e-05
6.634002616e-05
6.634676008e-05
6.651288039e-05
6.664183754e-05
6.68668417e-05
6.710359226e-05
6.730839465e-05
6.759749765e-05
6.793292802e-05
6.826871281e-05
6.865153379e-05
6.914037609e-05
6.981938842e-05
7.05198683e-05
7.144180816e-05
7.261113109e-05
7.398804111e-05
7.563501688e-05
7.776005055e-05
8.004958433e-05
8.298896699e-05
8.639299033e-05
9.018783435e-05
9.460594597e-05
9.906805593e-05
6.626637972e-05
6.627306283e-05
6.630637712e-05
6.632673023e-05
6.629427664e-05
6.633032493e-05
6.625478553e-05
6.625539309e-05
6.626065857e-05
6.62024345e-05
6.613945125e-05
6.631655367e-05
6.645598765e-05
6.665562026e-05
6.674184251e-05
6.667425196e-05
6.673009643e-05
6.681454664e-05
6.694142448e-05
6.709098439e-05
6.715325882e-05
6.713796868e-05
6.731648873e-05
6.75516127e-05
6.787954077e-05
6.816033266e-05
6.870070262e-05
6.922461796e-05
6.99055864e-05
7.058245383e-05
7.157864229e-05
7.26702676e-05
7.412161637e-05
7.582251856e-05
7.785453849e-05
8.054727499e-05
8.348728658e-05
8.670803942e-05
9.050197023e-05
9.416421339e-05
6.632983061e-05
6.633990565e-05
6.630239006e-05
6.622543502e-05
6.627621522e-05
6.6383446e-05
6.636162519e-05
6.637008012e-05
6.649320819e-05
6.654722861e-05
6.665420625e-05
6.656261962e-05
6.657917508e-05
6.649442327e-05
6.651340889e-05
6.659122462e-05
6.667400192e-05
6.675338712e-05
6.674397025e-05
6.674214763e-05
6.688122363e-05
6.707421877e-05
6.721987645e-05
6.738315277e-05
6.761609367e-05
6.78973846e-05
6.824110026e-05
6.878236761e-05
6.923544043e-05
6.995081857e-05
7.074598694e-05
7.163820979e-05
7.270317647e-05
7.403814396e-05
7.603077332e-05
7.794584009e-05
8.015480425e-05
8.335274198e-05
8.661755971e-05
9.030147867e-05
6.63734175e-05
6.640774266e-05
6.643852392e-05
6.656180086e-05
6.662655289e-05
6.659293651e-05
6.658159605e-05
6.655238422e-05
6.639802226e-05
6.640384437e-05
6.64168049e-05
6.643467626e-05
6.639402272e-05
6.63687598e-05
6.63564068e-05
6.639133948e-05
6.634729392e-05
6.64003511e-05
6.643761263e-05
6.663900715e-05
6.67441596e-05
6.691745609e-05
6.716826264e-05
6.742205619e-05
6.769584744e-05
6.803241626e-05
6.82962846e-05
6.868115166e-05
6.928467707e-05
6.985043469e-05
7.060984088e-05
7.131512672e-05
7.216075083e-05
7.330846672e-05
7.468223253e-05
7.639580728e-05
7.834444357e-05
8.047037589e-05
8.309387115e-05
8.631856298e-05
6.625558562e-05
6.62963901e-05
6.628666993e-05
6.610730236e-05
6.599784916e-05
6.5933048e-05
6.606325782e-05
6.611884506e-05
6.620470659e-05
6.626753333e-05
6.625963569e-05
6.627482346e-05
6.626879898e-05
6.635020543e-05
6.641642411e-05
6.643191564e-05
6.651479024e-05
6.659346289e-05
6.670154919e-05
6.669198089e-05
6.678675258e-05
6.693665588e-05
6.693766839e-05
6.704823536e-05
6.712513611e-05
6.744306677e-05
6.772348364e-05
6.808105438e-05
6.84299681e-05
6.895050362e-05
6.959466759e-05
7.04263499e-05
7.130136799e-05
7.212955711e-05
7.338325694e-05
7.470373233e-05
7.640663579e-05
7.837107265e-05
8.059866294e-05
8.306541e-05
6.63258536e-05
6.629527623e-05
6.635678534e-05
6.644406246e-05
6.643358313e-05
6.647853793e-05
6.638543896e-05
6.641454821e-05
6.64517068e-05
6.639014707e-05
6.642118006e-05
6.64641605e-05
6.644497371e-05
6.63724284e-05
6.639070394e-05
6.647175421e-05
6.657361127e-05
6.667521521e-05
6.668159393e-05
6.672275188e-05
6.675024113e-05
6.673039622e-05
6.693254097e-05
6.712253577e-05
6.7240694e-05
6.738391151e-05
6.755127703e-05
6.785816445e-05
6.823607844e-05
6.86885121e-05
6.925075091e-05
6.987946006e-05
7.060693816e-05
7.139602661e-05
7.243180962e-05
7.339084546e-05
7.480606119e-05
7.646802211e-05
7.840416684e-05
8.045482482e-05
6.627453867e-05
6.62970156e-05
6.628147412e-05
6.630157174e-05
6.641871501e-05
6.638904951e-05
6.641329827e-05
6.63804941e-05
6.639968049e-05
6.644078694e-05
6.645901148e-05
6.643587644e-05
6.648179215e-05
6.653094778e-05
6.656491629e-05
6.651576066e-05
6.649530868e-05
6.651186264e-05
6.660526338e-05
6.667228918e-05
6.681099815e-05
6.697734767e-05
6.698762428e-05
6.707317835e-05
6.727617944e-05
6.747740869e-05
6.761394084e-05
6.779046573e-05
6.802454977e-05
6.828885617e-05
6.867045771e-05
6.927308238e-05
6.999892516e-05
7.060205606e-05
7.142312205e-05
7.253183196e-05
7.347074994e-05
7.474656873e-05
7.633600141e-05
7.812301844e-05
6.631694202e-05
6.641509942e-05
6.637556309e-05
6.627001478e-05
6.613561153e-05
6.617347731e-05
6.609091169e-05
6.605866504e-05
6.605167911e-05
6.60715232e-05
6.609425279e-05
6.611784297e-05
6.610918649e-05
6.617003496e-05
6.62312378e-05
6.620962191e-05
6.618820851e-05
6.629092195e-05
6.637525936e-05
6.650490407e-05
6.656509445e-05
6.655481805e-05
6.668102042e-05
6.684164622e-05
6.701664887e-05
6.718314691e-05
6.739793899e-05
6.762462741e-05
6.788609361e-05
6.812219785e-05
6.853816451e-05
6.88259039e-05
6.919722135e-05
6.984731796e-05
7.052135911e-05