/*--------------------------------*- C++ -*----------------------------------*\
| =========                 |                                                 |
| \\      /  F ield         | OpenFOAM: The Open Source CFD Toolbox           |
|  \\    /   O peration     | Version:  v1706                                 |
|   \\  /    A nd           | Web:      www.OpenFOAM.com                      |
|    \\/     M anipulation  |                                                 |
\*---------------------------------------------------------------------------*/
FoamFile
{
    version     2.0;
    format      ascii;
    class       volScalarField;
    location    "0.004";
    object      rhoM_Ar;
}
// * * * * * * * * * * * * * * * * * * * * * * * * * * * * * * * * * * * * * //

dimensions      [1 -3 0 0 0 0 0];


internalField   nonuniform List<scalar> 
4000
(
6.6234018e-05
6.629716837e-05
6.631772895e-05
6.644035816e-05
6.656489657e-05
6.672482855e-05
6.68142671e-05
6.686889951e-05
6.700533369e-05
6.749357417e-05
6.788789683e-05
6.850544871e-05
6.907784074e-05
6.975891014e-05
7.034628202e-05
7.108749114e-05
7.20558213e-05
7.375375854e-05
7.610016196e-05
7.894941857e-05
8.232612764e-05
8.677286833e-05
9.289911517e-05
0.0001011367139
0.0001113205923
0.0001243764175
0.0001414096879
0.000160075836
0.0001803636269
0.0002025747872
0.0002227264376
0.0002441936718
0.000265088
0.0002848049409
0.0003067080596
0.0003353886816
0.000371819029
0.0004259211265
0.0005074915057
0.0006525749298
6.635096088e-05
6.634726062e-05
6.63461179e-05
6.634872984e-05
6.638567801e-05
6.641620514e-05
6.662842583e-05
6.666640789e-05
6.675439785e-05
6.706984485e-05
6.707610264e-05
6.720593817e-05
6.767102797e-05
6.809144259e-05
6.873893334e-05
6.968761423e-05
7.085977982e-05
7.209963837e-05
7.409244503e-05
7.650931216e-05
7.960653704e-05
8.416329609e-05
8.945401222e-05
9.739024966e-05
0.0001067026566
0.0001197414956
0.0001356712157
0.0001547866403
0.0001758049771
0.0001977724301
0.0002201706366
0.0002408437067
0.0002614876644
0.0002818603606
0.0003047145152
0.0003331162273
0.0003702191508
0.0004240297737
0.0005054529742
0.00065047866
6.632514234e-05
6.63308025e-05
6.627797437e-05
6.62207963e-05
6.633693434e-05
6.627807919e-05
6.640344118e-05
6.661695488e-05
6.677936994e-05
6.700142628e-05
6.727725411e-05
6.758499894e-05
6.782445502e-05
6.833135352e-05
6.885062051e-05
6.962632405e-05
7.055343679e-05
7.166806844e-05
7.341061064e-05
7.558998069e-05
7.865909596e-05
8.279688031e-05
8.846416484e-05
9.555209635e-05
0.0001049803979
0.0001171906142
0.0001331850123
0.000152307538
0.000173097504
0.0001957008166
0.0002177891598
0.0002392475484
0.0002599733136
0.0002800271971
0.0003041492661
0.0003322142109
0.0003697665744
0.0004235493855
0.0005024760811
0.0006495935695
6.626013376e-05
6.630643403e-05
6.647813302e-05
6.665950591e-05
6.670632351e-05
6.674760576e-05
6.676897113e-05
6.686167513e-05
6.706643096e-05
6.72226103e-05
6.745219756e-05
6.764246838e-05
6.794525662e-05
6.816310068e-05
6.859465023e-05
6.932753951e-05
7.019027648e-05
7.143158927e-05
7.302923308e-05
7.50464763e-05
7.818356525e-05
8.223522677e-05
8.732044479e-05
9.464850992e-05
0.0001042174563
0.0001165743515
0.0001320102921
0.0001508526909
0.0001721776635
0.000194326005
0.0002163662781
0.0002378375492
0.0002587688403
0.0002795809922
0.0003036346286
0.000332248143
0.0003695455186
0.0004229183994
0.0005027541858
0.0006490003362
6.642372266e-05
6.647851902e-05
6.639997415e-05
6.63937029e-05
6.653125923e-05
6.657135413e-05
6.670418132e-05
6.678164671e-05
6.677825407e-05
6.696968149e-05
6.708492861e-05
6.732472693e-05
6.768198273e-05
6.805471105e-05
6.848567977e-05
6.905816291e-05
6.995952701e-05
7.129381316e-05
7.303706725e-05
7.51577788e-05
7.811734753e-05
8.205404942e-05
8.741946609e-05
9.457733021e-05
0.0001033036244
0.0001153930578
0.0001309426294
0.0001496071631
0.0001709684897
0.0001927938376
0.0002154235509
0.0002364400614
0.0002570351129
0.0002782502988
0.0003025073507
0.0003291994993
0.0003676975385
0.0004219198704
0.0005031803493
0.0006476252945
6.633406877e-05
6.640801945e-05
6.649359534e-05
6.650732026e-05
6.658541915e-05
6.650752511e-05
6.655136291e-05
6.656170781e-05
6.67328596e-05
6.69214236e-05
6.711725975e-05
6.73039801e-05
6.753653553e-05
6.795012674e-05
6.852872425e-05
6.923489181e-05
7.017125902e-05
7.141397872e-05
7.305707683e-05
7.507376928e-05
7.777184249e-05
8.17072581e-05
8.683791952e-05
9.403838064e-05
0.0001030299436
0.0001151101255
0.0001302956727
0.0001488204209
0.00016900824
0.0001913792942
0.0002129105166
0.0002340032586
0.0002552927585
0.0002761599611
0.0003007711474
0.0003283753391
0.0003660158264
0.0004187909557
0.0005015913421
0.00064669738
6.634427798e-05
6.641350219e-05
6.643393738e-05
6.645018336e-05
6.649049177e-05
6.665244066e-05
6.668304236e-05
6.680596003e-05
6.680647091e-05
6.69042533e-05
6.706196189e-05
6.730289279e-05
6.753799966e-05
6.790670159e-05
6.853493045e-05
6.919187076e-05
7.006838718e-05
7.126568502e-05
7.286008971e-05
7.505201938e-05
7.791851471e-05
8.16299541e-05
8.663872158e-05
9.389643292e-05
0.0001026246095
0.0001142137128
0.0001290788327
0.0001473218897
0.0001672901876
0.0001900249507
0.0002117566013
0.0002331414156
0.0002537175583
0.000274636297
0.0002989153474
0.0003270783102
0.0003639754269
0.0004173130123
0.0004986222871
0.0006441535943
6.630406978e-05
6.631498398e-05
6.641708785e-05
6.63435445e-05
6.634145347e-05
6.632911124e-05
6.643192912e-05
6.648104302e-05
6.672605151e-05
6.689190654e-05
6.715568337e-05
6.739033867e-05
6.773877705e-05
6.821976685e-05
6.866979909e-05
6.919816876e-05
6.992069899e-05
7.120903357e-05
7.273406349e-05
7.468918428e-05
7.764290335e-05
8.108403835e-05
8.625078993e-05
9.255746338e-05
0.0001012852022
0.0001128333946
0.0001276846624
0.000144865755
0.000165243535
0.0001876326389
0.0002094102415
0.0002305172839
0.0002516270804
0.0002731232089
0.0002970132702
0.0003255251382
0.0003620699082
0.0004150191795
0.000494684474
0.0006386334872
6.637844429e-05
6.645281196e-05
6.646967203e-05
6.655035586e-05
6.666491263e-05
6.672364272e-05
6.684115383e-05
6.686224165e-05
6.680463217e-05
6.691760991e-05
6.70799963e-05
6.730401618e-05
6.753776498e-05
6.792666715e-05
6.843369167e-05
6.920986604e-05
7.018550877e-05
7.126414563e-05
7.265711324e-05
7.47026317e-05
7.731079763e-05
8.078575442e-05
8.5340214e-05
9.145471377e-05
0.0001000974088
0.0001112484336
0.0001250776115
0.0001423549535
0.0001628369817
0.0001845164314
0.0002062398905
0.0002282775784
0.0002493019304
0.0002710132665
0.0002943445953
0.0003230374768
0.000359546757
0.0004121483864
0.0004911598098
0.0006344837841
6.628507028e-05
6.623011171e-05
6.62866478e-05
6.632114956e-05
6.644623119e-05
6.650434479e-05
6.662820512e-05
6.677471041e-05
6.705235295e-05
6.719326061e-05
6.742133866e-05
6.765613388e-05
6.79563705e-05
6.82943148e-05
6.862879875e-05
6.91576223e-05
6.990210734e-05
7.090469409e-05
7.222639675e-05
7.410084012e-05
7.654634371e-05
8.013106716e-05
8.465263064e-05
9.057619736e-05
9.90195635e-05
0.0001096967919
0.0001230413936
0.0001406562251
0.0001602067178
0.0001819336715
0.0002038645316
0.0002253724143
0.0002469000923
0.000268138729
0.0002917653662
0.0003192284169
0.0003566089445
0.0004090292404
0.000488212425
0.0006318898447
6.633968045e-05
6.635839277e-05
6.641773318e-05
6.644890342e-05
6.645861552e-05
6.655812639e-05
6.657129619e-05
6.666679002e-05
6.674001212e-05
6.687018474e-05
6.70569011e-05
6.717980236e-05
6.744243579e-05
6.779313914e-05
6.828362552e-05
6.886467339e-05
6.986730768e-05
7.081172023e-05
7.218651601e-05
7.404691669e-05
7.646894105e-05
7.959577897e-05
8.408378523e-05
8.991033216e-05
9.761680566e-05
0.0001082986897
0.0001212265092
0.0001373223031
0.0001564702891
0.0001780374519
0.0002006198087
0.0002217569951
0.0002435479429
0.0002638755166
0.0002888706941
0.0003169635732
0.0003538302396
0.000405197526
0.0004844798229
0.0006274460244
6.642788714e-05
6.650467193e-05
6.656270517e-05
6.657042938e-05
6.67276578e-05
6.668578442e-05
6.672857251e-05
6.662363499e-05
6.671917132e-05
6.676760011e-05
6.684677331e-05
6.696731171e-05
6.738889119e-05
6.77948698e-05
6.833007654e-05
6.895578871e-05
6.973141163e-05
7.06830145e-05
7.183356671e-05
7.351592091e-05
7.608427297e-05
7.880995509e-05
8.306635288e-05
8.877215883e-05
9.600730839e-05
0.0001058318483
0.0001183947747
0.0001346139477
0.0001534382645
0.0001740009868
0.0001962247201
0.0002181720587
0.0002398046863
0.0002609369678
0.0002850962266
0.0003130440092
0.0003492826687
0.0003997576141
0.0004796004796
0.0006223330847
6.632243932e-05
6.633173411e-05
6.639278513e-05
6.639090586e-05
6.635804395e-05
6.634788571e-05
6.657355102e-05
6.668473295e-05
6.682445955e-05
6.699288317e-05
6.724775342e-05
6.737061733e-05
6.753279364e-05
6.779406358e-05
6.8188762e-05
6.871648258e-05
6.937620949e-05
7.031960526e-05
7.161391744e-05
7.31023028e-05
7.522009272e-05
7.826538076e-05
8.228067916e-05
8.73937278e-05
9.479029804e-05
0.0001045091436
0.0001159443762
0.0001317078826
0.0001498561882
0.0001704043781
0.0001918897672
0.0002144238931
0.0002360617574
0.0002574579572
0.0002809273523
0.0003086696587
0.0003445080825
0.0003944313128
0.000472290364
0.0006153218908
6.6311405e-05
6.628784801e-05
6.636933286e-05
6.645731618e-05
6.66006889e-05
6.660769508e-05
6.660561353e-05
6.664907212e-05
6.657545652e-05
6.667191834e-05
6.690017745e-05
6.706081176e-05
6.736558032e-05
6.765004113e-05
6.800644215e-05
6.867746099e-05
6.926572575e-05
6.996121543e-05
7.115312807e-05
7.269316632e-05
7.477552305e-05
7.772319301e-05
8.131624329e-05
8.627270515e-05
9.31584033e-05
0.0001018671282
0.0001134386367
0.0001280908817
0.0001456335795
0.0001662376707
0.0001874987177
0.0002097099643
0.0002308819618
0.0002527126919
0.0002764668198
0.0003034644509
0.0003376513302
0.0003874925404
0.0004649881851
0.0006064293819
6.635352246e-05
6.643842854e-05
6.645304477e-05
6.644984747e-05
6.636818944e-05
6.641762072e-05
6.641797597e-05
6.653201302e-05
6.674146156e-05
6.683870009e-05
6.694822031e-05
6.702297624e-05
6.720304007e-05
6.752738843e-05
6.791791582e-05
6.832468347e-05
6.903656492e-05
6.990724562e-05
7.105862898e-05
7.25470484e-05
7.441092223e-05
7.691486512e-05
8.059785057e-05
8.518110443e-05
9.161929997e-05
9.995014504e-05
0.0001107930531
0.0001247953507
0.0001409008628
0.000160442813
0.0001826769916
0.0002041476244
0.0002247633093
0.000247520018
0.0002705505274
0.0002961250728
0.0003316239368
0.000379606533
0.0004563234701
0.0005957404811
6.637724831e-05
6.640078926e-05
6.633970456e-05
6.636045509e-05
6.637303732e-05
6.64219964e-05
6.652016823e-05
6.656613396e-05
6.65281336e-05
6.650418677e-05
6.663153111e-05
6.68564892e-05
6.702426918e-05
6.739306042e-05
6.779812704e-05
6.816204774e-05
6.879334082e-05
6.968038801e-05
7.072141531e-05
7.21385904e-05
7.411440634e-05
7.66257788e-05
7.994474776e-05
8.416420863e-05
8.966345476e-05
9.77531689e-05
0.0001081427421
0.0001209717966
0.0001372054096
0.0001560425295
0.0001769348146
0.0001988113547
0.0002199576688
0.0002414334548
0.0002633666149
0.0002897922906
0.0003227984724
0.0003690799213
0.0004437658043
0.0005802319065
6.637465311e-05
6.647056628e-05
6.64902967e-05
6.648157271e-05
6.654679975e-05
6.661654095e-05
6.655937853e-05
6.657626858e-05
6.671706972e-05
6.675668272e-05
6.688186184e-05
6.713779936e-05
6.73736007e-05
6.747392659e-05
6.772215454e-05
6.817544698e-05
6.874544815e-05
6.946964078e-05
7.0465748e-05
7.163770449e-05
7.343271619e-05
7.565976828e-05
7.858646409e-05
8.303062698e-05
8.866399145e-05
9.588167312e-05
0.0001051658753
0.0001173242772
0.0001331786077
0.0001517663367
0.0001706620936
0.0001922746126
0.0002134553956
0.0002346377002
0.0002560919194
0.0002810188952
0.0003124088769
0.0003569304926
0.0004291661962
0.0005632568159
6.628451869e-05
6.622584878e-05
6.614055684e-05
6.630246955e-05
6.638887708e-05
6.642974825e-05
6.650885374e-05
6.656585026e-05
6.659840522e-05
6.67267488e-05
6.68815116e-05
6.703363754e-05
6.711421358e-05
6.741288751e-05
6.779208678e-05
6.829993389e-05
6.881406887e-05
6.941973295e-05
7.032325964e-05
7.159761866e-05
7.313961793e-05
7.51302366e-05
7.805876242e-05
8.179933652e-05
8.688632663e-05
9.373199407e-05
0.0001027250713
0.0001141032805
0.0001284922142
0.0001454238317
0.0001644880013
0.0001853570438
0.0002062573736
0.0002263021977
0.0002479231988
0.0002714800024
0.000300408221
0.0003417082848
0.0004089148895
0.0005405461718
6.630475031e-05
6.630632194e-05
6.638977057e-05
6.634110065e-05
6.631134103e-05
6.644295259e-05
6.638850312e-05
6.641288878e-05
6.652290307e-05
6.658196604e-05
6.668544031e-05
6.679119598e-05
6.700534361e-05
6.7278757e-05
6.75545025e-05
6.794715718e-05
6.843370425e-05
6.917566698e-05
7.012001544e-05
7.110081565e-05
7.251599485e-05
7.456854716e-05
7.706227199e-05
8.057588504e-05
8.507156574e-05
9.127900794e-05
9.947111807e-05
0.0001100464824
0.0001237114232
0.0001395830377
0.0001575323
0.0001776131524
0.0001980909182
0.0002180027948
0.0002390245482
0.0002604604523
0.000286288867
0.0003221565165
0.0003811570277
0.0005035210548
6.630851436e-05
6.637755168e-05
6.644288875e-05
6.657447529e-05
6.660955152e-05
6.657898654e-05
6.650944234e-05
6.653858805e-05
6.662724169e-05
6.675391148e-05
6.68396252e-05
6.690937215e-05
6.701221849e-05
6.714943141e-05
6.736703581e-05
6.763857243e-05
6.816137041e-05
6.879978815e-05
6.951378197e-05
7.05685018e-05
7.205934281e-05
7.393445098e-05
7.620127746e-05
7.928595787e-05
8.332149802e-05
8.888229644e-05
9.640330851e-05
0.0001059882929
0.0001184286444
0.0001335445719
0.0001509086726
0.0001703424735
0.0001894094946
0.0002093372012
0.000228441985
0.00024725445
0.000269181096
0.0002974017957
0.000338094375
0.0004310034932
6.636082169e-05
6.63554495e-05
6.626386903e-05
6.623427136e-05
6.621871231e-05
6.621232651e-05
6.630887371e-05
6.648276004e-05
6.653344099e-05
6.652933584e-05
6.660591475e-05
6.669876224e-05
6.693605044e-05
6.714014261e-05
6.747656274e-05
6.786680604e-05
6.828629224e-05
6.862458756e-05
6.932352851e-05
7.039558259e-05
7.166686348e-05
7.319671856e-05
7.529556863e-05
7.809979614e-05
8.194906478e-05
8.69900959e-05
9.386050649e-05
0.0001024133218
0.0001139248909
0.0001277338779
0.0001436610245
0.0001616456149
0.0001809256609
0.0001995788849
0.0002163385675
0.0002331769068
0.0002511528814
0.0002681900421
0.0002830068705
0.000266051154
6.62628458e-05
6.627176474e-05
6.6293606e-05
6.624951807e-05
6.630394386e-05
6.641041369e-05
6.649210305e-05
6.650385983e-05
6.65210896e-05
6.660247491e-05
6.663004254e-05
6.677538069e-05
6.698152978e-05
6.722989181e-05
6.741617599e-05
6.76503488e-05
6.800553537e-05
6.854492843e-05
6.92738996e-05
6.999369845e-05
7.108687649e-05
7.271975164e-05
7.443122493e-05
7.724692358e-05
8.071730269e-05
8.526403548e-05
9.139007912e-05
9.901916654e-05
0.000109076891
0.0001215381679
0.000136718302
0.0001534129833
0.0001719721281
0.0001889195296
0.000205490562
0.0002194589368
0.0002319933388
0.0002408478174
0.0002397048251
0.000212872757
6.633736197e-05
6.640515992e-05
6.650700887e-05
6.655251154e-05
6.655215684e-05
6.651648437e-05
6.659244038e-05
6.654551892e-05
6.653041893e-05
6.672879636e-05
6.682365269e-05
6.690067279e-05
6.694577009e-05
6.707807238e-05
6.730487631e-05
6.748197187e-05
6.78757878e-05
6.834611713e-05
6.890714776e-05
6.970384976e-05
7.09627737e-05
7.230251809e-05
7.409359012e-05
7.644771963e-05
7.937605426e-05
8.341383303e-05
8.901314367e-05
9.573426221e-05
0.0001049008196
0.0001162607777
0.0001298735231
0.0001458736383
0.0001620828225
0.0001787807296
0.0001933228847
0.000206206118
0.0002160800442
0.000220026919
0.000214617625
0.0001940046646
6.640609118e-05
6.642914461e-05
6.638334175e-05
6.63398189e-05
6.636525367e-05
6.638364575e-05
6.644743535e-05
6.65533798e-05
6.662568144e-05
6.654978245e-05
6.659127863e-05
6.668496169e-05
6.676830871e-05
6.688337319e-05
6.719218783e-05
6.756636275e-05
6.797266046e-05
6.852675347e-05
6.907907314e-05
6.981556691e-05
7.064022106e-05
7.1730471e-05
7.339964072e-05
7.54152199e-05
7.822525577e-05
8.196528224e-05
8.684318551e-05
9.282760279e-05
0.0001007023001
0.0001103333141
0.0001228883138
0.0001370286802
0.0001526124953
0.000168472749
0.0001817591251
0.0001932890832
0.0002017264361
0.0002044495783
0.0001991470359
0.0001845994598
6.636150704e-05
6.627284677e-05
6.641966819e-05
6.652129819e-05
6.654475517e-05
6.653310268e-05
6.64300541e-05
6.641409525e-05
6.645751346e-05
6.649105237e-05
6.661755792e-05
6.671422295e-05
6.687659791e-05
6.710498678e-05
6.716243864e-05
6.731311045e-05
6.764363596e-05
6.795141377e-05
6.850835229e-05
6.915015136e-05
7.010550383e-05
7.106496e-05
7.254193887e-05
7.437467342e-05
7.662000757e-05
7.994400796e-05
8.418318505e-05
8.981007277e-05
9.716375868e-05
0.0001059164024
0.0001164904322
0.000129352809
0.0001439925964
0.0001587037679
0.0001714288987
0.0001823023469
0.0001891182449
0.0001923464922
0.000188598189
0.0001775756396
6.63686223e-05
6.644283843e-05
6.631284622e-05
6.628391966e-05
6.647961721e-05
6.653513999e-05
6.661391547e-05
6.660854557e-05
6.670074581e-05
6.682136602e-05
6.686554108e-05
6.694968646e-05
6.693038521e-05
6.703965769e-05
6.725921585e-05
6.745146856e-05
6.750248265e-05
6.793410136e-05
6.846911607e-05
6.898898359e-05
6.963777948e-05
7.066621746e-05
7.181000706e-05
7.340780687e-05
7.557532313e-05
7.840723838e-05
8.213638359e-05
8.669669878e-05
9.301449244e-05
0.0001009694483
0.0001106866447
0.0001220587341
0.0001353020324
0.0001482886393
0.0001610602979
0.0001719516289
0.0001789391915
0.0001822099191
0.0001797381927
0.0001723375021
6.630782626e-05
6.632986172e-05
6.635959692e-05
6.63879644e-05
6.631947719e-05
6.630640789e-05
6.634060083e-05
6.640290798e-05
6.648228628e-05
6.651024851e-05
6.652407766e-05
6.660558352e-05
6.674397631e-05
6.686149874e-05
6.698109807e-05
6.723123849e-05
6.753142724e-05
6.77053807e-05
6.802112092e-05
6.866055438e-05
6.941426827e-05
7.030632429e-05
7.160043873e-05
7.303091972e-05
7.48971455e-05
7.735463068e-05
8.028509298e-05
8.460622047e-05
8.966925895e-05
9.628835519e-05
0.0001051177343
0.0001153081446
0.0001264808804
0.0001385955686
0.0001510043668
0.0001614275425
0.0001684604493
0.0001728540659
0.0001728480378
0.0001679322063
6.626266553e-05
6.61810632e-05
6.613810927e-05
6.619083927e-05
6.618815465e-05
6.625167379e-05
6.624529148e-05
6.620208429e-05
6.62589172e-05
6.634016496e-05
6.647809367e-05
6.657332172e-05
6.663684086e-05
6.672816861e-05
6.697864877e-05
6.719574846e-05
6.75631869e-05
6.786386441e-05
6.845594987e-05
6.885043713e-05
6.937956065e-05
7.015318724e-05
7.11646307e-05
7.229490661e-05
7.389038166e-05
7.60300749e-05
7.875851048e-05
8.222926897e-05
8.687497951e-05
9.293963864e-05
0.0001001584313
0.0001089726484
0.0001197631515
0.0001303412656
0.0001415929156
0.0001517205706
0.0001593905822
0.0001640774738
0.0001661451888
0.0001629326097
6.634478408e-05
6.64163025e-05
6.64728284e-05
6.641412453e-05
6.642238056e-05
6.636625987e-05
6.634133985e-05
6.641194657e-05
6.653158291e-05
6.656987464e-05
6.647708303e-05
6.656430309e-05
6.65821827e-05
6.67140258e-05
6.68006887e-05
6.695486864e-05
6.708260906e-05
6.719576214e-05
6.758070549e-05
6.804238426e-05
6.861129002e-05
6.937368045e-05
7.019122922e-05
7.137553784e-05
7.282809118e-05
7.470078994e-05
7.723219768e-05
8.032658507e-05
8.429524973e-05
8.923108456e-05
9.545678352e-05
0.0001027110916
0.0001120172998
0.0001218104612
0.0001325886218
0.0001423752494
0.0001504729887
0.000155950378
0.0001589397164
0.0001588455572
6.635705946e-05
6.636896171e-05
6.644250241e-05
6.646939643e-05
6.645126449e-05
6.6472334e-05
6.641251887e-05
6.642776388e-05
6.635012071e-05
6.633543282e-05
6.642320557e-05
6.653554254e-05
6.664838598e-05
6.676923178e-05
6.684064527e-05
6.691975724e-05
6.706177385e-05
6.731653261e-05
6.754120654e-05
6.794841537e-05
6.839918136e-05
6.900214419e-05
6.976358418e-05
7.090093263e-05
7.213208092e-05
7.387431682e-05
7.599433513e-05
7.872157069e-05
8.209836512e-05
8.648178585e-05
9.17553428e-05
9.834397156e-05
0.0001057814079
0.0001147567666
0.0001247062864
0.0001340332426
0.0001422278644
0.0001482534409
0.0001525512161
0.0001537422513
6.624548718e-05
6.62397136e-05
6.624184071e-05
6.627744447e-05
6.633512966e-05
6.642006211e-05
6.651750399e-05
6.647936795e-05
6.658936991e-05
6.657189722e-05
6.657650596e-05
6.659342155e-05
6.661616136e-05
6.677007294e-05
6.686893289e-05
6.697858033e-05
6.716596856e-05
6.738237664e-05
6.761093964e-05
6.789212327e-05
6.846882321e-05
6.902121333e-05
6.963199767e-05
7.052143337e-05
7.160980447e-05
7.288460154e-05
7.448889802e-05
7.675786561e-05
7.989231361e-05
8.348277339e-05
8.795081784e-05
9.362483216e-05
0.0001002892186
0.000107869427
0.0001170183282
0.0001258938451
0.0001335966662
0.0001406328917
0.0001458305347
0.0001480719006
6.634911656e-05
6.629042105e-05
6.627907697e-05
6.630890583e-05
6.637094379e-05
6.636197994e-05
6.633807633e-05
6.643384268e-05
6.642908222e-05
6.647010324e-05
6.656308421e-05
6.662167843e-05
6.677705187e-05
6.678393935e-05
6.692518332e-05
6.699441262e-05
6.712117263e-05
6.728738372e-05
6.748251209e-05
6.782045438e-05
6.81926315e-05
6.847532202e-05
6.90344233e-05
6.968726521e-05
7.073385825e-05
7.179128894e-05
7.340154115e-05
7.537713364e-05
7.81494961e-05
8.104993529e-05
8.498445865e-05
8.99228828e-05
9.556869161e-05
0.0001020459104
0.0001098305348
0.0001178096799
0.0001260238602
0.0001330113602
0.0001390985754
0.0001427952275
6.629751012e-05
6.631204413e-05
6.630282744e-05
6.622565034e-05
6.612274753e-05
6.620939453e-05
6.634587241e-05
6.640178023e-05
6.64331271e-05
6.645814382e-05
6.640557832e-05
6.643100017e-05
6.641206038e-05
6.650265739e-05
6.653932157e-05
6.674122781e-05
6.689629099e-05
6.713060755e-05
6.735185871e-05
6.755356238e-05
6.772680573e-05
6.827231211e-05
6.872651252e-05
6.943984366e-05
7.031993607e-05
7.136420707e-05
7.273911409e-05
7.450137521e-05
7.667377895e-05
7.915139685e-05
8.259443749e-05
8.65882512e-05
9.132188136e-05
9.714358711e-05
0.0001034248612
0.000110681028
0.0001182986206
0.000125267095
0.0001315814884
0.0001365621461
6.626972889e-05
6.625316987e-05
6.627707157e-05
6.631844378e-05
6.629489656e-05
6.630786019e-05
6.620253069e-05
6.619604887e-05
6.622820476e-05
6.63197604e-05
6.650697347e-05
6.661331576e-05
6.675186457e-05
6.682103769e-05
6.693365924e-05
6.694571137e-05
6.69399385e-05
6.696935987e-05
6.714355866e-05
6.745706586e-05
6.774687391e-05
6.8161305e-05
6.867473569e-05
6.921216936e-05
6.988946846e-05
7.07779836e-05
7.195190118e-05
7.329034548e-05
7.508393477e-05
7.727691531e-05
8.017393244e-05
8.3416562e-05
8.739239633e-05
9.247241808e-05
9.818208745e-05
0.0001045825259
0.0001111114361
0.000118008645
0.0001245796869
0.0001298742162
6.633345622e-05
6.634393815e-05
6.63343677e-05
6.637214316e-05
6.651873828e-05
6.650364835e-05
6.663839433e-05
6.656102046e-05
6.656750204e-05
6.656410934e-05
6.659515003e-05
6.6602695e-05
6.659140287e-05
6.663414079e-05
6.666356109e-05
6.681987858e-05
6.697422121e-05
6.716345298e-05
6.728665365e-05
6.753624513e-05
6.787799658e-05
6.794053371e-05
6.842796881e-05
6.895135643e-05
6.967810364e-05
7.036231547e-05
7.124644355e-05
7.261339874e-05
7.405884181e-05
7.575220534e-05
7.809585367e-05
8.108462181e-05
8.451575781e-05
8.870225112e-05
9.360455397e-05
9.90255858e-05
0.0001054266022
0.0001116515526
0.0001177951793
0.0001238609259
6.63445597e-05
6.637737158e-05
6.651423965e-05
6.653454454e-05
6.640532244e-05
6.63838023e-05
6.631341879e-05
6.641225952e-05
6.641068981e-05
6.641514575e-05
6.634192664e-05
6.641104426e-05
6.645975573e-05
6.651185978e-05
6.663657531e-05
6.670194589e-05
6.686473941e-05
6.684018113e-05
6.705533187e-05
6.717969295e-05
6.744046639e-05
6.780099199e-05
6.823848374e-05
6.86563795e-05
6.915387445e-05
6.971820842e-05
7.053637874e-05
7.165648926e-05
7.289827717e-05
7.450610997e-05
7.639841367e-05
7.883145514e-05
8.170295043e-05
8.541525017e-05
8.962018385e-05
9.414427382e-05
9.964056767e-05
0.0001052551463
0.0001110375821
0.0001166372232
6.629108282e-05
6.631498206e-05
6.624956295e-05
6.618996674e-05
6.624110707e-05
6.621842304e-05
6.634521055e-05
6.626824689e-05
6.633837496e-05
6.643726315e-05
6.662774822e-05
6.663853326e-05
6.660293756e-05
6.663660916e-05
6.670147131e-05
6.675858645e-05
6.676800437e-05
6.690183e-05
6.697575563e-05
6.70767198e-05
6.724436894e-05
6.742548673e-05
6.76757199e-05
6.809172877e-05
6.854627009e-05
6.913600417e-05
6.963728067e-05
7.047107058e-05
7.169534982e-05
7.305340406e-05
7.479987164e-05
7.666917728e-05
7.919738303e-05
8.206833025e-05
8.568258445e-05
8.978565918e-05
9.433922452e-05
9.979503693e-05
0.0001053049264
0.0001104405295
6.626527289e-05
6.623636176e-05
6.616497001e-05
6.623190611e-05
6.631372815e-05
6.634674051e-05
6.631469017e-05
6.635595562e-05
6.634339877e-05
6.629889284e-05
6.620689368e-05
6.619124825e-05
6.63111459e-05
6.646096732e-05
6.657939663e-05
6.657200429e-05
6.663281387e-05
6.671944599e-05
6.674896471e-05
6.693093775e-05
6.70410127e-05
6.720136568e-05
6.727994724e-05
6.76696146e-05
6.816920501e-05
6.859988465e-05
6.922985362e-05
7.006944095e-05
7.081302915e-05
7.202177769e-05
7.340773981e-05
7.504569965e-05
7.689525251e-05
7.953902602e-05
8.235798782e-05
8.60550176e-05
8.964273193e-05
9.445306808e-05
9.944082035e-05
0.0001047447216
6.637268315e-05
6.637855635e-05
6.645166751e-05
6.622144836e-05
6.625906719e-05
6.616519732e-05
6.616013422e-05
6.621714472e-05
6.612545198e-05
6.621496759e-05
6.629790117e-05
6.623967552e-05
6.619608223e-05
6.623091635e-05
6.620160101e-05
6.630190102e-05
6.638620163e-05
6.640842864e-05
6.643698452e-05
6.659029519e-05
6.680431242e-05
6.703301264e-05
6.730631878e-05
6.765501447e-05
6.796092697e-05
6.838334139e-05
6.887279126e-05
6.957929622e-05
7.026149831e-05
7.123923353e-05
7.24220243e-05
7.384941343e-05
7.55123886e-05
7.762942257e-05
7.99374873e-05
8.259136175e-05
8.621709824e-05
9.007239567e-05
9.454827726e-05
9.897423669e-05
6.632784408e-05
6.63116426e-05
6.635817122e-05
6.654707035e-05
6.641381318e-05
6.642090132e-05
6.644064688e-05
6.63198446e-05
6.637447396e-05
6.645203854e-05
6.635295637e-05
6.641037036e-05
6.644333025e-05
6.643006529e-05
6.643831792e-05
6.650368076e-05
6.646980954e-05
6.657562545e-05
6.659633297e-05
6.666513863e-05
6.674072865e-05
6.693413381e-05
6.70971612e-05
6.724950574e-05
6.753601877e-05
6.801072212e-05
6.843646662e-05
6.883041572e-05
6.955836844e-05
7.019002362e-05
7.106723247e-05
7.233180857e-05
7.371546554e-05
7.542593672e-05
7.772710372e-05
8.055178103e-05
8.334258711e-05
8.634274669e-05
9.001182485e-05
9.414856884e-05
6.63339315e-05
6.631327515e-05
6.631170567e-05
6.616346596e-05
6.620027274e-05
6.631256635e-05
6.627236747e-05
6.631965432e-05
6.629221377e-05
6.617799628e-05
6.628254376e-05
6.622908026e-05
6.625474881e-05
6.630390891e-05
6.636724494e-05
6.632289453e-05
6.640415298e-05
6.647148864e-05
6.659573054e-05
6.68289752e-05
6.691448643e-05
6.706956097e-05
6.722919206e-05
6.746289237e-05
6.768540383e-05
6.801706995e-05
6.832605457e-05
6.877259634e-05
6.930292798e-05
7.000868674e-05
7.094905712e-05
7.18827952e-05
7.302461566e-05
7.450468392e-05
7.604550616e-05
7.799672155e-05
8.026021241e-05
8.340944569e-05
8.651230344e-05
9.004600818e-05
6.632117035e-05
6.631894276e-05
6.632689121e-05
6.642860101e-05
6.640804642e-05
6.63990348e-05
6.644657363e-05
6.643047421e-05
6.643386623e-05
6.652043853e-05
6.646697634e-05
6.649284678e-05
6.651441391e-05
6.644146029e-05
6.646525502e-05
6.653284217e-05
6.660736523e-05
6.675155115e-05
6.68280993e-05
6.680668404e-05
6.689472453e-05
6.701784959e-05
6.705789561e-05
6.718947539e-05
6.735163393e-05
6.762218504e-05
6.794311009e-05
6.837227585e-05
6.888057173e-05
6.932234362e-05
7.013328818e-05
7.09121858e-05
7.183597812e-05
7.301199455e-05
7.443345106e-05
7.629556567e-05
7.817291903e-05
8.032239294e-05
8.300390683e-05
8.615741699e-05
6.6227792e-05
6.618157055e-05
6.612021196e-05
6.618956945e-05
6.627725351e-05
6.630848969e-05
6.630671778e-05
6.634392782e-05
6.634590223e-05
6.632514561e-05
6.638047972e-05
6.647899773e-05
6.645439354e-05
6.649904558e-05
6.656106231e-05
6.658455273e-05
6.663983622e-05
6.66878802e-05
6.661695331e-05
6.665259394e-05
6.672888718e-05
6.682416512e-05
6.709435556e-05
6.729397349e-05
6.752275194e-05
6.773573511e-05
6.802485963e-05
6.83416259e-05
6.879174079e-05
6.932174335e-05
6.976709941e-05
7.044528399e-05
7.131113879e-05
7.214368174e-05
7.316080673e-05
7.430586337e-05
7.613325592e-05
7.818492121e-05
8.054530324e-05
8.310418944e-05
6.633511793e-05
6.632752421e-05
6.638143961e-05
6.627781068e-05
6.625482703e-05
6.62220728e-05
6.62392346e-05
6.630332557e-05
6.629628873e-05
6.6347521e-05
6.638564146e-05
6.646178113e-05
6.64629455e-05
6.648942226e-05
6.644325246e-05
6.648932101e-05
6.64984841e-05
6.655513323e-05
6.663101977e-05
6.676016359e-05
6.686774125e-05
6.70459911e-05
6.717381867e-05
6.727324574e-05
6.75414052e-05
6.773433624e-05
6.798710577e-05
6.832922803e-05
6.858437693e-05
6.901868692e-05
6.949491423e-05
7.005568492e-05
7.066125854e-05
7.14374883e-05
7.23904998e-05
7.352489988e-05
7.489384456e-05
7.636145695e-05
7.81820253e-05
8.036137148e-05
6.635796655e-05
6.641825939e-05
6.633235095e-05
6.641582945e-05
6.643688892e-05
6.644043258e-05
6.642661231e-05
6.632906041e-05
6.631078525e-05
6.634541187e-05
6.63217706e-05
6.631113962e-05
6.637482425e-05
6.637421676e-05
6.640676781e-05
6.646128955e-05
6.658359644e-05
6.659908729e-05
6.676346248e-05
6.687007602e-05
6.69624643e-05
6.708725175e-05
6.710674187e-05
6.725891675e-05
6.733561168e-05
6.742222885e-05
6.762026881e-05
6.786554069e-05
6.80903606e-05
6.850066578e-05
6.893835839e-05
6.94029322e-05
7.010857612e-05
7.077923905e-05
7.153935409e-05
7.238066956e-05
7.347368612e-05
7.492592854e-05
7.649258056e-05
7.829230414e-05
6.628474598e-05
6.631329718e-05
6.63298508e-05
6.62399449e-05
6.6188411e-05
6.617074368e-05
6.621043187e-05
6.626955918e-05
6.630950048e-05
6.634599944e-05
6.638786441e-05
6.638907935e-05
6.631263909e-05
6.631835945e-05
6.638143533e-05
6.639054741e-05
6.651958465e-05
6.656094339e-05
6.659359503e-05
6.653077227e-05
6.656580317e-05
6.651609169e-05
6.661536279e-05
6.676338354e-05
6.693626003e-05
6.700946045e-05
6.720086485e-05
6.73718683e-05
6.755436311e-05
6.774672934e-05
6.803841729e-05
6.84129746e-05
6.886002359e-05
6.952874936e-05