/*--------------------------------*- C++ -*----------------------------------*\
| =========                 |                                                 |
| \\      /  F ield         | OpenFOAM: The Open Source CFD Toolbox           |
|  \\    /   O peration     | Version:  v1706                                 |
|   \\  /    A nd           | Web:      www.OpenFOAM.com                      |
|    \\/     M anipulation  |                                                 |
\*---------------------------------------------------------------------------*/
FoamFile
{
    version     2.0;
    format      ascii;
    class       volScalarField;
    location    "0.004";
    object      rhoN_Ar;
}
// * * * * * * * * * * * * * * * * * * * * * * * * * * * * * * * * * * * * * //

dimensions      [0 -3 0 0 0 0 0];


internalField   nonuniform List<scalar> 
4000
(
9.996250252e+20
1.000133391e+21
9.999905172e+20
9.968218124e+20
9.938436064e+20
9.970555057e+20
9.985318719e+20
1.002529025e+21
1.00914886e+21
1.012949977e+21
1.019809043e+21
1.030966517e+21
1.043004494e+21
1.05420627e+21
1.064443368e+21
1.082167515e+21
1.098419725e+21
1.122403753e+21
1.14761384e+21
1.192428696e+21
1.242062508e+21
1.311999954e+21
1.397842947e+21
1.519559533e+21
1.671829034e+21
1.879152705e+21
2.118857858e+21
2.387890975e+21
2.719959277e+21
3.053085291e+21
3.383878801e+21
3.701387231e+21
4.020784037e+21
4.328750911e+21
4.649286279e+21
5.077076934e+21
5.644447872e+21
6.433727826e+21
7.671059982e+21
9.879528723e+21
1.00075633e+21
1.001872546e+21
1.002081016e+21
1.003115158e+21
1.004135347e+21
1.005117782e+21
1.007703957e+21
1.006975954e+21
1.008051133e+21
1.01241751e+21
1.014401257e+21
1.016977584e+21
1.019562117e+21
1.026847072e+21
1.037489706e+21
1.051649242e+21
1.067224568e+21
1.091366035e+21
1.119302639e+21
1.152682441e+21
1.200301391e+21
1.264848259e+21
1.346612769e+21
1.460899399e+21
1.612653974e+21
1.805643725e+21
2.046664442e+21
2.335848265e+21
2.655360351e+21
2.993221889e+21
3.31925153e+21
3.640999332e+21
3.948067243e+21
4.268626603e+21
4.606483216e+21
5.025264714e+21
5.596214444e+21
6.398106932e+21
7.660504439e+21
9.858636195e+21
9.99805332e+20
1.001137292e+21
1.003770382e+21
1.004801169e+21
1.006405054e+21
1.007487222e+21
1.008984392e+21
1.010160627e+21
1.009872892e+21
1.011427768e+21
1.016009393e+21
1.020441617e+21
1.025145767e+21
1.032598418e+21
1.038874043e+21
1.049523397e+21
1.06291967e+21
1.081157638e+21
1.108471112e+21
1.144196881e+21
1.19148817e+21
1.254038105e+21
1.334358043e+21
1.450304149e+21
1.593526577e+21
1.77784846e+21
2.024721069e+21
2.309384182e+21
2.618876288e+21
2.963239654e+21
3.298348863e+21
3.605577034e+21
3.920805657e+21
4.247672526e+21
4.590288139e+21
5.001293758e+21
5.584418612e+21
6.394780537e+21
7.633847731e+21
9.822064683e+21
1.001154315e+21
1.000957686e+21
9.999714202e+20
9.999019758e+20
1.001901037e+21
1.004240297e+21
1.006680993e+21
1.007279463e+21
1.010781332e+21
1.012118721e+21
1.014133387e+21
1.01727633e+21
1.021235438e+21
1.029004623e+21
1.039084198e+21
1.049601507e+21
1.063913286e+21
1.082389387e+21
1.105768726e+21
1.138089222e+21
1.182136451e+21
1.24511624e+21
1.328638294e+21
1.441966801e+21
1.575677618e+21
1.763939707e+21
2.001440186e+21
2.287944971e+21
2.600183963e+21
2.9287455e+21
3.270140197e+21
3.59179397e+21
3.904812455e+21
4.225880243e+21
4.573465632e+21
4.994221964e+21
5.576393509e+21
6.365250965e+21
7.614274816e+21
9.804030931e+21
1.000528677e+21
1.000491461e+21
1.001284614e+21
1.003743153e+21
1.003936983e+21
1.003471791e+21
1.003658643e+21
1.005204631e+21
1.006804116e+21
1.009616202e+21
1.012783384e+21
1.014344878e+21
1.02090486e+21
1.028475084e+21
1.035802633e+21
1.044100107e+21
1.056609894e+21
1.074467063e+21
1.100761263e+21
1.135727417e+21
1.181386009e+21
1.236899692e+21
1.316898754e+21
1.42306564e+21
1.57174797e+21
1.749742821e+21
1.983428904e+21
2.270851636e+21
2.582701599e+21
2.898918163e+21
3.242410483e+21
3.570967815e+21
3.881690463e+21
4.201629338e+21
4.560379955e+21
4.985161469e+21
5.565705536e+21
6.363855549e+21
7.581248191e+21
9.750356141e+21
1.001236084e+21
1.000409579e+21
1.000696925e+21
1.000256637e+21
1.00204405e+21
1.002767048e+21
1.003685472e+21
1.005762548e+21
1.008679259e+21
1.009627036e+21
1.011609102e+21
1.014043042e+21
1.018062789e+21
1.024606851e+21
1.032866489e+21
1.044385027e+21
1.057147184e+21
1.076315137e+21
1.10167415e+21
1.134559761e+21
1.175290986e+21
1.233750346e+21
1.317452082e+21
1.414908553e+21
1.557597994e+21
1.741598758e+21
1.971684487e+21
2.245287612e+21
2.553444805e+21
2.887401298e+21
3.215464891e+21
3.540461921e+21
3.861162672e+21
4.179481236e+21
4.538254493e+21
4.965653889e+21
5.535159538e+21
6.348744334e+21
7.5353677e+21
9.705740789e+21
9.996306721e+20
1.001987038e+21
1.002804599e+21
1.004350338e+21
1.003558975e+21
1.003283116e+21
1.003397929e+21
1.003486543e+21
1.005745818e+21
1.008084461e+21
1.01008637e+21
1.015723e+21
1.021841999e+21
1.027160388e+21
1.03488677e+21
1.043382169e+21
1.057230633e+21
1.074764674e+21
1.097207939e+21
1.1277436e+21
1.168989244e+21
1.225625237e+21
1.302119273e+21
1.404218172e+21
1.544053595e+21
1.724007336e+21
1.954401014e+21
2.224173275e+21
2.525939093e+21
2.856036007e+21
3.190971253e+21
3.521100531e+21
3.842324472e+21
4.159870542e+21
4.510326362e+21
4.935628765e+21
5.510819288e+21
6.300919132e+21
7.506620059e+21
9.671671524e+21
1.001874494e+21
1.001996804e+21
1.001942957e+21
1.001999112e+21
1.002436812e+21
1.004752239e+21
1.006023032e+21
1.007569983e+21
1.008499231e+21
1.009745408e+21
1.013672403e+21
1.015446281e+21
1.019812515e+21
1.026124169e+21
1.035452032e+21
1.043325253e+21
1.054684692e+21
1.072654252e+21
1.096008525e+21
1.128310655e+21
1.169310637e+21
1.225218583e+21
1.297846836e+21
1.398724836e+21
1.531416496e+21
1.702568091e+21
1.927600672e+21
2.188026978e+21
2.492502552e+21
2.818325439e+21
3.158705517e+21
3.488296935e+21
3.806229678e+21
4.13272027e+21
4.473039577e+21
4.916966165e+21
5.485380417e+21
6.260431528e+21
7.462302761e+21
9.625924677e+21
1.000020769e+21
1.00048404e+21
1.000433334e+21
1.001034126e+21
1.001711746e+21
1.004015809e+21
1.005135957e+21
1.006305274e+21
1.007328619e+21
1.010377142e+21
1.012512952e+21
1.01660249e+21
1.019439737e+21
1.024790017e+21
1.032783939e+21
1.043010473e+21
1.056418443e+21
1.072824997e+21
1.094388226e+21
1.121740421e+21
1.16251672e+21
1.218743837e+21
1.288484176e+21
1.38481919e+21
1.516764609e+21
1.684788313e+21
1.896405588e+21
2.164442816e+21
2.452411453e+21
2.780941271e+21
3.104016323e+21
3.44966412e+21
3.76742039e+21
4.087253314e+21
4.442055899e+21
4.872223378e+21
5.427152887e+21
6.215522577e+21
7.412177682e+21
9.582405622e+21
1.000933026e+21
1.001054296e+21
1.001988386e+21
1.002719847e+21
1.002752084e+21
1.001269974e+21
1.003357669e+21
1.004942628e+21
1.006381756e+21
1.007975158e+21
1.011304725e+21
1.015634389e+21
1.022827726e+21
1.028806823e+21
1.034596338e+21
1.042151951e+21
1.053027153e+21
1.068648023e+21
1.088072028e+21
1.115795388e+21
1.154500637e+21
1.207276335e+21
1.276478048e+21
1.370127281e+21
1.491312595e+21
1.653593263e+21
1.862890046e+21
2.118921261e+21
2.414871965e+21
2.743713841e+21
3.078468806e+21
3.398987534e+21
3.7287044e+21
4.046205949e+21
4.400033388e+21
4.828094498e+21
5.391845029e+21
6.180337448e+21
7.392994203e+21
9.562651824e+21
1.000415198e+21
1.001146867e+21
1.003699271e+21
1.005464786e+21
1.006842993e+21
1.008141436e+21
1.008074712e+21
1.010276621e+21
1.011425509e+21
1.012332809e+21
1.015343082e+21
1.016181357e+21
1.018589575e+21
1.023093096e+21
1.029852979e+21
1.041053494e+21
1.051848293e+21
1.070064852e+21
1.089063699e+21
1.116549596e+21
1.153379994e+21
1.201285893e+21
1.267110009e+21
1.352929237e+21
1.476532947e+21
1.631281665e+21
1.83059162e+21
2.077499162e+21
2.370007157e+21
2.68710045e+21
3.025537151e+21
3.352703545e+21
3.671106786e+21
3.997579092e+21
4.363442635e+21
4.798315432e+21
5.352005412e+21
6.134567375e+21
7.335563361e+21
9.469787561e+21
1.000514006e+21
1.00129121e+21
1.001619261e+21
1.000884213e+21
1.000287896e+21
1.001396983e+21
1.002643269e+21
1.003784549e+21
1.004912031e+21
1.008574242e+21
1.009789869e+21
1.010590834e+21
1.013323313e+21
1.019809979e+21
1.026080499e+21
1.035498927e+21
1.046169005e+21
1.061443291e+21
1.080348362e+21
1.108732412e+21
1.143813142e+21
1.191596639e+21
1.253549167e+21
1.335774921e+21
1.45282387e+21
1.603691167e+21
1.79216779e+21
2.026463438e+21
2.312399478e+21
2.632232812e+21
2.961282225e+21
3.288621636e+21
3.617859602e+21
3.950903875e+21
4.316425934e+21
4.730512527e+21
5.288020891e+21
6.053102569e+21
7.224434412e+21
9.357300479e+21
1.000788907e+21
1.001823883e+21
1.001970205e+21
1.002537871e+21
1.004525086e+21
1.006943606e+21
1.00758788e+21
1.006885383e+21
1.008024547e+21
1.00811188e+21
1.011297247e+21
1.014542368e+21
1.018832424e+21
1.021919732e+21
1.026694718e+21
1.035119316e+21
1.046913906e+21
1.061463325e+21
1.079134526e+21
1.103771706e+21
1.139447354e+21
1.182730191e+21
1.239689114e+21
1.321395532e+21
1.422463128e+21
1.564200456e+21
1.75118945e+21
1.978821364e+21
2.254590773e+21
2.562540967e+21
2.896298146e+21
3.222805897e+21
3.563801014e+21
3.885043487e+21
4.244108933e+21
4.655329206e+21
5.211151186e+21
5.967219966e+21
7.117196343e+21
9.282003135e+21
1.000537285e+21
9.998427476e+20
1.00050206e+21
1.001132274e+21
1.001357406e+21
1.002475404e+21
1.003836146e+21
1.005743635e+21
1.007883912e+21
1.009504244e+21
1.011117684e+21
1.014267989e+21
1.016514706e+21
1.01935871e+21
1.024610239e+21
1.033292339e+21
1.042693479e+21
1.055613252e+21
1.073740905e+21
1.097741113e+21
1.128652235e+21
1.171117794e+21
1.231009576e+21
1.302907589e+21
1.403708156e+21
1.533951898e+21
1.712933474e+21
1.930744052e+21
2.194936245e+21
2.505066683e+21
2.817607709e+21
3.15418187e+21
3.480035499e+21
3.82005478e+21
4.160191986e+21
4.584142311e+21
5.109080812e+21
5.848951427e+21
7.014899626e+21
9.13919369e+21
1.000128303e+21
1.000824117e+21
1.00135612e+21
9.998542642e+20
9.997417398e+20
9.988645088e+20
9.982261051e+20
9.988675707e+20
9.981549162e+20
1.000874638e+21
1.00382094e+21
1.006881298e+21
1.01217913e+21
1.016844682e+21
1.022720446e+21
1.030956925e+21
1.040833812e+21
1.053012472e+21
1.070008249e+21
1.091150587e+21
1.1215582e+21
1.161317585e+21
1.210650729e+21
1.27946131e+21
1.378707061e+21
1.50357699e+21
1.665570783e+21
1.879834071e+21
2.139086449e+21
2.433398979e+21
2.749951535e+21
3.067328504e+21
3.406839098e+21
3.722052843e+21
4.068395276e+21
4.482940504e+21
5.008940763e+21
5.746548887e+21
6.882499493e+21
8.962274103e+21
9.994334157e+20
9.98469225e+20
9.987010899e+20
1.000883528e+21
1.000995252e+21
1.001310527e+21
1.002560148e+21
1.002398685e+21
1.004123515e+21
1.005322631e+21
1.007102558e+21
1.009203116e+21
1.011759752e+21
1.015504026e+21
1.021244022e+21
1.028821337e+21
1.040248527e+21
1.053400547e+21
1.067327747e+21
1.090740746e+21
1.117377662e+21
1.152308149e+21
1.200773272e+21
1.267359058e+21
1.356655362e+21
1.47369128e+21
1.624789913e+21
1.825715014e+21
2.065581177e+21
2.350891331e+21
2.662914159e+21
2.990810169e+21
3.314792788e+21
3.636107048e+21
3.980685087e+21
4.368057889e+21
4.881656265e+21
5.589112836e+21
6.708882609e+21
8.793372636e+21
1.001008941e+21
1.001265988e+21
1.001467954e+21
9.997435971e+20
1.001170361e+21
1.002679747e+21
1.003010236e+21
1.005483548e+21
1.007953799e+21
1.010549515e+21
1.011827864e+21
1.01352009e+21
1.016797439e+21
1.020271398e+21
1.025102504e+21
1.029823446e+21
1.039131453e+21
1.047792253e+21
1.064206537e+21
1.084972259e+21
1.112021861e+21
1.143860493e+21
1.185688766e+21
1.249290292e+21
1.332222362e+21
1.443878664e+21
1.584969139e+21
1.767982748e+21
2.002757658e+21
2.272187241e+21
2.585265846e+21
2.907785571e+21
3.218655561e+21
3.547458401e+21
3.865241883e+21
4.23473541e+21
4.732587171e+21
5.409904375e+21
6.486716923e+21
8.512337224e+21
9.99299181e+20
1.000396721e+21
1.001074366e+21
1.001367298e+21
1.002285867e+21
1.002544382e+21
1.005064517e+21
1.005639674e+21
1.005470645e+21
1.005338329e+21
1.007690965e+21
1.008566703e+21
1.012631043e+21
1.018652599e+21
1.024655799e+21
1.031263985e+21
1.037444627e+21
1.049083142e+21
1.063824597e+21
1.082194435e+21
1.104305853e+21
1.139186213e+21
1.180615102e+21
1.240976749e+21
1.314555532e+21
1.411048811e+21
1.539239966e+21
1.716877789e+21
1.927688858e+21
2.189843388e+21
2.486207517e+21
2.803751493e+21
3.109243178e+21
3.424675441e+21
3.728264214e+21
4.093485791e+21
4.535298842e+21
5.168059397e+21
6.193740077e+21
8.170575021e+21
1.000838616e+21
9.998292473e+20
9.992366256e+20
1.00040887e+21
1.000441751e+21
1.001048136e+21
1.002095739e+21
1.000985433e+21
1.001776105e+21
1.004397405e+21
1.006026158e+21
1.008934975e+21
1.012095369e+21
1.016453241e+21
1.020715529e+21
1.028330145e+21
1.036899072e+21
1.045614052e+21
1.059041712e+21
1.073782316e+21
1.096621573e+21
1.126064548e+21
1.162785681e+21
1.215401311e+21
1.287669805e+21
1.382224697e+21
1.498175144e+21
1.658452928e+21
1.859810483e+21
2.107908683e+21
2.390084542e+21
2.688291773e+21
2.985610454e+21
3.297265227e+21
3.591697267e+21
3.92265086e+21
4.314103099e+21
4.870800438e+21
5.769775416e+21
7.601422222e+21
1.000433468e+21
1.001035916e+21
1.000682704e+21
1.001244632e+21
9.994724569e+20
1.00071405e+21
1.002678886e+21
1.005991585e+21
1.007168193e+21
1.007172016e+21
1.007993883e+21
1.010621565e+21
1.012387624e+21
1.013749248e+21
1.017303537e+21
1.022402173e+21
1.030050508e+21
1.039372395e+21
1.051390006e+21
1.067227963e+21
1.086808282e+21
1.113197486e+21
1.155434585e+21
1.201100591e+21
1.265184835e+21
1.351904451e+21
1.459082065e+21
1.607828581e+21
1.789994897e+21
2.019214838e+21
2.276245239e+21
2.563067757e+21
2.859692285e+21
3.149004105e+21
3.430929058e+21
3.745653015e+21
4.064079581e+21
4.476979602e+21
5.115197415e+21
6.535231225e+21
9.992608759e+20
9.990070889e+20
1.000163654e+21
1.00120097e+21
1.003801522e+21
1.003512572e+21
1.002135089e+21
1.002186306e+21
1.001640511e+21
1.002745095e+21
1.006580183e+21
1.008616594e+21
1.011298939e+21
1.015982531e+21
1.019192324e+21
1.023920253e+21
1.031822811e+21
1.041262616e+21
1.051291022e+21
1.064316713e+21
1.081284511e+21
1.106586e+21
1.139105128e+21
1.183783861e+21
1.242704475e+21
1.320287604e+21
1.423980211e+21
1.55215332e+21
1.717605592e+21
1.92789101e+21
2.170932525e+21
2.440938139e+21
2.717502464e+21
3.000251699e+21
3.271483441e+21
3.524674905e+21
3.77935087e+21
4.046783452e+21
4.274168911e+21
4.020699199e+21
1.000629683e+21
1.001720397e+21
1.001715811e+21
1.001390967e+21
1.001055421e+21
1.0008651e+21
9.996475055e+20
1.000770322e+21
1.00004802e+21
1.001277844e+21
1.003408061e+21
1.00460349e+21
1.007178554e+21
1.009093227e+21
1.014245648e+21
1.018973094e+21
1.025283491e+21
1.03316155e+21
1.04480628e+21
1.056376104e+21
1.072591591e+21
1.096675201e+21
1.130011918e+21
1.16919737e+21
1.219056075e+21
1.284832939e+21
1.378411164e+21
1.498761186e+21
1.650743445e+21
1.834541384e+21
2.064571231e+21
2.31551726e+21
2.573964529e+21
2.844447869e+21
3.093391326e+21
3.31551407e+21
3.509155952e+21
3.640037823e+21
3.631597973e+21
3.227420752e+21
9.996624542e+20
1.000309027e+21
1.000732433e+21
1.001558609e+21
1.001187173e+21
1.001724455e+21
1.00254146e+21
1.002215881e+21
1.004331381e+21
1.004755551e+21
1.005952399e+21
1.006112131e+21
1.006708262e+21
1.009526891e+21
1.013979529e+21
1.018994671e+21
1.024706827e+21
1.032475634e+21
1.041215829e+21
1.054741884e+21
1.070481266e+21
1.08955898e+21
1.114871612e+21
1.152404924e+21
1.198684546e+21
1.259307228e+21
1.336859261e+21
1.44224831e+21
1.577319323e+21
1.750708554e+21
1.953946361e+21
2.187531812e+21
2.44211406e+21
2.698329553e+21
2.927979777e+21
3.11407653e+21
3.271403858e+21
3.324114814e+21
3.238014418e+21
2.936233895e+21
9.994856097e+20
1.000205492e+21
9.998875822e+20
1.000266629e+21
1.000393487e+21
1.002289483e+21
1.004809071e+21
1.007471566e+21
1.008418418e+21
1.009560906e+21
1.011511925e+21
1.013392637e+21
1.015653923e+21
1.016855256e+21
1.019035536e+21
1.023409089e+21
1.028333635e+21
1.033686136e+21
1.041296867e+21
1.048479643e+21
1.063590295e+21
1.080721508e+21
1.102892663e+21
1.135239225e+21
1.173258491e+21
1.230531935e+21
1.306210525e+21
1.394576469e+21
1.514059367e+21
1.664381812e+21
1.851756037e+21
2.062187897e+21
2.30269204e+21
2.530770952e+21
2.751314026e+21
2.919214745e+21
3.044351241e+21
3.078144446e+21
3.010004751e+21
2.785562697e+21
1.000924652e+21
1.001216556e+21
1.002037251e+21
1.00333019e+21
1.002912201e+21
1.002322278e+21
1.002272609e+21
1.002882399e+21
1.00354033e+21
1.005167966e+21
1.004914268e+21
1.006494527e+21
1.010095192e+21
1.013155605e+21
1.01614266e+21
1.018612386e+21
1.024046243e+21
1.028188689e+21
1.036312347e+21
1.045743462e+21
1.059780861e+21
1.074956077e+21
1.095020312e+21
1.124144286e+21
1.159376095e+21
1.202849241e+21
1.267224892e+21
1.35120629e+21
1.456748124e+21
1.593465669e+21
1.762416507e+21
1.955953808e+21
2.166203026e+21
2.381368773e+21
2.587691799e+21
2.749380174e+21
2.852404904e+21
2.88446015e+21
2.834840962e+21
2.678537538e+21
1.000899782e+21
1.001475146e+21
1.00115881e+21
1.000698826e+21
1.001313158e+21
1.00207878e+21
1.003512986e+21
1.003430464e+21
1.004640026e+21
1.004377941e+21
1.005685307e+21
1.006105559e+21
1.006973571e+21
1.008775306e+21
1.011509236e+21
1.013981847e+21
1.018583989e+21
1.025220914e+21
1.031461275e+21
1.039432311e+21
1.049894294e+21
1.063074162e+21
1.08338227e+21
1.110610018e+21
1.144321873e+21
1.185897026e+21
1.243094093e+21
1.314394056e+21
1.409390121e+21
1.529720507e+21
1.674150438e+21
1.846111463e+21
2.038733607e+21
2.236639465e+21
2.425545816e+21
2.586443515e+21
2.696784128e+21
2.740835712e+21
2.704800245e+21
2.594792013e+21
9.9926002e+20
9.981429854e+20
9.991201996e+20
9.985922442e+20
9.994403347e+20
1.00010047e+21
1.000500066e+21
1.000712471e+21
1.001010448e+21
1.001163257e+21
1.001368022e+21
1.002632517e+21
1.003935979e+21
1.006265554e+21
1.008753286e+21
1.011526771e+21
1.014560032e+21
1.019517924e+21
1.025705164e+21
1.034649845e+21
1.04389174e+21
1.058476606e+21
1.074302281e+21
1.097767648e+21
1.125345872e+21
1.164583431e+21
1.213691694e+21
1.273818258e+21
1.355932525e+21
1.45940492e+21
1.585341019e+21
1.734847159e+21
1.905907023e+21
2.096066498e+21
2.279771317e+21
2.429065052e+21
2.551650811e+21
2.606844697e+21
2.600081366e+21
2.52439807e+21
1.000833478e+21
1.001757155e+21
1.001769379e+21
1.001144426e+21
1.000812086e+21
1.00027041e+21
9.999052181e+20
1.000647062e+21
1.001725067e+21
1.002566995e+21
1.005007976e+21
1.00673538e+21
1.008408541e+21
1.008483413e+21
1.008535365e+21
1.010921338e+21
1.013160623e+21
1.018790541e+21
1.025031659e+21
1.031908425e+21
1.040497316e+21
1.053428785e+21
1.068942574e+21
1.09003815e+21
1.114000254e+21
1.142654085e+21
1.188344357e+21
1.24178312e+21
1.312217069e+21
1.402137608e+21
1.511923683e+21
1.64841386e+21
1.801756354e+21
1.967739997e+21
2.131410247e+21
2.284793233e+21
2.401060322e+21
2.479474254e+21
2.491954962e+21
2.454742037e+21
1.000767915e+21
1.000399687e+21
1.000283566e+21
1.001800023e+21
1.003589214e+21
1.004517423e+21
1.004366923e+21
1.003926883e+21
1.00417517e+21
1.003641163e+21
1.002688507e+21
1.003484551e+21
1.00482759e+21
1.007871964e+21
1.011238729e+21
1.013959949e+21
1.015692606e+21
1.019702624e+21
1.023610271e+21
1.029249812e+21
1.037887889e+21
1.046726888e+21
1.06133148e+21
1.078122522e+21
1.10146909e+21
1.127180874e+21
1.163578907e+21
1.213477613e+21
1.273549189e+21
1.348756308e+21
1.446262609e+21
1.560882341e+21
1.690838539e+21
1.844747887e+21
1.996171315e+21
2.144009486e+21
2.268873901e+21
2.362914122e+21
2.400519974e+21
2.390158406e+21
1.000412205e+21
9.99582588e+20
9.994382073e+20
9.986651207e+20
9.978095308e+20
9.97001304e+20
9.975811189e+20
9.981983659e+20
1.000105873e+21
1.000833124e+21
1.001623781e+21
1.00288272e+21
1.004072907e+21
1.00531504e+21
1.007762638e+21
1.010955822e+21
1.013727322e+21
1.016467501e+21
1.024283162e+21
1.028075259e+21
1.03442343e+21
1.04325052e+21
1.054370896e+21
1.068980857e+21
1.087375276e+21
1.112649553e+21
1.146685224e+21
1.189422702e+21
1.244148369e+21
1.309933298e+21
1.385196178e+21
1.484433908e+21
1.603289855e+21
1.734456366e+21
1.87754766e+21
2.01763675e+21
2.142037225e+21
2.242268051e+21
2.300189957e+21
2.313541742e+21
1.000229653e+21
1.001157771e+21
1.000943884e+21
1.000246458e+21
9.999882658e+20
1.001195202e+21
1.001601587e+21
1.001166174e+21
1.00011889e+21
9.994413253e+20
1.000741455e+21
1.001130271e+21
1.003401297e+21
1.004266777e+21
1.00556767e+21
1.006463705e+21
1.008785147e+21
1.011680265e+21
1.015768569e+21
1.021042419e+21
1.030422907e+21
1.03666689e+21
1.047681324e+21
1.061826917e+21
1.0787561e+21
1.100707052e+21
1.12790512e+21
1.161926958e+21
1.207916556e+21
1.260775758e+21
1.331913925e+21
1.415386516e+21
1.520901727e+21
1.637127346e+21
1.764390316e+21
1.893225358e+21
2.015950097e+21
2.126937004e+21
2.199492174e+21
2.239236262e+21
1.000594928e+21
1.000541458e+21
1.002179152e+21
1.001085319e+21
1.001218993e+21
1.000969978e+21
1.00006558e+21
9.991947912e+20
1.000349732e+21
1.001451203e+21
1.003201183e+21
1.002460248e+21
1.003323399e+21
1.003771014e+21
1.006959323e+21
1.009319618e+21
1.010463101e+21
1.01199462e+21
1.015694708e+21
1.019721723e+21
1.023841928e+21
1.032643768e+21
1.040245599e+21
1.052390045e+21
1.067485242e+21
1.085024758e+21
1.109116576e+21
1.136751129e+21
1.176857055e+21
1.224891741e+21
1.280522147e+21
1.35111255e+21
1.439979582e+21
1.540565597e+21
1.659707047e+21
1.78081541e+21
1.898756852e+21
2.00382972e+21
2.091803048e+21
2.1589905e+21
9.999456412e+20
1.000470384e+21
9.982629499e+20
9.988801149e+20
9.994025665e+20
9.989053209e+20
1.001280032e+21
1.002565537e+21
1.001765056e+21
1.002749618e+21
1.00166576e+21
1.001981217e+21
1.003590581e+21
1.004599585e+21
1.006322759e+21
1.00718129e+21
1.009174856e+21
1.01208042e+21
1.01599346e+21
1.02010433e+21
1.027127637e+21
1.032770726e+21
1.040480706e+21
1.050302643e+21
1.063991792e+21
1.081117359e+21
1.100580972e+21
1.125826689e+21
1.156555857e+21
1.196305717e+21
1.244369737e+21
1.304775531e+21
1.380465325e+21
1.460693727e+21
1.565849334e+21
1.67790451e+21
1.784111131e+21
1.890490374e+21
1.983406559e+21
2.057369361e+21
1.000147579e+21
9.987429716e+20
9.987712318e+20
9.990423768e+20
9.993058839e+20
1.000595923e+21
1.000528709e+21
1.000907549e+21
1.003060669e+21
1.002747515e+21
1.002947628e+21
1.003202733e+21
1.002992691e+21
1.004456874e+21
1.006233447e+21
1.007074378e+21
1.009297766e+21
1.011922908e+21
1.013392437e+21
1.01686462e+21
1.018864983e+21
1.025261712e+21
1.032319883e+21
1.040784952e+21
1.051504725e+21
1.06572876e+21
1.081191661e+21
1.104175588e+21
1.132504507e+21
1.167301189e+21
1.21103878e+21
1.266290484e+21
1.327880106e+21
1.404778344e+21
1.48532749e+21
1.581882591e+21
1.684774847e+21
1.787511289e+21
1.881744472e+21
1.967399546e+21
9.99382654e+20
1.000376307e+21
1.001513547e+21
1.002402565e+21
1.002174964e+21
1.001255396e+21
1.001974858e+21
1.001903065e+21
1.001007173e+21
1.001174437e+21
1.001822106e+21
1.003929323e+21
1.004792372e+21
1.008195691e+21
1.009511651e+21
1.010807753e+21
1.010755817e+21
1.013095217e+21
1.015132167e+21
1.016712389e+21
1.021554633e+21
1.02788621e+21
1.033165326e+21
1.041137462e+21
1.051614734e+21
1.059828219e+21
1.074224348e+21
1.090937727e+21
1.114593693e+21
1.141677418e+21
1.176383477e+21
1.218609525e+21
1.273438392e+21
1.338110609e+21
1.410531181e+21
1.493948382e+21
1.587470903e+21
1.682165033e+21
1.777864273e+21
1.868544076e+21
1.00094169e+21
1.000797344e+21
1.001214344e+21
1.000682784e+21
1.000190939e+21
9.997052037e+20
1.000012225e+21
1.000197049e+21
1.001026465e+21
1.00241799e+21
1.004400645e+21
1.00385763e+21
1.004175344e+21
1.002870884e+21
1.00260205e+21
1.003189362e+21
1.00510099e+21
1.006552086e+21
1.009018186e+21
1.013408134e+21
1.017812593e+21
1.022481303e+21
1.02756014e+21
1.033456173e+21
1.041234048e+21
1.05385553e+21
1.064103324e+21
1.080297557e+21
1.097987183e+21
1.118989127e+21
1.149436179e+21
1.184112031e+21
1.232186847e+21
1.289621996e+21
1.349670646e+21
1.425025306e+21
1.503245499e+21
1.591142212e+21
1.677474032e+21
1.764493214e+21
9.989589785e+20
9.997463637e+20
9.995623096e+20
9.994699006e+20
1.000696419e+21
1.001486859e+21
1.001158464e+21
1.002071098e+21
1.002220021e+21
1.001567049e+21
1.002714906e+21
1.00229181e+21
1.002821061e+21
1.003900948e+21
1.005551325e+21
1.00847099e+21
1.009466868e+21
1.010097693e+21
1.01142273e+21
1.013255634e+21
1.013870421e+21
1.016237923e+21
1.019672328e+21
1.024645609e+21
1.032351446e+21
1.040910346e+21
1.052420987e+21
1.064437968e+21
1.081857435e+21
1.102760949e+21
1.126992711e+21
1.15607938e+21
1.194178594e+21
1.240474709e+21
1.293998579e+21
1.350277151e+21
1.423407754e+21
1.499891808e+21
1.585657997e+21
1.670487878e+21
9.993944981e+20
9.993471495e+20
9.98904211e+20
1.000290303e+21
1.000385764e+21
1.000584323e+21
1.00181004e+21
1.000558357e+21
1.000957765e+21
1.003351924e+21
1.002732574e+21
1.004105684e+21
1.004094228e+21
1.004643319e+21
1.004423377e+21
1.003564229e+21
1.00392469e+21
1.006605231e+21
1.007497982e+21
1.009599648e+21
1.01307137e+21
1.016888278e+21
1.021200819e+21
1.025668388e+21
1.032120016e+21
1.038592264e+21
1.048812688e+21
1.060148859e+21
1.07270922e+21
1.093150832e+21
1.113921593e+21
1.138864376e+21
1.168263273e+21
1.206314745e+21
1.251221836e+21
1.303731431e+21
1.357427032e+21
1.423256858e+21
1.498693866e+21
1.578457926e+21
1.000807611e+21
1.00109475e+21
1.000836631e+21
1.000035546e+21
9.994543968e+20
9.992077329e+20
9.990679822e+20
9.996017841e+20
9.996399674e+20
9.98489124e+20
9.990947105e+20
9.991565674e+20
9.988297187e+20
9.977582965e+20
9.987800804e+20
1.000603713e+21
1.00070528e+21
1.003210866e+21
1.005155921e+21
1.008549649e+21
1.012120547e+21
1.015209572e+21
1.0195701e+21
1.024629382e+21
1.029694009e+21
1.035468081e+21
1.042841268e+21
1.053082782e+21
1.063648089e+21
1.077553668e+21
1.095190514e+21
1.115958388e+21
1.140799651e+21
1.172851441e+21
1.207384379e+21
1.251718959e+21
1.303061694e+21
1.360299161e+21
1.426937345e+21
1.494239154e+21
9.994929067e+20
9.995937078e+20
1.000096186e+21
1.000403171e+21
9.999136748e+20
1.00045739e+21
9.993180321e+20
9.993271959e+20
9.994066149e+20
9.985284238e+20
9.975784502e+20
1.000249678e+21
1.002352755e+21
1.005363805e+21
1.006664291e+21
1.005644826e+21
1.006487126e+21
1.007760885e+21
1.009674577e+21
1.011930383e+21
1.012869666e+21
1.012639045e+21
1.015331655e+21
1.01887802e+21
1.023824144e+21
1.028059316e+21
1.036209693e+21
1.044111885e+21
1.054382902e+21
1.064592064e+21
1.079617531e+21
1.096082468e+21
1.117973098e+21
1.143627731e+21
1.174276599e+21
1.214891026e+21
1.259235092e+21
1.307813566e+21
1.365037258e+21
1.420274712e+21
1.000449934e+21
1.000601895e+21
1.000036049e+21
9.988753396e+20
9.996412552e+20
1.001258612e+21
1.00092949e+21
1.001057015e+21
1.002914151e+21
1.003728938e+21
1.005342477e+21
1.00396108e+21
1.004210785e+21
1.002932478e+21
1.003218837e+21
1.004392528e+21
1.005641055e+21
1.006838418e+21
1.006696384e+21
1.006668893e+21
1.00876657e+21
1.011677508e+21
1.013874456e+21
1.016337146e+21
1.019850583e+21
1.024093282e+21
1.02927753e+21
1.037441442e+21
1.04427512e+21
1.055065137e+21
1.067058626e+21
1.080515985e+21
1.096578831e+21
1.116714087e+21
1.146768828e+21
1.175653697e+21
1.208971406e+21
1.257205761e+21
1.306448864e+21
1.362013253e+21
1.001107353e+21
1.001625078e+21
1.00208935e+21
1.003948731e+21
1.004925383e+21
1.004418349e+21
1.004247301e+21
1.0038067e+21
1.001478465e+21
1.00156628e+21
1.001761763e+21
1.002031316e+21
1.00141814e+21
1.001037101e+21
1.000850781e+21
1.001377669e+21
1.000713332e+21
1.001513591e+21
1.002075605e+21
1.00511323e+21
1.00669924e+21
1.009313063e+21
1.013095967e+21
1.016923924e+21
1.021053506e+21
1.026129959e+21
1.030109873e+21
1.035914806e+21
1.045017754e+21
1.053551051e+21
1.065005141e+21
1.075642937e+21
1.088397448e+21
1.105708397e+21
1.126428846e+21
1.15227462e+21
1.181665816e+21
1.21373116e+21
1.253301224e+21
1.30193911e+21
9.993300999e+20
9.99945552e+20
9.997989431e+20
9.970935498e+20
9.95442672e+20
9.944652791e+20
9.964292281e+20
9.97267648e+20
9.985626937e+20
9.995103067e+20
9.993911869e+20
9.996202634e+20
9.995293964e+20
1.000757246e+21
1.00175602e+21
1.001989678e+21
1.003239672e+21
1.004426288e+21
1.006056549e+21
1.005912231e+21
1.007341668e+21
1.009602653e+21
1.009617924e+21
1.011285601e+21
1.012445492e+21
1.017240826e+21
1.021470341e+21
1.026863565e+21
1.032126216e+21
1.03997743e+21
1.049693327e+21
1.062237555e+21
1.075435415e+21
1.087926955e+21
1.106836455e+21
1.126753127e+21
1.152437945e+21
1.182067461e+21
1.215666108e+21
1.252871946e+21
1.000389949e+21
9.999287515e+20
1.000856491e+21
1.002172888e+21
1.002014828e+21
1.00269288e+21
1.001288672e+21
1.001727726e+21
1.002288187e+21
1.001359684e+21
1.001827753e+21
1.002476026e+21
1.002186632e+21
1.001092434e+21
1.001368084e+21
1.002590561e+21
1.004126867e+21
1.005659355e+21
1.005755565e+21
1.006376348e+21
1.006790967e+21
1.006491647e+21
1.009540588e+21
1.012406271e+21
1.014188446e+21
1.01634859e+21
1.018872957e+21
1.023501726e+21
1.029201786e+21
1.036025824e+21
1.044506047e+21
1.053988839e+21
1.06496136e+21
1.076863146e+21
1.092485816e+21
1.106950912e+21
1.128296549e+21
1.153363833e+21
1.182566619e+21
1.213496604e+21
9.99615968e+20
9.999549865e+20
9.99720575e+20
1.000023706e+21
1.001790573e+21
1.00134313e+21
1.001708873e+21
1.001214089e+21
1.001503476e+21
1.002123483e+21
1.002398363e+21
1.002049418e+21
1.002741963e+21
1.003483375e+21
1.003995721e+21
1.003254309e+21
1.002945832e+21
1.003195515e+21
1.004604274e+21
1.005615221e+21
1.007707363e+21
1.010216405e+21
1.010371407e+21
1.011661815e+21
1.014723672e+21
1.017758804e+21
1.019818112e+21
1.022480629e+21
1.026011309e+21
1.029997831e+21
1.03575351e+21
1.044842871e+21
1.055790726e+21
1.064887723e+21
1.077271826e+21
1.093994449e+21
1.108156108e+21
1.127399227e+21
1.15137257e+21
1.17832607e+21
1.000255536e+21
1.001736039e+21
1.001139715e+21
9.995477342e+20
9.975205359e+20
9.980916637e+20
9.968463302e+20
9.963599553e+20
9.962545868e+20
9.965538945e+20
9.968967239e+20
9.972525334e+20
9.971219681e+20
9.98039743e+20
9.989628627e+20
9.986368312e+20
9.983138538e+20
9.998630762e+20
1.001135134e+21
1.003090559e+21
1.003998408e+21
1.003843409e+21
1.005746914e+21
1.008169626e+21
1.010809184e+21
1.013320466e+21
1.016560166e+21
1.019979297e+21
1.023922981e+21
1.02748413e+21
1.033758137e+21
1.038098098e+21
1.043698663e+21