/*--------------------------------*- C++ -*----------------------------------*\
| =========                 |                                                 |
| \\      /  F ield         | OpenFOAM: The Open Source CFD Toolbox           |
|  \\    /   O peration     | Version:  v1706                                 |
|   \\  /    A nd           | Web:      www.OpenFOAM.com                      |
|    \\/     M anipulation  |                                                 |
\*---------------------------------------------------------------------------*/
FoamFile
{
    version     2.0;
    format      ascii;
    class       volScalarField;
    location    "0.004";
    object      rhoN_Ar;
}
// * * * * * * * * * * * * * * * * * * * * * * * * * * * * * * * * * * * * * //

dimensions      [0 -3 0 0 0 0 0];


internalField   nonuniform List<scalar> 
4000
(
9.990047963e+20
9.999572906e+20
1.000267405e+21
1.002117016e+21
1.003995423e+21
1.00640767e+21
1.007756668e+21
1.008580686e+21
1.010638517e+21
1.018002627e+21
1.023950178e+21
1.033264686e+21
1.04189805e+21
1.05217059e+21
1.061029895e+21
1.072209519e+21
1.086814801e+21
1.112424714e+21
1.147815414e+21
1.190790627e+21
1.241721382e+21
1.308791378e+21
1.401193291e+21
1.525440632e+21
1.679043625e+21
1.875964064e+21
2.132876137e+21
2.414416833e+21
2.720416696e+21
3.055426654e+21
3.359373117e+21
3.683162471e+21
3.998310709e+21
4.295700467e+21
4.626064247e+21
5.058652815e+21
5.608130151e+21
6.424149721e+21
7.654472183e+21
9.842759121e+21
1.000768641e+21
1.00071283e+21
1.000695594e+21
1.00073499e+21
1.001292278e+21
1.001752717e+21
1.004953632e+21
1.005526514e+21
1.006853663e+21
1.011611536e+21
1.011705922e+21
1.013664226e+21
1.020679155e+21
1.02702025e+21
1.036786325e+21
1.051095237e+21
1.06877496e+21
1.087475692e+21
1.117533108e+21
1.153986609e+21
1.200701916e+21
1.269431314e+21
1.349230953e+21
1.468932876e+21
1.609391503e+21
1.806055741e+21
2.046323011e+21
2.334640125e+21
2.65165878e+21
2.982992912e+21
3.320824082e+21
3.632635094e+21
3.944007005e+21
4.25128749e+21
4.595995704e+21
5.024377486e+21
5.583999259e+21
6.395622529e+21
7.623725101e+21
9.811141178e+21
1.000379221e+21
1.000464593e+21
9.996677884e+20
9.988053741e+20
1.000557079e+21
9.996693693e+20
1.001560199e+21
1.004780617e+21
1.007230316e+21
1.010579582e+21
1.014739881e+21
1.019381583e+21
1.022993288e+21
1.030638816e+21
1.038470898e+21
1.0501708e+21
1.064154401e+21
1.080966341e+21
1.107249029e+21
1.140120372e+21
1.186411704e+21
1.248821724e+21
1.334301129e+21
1.44120809e+21
1.58341475e+21
1.767580908e+21
2.008823715e+21
2.297247934e+21
2.610822082e+21
2.951746857e+21
3.28490437e+21
3.608560307e+21
3.921166117e+21
4.223637965e+21
4.587470076e+21
5.01077241e+21
5.577173067e+21
6.388376854e+21
7.578824752e+21
9.797791397e+21
9.993986993e+20
1.000097044e+21
1.002686773e+21
1.005422412e+21
1.00612856e+21
1.006751218e+21
1.007073471e+21
1.008471721e+21
1.011560045e+21
1.013915691e+21
1.017378545e+21
1.020248392e+21
1.024815334e+21
1.028101066e+21
1.034610109e+21
1.045664246e+21
1.05867687e+21
1.077399537e+21
1.101496728e+21
1.131922719e+21
1.179239295e+21
1.240350328e+21
1.317050449e+21
1.427579335e+21
1.571907335e+21
1.758285844e+21
1.991105461e+21
2.275304538e+21
2.596948168e+21
2.931010634e+21
3.263443108e+21
3.587293352e+21
3.902999099e+21
4.216907877e+21
4.579707821e+21
5.011284208e+21
5.573838893e+21
6.378859718e+21
7.583019394e+21
9.788843684e+21
1.001866104e+21
1.002692595e+21
1.001507906e+21
1.001413317e+21
1.003488073e+21
1.004092822e+21
1.006096249e+21
1.007264656e+21
1.007213485e+21
1.010100777e+21
1.011839044e+21
1.015455911e+21
1.020844385e+21
1.02646623e+21
1.032966512e+21
1.041601251e+21
1.055196486e+21
1.075321465e+21
1.101614891e+21
1.13360149e+21
1.178240536e+21
1.237617638e+21
1.318543983e+21
1.426505735e+21
1.558124048e+21
1.740468444e+21
1.975001951e+21
2.256518296e+21
2.578710252e+21
2.90790102e+21
3.249223995e+21
3.566215104e+21
3.876849365e+21
4.196837086e+21
4.562705139e+21
4.965301649e+21
5.54596589e+21
6.36379895e+21
7.589447199e+21
9.76810399e+21
1.000513858e+21
1.001629253e+21
1.00291999e+21
1.003127002e+21
1.004304965e+21
1.003130092e+21
1.003791296e+21
1.003947328e+21
1.006528802e+21
1.009372905e+21
1.012326693e+21
1.015142988e+21
1.018650611e+21
1.024888789e+21
1.03361575e+21
1.044266845e+21
1.058390031e+21
1.077133917e+21
1.101916694e+21
1.132334378e+21
1.173029298e+21
1.232387e+21
1.309772542e+21
1.418376782e+21
1.553996133e+21
1.736200988e+21
1.965243932e+21
2.244651898e+21
2.549143891e+21
2.886565524e+21
3.21132001e+21
3.529460914e+21
3.85056951e+21
4.165308614e+21
4.536518061e+21
4.952870876e+21
5.5206007e+21
6.316605667e+21
7.565480273e+21
9.754108297e+21
1.000667843e+21
1.001711949e+21
1.002020172e+21
1.002265209e+21
1.002873179e+21
1.005315847e+21
1.005777411e+21
1.007631373e+21
1.007639079e+21
1.009113926e+21
1.011492638e+21
1.015126588e+21
1.018672695e+21
1.02423381e+21
1.033709358e+21
1.04361796e+21
1.056838419e+21
1.07489721e+21
1.098945546e+21
1.132006326e+21
1.175241549e+21
1.231221027e+21
1.306768048e+21
1.416235791e+21
1.547882497e+21
1.722680435e+21
1.946890388e+21
2.222049618e+21
2.523230583e+21
2.866138019e+21
3.193915554e+21
3.516461773e+21
3.826810834e+21
4.142327254e+21
4.50852711e+21
4.933307846e+21
5.489825443e+21
6.294313911e+21
7.520698148e+21
9.715740491e+21
1.000061384e+21
1.000226003e+21
1.001766031e+21
1.00065678e+21
1.000625241e+21
1.000439084e+21
1.001989881e+21
1.002730664e+21
1.006426116e+21
1.008927701e+21
1.012906235e+21
1.01644553e+21
1.021701011e+21
1.028955759e+21
1.035743576e+21
1.043712953e+21
1.054610844e+21
1.074042739e+21
1.097044698e+21
1.1265337e+21
1.171084515e+21
1.222987004e+21
1.300916892e+21
1.396040172e+21
1.527680274e+21
1.701861155e+21
1.925862178e+21
2.185003845e+21
2.492361011e+21
2.830054885e+21
3.158525513e+21
3.47688211e+21
3.795280247e+21
4.119505413e+21
4.479838163e+21
4.90988142e+21
5.461084588e+21
6.259716131e+21
7.461304281e+21
9.63248095e+21
1.001183172e+21
1.002304856e+21
1.002559156e+21
1.003776106e+21
1.005503961e+21
1.006389785e+21
1.0081622e+21
1.008480266e+21
1.007611345e+21
1.009315383e+21
1.01176465e+21
1.015143532e+21
1.018669155e+21
1.02453495e+21
1.032182378e+21
1.043889382e+21
1.058604959e+21
1.074873991e+21
1.095884061e+21
1.126736526e+21
1.166075379e+21
1.218488e+21
1.287182715e+21
1.379407448e+21
1.509764838e+21
1.677955258e+21
1.886540143e+21
2.147133536e+21
2.456063073e+21
2.783053264e+21
3.110707247e+21
3.44310073e+21
3.760210111e+21
4.087681244e+21
4.439586656e+21
4.872360132e+21
5.423028008e+21
6.216416083e+21
7.408141924e+21
9.569891159e+21
9.997748157e+20
9.989458781e+20
9.997986093e+20
1.000318998e+21
1.002205599e+21
1.003082124e+21
1.004950303e+21
1.007160036e+21
1.011347707e+21
1.013473011e+21
1.016913102e+21
1.020454508e+21
1.024982964e+21
1.030080163e+21
1.03512517e+21
1.043101392e+21
1.054330427e+21
1.0694524e+21
1.089387583e+21
1.11765973e+21
1.154545154e+21
1.208613381e+21
1.276811925e+21
1.366156823e+21
1.493507745e+21
1.654551914e+21
1.855827958e+21
2.121511691e+21
2.416390917e+21
2.744097609e+21
3.074879813e+21
3.399282268e+21
3.723983293e+21
4.044324721e+21
4.400684257e+21
4.814908249e+21
5.378717113e+21
6.169370143e+21
7.363686651e+21
9.53076689e+21
1.000598499e+21
1.000880736e+21
1.001775764e+21
1.002245904e+21
1.002392391e+21
1.003893309e+21
1.004091949e+21
1.005532278e+21
1.006636684e+21
1.008600071e+21
1.011416306e+21
1.01327002e+21
1.017231309e+21
1.022520952e+21
1.029918937e+21
1.038682857e+21
1.053805546e+21
1.068050079e+21
1.088786063e+21
1.116846406e+21
1.153377693e+21
1.200539653e+21
1.268232055e+21
1.356113607e+21
1.47235001e+21
1.6334644e+21
1.828454135e+21
2.071226291e+21
2.360034526e+21
2.6853311e+21
3.025939799e+21
3.344751057e+21
3.673422971e+21
3.980022875e+21
4.357024044e+21
4.780747711e+21
5.336806028e+21
6.111576562e+21
7.307387977e+21
9.46374094e+21
1.001928916e+21
1.003087058e+21
1.003962371e+21
1.004078875e+21
1.006450344e+21
1.00581877e+21
1.00646414e+21
1.004881372e+21
1.006322343e+21
1.007052792e+21
1.008246958e+21
1.010065033e+21
1.016423698e+21
1.022547056e+21
1.030619556e+21
1.040057145e+21
1.051755831e+21
1.066108816e+21
1.083462545e+21
1.108837419e+21
1.147575761e+21
1.188687105e+21
1.252886167e+21
1.338946589e+21
1.448074033e+21
1.596257139e+21
1.785743208e+21
2.030376286e+21
2.314302632e+21
2.624449273e+21
2.95964887e+21
3.290679618e+21
3.616963594e+21
3.935700871e+21
4.300093915e+21
4.721629098e+21
5.268215214e+21
6.029526607e+21
7.233793055e+21
9.386622693e+21
1.000338451e+21
1.000478644e+21
1.001399474e+21
1.001371129e+21
1.000875474e+21
1.000722258e+21
1.004125958e+21
1.00580291e+21
1.0079104e+21
1.010450727e+21
1.014294923e+21
1.016148074e+21
1.018594173e+21
1.022534896e+21
1.028488115e+21
1.036447701e+21
1.046398333e+21
1.06062753e+21
1.080149584e+21
1.102598836e+21
1.134541368e+21
1.180473315e+21
1.241035885e+21
1.318155774e+21
1.429717919e+21
1.576306841e+21
1.748783954e+21
1.986544232e+21
2.260274332e+21
2.570201781e+21
2.894264966e+21
3.234146201e+21
3.560509162e+21
3.883227107e+21
4.237214966e+21
4.65565096e+21
5.19620034e+21
5.949190238e+21
7.123534901e+21
9.280873165e+21
1.000172021e+21
9.99816712e+20
1.001045744e+21
1.002372793e+21
1.004535278e+21
1.004640951e+21
1.004609556e+21
1.005265039e+21
1.004154699e+21
1.005609628e+21
1.00905245e+21
1.01147529e+21
1.016072101e+21
1.020362611e+21
1.025738192e+21
1.03585914e+21
1.044731912e+21
1.055221952e+21
1.073199518e+21
1.096427848e+21
1.127835943e+21
1.172295521e+21
1.226489341e+21
1.301247438e+21
1.405104122e+21
1.536457439e+21
1.710989995e+21
1.931989165e+21
2.19658491e+21
2.507355516e+21
2.828034957e+21
3.163046218e+21
3.48238253e+21
3.811654477e+21
4.16993695e+21
4.577141038e+21
5.092780243e+21
5.844533036e+21
7.013396455e+21
9.146747836e+21
1.000807277e+21
1.002087912e+21
1.002308368e+21
1.002260143e+21
1.001028498e+21
1.001774068e+21
1.001779426e+21
1.003499442e+21
1.006658545e+21
1.00812519e+21
1.009777079e+21
1.010904619e+21
1.013620514e+21
1.018512646e+21
1.024402954e+21
1.030538212e+21
1.041275489e+21
1.054407928e+21
1.071774193e+21
1.094223958e+21
1.122336685e+21
1.160103546e+21
1.215653855e+21
1.284782872e+21
1.381889894e+21
1.507543666e+21
1.671086774e+21
1.882282816e+21
2.125201551e+21
2.419951931e+21
2.755309074e+21
3.079149689e+21
3.390095162e+21
3.733333605e+21
4.08070177e+21
4.466441519e+21
5.001869332e+21
5.725588731e+21
6.882706936e+21
8.985527614e+21
1.001165133e+21
1.0015202e+21
1.000598862e+21
1.000911842e+21
1.001101619e+21
1.001840066e+21
1.003320788e+21
1.004014087e+21
1.003440929e+21
1.00307974e+21
1.005000469e+21
1.008393502e+21
1.01092412e+21
1.016486582e+21
1.022596185e+21
1.028085185e+21
1.037606951e+21
1.050986245e+21
1.066688014e+21
1.088063204e+21
1.117864349e+21
1.15574327e+21
1.205803134e+21
1.269445077e+21
1.352389966e+21
1.474406771e+21
1.631112249e+21
1.824612317e+21
2.069463192e+21
2.353582647e+21
2.668700069e+21
2.998662966e+21
3.317611898e+21
3.641530238e+21
3.972347133e+21
4.370924444e+21
4.86875524e+21
5.566816308e+21
6.693300216e+21
8.751612465e+21
1.00112599e+21
1.002572644e+21
1.002870237e+21
1.002738653e+21
1.00372247e+21
1.004774373e+21
1.003912195e+21
1.004166947e+21
1.006290644e+21
1.006888126e+21
1.008776197e+21
1.012636491e+21
1.016193072e+21
1.017706283e+21
1.021450295e+21
1.028287285e+21
1.036884588e+21
1.047807553e+21
1.062831795e+21
1.080508363e+21
1.107582446e+21
1.141172976e+21
1.1853162e+21
1.252347315e+21
1.337315105e+21
1.446179082e+21
1.586212297e+21
1.769596941e+21
2.008727114e+21
2.289085018e+21
2.574088893e+21
2.900069572e+21
3.219538395e+21
3.539030168e+21
3.862623217e+21
4.238595704e+21
4.712049425e+21
5.383567007e+21
6.473094964e+21
8.495577915e+21
9.99766496e+20
9.988815804e+20
9.975951257e+20
1.000037248e+21
1.001340529e+21
1.001956987e+21
1.003150132e+21
1.004009808e+21
1.004500833e+21
1.006436634e+21
1.008770914e+21
1.011065423e+21
1.012280748e+21
1.016785634e+21
1.02250508e+21
1.030164915e+21
1.037919591e+21
1.047054796e+21
1.060682649e+21
1.079903751e+21
1.103161658e+21
1.133186072e+21
1.177356899e+21
1.233775815e+21
1.310502664e+21
1.413755567e+21
1.549397757e+21
1.721014789e+21
1.938042447e+21
2.193421292e+21
2.480965329e+21
2.795732184e+21
3.110970944e+21
3.413306149e+21
3.739414763e+21
4.094721002e+21
4.531044058e+21
5.153971112e+21
6.167645391e+21
8.153034265e+21
1.000071649e+21
1.000095354e+21
1.001354006e+21
1.000619919e+21
1.000171056e+21
1.002156148e+21
1.001334889e+21
1.001702697e+21
1.003362037e+21
1.004252881e+21
1.005813579e+21
1.007408687e+21
1.010638667e+21
1.014762549e+21
1.018921606e+21
1.024844e+21
1.032182568e+21
1.043373559e+21
1.057617126e+21
1.072410492e+21
1.093755578e+21
1.124714135e+21
1.162326878e+21
1.21532255e+21
1.283130705e+21
1.376757284e+21
1.500318523e+21
1.659826281e+21
1.865933985e+21
2.105324852e+21
2.37605279e+21
2.678931409e+21
2.987796654e+21
3.288126618e+21
3.605196806e+21
3.928513609e+21
4.318082458e+21
4.859072646e+21
5.748974777e+21
7.594586044e+21
1.000128422e+21
1.001169708e+21
1.002155185e+21
1.004139899e+21
1.004668952e+21
1.004207942e+21
1.00315901e+21
1.003598613e+21
1.004935772e+21
1.006846327e+21
1.008139143e+21
1.009191133e+21
1.01074236e+21
1.012811937e+21
1.016094054e+21
1.020189629e+21
1.028074968e+21
1.037704195e+21
1.048473333e+21
1.064381626e+21
1.086867916e+21
1.11515009e+21
1.149340535e+21
1.195866635e+21
1.25673451e+21
1.340607789e+21
1.454046885e+21
1.598616786e+21
1.786254063e+21
2.014246936e+21
2.276148908e+21
2.569268077e+21
2.856855122e+21
3.157423849e+21
3.445580467e+21
3.729328055e+21
4.060046697e+21
4.485698277e+21
5.099462669e+21
6.500806835e+21
1.000917371e+21
1.000836342e+21
9.994550382e+20
9.990086178e+20
9.987739413e+20
9.986776246e+20
1.000133842e+21
1.002756562e+21
1.00352098e+21
1.003459062e+21
1.004614099e+21
1.006014513e+21
1.009593521e+21
1.012671834e+21
1.017746044e+21
1.023632067e+21
1.029959159e+21
1.035061653e+21
1.045603748e+21
1.061773493e+21
1.080948167e+21
1.104022904e+21
1.135679768e+21
1.177975809e+21
1.236034159e+21
1.312067811e+21
1.415693914e+21
1.544695653e+21
1.718324146e+21
1.926604494e+21
2.166832949e+21
2.438093738e+21
2.728893829e+21
3.010239592e+21
3.26302515e+21
3.516997086e+21
3.788127924e+21
4.045098673e+21
4.268580248e+21
4.012837919e+21
9.994396048e+20
9.995741288e+20
9.999035596e+20
9.992385832e+20
1.000059485e+21
1.001665365e+21
1.002897482e+21
1.003074809e+21
1.003334685e+21
1.004562216e+21
1.004978017e+21
1.007170146e+21
1.010279484e+21
1.014025517e+21
1.016835234e+21
1.020367252e+21
1.025724515e+21
1.033860157e+21
1.044855198e+21
1.055711892e+21
1.072200249e+21
1.096828833e+21
1.12264291e+21
1.165111969e+21
1.217455546e+21
1.286033718e+21
1.378432566e+21
1.493501758e+21
1.645201975e+21
1.83315487e+21
2.062116169e+21
2.313921317e+21
2.593848087e+21
2.849465002e+21
3.099405158e+21
3.310089544e+21
3.499145382e+21
3.632697095e+21
3.615457392e+21
3.210750483e+21
1.000563529e+21
1.001586122e+21
1.003122306e+21
1.00380862e+21
1.003803271e+21
1.003265224e+21
1.004410865e+21
1.003703151e+21
1.003475399e+21
1.006467517e+21
1.007898231e+21
1.009059921e+21
1.009740122e+21
1.011735632e+21
1.015156505e+21
1.01782763e+21
1.023767538e+21
1.030861495e+21
1.039323496e+21
1.051340117e+21
1.070328412e+21
1.090535718e+21
1.117550379e+21
1.153057611e+21
1.197225554e+21
1.258127195e+21
1.342581352e+21
1.443955689e+21
1.582214474e+21
1.753556225e+21
1.958876669e+21
2.200205706e+21
2.444688122e+21
2.696541925e+21
2.915880614e+21
3.110197858e+21
3.259125856e+21
3.318656395e+21
3.237068251e+21
2.92616387e+21
1.001600169e+21
1.001947883e+21
1.00125704e+21
1.000600587e+21
1.000984218e+21
1.001261625e+21
1.002223761e+21
1.003821716e+21
1.004912239e+21
1.003767458e+21
1.004393343e+21
1.00580636e+21
1.00706348e+21
1.008798992e+21
1.01345683e+21
1.019100494e+21
1.025228665e+21
1.033586025e+21
1.041916639e+21
1.053025142e+21
1.065463364e+21
1.081907557e+21
1.10708357e+21
1.137484463e+21
1.179868111e+21
1.236278767e+21
1.309851968e+21
1.400114673e+21
1.518888387e+21
1.66415255e+21
1.853519061e+21
2.066797589e+21
2.301847592e+21
2.541067104e+21
2.741464934e+21
2.915370787e+21
3.042631013e+21
3.083704047e+21
3.003726032e+21
2.784305578e+21
1.000927708e+21
9.99590449e+20
1.00180495e+21
1.003337831e+21
1.003691632e+21
1.003515877e+21
1.0019616e+21
1.001720894e+21
1.002375769e+21
1.002881635e+21
1.004789712e+21
1.006247707e+21
1.008696801e+21
1.01214158e+21
1.013008124e+21
1.015280701e+21
1.020266002e+21
1.024908202e+21
1.033308481e+21
1.042988708e+21
1.057398248e+21
1.071869683e+21
1.094146891e+21
1.121789946e+21
1.155656223e+21
1.205791975e+21
1.269731298e+21
1.354601399e+21
1.465516722e+21
1.597532465e+21
1.757020094e+21
1.951022761e+21
2.171834033e+21
2.39372199e+21
2.58565458e+21
2.749658324e+21
2.852462215e+21
2.901153728e+21
2.844618236e+21
2.678365604e+21
1.001035027e+21
1.002154426e+21
1.000193759e+21
9.997574609e+20
1.002709158e+21
1.003546606e+21
1.004734773e+21
1.004653779e+21
1.006044432e+21
1.007863741e+21
1.008530031e+21
1.009799193e+21
1.009508072e+21
1.011156225e+21
1.014467811e+21
1.01736755e+21
1.018136993e+21
1.024647079e+21
1.032716683e+21
1.040557822e+21
1.050343582e+21
1.065855467e+21
1.083107196e+21
1.10720674e+21
1.139899293e+21
1.182612947e+21
1.238859481e+21
1.307642516e+21
1.402933521e+21
1.522917773e+21
1.66948182e+21
1.841006547e+21
2.040754637e+21
2.23663106e+21
2.429265429e+21
2.593538898e+21
2.698931998e+21
2.74826424e+21
2.710983299e+21
2.599359006e+21
1.000118043e+21
1.000450403e+21
1.000898898e+21
1.001326763e+21
1.000293774e+21
1.00009665e+21
1.000612381e+21
1.001552157e+21
1.002749416e+21
1.003171169e+21
1.003379754e+21
1.004609103e+21
1.006696475e+21
1.008469061e+21
1.010272972e+21
1.014045829e+21
1.018573563e+21
1.021197296e+21
1.025959591e+21
1.035604138e+21
1.046972372e+21
1.060427214e+21
1.079946286e+21
1.101522168e+21
1.129670369e+21
1.166736511e+21
1.210936546e+21
1.276111923e+21
1.352477511e+21
1.45231305e+21
1.585486188e+21
1.739187702e+21
1.907705587e+21
2.090430898e+21
2.277592259e+21
2.434804562e+21
2.540881589e+21
2.607150315e+21
2.607059394e+21
2.532914122e+21
9.994368859e+20
9.982060815e+20
9.975582092e+20
9.983535335e+20
9.983130415e+20
9.992710978e+20
9.991748338e+20
9.985231416e+20
9.993803499e+20
1.000605806e+21
1.002686179e+21
1.0041225e+21
1.005080556e+21
1.006458048e+21
1.01023603e+21
1.013510535e+21
1.019052593e+21
1.023587698e+21
1.032518098e+21
1.038468132e+21
1.046448879e+21
1.058117455e+21
1.073373012e+21
1.090420914e+21
1.114485395e+21
1.146758294e+21
1.187911169e+21
1.240260467e+21
1.310331516e+21
1.401804504e+21
1.510685239e+21
1.64362969e+21
1.806382376e+21
1.965931608e+21
2.135639752e+21
2.28839473e+21
2.404081179e+21
2.47477336e+21
2.505960615e+21
2.457505426e+21
1.000675476e+21
1.001754186e+21
1.002606763e+21
1.001721335e+21
1.001845861e+21
1.000999395e+21
1.000623527e+21
1.001688485e+21
1.003492955e+21
1.004070507e+21
1.002670936e+21
1.003986472e+21
1.004256149e+21
1.006244733e+21
1.007551866e+21
1.009877355e+21
1.011804058e+21
1.013510741e+21
1.019316825e+21
1.026280306e+21
1.034861086e+21
1.046360188e+21
1.05869124e+21
1.076554115e+21
1.098462914e+21
1.126708747e+21
1.164889859e+21
1.211562369e+21
1.271421565e+21
1.345868545e+21
1.43977049e+21
1.549186902e+21
1.689552033e+21
1.837261859e+21
1.999828384e+21
2.147439659e+21
2.269577506e+21
2.35219273e+21
2.39728079e+21
2.395860592e+21
1.000860625e+21
1.001040146e+21
1.002149358e+21
1.002554999e+21
1.002281516e+21
1.002599306e+21
1.001697117e+21
1.001927057e+21
1.000755968e+21
1.000534432e+21
1.001858304e+21
1.003552678e+21
1.005254691e+21
1.007077403e+21
1.008154529e+21
1.009347771e+21
1.011489802e+21
1.015332317e+21
1.018721064e+21
1.024862977e+21
1.031661861e+21
1.040756323e+21
1.052241089e+21
1.069395666e+21
1.087965021e+21
1.114243089e+21
1.146219233e+21
1.187354007e+21
1.23828605e+21
1.304400993e+21
1.383941822e+21
1.483317821e+21
1.595496348e+21
1.730871291e+21
1.880939462e+21
2.021617535e+21
2.145216658e+21
2.236100164e+21
2.30092332e+21
2.318887651e+21
9.991777855e+20
9.990907028e+20
9.991227859e+20
9.99659796e+20
1.000529859e+21
1.001810892e+21
1.003280603e+21
1.002705399e+21
1.004364554e+21
1.004101014e+21
1.004170527e+21
1.004425664e+21
1.004768648e+21
1.00709009e+21
1.00858119e+21
1.010234997e+21
1.013061366e+21
1.01632544e+21
1.019772845e+21
1.024013926e+21
1.032712266e+21
1.041043942e+21
1.050256375e+21
1.063671695e+21
1.080087549e+21
1.099315257e+21
1.123512791e+21
1.15773553e+21
1.205012272e+21
1.259167019e+21
1.326558338e+21
1.412139248e+21
1.512657897e+21
1.62698985e+21
1.764982325e+21
1.898851359e+21
2.015032673e+21
2.121159754e+21
2.199555577e+21
2.233361999e+21
1.000740823e+21
9.998555211e+20
9.996844188e+20
1.000134326e+21
1.001070042e+21
1.000934841e+21
1.000574304e+21
1.002018743e+21
1.001946941e+21
1.00256566e+21
1.003968088e+21
1.004851862e+21
1.007195352e+21
1.007299236e+21
1.009429613e+21
1.010473795e+21
1.012385711e+21
1.014892665e+21
1.017835778e+21
1.022932947e+21
1.028546478e+21
1.032810287e+21
1.041243187e+21
1.051089973e+21
1.06687569e+21
1.082824871e+21
1.107112234e+21
1.13691001e+21
1.178725431e+21
1.222472629e+21
1.281816873e+21
1.356302908e+21
1.441458395e+21
1.539154003e+21
1.656569153e+21
1.776918249e+21
1.900812372e+21
2.006204528e+21
2.098017729e+21
2.153774171e+21
9.999624452e+20
1.000181661e+21
1.000042646e+21
9.988785873e+20
9.973265088e+20
9.986334017e+20
1.000691892e+21
1.001535147e+21
1.00200795e+21
1.002385276e+21
1.001592433e+21
1.00197587e+21
1.001690202e+21
1.003056672e+21
1.003609677e+21
1.00665502e+21
1.008993831e+21
1.012528017e+21
1.015865139e+21
1.018907427e+21
1.021520448e+21
1.029748297e+21
1.036598982e+21
1.047358125e+21
1.06063252e+21
1.076383214e+21
1.097120876e+21
1.123700984e+21
1.156467254e+21
1.193837057e+21
1.245768288e+21
1.306006805e+21
1.377403942e+21
1.465212475e+21
1.559952658e+21
1.669397104e+21
1.784292919e+21
1.889398114e+21
1.984637834e+21
2.059760876e+21
9.995434221e+20
9.992936632e+20
9.996541715e+20
1.000278187e+21
9.999230251e+20
1.000118555e+21
9.985298746e+20
9.984321097e+20
9.989171155e+20
1.000298045e+21
1.003121772e+21
1.004725728e+21
1.006815453e+21
1.007858789e+21
1.009557455e+21
1.009739236e+21
1.009652164e+21
1.010095926e+21
1.012723358e+21
1.017451974e+21
1.021823136e+21
1.028073982e+21
1.035818035e+21
1.043924123e+21
1.054139796e+21
1.067541231e+21
1.085247378e+21
1.105435075e+21
1.132487704e+21
1.165564333e+21
1.209259916e+21
1.258168356e+21
1.318135691e+21
1.394757437e+21
1.48087613e+21
1.577413664e+21
1.67588893e+21
1.77991923e+21
1.879029968e+21
1.958887122e+21
1.000504619e+21
1.000662717e+21
1.000518366e+21
1.001088132e+21
1.00329922e+21
1.003071619e+21
1.005103987e+21
1.00393696e+21
1.004034722e+21
1.00398355e+21
1.004451735e+21
1.004565535e+21
1.004395217e+21
1.005039831e+21
1.005483576e+21
1.007841306e+21
1.010169249e+21
1.013023424e+21
1.014881654e+21
1.018646231e+21
1.023800853e+21
1.024744098e+21
1.032096061e+21
1.039990293e+21
1.050951789e+21
1.061271727e+21
1.074606992e+21
1.095224717e+21
1.117026272e+21
1.1425672e+21
1.177916345e+21
1.222995804e+21
1.274747478e+21
1.337892174e+21
1.411833393e+21
1.493598579e+21
1.59014483e+21
1.684035484e+21
1.776699538e+21
1.868188927e+21
1.000672092e+21
1.001166992e+21
1.003231367e+21
1.003537625e+21
1.001588574e+21
1.001263986e+21
1.000202395e+21
1.001693205e+21
1.00166953e+21
1.001736738e+21
1.000632378e+21
1.001674876e+21
1.002409589e+21
1.003195472e+21
1.005076551e+21
1.006062532e+21
1.00851794e+21
1.008147528e+21
1.011392638e+21
1.01326837e+21
1.017201605e+21
1.022639397e+21
1.029238065e+21
1.035541169e+21
1.043044864e+21
1.051556688e+21
1.063897115e+21
1.080791693e+21
1.099521526e+21
1.123772398e+21
1.152313932e+21
1.18901139e+21
1.232322028e+21
1.288314482e+21
1.351737313e+21
1.419973964e+21
1.502874324e+21
1.587558768e+21
1.674774993e+21
1.759234136e+21
9.998655025e+20
1.000225974e+21
9.992392601e+20
9.983403732e+20
9.991117205e+20
9.987695783e+20
1.000681909e+21
9.995210692e+20
1.000578808e+21
1.002070334e+21
1.004943412e+21
1.005106082e+21
1.004569194e+21
1.005077061e+21
1.006055374e+21
1.006916839e+21
1.007058889e+21
1.009077376e+21
1.010192393e+21
1.011715231e+21
1.014243876e+21
1.016975667e+21
1.020749923e+21
1.027024567e+21
1.033880394e+21
1.042775327e+21
1.050336058e+21
1.062912075e+21
1.081377825e+21
1.101861298e+21
1.128203192e+21
1.156397847e+21
1.194530664e+21
1.237833035e+21
1.292346673e+21
1.35423317e+21
1.422914397e+21
1.505204177e+21
1.588309599e+21
1.665769676e+21
9.994762126e+20
9.990401473e+20
9.979633485e+20
9.989729428e+20
1.000207061e+21
1.000704985e+21
1.000221571e+21
1.000843976e+21
1.000654582e+21
9.999833008e+20
9.985956814e+20
9.983597021e+20
1.000168113e+21
1.002427863e+21
1.004214127e+21
1.004102629e+21
1.005019817e+21
1.006326486e+21
1.006771715e+21
1.009516406e+21
1.011176662e+21
1.013595259e+21
1.014780501e+21
1.020657837e+21
1.028193137e+21
1.03468906e+21
1.044190854e+21
1.056854313e+21
1.068069821e+21
1.086301323e+21
1.107205729e+21
1.131911005e+21
1.15980773e+21
1.19968365e+21
1.242201928e+21
1.297964066e+21
1.352077405e+21
1.424631494e+21
1.499861544e+21
1.579860055e+21
1.001096277e+21
1.001184862e+21
1.002287594e+21
9.98815209e+20
9.993826122e+20
9.979667771e+20
9.978904105e+20
9.987502975e+20
9.973672999e+20
9.987174599e+20
9.999683434e+20
9.990901285e+20
9.984326128e+20
9.989580144e+20
9.985158523e+20
1.000028673e+21
1.001300175e+21
1.001635424e+21
1.002066132e+21
1.00437851e+21
1.007606522e+21
1.011055998e+21
1.015178262e+21
1.020437624e+21
1.025051689e+21
1.031422947e+21
1.038805298e+21
1.049461482e+21
1.059751106e+21
1.074498243e+21
1.092338225e+21
1.113867473e+21
1.138950054e+21
1.170881185e+21
1.205693625e+21
1.245721897e+21
1.300408722e+21
1.358558004e+21
1.42606753e+21
1.492824083e+21
1.000419971e+21
1.000175605e+21
1.000877394e+21
1.003726551e+21
1.001716639e+21
1.001823549e+21
1.002121371e+21
1.000299315e+21
1.001123287e+21
1.002293191e+21
1.000798739e+21
1.001664711e+21
1.002161844e+21
1.001961769e+21
1.002086243e+21
1.003072108e+21
1.00256123e+21
1.004157247e+21
1.004469577e+21
1.00550737e+21
1.006647491e+21
1.009564613e+21
1.012023548e+21
1.014321353e+21
1.018642817e+21
1.025802747e+21
1.032224233e+21
1.03816615e+21
1.049145829e+21
1.058673056e+21
1.071903959e+21
1.090977505e+21
1.111847142e+21
1.137646104e+21
1.172354506e+21
1.21495899e+21
1.257052596e+21
1.302303872e+21
1.357644417e+21
1.420038746e+21
1.000511787e+21
1.000200228e+21
1.000176556e+21
9.97940663e+20
9.984958181e+20
1.000189538e+21
9.995832197e+20
1.000296445e+21
9.998825606e+20
9.981598233e+20
9.997367083e+20
9.989303206e+20
9.993174783e+20
1.000058958e+21
1.001014252e+21
1.000345317e+21
1.001570935e+21
1.002586556e+21
1.004460491e+21
1.00797851e+21
1.009268272e+21
1.011607254e+21
1.014014963e+21
1.017539855e+21
1.020895985e+21
1.025898491e+21
1.030558893e+21
1.037294062e+21
1.045293031e+21
1.05593796e+21
1.070121525e+21
1.084205056e+21
1.101427084e+21
1.123750889e+21
1.146991043e+21
1.176421139e+21
1.210561273e+21
1.258061021e+21
1.304861289e+21
1.358160003e+21
1.000319311e+21
1.000285713e+21
1.000405599e+21
1.001939683e+21
1.001629659e+21
1.001493737e+21
1.002210764e+21
1.001967937e+21
1.002019098e+21
1.003324865e+21
1.002518497e+21
1.002908699e+21
1.003233996e+21
1.002133639e+21
1.002492534e+21
1.003511948e+21
1.004635976e+21
1.006810726e+21
1.007965299e+21
1.007642293e+21
1.008970204e+21
1.010827294e+21
1.011431306e+21
1.013415918e+21
1.015861748e+21
1.019942459e+21
1.024782958e+21
1.031256046e+21
1.03892265e+21
1.045585877e+21
1.057817318e+21
1.069565397e+21
1.083498916e+21
1.10123672e+21
1.122676486e+21
1.15076268e+21
1.179078718e+21
1.211499139e+21
1.251944296e+21
1.299508552e+21
9.989108899e+20
9.982137338e+20
9.972882649e+20
9.983343808e+20
9.996569156e+20
1.00012805e+21
1.000101324e+21
1.000662561e+21
1.000692341e+21
1.00037927e+21
1.001213872e+21
1.002699815e+21
1.002328711e+21
1.003002196e+21
1.003937591e+21
1.004291896e+21
1.005125735e+21
1.00585038e+21
1.004780593e+21
1.005318159e+21
1.006468887e+21
1.00790596e+21
1.01198123e+21
1.014992059e+21
1.018442714e+21
1.02165513e+21
1.026015982e+21
1.030793754e+21
1.037582817e+21
1.045576823e+21
1.052294109e+21
1.062523137e+21
1.075582787e+21
1.088139996e+21
1.103481248e+21
1.120752087e+21
1.148314569e+21
1.179259747e+21
1.214861286e+21
1.253456854e+21
1.000529682e+21
1.000415146e+21
1.00122835e+21
9.996653194e+20
9.99318658e+20
9.988246274e+20
9.990834781e+20
1.000050159e+21
9.99944023e+20
1.000716757e+21
1.001291726e+21
1.002440138e+21
1.0024577e+21
1.002857048e+21
1.002160671e+21
1.002855521e+21
1.002993727e+21
1.003848163e+21
1.004992757e+21
1.006940627e+21
1.008563216e+21
1.011251751e+21
1.013179769e+21
1.014679423e+21
1.01872406e+21
1.021634031e+21
1.025446542e+21
1.030606758e+21
1.034455157e+21
1.041005836e+21
1.048188752e+21
1.056646831e+21
1.065780672e+21
1.077488511e+21
1.091862742e+21
1.108972849e+21
1.129620582e+21
1.151756515e+21
1.179216068e+21
1.212087051e+21
1.000874307e+21
1.001783701e+21
1.000487948e+21
1.001747051e+21
1.00206469e+21
1.002118138e+21
1.001909688e+21
1.000438317e+21
1.000162673e+21
1.000684945e+21
1.000328365e+21
1.000168018e+21
1.001128571e+21
1.001119408e+21
1.001610374e+21
1.002432723e+21
1.004277473e+21
1.004511121e+21
1.006990384e+21
1.008598432e+21
1.00999192e+21
1.011874084e+21
1.012168052e+21
1.014463299e+21
1.015620086e+21
1.016926529e+21
1.019913557e+21
1.023612982e+21
1.027003931e+21
1.033192546e+21
1.039794244e+21
1.046801391e+21
1.057444587e+21
1.067560167e+21
1.079024949e+21
1.091714473e+21
1.108200394e+21
1.130104503e+21
1.153734247e+21
1.180879399e+21
9.997699243e+20
1.000200561e+21
1.000450238e+21
9.990941916e+20
9.98316908e+20
9.980504326e+20
9.986490478e+20
9.995408624e+20
1.000143295e+21
1.000693808e+21
1.001325255e+21
1.00134358e+21
1.000190635e+21
1.000276915e+21
1.001228285e+21
1.001365723e+21
1.003311986e+21
1.003935798e+21
1.004428281e+21
1.003480728e+21
1.004009098e+21
1.003259301e+21
1.004756603e+21
1.006989194e+21
1.009596682e+21
1.010700761e+21
1.013587705e+21
1.016166943e+21
1.018919504e+21
1.021820955e+21
1.026220472e+21
1.031869903e+21
1.038612724e+21