/*--------------------------------*- C++ -*----------------------------------*\
| =========                 |                                                 |
| \\      /  F ield         | OpenFOAM: The Open Source CFD Toolbox           |
|  \\    /   O peration     | Version:  v1706                                 |
|   \\  /    A nd           | Web:      www.OpenFOAM.com                      |
|    \\/     M anipulation  |                                                 |
\*---------------------------------------------------------------------------*/
FoamFile
{
    version     2.0;
    format      ascii;
    class       volScalarField;
    location    "0.004";
    object      SOFP_Ar;
}
// * * * * * * * * * * * * * * * * * * * * * * * * * * * * * * * * * * * * * //

dimensions      [0 0 0 0 0 0 0];


internalField   nonuniform List<scalar> 
4000
(
0.1353983357
0.1329217716
0.1290432018
0.1271425762
0.127023068
0.125722067
0.1227993423
0.1220109494
0.1202934838
0.1177018565
0.1164167585
0.113741001
0.1115777772
0.1088174093
0.1070334373
0.1046395815
0.1010802172
0.09819836226
0.09734068478
0.0956358469
0.09486255514
0.09547508351
0.09804042884
0.1013540134
0.1089108233
0.1189240099
0.1323320451
0.147514063
0.1678022591
0.1884137971
0.210024318
0.230897743
0.2538059716
0.2766844671
0.3016917958
0.3361998523
0.3851415028
0.4550161315
0.5721387345
0.7969110109
0.1411492091
0.1390961465
0.1367405082
0.1363806528
0.1368243187
0.1343955081
0.132384359
0.1315953706
0.1309178983
0.1278588415
0.1255658592
0.1231056294
0.1213011882
0.1175571897
0.1136282808
0.1117090528
0.108897507
0.1059734429
0.1037338515
0.1015586189
0.1010532734
0.09998240229
0.1027672688
0.1071339055
0.1147282934
0.1245214515
0.1397380299
0.1579685104
0.1788278806
0.2016155726
0.2246227136
0.2481903851
0.2717563484
0.2962912679
0.3245413198
0.361384165
0.413220968
0.4909704433
0.6185613811
0.8605077787
0.1423393479
0.140653147
0.1406280603
0.1398029412
0.1392612768
0.1359510225
0.1349262795
0.133487265
0.1332235058
0.1313516027
0.1304641864
0.1274142881
0.1243056389
0.1208081483
0.1186875374
0.1147930423
0.1108726016
0.1082283977
0.1053794246
0.1028983637
0.1022701862
0.1021532584
0.1036728428
0.1087367703
0.1158542781
0.1253838311
0.1405527742
0.1588444026
0.1796452132
0.2034965325
0.2273407681
0.2499293446
0.2737420487
0.299970367
0.328936556
0.3653552109
0.4200840825
0.4986243747
0.626686647
0.870627377
0.144344944
0.144341259
0.1427751951
0.1411596612
0.1405468486
0.1397227599
0.1392071054
0.1388311362
0.1363762722
0.1331328555
0.1318225482
0.1295486522
0.1269149708
0.1231613271
0.1214445563
0.1184750206
0.1148710484
0.1111898382
0.1083490254
0.1055227827
0.1035218412
0.1040918157
0.1055763862
0.110285501
0.1164150093
0.1269739995
0.1416952411
0.1605326586
0.181322913
0.2043012777
0.2290652097
0.2527453354
0.2769684552
0.3036819194
0.3337629493
0.371610362
0.4263769571
0.5050643959
0.6356744133
0.8834596601
0.1474248833
0.1461476148
0.145923896
0.1444563055
0.1441961571
0.1431659797
0.1417782071
0.1401884516
0.1379890564
0.137565671
0.1345115193
0.1327139993
0.1294747821
0.1266723438
0.1236888652
0.1208932894
0.1166187914
0.1129513402
0.1096764613
0.1072806549
0.1059185964
0.1057798295
0.1068983645
0.1114149821
0.1188598754
0.1290006582
0.1435230912
0.1626183541
0.1845186299
0.2066838339
0.2318050559
0.2569869496
0.2814132357
0.3078929837
0.3391389727
0.3785373329
0.4340569138
0.5150623592
0.6453720758
0.8964126811
0.1508416388
0.1494216389
0.1492255133
0.1478234364
0.1473164351
0.1460473584
0.145556497
0.143531431
0.1414133086
0.1395739181
0.1382625319
0.1354482558
0.1330712162
0.129427069
0.1257296827
0.1226806773
0.1196570477
0.1163714789
0.113104904
0.1107459572
0.1092244933
0.1090385805
0.1099904634
0.1142360004
0.1208262623
0.1318698305
0.1459673242
0.1647032777
0.1858924285
0.2104906907
0.2353375158
0.2603191675
0.2861565887
0.3137420469
0.3456483217
0.3853343295
0.4412048679
0.5255237002
0.6556993604
0.9111881415
0.1539883401
0.1534637965
0.1526008133
0.1505400019
0.1500000622
0.1505400425
0.1488558275
0.1477301855
0.1455081443
0.1438293194
0.1416628375
0.1392638061
0.1366534175
0.1339558835
0.1305352092
0.1271730632
0.1223684849
0.1185765832
0.1154709754
0.1134947819
0.1119180432
0.1107060666
0.112759537
0.1164478818
0.1231201553
0.1335777937
0.1486373702
0.1673508512
0.1888718559
0.2138200084
0.2396458183
0.2656208189
0.2922640002
0.3197651227
0.3518352761
0.3923548595
0.4505539777
0.5338624382
0.6694202432
0.9309835242
0.158992203
0.1558746282
0.1576067417
0.155143035
0.154790048
0.1550608493
0.1531978573
0.152556377
0.1498454358
0.1482722797
0.146375841
0.1435684319
0.1416796421
0.1382467027
0.1346387385
0.1311650793
0.1273456614
0.1236341629
0.1203050683
0.1169884029
0.1160333098
0.1150541955
0.116199786
0.1195598566
0.1257445191
0.1363238088
0.1507662076
0.1694743791
0.1920555604
0.2170249518
0.2437826915
0.2698628422
0.2966486678
0.3264713759
0.357349294
0.4013884234
0.4592619231
0.5442337447
0.6828768636
0.949682332
0.1633675484
0.1623193231
0.1618265034
0.1608729583
0.1597374523
0.1578456594
0.1567395619
0.1557754798
0.155235422
0.1527932403
0.1505117315
0.1481016989
0.146210911
0.1420645598
0.1382643765
0.1353355494
0.1308182368
0.1280557094
0.1244890464
0.1203542451
0.1187434549
0.1186255501
0.1186699467
0.1227874943
0.1291476007
0.1394221166
0.1529850463
0.1727311722
0.1942416124
0.2194532342
0.2458542925
0.2744126798
0.3021397561
0.3312100185
0.3654250389
0.407639545
0.4670952541
0.5547243344
0.6956133825
0.9712809406
0.1673379624
0.1654530176
0.1662873531
0.1640320861
0.1640407391
0.1623023421
0.1614029657
0.1599243094
0.1603906926
0.1575256241
0.1551378668
0.1539907321
0.1504949412
0.1482622462
0.1439243001
0.1406381145
0.136298877
0.132133437
0.1279932361
0.1248721151
0.1220460435
0.1221271107
0.1224347029
0.1256885088
0.1313403297
0.1409750536
0.1553380215
0.1739416729
0.1970533945
0.2233771173
0.2508401227
0.2778811336
0.3072952835
0.3372298941
0.3717113069
0.4160738605
0.477717767
0.5670923252
0.7130768015
0.9970436982
0.1724322386
0.1702753318
0.1710043759
0.170256725
0.1689564472
0.1682246611
0.1676790066
0.1672069935
0.1661102726
0.1637530611
0.1606739032
0.1578498655
0.1545621921
0.1527195169
0.1491012161
0.1442315653
0.1406766176
0.1367873711
0.1321032316
0.1291974065
0.1272133101
0.1252950169
0.1256984045
0.128060345
0.1341513573
0.1437489108
0.157158117
0.1764133929
0.1990685478
0.2252622309
0.2539424592
0.2830506862
0.3118011726
0.3426377377
0.3791459025
0.4253031053
0.4869843169
0.5788948718
0.7281324109
1.015258748
0.1781135513
0.1753610534
0.1756109279
0.174207326
0.1739472911
0.1724465841
0.1719275947
0.1719310669
0.1688075287
0.1665862931
0.165034808
0.1634871813
0.1590562374
0.1557811178
0.1531136237
0.1485427956
0.1444863821
0.1399967641
0.1365379092
0.1327489007
0.1307987057
0.1291014998
0.1290834151
0.1310455909
0.1372620235
0.1465484174
0.1600202397
0.177343154
0.2007933618
0.2272678666
0.2563231696
0.2854085652
0.3157814375
0.348128058
0.3861648421
0.431118111
0.4948955323
0.5872845418
0.7366332731
1.030158571
0.1835292934
0.1820385776
0.1802216829
0.1804007852
0.1796788353
0.178330386
0.1777205219
0.1759902978
0.1758450812
0.1728628406
0.1709826659
0.1684828531
0.1662347031
0.1616953656
0.1581466116
0.1545101343
0.150335816
0.1460484298
0.141896393
0.138169643
0.1352434598
0.1327884479
0.1327728444
0.1344081024
0.1389244249
0.1476560141
0.1613039587
0.179135197
0.2022002405
0.2282376929
0.2588551404
0.288581465
0.3205303837
0.3534173732
0.3905918131
0.4373347651
0.5017807937
0.5949263811
0.7458536653
1.051224779
0.1866961857
0.1863214119
0.1857695901
0.1848898932
0.184667579
0.1829624802
0.1827164341
0.1819871985
0.1803121943
0.1787236086
0.175854939
0.174559834
0.1705981642
0.1688026324
0.1637642973
0.1602911949
0.1557066492
0.1513705431
0.147180312
0.1435807804
0.1384922668
0.1373801666
0.1371796343
0.1381492033
0.1430473251
0.1507446269
0.163547773
0.1812345805
0.2034104586
0.2301282349
0.259011849
0.290994294
0.3229460161
0.3575097493
0.394514922
0.4423852529
0.5055300442
0.5990474497
0.7547238152
1.063386047
0.1922348052
0.192418132
0.1905274878
0.1886360866
0.1905345611
0.1896861336
0.1888183773
0.1866920488
0.1849240583
0.1831799543
0.181071486
0.1801967164
0.1757718621
0.1733107958
0.1698564026
0.1672579701
0.1609832359
0.1562700476
0.1517671156
0.1469251743
0.1446842077
0.1412744795
0.1413774235
0.141535798
0.1463130573
0.153470584
0.1645118374
0.1817408678
0.2044274325
0.2315332699
0.2605857423
0.2917856319
0.3257977629
0.3586054637
0.3970152294
0.4453466616
0.5094178119
0.6058977953
0.7618783599
1.071633563
0.1995708523
0.197950853
0.1972030169
0.1979860007
0.1957509637
0.195230961
0.1938453542
0.1935806622
0.1926946582
0.1891643894
0.1887318417
0.1855984069
0.1813602089
0.179691323
0.1746392472
0.1713260026
0.1659859788
0.1620829672
0.1575779889
0.1540591323
0.1489690893
0.1465107496
0.1458355691
0.1453784183
0.14965149
0.156330033
0.1670364243
0.1834068193
0.2045708649
0.2305494988
0.2606310711
0.293360431
0.3267594345
0.3614653971
0.3994565178
0.4460062735
0.5105256863
0.6048271223
0.7626878969
1.07967728
0.2048369716
0.2051811601
0.2038213538
0.2024883157
0.2023054674
0.2017423377
0.2007284636
0.2004486738
0.1975545503
0.1972336999
0.1958217694
0.193107767
0.1889888387
0.186443417
0.181936179
0.177865286
0.1727835635
0.1682758733
0.163259157
0.1590055618
0.155302073
0.1523201845
0.1497072895
0.1501968278
0.1534070883
0.1589553982
0.1691390998
0.1840860903
0.204653217
0.2311618578
0.2607568088
0.2942100383
0.3270411951
0.3632030444
0.4002875608
0.4446823892
0.5091020081
0.6014871775
0.7569785671
1.073558807
0.2109408409
0.2107288684
0.2091250679
0.2072391585
0.2099277675
0.2095085855
0.2079788787
0.2069096092
0.204752546
0.2023878742
0.1999875865
0.1973492687
0.1962797002
0.1915705395
0.1895982243
0.1834052072
0.180554513
0.1762327811
0.1702567254
0.1644400686
0.1609232193
0.1587504923
0.1562709484
0.155384541
0.1583723017
0.1628717603
0.1712096509
0.1853123369
0.204450539
0.2287442482
0.2589047205
0.292354821
0.3258057576
0.3612980179
0.3970136055
0.44308315
0.5009687287
0.5899545287
0.7416936553
1.055675269
0.2174302297
0.2162400826
0.2155735432
0.2141807986
0.2142012023
0.2141136074
0.211934716
0.208893978
0.2102610796
0.2097948136
0.2065413523
0.2044797219
0.2014717936
0.1981732393
0.1953852476
0.1901258857
0.1863711569
0.1805207476
0.1760875667
0.1711896151
0.1679646595
0.163373445
0.1614161169
0.159522199
0.1610847025
0.1652873484
0.1733164644
0.1864994826
0.2043254285
0.2288906007
0.2571205364
0.2895241939
0.3229787489
0.3585400799
0.3940022791
0.4366035225
0.4898394543
0.571058469
0.7073884214
1.005231869
0.2214994638
0.2226374605
0.2214423841
0.2203175321
0.2218693398
0.2206309408
0.2184143235
0.2192062792
0.2186341166
0.2151947819
0.2145985426
0.2124472973
0.209084467
0.2038883941
0.2005891425
0.1968324803
0.1911476757
0.1863844923
0.1830359573
0.1772889188
0.1741277713
0.1684727761
0.1663064825
0.1646406681
0.1655703919
0.1685678111
0.1761362476
0.1877341365
0.2040278154
0.2265937718
0.2530395751
0.285429412
0.3185219075
0.3528025104
0.3882087096
0.4295334315
0.4752159516
0.5389500406
0.6429478547
0.8790948309
0.2310127677
0.2278355373
0.227923302
0.2275235955
0.2293824108
0.226978222
0.2255580871
0.2235196254
0.2234441336
0.2205598534
0.2210545368
0.2191728011
0.2142539396
0.2104710574
0.2073626684
0.204030629
0.1997451758
0.1944541533
0.1908597825
0.185270894
0.180561549
0.175731299
0.1723580416
0.1706273928
0.1706345783
0.173684768
0.1791541342
0.1900486165
0.2043584121
0.2250287442
0.2507454647
0.2809301354
0.312606417
0.3471410682
0.3819678254
0.4156401187
0.4549457406
0.5005919859
0.5496762107
0.5459645114
0.2368032975
0.2356321218
0.2348447195
0.23408275
0.2321128475
0.2319506489
0.2298455644
0.2311935375
0.2289689891
0.2283797352
0.2238886486
0.2249392278
0.2206273315
0.2171325992
0.213588016
0.2101748688
0.2071350928
0.200758661
0.1953276243
0.1932382075
0.1862338488
0.1816073669
0.1784311576
0.1756918693
0.1749343607
0.1761629059
0.182025259
0.1900939985
0.2034055822
0.2218856628
0.2461844126
0.2751080615
0.3051039706
0.3397117218
0.372138721
0.4027276517
0.4353428131
0.4619987574
0.4779544015
0.44178852
0.2417872419
0.2410123298
0.2403190567
0.2413961656
0.2393510719
0.2390780295
0.241146574
0.2374788435
0.2382630456
0.2369269835
0.233472822
0.2280993335
0.2279077799
0.225236479
0.2208429585
0.2176508036
0.2123318888
0.2088291222
0.2035144947
0.19959406
0.1938428735
0.1877006284
0.1841558724
0.1799676556
0.1786518019
0.1801518102
0.1838417104
0.189895822
0.2026596705
0.2206821075
0.241555403
0.2690406745
0.2990344472
0.3316077582
0.3630996243
0.3904601156
0.4169737681
0.432471578
0.4349807035
0.4077340694
0.2485128799
0.2452267934
0.2470693845
0.246635296
0.2457433485
0.2472580888
0.2453736303
0.2442258497
0.2427153881
0.2419876272
0.2421837893
0.2409633231
0.2380970956
0.2334520215
0.2313076738
0.2256230612
0.2225876556
0.2185954121
0.2116075635
0.2077095189
0.2008053126
0.1952817422
0.1911638278
0.187282005
0.1841596878
0.1844521482
0.1874492709
0.1931948034
0.2025581903
0.2181086615
0.238187781
0.2627157881
0.2924738894
0.3222609808
0.350731775
0.3776301233
0.3994339774
0.4121111697
0.4127188035
0.3939137816
0.2545047426
0.25343571
0.2535670989
0.2530005775
0.2513419456
0.2523793329
0.2520468006
0.2517617365
0.2489341422
0.2482923526
0.2461210073
0.2449327077
0.2444409671
0.2406945341
0.2389303782
0.2343788923
0.228145622
0.2268601982
0.2205329536
0.2143739343
0.2080655544
0.2031196036
0.1976657439
0.1939971871
0.1907253107
0.189985783
0.1910857217
0.1963221285
0.2049085359
0.2173127665
0.2354028305
0.2583510151
0.2846139567
0.3123780673
0.3412845159
0.3668598237
0.3852567944
0.3959898919
0.3973963049
0.3845983272
0.2605812983
0.2619199272
0.2618084697
0.2637693113
0.2596059712
0.2608145109
0.2581132183
0.2588716502
0.258295851
0.2550620821
0.255242304
0.2516503407
0.2498065548
0.2448658932
0.2434982865
0.2414968864
0.233515629
0.231666529
0.2276212
0.2214720643
0.2155356078
0.209634309
0.2062115463
0.2019581897
0.1977477909
0.1972942199
0.1968574924
0.1990990645
0.2075106735
0.2182240461
0.2333362095
0.2538579101
0.2779240717
0.3039673933
0.3304563663
0.3558039471
0.374571015
0.3869216442
0.3877676471
0.3806860447
0.2681065832
0.2659820481
0.2666014681
0.2642233757
0.2638414544
0.2659661063
0.2649966261
0.2655319926
0.2648885069
0.2617550122
0.257159635
0.2585523791
0.2535022216
0.2524817506
0.2496177861
0.2477890874
0.2430876913
0.2381742946
0.2338405101
0.2289300798
0.2245414472
0.2199738782
0.2151102157
0.2077103965
0.2043856557
0.2034451097
0.2026640542
0.2031337257
0.2090809113
0.2174588263
0.2294760975
0.2473503687
0.2686511347
0.294911948
0.3218344335
0.3442686372
0.3651243231
0.377889349
0.3824982462
0.3786177233
0.2784187723
0.2729663351
0.2754046695
0.2734162829
0.2758087683
0.272581211
0.2726895824
0.2729768376
0.2712019588
0.2713477807
0.2676715404
0.2670388231
0.26529194
0.2613218933
0.2598739522
0.2574645042
0.2513231168
0.2471327265
0.2428684199
0.2367021218
0.2327293815
0.2274937852
0.222327256
0.2173334826
0.2129118677
0.2088550376
0.2078499387
0.2087207947
0.2112621768
0.2182390766
0.2295761051
0.2452124468
0.2648245182
0.287087919
0.3104502922
0.3340167162
0.3538914826
0.3690620786
0.3770982353
0.377175109
0.2847313731
0.2824374062
0.2832041066
0.2818949137
0.2807552129
0.2841590111
0.2804600686
0.2784173568
0.2770124065
0.2763648399
0.2768049748
0.2753821581
0.2699294624
0.2702278291
0.2673145397
0.2638202038
0.259241876
0.2559695167
0.2505327933
0.2481582033
0.2398847146
0.2347893262
0.2315958104
0.2263849348
0.2204259922
0.2163228336
0.214052206
0.2133994245
0.2145491318
0.2202163829
0.2296809147
0.2414970669
0.2589047037
0.2800040064
0.3006623091
0.3236935563
0.3448152464
0.3616153048
0.3721603639
0.3756736059
0.2892660454
0.2892121288
0.287171032
0.2870099942
0.2869975884
0.2826828714
0.2866023479
0.2801931915
0.2842878182
0.2814031108
0.2815635028
0.2796618962
0.2769528598
0.2762787157
0.2719194257
0.2713375372
0.2708846301
0.2639765275
0.2608729702
0.2552855259
0.2505441935
0.2453192694
0.2397634975
0.2334786032
0.2292275282
0.2230115893
0.2206613285
0.2209488615
0.220969433
0.226452024
0.2316428412
0.2413951298
0.2552380677
0.2724411481
0.2938515112
0.3141971123
0.3360985514
0.354864372
0.3659743565
0.3725535629
0.2951568885
0.2928306935
0.2962161116
0.2948854804
0.2930165877
0.2941617698
0.2933616077
0.2938217776
0.2918491599
0.2911400475
0.2886944904
0.2879135222
0.2830169507
0.2842529235
0.2812373829
0.2775247916
0.2759711995
0.2735018536
0.2677413036
0.2626032066
0.2565881608
0.2532692459
0.2471598901
0.2425538348
0.2361655575
0.2306559322
0.2277291294
0.2269761078
0.2275508745
0.2291022377
0.2330547354
0.2409848299
0.2537250762
0.2683287932
0.2868533889
0.3062918872
0.3267092522
0.3449585082
0.3606515279
0.3716488648
0.2997888588
0.3017751794
0.2997242022
0.3043911475
0.3021478472
0.3007804278
0.3003576108
0.3013248503
0.2982360383
0.2967856543
0.2947292911
0.2946375419
0.2939506728
0.290212259
0.2884662822
0.2845216969
0.2843047322
0.2798839439
0.2764949474
0.2715364154
0.2672808127
0.261974857
0.2568437964
0.2489691379
0.2445652606
0.2415132228
0.2351603445
0.2338578446
0.2328472321
0.2339260052
0.2356786804
0.2422322646
0.2508739064
0.262595782
0.2797307145
0.2993874395
0.3186503821
0.3367567763
0.3532780757
0.3676413472
0.3107979147
0.3098318837
0.308953192
0.3097606364
0.3090054303
0.3086969629
0.3062890787
0.3090466062
0.3030793736
0.3065040151
0.3030381724
0.3016974308
0.2990969055
0.2995421103
0.297337689
0.2953324975
0.2937660447
0.2875153067
0.2840364003
0.2825642649
0.2765876203
0.2699823417
0.2666797577
0.2608504541
0.2566653242
0.25193404
0.2460210713
0.2428744565
0.2420431207
0.2407345952
0.2412730258
0.2451804238
0.2525377548
0.2629848816
0.2761714964
0.2936902718
0.3106267366
0.3262332879
0.3437326909
0.359508491
0.3153185495
0.312772368
0.3159953385
0.3155779404
0.3129101079
0.3112769571
0.312045821
0.3130197893
0.3127226864
0.3093701564
0.3115852146
0.3122795727
0.3078819366
0.3062578387
0.3071902719
0.3025439909
0.3000204554
0.2965140147
0.2944614165
0.2894984113
0.2858958835
0.2801649874
0.2757388621
0.2687077089
0.2622555681
0.2589875245
0.2550049684
0.2516040254
0.2487916076
0.2461917592
0.2471024502
0.2496089927
0.2550632504
0.2640147976
0.2746824967
0.2882610581
0.3034434301
0.3202730224
0.3373483017
0.3554614355
0.3239877093
0.3180991335
0.3210387886
0.3208763346
0.3210616963
0.3203161422
0.318840326
0.3178137243
0.3237889623
0.3204486333
0.3224994255
0.318921701
0.3163727038
0.31437579
0.3123871212
0.3110755794
0.3110372651
0.3096129365
0.3038145509
0.2984723455
0.2949148982
0.2893334115
0.2865619059
0.2790230854
0.2743159761
0.2686827637
0.2639607881
0.2619072481
0.2544400894
0.2532338697
0.2525983549
0.2540663394
0.2573176334
0.2630564987
0.2706003287
0.2829622595
0.2966295109
0.3134041756
0.3296243868
0.3467431194
0.3313667301
0.3295187571
0.329323149
0.3311673533
0.3278812141
0.3302065346
0.32740077
0.329571828
0.3294600579
0.3265698913
0.3267588499
0.3261963014
0.3261847687
0.3236680675
0.3191479731
0.3192628519
0.3175364753
0.3156728743
0.309421092
0.3103664537
0.302608913
0.2976210811
0.29501138
0.2892482244
0.2838224012
0.2798772485
0.2743866343
0.2715538586
0.2679191508
0.2620092883
0.2594370967
0.2590705465
0.262289019
0.2647525391
0.2713754524
0.2830947844
0.292958757
0.3086314711
0.3238506695
0.338834478
0.3376372643
0.3334471786
0.3371417819
0.3371560439
0.335926769
0.3352190929
0.3320471409
0.3334893965
0.3372987947
0.3335079715
0.3328301395
0.3317139956
0.3295176969
0.330154158
0.3295986893
0.3307832994
0.324871005
0.3231734113
0.3218298822
0.3180719552
0.3106789432
0.3073859047
0.3037001456
0.2981138718
0.2923237039
0.2893500549
0.2835040602
0.2785137115
0.2740656138
0.2686685796
0.2671623715
0.2662564252
0.2664678863
0.2709446847
0.2756814044
0.2812253318
0.2917069242
0.3049274585
0.3163986055
0.331169314
0.3477492365
0.3420839921
0.3439910011
0.3411097062
0.342773905
0.3424656345
0.3439515814
0.3413079592
0.3427136399
0.3429127507
0.3394959463
0.3406395071
0.3391501846
0.3406769127
0.337518044
0.335465812
0.3328203801
0.3309238461
0.3282471886
0.324231529
0.3211946867
0.3205225719
0.3168155621
0.312862301
0.3067487455
0.2982089858
0.2975683632
0.2903698852
0.2851101669
0.2819876246
0.2802791003
0.2766547122
0.2776204133
0.2762824875
0.2787909304
0.2840552101
0.2901048868
0.3004494006
0.3112415635
0.324706739
0.3492886813
0.3517963156
0.3468552212
0.3492954529
0.3488384825
0.3459189025
0.3492274187
0.3483403273
0.3477378685
0.3473548006
0.345633683
0.3447653197
0.3473893221
0.3466647328
0.3443095331
0.3388475519
0.3414259843
0.3381291134
0.3345724758
0.3348249851
0.330011322
0.3290826828
0.3232888998
0.3220552237
0.3129043028
0.3108277179
0.3057286179
0.3025524981
0.2979102643
0.2928161881
0.2883292315
0.283288138
0.2828029027
0.2815539509
0.2835969266
0.2864648301
0.2910253974
0.3007832705
0.3090908939
0.3214206098
0.3573136708
0.3603415407
0.356646463
0.3587338587
0.355303419
0.355573818
0.3569779169
0.3572475205
0.3545236684
0.3561767778
0.3533878627
0.3527243812
0.3527660317
0.3524917243
0.3500931748
0.3533318905
0.3529862944
0.3481717718
0.3428681531
0.3458199415
0.3416771807
0.3366332039
0.332209739
0.3272603408
0.3225405659
0.3231032264
0.3157814101
0.3105728136
0.3058638448
0.3012797833
0.2958660983
0.2921449959
0.2950591196
0.2904606978
0.2923976483
0.2935916635
0.2971879084
0.303304109
0.3100468486
0.3188583089
0.3673460398
0.3636365989
0.3647456086
0.3671862581
0.3632809356
0.364228178
0.3650505413
0.3642328165
0.3628755922
0.36546269
0.3582110547
0.3619840107
0.3601054546
0.358341403
0.3619468785
0.3590500561
0.3601072521
0.3555973528
0.3503702361
0.3521365606
0.3469634717
0.3468076791
0.3419294936
0.3395221574
0.3369494767
0.3295055354
0.3230756724
0.319942503
0.3141470351
0.3128653667
0.3040643476
0.302002938
0.3005981036
0.2984320831
0.2963996197
0.2964959042
0.2986663391
0.3041909314
0.3102221054
0.3170503984
0.3730539775
0.3739920475
0.3734099804
0.372813689
0.377711429
0.3726535186
0.3717876411
0.3733835843
0.3717112302
0.3744306325
0.3734143762
0.3715829921
0.3721903474
0.3691948626
0.3651185799
0.3605438843
0.3656363337
0.3600932747
0.3633241221
0.3564965818
0.3576966452
0.3539742509
0.3540042393
0.3486470522
0.3445358995
0.340836727
0.3396170738
0.3346235938
0.332605904
0.3248373424
0.3217672815
0.3193040185
0.311625187
0.3117415609
0.3082159354
0.3072965949
0.3063514846
0.3073330494
0.3114167668
0.3163998763
0.3830868173
0.3806296174
0.3817731197
0.3800112707
0.3814482847
0.3772553633
0.3767968284
0.379184657
0.3772864608
0.374376511
0.3782961856
0.3763677122
0.376588276
0.3739048946
0.3755167531
0.3761746924
0.3756681277
0.3721887129
0.3719945631
0.3661596824
0.3676895961
0.3641660474
0.3634640574
0.3565101111
0.3556267289
0.3493340447
0.3465648583
0.3427723881
0.337761074
0.3326835427
0.328388548
0.3250879401
0.3227505558
0.3192585388
0.3160918268
0.3147245743
0.3147217909
0.3147167277
0.3181676033
0.3223765303
0.3884092675
0.3888269114
0.3877348193
0.3904745917
0.3850110803
0.3826891343
0.3859440797
0.3884458223
0.3899724815
0.3865234388
0.3860146189
0.3869121087
0.3838503958
0.3830413519
0.3785460163
0.3812757038
0.3820239185
0.380119379
0.3774483109
0.3757053291
0.373172903
0.3726305637
0.3689356363
0.3670782881
0.3643688664
0.360188976
0.3579966888
0.3528210432
0.3534829572
0.3455755976
0.3446434874
0.3383316743
0.3317463907
0.3288287108
0.327233223
0.3251757307
0.3226839802
0.3208802488
0.322988503
0.3262984322
0.3936158025
0.3925462438
0.3971808606
0.3937473093
0.39187379
0.3952777269
0.3973110017
0.3924168142
0.3916422273
0.3938013195
0.3916219523
0.3891095826
0.3911403637
0.3898013677
0.3897269913
0.390951045
0.3899829208
0.3944345049
0.3852901598
0.3817724166
0.3861974457
0.3823369875
0.3790824333
0.3765491224
0.377771133
0.3684933765
0.3689606697
0.3651428515
0.3624499642
0.3584023151
0.3530597594
0.3509404743
0.347092742
0.3432626091
0.3363717062
0.3365897532
0.3287376423
0.3300239018
0.3324653052
0.3303196288
0.4016315784
0.4007642307
0.4025578381
0.4024771818
0.4029288316
0.3982363309
0.3998840012
0.4011815339
0.39940592
0.3966089083
0.3995738233
0.3980611847
0.400607777
0.3987583629
0.3971578646
0.3967983447
0.3947935805
0.3922563707
0.3956268886
0.3944728279
0.3975907787
0.3916667583
0.3911719328
0.3823504031
0.3816912011
0.382083997
0.3775985898
0.3764324183
0.3731288972
0.3694962938
0.3664929819
0.3597659272
0.3555416254
0.3535039628
0.3493993408
0.3465240028
0.3439673215
0.3410976353
0.3383176418
0.3369665742
0.4102348064
0.4070618264
0.4074423207
0.4080702189
0.4061211092
0.4031866187
0.4079405172
0.4137711347
0.408917833
0.4061395615
0.4038152276
0.4067651612
0.4040898295
0.4041654831
0.4060328273
0.4057480945
0.4034125876
0.3977830504
0.4030279914
0.4012272815
0.3991691426
0.3985562668
0.3974956288
0.3969214824
0.3938771956
0.3898906049
0.3873499023
0.3828058391
0.3808705091
0.3766885374
0.3704067872
0.3702003229
0.3655229171
0.3609365825
0.3591660482
0.3561603725
0.3495887707
0.3491998522
0.3510201854
0.34896382
0.4178093847
0.4163444622
0.4147669623
0.4159727307
0.4140819532
0.4152896015
0.4177544146
0.4171243581
0.4129792375
0.4175325395
0.413175274
0.4174930825
0.4133342362
0.4128612707
0.4128133663
0.4143385105
0.4118532083
0.4120996135
0.4126136116
0.4092984797
0.4104003268
0.4055501345
0.4035904813
0.4035537126
0.4050861687
0.4023864646
0.3990393563
0.3961634751
0.3945032662
0.3917492146
0.3843935872
0.3854904375
0.3812254945
0.3784784895
0.3697156206
0.3685325795
0.3619075442
0.3615677875
0.3599175185
0.3597917895
0.4246858098
0.4250007656
0.4203564551
0.4242651941
0.4231424262
0.4207420095
0.4216032043
0.4253146242
0.422908086
0.4205826655
0.4190494324
0.4224692508
0.4247372262
0.4231298371
0.4170196476
0.42000944
0.4180251785
0.4223890419
0.4196714451
0.4173735102
0.4162530718
0.4178963286
0.4106331183
0.416625634
0.4131477216
0.4084461257
0.4060559968
0.403106787
0.3994255802
0.3940391159
0.3958147014
0.3907363705
0.387959717
0.3843877577
0.3842414885
0.378768617
0.3750666052
0.3731357007
0.3730390878
0.3661307655
0.4271068433
0.4326541854
0.4312830348
0.4289145503
0.4307197158
0.4325605701
0.4313360742
0.4309517904
0.4300545404
0.4333047
0.4324143056
0.4293546071
0.4269775837
0.430772125
0.4234529546
0.4253773219
0.4238244433
0.4242500212
0.4228260887
0.4243031569
0.4231217369
0.422361002
0.4233632401
0.4151488801
0.4156453056
0.4174382409
0.4156885908
0.4115845421
0.4131551767
0.408376952
0.409321925
0.4001107378
0.400923356
0.3993971422
0.3929453116
0.3868211082
0.3890183999
0.3823515798
0.3791216472
0.3748526879
0.4393568706
0.4365491183
0.4411150235
0.4343977917
0.4421383389
0.4366704458
0.4350315603
0.4383687832
0.4368837981
0.4379807401
0.4355893889
0.4340594854
0.4358310795
0.4348023144
0.4294107519
0.4375704504
0.4322286876
0.436705545
0.4341053745
0.4289195744
0.4332428491
0.4305723176
0.4314491823
0.4269675988
0.430965578
0.427617438
0.4235446038
0.4236918312
0.4215200369
0.4200866531
0.4144433966
0.4118794238
0.4103659177
0.4069476516
0.401347523
0.4022021178
0.3991958017
0.3942043351
0.3938903122
0.3880063263
0.4432909174
0.443680132
0.4395743232
0.4428644703
0.4430456462
0.4460522686
0.4438479166
0.4459044868
0.4421554617
0.4416025857
0.4430638103
0.4426218613
0.446708918
0.4444287439
0.4421876761
0.441851085
0.4401212086
0.4426735155
0.4401282705
0.4396238724
0.4377458695
0.442821669
0.4376647003
0.4434383892
0.4392001175
0.4307062302
0.4333963987
0.4307135693
0.4291974919
0.429182971
0.4277745591
0.426439215
0.4233243631
0.4161659116
0.4176964323
0.4105103325
0.4108780403
0.4093435202
0.4083676126
0.4032971993
0.4526649786
0.4494881994
0.4539445199
0.4523637202
0.4511812702
0.4493258766
0.4525776945
0.4502957354
0.4539542339
0.450624711
0.4456952473
0.4497047716
0.4508176145
0.4504356472
0.4488131883
0.4544704214
0.4508591014
0.4480081628
0.4502521605
0.4478684268
0.4455804696
0.4478840264
0.448237892
0.4416150416
0.4437476849
0.4409200563
0.4426648887
0.4360974207
0.4406937527
0.4356924429
0.435330948
0.4376719214
0.434702244
0.4313780855
0.4282992872
0.4235622713
0.4229739809
0.4157685825
0.4144273352
0.4111370842
0.4604982719
0.4631220957
0.4588771828
0.4563903056
0.4601540559
0.4566073448
0.4625318914
0.4626803157
0.4636293566
0.4622544287
0.459526765
0.4625218728
0.4583058224
0.4611478904
0.4586778413
0.4598339911
0.4594557616
0.4549770141
0.4550551583
0.4591974051
0.4577942767
0.4558128654
0.4588595545
0.453263337
0.4502006308
0.4533868966
0.4509544377
0.4493302297
0.4467666586
0.4420729682
0.4449804389
0.4436817482
0.4407833145
0.4382015923
0.4310225826
0.4310856536
0.4251045717
0.4280113008
0.4231848861
0.4220315153
0.467203785
0.4658185615
0.4678685345
0.4686509173
0.468851378
0.4675313213
0.463233519
0.4579957534
0.4637987661
0.4678314508
0.466726272
0.4663438552
0.4663863464
0.462885932
0.4675123858
0.468528557
0.4665620359
0.4691416732
0.4666808831
0.4621499661
0.4620702715
0.466724815
0.4594529629
0.4620281555
0.4608308175
0.4576429253
0.4633562796
0.4563863626
0.4598539065
0.4541905799
0.4585638134
0.4489277641
0.453440186
0.4475017723
0.4435980258
0.4460182169
0.4432870368
0.436973328
0.4394700121
0.4368854961
0.4747943426
0.4735015401
0.4758338215
0.4712687712
0.4699150183
0.4719323618
0.4748134274
0.4773945008
0.4719197661
0.4707411604
0.4767169853
0.47238135
0.4719677192
0.4739911841
0.4725577937
0.4760607878
0.4725076416
0.4746401965
0.4692784222
0.4703495514
0.4732026883
0.4699978511
0.4709987852
0.4658915419
0.4731213741
0.4733779913
0.4707703916
0.4636131787
0.4679226414
0.4644581656
0.4644493165
0.4623816784
0.4619888396
0.4560822935
0.4580570555
0.4563485088
0.4530552634
0.4458788732
0.4502066454
0.4459298213
0.4816914999
0.48561644
0.4805298411
0.4807961805
0.4809806936
0.4825331928
0.4791842964
0.4796975099
0.4841563031
0.4805186271
0.481298466
0.4859453844
0.4778679174
0.4824122994
0.4817134646
0.4793580906
0.480873238
0.4758727968
0.4792964881
0.4780147558
0.4807878022
0.4737815694