/*--------------------------------*- C++ -*----------------------------------*\
| =========                 |                                                 |
| \\      /  F ield         | OpenFOAM: The Open Source CFD Toolbox           |
|  \\    /   O peration     | Version:  v1706                                 |
|   \\  /    A nd           | Web:      www.OpenFOAM.com                      |
|    \\/     M anipulation  |                                                 |
\*---------------------------------------------------------------------------*/
FoamFile
{
    version     2.0;
    format      ascii;
    class       volScalarField;
    location    "0.004";
    object      surfaceHeatTransfer_Ar;
}
// * * * * * * * * * * * * * * * * * * * * * * * * * * * * * * * * * * * * * //

dimensions      [1 0 -3 0 0 0 0];


internalField   uniform 0;

boundaryField
{
    flow
    {
        type            calculated;
        value           uniform 0;
    }
    cylinder
    {
        type            calculated;
        value           nonuniform List<scalar> 
60
(
990.2954255
978.9990043
969.7346686
958.9245654
974.5316208
942.5657731
929.230157
934.7143417
914.8286317
891.9585111
893.9771975
892.6937375
876.4988181
865.8990734
864.7769407
833.8439882
835.1795048
823.9876517
802.2035322
805.728117
777.4289493
793.583624
790.9310508
771.9107517
775.0665789
754.6861342
752.0467574
733.6422105
732.2936521
755.0099019
738.3266188
734.9768032
734.1076231
713.2076871
739.1644988
710.6331397
695.2648005
708.2392159
684.6957422
673.8427612
6848.897915
6764.090636
6696.782586
6729.343596
6672.481685
6672.493528
6794.684767
6735.703825
6851.400091
6959.734838
7010.658049
7082.387382
7146.51899
7322.779339
7510.687717
7572.791353
7896.73667
8219.083894
8776.844038
10126.77261
)
;
    }
    wedgeFront
    {
        type            symmetry;
    }
    wedgeBack
    {
        type            symmetry;
    }
    defaultFaces
    {
        type            empty;
    }
}


// ************************************************************************* //
