/*--------------------------------*- C++ -*----------------------------------*\
| =========                 |                                                 |
| \\      /  F ield         | OpenFOAM: The Open Source CFD Toolbox           |
|  \\    /   O peration     | Version:  v1706                                 |
|   \\  /    A nd           | Web:      www.OpenFOAM.com                      |
|    \\/     M anipulation  |                                                 |
\*---------------------------------------------------------------------------*/
FoamFile
{
    version     2.0;
    format      ascii;
    class       volScalarField;
    location    "0.004";
    object      translationalT_Ar;
}
// * * * * * * * * * * * * * * * * * * * * * * * * * * * * * * * * * * * * * //

dimensions      [0 0 0 1 0 0 0];


internalField   nonuniform List<scalar> 
4000
(
102.0889237
103.5778386
106.0855714
108.0402507
110.4815037
112.5582354
119.0810415
125.0317982
129.412673
141.6098574
147.9219935
161.4280562
176.2966478
188.0374376
211.6334062
239.513852
266.8390013
312.1439253
364.9311656
429.3716177
496.2287727
572.7013698
653.3458682
744.4277968
825.5711988
892.1724449
939.9813125
970.4472504
982.6750423
987.6660799
980.1031439
964.4721762
939.0527961
908.1941768
867.3914317
815.0808705
745.8487239
660.5461939
560.677075
438.0725476
103.0091695
103.9286257
105.4245491
106.1149255
109.8311879
112.5405275
117.1230882
120.4308442
126.0490834
136.4349161
143.8705965
154.9930091
170.7799381
185.5346087
204.6702482
229.9445478
266.1210342
301.2512943
358.9502392
418.4281157
489.1176269
572.912678
655.7393966
740.4113343
817.8908448
891.6850485
944.8902157
975.1637499
986.8225903
987.575892
977.9003791
963.1634377
938.8839244
907.3054317
864.3136878
809.2085175
741.1718872
659.5139664
559.6599147
437.8084661
102.7318504
103.8323859
105.9085409
107.277289
110.0032764
111.8114442
114.4342816
118.9547505
124.712885
133.2793781
140.7312641
149.8621682
163.026082
180.0703975
199.9633269
224.7150773
258.1596555
298.8866983
352.7395688
411.039249
484.6496761
565.0581894
653.3870017
741.9345102
823.4426153
894.7565037
947.6880879
976.5361551
987.7696355
986.2038969
976.3735653
959.7308886
936.8858105
906.9219805
864.3814807
807.2468237
741.677181
658.5170324
561.2875857
437.9740559
102.0730822
102.8548261
105.0374825
107.2315066
109.033936
110.7732923
113.7395962
117.7010346
123.4081111
130.6658067
138.2331419
148.7071332
160.5472387
173.8473919
193.0411771
222.401796
254.8044152
297.2203953
347.8910277
406.9253533
482.2514999
561.2864691
648.5168382
735.7352549
818.2090625
888.6873513
942.6631743
976.0987206
986.551477
985.2205205
978.3340363
960.5251873
935.6014456
905.9333326
862.9952462
806.3714298
739.9011739
656.8999697
559.485313
436.7701112
102.0913942
103.7703499
104.7603537
106.2961204
109.3389714
110.508208
114.1939552
118.0640536
122.3801377
130.3399912
137.9717137
147.0608451
157.6874624
171.496081
192.6843291
216.5880066
249.7632176
291.8659659
342.4534355
399.5404704
468.8060564
551.2431821
641.9707889
732.2627374
814.894618
884.7849194
936.9772395
971.3998377
984.1637384
985.9344938
975.9261095
960.4832875
936.8164986
904.541456
862.755633
810.8308217
742.6559639
657.5448251
559.1695193
437.2122483
102.5290823
103.8946142
106.2348366
107.1398168
108.9691498
111.1460535
114.3640757
118.3916831
122.1350609
127.3930567
133.9983834
143.2106418
156.3549922
171.5039202
190.1620793
215.4345865
244.5819873
284.7266787
332.3341906
391.6595897
459.5203345
542.4350611
629.8189713
722.2140203
808.0889238
880.1566408
934.6920266
967.0753091
985.1595427
986.6470994
978.8164068
961.5042507
937.1172323
907.0035058
864.2530319
810.4201523
742.786073
660.9384222
560.2303911
437.0978536
102.5443216
103.2462842
104.8452441
106.240592
108.7354473
110.6809396
113.8162918
116.8032804
121.1332598
126.6636819
132.7533355
143.7076118
155.662597
170.9069317
190.1492945
211.3236519
241.4345289
281.1756681
329.4467975
387.7161027
454.0122705
531.3419396
617.2579381
712.6737596
795.7889702
870.7083785
926.5383697
964.7518405
983.9584
985.1950763
976.9895802
961.2185306
939.2886386
906.6487119
864.257014
811.6476926
745.529193
661.5376165
562.6313152
437.7677574
102.2059655
103.6387064
105.1983145
106.6299133
108.4917547
110.2227172
113.9316361
116.3747069
121.1757214
126.206661
133.6727638
141.3115145
151.803087
168.0703748
186.5582436
208.9786567
237.8021618
275.5240366
320.4593114
375.2476213
447.2281114
521.8319876
608.5554437
697.1055866
784.7955671
862.1232284
920.0686035
956.4640762
977.192516
981.2594173
977.0921951
961.8477242
939.1809532
907.9494554
864.4975248
809.7359467
744.2726193
662.5552644
562.7999025
439.3325246
102.5592664
103.3961169
104.8753713
106.5595632
108.1437591
110.0383534
113.1431218
116.6859939
120.2142501
125.1330229
132.5679929
140.6445187
151.0310512
165.3264527
180.9423757
204.2777604
233.8680067
268.9295318
314.2185154
370.8769168
436.3447721
510.5389271
597.2141131
683.8505146
775.1348381
851.8838309
911.0172827
952.8656496
972.8972474
979.3324445
973.1390356
958.1146488
936.2256995
904.0846285
866.5501456
812.7463483
746.9831126
663.9312995
564.9849677
441.3964552
102.0358332
103.4643263
104.1143907
105.5954355
107.5085833
109.5009532
112.2102471
115.0761748
120.0330185
124.6844303
132.7153679
139.4065035
149.5337608
163.6376676
180.5422878
201.5003628
231.6509006
266.1290795
308.5041677
361.6966016
427.1295296
505.1517714
586.9632254
675.2661319
763.7428539
839.7027298
903.5351887
947.8474892
969.1317191
975.8370399
971.5212429
959.1745827
936.9959225
905.2013634
867.1137825
816.6841425
748.8321119
665.7731557
566.7093329
441.8186038
101.8299599
102.8350032
104.4582924
105.3617025
107.2190451
109.2626487
110.8124754
113.9567355
118.7895197
123.7993084
129.1735766
137.0545422
147.7814583
162.2424022
178.5870131
197.9338725
227.4717507
259.982952
302.5848255
353.6785081
416.3680955
487.2634559
570.9505994
659.0980861
746.0971535
827.6872479
892.4997361
939.0881412
962.1157243
970.8361433
968.106197
956.9453371
935.6112432
907.5116879
866.924172
816.0227251
750.1913131
667.6704411
567.6034388
442.5360249
101.5931861
102.5984122
104.268724
106.0397222
107.5573004
109.0987887
111.1302642
114.3115377
117.8890841
122.1833983
129.0409955
134.4140989
146.6055105
160.468265
175.8627886
195.5877405
221.4825396
254.9966005
294.0780677
342.8130709
407.9655991
475.1320421
556.7089595
645.346811
730.6649282
812.7617321
878.8557819
925.7470534
956.785428
966.89761
966.6523198
955.9219973
932.7682368
907.9478752
869.1135031
817.8282842
751.1482908
670.8658833
569.9689323
444.7212947
101.7456595
103.0773511
104.6957691
105.6800395
106.2873058
107.6658255
111.4945948
113.7113369
116.0752235
119.6335823
127.0013307
134.3020751
144.2453581
154.3209552
171.1761075
192.9990187
217.419918
246.4277175
286.5086198
333.9590128
392.8912796
465.1708932
543.9630971
627.4399509
714.0101584
798.1554239
866.1674958
917.1521759
947.39796
960.3721826
963.0999985
952.0632168
934.345472
906.7881225
869.1892833
819.4619892
754.085142
673.7867004
573.7848224
446.4030274
101.9297194
102.2021486
103.5647461
104.8663041
106.5965666
107.7874122
110.5007044
113.1799472
115.6942887
120.3661777
126.8394424
132.4584508
141.4270015
152.0780012
167.1503762
188.0933652
212.5860786
239.8645782
279.1998767
325.3958494
380.6146162
450.9148675
528.2409004
610.1763377
699.013863
779.4653571
852.1431441
905.9722998
938.0490526
954.3977332
957.0047449
947.4690102
932.2036279
904.947805
867.4806388
820.1116058
756.6320508
675.9516163
576.1922848
448.6011157
101.8149741
102.6392166
103.8086568
104.7894989
105.3068704
107.3315864
109.1769256
111.8352555
115.5104004
119.2215668
124.3669647
130.8749114
139.0845549
149.7341485
164.2935705
182.9286675
206.3515519
231.6027979
267.9132035
313.2406215
365.0272449
429.5042797
505.1679325
582.7549947
670.8629004
755.3080818
831.0944729
888.3360961
926.8246164
947.7320029
950.3273828
943.4177652
928.912108
903.2989073
868.0866849
822.6072878
759.4251027
678.8646984
579.3180126
451.0675961
101.7951516
102.7823988
103.1068817
103.83319
105.3591465
107.3337795
108.9403734
111.9829325
114.5710679
117.2426874
122.5978989
129.8757039
137.1442718
148.8628366
160.505431
174.924275
196.2320774
226.7047236
259.1457562
299.2321968
350.2059735
411.4796893
481.8814863
563.4636874
648.8174582
735.1835417
811.7748073
872.6758729
912.0679334
938.6423122
946.2877986
938.7987932
924.2439677
900.6153582
868.4446006
822.7737614
762.8383812
684.5369539
584.2191173
455.366942
101.6795942
102.6801955
103.3310604
104.2054434
105.089453
107.2874969
108.8345013
110.1507387
113.2318626
116.1492154
120.9913117
128.6498687
135.053479
143.4460245
155.4412475
172.1858624
192.4380999
219.0833887
250.48267
287.4547276
335.5708296
393.9104932
462.7287565
541.7720223
627.3669529
708.9754108
788.2265375
852.1508916
897.4261764
925.4075579
935.5432829
930.6406595
919.4462814
898.5607481
864.9739123
822.0197291
765.1483625
689.2195019
588.8957012
459.7324373
101.1376211
101.7210891
102.1526151
103.1668283
104.5427506
106.3704446
107.612489
108.8317326
112.7972241
115.8457882
120.1543658
125.8528835
132.0326976
140.3857769
152.4265784
168.2010214
187.1475035
208.1341366
237.8168336
278.3352283
323.641463
376.17661
440.5256983
517.5575228
597.5054429
681.9612892
758.8451105
826.5743598
878.5434607
908.3562735
923.5006596
922.9246881
912.696939
894.350522
864.5077768
821.5247677
766.7451359
692.8606984
596.1580432
465.2558963
100.8641742
101.9166564
102.6919608
103.36262
104.3286354
106.348717
107.3227515
109.7185541
112.3346091
116.0694418
119.7161973
123.8066089
129.7845664
139.7907793
150.0076887
163.8238577
179.2760949
201.7052588
231.1381266
263.8471702
308.0873059
361.0790843
422.0584565
494.0334611
571.1102831
650.8771466
731.377391
800.9608876
857.5428988
893.7451163
912.9281687
914.0992981
906.6218283
888.7960711
859.1044597
820.3301552
768.4313766
696.6791286
602.7793142
474.8475271
101.4575539
102.2506181
102.608561
103.5415562
104.0965349
105.920882
106.6654239
108.0082157
111.0463262
114.291795
117.9941688
122.0434094
128.9702777
136.2180523
147.0793252
158.8443254
174.0422287
196.7162858
221.3018942
252.7398223
293.7405188
345.8853005
402.0600297
466.3237981
541.3918794
622.0316722
703.6656387
775.5594723
833.5783295
873.0319146
895.8249946
902.3573873
897.5175828
879.2984954
854.3267064
816.8569903
768.4493019
699.9548617
608.5192179
489.2813105
101.019344
102.140085
102.6948447
103.1169351
104.8448243
106.0055158
107.6662322
108.9954242
112.2089099
115.063565
118.0059575
121.8440957
127.9674094
134.8899636
144.1822826
155.7624769
171.8803989
189.3225666
211.9332381
243.4757316
280.5392942
325.1307738
376.6344386
441.7764746
514.8799052
592.6914693
669.8217346
741.1024182
804.7492199
848.0128318
876.0757284
889.5177036
885.5349337
871.0186906
847.3811733
814.2811517
764.4189703
701.5072692
617.3459538
518.3046541
100.9942726
101.7401824
102.1270565
103.013339
104.3140716
105.1926261
106.8969873
107.8218152
110.4975966
113.7600056
115.6644372
119.5702069
125.4776988
132.9494292
142.2660016
151.523811
165.8120881
180.3913485
202.8559719
231.770791
265.8851409
310.1633332
355.8396565
419.7673967
485.8841831
556.9351774
637.0120551
708.2802438
772.5949524
820.2460634
855.3942332
870.4602386
869.2353863
859.2717327
837.5965842
806.0288028
761.7618733
701.2975132
627.7611652
547.2229673
101.0060181
101.7972412
102.6316713
103.5476311
103.6783416
104.5711869
106.5523454
107.922642
109.3376129
112.2059619
114.8659784
117.0704967
122.4619323
129.2200444
136.7696388
147.6953459
161.2231923
177.1024178
196.0452625
220.9784954
257.107578
291.195156
337.6492512
390.4795389
450.3284237
521.6517615
600.8727353
671.5314009
737.3116984
790.7875044
827.300041
849.3664423
853.053311
844.4161577
826.3351126
795.6881672
754.8468005
702.2498712
639.3261099
572.6729125
101.9396511
101.7525339
102.3659078
102.961896
103.3995539
104.4398206
105.7034853
107.1034403
109.0590387
109.9910785
114.1799165
117.9400046
121.2375394
128.1223393
134.1990901
143.7940272
155.4237095
170.3916403
188.8150943
211.3338991
241.0821387
275.0765199
318.10779
365.6937211
424.5719808
490.0778243
563.390943
632.3614755
703.7505377
757.1174682
798.4499097
822.6698324
833.9666416
828.1615761
811.4847569
786.0699223
748.6234756
701.8887667
648.7596595
591.238238
100.8887951
101.3852518
102.3630719
102.6661323
103.4383202
104.4670929
105.1081341
106.2924399
108.5051118
109.9591459
112.5792551
116.2338727
119.6558933
125.2620387
132.3772356
139.523536
150.1481607
163.6865568
182.0467084
202.5839868
229.7145806
258.9456835
298.0919387
342.5817913
395.5825066
460.4853867
527.3161949
595.3548537
663.3655212
719.0477096
763.7890729
794.9432104
809.8240125
808.3999959
796.029521
773.0828969
742.1874947
700.5537057
656.2425615
604.4635777
101.5409138
101.3514382
101.7832461
102.497295
103.5274236
103.6604995
104.4466668
104.9240304
107.4694534
109.4678091
111.3378565
115.3198416
118.7145069
123.6479846
129.3250684
137.1447635
146.3948439
158.0581161
176.6569785
194.6769626
216.4820674
246.0313412
281.1592382
321.4950366
372.0594316
429.6448235
490.7571158
554.8244623
620.647172
678.4103056
728.7544745
764.1869904
785.8736328
787.0584973
778.5698035
759.0508397
731.3988623
698.0144327
657.2632209
614.2010894
100.9406078
101.0666917
101.613561
102.0608066
103.0807665
103.3345508
103.7121407
105.10137
107.0874689
108.5836091
110.6433443
112.8194912
116.2529517
120.7946794
126.5574019
134.1072459
143.1833188
152.7723896
168.1985929
185.5270433
205.3705699
230.9374522
263.8296367
299.5144141
343.7371756
398.649147
451.1715236
515.3074523
577.8619422
639.2514126
692.1787312
731.8967839
754.6854739
762.7107791
760.6635242
746.3491084
721.8423434
693.1974429
657.5766734
621.2685308
100.8404694
101.093474
101.3388138
102.1964863
102.8038635
103.0503629
104.0051737
104.9519322
106.2438665
107.7969196
110.3462666
111.8451725
114.8649477
119.9393001
125.0309496
129.999628
139.12155
147.1065842
161.7520217
175.3554375
194.6152326
215.9717643
247.6021041
278.8488396
319.8053616
364.6396714
419.3595441
473.7844753
534.6068846
596.2832259
648.8898086
691.5645108
721.2857097
735.387108
737.849243
729.2657522
710.3336064
685.466501
655.9115163
623.8742873
100.8911017
101.3671312
101.6655528
101.930487
102.5988093
103.2337627
103.1720533
104.372759
105.488311
107.0759484
108.8531537
111.2767726
114.7578634
118.7470799
123.1796499
128.2342293
135.2859924
142.3699603
153.6028378
168.2831961
184.787094
206.8138369
230.9126458
259.9108689
295.4516156
338.4512332
388.1292433
441.5151342
496.6698608
555.1019261
608.2922117
653.2972882
685.6626438
705.3628453
714.2388001
710.5337079
695.9696613
676.5925171
652.4843024
623.2883562
100.5225224
100.9220603
101.2381173
102.0281378
102.1410637
102.2258256
103.0507771
103.9817226
104.8211347
106.2956882
108.2492168
110.0952524
112.5353685
116.6513392
121.1171675
125.3021863
131.1727075
138.3980058
147.942078
160.988526
176.7800703
193.6022817
214.7017525
242.9375729
274.633873
314.7106765
355.6725753
404.5394295
455.4777686
512.6962236
561.989465
609.2508402
644.6034242
671.4947676
686.8084473
688.4072423
679.1433196
663.3331396
645.2039315
620.1965391
100.3896858
100.6808552
101.0448266
101.613476
101.4270221
101.8740361
102.9791734
103.8364528
105.0054373
106.7381722
107.9970301
109.2372937
111.7996663
115.1614057
118.6256848
123.185327
129.740041
136.5149449
144.2046825
154.8470612
170.6558725
184.1080303
202.6809663
229.1259875
256.3229329
288.6964179
326.0975335
371.0972959
421.0343534
470.2333253
517.6053175
566.2517709
604.7245507
634.2662315
654.5273045
661.7968027
658.6551307
649.0958584
634.7586724
615.1814169
100.4593001
100.7033756
100.9399418
100.8520376
101.5505132
101.9223587
102.7219264
103.2238229
104.1201388
105.4434502
106.7224885
108.4620357
111.312359
114.1564064
117.3224858
120.92184
124.9699456
131.5004055
139.9978397
148.8441462
163.5267135
175.4085823
192.9402926
210.8217389
238.9037409
265.1338621
299.9250103
340.222546
386.7857107
429.1447409
477.5860922
524.7523195
564.1550061
597.0971539
620.8087122
634.7710952
639.2994439
632.2092883
622.1293495
605.4742053
100.5969529
100.6537371
101.1951492
101.3285038
101.4838263
102.0805562
102.5896251
103.2724968
104.004441
105.36998
106.8243523
107.8944506
110.4334343
112.9994572
116.3548971
120.0774455
123.4571113
128.7282402
136.3554222
143.4748601
152.6241725
166.2650577
180.232733
198.798179
221.1140822
245.3843725
275.4027332
311.2681059
351.9153161
390.0132972
437.1423154
480.3303199
519.1651404
556.3750289
584.1491474
603.351265
611.9151937
612.3310709
606.8364487
595.9462593
100.789522
100.8648226
101.2513073
101.2121003
101.4427351
102.02584
102.5711163
103.0645387
103.6764463
104.8599738
105.7724289
107.5375588
109.0572282
111.7931749
115.2098738
118.3247452
119.7293176
124.456959
129.4550823
138.4776731
146.8274441
156.4971644
170.5594338
186.9372356
206.4859813
227.8097251
255.7539759
285.7383967
319.0917381
355.656253
400.6577563
438.9831367
478.2117921
516.2628627
545.6642539
568.9039151
582.6529553
588.8064355
589.8920145
582.3551166
100.6405566
100.9988844
101.3645428
101.4211163
101.3711329
102.2009376
102.6697179
103.0806585
103.4836964
104.2075441
105.5960867
107.3286691
108.1053186
110.4690576
112.1936753
115.5746929
118.4706672
122.9300083
126.795348
134.2978605
141.2155235
148.533502
163.364334
176.898304
195.0890506
212.4789064
233.7320766
264.7271387
291.9740806
322.1076073
360.5882088
400.0914858
437.2470684
475.2131909
507.7028689
532.2175037
552.1663804
563.2042695
567.2196196
564.4605458
100.8684703
100.9489222
101.1860089
101.0425431
100.993985
101.9910457
102.5625387
103.0317773
103.359394
104.286428
104.6865274
106.0560667
107.1419346
108.7456196
110.6102227
114.0378618
117.0478192
119.6495772
125.3096095
130.048379
136.2260747
144.4905809
154.9509219
167.5976188
181.4816452
197.9143938
215.8990222
239.8565391
267.4021608
297.9047651
329.1937765
362.7500434
397.6942512
435.0027547
468.592293
495.1581524
518.7696958
533.9853464
543.8683029
546.5933587
100.6544967
100.8626959
100.9556344
100.970732
101.4213765
101.2332783
101.7297801
102.6653433
102.8113176
103.2273669
104.5709262
105.2696646
106.1733907
107.9484946
110.3898508
112.2455473
114.7297446
118.819298
121.5813004
125.6659749
132.8321498
139.7140352
148.3489678
159.0296136
171.6187751
186.3868754
201.4909974
222.2520979
245.4400549
271.1246786
300.8430803
328.732926
362.8837252
395.8451386
428.4325978
456.9993331
481.0437339
501.53556
514.6053511
523.6333061
100.394366
100.4573478
100.3608319
100.5660295
101.0180125
101.3530053
101.7052578
102.0473021
102.4081461
103.4346694
103.6990377
104.8860318
106.0129576
107.9985652
109.739576
110.8544835
114.1307611
117.1510528
118.9181745
123.5188126
128.5107388
134.2091136
141.3619787
152.0257134
163.2666903
175.2799157
188.5147474
206.4669436
224.4267331
248.6302471
274.0796686
301.2751356
328.4116947
359.9080617
389.7257004
421.246589
444.58687
468.6145554
486.2251112
496.9017546
100.5975213
100.6289519
100.8400531
100.8157701
101.198074
101.2943455
101.851957
102.2890057
102.1036092
103.0080171
104.1012233
104.2388463
105.0116421
106.7099939
107.5601268
109.7809275
112.1272519
114.4095421
115.6655053
120.0742609
125.8547172
130.7531056
136.396718
144.7450998
152.9377628
165.8833608
177.5039348
193.5626803
208.7588749
229.2228102
249.4435487
274.6214068
298.577471
328.1620788
356.6589915
384.0898306
410.4961823
433.5923928
455.0926712
468.871083
100.458873
100.4036128
100.7697638
101.0883539
101.054271
101.3712644
101.5543707
101.7499282
101.945869
102.6383144
103.057575
103.2602806
104.5412675
105.5395003
106.5844828
108.952247
110.4234954
112.8244649
114.9518339
119.0510058
121.4740277
127.7199868
132.8832104
139.1839874
147.1623266
158.5288818
168.0396878
178.6233119
195.2055815
211.2310731
228.7692534
251.6268891
273.2556293
295.9668086
322.6271997
350.9002634
375.0476383
399.0317068
421.2956119
440.2249865
100.308884
100.4267689
100.5095115
100.5907979
100.920965
101.1840476
101.2763136
101.4394881
102.1275077
102.3257297
102.991264
103.6468489
104.1036533
105.1639149
106.4008558
107.9118102
109.2656362
111.2527257
113.4565715
116.2175074
118.9906969
124.5526764
128.1487672
133.4079863
140.6769796
148.2432377
157.8127223
168.7038719
180.7181727
193.3178035
212.0578874
228.77762
247.6167841
271.0795778
292.5254538
318.4856313
341.4014045
366.313149
386.0867341
406.1586965
99.75812106
99.88491232
100.1043778
100.1791573
100.2970056
101.006446
100.9837228
101.0653511
101.2900375
102.0028365
102.242792
102.8315007
103.3527431
104.5770166
105.6397506
105.7121095
107.2068204
109.2935471
111.7288583
114.0583006
117.5031766
120.7384073
124.7974297
128.6237015
135.3932924
141.7521748
150.5339911
160.3599197
170.9284921
180.2462069
196.3684075
211.5825991
228.9170818
248.0887178
265.3910886
288.1795464
311.6668091
333.1733439
355.2236344
375.6860519
100.1391606
99.82205118
99.86885244
99.86423891
100.3796228
100.8210045
100.6782
101.0925881
101.0107239
101.3009601
101.9469453
102.4661991
102.8730038
103.835202
104.3544655
104.8780174
105.9486544
108.89915
110.5103675
112.3580588
114.9164048
117.1687129
120.4370481
125.4007431
130.3005735
135.9811844
143.3240565
151.6613036
159.9077187
171.3762754
182.6890669
195.8306602
211.6392456
226.4211798
241.7653908
261.113962
282.3823436
302.8910456
325.0155407
344.7708389
100.0647638
100.2232889
100.2169728
100.2373666
100.2625606
100.4107603
100.7085711
101.0226891
101.0445791
101.5978315
101.6523466
102.2646505
102.2932611
103.2888241
104.1254321
104.5599284
106.0812733
108.2216227
109.3414267
110.932459
112.8277295
115.366182
118.9727821
122.4938344
126.6279594
131.0964265
137.3682659
145.0874414
150.8076177
160.8836068
169.4455709
180.5309335
193.9318877
207.2740519
222.756619
237.7942666
256.8991355
275.0585611
295.0539979
314.2995679
100.2038567
100.0638756
100.3071614
100.2789293
100.3111169
100.3927069
100.6322727
101.1560196
101.147248
101.4169367
102.0054852
102.0565336
102.6657246
103.1203602
103.2361841
103.6356611
105.5359147
106.7373125
108.2469316
109.0722625
110.9459555
113.0305692
115.5346417
119.1026497
123.9146858
126.5867262
131.7729161
138.4978227
143.0767535
151.1107262
158.9973447
168.1363576
180.628789
192.3230053
205.9722042
218.7462056
233.7149616
251.0654615
267.917479
286.261258
100.2000431
100.3256288
100.3924819
100.6377772
100.669454
100.4431502
100.4139345
100.5939299
100.9073194
101.399319
101.6208211
101.8358221
102.3581547
102.49303
102.9066057
103.6209679
104.9448408
106.4929289
107.7710715
107.7548034
109.2730116
110.9606154
113.6745089
116.6895086
120.2995991
123.1316994
128.117127
133.6243701
137.0922495
143.8960377
150.8763962
159.0308159
168.7165194
178.3777036
190.5388215
202.7148286
216.6978618
229.4668419
244.7712636
262.5863704
99.97129159
100.1347886
100.1534009
100.1172084
100.3211219
100.4640935
100.4717407
100.6246373
100.8807436
101.3056309
101.427127
101.8582768
102.2147379
102.4157775
102.8649297
104.0866001
105.0417506
105.5798395
106.2290854
107.2369651
107.6693004
109.4515462
111.8794073
114.8429888
117.2804307
120.0807981
124.1203623
128.2525532
132.8761667
136.53899
143.476765
150.6625942
158.7613459
165.6592458
176.2418083
187.6173563
198.7241601
212.5506675
224.8966733
239.3563632
100.0482053
99.99659617
100.1195792
100.139872
100.2981527
100.4523495
100.5854176
100.9522325
101.2366202
101.5353548
101.7163158
101.76189
101.8949309
102.1481025
102.720682
103.5115327
103.5224296
104.0158322
105.2424319
106.0365252
107.4760094
108.853681
110.8374053
112.2362861
114.5919706
116.7873373
119.5771496
124.0367611
127.6623121
131.6272155
136.1732022
143.3359877
149.4249024
156.1667018
165.1033736
175.3713254
184.1890547
195.5594203
207.4361775
220.0683194
99.82693593
100.0598142
100.0526134
100.2608462
100.5105988
100.4053346
100.3937884
100.4702696
100.5354918
100.9371275
101.0298305
101.2501461
101.6702643
101.7972815
102.2580286
102.2805169
102.2562292
103.1146336
104.9558442
105.6321983
105.9920619
107.7715967
108.8690338
110.0001484
112.9565425
114.4247985
116.9792662
119.7600501
124.7998436
127.7679207
131.2863639
136.2479212
141.6094709
148.1988468
154.3172495
162.460159
171.8420973
180.5420873
192.0801153
201.5552125
99.75949136
100.0440382
100.1533068
100.1233799
100.1857143
100.1755917
100.1047673
100.3344286
100.3722179
100.4351003
100.5641179
101.0062519
101.3860557
101.4402278
102.0548386
102.3867428
102.6636731
103.2899351
104.2584186
104.5865948
105.9585046
106.8430899
108.2471107
108.7821514
111.3579718
112.8217242
114.6746457
117.4530433
120.3411366
123.7826008
126.9559445
131.3086561
135.6316348
140.5417824
147.0774345
152.4239778
162.265555
168.8375665
178.6376783
187.9926119
100.188049
100.0123427
99.76558774
100.0676732
99.86797776
99.950716
99.99444812
100.0589637
100.4124278
100.5323672
100.8552371
100.8427916
101.2156616
101.4733801
101.7896843
102.1632043
102.393496
103.1978464
103.3036625
104.0504799
104.7353393
105.6521194
106.8282328
107.5721935
110.1217649
111.6430412
112.9340234
115.7252873
118.0269391
120.8606578
122.8346165
126.836204
130.5070087
133.3987891
139.3488403
143.8261973
151.2082437
159.6289311
166.4129869
175.4675124
100.4041954
100.4572477
100.4237537
100.449171
100.6801142
100.6488944
100.5708663
100.5911393
100.7867999
100.6532003
100.6607293
101.1879445
101.4697519
101.6023314
101.7890285
101.8260754
101.9525341
102.6824131
103.0419645
103.9102618
104.7572321
104.9374334
106.1748141
107.052427
108.6439252
109.566121
110.7397234
112.5406168
115.1429593
116.126793
119.8646444
121.9211763
126.1979397
129.0750424
133.4183757
138.1069368
143.7690973
150.0854532
156.4362666
164.5381092
100.0119368
100.0695923
100.3298675
100.4780679
100.5961249
100.5284368
100.5870136
100.6490527
100.6462613
100.6333216
100.8759839
100.832208
100.8194773
101.0878133
101.2483813
101.5426669
101.926819
102.220021
102.706256
103.2919696
104.0093777
104.4821321
104.939444
105.999563
106.9026141
108.189453
109.364873
110.9997351
113.1608161
114.553053
116.8814724
119.3056202
122.0949512
124.2108653
128.3995228
132.0385372
136.3988278
141.9609099
148.1587996
153.7832759
100.1553975
100.2862854
100.2402087
100.0834669
100.2740583
100.5242556
100.5116891
100.6347575
100.70281
100.5866417
100.6800698
100.7188432
100.7900064
101.1743146
101.3445321
101.4223881
101.7407572
101.8154387
102.4249382
102.7086992
102.9723242
103.8293004
104.2222766
105.3180337
106.3566525
107.2476992
108.1603041
109.6882612
111.1886869
113.4564242
115.2532425
117.0169956
119.5323655
122.0600833
123.72977
126.9269973
130.9742559
135.6827067
140.6553635
146.2789151
100.1410248
99.96713591
99.87676848
99.80498395
99.94583759
99.76429257
99.91312123
100.0110183
100.0559828
100.3777481
100.7614445
100.8724605
100.9768711
101.0318697
101.3253288
101.5684415
101.6565543
101.760375
102.1214567
102.8511243
102.8307103
102.7785514
103.8006266
104.351505
104.9191552
105.8478447
106.5834419
108.303738
109.8718277
110.7503788
112.6288982
114.3644078
116.5219104
118.2508996
119.8835347
122.5571785
126.1338835
129.5226911
133.653353
138.7468743
100.0098139
100.1584576
100.2027367
100.2593831
100.4586175
100.606484
100.6914956
100.4705357
100.5793145
100.6267161
100.4584793
100.48118
100.474078
100.4516029
100.7504717
100.9594116
101.1241799
101.0892555
101.5289577
101.9523355
102.5408912
103.0140374
102.943351
103.3417654
104.4630724
105.0055158
105.9841204
107.4098857
108.1957651
109.215801
110.2453754
112.4457589
114.4112707
116.5837216
117.2862351
119.2418178
121.9899746
125.3547471
128.7033194
131.5472454
100.1265058
100.100172
100.1694958
100.2392221
100.2407785
100.1783209
100.505251
100.3985648
100.4404451
100.491903
100.3262139
100.5028179
100.8151916
100.807754
100.765734
101.0578299
101.0594092
101.3240097
101.5324789
101.8239324
102.0906416
102.4070026
102.5044498
103.1421436
103.9365036
104.7102883
105.3138179
105.9641378
107.1155909
107.7885566
108.6099343
110.0777674
111.6205018
113.6412411
114.8942123
117.1214155
118.6537857
122.2191225
124.6941293
126.8221751
100.1137653
100.2125053
100.0099053
100.1442348
99.92763264
100.01593
100.0958215
100.2859227
100.3481033
100.4155289
100.3370467
100.568275
100.642782
100.6923273
100.690741
100.7410069
100.7016702
100.9348025
101.5222204
101.6707919
102.3194947
102.405506
102.4122304
102.614543
103.0052629
103.8187505
104.199563
104.6351062
105.8264853
106.138976
107.3201523
107.9846035
109.7716647
111.591436
112.2991622
113.6421051
115.6646444
118.4497647
120.9982716
122.2180524
99.9142064
99.95351459
100.099682
100.1744362
100.065006
100.1875544
100.087362
99.98711945
99.94805956
99.89395734
100.0768244
100.26404
100.4187437
100.5856554
100.3917001
100.6930006
100.5815158
100.7847757
101.2505516
101.4111515
101.9201351
102.196665
102.2260198
102.4285179
103.1889073
103.1312606
103.4257846
104.3057343
104.9120729
105.915624
106.6483306
107.1798476
108.5429399
109.6610517
110.9953537
111.516324
113.6383612
115.8242105
117.4366876
119.255838
99.88466419
99.87710815
100.0137801
99.9519979
99.9964845
100.1168205
100.1438222
100.1206977
100.2356945
100.0548694
100.1963006
100.3305678
100.1980573
100.3420284
100.3117865
100.5334998
100.6113672
100.6811131
100.684982
100.9194539
101.3899423
101.681562
101.5834467
101.9460492
102.5804735
102.6321133
102.9456462
103.4056517
103.9516085
104.826904
105.163579
105.5447566
106.9564188
107.4834034
108.8754862
109.7072751
110.7621494
112.6605253
114.273794
115.3571823
472.4209126
465.0682768
461.0876816
459.6301179
458.2045929
457.5393752
458.9185852
458.4574255
457.5731011
457.7289331
458.9088306
456.5044024
455.2494724
456.9616603
455.7647737
457.3152106
457.6068339
453.2123205
456.1978174
455.6593729
455.4655906
456.443067
454.933121
454.1380712
452.8949555
455.4902263
453.3121823
452.4804168
454.9010293
454.6296267
454.8744296
453.9999068
454.9119254
455.7496673
454.6810212
452.8562949
451.1926732
451.4055893
448.2239174
426.1063243
489.8811233
472.2051941
470.55786
469.9611308
473.1024731
473.1888402
472.9869698
472.2215174
472.2475698