/*--------------------------------*- C++ -*----------------------------------*\
| =========                 |                                                 |
| \\      /  F ield         | OpenFOAM: The Open Source CFD Toolbox           |
|  \\    /   O peration     | Version:  v1706                                 |
|   \\  /    A nd           | Web:      www.OpenFOAM.com                      |
|    \\/     M anipulation  |                                                 |
\*---------------------------------------------------------------------------*/
FoamFile
{
    version     2.0;
    format      ascii;
    class       volVectorField;
    location    "0.004";
    object      U_Ar;
}
// * * * * * * * * * * * * * * * * * * * * * * * * * * * * * * * * * * * * * //

dimensions      [0 1 -1 0 0 0 0];


internalField   nonuniform List<vector> 
4000
(
(999.2432409 -0.1520606767 0.1379429196)
(998.6178367 -0.3422416194 -0.1524592743)
(997.2370186 -0.09079407025 0.2414609669)
(997.4913472 0.2301400804 -0.05108412292)
(996.8391339 0.9357535543 -0.1714646223)
(994.9343712 0.1255697855 -0.145760837)
(994.0267519 -0.5387821363 0.003009822228)
(992.3205509 -1.325288654 0.08134849757)
(989.101165 -1.573445738 -0.2270348422)
(985.7221981 -1.539785583 -0.02035870446)
(983.1013688 -1.385961279 -0.1327231654)
(976.5377226 -1.377692051 -0.263121659)
(970.2114817 -1.36656424 0.0598310602)
(963.5977737 -1.012094572 -0.03372322188)
(954.3791663 0.8238551396 -0.2076960288)
(940.0513992 -0.3087719061 0.1816303724)
(927.5413625 -0.5105853904 0.1953650798)
(907.3231482 -0.4682661226 -0.2094929278)
(884.4022671 -0.1428083365 0.2202105899)
(849.6204569 0.134479884 -0.1890400321)
(815.5527507 0.7295862297 0.2151586388)
(771.8440696 -0.2081332655 0.09001080504)
(721.3492435 0.7490579791 -0.1982577622)
(660.9125796 1.655290479 0.1977183543)
(593.0477799 3.042360932 -0.1083112533)
(519.2990931 2.607223306 0.0007760252014)
(448.3726736 5.231188428 -0.1227796446)
(383.7487984 5.177578885 -0.2633904047)
(322.4097984 6.980095183 -0.05233211816)
(268.3813628 6.561193065 0.1527250662)
(222.450146 7.144796875 0.08255601771)
(185.2220529 6.621258068 0.2055934035)
(150.8202149 6.998940596 -0.5120775767)
(120.8226426 6.327046243 -0.3333893649)
(93.87990153 7.311776555 -0.02821425258)
(67.94566394 5.052503895 -0.2384437194)
(44.961896 6.121664575 0.185430513)
(25.7934999 3.996785208 0.05691084737)
(11.94820716 2.955998781 0.08428426381)
(2.618014293 2.021866092 -0.001619960896)
(999.2405296 0.5238817131 -0.02638118364)
(998.7642273 0.7434573475 0.03587033713)
(998.5069484 0.3472305132 -0.2807536797)
(997.7388361 0.1877782211 0.2044303315)
(997.0684156 0.1790791327 0.1049579781)
(995.5256676 -0.3708897537 -0.09354946235)
(993.7122782 -0.6733684095 -0.222792947)
(992.3734093 -0.7694405312 -0.054184528)
(990.7634557 -0.7121133284 0.1045047795)
(987.5623549 -0.4804558868 -0.1305166965)
(983.7729733 -0.6214621859 0.08092104582)
(979.1189907 -0.8226782208 -0.1233842912)
(975.0241108 -0.8854989348 -0.1469683199)
(966.6072467 -0.3418891213 0.2718710625)
(956.4023083 -0.4252814863 -0.01019857552)
(944.3638132 -0.1852586707 -0.2547613784)
(929.788506 0.2492418539 -0.1143693297)
(909.7456766 0.1479630931 0.01167512879)
(886.2381954 0.8077654125 0.0673670399)
(858.0437999 0.8982187593 0.1240946747)
(821.2576207 1.323410828 0.1010539851)
(774.5048634 1.71221047 -0.1153011125)
(722.3794958 3.131557371 0.07615775416)
(660.2833674 5.078407729 -0.07281995811)
(591.0167121 6.210064092 -0.006363107973)
(518.1917929 9.479793302 0.1103347118)
(446.0905121 11.1248204 -0.1052989826)
(377.140597 11.79928703 -0.04126626417)
(315.9979513 13.79216889 0.1449505809)
(263.990904 15.22548639 0.01639658708)
(220.1717172 15.43701693 -0.1128893298)
(181.870851 15.71641609 -0.07258918003)
(149.1996731 15.46074121 -0.04116627355)
(120.2377102 14.45628907 0.06753281296)
(93.16976789 15.44014475 0.04618500453)
(67.44637966 13.11345908 -0.1936613538)
(44.65312046 12.75135844 -0.03170650003)
(25.51853643 9.758116727 0.02456867604)
(10.35316577 7.53819004 0.08935737229)
(1.964643561 3.98882307 0.02065467947)
(999.4547245 0.2057269479 0.1254316731)
(998.9416139 0.02410701363 0.02167155906)
(997.8070509 0.009431854691 0.03011039436)
(996.7615998 -0.1662196167 0.04899973133)
(995.7277436 0.3096621127 -0.1441070461)
(994.4052167 0.7433667647 0.3021832312)
(993.0993513 0.9011834416 -0.04769141537)
(992.3190907 0.8698829613 -0.2195739331)
(990.5929233 0.6432522398 -0.1283832752)
(988.5807272 -0.149952753 0.2021371703)
(984.8640668 -0.08444539005 -0.03611490926)
(981.1285019 -0.3334246651 -0.08422286829)
(976.5332999 0.1203384684 0.05663611938)
(967.9261625 0.3523314865 -0.2149490442)
(959.3537417 0.7003102843 0.5268123899)
(947.3750383 1.024337321 -0.01854324695)
(933.4432365 0.5181839781 -0.02838059503)
(915.7797732 1.781706057 0.09262363025)
(892.2670832 2.361102585 -0.101149437)
(862.8401105 2.731402867 -0.1395046841)
(825.1812086 3.585694026 0.166340483)
(779.189626 5.650503594 -0.01636171686)
(725.8950309 6.562389345 -0.1687163867)
(660.3820233 9.354969416 0.3311957386)
(593.1350177 10.10749477 -0.0324723746)
(520.1553315 15.35203286 0.01492425004)
(445.0065078 17.46230721 -0.0952216107)
(376.1611641 19.20741112 -0.3557544397)
(316.2610645 21.63839801 0.03323894568)
(263.5146653 22.81626503 0.07209915223)
(220.5673434 24.14744884 0.1733819613)
(183.3761768 25.15852343 0.1190838163)
(150.0178449 24.38920486 -0.220961685)
(120.3191139 23.86578524 0.1996296254)
(93.05373214 24.26228103 0.02907043466)
(67.93509812 22.26584695 0.1171091426)
(44.49345498 20.71999585 0.05009534888)
(24.59341039 16.69406752 -0.108697447)
(10.60017967 12.81691179 0.004560808794)
(2.109099631 6.076162466 0.05439012083)
(999.3785444 0.3086299391 -0.04444409086)
(998.977877 0.2885655202 -0.1492965157)
(998.5964199 0.2198993428 -0.1832563807)
(998.0762121 0.04824753689 0.3089141607)
(997.0896215 -0.2165249498 0.2086500045)
(995.8526714 -0.4850850729 -0.02110272604)
(994.0346169 -0.2854863032 0.3706425492)
(992.954103 -0.1384821671 -0.06033269188)
(990.630566 -0.02658198792 0.04554431987)
(988.2025003 0.4107340551 -0.2306611852)
(985.3819302 0.7297769589 0.06800750776)
(982.118294 1.135368432 0.1622315657)
(976.994136 1.493213987 -0.4240764179)
(968.9362549 0.9148840827 -0.1364028475)
(960.6803204 1.205521073 0.2739270291)
(951.3578466 1.372268863 -0.05131555296)
(937.4600252 1.750549295 0.5088204273)
(918.7648599 2.016402816 -0.3806887793)
(895.0947365 3.56692417 -0.07178280243)
(865.7113765 5.552319934 0.0527338512)
(828.9206987 6.332811546 -0.1695090938)
(782.3979125 9.475152203 0.02254623007)
(728.4186254 10.64059331 -0.06455402923)
(662.5240106 13.95445004 0.4659519274)
(596.4182313 16.86818115 -0.1565639267)
(522.5362519 21.60411427 0.05140903697)
(448.9659772 24.30451547 -0.187307328)
(379.3750551 28.12714988 0.2072656916)
(319.5666827 29.71864266 -0.08639217333)
(266.5566128 32.00627367 -0.03932512732)
(221.5721856 33.35544242 -0.1599055597)
(182.6920462 34.71358632 -0.06968613194)
(149.4175377 34.51032849 -0.1156991682)
(119.8331098 33.23111555 0.0969287561)
(91.7757477 34.01302176 -0.2023787897)
(66.39596963 31.42107563 -0.02689278405)
(44.03945137 28.13233849 -0.04776374386)
(25.33530236 23.12234845 -0.06800077617)
(10.55972844 17.62946156 -0.04004249368)
(1.832261208 8.24339323 -0.07313141339)
(999.0808128 -0.5914848342 0.1838287943)
(998.1848304 -0.7364971633 -0.4288142781)
(998.0703365 -0.5343958205 0.154210049)
(997.4837934 -0.2065563557 0.4226582409)
(996.9724857 0.1898186159 0.02107661209)
(995.7661694 0.1841011629 -0.169544441)
(994.3408407 0.09544271714 0.03601276791)
(992.8297834 0.3769763455 0.2062894611)
(990.9801501 0.3912842755 -0.2407833219)
(988.5911418 0.6225265577 -0.08781571956)
(985.4720555 0.8273139559 0.09475929018)
(982.3129677 0.9215814061 0.203662992)
(976.7963931 1.268260418 -0.4210069353)
(970.3648706 1.637519399 -0.04366514319)
(962.1000281 2.14782581 -0.1082396119)
(952.0770358 2.775717355 0.1739542351)
(937.4410726 3.978989578 0.1919818694)
(919.8803082 4.559184377 -0.1624983302)
(896.2099448 5.376870721 -0.1871956158)
(866.4326133 6.934064849 0.1234551941)
(828.7666908 9.630828228 0.1398618524)
(785.478669 12.21290395 0.07360931147)
(732.1085028 13.4262058 -0.08532337759)
(672.0995209 19.48421246 -0.200603131)
(599.68529 21.3050396 0.3053436263)
(528.7235346 26.84138315 -0.2833719241)
(454.2337039 30.81283726 -0.03240258494)
(383.9163726 35.13019729 0.01350828971)
(321.2312805 38.80452962 -0.2922639674)
(270.3533177 40.87969788 0.1025152192)
(223.2967323 43.25030053 -0.1833658999)
(185.775171 44.12987163 -0.03835862226)
(151.9533832 45.44716186 0.3206967077)
(120.7070038 43.29237714 0.1398921614)
(93.41491522 43.20055627 -0.01296457706)
(68.67580984 39.88766695 -0.1516713686)
(45.21489844 36.47298685 -0.08032145701)
(25.66882625 29.88730929 0.05950029149)
(10.70433127 22.40368527 -0.002707178005)
(1.949150703 10.75535058 0.03282352512)
(998.9708574 -0.3050013626 0.2139132795)
(998.5430236 -0.1999766039 -0.08098669545)
(998.3459797 -0.2576775869 0.0559049529)
(997.7677371 -0.04328050187 0.3189165469)
(996.9185921 -0.182546115 0.01672033475)
(995.9321532 -0.3976425434 -0.07307537314)
(994.9913009 0.054841495 0.03807649725)
(993.0160704 0.1994565091 -0.193963188)
(990.6223548 0.07533383578 -0.07382886545)
(989.0849441 0.6623869962 -0.0379867174)
(986.3023834 1.406895596 0.04371374624)
(982.2877142 1.445254292 0.03547843553)
(976.6478024 1.8658487 0.2981543772)
(970.061438 2.301397701 0.2428963411)
(961.5288088 2.46111222 0.09649862316)
(950.8584263 2.9856014 -0.05615649564)
(938.8313125 3.935953625 -0.4882659294)
(920.2626206 4.995969456 0.2598567357)
(897.4868672 6.850635861 0.3218522257)
(869.5368104 8.852112722 0.3585694858)
(835.2929865 11.63076458 0.1244943994)
(792.670311 14.96478043 -0.3422669435)
(736.7862533 17.72639815 0.2463569123)
(677.8404351 22.944109 0.3148095008)
(607.5299103 26.95740906 -0.06674234922)
(533.7192047 32.41783278 -0.3775809976)
(458.6917439 38.16346736 0.316657477)
(388.7881492 43.81612951 -0.01155380056)
(328.0517139 47.90685396 0.2894481321)
(273.2347658 50.58228583 0.2385758733)
(227.0956642 52.79126525 -0.2881475728)
(187.5477094 53.39753276 -0.1025114603)
(153.1744585 54.76877158 -0.2926449913)
(123.0146 54.59465204 -0.02056134278)
(94.12673598 51.64487107 0.1330754218)
(67.9775659 48.94715255 0.00207102999)
(44.74219313 45.00686672 0.08685172888)
(25.01597699 36.73187259 0.05108696304)
(10.77812902 27.26991342 -0.04355301619)
(2.463343205 13.45120111 -0.02779670214)
(999.7820417 -0.1195065185 0.02032876851)
(998.8377213 -0.1315436066 -0.3080258643)
(998.0337977 -0.08341171982 -0.6321388941)
(997.2608705 0.101076975 0.08249255495)
(996.9817883 0.4434805678 0.4719053894)
(996.2324062 0.3510600939 0.3099034158)
(995.0001183 0.8448692577 0.09241215703)
(993.5157092 0.828372093 -0.06015598859)
(991.3299495 0.873423043 -0.1566303228)
(989.5295768 0.8986045438 0.08804232631)
(986.685733 1.13062805 0.2530194477)
(982.8814672 1.538034928 -0.09475943074)
(977.8111244 1.060581459 -0.8666031804)
(971.584248 1.458744848 -0.2717823169)
(962.9008117 2.77620579 0.3881091942)
(952.992998 3.451152289 0.2362768027)
(939.6313771 4.817503792 -0.4840237828)
(922.3193333 6.423646442 -0.01660432275)
(901.0647003 7.67591429 0.09876686766)
(873.9025924 10.44224441 -0.137626195)
(839.8536696 13.60583923 -0.2843375555)
(794.973615 16.95698753 0.2741180912)
(743.0919583 21.33992775 -0.9917133802)
(682.622695 26.73203009 -0.1026503817)
(612.9707663 32.26189992 -0.02580834656)
(540.4732333 38.77454817 0.3521628815)
(465.3435758 45.21582644 -0.1752466327)
(395.7720883 50.34126797 -0.3770641022)
(332.113862 56.5542796 -0.2371571162)
(277.1485323 61.44253091 0.2040095645)
(230.9708875 62.57483321 -0.1117566512)
(190.9167546 63.97329776 0.180186935)
(155.9772757 64.87558168 0.003454819092)
(124.3580305 64.89375336 -0.1040312046)
(95.55289189 62.23448854 -0.2234265276)
(69.52595306 58.63314987 0.2389913037)
(45.72205205 53.65288235 -0.2530905015)
(25.81388704 44.02531411 -0.2185778445)
(11.09672751 31.96495207 0.04608769318)
(2.068910241 15.87101642 0.05896472812)
(998.6228906 -0.3603022767 0.3593479839)
(998.4294738 -0.3084156623 -0.05743679309)
(997.988084 0.03708060052 -0.4620585969)
(997.3561387 0.2995380371 -0.301178936)
(996.7939029 0.6352739032 0.2286348939)
(996.0083026 0.7550733699 -0.05499842745)
(994.9655658 0.5122898226 0.1932672146)
(993.7018272 1.024648098 0.336670595)
(991.7441398 0.605850439 0.1097793678)
(989.666974 1.069253119 0.2814369602)
(986.9708287 1.067396592 0.1166675166)
(983.4011945 1.561363943 -0.1648108209)
(978.5987752 1.488879077 -0.3156282583)
(972.4359774 2.485652591 0.1274247805)
(964.6532229 3.188813922 0.3572986223)
(955.2390359 4.902532033 -0.2274227548)
(941.9530624 6.574738497 -0.4884700181)
(926.0885585 7.327659206 0.2770186482)
(904.7736294 8.407875268 -0.3787162305)
(876.6403939 11.87150345 -0.297231164)
(842.9973115 15.51604758 0.1767441531)
(801.0718674 20.10662347 0.6840334522)
(751.6479162 24.5258205 -0.1931314823)
(691.0722075 29.91996327 -0.05759540031)
(622.5963846 36.16411358 0.2880580749)
(549.4759978 44.49427741 -0.1206798393)
(474.6586033 52.61558688 0.1410339776)
(404.4554848 59.8955786 0.3998698678)
(340.9800362 65.15239217 0.05484735274)
(285.7570082 69.57440352 0.06858875604)
(237.528751 73.82827174 0.1938232984)
(196.0832767 74.29900665 0.06852471913)
(160.6776428 75.27089259 0.1437498077)
(128.6606028 75.19924775 0.1986107713)
(99.44578666 73.02147531 0.1055158008)
(71.39078459 68.20609279 -0.1973419239)
(47.68344102 61.56206323 0.1963713705)
(26.94404765 52.18542938 0.349114964)
(11.22312612 36.64490069 0.0359427974)
(2.28990389 18.54831164 -0.05102432805)
(999.2967976 0.3645225367 0.4413060815)
(998.8038083 0.3466204148 -0.01115758732)
(998.214214 0.1840334191 -0.09825139296)
(997.4931539 0.09771537564 -0.1121681722)
(996.6917602 -0.01583223419 -0.3248954949)
(995.7592407 -0.2597742833 -0.166228651)
(994.3884552 -0.027344126 0.2838403626)
(992.9942065 0.5963191346 0.1135671244)
(991.5909325 1.111957405 -0.07271727429)
(988.933411 1.513350689 -0.3190142995)
(986.682821 1.746393962 -0.008195458193)
(983.3834339 2.23953234 0.2504302887)
(979.5792666 2.74261412 0.007319014293)
(973.2982197 3.027602135 -0.1363112595)
(965.9486225 3.552830027 -0.06237752783)
(957.5406668 4.252011749 0.2004689502)
(944.4168304 5.397605736 0.1433660097)
(928.7187415 7.09650149 0.2333834594)
(908.1201116 10.52871283 -0.1626724217)
(882.9876308 13.14841516 0.3977320928)
(848.7697619 16.82492543 0.3420693339)
(805.9024944 21.0961813 -0.06104527965)
(755.8794729 26.45913629 -0.5004547942)
(698.1387181 33.69646389 -0.452362197)
(631.1998693 41.82763199 0.5568747784)
(559.6714735 49.55677646 0.5561151897)
(486.1658772 58.43178466 -0.7314030894)
(413.9029731 67.71426697 -0.3305075885)
(349.8835475 73.71053097 -0.3259138841)
(293.3314583 79.14277209 -0.0861079671)
(245.6636183 83.43982743 0.1551013365)
(202.0530784 85.81294046 -0.2887976412)
(165.4604539 86.21810236 -0.214817175)
(132.3540373 87.04159302 -0.1107368605)
(102.0191633 84.42622643 -0.1624185935)
(73.98733591 78.2113594 0.07949646434)
(48.42264125 71.01564342 -0.2560271749)
(27.29514628 59.58862274 -0.1229483199)
(11.81111377 42.80129224 -0.01505983589)
(2.218066016 21.14177976 -0.1128920614)
(999.1272984 0.5583985241 -0.2407042011)
(998.9857004 0.7498488473 0.1990445266)
(998.709345 0.5756036346 0.1974495007)
(998.0772037 0.5563171048 -0.01088708886)
(996.9146706 0.5796036412 -0.01411016441)
(996.4502906 0.7937365932 -0.05324173873)
(994.954527 0.4073595731 -0.114824887)
(993.8076201 0.2457314572 -0.2257140715)
(992.4267962 0.3645751839 -0.1102573824)
(990.2136225 0.8084779156 -0.177969668)
(987.2420105 1.029306854 0.01561761749)
(984.8291069 1.43779492 0.2314977286)
(980.5524444 1.96209881 0.07967910078)
(974.8114635 2.854321446 -0.2173135972)
(967.4311904 4.150911433 -0.1006310747)
(958.6773544 5.504158679 -0.1805104334)
(947.3376554 7.157320264 -0.8048314135)
(931.6614095 8.859163459 -0.1021053912)
(912.3620417 12.30022603 -0.04110591516)
(887.2809517 13.93724972 0.2829654444)
(854.3133485 17.76980229 0.03798865825)
(813.2094592 23.05434844 0.6238877277)
(766.2319455 28.61355813 -0.3924388416)
(709.4434145 36.06888065 -0.1085278201)
(643.8760461 45.91812822 -0.3113474229)
(570.5848814 55.67329039 -0.2020166818)
(496.6690338 65.16890511 -0.117446802)
(425.2156883 75.02209214 0.2271940026)
(360.2281711 82.54065702 -0.2964980606)
(300.9803908 88.20211998 -0.7752961519)
(250.8497091 92.84658879 0.02724755845)
(209.2204055 96.66829018 -0.006327464479)
(171.0009975 98.40473635 0.3570024285)
(137.7577282 97.98778588 0.4380006411)
(106.4211718 95.37328514 0.0629434396)
(76.81208666 90.38926014 -0.0522475964)
(50.72244031 81.17189619 0.1175280572)
(28.8924971 67.30416123 -0.03164485873)
(11.8193876 48.2077997 -0.05791928939)
(2.159483098 23.70470499 -0.05928169447)
(999.2307179 -0.3247764754 0.5275794897)
(998.5461785 -0.4315485895 0.263010086)
(997.8341225 -0.1342889187 -0.2746492177)
(997.5710691 -0.0384292346 -0.4742246956)
(996.9359399 0.0008618342778 -0.3437789102)
(996.4459939 0.2668725134 -0.2003294435)
(995.8145548 0.4405854173 0.2263780839)
(994.0808908 0.4465246242 0.00907709401)
(992.768228 0.8732613968 -0.3073387434)
(990.8004655 0.8961318523 -0.7231636281)
(987.9141358 1.129802199 -0.3271405097)
(985.2260434 1.56662962 0.2326203191)
(981.4045795 2.200792962 -0.05221176717)
(975.9096614 3.253230428 -0.05247965119)
(969.0908154 3.879537021 0.1843986538)
(958.909575 5.267911421 0.2141366551)
(948.3431505 7.890305111 0.08910082844)
(932.1024164 8.8663438 0.1086098758)
(914.3121628 12.20051663 -0.2363575941)
(889.8273573 15.67709188 0.06758676532)
(859.1774807 20.48177711 0.02451728416)
(820.7599076 25.94348999 0.07116999861)
(772.7541238 30.59244152 -0.2937635285)
(718.9458882 38.88715892 0.009229232309)
(652.6567771 48.69766051 0.1768738193)
(583.8472394 60.16391136 -0.04509679459)
(511.2331029 70.15433184 -1.469555807e-05)
(440.0288772 80.99523336 0.1277754556)
(373.0618131 90.56078668 0.1777463124)
(313.007822 98.6931248 -0.06406381507)
(261.6470229 104.1188926 0.4371713681)
(217.1052886 107.1946937 -0.2143558539)
(179.010521 110.4035832 -0.1193973104)
(143.5869338 110.4487868 0.006119044441)
(111.0002839 107.4145441 -0.32144531)
(81.81288624 101.2109846 -0.2649917936)
(54.70019473 91.9614405 -0.3344412285)
(30.32523573 77.03780451 -0.005495395424)
(13.23505397 54.67650809 0.09419397867)
(2.531244194 26.90679971 0.2691599652)
(999.183313 -0.00513899701 0.1919470816)
(998.9606422 0.03866901399 -0.1579272521)
(998.2668774 0.09634728795 -0.3588700928)
(997.9502704 0.3230833033 -0.1759775773)
(997.2958703 0.4495335605 0.2004128807)
(996.116998 0.663527228 0.1157374125)
(995.4326192 0.5441975594 0.350591983)
(994.5985956 0.6052684235 -0.07335312217)
(992.7403268 0.8877605651 0.04563221844)
(990.7457119 1.260578458 -0.05444847947)
(988.4134914 1.612809808 -0.3270723431)
(985.9902304 2.278640502 -0.3534322803)
(982.3267456 3.031411689 -0.3324435166)
(977.1438777 3.267716806 0.2382231945)
(969.7789428 4.768726732 0.6136223452)
(960.2821157 6.036781834 0.2118018206)
(949.1922846 7.609096029 0.161249226)
(934.4518332 10.02494324 -0.2532427137)
(918.0270575 12.47008599 -0.2558028726)
(893.2390446 16.22696278 0.1315518869)
(864.4874482 20.85529612 0.2774226649)
(827.4162585 25.35820437 0.09247128549)
(782.8384133 32.70801914 -0.4277160255)
(730.5401049 41.3153245 0.5889390455)
(666.8186324 52.29418275 -0.1491827815)
(596.9671777 63.95740754 -0.04963000564)
(524.8066222 75.04701899 -1.226282712)
(452.5347953 87.67500598 -0.35989952)
(384.8901361 98.53791522 0.3784359059)
(324.688918 108.0027226 0.2376350613)
(272.738235 114.4752572 0.1687747734)
(227.2863968 120.3632859 0.12164073)
(186.4150759 122.0314318 -0.1281234824)
(150.5492858 123.1766071 0.1260037547)
(116.808465 119.0461494 0.2672235956)
(86.23116304 114.1388837 -0.1129320612)
(58.27654675 103.3424588 0.1808345785)
(34.46748694 87.49634732 0.2201689511)
(14.34449622 62.22956904 -0.1184334213)
(3.020159758 30.90603638 -0.02941648572)
(999.4620873 -0.2158481623 -0.428887177)
(999.0370529 0.05907923773 -0.3440265856)
(998.4624095 0.2756203864 -0.146654212)
(997.8493805 0.5223146529 0.0721951191)
(997.2250771 0.4127121183 0.4006992611)
(996.3739894 0.3011125825 -0.2954673454)
(995.6107937 0.8383255941 -0.6150307669)
(994.6105329 1.161520662 0.05268105448)
(993.107404 1.39485382 0.232879255)
(991.5482007 1.760554475 0.03225118527)
(988.761592 2.165715412 0.1532720088)
(985.5794579 2.668093402 -0.01194261114)
(981.5589647 2.950587184 -0.3225260432)
(977.4867197 3.718052213 -0.5014905749)
(971.9853761 4.468436298 -0.3430115264)
(963.8604847 6.283786739 0.2617593775)
(953.0721019 7.441115511 0.4644536098)
(938.6685031 10.00185638 -0.3509437527)
(921.7552988 12.67951185 -0.4672073871)
(899.424694 16.55201239 -0.6873081017)
(869.6823146 21.55745448 -0.8357214241)
(834.6833799 27.62105334 0.02562710621)
(791.8287738 33.88081597 -0.2886132572)
(737.8994609 43.14105956 0.3401095694)
(679.3959598 54.76219946 0.6193079777)
(611.8794557 67.73003752 0.7610933373)
(539.7982953 80.66421493 0.6100243833)
(468.6166833 94.62647386 0.8171849402)
(399.2332054 105.9743981 0.608515448)
(338.0563353 116.1129501 -0.3353118776)
(284.1427373 125.3787412 -0.1335277247)
(237.9209335 131.3109808 -0.05920681319)
(197.0844443 134.1176119 -0.1156412988)
(160.2693749 135.9699632 0.06171064891)
(125.8598412 133.3285188 -0.1467030666)
(92.77900754 127.0808574 0.03260466331)
(62.58066851 115.4046252 -0.2888343767)
(37.52795881 97.92289619 -0.3895179368)
(16.94356673 71.82516328 0.3428234722)
(3.018081663 35.39172579 -0.1708305733)
(999.1580598 0.2899711696 0.07577807437)
(999.0864222 0.02746179908 -0.1596122654)
(998.6633209 -0.08341186662 -0.1694342799)
(998.2264465 -0.2140238925 0.205129694)
(997.7702447 0.02949437148 0.4331086561)
(996.8832737 0.2267233927 0.6236994559)
(995.8988538 0.0883548589 0.6037475181)
(995.1451085 0.4011696672 0.3676603292)
(993.6583533 0.9232389209 0.07380569838)
(991.9886467 1.594632149 0.05938393918)
(990.023559 2.031503183 -0.5384079401)
(987.3502165 3.046771725 -0.8488513543)
(983.4805778 3.684891083 -0.657074174)
(979.8220948 4.317335522 0.05971060373)
(973.96335 5.670055399 0.4593068348)
(965.3493709 6.175185388 0.5243956089)
(955.1725043 7.757633306 0.630013481)
(942.8159411 9.671048437 0.692611826)
(925.3693919 12.82730022 0.4085896823)
(903.6897133 16.85206104 0.1784553627)
(877.5141526 21.59564008 -0.09776454875)
(844.0849683 27.80338782 0.3541595045)
(801.0765956 37.02133071 -0.1636585713)
(750.774028 47.09069648 0.1858453624)
(690.5827885 57.40760287 -0.1737496091)
(627.0762022 70.47862866 -0.353814346)
(553.6801965 84.22793023 -0.9326008677)
(482.3947677 98.88293234 -0.9882487192)
(415.5274999 113.1406283 0.534722019)
(352.2138143 124.6307826 -0.3761650596)
(298.6087193 135.617535 0.5798347928)
(250.8070836 141.9879381 0.2350259646)
(208.374411 147.4198072 -0.2667659445)
(170.1586231 149.1065065 -0.3035510957)
(134.9329449 147.4125992 0.07317698961)
(101.9141259 141.0797556 0.5326625682)
(70.12037177 129.8096076 0.4450829442)
(41.27113828 110.0803831 0.1616258202)
(18.25656146 82.50637776 0.1832327332)
(3.510145397 40.79306384 0.1145201079)
(999.8086389 -0.1873312126 0.1009834847)
(999.2417087 -0.06250424958 0.3235970106)
(998.7509163 0.062217895 0.008665171281)
(997.9883695 0.3985297113 0.0368229501)
(997.755633 0.4873082001 0.2626882721)
(997.0423038 0.8091728786 0.3755719478)
(996.4680432 1.002916238 -0.0807330672)
(995.2787036 1.175241281 0.2179232071)
(994.2585418 0.9072259053 0.1930766489)
(992.2937394 1.524216948 0.002656231387)
(989.9614241 1.788369285 0.08350119006)
(987.6524686 2.275891698 0.2521652454)
(984.1486673 2.707622924 0.3181091501)
(979.7836136 3.759667835 0.173301333)
(974.6672034 4.625291023 0.3456809349)
(966.8217809 6.485839446 0.3182888713)
(956.2233337 9.211910303 -0.1367073609)
(943.6976632 10.78798897 -0.2877844933)
(927.2769915 14.05916126 0.3095493205)
(906.9031511 17.5503933 0.2587981007)
(880.6754525 22.6149321 -0.3199219439)
(847.9964227 29.63714579 0.2253294913)
(809.6033617 38.18195537 -0.3883988134)
(763.6903262 47.34943668 0.1922512218)
(706.1171895 59.06990784 -0.3622316633)
(641.6643737 73.0721046 -0.6042968999)
(574.4374344 88.46556985 -0.5283488892)
(502.2678484 103.2743185 -0.6128976457)
(432.1892234 118.3200697 0.516928879)
(369.1879891 131.6629129 -0.4280916383)
(313.989715 144.3140591 -0.07912279791)
(265.801844 153.9437452 0.0612637034)
(221.0091399 159.6209348 -0.1148283768)
(182.3915511 162.9867911 0.503589062)
(146.7614367 161.8927859 0.2077848592)
(110.6156248 156.445695 -0.420092192)
(77.19618876 145.6303559 -0.3535711783)
(45.93110232 124.8331806 -0.07312108548)
(20.57702851 94.120189 -0.3220751242)
(4.03258308 47.11631479 -0.007470540879)
(999.2280977 0.03112993799 -0.0334937262)
(998.9949425 0.2641924864 0.005660955521)
(998.7795719 0.5049468428 0.3020451545)
(998.6256918 0.5161019972 0.2460252827)
(998.3920885 0.7679657444 0.1341315937)
(997.3823677 0.8648532526 -0.1099810372)
(996.6178122 1.01350923 -0.765740969)
(995.7860034 1.213808997 -0.3464538711)
(994.3998165 1.694696216 -0.4211563708)
(992.8233924 1.681091496 -0.5381890316)
(990.79594 1.972862046 -0.185030828)
(988.3434117 2.18619435 -0.1094777154)
(984.3791711 2.896275943 -0.2480936326)
(981.1738303 3.990181969 0.1382857413)
(974.9175569 5.086655093 0.3266379584)
(968.5838209 6.169058668 -0.01296823644)
(958.1262475 8.117199737 0.173113423)
(946.2235271 10.51615673 -0.2451817431)
(932.7570829 14.17272846 -0.3355422454)
(912.4923353 18.66340352 -0.07504338514)
(888.3431087 23.58678027 0.9322995768)
(858.501787 30.48197809 0.4366459195)
(822.244046 38.92209955 0.5303994421)
(777.2559982 48.55343493 0.6161489217)
(722.0485158 59.70045755 -0.7587268708)
(661.094346 74.44652057 0.01006350533)
(593.1513464 91.56061406 0.1786691481)
(522.3329581 106.7967184 0.4558328734)
(453.706851 123.5088042 0.05664598394)
(389.3522973 139.7106013 0.2906841669)
(331.259467 152.44405 0.5611836606)
(281.6557751 165.009911 0.2203047997)
(237.6651782 172.1593461 0.2240300608)
(198.3779731 176.7236073 0.4213671004)
(159.6371936 177.1948639 -0.3548617201)
(123.3253331 173.2782355 -0.5040656228)
(87.12394342 163.2485616 0.05828284088)
(52.68227489 143.109561 0.0337400341)
(23.93172873 107.7917681 0.04945386656)
(5.01350907 55.05331334 -0.387283013)
(999.6191365 0.7387005079 -0.01509459036)
(999.417435 0.4987656386 0.007465953857)
(998.9180444 0.1713594107 -0.4480648324)
(998.6918551 0.1381390484 -0.3994555364)
(998.2007004 0.2865636748 -0.08412879183)
(997.3857581 0.504409196 0.277307396)
(996.6296532 0.5931864494 0.2175610472)
(995.6133348 0.8444160732 0.109517074)
(994.3768244 1.297757655 0.3582005033)
(992.8676784 1.602189454 0.1458534942)
(991.5037086 2.162371022 0.0478844781)
(988.9835356 2.784258325 0.03556497345)
(985.5656298 3.564840938 0.0212397027)
(980.943709 4.365309621 0.3888840064)
(975.5110095 5.018529241 -0.2335751806)
(969.1982535 6.03715105 0.05186031302)
(959.8001161 8.136926454 -0.4061794026)
(950.7285457 11.48337172 -0.156567284)
(936.333353 14.52211909 -0.09946000907)
(917.5142354 17.92619314 -0.6467346733)
(895.314697 24.22705991 -0.1521991575)
(867.2368133 31.38069305 -0.2374892326)
(833.6484167 38.43258603 -0.05892306502)
(788.3238546 48.48594317 -0.04420628471)
(737.7067871 60.4692247 0.353416707)
(677.6400029 75.70940713 0.7245557761)
(614.7237223 92.69503786 0.04883619821)
(545.2922023 109.2840499 0.09551016847)
(476.3747857 128.5662145 0.3850718976)
(411.4836614 146.1664901 -0.4124776054)
(351.7694815 161.2132857 0.04358635957)
(299.9557061 173.9419359 0.2414534725)
(257.2989374 183.4240253 0.2517150131)
(214.742379 190.6736422 -0.23592479)
(176.5995671 194.4462078 0.6730058848)
(138.6377731 192.0252998 0.2541449749)
(99.33934644 183.3263992 -0.2593862775)
(62.77697339 163.0303766 0.04467204357)
(30.03571478 126.1710534 0.06108674379)
(6.158045935 65.53737846 0.1462161347)
(999.9717466 -0.08388883105 0.1087519696)
(999.3041057 0.07342626134 -0.2195069086)
(998.7331485 0.1720551516 0.1522229835)
(998.4403907 0.4119176726 0.3183878831)
(998.0939746 0.7230164442 0.2810052431)
(997.6175696 0.6874068567 0.2617526288)
(996.5870053 0.7086737858 0.4214436585)
(995.9244733 1.109065095 0.3613926226)
(995.1003119 1.113800865 0.1241160664)
(993.8372474 1.316127645 -0.6532204678)
(991.5732204 2.495026812 -0.3119711238)
(989.3993173 2.135011144 -0.4299789746)
(986.6618363 2.586206889 0.1262832467)
(982.584173 3.484865369 0.4839847191)
(977.983993 4.744781696 0.8317531522)
(971.1761386 6.482740464 0.5254335295)
(964.7078485 8.467394094 0.4018729322)
(954.3585802 10.49268048 0.5257186007)
(940.6439712 14.46548873 0.2373962733)
(923.3292527 18.27875334 -0.4778677887)
(902.956881 23.79824236 -0.2765024206)
(875.8983399 30.86503348 -0.5234065062)
(845.1951839 38.72086568 -0.3533397675)
(803.6594579 48.7680223 0.07950662651)
(755.4535061 60.85383248 -0.7794590445)
(699.7309974 76.317322 0.257512548)
(638.0065519 93.95234678 0.4200802664)
(568.5728868 111.9561823 -0.222530335)
(500.4631838 132.4931367 0.08386265144)
(434.0561413 151.7028271 -0.3881802319)
(374.6039027 168.5357434 -0.3982122648)
(321.8470126 182.9835656 -0.1625685738)
(276.7766803 195.0787451 0.4114998187)
(235.8232565 205.0631164 0.5080598217)
(197.7430597 211.4675233 -0.7097536164)
(157.7623062 211.8697036 -0.143551823)
(118.8767042 206.7780799 -0.0448160269)
(77.77804647 188.6319081 -0.1333225438)
(38.32652082 149.7767274 0.3292547882)
(8.521693865 80.36282922 -0.2409688292)
(999.2470011 0.5236142202 -0.1817511582)
(999.2531176 0.5673214452 -0.09932615241)
(999.016515 0.4008266595 -0.2283331465)
(998.481546 0.3931492215 0.07662802111)
(998.1183568 0.2806107737 0.311550948)
(997.6078179 0.5897588709 0.4751230654)
(996.9497015 0.552867457 0.7794783216)
(995.7001559 0.9686324196 0.6372713234)
(995.0084752 0.6175234548 0.5750270026)
(993.9964639 1.133020911 0.3856055351)