/*--------------------------------*- C++ -*----------------------------------*\
| =========                 |                                                 |
| \\      /  F ield         | OpenFOAM: The Open Source CFD Toolbox           |
|  \\    /   O peration     | Version:  v1706                                 |
|   \\  /    A nd           | Web:      www.OpenFOAM.com                      |
|    \\/     M anipulation  |                                                 |
\*---------------------------------------------------------------------------*/
FoamFile
{
    version     2.0;
    format      ascii;
    class       volVectorField;
    location    "0.004";
    object      UMean_Ar;
}
// * * * * * * * * * * * * * * * * * * * * * * * * * * * * * * * * * * * * * //

dimensions      [0 1 -1 0 0 0 0];


internalField   nonuniform List<vector> 
4000
(
(999.4136897 0.5868538541 0.02412868309)
(998.7788326 0.5694838954 -0.009345003484)
(998.0669539 0.1565269181 -0.1913681784)
(997.1391796 -0.3228012474 0.2216942368)
(995.9971618 -1.432408893 0.05772966723)
(995.1147524 -1.477228059 0.04701098387)
(992.4142429 -0.9424864923 -0.06479176993)
(990.4311103 -0.357327013 0.1926818507)
(988.494068 -0.05626076216 0.01645191771)
(983.1624153 0.05934808708 -0.276373113)
(981.0406433 -1.211572259 0.2167644772)
(975.5363958 -1.509555574 0.1955578154)
(969.5330984 -1.120503482 -0.0243613149)
(963.4702632 -0.4175754137 -0.1385074426)
(953.8059503 -0.3856676509 -0.0161968981)
(942.6777958 0.8290496575 -0.0864358699)
(929.7406215 -0.8816269503 0.164268025)
(910.5081979 -0.4914741284 -0.2413653017)
(885.8782594 -0.3750448728 0.154882355)
(853.4144513 -0.2001599425 0.2347707631)
(817.8552126 -0.3006354131 -0.4606770197)
(774.9976041 0.1878509395 0.008253142545)
(723.2485038 0.4956791853 -0.3441799354)
(658.5509644 1.715682888 0.1467642071)
(590.4965041 3.305961331 0.2554863027)
(520.808387 2.841363374 0.1704920746)
(448.4105531 4.273984979 -0.2934922615)
(381.8375356 5.345827784 0.09797866764)
(322.999394 6.687811958 0.3029087668)
(268.3371176 6.868547028 0.3077501118)
(224.4321571 7.761022607 0.01337445959)
(185.1127164 6.305070917 0.1518077133)
(150.6273613 7.445312218 -0.04657649373)
(121.6182383 6.215640845 0.01309070718)
(93.635294 6.513437295 0.05864984681)
(68.16784604 5.849326575 0.107080175)
(44.83407844 5.894250822 0.4579178367)
(24.68023271 4.044913107 0.1286442094)
(11.84553228 2.873542327 -0.156915749)
(2.2771962 2.062033634 0.02999182049)
(999.3766335 0.008622709145 -0.127378128)
(999.2073882 -0.1668026735 0.0358081133)
(998.3915973 0.00929071994 0.08377703088)
(998.3478921 0.1966246028 -0.1481100849)
(996.86921 0.1371911013 0.1883339251)
(995.6366509 0.08734709368 -0.1344458049)
(993.9566062 0.203582906 0.1485839974)
(992.3533324 -0.153710487 0.1112762537)
(990.020375 -1.081651484 0.2408494306)
(986.0258872 -0.4540039364 -0.2506928148)
(983.6860998 -0.06681630947 0.04731211911)
(978.958483 -0.2509817165 -0.0950482918)
(972.77416 -0.6562292863 0.1811025155)
(966.5786521 -0.1844338949 -0.1650251167)
(958.3155158 -1.481376633 0.05783421326)
(946.9823807 -0.97608787 -0.1032084581)
(930.9495292 -0.002238618622 -0.1172320268)
(914.472081 0.3476755558 -0.04487548219)
(887.6968298 0.9585919845 -0.08550872531)
(857.801438 0.3626833017 0.2485134697)
(821.5387127 1.015080901 0.0007542731494)
(773.8977463 1.672921918 -0.02324619036)
(723.4037361 4.085780191 0.01387034021)
(660.4705884 4.901803431 0.01466776534)
(593.7791269 6.676555767 -0.2359968736)
(518.9572631 8.977671507 -0.1127952037)
(445.228989 9.29631216 -0.1768621903)
(376.6228644 12.53585641 0.213387615)
(316.2469785 14.46371485 -0.2601416655)
(264.0358936 16.11988519 -0.1234473329)
(218.8900494 15.43226543 0.215012931)
(181.2305021 15.033122 0.005067397775)
(148.6657437 15.91095547 0.1304252283)
(119.6275093 14.9004916 0.0002339333862)
(92.35822581 14.68904459 0.0502983384)
(66.37696264 14.65547551 -0.04096286721)
(43.85794452 12.43830581 -0.07424498944)
(25.11646313 10.08089695 -0.01693571045)
(10.21181397 6.968548068 0.0431048717)
(2.200113502 4.088522214 -0.05486614076)
(999.2183251 0.2352006249 -0.201361744)
(998.7080609 0.2051025561 -0.02699465801)
(998.0357944 0.1066056186 0.1196382547)
(997.4808002 0.2370002399 -0.1029910556)
(996.5696339 0.1639410081 -0.2828987492)
(995.9935655 0.1318452725 0.156436167)
(995.1012217 0.2525790579 -0.08047067903)
(993.3349432 0.1467401762 -0.01738988226)
(991.4343158 -0.05580737622 -0.04615783735)
(987.7553372 0.1388509259 0.1238687953)
(984.5865859 -0.1873534702 0.1542262786)
(980.6387209 -0.3485554482 -0.004710238811)
(975.5579319 -0.875820577 -0.08221522058)
(968.3242714 -0.1456067521 0.2973203605)
(959.9472703 0.0716104663 0.08024420275)
(948.9226562 0.05982959303 -0.190372069)
(934.5604474 0.4084492005 0.09776363494)
(916.1492058 1.259877096 0.01328924477)
(891.6902289 2.092588259 -0.1924264106)
(862.9667425 3.103524401 -0.1161131742)
(826.0121225 3.384213481 0.1818418007)
(779.8180289 5.463918329 -0.4087978257)
(725.0288455 7.570786185 0.1836785326)
(662.7653596 10.4374305 0.3635629349)
(593.9996446 11.71141935 -0.3762118757)
(520.9894776 15.39021247 0.1446496749)
(445.401563 17.3288911 -0.1638174364)
(375.8542909 19.50959498 0.1090661104)
(315.9589576 22.55605655 -0.0346792772)
(262.6139649 24.79415789 0.05512099257)
(217.6247412 25.15139964 0.1068306895)
(179.6589165 24.99797097 0.08085591475)
(146.1576577 24.56671646 -0.01164235762)
(118.1086131 23.43474013 0.05168536403)
(90.97728993 23.90493124 0.1284378715)
(65.94564022 22.95601508 -0.1018431785)
(43.37971529 20.22420648 -0.02974590951)
(25.07900833 16.19008759 0.01936372269)
(11.20288086 12.23275885 0.05646211589)
(2.036096937 5.738803738 -0.08322153109)
(999.2999876 0.01197358971 -0.4529636647)
(999.1651177 -0.1278567026 -0.02671508076)
(998.2080665 -0.2250445014 0.3084342299)
(997.3531507 -0.1697240985 0.1319541617)
(996.4808118 0.203094166 -0.2727888104)
(995.7155139 0.3592441232 0.1853343359)
(994.4651338 0.3004936736 -0.08826842386)
(992.7631743 0.1149207229 0.1088707393)
(990.4601861 0.2133258208 -0.07852240276)
(987.6531882 0.4864193585 0.09022167667)
(984.913215 0.6662169169 -0.456056491)
(980.6643978 0.682776617 0.3469014448)
(975.9421571 1.34374338 -0.02528785914)
(970.0548195 0.6617912136 0.2166449253)
(962.0977525 1.31356182 -0.3019325405)
(949.4909614 1.969089549 -0.3314509652)
(935.1241513 2.654941372 0.2203461395)
(916.2373203 3.529846039 -0.1147753249)
(893.1625299 3.946142813 -0.1553142183)
(865.2370136 5.585320519 -0.07802690483)
(826.1543914 7.512923687 0.1144735795)
(780.9819561 9.161557038 -0.1831010727)
(728.7702997 12.00889904 -0.2769876328)
(666.2958683 13.45803472 -0.224569145)
(598.2411957 17.15817179 0.5168489826)
(524.3992111 21.59150718 0.1282448762)
(450.058015 25.12974826 -0.2655795503)
(379.7081298 27.81709046 0.1282087371)
(317.7705306 30.41794588 -0.161664259)
(264.9382834 33.165292 -0.1203538283)
(220.8812118 34.57718016 -0.09067972303)
(183.3356509 34.72005952 -0.1908505147)
(149.3513095 34.44854943 -0.08419695141)
(118.4622757 33.67933746 -0.08551526898)
(90.07162639 33.52175455 0.05243166834)
(64.53026179 31.34623424 -0.06255027085)
(42.82367426 27.65124536 -0.04552260851)
(24.34179883 22.22033114 0.09699794251)
(10.52376522 16.72626963 0.07273160865)
(1.956447073 8.244249209 -0.06512987484)
(998.8905606 -0.3374940962 -0.001558715989)
(998.1222711 0.07080846361 -0.05413956767)
(997.7991848 0.4042640008 0.1482029508)
(997.1081891 0.3770543956 -0.2080589228)
(996.01468 0.04647334177 -0.02412588054)
(995.4845668 0.1194712283 0.1475894986)
(994.2820653 0.2455113298 0.05634132211)
(992.5587069 -0.03091349063 -0.2676684226)
(990.9941421 0.2975150061 0.07889075728)
(987.5538123 0.6876613534 0.04867897211)
(984.6891848 1.0898042 0.2073387342)
(980.9436034 0.8684493207 0.1638078617)
(976.5149754 1.282600525 -0.1164901315)
(970.6666128 1.915078745 0.5165385912)
(961.5109129 2.384480235 -0.3211556717)
(951.6879889 3.392494177 -0.07943977314)
(936.6951586 4.656231308 0.2822835813)
(918.1352245 5.175860493 -0.4325090956)
(894.9090555 6.021704882 0.3515402356)
(867.3162728 7.390889704 0.1702639913)
(832.2114668 9.898118454 -0.2054735445)
(786.4807273 12.21930437 0.1569749112)
(732.2535078 14.46284759 -0.1309855783)
(668.349162 18.4398888 0.2123154378)
(602.2862966 22.20951918 -0.1921678389)
(529.0734824 27.46722579 -0.0530115844)
(456.1803564 30.91081154 0.3408004122)
(385.8467275 35.53882078 -0.006390321956)
(322.674212 39.43796026 0.03271571342)
(269.6019634 42.77395355 0.1840917728)
(224.8520088 43.30437624 0.2718099726)
(185.6556822 44.3512846 0.1267557334)
(151.1604497 45.64518329 -0.08620388706)
(120.2100115 44.04390623 0.09576527546)
(91.62869275 43.86386955 -0.08678834316)
(66.13106764 39.97421592 -0.08688500656)
(43.72902468 35.47888954 0.1632013137)
(24.47800553 28.95272752 -0.03129535644)
(10.2097332 21.30007518 0.1264819057)
(1.916633498 10.44471517 0.02901393625)
(999.2397109 0.2082097693 -0.02287886701)
(998.747959 0.2108791792 0.082762928)
(997.7550086 0.05580425225 0.4360578615)
(997.3960035 0.02097730168 -0.0005742182259)
(996.5763684 0.0807499564 -0.6635161805)
(995.7961579 -0.2096913436 -0.2874407884)
(994.5958369 -0.2352098405 0.09489065776)
(992.8878079 0.1682955908 -0.05681543149)
(991.5261876 0.7830117656 -0.07686956441)
(989.1491306 1.143225549 0.2098336298)
(986.2833944 1.376668961 0.1408853242)
(982.441094 1.626639347 -0.01420148796)
(977.0858897 2.958935504 -0.2797028817)
(970.9483945 2.846760262 -0.009837526073)
(963.2569404 3.396067362 -0.05718989419)
(952.8822554 3.673948946 0.1804738051)
(940.0694108 4.763641248 0.02865373471)
(922.0743557 6.127877284 0.155350538)
(899.7234056 7.015478836 0.2954296653)
(871.3489205 8.850653988 0.4928056518)
(836.8738675 11.20814841 -0.04889687121)
(791.4694024 15.34631013 -0.4882582822)
(738.6348698 17.87975651 -0.1760489925)
(675.1605283 23.69721821 -0.04567714671)
(607.9153236 26.65756725 0.2088688396)
(534.5674557 32.10752415 -0.2055884285)
(460.1776574 38.0359833 -0.0134350634)
(389.6914735 43.41772938 -0.2000805377)
(327.936313 47.43427526 -0.1773140976)
(273.7622473 50.45944899 -0.07491416147)
(228.2654541 52.89074868 0.3649372293)
(189.4842533 55.69890468 -0.1978317829)
(154.7595217 56.26566344 0.287067234)
(123.5033223 54.44132041 -0.2579440369)
(94.51144852 53.78049436 0.07107779433)
(68.55428929 49.53486314 -0.09780313645)
(44.73317298 43.49262184 -0.1258557962)
(25.37683818 35.61547414 0.07752176862)
(10.76723874 26.41727055 -0.03091846256)
(2.005588329 12.71109078 -0.00845018945)
(998.7885907 0.157635887 0.1384770639)
(998.4745013 -0.05447467931 -0.1279346495)
(997.927408 -0.02381036954 -0.1524169874)
(997.4620318 -0.2159635944 -0.3778202522)
(996.6554161 0.1607392167 0.2108682611)
(995.8299481 0.2400481165 0.1865188578)
(994.6847482 0.6751895706 0.1963617187)
(993.2952949 0.7065920922 0.1384170009)
(991.5963992 0.8382294518 -0.1135702618)
(989.6179387 1.101031956 0.3266804969)
(987.432799 1.426999972 -0.02407014825)
(983.2527519 1.700508249 0.1011075216)
(978.3624159 2.026093346 0.1691736272)
(972.1370623 2.67764478 -0.06985379833)
(963.3062989 3.233650845 0.1081675732)
(954.4912431 4.449282584 0.190252414)
(941.5859258 5.581050616 -0.1229679955)
(923.8972513 6.640655845 -0.05698192964)
(901.7732189 7.972590467 0.2651706575)
(873.5022956 10.11158348 0.1497204936)
(839.338591 13.50499406 -0.3410176006)
(798.0990185 17.11126319 0.08556931348)
(747.325489 21.90008614 -0.3584520514)
(682.9922754 27.09106067 -0.007701353344)
(616.2950909 32.27848323 0.09782099651)
(543.864723 37.89876739 -0.06029362599)
(470.0753448 44.37893657 0.09287690781)
(398.9706026 51.08323515 0.1198100488)
(334.8255035 56.51313077 -0.1034836725)
(277.4414297 59.3406602 0.1164832968)
(232.726648 63.26445872 -0.2266647704)
(193.6884339 64.88798471 0.09476853123)
(158.2539756 66.7125022 0.02314779248)
(125.9824666 65.15865477 -0.4676851041)
(96.31331488 63.26878991 0.1409125809)
(70.67711316 58.85110782 -0.004831693704)
(47.3503767 52.47232937 -0.1725860047)
(26.2018942 43.1203036 0.05285765282)
(10.68995592 31.60419178 0.05383464374)
(1.974381729 15.19301715 -0.02220802774)
(999.150613 0.04085333167 0.4852251785)
(998.5097674 0.4691337111 0.2445576816)
(997.7228229 0.3693127914 -0.07896709526)
(997.264125 0.626309012 -0.5183259159)
(996.4091133 0.6125297636 -0.260017217)
(995.7228833 0.4652310556 0.1536435169)
(994.4188675 0.5442290032 0.3441901207)
(993.4067834 0.3233035502 0.2211253042)
(991.5753406 0.8150555998 -0.06436214692)
(989.4554128 0.9759722805 -0.1898533952)
(986.3919871 1.522179814 -0.1023653202)
(983.0940627 1.438204088 -0.06775810999)
(979.3886269 2.359521356 -0.2339887436)
(972.5642444 3.05679562 0.02658651206)
(964.959295 3.049990918 -0.2045939963)
(955.2198104 4.335879584 0.03190950077)
(943.018497 5.047969452 -0.05089594325)
(926.0493341 6.270957577 -0.1060100844)
(905.5074504 8.460302745 0.1941329072)
(879.447018 11.25855409 0.2589934351)
(843.359165 14.29677993 -0.4129267292)
(803.2181264 19.44238312 -0.2192508457)
(751.6759106 23.63030716 -0.07012140496)
(693.7799439 31.00271369 -0.1261710969)
(626.2427189 36.94249917 0.1419682538)
(553.6146558 43.80734086 0.1957749094)
(478.8975988 49.9047002 -0.1301505684)
(408.8360574 60.42636017 0.2023681008)
(343.5799609 65.78103534 0.1060540068)
(286.5166742 68.97006671 0.205413529)
(238.8047881 72.559594 0.4883187073)
(198.2678553 75.53618974 0.08389352805)
(161.9785947 76.85720898 -0.1025269787)
(129.0924184 76.55741228 0.148813827)
(99.95545182 73.40407969 -0.1821675977)
(72.86570513 67.97828182 -0.07012817893)
(48.34280462 61.72277141 0.08329035205)
(27.48370868 51.44346876 -0.06037043664)
(11.71849508 36.9185157 -0.04747755197)
(2.249041107 17.74387706 -0.03470854499)
(999.0480533 0.323047255 -0.05821134694)
(999.0938293 0.2466439533 0.01968669709)
(998.9762092 0.4056019415 -0.2502046001)
(998.3584514 0.3418533841 0.1128043785)
(997.7111305 0.5242612499 0.2468986152)
(996.8780387 0.3534519388 -0.05384310954)
(995.3912464 0.534394413 -0.1560198151)
(994.0182686 1.021914403 0.170643333)
(992.882777 0.9731186298 0.2824321099)
(990.5975312 0.9381691611 0.120790232)
(987.3254407 1.028144995 -0.08320086852)
(983.4977192 1.620488444 -0.2464573192)
(979.0568246 1.57367269 0.4815706878)
(973.2658613 2.732402071 -0.06623448082)
(966.6590776 2.871789249 -0.3992964675)
(957.2548694 4.344449636 -0.1676287644)
(944.4014717 5.456028842 0.4785082611)
(928.7889704 6.79189176 0.5774161771)
(908.9187609 9.422396553 -0.0813902987)
(881.87424 11.66981996 -0.4940591468)
(848.956857 15.9638491 -0.1814101193)
(809.0221355 21.19894909 -0.07516183592)
(760.6228653 26.73452813 -0.2082021666)
(703.6179806 34.41791113 0.12531705)
(634.3673783 41.01013935 0.1632622747)
(561.7585831 48.91894758 0.4565535877)
(488.6403658 57.36537719 0.1180266771)
(417.3407275 67.40400036 0.3467907461)
(351.8550816 74.38794393 -0.4634798719)
(294.4017543 79.86189381 -0.5743636983)
(246.0659216 82.38823857 -0.446255921)
(203.7130293 86.40978719 -0.2266514096)
(168.1740279 88.132121 0.4448211988)
(134.6669456 87.64270672 0.1042202365)
(104.1283525 84.1145697 -0.2475639135)
(75.73707372 78.50844766 0.1282886696)
(50.51746361 70.89350128 0.1039262256)
(29.01508125 59.18246114 -0.2223496071)
(12.72076569 42.90858076 0.2078634819)
(2.470776263 20.77109469 0.06776684145)
(999.7108314 -0.1302220227 -0.03737570078)
(999.0382878 -0.2718366349 0.04724108816)
(998.544628 -0.2808493302 -0.001588394266)
(997.9996585 -0.01772668897 0.04023453137)
(997.2449061 -0.0290652255 0.2143820214)
(996.3589825 0.1674952144 0.4695706368)
(995.4122386 0.3668836712 0.1120114325)
(994.2214366 0.7330507331 -0.5823182261)
(991.9164354 0.9148181509 -0.4577114205)
(990.1029651 1.112729288 0.01427734337)
(987.0306755 0.8823588169 0.195608535)
(984.7193668 1.069578429 -0.1259243819)
(980.4058831 1.865215165 0.08708510877)
(974.5586672 2.678584242 -0.03340851659)
(967.6861902 3.206158767 0.09499654059)
(958.8499934 4.26886173 0.07657514179)
(945.6451831 6.217961692 0.0714126242)
(930.4128785 8.545434811 0.2041370097)
(911.7181889 10.96009859 -0.5312968192)
(886.2290286 12.88723813 0.06908149791)
(853.636105 18.1481446 -0.2087809342)
(812.1246533 22.72224632 0.3617190055)
(764.3607343 29.09221177 0.1932430365)
(709.4821784 36.47944221 -0.04195424723)
(642.9673649 45.65710855 0.1424591184)
(573.242781 53.77882691 -0.1106152233)
(500.3672747 63.83410042 0.7552727163)
(426.0576955 72.56280677 -0.2141969352)
(361.1247228 82.26515828 -0.1097293856)
(303.473363 88.55149222 0.06626790952)
(254.1027302 92.92585381 0.1621866868)
(211.889016 97.381088 0.09872836864)
(173.1893228 99.6620139 -0.01769461456)
(139.8398536 98.77205201 0.1980780938)
(108.3330083 96.171448 0.6204399404)
(78.89644076 90.13838995 -0.4757131399)
(52.28281979 81.59927704 0.2256283269)
(30.07440341 66.97736002 -0.3704576036)
(12.43233335 49.46780506 -0.1858981551)
(2.300685652 24.04953919 -0.02541662734)
(999.4762592 -0.0946526003 0.07436078191)
(999.1931916 -0.03384620495 0.3278169411)
(998.4553976 -0.1572228587 0.1313036228)
(998.0374594 -0.191429371 -0.1391080792)
(997.3178478 -0.05241235882 -0.3097605614)
(996.4199871 -0.06106566585 -0.3895152965)
(995.8327529 -0.254687571 -0.1046955986)
(994.6273555 -0.5585075147 -0.2265032087)
(992.6511581 -0.2912097651 -0.154774759)
(991.0222509 0.5475568073 -0.04851048205)
(988.812211 1.481813453 0.06174592693)
(985.5243803 2.12631411 0.06032197713)
(981.0979507 2.641061058 0.2451120704)
(975.0686813 3.237309425 0.4810782179)
(968.1403471 4.091685684 0.4527337108)
(960.1424766 4.19757885 0.2241659623)
(946.7450589 6.265027495 -0.7753999901)
(932.8560273 9.348076185 0.01868052206)
(913.8372931 11.47162215 0.1208961628)
(889.1927041 14.90654286 0.2340847492)
(858.6310311 18.77085736 0.4803185506)
(821.8429554 24.14583461 0.3801002951)
(774.3313263 30.45075749 0.4150908105)
(719.2393547 39.01542613 -0.7680348214)
(656.1284785 48.2179808 -0.6319148849)
(583.1494239 59.230203 -0.3026781257)
(511.3219988 70.93815561 -1.067735073)
(439.6727508 79.90988245 0.06588348665)
(372.7528003 89.39338862 -0.5517873833)
(313.8984611 97.14615252 0.3477889741)
(262.1628323 104.4971208 0.2235760098)
(218.6581485 107.5216101 0.1775551028)
(180.6380568 111.3142985 -0.4809542408)
(146.6300207 110.7504985 -0.06952400742)
(113.9737073 107.2965409 -0.2651686246)
(84.15718384 102.1036793 0.01532869576)
(56.14875194 92.3660731 -0.1555374821)
(32.23059624 77.06499203 0.2390841383)
(13.75913885 56.44651063 0.3268008869)
(2.550104859 27.15546921 -0.1762768534)
(999.2603547 -0.02011453098 -0.05060126715)
(998.8639097 -0.3114906495 0.09102843312)
(998.5772974 -0.3815026033 0.3990814727)
(998.1846954 -0.2249112478 0.2556431451)
(997.6467972 -0.4405427381 0.06176443045)
(996.894721 0.09456318291 -0.3055561586)
(996.0854012 0.5529821986 -0.4628355186)
(994.7648698 0.5824625258 -0.01894189434)
(993.1036076 1.117657712 0.4361907625)
(991.6307902 1.06861227 0.777632814)
(988.6842363 1.069333723 0.3688549613)
(986.7482671 1.605791867 -0.1613023052)
(982.0673839 2.307980644 -0.5382902101)
(976.0630373 2.311581235 0.2517403772)
(969.4696105 3.444319761 0.06042421664)
(961.0096308 4.433229742 -0.24015123)
(950.2243627 6.882851 0.04422696293)
(935.493649 9.614844688 0.0868794868)
(917.8766736 12.1451464 -0.05931182326)
(894.8957924 15.4315968 0.1543946912)
(863.1024202 19.89153681 -0.3515069653)
(829.3526585 26.14411732 -0.3552282839)
(782.4730549 33.13600994 -0.03212279618)
(727.4054695 42.67985626 -0.244761939)
(665.4660284 52.6285199 -0.1770095783)
(596.4493874 61.8710483 -0.2529060206)
(525.6046336 75.06193089 0.4006867012)
(451.7477263 87.39969723 0.4083923668)
(383.9895248 97.28996539 0.3699085118)
(324.8436464 105.7906803 -0.2860563827)
(272.6881613 114.1105736 -0.333776413)
(228.3455893 118.7625239 0.2618899696)
(189.2244617 122.2661651 0.06651790682)
(153.6734427 122.4305984 0.3040791096)
(119.3639908 120.4830917 0.5121087587)
(88.30370177 114.0454839 0.3176799209)
(60.120359 104.4294367 0.09300973006)
(34.86038436 87.82496867 0.1711418092)
(15.05507903 63.99922027 0.5491831047)
(2.846907017 31.16246862 -0.1696839547)
(999.0161272 -0.6135891366 0.1182815771)
(998.4757113 -0.352377485 -0.2498067459)
(997.8707492 -0.1913821252 -0.5270054674)
(997.3001106 -0.2953942396 -0.347888116)
(997.0686221 -0.0327709085 -0.3202506276)
(996.5275105 0.2423899214 -0.3305080139)
(995.0216221 0.580591197 -0.2350154082)
(994.2472616 0.7217243424 0.1118757038)
(993.5344261 0.6761350169 0.2880540737)
(992.2497214 1.031738606 0.03985701207)
(989.1277381 1.209863428 0.1077910759)
(986.3285121 1.571070091 -0.1693804841)
(982.3850865 2.176916084 0.219388649)
(978.2084233 3.050432327 0.4255950502)
(970.4882799 3.877667431 0.2947333697)
(961.8695545 5.470680378 -0.4945896454)
(951.716121 7.606685964 -0.7508535432)
(939.329366 9.254837975 0.118591923)
(921.3495366 13.05803912 -0.292158823)
(900.0199459 16.69002156 0.111846273)
(871.0586085 20.85712291 0.1488691194)
(834.1829793 27.92761637 -0.05329081835)
(790.7182619 35.29466852 -0.09726729609)
(739.2446823 44.57426479 0.3137053518)
(677.2291696 54.88749444 0.4465739942)
(607.7920852 66.2773195 -0.1042768247)
(539.2979588 79.61980855 0.0312327171)
(466.1170518 92.60622735 -0.009388999857)
(398.3051417 104.8135163 -0.611082575)
(336.7435837 114.2297857 -0.1491656572)
(284.4246215 123.3821547 -0.8338242806)
(238.123991 129.2369638 -0.1095115278)
(197.1519887 133.5878148 0.2809130268)
(161.4736195 135.4401803 0.1843624773)
(126.5718511 134.4375335 0.2136242537)
(93.78272167 127.729592 -0.3497527251)
(63.59979803 116.0874868 0.4112821181)
(38.06972514 98.84081969 0.1015372664)
(16.58202256 73.22635503 0.1007121753)
(3.344908212 35.7140507 -0.2937651509)
(999.1280976 -0.2557839385 0.4238462031)
(998.8812924 -0.2831914083 0.3860558383)
(998.1016332 -0.1509203788 -0.04894513282)
(997.8073969 0.1156958753 -0.1226066103)
(997.1573001 0.1930309243 -0.2369729797)
(997.0065697 0.3379488388 -0.2127846166)
(995.8426623 0.3365356749 0.2846657365)
(994.8996416 0.5174886258 0.07769196579)
(993.6938622 0.6921794435 0.1487979256)
(991.59478 0.9441514307 -0.1416283448)
(988.9245667 1.699359921 -0.5264982864)
(986.8725294 2.177507128 -0.2451638964)
(983.1576281 2.510900803 0.07889852032)
(979.011518 3.250207596 0.4855935806)
(972.9761225 4.16905196 0.168793749)
(963.9963219 5.939109338 -0.07064856825)
(953.6237491 8.222545939 -0.4601125954)
(941.5448077 10.04784014 -0.7966888517)
(924.0777728 14.10758205 -0.3023110844)
(902.8167546 17.38487957 -0.05083944096)
(876.4621228 22.3984809 -0.2697976195)
(841.3148052 29.09519339 0.5947041443)
(799.0346145 36.22631444 0.1319679063)
(749.8849326 45.73872109 0.2326115749)
(689.619224 57.32796967 0.1991258842)
(624.5688443 70.86331902 0.4935086929)
(554.0998896 83.38390837 0.02629693546)
(481.931032 97.71130809 -1.081504234)
(415.1675353 111.3354536 -0.05986451343)
(352.4490125 122.9290317 0.7362618042)
(297.8063528 132.9194998 -0.3484209669)
(249.0364847 141.2215937 -0.6643985157)
(208.5398136 145.8955688 -0.2052319128)
(170.5492698 148.515946 0.310199891)
(135.1772674 147.6788723 0.2371656652)
(101.170361 142.6322964 -0.1716362118)
(69.96437216 130.455061 0.03054733872)
(40.85659315 111.5896961 -0.2431855219)
(18.01771039 83.00599215 -0.244565606)
(3.636171407 41.22364133 -0.04799153676)
(999.0919902 0.1635170508 0.06589982602)
(998.7451399 0.1416080036 -0.2585125084)
(998.3469565 0.1939285634 -0.5054011829)
(997.9392765 0.09129138803 -0.225344068)
(997.5605899 -0.08399477875 -0.2207080571)
(996.8809325 0.02436665833 -0.2303458843)
(996.1419686 0.3261314031 0.1402601189)
(995.202944 0.641306335 0.4292931355)
(993.6952396 0.7079329363 0.7964997247)
(992.3369316 1.175262195 0.6408811326)
(990.2978206 1.720051041 0.5713017357)
(987.2801834 2.28327396 0.3245941602)
(983.8971099 2.928164817 0.007125174163)
(978.9862935 3.345770984 -0.4699884165)
(973.4523251 4.829898481 -0.04760694562)
(965.9480211 6.307817918 0.02547640042)
(956.203827 8.122999483 -0.05165682132)
(944.9161475 10.55274679 -0.0974533301)
(928.6984795 13.92806 -0.1452870353)
(908.5094335 18.33631865 -0.4739776247)
(883.4159268 22.39965872 -0.1628549625)
(851.5918136 29.2243667 0.6659993825)
(810.7722955 37.83240989 0.2008434835)
(765.3212224 46.94408082 -0.2173723061)
(708.1379076 59.33715551 0.1147412285)
(642.9699466 72.54156977 -0.02473678398)
(573.5488859 87.80043354 -0.1460197943)
(502.2874078 103.1477246 0.292489621)
(433.6308856 117.8104435 -0.2337245015)
(369.93726 131.4060625 -0.4198394448)
(312.008241 142.6001765 0.5662302482)
(263.4001059 152.1599118 0.707512255)
(221.2108588 158.7019871 0.05726349744)
(181.4131735 162.2745903 0.09077732601)
(144.7905356 162.4892616 -0.8012206018)
(110.9693828 157.8659361 -0.3237758917)
(76.75321433 145.8329014 0.09263666251)
(46.24416945 125.8865988 -0.2980577072)
(21.2315748 94.5350312 -0.06599007325)
(4.168706811 47.79572331 -0.09707514045)
(998.8994063 0.1289065247 -0.4722339121)
(998.4192393 0.5008565378 -0.3572279375)
(998.4234495 0.5668145236 -0.04252395602)
(998.1167501 0.6226670138 0.1587366931)
(997.7768805 0.3221060238 0.1021494953)
(997.0531958 0.457724982 0.3985664515)
(996.4339774 0.280036727 0.1831314372)
(995.2534114 0.4957556839 0.2391328908)
(993.9828754 1.03331433 0.5574125399)
(992.8419923 1.087223156 0.03445421303)
(990.7904157 1.212820595 -0.4351740081)
(988.1544516 1.459313486 -0.5795283304)
(985.0675568 2.413242836 -0.4660042049)
(980.4365034 3.609343815 -0.3648055353)
(975.3006151 4.940578923 -0.1054407866)
(969.1068897 6.104848439 -0.01491325084)
(960.3442422 8.157881432 0.3244630011)
(947.6338772 10.90499834 0.02280339845)
(933.1039124 14.03986228 -0.2011589583)
(914.5284517 17.68398502 0.08846532695)
(890.6468731 22.25733231 0.005663336217)
(860.5061225 28.89813813 0.37562686)
(822.8242219 38.39630192 -0.2389591092)
(776.703656 48.16801419 -0.8534851054)
(724.0061731 61.24231872 -0.04854161297)
(659.8816801 75.35638289 -0.2294477436)
(591.868969 89.91747677 0.1578395336)
(522.6346566 106.9188408 -0.09563885866)
(453.5096211 124.2206819 0.5775248253)
(386.805762 138.8612727 -0.4930238935)
(330.4080695 151.587757 0.6184944167)
(279.6499374 162.9292632 -0.02864265624)
(236.1156432 170.2356139 -0.201417479)
(196.4184358 176.1776666 0.3595088036)
(159.4335603 178.1804748 -0.3739565471)
(122.2953324 174.1812073 0.1113635964)
(85.97305906 163.8269708 0.25806174)
(52.73869889 143.0842443 -0.3930201686)
(23.99398501 108.8039746 -0.2460052484)
(5.02844554 55.96175318 0.3101426572)
(999.446637 -0.2711517528 -0.1473289074)
(999.0268121 -0.4449156925 0.1329344508)
(998.7342538 -0.4793637245 0.1167019369)
(998.484355 -0.1142105723 -0.002543068403)
(998.0740959 0.1715168549 0.1717230717)
(997.0933566 0.5876035036 0.1913457565)
(996.537158 1.111728662 0.3891310279)
(996.018935 1.038745138 0.4221352596)
(994.7738993 1.03845175 0.2191439926)
(993.6966509 1.160837641 -0.01082617464)
(991.4561939 1.909161149 -0.0634381625)
(988.3681289 3.000418533 -0.3483243319)
(985.6834437 3.316201119 0.077877575)
(982.615532 3.620359615 -0.3546069653)
(977.5144215 4.436418149 -0.4066060115)
(970.4073845 6.000223785 -0.1473508276)
(961.8545323 8.091505953 0.1357869128)
(950.710118 10.4400174 0.2204187024)
(937.1258237 13.52357311 0.2885782672)
(920.4317962 17.46605734 0.7592577609)
(897.8640778 22.88717475 0.2851789041)
(869.5246281 30.21273388 -0.3876625947)
(834.5930206 38.29997889 -0.1971173664)
(790.2236252 49.61370428 0.04493303963)
(737.0061632 61.70564563 -0.02867365711)
(678.782367 75.9186632 0.7148380395)
(613.4499452 93.12725355 -0.33442914)
(544.7766301 110.353568 0.637548682)
(473.5415816 128.804564 0.7518946752)
(408.5008236 145.1583508 -0.02821147326)
(352.123755 159.5662416 0.2429830788)
(300.4452965 172.7330624 -0.3390301506)
(255.1714502 183.0183958 0.1013780304)
(214.588062 190.6830042 0.2097801839)
(175.9317325 194.6204569 0.1461626526)
(137.8673469 193.4328622 0.01311857881)
(100.4227269 183.9561572 -0.2015416619)
(62.8622391 163.6315412 -0.2313464014)
(29.24995958 126.8185734 -0.4891104298)
(5.952710372 66.10453819 -0.2141630649)
(999.7523465 0.2719425166 0.03552270027)
(999.3533688 0.2596091154 -0.2085301188)
(999.139094 0.3558047062 0.09871586641)
(998.56763 0.3434933986 0.1508512174)
(997.8591404 0.3050812667 -0.3540947619)
(997.1662802 0.3391205939 -0.4893185696)
(996.6663587 0.7298373624 -0.3560959134)
(996.2540179 0.8703466443 0.01261801633)
(994.9804139 1.420693413 -0.01097640306)
(993.7046933 1.720827715 -0.1684280915)
(992.2760881 1.571243616 -0.136665501)
(990.3789682 1.827428081 -0.002598479327)
(987.9240003 2.699642343 0.2857444148)
(984.1350321 3.568174193 0.6010410603)
(978.9275378 4.393372964 0.230966394)
(972.193014 6.212956853 0.3249597706)
(964.3600638 8.194443885 0.4108585485)
(955.3310845 10.69846181 0.2213293895)
(942.4035065 13.46383473 0.4039692657)
(925.1171722 17.87686478 0.8042821989)
(904.4074365 22.72104786 0.1496214829)
(879.2146572 30.06543442 -0.2099731699)
(846.0799438 38.25426298 -0.3833520353)
(804.0226159 48.6294414 0.16295265)
(756.2216081 61.49056544 0.2831693498)
(698.3434604 77.33580188 0.2128742624)
(634.7639661 93.93638223 -0.2760352134)
(567.1373559 113.2580062 -0.2576920418)
(498.0968196 131.8545778 -0.979640947)
(433.0197314 150.2681763 0.8774041033)
(374.1579649 168.4870329 0.2654584248)
(321.5289225 182.3941653 -0.3614691721)
(275.2802125 194.9958424 -0.6215795267)
(233.9357682 205.071401 0.4756722183)
(194.9313681 211.1871862 0.05091922764)
(156.3822018 212.197415 0.2282880563)
(117.7735014 206.3739421 -0.906591462)
(77.37024052 189.2875231 -0.1699091836)
(38.26355784 151.1371555 0.7369652796)
(8.462778517 80.42100687 0.3801234098)
(999.7493534 0.1884757826 -0.157491392)
(999.3266136 -0.04048957993 -0.2138353215)
(999.2737694 0.1087630114 -0.24233095)
(998.900867 0.03685728082 -0.3079611257)
(998.5530413 0.01905331407 -0.09681862067)
(997.6870255 0.2598481687 -0.07657463667)
(997.236625 0.3289363647 -0.172195863)
(996.3053223 0.4884368122 -0.256661067)
(995.2116062 0.6919296558 0.06110904825)
(993.8105117 1.286024159 0.0796456892)