/*--------------------------------*- C++ -*----------------------------------*\
| =========                 |                                                 |
| \\      /  F ield         | OpenFOAM: The Open Source CFD Toolbox           |
|  \\    /   O peration     | Version:  v1706                                 |
|   \\  /    A nd           | Web:      www.OpenFOAM.com                      |
|    \\/     M anipulation  |                                                 |
\*---------------------------------------------------------------------------*/
FoamFile
{
    version     2.0;
    format      ascii;
    class       volScalarField;
    location    "0.004";
    object      wallHeatFlux_Ar;
}
// * * * * * * * * * * * * * * * * * * * * * * * * * * * * * * * * * * * * * //

dimensions      [1 0 -3 0 0 0 0];


internalField   uniform 0;

boundaryField
{
    flow
    {
        type            calculated;
        value           uniform 0;
    }
    cylinder
    {
        type            calculated;
        value           nonuniform List<scalar> 
60
(
988.2911289
992.763406
960.7515605
965.5413396
960.4703886
941.4463272
932.8473549
934.5487809
934.7266134
888.2565722
892.2591182
873.0720973
870.2838315
874.8144701
840.4890408
862.9784768
822.8772488
819.6957956
816.5566213
804.7368472
788.1971173
779.0151695
768.5638983
774.987967
794.1932974
762.3877201
770.6896905
757.2546915
731.4375712
731.3089703
714.5858578
717.2192705
731.550587
724.1766867
690.0754026
713.2588152
662.6773057
685.6925352
691.5442156
679.3004971
6895.036598
6775.065533
6756.877165
6710.894095
6706.033194
6754.35615
6792.240552
6748.222331
6848.16852
6822.620297
6956.136988
7012.719237
7171.295903
7320.191789
7478.670632
7579.757948
7924.566635
8275.326476
8775.989539
9989.342249
)
;
    }
    wedgeFront
    {
        type            symmetry;
    }
    wedgeBack
    {
        type            symmetry;
    }
    defaultFaces
    {
        type            empty;
    }
}


// ************************************************************************* //
