/*--------------------------------*- C++ -*----------------------------------*\
| =========                 |                                                 |
| \\      /  F ield         | OpenFOAM: The Open Source CFD Toolbox           |
|  \\    /   O peration     | Version:  v1706                                 |
|   \\  /    A nd           | Web:      www.OpenFOAM.com                      |
|    \\/     M anipulation  |                                                 |
\*---------------------------------------------------------------------------*/
FoamFile
{
    version     2.0;
    format      ascii;
    class       volScalarField;
    location    "0.004";
    object      wallShearStress_Ar;
}
// * * * * * * * * * * * * * * * * * * * * * * * * * * * * * * * * * * * * * //

dimensions      [1 -1 -2 0 0 0 0];


internalField   uniform 0;

boundaryField
{
    flow
    {
        type            calculated;
        value           uniform 0;
    }
    cylinder
    {
        type            calculated;
        value           nonuniform List<scalar> 
60
(
2.930497834
2.874188462
2.880082969
2.804592832
2.813533416
2.714817573
2.6450981
2.654651431
2.651065345
2.592210675
2.583402676
2.506374326
2.513204513
2.474871502
2.42056448
2.462813101
2.400417121
2.352225421
2.352616176
2.353113235
2.290772799
2.265532298
2.242265095
2.244840436
2.243560059
2.215421101
2.179107693
2.201405867
2.122846271
2.145105876
2.113884753
2.111875507
2.126586299
2.121378293
2.039235841
2.091348602
2.001995891
2.056615773
2.079828587
2.034484954
0.2672447273
0.4258841154
0.52311538
0.7227560522
0.9976855878
1.164528344
1.40333834
1.523495936
1.799101331
1.980802955
2.395662811
2.629617561
2.952861629
3.525502731
3.979481095
4.560933805
5.36359739
6.493050483
8.021278821
10.63114868
)
;
    }
    wedgeFront
    {
        type            symmetry;
    }
    wedgeBack
    {
        type            symmetry;
    }
    defaultFaces
    {
        type            empty;
    }
}


// ************************************************************************* //
