# Probe 0 (5e-06 5e-06 5e-06)
#           Probe                 0
#            Time
            1e-08       15014.63673
            2e-08       15016.05328
            3e-08       15017.50835
            4e-08       15017.96085
            5e-08       15019.31735
            6e-08       15017.91227
            7e-08       15018.02674
            8e-08       15018.12895
            9e-08       15018.64193
            1e-07       15020.01772
          1.1e-07        15019.9866
          1.2e-07       15022.14521
          1.3e-07       15021.62223
          1.4e-07       15020.33365
          1.5e-07        15020.8285
          1.6e-07       15016.70755
          1.7e-07       15018.40009
          1.8e-07       15018.17635
          1.9e-07       15017.55102
            2e-07       15016.74103
          2.1e-07       15016.20276
          2.2e-07       15015.68303
          2.3e-07       15017.08334
          2.4e-07       15016.89606
          2.5e-07       15014.30788
          2.6e-07       15015.91731
          2.7e-07       15014.73133
          2.8e-07       15015.48702
          2.9e-07       15017.14266
            3e-07       15017.57241
          3.1e-07       15019.47438
          3.2e-07       15018.10509
          3.3e-07       15017.28534
          3.4e-07       15017.04716
          3.5e-07       15016.86345
          3.6e-07       15015.75742
          3.7e-07       15016.05959
          3.8e-07       15015.91496
          3.9e-07       15015.12363
            4e-07       15016.47533
          4.1e-07       15018.16909
          4.2e-07       15019.45368
          4.3e-07       15019.60708
          4.4e-07       15020.76921
          4.5e-07       15017.94353
          4.6e-07       15019.14227
          4.7e-07       15018.94782
          4.8e-07       15018.56041
          4.9e-07       15017.98038
            5e-07        15018.1314
          5.1e-07       15016.31127
          5.2e-07        15014.6374
          5.3e-07       15015.89251
          5.4e-07       15015.93505
          5.5e-07       15017.31592
          5.6e-07       15016.99119
          5.7e-07       15018.71491
          5.8e-07       15019.58967
          5.9e-07       15020.96941
            6e-07       15022.24513
          6.1e-07       15022.17514
          6.2e-07       15018.29735
          6.3e-07        15019.8377
          6.4e-07       15021.73451
          6.5e-07       15023.28199
          6.6e-07       15021.31767
          6.7e-07       15021.57934
          6.8e-07       15022.66398
          6.9e-07       15023.75804
            7e-07       15021.75446
          7.1e-07       15022.14477
          7.2e-07       15018.97532
          7.3e-07       15016.33317
          7.4e-07       15016.76051
          7.5e-07       15017.23539
          7.6e-07       15016.85021
          7.7e-07       15017.16561
          7.8e-07       15020.21107
          7.9e-07       15019.24178
            8e-07       15021.60996
          8.1e-07       15019.95024
          8.2e-07       15020.63367
          8.3e-07       15019.88613
          8.4e-07       15019.50903
          8.5e-07       15017.09021
          8.6e-07       15015.52581
          8.7e-07       15014.55637
          8.8e-07       15014.02826
          8.9e-07       15014.72081
            9e-07       15015.51353
          9.1e-07       15014.26318
          9.2e-07       15011.17763
          9.3e-07       15012.11753
          9.4e-07       15012.48808
          9.5e-07         15015.636
          9.6e-07       15014.35396
          9.7e-07       15013.94047
          9.8e-07       15012.43598
          9.9e-07       15012.96254
            1e-06        15013.2947
         1.01e-06        15014.2211
         1.02e-06       15013.14492
         1.03e-06       15013.61013
         1.04e-06       15014.51628
         1.05e-06       15014.01076
         1.06e-06       15014.07172
         1.07e-06       15014.21044
         1.08e-06       15013.74074
         1.09e-06       15013.76852
          1.1e-06       15011.96763
         1.11e-06       15012.04877
         1.12e-06       15014.98551
         1.13e-06       15012.30922
         1.14e-06       15010.79406
         1.15e-06       15012.17436
         1.16e-06       15012.49467
         1.17e-06       15012.12866
         1.18e-06       15012.20422
         1.19e-06       15012.76161
          1.2e-06       15015.24978
         1.21e-06       15016.35892
         1.22e-06       15016.05355
         1.23e-06       15016.68441
         1.24e-06       15016.65484
         1.25e-06       15016.12787
         1.26e-06       15016.55763
         1.27e-06       15016.86851
         1.28e-06       15017.70273
         1.29e-06        15019.9344
          1.3e-06       15020.12388
         1.31e-06       15019.97611
         1.32e-06       15018.52561
         1.33e-06       15018.10375
         1.34e-06       15017.02956
         1.35e-06       15018.34288
         1.36e-06        15017.2741
         1.37e-06       15015.74351
         1.38e-06       15016.56088
         1.39e-06       15015.15587
          1.4e-06       15016.95068
         1.41e-06       15017.95408
         1.42e-06        15015.2102
         1.43e-06       15016.33054
         1.44e-06       15016.46493
         1.45e-06       15016.53696
         1.46e-06       15015.93794
         1.47e-06       15014.77057
         1.48e-06       15014.43511
         1.49e-06       15015.68206
          1.5e-06       15016.54338
         1.51e-06       15018.99906
         1.52e-06       15019.62815
         1.53e-06       15019.25364
         1.54e-06          15018.28
         1.55e-06       15018.11105
         1.56e-06       15019.11312
         1.57e-06       15020.07343
         1.58e-06       15019.46306
         1.59e-06       15020.15355
          1.6e-06       15021.69088
         1.61e-06       15020.31646
         1.62e-06       15020.36349
         1.63e-06       15021.31344
         1.64e-06       15020.46917
         1.65e-06       15017.75205
         1.66e-06       15017.13338
         1.67e-06       15020.48895
         1.68e-06       15022.03172
         1.69e-06       15019.78773
          1.7e-06       15018.60029
         1.71e-06       15017.24338
         1.72e-06       15016.42781
         1.73e-06       15014.32593
         1.74e-06       15015.72441
         1.75e-06       15015.97493
         1.76e-06       15016.23702
         1.77e-06       15019.07786
         1.78e-06       15017.17013
         1.79e-06       15016.01105
          1.8e-06       15018.82563
         1.81e-06       15020.36272
         1.82e-06       15020.26113
         1.83e-06       15019.84672
         1.84e-06       15020.13256
         1.85e-06       15019.50447
         1.86e-06       15019.27219
         1.87e-06       15019.54117
         1.88e-06       15019.27052
         1.89e-06        15020.4426
          1.9e-06       15020.90205
         1.91e-06       15020.60436
         1.92e-06       15020.59303
         1.93e-06       15021.27538
         1.94e-06       15022.67326
         1.95e-06       15022.20924
         1.96e-06       15022.32405
         1.97e-06       15023.02377
         1.98e-06       15021.80898
         1.99e-06       15022.34047
            2e-06       15023.15951
         2.01e-06       15021.75783
         2.02e-06       15020.45268
         2.03e-06       15018.19175
         2.04e-06       15021.90097
         2.05e-06       15022.31878
         2.06e-06       15018.69065
         2.07e-06       15018.55715
         2.08e-06        15021.7393
         2.09e-06       15021.75896
          2.1e-06       15022.70675
         2.11e-06       15021.17847
         2.12e-06        15019.7908
         2.13e-06       15020.86815
         2.14e-06       15018.50359
         2.15e-06       15019.35636
         2.16e-06       15020.29251
         2.17e-06       15018.09106
         2.18e-06       15017.46259
         2.19e-06       15018.70438
          2.2e-06       15020.60643
         2.21e-06       15021.34782
         2.22e-06       15021.54533
         2.23e-06       15020.94874
         2.24e-06       15018.07522
         2.25e-06       15018.46472
         2.26e-06       15017.16522
         2.27e-06       15015.17259
         2.28e-06       15017.03085
         2.29e-06       15019.27144
          2.3e-06        15019.2912
         2.31e-06       15019.65857
         2.32e-06       15019.26463
         2.33e-06       15020.13743
         2.34e-06       15021.71294
         2.35e-06       15023.33427
         2.36e-06       15023.29915
         2.37e-06       15022.66625
         2.38e-06       15021.44034
         2.39e-06       15021.17086
          2.4e-06        15022.3988
         2.41e-06       15022.16722
         2.42e-06        15022.1906
         2.43e-06       15021.86332
         2.44e-06       15021.91582
         2.45e-06       15018.26825
         2.46e-06       15016.96909
         2.47e-06       15019.20488
         2.48e-06       15019.38137
         2.49e-06        15019.1007
          2.5e-06       15018.30494
         2.51e-06       15018.07235
         2.52e-06        15019.4637
         2.53e-06       15020.98851
         2.54e-06       15020.74478
         2.55e-06       15021.16086
         2.56e-06       15019.24546
         2.57e-06       15017.47143
         2.58e-06       15016.26567
         2.59e-06       15018.81594
          2.6e-06       15017.28943
         2.61e-06       15017.58273
         2.62e-06       15015.90997
         2.63e-06       15017.86513
         2.64e-06       15019.02855
         2.65e-06       15018.36407
         2.66e-06       15018.35238
         2.67e-06       15018.68325
         2.68e-06       15019.68453
         2.69e-06       15017.29239
          2.7e-06       15019.83368
         2.71e-06       15018.51097
         2.72e-06       15019.26468
         2.73e-06       15016.92726
         2.74e-06       15016.61217
         2.75e-06       15013.70425
         2.76e-06        15013.0888
         2.77e-06       15015.85902
         2.78e-06       15016.05745
         2.79e-06       15015.82615
          2.8e-06       15016.18437
         2.81e-06       15015.25277
         2.82e-06       15016.16879
         2.83e-06       15016.10198
         2.84e-06       15015.55724
         2.85e-06       15013.88882
         2.86e-06       15012.92654
         2.87e-06       15014.47229
         2.88e-06       15013.41485
         2.89e-06       15011.94496
          2.9e-06       15012.72402
         2.91e-06       15013.05855
         2.92e-06       15015.15765
         2.93e-06       15017.58589
         2.94e-06       15014.87151
         2.95e-06       15015.61361
         2.96e-06       15016.05173
         2.97e-06       15018.65719
         2.98e-06       15016.20454
         2.99e-06       15015.21857
            3e-06       15017.78689
         3.01e-06       15015.48159
         3.02e-06        15015.7197
         3.03e-06       15016.22645
         3.04e-06       15019.56344
         3.05e-06       15020.83902
         3.06e-06       15021.86843
         3.07e-06       15021.79569
         3.08e-06       15021.20878
         3.09e-06       15018.65343
          3.1e-06       15019.68668
         3.11e-06       15019.18225
         3.12e-06       15018.37655
         3.13e-06       15018.74737
         3.14e-06        15019.7794
         3.15e-06       15019.90759
         3.16e-06       15019.89763
         3.17e-06       15021.18017
         3.18e-06       15020.04731
         3.19e-06       15018.72898
          3.2e-06       15017.30081
         3.21e-06       15016.27181
         3.22e-06        15016.6865
         3.23e-06       15014.98287
         3.24e-06       15015.42404
         3.25e-06       15014.98057
         3.26e-06       15013.83876
         3.27e-06       15013.89667
         3.28e-06        15013.8595
         3.29e-06       15014.55017
          3.3e-06       15016.44504
         3.31e-06        15017.8014
         3.32e-06       15019.83121
         3.33e-06       15022.11816
         3.34e-06       15018.46455
         3.35e-06        15015.1402
         3.36e-06       15016.15516
         3.37e-06       15018.19733
         3.38e-06       15016.93254
         3.39e-06       15015.75324
          3.4e-06       15014.70237
         3.41e-06       15015.68995
         3.42e-06       15017.62997
         3.43e-06       15016.51264
         3.44e-06       15015.58098
         3.45e-06       15017.40016
         3.46e-06       15016.80852
         3.47e-06       15016.50553
         3.48e-06       15016.70495
         3.49e-06       15017.71173
          3.5e-06       15018.04278
         3.51e-06       15019.11831
         3.52e-06       15018.88411
         3.53e-06       15021.22117
         3.54e-06       15020.32405
         3.55e-06       15020.29774
         3.56e-06       15019.56604
         3.57e-06       15018.38686
         3.58e-06       15017.83481
         3.59e-06       15018.13227
          3.6e-06       15017.09303
         3.61e-06       15014.62064
         3.62e-06       15014.29977
         3.63e-06       15013.31706
         3.64e-06       15015.26927
         3.65e-06       15016.98509
         3.66e-06       15015.04659
         3.67e-06       15016.77541
         3.68e-06       15016.27856
         3.69e-06       15018.61909
          3.7e-06       15017.78968
         3.71e-06       15019.77235
         3.72e-06       15018.24346
         3.73e-06       15017.32311
         3.74e-06       15018.16698
         3.75e-06       15019.83228
         3.76e-06       15021.73983
         3.77e-06       15022.93737
         3.78e-06       15022.51177
         3.79e-06       15020.86443
          3.8e-06       15023.13899
         3.81e-06       15023.92661
         3.82e-06       15024.43808
         3.83e-06       15026.70622
         3.84e-06       15024.15987
         3.85e-06       15023.03086
         3.86e-06       15019.45789
         3.87e-06       15019.91945
         3.88e-06       15019.64022
         3.89e-06       15019.48377
          3.9e-06       15019.10775
         3.91e-06       15018.72228
         3.92e-06       15018.32171
         3.93e-06       15021.02654
         3.94e-06       15022.66177
         3.95e-06       15022.11058
         3.96e-06       15020.51933
         3.97e-06       15020.47535
         3.98e-06       15020.73313
         3.99e-06       15022.77552
            4e-06       15021.82327
         4.01e-06       15022.46194
         4.02e-06       15020.12402
         4.03e-06       15020.53251
         4.04e-06       15019.37629
         4.05e-06       15017.01534
         4.06e-06       15016.93284
         4.07e-06       15017.58366
         4.08e-06       15013.76003
         4.09e-06       15014.64691
          4.1e-06       15015.67881
         4.11e-06       15014.56745
         4.12e-06       15015.81888
         4.13e-06       15016.29327
         4.14e-06       15019.10462
         4.15e-06       15017.21478
         4.16e-06       15016.92989
         4.17e-06       15016.42919
         4.18e-06       15017.18909
         4.19e-06       15020.04297
          4.2e-06       15020.92499
         4.21e-06       15022.81359
         4.22e-06       15020.46677
         4.23e-06       15021.38668
         4.24e-06       15018.88901
         4.25e-06       15017.07327
         4.26e-06         15017.592
         4.27e-06       15014.95176
         4.28e-06        15016.6985
         4.29e-06       15017.18683
          4.3e-06       15020.26933
         4.31e-06       15022.08486
         4.32e-06       15022.08266
         4.33e-06       15022.04512
         4.34e-06       15022.07588
         4.35e-06        15021.3077
         4.36e-06       15022.68181
         4.37e-06       15023.40591
         4.38e-06       15022.31785
         4.39e-06       15019.80723
          4.4e-06       15019.55861
         4.41e-06       15018.57648
         4.42e-06       15020.12088
         4.43e-06        15020.5021
         4.44e-06       15018.09766
         4.45e-06       15018.23838
         4.46e-06        15019.6294
         4.47e-06       15019.02963
         4.48e-06       15018.62735
         4.49e-06       15020.21224
          4.5e-06       15016.79268
         4.51e-06       15016.20287
         4.52e-06       15016.97421
         4.53e-06       15017.61973
         4.54e-06         15019.171
         4.55e-06       15018.71304
         4.56e-06       15020.43297
         4.57e-06       15020.31237
         4.58e-06       15019.98381
         4.59e-06       15017.02275
          4.6e-06       15015.29946
         4.61e-06       15017.69039
         4.62e-06       15016.73417
         4.63e-06       15018.89205
         4.64e-06       15020.52037
         4.65e-06       15022.65046
         4.66e-06       15019.68926
         4.67e-06       15018.89731
         4.68e-06       15017.87583
         4.69e-06       15017.15084
          4.7e-06       15018.18537
         4.71e-06       15018.85506
         4.72e-06       15018.64454
         4.73e-06       15019.75071
         4.74e-06       15019.42071
         4.75e-06       15017.05425
         4.76e-06        15017.6994
         4.77e-06       15016.75604
         4.78e-06       15016.45377
         4.79e-06       15016.59534
          4.8e-06       15018.58855
         4.81e-06       15017.25288
         4.82e-06       15017.60557
         4.83e-06       15018.22743
         4.84e-06       15018.22876
         4.85e-06       15020.12068
         4.86e-06       15021.79464
         4.87e-06       15022.13702
         4.88e-06       15021.84451
         4.89e-06       15020.09322
          4.9e-06       15018.79908
         4.91e-06        15018.7127
         4.92e-06       15019.03249
         4.93e-06        15020.5219
         4.94e-06       15020.15701
         4.95e-06       15020.42513
         4.96e-06       15019.83438
         4.97e-06        15019.1042
         4.98e-06       15020.32457
         4.99e-06       15019.39873
            5e-06       15018.84563
         5.01e-06       15017.86779
         5.02e-06       15018.13867
         5.03e-06       15017.72298
         5.04e-06       15018.24649
         5.05e-06       15018.89127
         5.06e-06       15017.04837
         5.07e-06       15018.93018
         5.08e-06       15016.85297
         5.09e-06        15018.4857
          5.1e-06       15018.40845
         5.11e-06       15017.90464
         5.12e-06       15017.64889
         5.13e-06       15016.15465
         5.14e-06       15017.75698
         5.15e-06       15017.30437
         5.16e-06       15019.12968
         5.17e-06       15020.99378
         5.18e-06       15020.43934
         5.19e-06       15022.25426
          5.2e-06       15023.21172
         5.21e-06       15021.45521
         5.22e-06       15020.87615
         5.23e-06        15018.6978
         5.24e-06       15017.94595
         5.25e-06       15017.05816
         5.26e-06       15018.24385
         5.27e-06       15017.63998
         5.28e-06       15016.13178
         5.29e-06       15014.47365
          5.3e-06       15013.46773
         5.31e-06       15015.35041
         5.32e-06        15014.5661
         5.33e-06       15015.21089
         5.34e-06       15016.18613
         5.35e-06       15017.14697
         5.36e-06       15018.33298
         5.37e-06       15018.76737
         5.38e-06       15019.47147
         5.39e-06         15018.164
          5.4e-06       15018.98524
         5.41e-06       15018.48606
         5.42e-06       15019.42517
         5.43e-06       15015.52177
         5.44e-06       15015.66294
         5.45e-06       15015.26662
         5.46e-06       15018.26412
         5.47e-06       15016.85741
         5.48e-06        15018.7868
         5.49e-06       15019.69606
          5.5e-06       15019.36867
         5.51e-06       15021.71133
         5.52e-06       15019.36858
         5.53e-06        15018.9479
         5.54e-06       15016.50956
         5.55e-06       15017.29632
         5.56e-06        15020.5687
         5.57e-06       15016.63895
         5.58e-06        15018.9414
         5.59e-06        15020.5718
          5.6e-06       15019.81724
         5.61e-06       15020.99885
         5.62e-06       15019.53162
         5.63e-06       15018.02453
         5.64e-06       15018.53365
         5.65e-06       15021.03553
         5.66e-06       15022.43245
         5.67e-06       15019.84679
         5.68e-06       15020.50359
         5.69e-06       15021.38509
          5.7e-06        15021.4188
         5.71e-06       15022.13741
         5.72e-06       15020.83127
         5.73e-06       15020.88859
         5.74e-06       15020.99451
         5.75e-06       15019.33192
         5.76e-06       15017.75384
         5.77e-06       15015.83518
         5.78e-06       15016.68681
         5.79e-06       15017.79651
          5.8e-06       15016.95515
         5.81e-06       15017.98516
         5.82e-06       15017.08562
         5.83e-06       15017.88777
         5.84e-06       15019.69337
         5.85e-06       15018.16015
         5.86e-06       15017.39439
         5.87e-06       15017.70905
         5.88e-06       15019.38148
         5.89e-06       15019.96449
          5.9e-06       15022.37622
         5.91e-06       15018.71982
         5.92e-06       15015.46073
         5.93e-06       15016.73959
         5.94e-06       15016.26085
         5.95e-06       15016.98797
         5.96e-06       15016.27428
         5.97e-06       15016.40175
         5.98e-06       15015.74018
         5.99e-06       15016.32279
            6e-06       15015.18147
         6.01e-06       15016.40257
         6.02e-06       15018.20252
         6.03e-06       15018.73455
         6.04e-06       15018.03128
         6.05e-06       15017.90547
         6.06e-06        15018.6962
         6.07e-06       15017.54204
         6.08e-06       15017.86648
         6.09e-06       15019.00801
          6.1e-06       15019.67044
         6.11e-06       15019.59924
         6.12e-06       15019.20977
         6.13e-06       15019.44994
         6.14e-06       15019.07424
         6.15e-06       15019.35611
         6.16e-06       15018.90799
         6.17e-06        15019.9948
         6.18e-06       15019.28508
         6.19e-06       15019.00338
          6.2e-06        15020.4274
         6.21e-06       15019.82168
         6.22e-06       15018.59976
         6.23e-06       15018.30889
         6.24e-06       15018.86356
         6.25e-06       15016.06421
         6.26e-06       15016.07139
         6.27e-06       15016.50529
         6.28e-06       15015.93721
         6.29e-06       15015.95652
          6.3e-06       15015.06787
         6.31e-06       15013.38034
         6.32e-06       15015.50666
         6.33e-06       15015.43692
         6.34e-06       15014.68062
         6.35e-06       15015.34105
         6.36e-06       15015.28401
         6.37e-06       15014.11443
         6.38e-06       15015.27555
         6.39e-06        15018.2389
          6.4e-06       15017.04551
         6.41e-06       15015.45095
         6.42e-06       15014.13942
         6.43e-06       15013.57578
         6.44e-06       15015.35907
         6.45e-06        15016.4164
         6.46e-06       15014.70074
         6.47e-06       15013.99528
         6.48e-06       15013.09568
         6.49e-06       15010.10875
          6.5e-06        15013.5112
         6.51e-06       15013.36908
         6.52e-06        15013.5995
         6.53e-06       15013.36495
         6.54e-06       15015.56214
         6.55e-06       15015.54971
         6.56e-06        15016.1778
         6.57e-06       15013.30208
         6.58e-06        15014.9699
         6.59e-06       15013.78699
          6.6e-06       15012.20126
         6.61e-06       15011.21316
         6.62e-06       15009.55866
         6.63e-06       15009.08454
         6.64e-06       15009.80066
         6.65e-06       15010.03005
         6.66e-06       15010.40938
         6.67e-06       15011.08093
         6.68e-06       15014.19997
         6.69e-06        15013.5218
          6.7e-06       15011.83201
         6.71e-06       15012.83673
         6.72e-06       15011.19388
         6.73e-06        15013.7494
         6.74e-06       15014.00852
         6.75e-06       15013.34422
         6.76e-06        15013.1178
         6.77e-06       15014.14834
         6.78e-06       15013.98687
         6.79e-06       15015.75203
          6.8e-06       15015.32298
         6.81e-06       15016.09836
         6.82e-06       15018.54829
         6.83e-06       15016.32096
         6.84e-06       15018.01281
         6.85e-06        15020.9647
         6.86e-06       15019.36516
         6.87e-06       15019.44304
         6.88e-06       15020.52172
         6.89e-06       15021.48723
          6.9e-06       15020.85912
         6.91e-06       15017.90853
         6.92e-06       15016.13246
         6.93e-06       15013.85491
         6.94e-06       15015.04141
         6.95e-06       15015.32342
         6.96e-06       15017.00952
         6.97e-06       15019.22837
         6.98e-06       15019.37375
         6.99e-06       15019.43282
            7e-06       15018.62155
         7.01e-06       15019.31288
         7.02e-06       15017.60048
         7.03e-06       15017.73192
         7.04e-06       15018.37194
         7.05e-06       15018.20081
         7.06e-06       15019.77488
         7.07e-06       15018.76493
         7.08e-06       15017.29924
         7.09e-06        15017.6497
          7.1e-06       15015.63128
         7.11e-06       15017.44893
         7.12e-06        15015.7301
         7.13e-06       15013.69683
         7.14e-06        15011.9247
         7.15e-06        15013.9748
         7.16e-06        15011.5765
         7.17e-06       15015.97812
         7.18e-06       15015.81462
         7.19e-06       15019.17877
          7.2e-06       15018.13138
         7.21e-06       15017.63927
         7.22e-06       15018.73247
         7.23e-06       15019.00181
         7.24e-06       15015.00179
         7.25e-06       15012.49352
         7.26e-06       15014.60995
         7.27e-06       15012.60253
         7.28e-06       15014.47436
         7.29e-06       15014.13669
          7.3e-06       15015.07048
         7.31e-06        15016.4489
         7.32e-06       15016.16819
         7.33e-06       15014.24554
         7.34e-06       15016.26973
         7.35e-06       15013.68069
         7.36e-06       15013.27365
         7.37e-06       15013.34589
         7.38e-06       15014.65087
         7.39e-06       15014.39571
          7.4e-06       15017.64987
         7.41e-06       15017.41384
         7.42e-06       15020.05647
         7.43e-06       15018.62939
         7.44e-06       15018.52018
         7.45e-06       15017.08005
         7.46e-06       15019.80437
         7.47e-06       15021.39855
         7.48e-06        15019.2976
         7.49e-06       15019.14639
          7.5e-06       15018.83363
         7.51e-06       15019.43642
         7.52e-06       15021.16847
         7.53e-06       15021.73496
         7.54e-06       15020.89507
         7.55e-06       15022.21324
         7.56e-06       15021.01249
         7.57e-06       15022.89768
         7.58e-06       15020.58439
         7.59e-06       15019.43068
          7.6e-06       15021.41193
         7.61e-06       15016.68807
         7.62e-06       15016.23444
         7.63e-06       15016.27378
         7.64e-06       15014.95311
         7.65e-06       15013.80217
         7.66e-06       15014.99527
         7.67e-06       15016.16548
         7.68e-06        15017.1205
         7.69e-06       15020.93152
          7.7e-06       15019.12022
         7.71e-06       15020.34068
         7.72e-06       15020.82682
         7.73e-06       15020.32029
         7.74e-06       15018.12002
         7.75e-06       15018.55636
         7.76e-06       15019.94858
         7.77e-06       15020.93017
         7.78e-06       15018.57691
         7.79e-06       15019.08138
          7.8e-06       15018.31439
         7.81e-06       15018.38118
         7.82e-06       15018.76284
         7.83e-06       15019.07975
         7.84e-06       15019.84044
         7.85e-06       15021.03475
         7.86e-06       15018.04127
         7.87e-06       15018.51153
         7.88e-06       15019.20634
         7.89e-06       15017.91991
          7.9e-06       15013.63606
         7.91e-06       15013.63704
         7.92e-06       15012.71085
         7.93e-06       15013.18702
         7.94e-06       15015.02167
         7.95e-06       15016.70506
         7.96e-06       15017.81303
         7.97e-06       15022.67722
         7.98e-06       15022.45569
         7.99e-06       15024.20656
            8e-06       15021.72236
         8.01e-06       15022.52443
         8.02e-06       15024.55894
         8.03e-06       15024.15783
         8.04e-06        15024.7177
         8.05e-06       15023.08231
         8.06e-06       15022.75104
         8.07e-06       15020.21135
         8.08e-06       15020.34001
         8.09e-06       15018.25017
          8.1e-06       15015.05827
         8.11e-06       15014.38656
         8.12e-06        15013.8454
         8.13e-06       15014.86876
         8.14e-06       15016.64286
         8.15e-06       15018.12318
         8.16e-06       15020.23929
         8.17e-06       15020.98763
         8.18e-06       15020.15229
         8.19e-06       15020.66365
          8.2e-06       15020.06694
         8.21e-06       15019.88214
         8.22e-06       15020.98463
         8.23e-06        15021.8571
         8.24e-06       15020.45923
         8.25e-06       15018.56905
         8.26e-06       15017.76287
         8.27e-06       15018.93197
         8.28e-06       15017.62324
         8.29e-06       15019.64848
          8.3e-06       15020.17919
         8.31e-06       15018.04872