# Probe 0 (5e-06 5e-06 5e-06)
#           Probe                 0
#            Time
            1e-08       15012.84625
            2e-08       15011.53532
            3e-08         15006.382
            4e-08       15008.14498
            5e-08       15005.59092
            6e-08       15010.26959
            7e-08       15019.08447
            8e-08       15031.35746
            9e-08       15043.85643
            1e-07       15052.85205
          1.1e-07       15070.14257
          1.2e-07       15081.10449
          1.3e-07       15068.71865
          1.4e-07       15057.34985
          1.5e-07       15053.50751
          1.6e-07       15057.28205
          1.7e-07       15047.78919
          1.8e-07       15053.77873
          1.9e-07       15072.96781
            2e-07       15069.82614
          2.1e-07       15071.04664
          2.2e-07       15063.76882
          2.3e-07       15072.99041
          2.4e-07       15067.27212
          2.5e-07       15051.85756
          2.6e-07       15049.86858
          2.7e-07       15065.21534
          2.8e-07       15060.98877
          2.9e-07       15063.92703
            3e-07       15048.62547
          3.1e-07       15045.00914
          3.2e-07       15049.98159
          3.3e-07       15037.39223
          3.4e-07       15042.38729
          3.5e-07       15039.94627
          3.6e-07       15026.45279
          3.7e-07       15032.39716
          3.8e-07        15032.8944
          3.9e-07       15020.84744
            4e-07       15021.05086
          4.1e-07       15035.56146
          4.2e-07       15049.82338
          4.3e-07       15049.25832
          4.4e-07       15059.74566
          4.5e-07       15052.21919
          4.6e-07       15051.67674
          4.7e-07       15059.24842
          4.8e-07       15047.49536
          4.9e-07       15046.22965
            5e-07       15042.38729
          5.1e-07       15050.27542
          5.2e-07        15040.3079
          5.3e-07       15044.71531
          5.4e-07       15046.36526
          5.5e-07       15048.21863
          5.6e-07       15050.47883
          5.7e-07       15063.47499
          5.8e-07       15083.31948
          5.9e-07       15071.36307
            6e-07       15072.58358
          6.1e-07       15094.32657
          6.2e-07       15075.36361
          6.3e-07       15070.82063
          6.4e-07       15070.88843
          6.5e-07       15074.50474
          6.6e-07        15061.3504
          6.7e-07       15053.98215
          6.8e-07       15061.66683
          6.9e-07       15066.02901
            7e-07       15052.01577
          7.1e-07       15060.83056
          7.2e-07       15064.85371
          7.3e-07       15069.84874
          7.4e-07       15064.58249
          7.5e-07       15061.14699
          7.6e-07       15052.76164
          7.7e-07        15056.7848
          7.8e-07       15061.44081
          7.9e-07       15046.68169
            8e-07       15041.00857
          8.1e-07       15044.19546
          8.2e-07       15031.01843
          8.3e-07       15028.23836
          8.4e-07       15034.43135
          8.5e-07        15030.7246
          8.6e-07       15018.74544
          8.7e-07       15031.49307
          8.8e-07       15023.22067
          8.9e-07       15028.01234
            9e-07       15031.69649
          9.1e-07        15032.8266
          9.2e-07       15045.48378
          9.3e-07         15028.713
          9.4e-07       15026.33978
          9.5e-07       15031.51567
          9.6e-07       15014.85785
          9.7e-07       15003.62452
          9.8e-07       15005.52311
          9.9e-07       14991.93911
            1e-06       15002.08756
         1.01e-06       14984.29949
         1.02e-06       14987.28301
         1.03e-06       14991.12542
         1.04e-06       15002.22317
         1.05e-06       15001.56771
         1.06e-06       14986.03988
         1.07e-06       15001.34168
         1.08e-06       14996.21095
         1.09e-06       14992.05212
          1.1e-06       14985.18099
         1.11e-06        14990.0179
         1.12e-06       14999.14926
         1.13e-06       15002.40399
         1.14e-06        15003.4211
         1.15e-06        15002.4266
         1.16e-06       15022.83644
         1.17e-06       15011.44491
         1.18e-06       15018.08997
         1.19e-06       15037.86687
          1.2e-06       15051.90276
         1.21e-06       15032.39716
         1.22e-06        15026.5432
         1.23e-06       15029.95612
         1.24e-06        15017.3893
         1.25e-06       15011.78394
         1.26e-06       15015.85235
         1.27e-06        15016.3722
         1.28e-06       15029.52668
         1.29e-06       15034.83819
          1.3e-06       15048.60286
         1.31e-06       15070.30078
         1.32e-06       15062.86474
         1.33e-06       15071.29527
         1.34e-06       15082.21198
         1.35e-06       15083.90712
         1.36e-06       15094.48478
         1.37e-06       15088.06586
         1.38e-06       15095.54706
         1.39e-06       15078.48267
          1.4e-06       15080.06481
         1.41e-06       15102.53101
         1.42e-06       15106.53152
         1.43e-06       15114.03529
         1.44e-06       15114.75854
         1.45e-06       15126.28539
         1.46e-06       15113.85448
         1.47e-06       15128.36474
         1.48e-06       15118.91725
         1.49e-06       15118.48782
          1.5e-06       15104.54257
         1.51e-06       15120.58978
         1.52e-06       15119.84392
         1.53e-06       15114.05789
         1.54e-06       15105.10761
         1.55e-06       15106.89315
         1.56e-06       15105.89867
         1.57e-06       15104.49737
         1.58e-06       15083.81672
         1.59e-06       15080.92368
          1.6e-06       15078.86691
         1.61e-06       15072.99041
         1.62e-06       15062.84214
         1.63e-06       15068.10839
         1.64e-06       15053.53011
         1.65e-06       15046.72689
         1.66e-06       15044.91873
         1.67e-06       15042.54551
         1.68e-06       15036.60115
         1.69e-06       15037.66345
          1.7e-06       15042.79413
         1.71e-06       15048.82889
         1.72e-06       15038.40932
         1.73e-06       15032.66838
         1.74e-06       15027.17606
         1.75e-06       15029.05204
         1.76e-06       15020.89265
         1.77e-06       15014.06677
         1.78e-06       14998.51639
         1.79e-06       14998.69721
          1.8e-06       14998.04174
         1.81e-06       14998.40338
         1.82e-06       15003.57931
         1.83e-06       14998.22256
         1.84e-06         14994.787
         1.85e-06       14988.34533
         1.86e-06       14988.27752
         1.87e-06       14995.26165
         1.88e-06       14987.10219
         1.89e-06       14984.09607
          1.9e-06       14982.19747
         1.91e-06       14983.93786
         1.92e-06       14998.69721
         1.93e-06       14992.59457
         1.94e-06       15000.82183
         1.95e-06       15000.27937
         1.96e-06       15002.58481
         1.97e-06        15000.5732
         1.98e-06       15000.64101
         1.99e-06       14999.98554
            2e-06       15006.29159
         2.01e-06        14997.6349
         2.02e-06       14993.49867
         2.03e-06        15005.3649
         2.04e-06       15012.41681
         2.05e-06       15010.83465
         2.06e-06       15009.84015
         2.07e-06       14993.00142
         2.08e-06       15001.07046
         2.09e-06       15004.27999
          2.1e-06       15010.45041
         2.11e-06       14998.33557
         2.12e-06       15010.67643
         2.13e-06       15001.16087
         2.14e-06       14993.25004
         2.15e-06       14988.66176
         2.16e-06       14976.41124
         2.17e-06       14973.13388
         2.18e-06       14974.85167
         2.19e-06       14981.67761
          2.2e-06       14985.92687
         2.21e-06       15001.43209
         2.22e-06       15010.20179
         2.23e-06       15015.53592
         2.24e-06       15010.26959
         2.25e-06        15016.3722
         2.26e-06       15016.53042
         2.27e-06       15022.29398
         2.28e-06       15018.97146
         2.29e-06       15025.63911
          2.3e-06       15044.87352
         2.31e-06       15048.55766
         2.32e-06       15046.90771
         2.33e-06       15034.56696
         2.34e-06       15048.46725
         2.35e-06       15039.49423
         2.36e-06       15054.61501
         2.37e-06       15059.51964
         2.38e-06       15062.57091
         2.39e-06       15083.22907
          2.4e-06       15077.84982
         2.41e-06       15087.61383
         2.42e-06        15081.1723
         2.43e-06       15078.12104
         2.44e-06       15089.64799
         2.45e-06       15063.00035
         2.46e-06       15050.90827
         2.47e-06       15059.92648
         2.48e-06       15058.70597
         2.49e-06       15067.74676
          2.5e-06       15056.51358
         2.51e-06       15058.70597
         2.52e-06       15062.34489
         2.53e-06        15076.4033
         2.54e-06       15089.33157
         2.55e-06       15087.65903
         2.56e-06       15077.75941
         2.57e-06       15066.00641
         2.58e-06       15048.89669
         2.59e-06       15054.90883
          2.6e-06       15049.21312
         2.61e-06       15064.44688
         2.62e-06        15051.2247
         2.63e-06        15054.5472
         2.64e-06       15066.14202
         2.65e-06       15053.34929
         2.66e-06       15052.73904
         2.67e-06       15038.02509
         2.68e-06       15029.59449
         2.69e-06       15013.20789
          2.7e-06       15008.73264
         2.71e-06       15007.06007
         2.72e-06       15010.74424
         2.73e-06       15008.84565
         2.74e-06       15011.87435
         2.75e-06       15019.78514
         2.76e-06        15015.3551
         2.77e-06       15012.98186
         2.78e-06       15020.91525
         2.79e-06        15024.4864
          2.8e-06       15024.80283
         2.81e-06        15011.3093
         2.82e-06       15009.43331
         2.83e-06       15019.24268
         2.84e-06       15027.31167
         2.85e-06       15022.81383
         2.86e-06        15004.4608
         2.87e-06       15021.81934
         2.88e-06       15020.14677
         2.89e-06       15007.51211
          2.9e-06       15007.24089
         2.91e-06       15011.39971
         2.92e-06       15019.94335
         2.93e-06       15027.31167
         2.94e-06       15030.99582
         2.95e-06       15025.88773
         2.96e-06       15030.18215
         2.97e-06        15020.4632
         2.98e-06       15014.81265
         2.99e-06       15024.03435
            3e-06        15033.8889
         3.01e-06       15020.91525
         3.02e-06        15015.3551
         3.03e-06       15019.73993
         3.04e-06       15020.01116
         3.05e-06       15027.80892
         3.06e-06       15025.20967
         3.07e-06       15019.92075
         3.08e-06       15016.50781
         3.09e-06       14999.80473
          3.1e-06       14997.00204
         3.11e-06       14986.76316
         3.12e-06       14983.28239
         3.13e-06       14983.66663
         3.14e-06        15002.4718
         3.15e-06       15012.93666
         3.16e-06       15009.90796
         3.17e-06       15008.95866
         3.18e-06       15013.63733
         3.19e-06       15011.58052
          3.2e-06       15007.30869
         3.21e-06       14999.75952
         3.22e-06       15002.01975
         3.23e-06        15000.5054
         3.24e-06       15006.06557
         3.25e-06       15000.36978
         3.26e-06       14991.08022
         3.27e-06       15000.77663
         3.28e-06       15018.60982
         3.29e-06       15017.52492
          3.3e-06       15026.88223
         3.31e-06       15035.29023
         3.32e-06       15023.19807
         3.33e-06       15035.33544
         3.34e-06       15012.84625
         3.35e-06       15012.00997
         3.36e-06       14993.61168
         3.37e-06       14992.18773
         3.38e-06       14996.88902
         3.39e-06       15001.68072
          3.4e-06       14996.41437
         3.41e-06       14976.11741
         3.42e-06       14989.29463
         3.43e-06       15000.91224
         3.44e-06       15007.46691
         3.45e-06       15008.07717
         3.46e-06       15005.07107
         3.47e-06       15014.92566
         3.48e-06        15031.8321
         3.49e-06       15029.02944
          3.5e-06       15038.72575
         3.51e-06       15047.15633
         3.52e-06       15053.12327
         3.53e-06       15048.62547
         3.54e-06       15037.30182
         3.55e-06       15038.61274
         3.56e-06       15024.21517
         3.57e-06       15030.43077
         3.58e-06       15037.73126
         3.59e-06       15027.78632
          3.6e-06       15020.73443
         3.61e-06       15027.49249
         3.62e-06       15037.46003
         3.63e-06       15048.44465
         3.64e-06        15048.9871
         3.65e-06       15047.60837
         3.66e-06       15045.55159
         3.67e-06       15038.31892
         3.68e-06       15031.67389
         3.69e-06       15033.70808
          3.7e-06       15027.06305
         3.71e-06        15030.7472
         3.72e-06       15038.34152
         3.73e-06       15046.88511
         3.74e-06       15034.86079
         3.75e-06       15039.01958
         3.76e-06       15037.23401
         3.77e-06       15034.72518
         3.78e-06       15028.08014
         3.79e-06       15033.79849
          3.8e-06       15040.19489
         3.81e-06       15054.97664
         3.82e-06       15047.33715
         3.83e-06       15041.68663
         3.84e-06       15027.71851
         3.85e-06       15031.94511
         3.86e-06       15030.81501
         3.87e-06       15050.70486
         3.88e-06       15043.06536
         3.89e-06       15046.41046
          3.9e-06       15037.88948
         3.91e-06       15049.86858
         3.92e-06       15051.02128
         3.93e-06       15056.89781
         3.94e-06       15043.60781
         3.95e-06       15046.50087
         3.96e-06       15052.55822
         3.97e-06       15057.57587
         3.98e-06        15071.7021
         3.99e-06       15062.54831
            4e-06       15055.94853
         4.01e-06       15049.82338
         4.02e-06       15054.23077
         4.03e-06       15056.24235
         4.04e-06       15061.10178
         4.05e-06       15055.36087
         4.06e-06       15055.76771
         4.07e-06       15059.76827
         4.08e-06       15056.12934
         4.09e-06       15074.82117
          4.1e-06        15078.7991
         4.11e-06        15071.7021
         4.12e-06       15078.50528
         4.13e-06       15075.68004
         4.14e-06       15076.67452
         4.15e-06       15073.69107
         4.16e-06        15074.0979
         4.17e-06       15069.60012
         4.18e-06       15071.97332
         4.19e-06       15068.10839
          4.2e-06       15070.68501
         4.21e-06        15075.2732
         4.22e-06       15067.70156
         4.23e-06       15071.13705
         4.24e-06       15076.19988
         4.25e-06       15064.42427
         4.26e-06       15069.78094
         4.27e-06       15054.43419
         4.28e-06       15059.42924
         4.29e-06       15059.79087
          4.3e-06       15064.44688
         4.31e-06       15069.26109
         4.32e-06       15060.76275
         4.33e-06       15060.51413
         4.34e-06        15047.8796
         4.35e-06       15047.45016
         4.36e-06        15036.0135
         4.37e-06       15035.92309
         4.38e-06       15040.89556
         4.39e-06       15045.16735
          4.4e-06       15044.10505
         4.41e-06        15021.4803
         4.42e-06       15019.01666
         4.43e-06       15014.72224
         4.44e-06       15007.62513
         4.45e-06        15012.3038
         4.46e-06       15025.86513
         4.47e-06       15019.33309
         4.48e-06       15023.67272
         4.49e-06       15015.10648
          4.5e-06        15025.5713
         4.51e-06       15023.40149
         4.52e-06       15031.24445
         4.53e-06       15011.24149
         4.54e-06       15013.86335
         4.55e-06       15000.03075
         4.56e-06       14988.68436
         4.57e-06       14986.33371
         4.58e-06       14997.56709
         4.59e-06       15001.04785
          4.6e-06         14992.798
         4.61e-06       15002.38139
         4.62e-06       14992.14253
         4.63e-06       14999.94034
         4.64e-06       14996.36917
         4.65e-06       14995.41987
         4.66e-06       14993.92811
         4.67e-06       14988.30012
         4.68e-06       14986.60494
         4.69e-06         14989.046
          4.7e-06       14987.28301
         4.71e-06        14973.2695
         4.72e-06       14965.22301
         4.73e-06       14966.33053
         4.74e-06       14977.31534
         4.75e-06       14983.82484
         4.76e-06       14966.69217
         4.77e-06       14956.49842
         4.78e-06       14955.86555
         4.79e-06       14956.11418
          4.8e-06       14958.57786
         4.81e-06       14969.38187
         4.82e-06        14976.0044
         4.83e-06       14973.69895
         4.84e-06       14980.95434
         4.85e-06       14993.25004
         4.86e-06       14988.54875
         4.87e-06       14985.88166
         4.88e-06       14982.94335
         4.89e-06       14986.92137
          4.9e-06       14979.16874
         4.91e-06       14980.93173
         4.92e-06       14983.66663
         4.93e-06       14988.97819
         4.94e-06       14991.03501
         4.95e-06       15001.97455
         4.96e-06        15002.4718
         4.97e-06       15009.95316
         4.98e-06        15015.3325
         4.99e-06       15024.59941
            5e-06        15027.5829
         5.01e-06       15038.72575
         5.02e-06       15032.28415
         5.03e-06       15037.93468
         5.04e-06       15024.30558
         5.05e-06       15020.93785
         5.06e-06       15022.63302
         5.07e-06       15025.43569
         5.08e-06       15041.18938
         5.09e-06         15052.287
          5.1e-06       15037.27922
         5.11e-06       15035.69707
         5.12e-06       15039.04218
         5.13e-06       15025.45829
         5.14e-06       15020.77964
         5.15e-06       15016.50781
         5.16e-06       15021.05086
         5.17e-06         15000.528
         5.18e-06        15007.3313
         5.19e-06       15018.51941
          5.2e-06       15019.60432
         5.21e-06       15023.58231
         5.22e-06       15018.24819
         5.23e-06       15020.68923
         5.24e-06       15005.18408
         5.25e-06       15005.13887
         5.26e-06       15003.89575
         5.27e-06       15003.03686
         5.28e-06       14997.83832
         5.29e-06       14983.66663
          5.3e-06         14979.666
         5.31e-06       14979.37216
         5.32e-06        14974.2414
         5.33e-06       14984.79675
         5.34e-06        14978.7393
         5.35e-06       14979.16874
         5.36e-06        14974.1962
         5.37e-06       14975.62016
         5.38e-06       14976.50165
         5.39e-06       14981.94884
          5.4e-06       15001.90674
         5.41e-06       15022.33919
         5.42e-06       15030.45337
         5.43e-06        15020.3728
         5.44e-06       15019.33309
         5.45e-06       15005.09367
         5.46e-06       15017.14068
         5.47e-06       15001.09306
         5.48e-06       15008.12238
         5.49e-06       15022.90424
          5.5e-06        15026.6336
         5.51e-06        15017.3215
         5.52e-06       15008.89085
         5.53e-06       15006.96966
         5.54e-06       15000.07595
         5.55e-06        15006.3594
         5.56e-06       15014.06677
         5.57e-06       15010.67643
         5.58e-06       15022.22618
         5.59e-06       15020.55361
          5.6e-06       15027.56029
         5.61e-06       15015.26469
         5.62e-06       15018.20298
         5.63e-06       15004.64162
         5.64e-06       14997.56709
         5.65e-06       15005.29709
         5.66e-06       15015.28729
         5.67e-06       15006.76624
         5.68e-06       15010.06617
         5.69e-06        15011.3545
          5.7e-06       15006.20118
         5.71e-06       14997.52189
         5.72e-06       15003.57931
         5.73e-06       14999.75952
         5.74e-06       15010.26959
         5.75e-06       14999.08145
         5.76e-06        14996.7082
         5.77e-06        14997.5897
         5.78e-06       14983.30499
         5.79e-06       15005.47791
          5.8e-06       15006.26899
         5.81e-06       15015.28729
         5.82e-06       15011.44491
         5.83e-06       14999.80473
         5.84e-06       14997.38628
         5.85e-06       15003.80534
         5.86e-06       15009.18468
         5.87e-06       15003.05946
         5.88e-06       15016.75644
         5.89e-06       15006.31419
          5.9e-06       15003.12727
         5.91e-06       14989.54325
         5.92e-06       15003.37589
         5.93e-06       15005.54571
         5.94e-06       15006.04296
         5.95e-06        15007.4217
         5.96e-06       14996.32396
         5.97e-06       15003.17247
         5.98e-06        14988.0967
         5.99e-06       14994.53838
            6e-06        15009.3203
         6.01e-06       14999.71432
         6.02e-06       14998.42598
         6.03e-06       15003.30809
         6.04e-06       14997.16025
         6.05e-06       14994.56098
         6.06e-06       15005.74913
         6.07e-06       15003.71493
         6.08e-06       15015.10648
         6.09e-06       15014.92566
          6.1e-06       15013.63733
         6.11e-06       15026.40758
         6.12e-06       15020.77964
         6.13e-06       15026.76922
         6.14e-06       15028.21576
         6.15e-06       15035.40324
         6.16e-06       15030.15954
         6.17e-06       15028.59999
         6.18e-06       15026.36238
         6.19e-06       15026.18156
          6.2e-06       15018.81324
         6.21e-06       15004.27999
         6.22e-06       14996.50478
         6.23e-06       14989.18161
         6.24e-06       14994.31235
         6.25e-06       14986.10769
         6.26e-06       14990.28913
         6.27e-06       14986.74056
         6.28e-06       15004.55121
         6.29e-06       15009.70454
          6.3e-06        14999.5561
         6.31e-06       14996.91163
         6.32e-06        14992.8206
         6.33e-06       14990.62817
         6.34e-06       15008.55182
         6.35e-06       15008.93606
         6.36e-06       15007.51211
         6.37e-06       15003.33069
         6.38e-06        14990.9672
         6.39e-06       14992.07472
          6.4e-06       14997.77052
         6.41e-06       14990.17612
         6.42e-06       14995.57809
         6.43e-06       14977.02151
         6.44e-06       14982.89814
         6.45e-06        14986.1981
         6.46e-06       14975.73317
         6.47e-06        14983.4406
         6.48e-06       14972.20718
         6.49e-06       14972.54622
          6.5e-06       14982.58171
         6.51e-06       14986.92137
         6.52e-06       14989.90489
         6.53e-06        14994.7418
         6.54e-06       14977.20233
         6.55e-06       14977.72218
         6.56e-06       14976.25302
         6.57e-06        14973.2469
         6.58e-06       14978.01602
         6.59e-06       14981.38378
          6.6e-06       14974.62565
         6.61e-06       14970.44419
         6.62e-06       14954.64501
         6.63e-06       14950.93818
         6.64e-06       14961.99084
         6.65e-06       14949.76284
         6.66e-06       14954.91624
         6.67e-06       14938.77796
         6.68e-06       14946.68889
         6.69e-06       14932.26838
          6.7e-06       14932.20057
         6.71e-06       14935.00331
         6.72e-06       14935.93002
         6.73e-06       14944.13479
         6.74e-06       14963.52782
         6.75e-06       14961.10934
         6.76e-06       14964.16069
         6.77e-06       14961.47098
         6.78e-06       14961.31277
         6.79e-06       14987.48644
          6.8e-06       14981.40638
         6.81e-06       14977.60917
         6.82e-06         14983.418
         6.83e-06       14967.93531
         6.84e-06       14973.06608
         6.85e-06       14981.36118
         6.86e-06       14995.48768
         6.87e-06       14985.67824
         6.88e-06       14998.13215
         6.89e-06       14999.89514
          6.9e-06       14999.75952
         6.91e-06       15007.48951
         6.92e-06       15008.07717
         6.93e-06       15005.99776
         6.94e-06       15003.24028
         6.95e-06       15011.67093
         6.96e-06       15012.43941
         6.97e-06       15012.52982
         6.98e-06       15010.20179
         6.99e-06       15017.95436
            7e-06       15015.85235
         7.01e-06       15013.63733
         7.02e-06       15001.31908
         7.03e-06       14998.67461
         7.04e-06       14993.70209
         7.05e-06       15009.95316
         7.06e-06       14997.16025
         7.07e-06       15005.81694
         7.08e-06       15005.95256
         7.09e-06       15003.21768
          7.1e-06       14995.96233
         7.11e-06       14999.96294
         7.12e-06       15001.20607
         7.13e-06       15015.76194
         7.14e-06       15003.64712
         7.15e-06       15018.06737
         7.16e-06       14996.21095
         7.17e-06       15017.95436
         7.18e-06       15023.15287
         7.19e-06       15012.16818
          7.2e-06       15005.56832
         7.21e-06       14997.13765
         7.22e-06       15008.80044
         7.23e-06       15022.52001
         7.24e-06       15020.01116
         7.25e-06        15026.5432
         7.26e-06       15025.45829
         7.27e-06       15021.34469
         7.28e-06       15017.86395
         7.29e-06       15008.73264
          7.3e-06       15011.28669
         7.31e-06       15014.22499
         7.32e-06       15008.50661
         7.33e-06        15010.3148
         7.34e-06        15028.6452
         7.35e-06       15024.82543
         7.36e-06       15028.59999
         7.37e-06        15041.4154
         7.38e-06       15046.29745
         7.39e-06       15044.33107
          7.4e-06       15056.58138
         7.41e-06       15067.70156
         7.42e-06       15066.05162
         7.43e-06       15068.96727
         7.44e-06       15064.22086
         7.45e-06       15057.37245
         7.46e-06       15063.06816
         7.47e-06       15072.71919
         7.48e-06       15079.90659
         7.49e-06       15077.32998
          7.5e-06       15094.01014
         7.51e-06       15086.91317
         7.52e-06       15081.48872
         7.53e-06       15086.68715
         7.54e-06       15093.21908
         7.55e-06       15081.37571
         7.56e-06        15075.1828
         7.57e-06       15090.82329
         7.58e-06       15073.44245
         7.59e-06        15076.4259
          7.6e-06       15066.02901
         7.61e-06       15058.95459
         7.62e-06       15057.16904
         7.63e-06       15049.48434
         7.64e-06       15038.99698
         7.65e-06       15041.21199
         7.66e-06       15049.46174
         7.67e-06         15045.755
         7.68e-06       15025.30008
         7.69e-06       15025.66171
          7.7e-06       15023.33368
         7.71e-06       15038.49973
         7.72e-06       15065.10233
         7.73e-06       15064.85371
         7.74e-06       15063.72361
         7.75e-06       15058.75118
         7.76e-06       15051.45072
         7.77e-06       15054.90883
         7.78e-06       15038.25111
         7.79e-06       15035.69707
          7.8e-06       15048.30904
         7.81e-06       15049.93639
         7.82e-06       15055.15746
         7.83e-06       15058.43475
         7.84e-06       15052.91986
         7.85e-06        15056.7848
         7.86e-06       15049.30353
         7.87e-06        15039.2456
         7.88e-06       15045.37077
         7.89e-06       15053.73353
          7.9e-06       15034.25053
         7.91e-06       15029.61709
         7.92e-06        15029.7301
         7.93e-06       15039.08739
         7.94e-06       15051.31511
         7.95e-06       15051.76715
         7.96e-06       15049.66516
         7.97e-06       15063.06816
         7.98e-06       15074.18831
         7.99e-06       15073.17123
            8e-06       15072.78699
         8.01e-06       15070.84323
         8.02e-06       15063.24897
         8.03e-06       15061.53122
         8.04e-06       15070.75282
         8.05e-06       15064.24346
         8.06e-06        15064.6955
         8.07e-06       15051.78975
         8.08e-06       15056.89781
         8.09e-06       15044.12765
          8.1e-06       15041.52841
         8.11e-06       15042.04826
         8.12e-06       15032.32935
         8.13e-06       15035.38064
         8.14e-06       15042.18388
         8.15e-06       15048.30904
         8.16e-06       15058.50255
         8.17e-06       15072.56097
         8.18e-06       15068.96727
         8.19e-06       15067.83717
          8.2e-06       15054.43419
         8.21e-06       15059.22582
         8.22e-06       15056.12934
         8.23e-06       15058.07312
         8.24e-06       15041.73183
         8.25e-06       15033.18823
         8.26e-06       15040.37571
         8.27e-06       15020.71183
         8.28e-06        15018.4064
         8.29e-06        15022.4522
          8.3e-06       15018.94886
         8.31e-06       15009.43331