/*--------------------------------*- C++ -*----------------------------------*\
| =========                 |                                                 |
| \\      /  F ield         | OpenFOAM: The Open Source CFD Toolbox           |
|  \\    /   O peration     | Version:  v1706                                 |
|   \\  /    A nd           | Web:      www.OpenFOAM.com                      |
|    \\/     M anipulation  |                                                 |
\*---------------------------------------------------------------------------*/
FoamFile
{
    version     2.0;
    format      ascii;
    class       volScalarField;
    location    "0.04";
    object      dsmcSigmaTcRMax;
}
// * * * * * * * * * * * * * * * * * * * * * * * * * * * * * * * * * * * * * //

dimensions      [0 3 -1 0 0 0 0];


internalField   nonuniform List<scalar> 
6000
(
8.129231267e-16
8.637628573e-16
7.759944619e-16
8.197473643e-16
8.516576716e-16
8.081164238e-16
8.030557443e-16
8.409615871e-16
8.462863383e-16
8.546369177e-16
7.860968885e-16
8.20287035e-16
8.194381638e-16
8.111595743e-16
8.768795423e-16
8.173760368e-16
8.208082462e-16
8.182506725e-16
8.448992523e-16
8.760579145e-16
7.916634373e-16
8.161966871e-16
8.389663681e-16
8.092532725e-16
8.298232711e-16
8.332679994e-16
7.933800128e-16
7.963631015e-16
8.282606147e-16
7.999050383e-16
7.688799077e-16
7.821944202e-16
8.276456824e-16
8.1498953e-16
8.067239044e-16
8.182197384e-16
7.966113265e-16
7.791488888e-16
7.877025827e-16
8.082873607e-16
7.787047331e-16
7.940622581e-16
7.801004744e-16
8.007423719e-16
8.00631136e-16
7.609710922e-16
8.034573705e-16
7.58681134e-16
8.621107126e-16
7.411024211e-16
7.659829039e-16
7.985708167e-16
7.93777031e-16
7.780369829e-16
8.394010071e-16
7.278664362e-16
7.778305102e-16
7.608396109e-16
7.867323692e-16
7.596040335e-16
7.37172668e-16
7.430653431e-16
8.133305755e-16
7.846250713e-16
7.200037732e-16
7.203926894e-16
7.417057379e-16
7.401400962e-16
8.095138958e-16
7.353304517e-16
7.548469777e-16
7.099648482e-16
7.678163883e-16
7.190867056e-16
7.896209455e-16
6.668044247e-16
8.56583398e-16
7.532692126e-16
7.009556235e-16
7.279534761e-16
6.956611049e-16
7.118403786e-16
6.874556686e-16
7.540271079e-16
7.392971982e-16
7.380128214e-16
6.951132102e-16
6.824055099e-16
7.400505802e-16
6.488771751e-16
7.180497449e-16
6.58534456e-16
6.946661439e-16
6.628621397e-16
7.0813279e-16
6.783541478e-16
7.944925203e-16
6.789642005e-16
6.762643979e-16
7.177407109e-16
6.789130919e-16
6.576573383e-16
7.132540837e-16
6.558672827e-16
7.261253669e-16
6.668974853e-16
6.625603885e-16
6.564651179e-16
6.706623474e-16
6.742296161e-16
6.646102413e-16
7.416773557e-16
6.684278047e-16
6.662798516e-16
7.495858665e-16
6.666176028e-16
7.390651472e-16
6.839054013e-16
6.918405556e-16
6.58683629e-16
6.651457399e-16
6.604794968e-16
6.973645468e-16
6.657732469e-16
6.381033285e-16
6.627256269e-16
7.047565693e-16
7.509339364e-16
6.562429561e-16
6.866083621e-16
6.724006614e-16
7.202754606e-16
6.846975769e-16
6.559205586e-16
6.543582355e-16
6.813279112e-16
6.551588949e-16
6.699742632e-16
6.524762647e-16
6.715200286e-16
6.76892307e-16
6.675330476e-16
6.651111111e-16
6.8986597e-16
6.528286047e-16
6.643920779e-16
6.729796112e-16
6.963753164e-16
6.903745913e-16
6.403225911e-16
6.807996815e-16
6.670962624e-16
7.530968917e-16
7.063355086e-16
6.7499382e-16
7.192423398e-16
6.773338904e-16
6.725804571e-16
6.91661469e-16
6.56032433e-16
6.74944675e-16
6.880760951e-16
6.557912232e-16
6.522046749e-16
6.862347331e-16
6.767690487e-16
6.985241278e-16
6.883341469e-16
6.872630359e-16
6.645052575e-16
7.007810414e-16
6.727331026e-16
6.599911122e-16
6.760984536e-16
6.665739646e-16
6.975798831e-16
6.724292226e-16
6.910541858e-16
6.742355456e-16
6.666395028e-16
6.65406384e-16
6.692804443e-16
6.816496803e-16
7.042661844e-16
6.8829161e-16
6.559928943e-16
6.808295874e-16
6.668660803e-16
6.478450005e-16
6.657600732e-16
6.732437491e-16
6.804286167e-16
6.993272022e-16
6.814198125e-16
6.571350986e-16
6.71364823e-16
6.707874698e-16
6.855421365e-16
6.720575159e-16
6.814747415e-16
7.007238712e-16
6.804611767e-16
7.089823372e-16
6.612541027e-16
7.215728749e-16
6.614309896e-16
6.881894032e-16
6.773558238e-16
6.970775965e-16
7.177340315e-16
6.553649332e-16
6.676884554e-16
6.83343863e-16
6.641222288e-16
6.439673812e-16
6.608981097e-16
7.11997984e-16
6.735196534e-16
7.09860951e-16
6.758288528e-16
7.063944755e-16
6.931580651e-16
6.810800288e-16
6.861542028e-16
6.538056015e-16
6.901802338e-16
6.855177116e-16
6.647662599e-16
6.672247687e-16
6.604924118e-16
6.660468921e-16
6.616233313e-16
6.586870335e-16
6.572013973e-16
6.842115846e-16
6.627280015e-16
6.723048245e-16
6.905661547e-16
6.621592612e-16
6.782730552e-16
6.741486621e-16
6.695292182e-16
6.693570677e-16
6.802113389e-16
6.893864781e-16
7.046073645e-16
6.546545282e-16
6.461618609e-16
6.392239097e-16
6.684712306e-16
6.607171794e-16
6.730090976e-16
6.82163372e-16
6.794783461e-16
6.542593781e-16
6.967565621e-16
6.503937896e-16
6.719840285e-16
6.908439239e-16
6.771593288e-16
7.101047319e-16
6.655503954e-16
7.048675537e-16
7.163402733e-16
6.423613938e-16
6.614239473e-16
6.640400113e-16
6.994064911e-16
6.882850232e-16
6.637042765e-16
6.865204925e-16
6.897200107e-16
6.826933376e-16
6.547107123e-16
6.730239247e-16
6.681509972e-16
6.751734146e-16
6.923282848e-16
6.787865802e-16
7.042033533e-16
6.776628659e-16
6.508889821e-16
6.634608955e-16
6.445152082e-16
6.793586119e-16
7.07456855e-16
6.883492386e-16
6.691060078e-16
6.723252348e-16
7.026376319e-16
6.822742076e-16
7.268157228e-16
6.677589344e-16
6.716396701e-16
6.655859293e-16
6.845189133e-16
6.430288709e-16
6.600396593e-16
6.795875455e-16
6.611052028e-16
8.622014746e-16
8.678595647e-16
8.818133191e-16
8.764625822e-16
8.657373682e-16
8.752767085e-16
8.600019012e-16
8.533534884e-16
8.438319609e-16
8.788339564e-16
8.594326913e-16
8.690957506e-16
8.495680208e-16
8.42965972e-16
8.578377948e-16
8.33441391e-16
8.936375399e-16
8.907660074e-16
8.572458107e-16
8.732595853e-16
8.315942719e-16
8.774678335e-16
8.700407755e-16
8.5993845e-16
8.893709729e-16
8.741986313e-16
8.354809414e-16
8.421601934e-16
8.703090795e-16
8.67907884e-16
8.440036324e-16
9.002005952e-16
8.223875581e-16
8.453245189e-16
8.202577449e-16
8.345139115e-16
8.182684384e-16
8.195985396e-16
8.559773522e-16
8.959837258e-16
8.491799604e-16
8.59456685e-16
8.427185725e-16
8.771044653e-16
8.233713899e-16
8.211251586e-16
8.47444856e-16
8.585469646e-16
8.438539752e-16
8.376152929e-16
8.202480118e-16
8.129033442e-16
8.452640917e-16
8.739182575e-16
8.37704351e-16
8.45480601e-16
8.257238854e-16
8.420396363e-16
8.448681781e-16
8.458775228e-16
8.333835145e-16
8.355242148e-16
8.275604889e-16
8.43893126e-16
8.109283786e-16
8.494470066e-16
8.423894077e-16
8.252980365e-16
8.2084279e-16
8.735870344e-16
8.382861692e-16
8.340657358e-16
8.48626864e-16
8.327270164e-16
8.441111891e-16
8.168423338e-16
7.85797808e-16
7.932061843e-16
8.227593064e-16
8.311787387e-16
8.08037205e-16
8.209413122e-16
8.169721554e-16
7.87349918e-16
8.192854246e-16
8.612232941e-16
8.165859569e-16
8.214301598e-16
7.955609162e-16
8.264127541e-16
8.284297807e-16
8.021324895e-16
8.121270438e-16
8.535162692e-16
7.942499367e-16
8.329990277e-16
8.668917938e-16
8.584680312e-16
8.6167677e-16
9.04985032e-16
8.554472543e-16
8.42804695e-16
9.457251687e-16
8.874051847e-16
8.816026805e-16
8.659953095e-16
8.730573923e-16
8.711978809e-16
8.514571056e-16
8.482029512e-16
8.560355373e-16
8.777103081e-16
8.441427059e-16
8.643233205e-16
8.467645854e-16
8.930115752e-16
8.893051942e-16
8.816804019e-16
8.273253481e-16
8.713294391e-16
8.707888504e-16
8.707320954e-16
8.573498765e-16
8.805718645e-16
8.543043567e-16
8.441923729e-16
8.602053367e-16
8.531088078e-16
8.234559021e-16
8.286236069e-16
8.244056506e-16
8.336081041e-16
8.528504542e-16
8.325144145e-16
8.155141474e-16
8.428929803e-16
8.277982908e-16
8.474345086e-16
8.59295457e-16
8.404232771e-16
8.305566206e-16
8.374545946e-16
8.305185274e-16
8.459817668e-16
8.153920571e-16
8.35910685e-16
8.494841918e-16
8.465822347e-16
8.600104055e-16
8.177297365e-16
8.061418967e-16
8.381708407e-16
8.433282854e-16
8.363097426e-16
8.117990721e-16
8.410325502e-16
8.161283533e-16
8.168439213e-16
8.232736245e-16
8.079719816e-16
8.235487085e-16
8.370643624e-16
8.233793007e-16
8.14566599e-16
8.266003902e-16
8.917388266e-16
8.584353772e-16
8.178878959e-16
8.289629087e-16
8.060305895e-16
8.353047801e-16
8.385812965e-16
8.087525305e-16
8.220356209e-16
8.136834591e-16
8.313050002e-16
8.393831287e-16
8.104148646e-16
8.35328324e-16
8.786453227e-16
8.718518478e-16
8.129277734e-16
8.435565553e-16
8.201140062e-16
8.261675266e-16
8.337558687e-16
8.463402139e-16
7.976902358e-16
8.434894877e-16
7.534336726e-16
8.29529093e-16
8.43428257e-16
8.308634455e-16
8.381942965e-16
8.372395963e-16
8.462422676e-16
8.833803953e-16
8.597542528e-16
8.537929601e-16
8.397319349e-16
8.642113455e-16
8.697588525e-16
8.352941744e-16
8.775496769e-16
8.540108886e-16
8.564210337e-16
8.470692793e-16
8.531075154e-16
8.530499198e-16
8.960647438e-16
8.480891081e-16
8.5341013e-16
8.527572695e-16
8.346918075e-16
8.734427646e-16
8.826660555e-16
8.664330706e-16
8.514969259e-16
8.53950308e-16
8.923431994e-16
8.87264038e-16
8.372598192e-16
8.596364903e-16
8.652636281e-16
8.445072509e-16
8.202815509e-16
8.331517286e-16
8.543475421e-16
8.221252025e-16
8.546255298e-16
8.254340029e-16
8.49246614e-16
7.992340851e-16
8.216419165e-16
8.578470197e-16
8.792573401e-16
8.49734137e-16
8.385723914e-16
8.774998022e-16
8.20775939e-16
8.022700402e-16
8.208207641e-16
8.471365354e-16
8.465544199e-16
8.26313562e-16
8.156218534e-16
8.158303993e-16
8.520962048e-16
8.451933654e-16
8.604977962e-16
8.347281099e-16
8.055747926e-16
8.483148614e-16
8.118771271e-16
8.568628841e-16
8.471795925e-16
8.181502155e-16
8.487677763e-16
8.205938559e-16
8.282962165e-16
8.315509494e-16
8.411437245e-16
8.452861552e-16
8.175150222e-16
8.279835313e-16
8.553149273e-16
8.08956515e-16
8.343301114e-16
8.369754e-16
8.233237871e-16
8.205415449e-16
8.261436408e-16
8.37485882e-16
8.48078524e-16
8.558654107e-16
8.535217354e-16
8.260491854e-16
8.062856736e-16
8.294719507e-16
8.137686244e-16
7.980730238e-16
8.239934918e-16
8.171725274e-16
7.887138414e-16
7.726055744e-16
8.217616012e-16
8.158567315e-16
8.395190072e-16
8.665045738e-16
8.225309984e-16
8.446259691e-16
8.411456844e-16
8.667547179e-16
8.677651443e-16
8.197138778e-16
8.203418824e-16
8.679502222e-16
8.450419164e-16
8.464480989e-16
8.540818923e-16
8.914725977e-16
8.777431959e-16
8.5202244e-16
8.496887094e-16
8.455350406e-16
8.681616667e-16
8.659310833e-16
8.379416481e-16
8.479292133e-16
8.312088385e-16
8.889533314e-16
8.444708397e-16
8.46673589e-16
8.198446118e-16
8.770552609e-16
8.344322182e-16
8.572397395e-16
8.805621723e-16
8.516042731e-16
8.446710103e-16
8.952711036e-16
8.636780407e-16
8.211381939e-16
8.557104319e-16
8.124410725e-16
8.379337447e-16
8.470906842e-16
8.472094494e-16
8.628768143e-16
8.414262604e-16
8.400367391e-16
8.540100847e-16
8.310046299e-16
8.543987134e-16
8.610605535e-16
8.340924466e-16
8.348312967e-16
8.402647218e-16
8.141840535e-16
8.259521456e-16
8.686670622e-16
8.44059623e-16
9.0170067e-16
8.243509635e-16
8.387333908e-16
8.215518139e-16
8.636971784e-16
8.504131153e-16
8.091601587e-16
8.563304134e-16
8.167688414e-16
8.89771548e-16
8.502052339e-16
8.181096404e-16
8.364769618e-16
8.260640932e-16
8.252473272e-16
8.264548918e-16
8.424039987e-16
8.064957523e-16
8.006429239e-16
7.968021379e-16
8.344128368e-16
8.558034651e-16
8.259999764e-16
8.402136176e-16
8.394963641e-16
8.378110835e-16
8.137197581e-16
8.305745464e-16
8.045877209e-16
8.286234443e-16
8.541901032e-16
8.139640682e-16
7.955999263e-16
8.019309723e-16
8.210171178e-16
8.421550659e-16
7.825379138e-16
7.900699526e-16
8.149324701e-16
8.440790489e-16
8.121714451e-16
8.060664391e-16
8.240334293e-16
8.378558205e-16
8.102046021e-16
8.364953711e-16
8.624180824e-16
8.560038009e-16
8.160161243e-16
8.310934556e-16
8.50074022e-16
8.618943797e-16
8.508742675e-16
8.228694988e-16
8.343033413e-16
8.242425654e-16
8.6528801e-16
8.699178024e-16
8.365730562e-16
8.334647924e-16
8.885929614e-16
8.308210197e-16
8.023087484e-16
8.542608507e-16
8.610840437e-16
8.7071209e-16
8.222395013e-16
8.436445645e-16
8.258031696e-16
8.809208221e-16
8.456723835e-16
8.301287475e-16
8.337706835e-16
8.496307646e-16
8.35981468e-16
8.705188494e-16
8.541976628e-16
8.680197839e-16
8.300667692e-16
8.26804042e-16
8.730743094e-16
8.43583329e-16
8.141905125e-16
8.338219155e-16
8.431961036e-16
8.402934882e-16
8.418601301e-16
8.216041346e-16
8.390795442e-16
8.476400237e-16
8.791633587e-16
8.033883891e-16
8.277267896e-16
8.248959876e-16
8.339820099e-16
8.457939182e-16
8.311580215e-16
8.329912277e-16
8.149820375e-16
8.104749284e-16
8.360461572e-16
8.625607222e-16
8.242297664e-16
8.394466611e-16
8.3174688e-16
8.202702036e-16
8.23778345e-16
8.191431767e-16
8.454231128e-16
7.985957056e-16
8.298778898e-16
8.243987879e-16
9.0480481e-16
8.531627267e-16
8.443692508e-16
8.586784063e-16
8.357048975e-16
8.34484746e-16
8.653469659e-16
8.263790311e-16
8.083645918e-16
8.252241778e-16
8.13986969e-16
8.67060429e-16
8.368445611e-16
8.007597529e-16
8.242481852e-16
8.330626415e-16
8.610558124e-16
8.470632671e-16
8.501791814e-16
8.291045202e-16
8.01776738e-16
8.055655636e-16
8.076427278e-16
8.37799618e-16
8.187627829e-16
8.089304738e-16
8.078989603e-16
8.542772494e-16
8.20019401e-16
8.302263047e-16
8.072316737e-16
8.283449719e-16
8.701577815e-16
8.026809252e-16
8.620106146e-16
8.206363049e-16
8.27320112e-16
8.414745696e-16
8.157187153e-16
8.25604724e-16
8.176968122e-16
8.491076423e-16
8.370664462e-16
8.334852214e-16
8.00592874e-16
8.353185759e-16
8.318176894e-16
8.443612589e-16
8.330150988e-16
8.455201265e-16
8.393954857e-16
8.257047838e-16
8.541252706e-16
8.714226002e-16
8.667506056e-16
8.655495499e-16
8.928007291e-16
7.976152734e-16
8.696819568e-16
8.218550545e-16
8.197244846e-16
8.15028991e-16
8.980607481e-16
8.339694887e-16
8.368915245e-16
8.202757984e-16
8.324448217e-16
8.49614418e-16
8.275463253e-16
8.122071115e-16
8.14968408e-16
8.373730324e-16
8.505186182e-16
8.150310705e-16
8.362754798e-16
8.231878401e-16
8.430972769e-16
8.483322499e-16
8.220609712e-16
8.730864514e-16
8.218903344e-16
8.260794906e-16
8.265618448e-16
8.416937255e-16
8.316969654e-16
8.872195847e-16
8.27842912e-16
8.13189465e-16
8.304082516e-16
8.442835139e-16
8.862436e-16
8.274101198e-16
8.556508316e-16
8.177843806e-16
8.277848797e-16
8.552330626e-16
8.529019389e-16
8.443689697e-16
8.056564937e-16
8.665959876e-16
8.108193959e-16
8.411752832e-16
8.642871979e-16
8.480235802e-16
8.29390836e-16
7.825523142e-16
8.103681979e-16
8.148493165e-16
8.14353557e-16
8.131141722e-16
7.971530022e-16
8.1246393e-16
8.081585712e-16
8.135449785e-16
8.069790956e-16
7.85780196e-16
8.102466203e-16
8.048910758e-16
7.814485032e-16
7.783182339e-16
8.414360969e-16
7.894663967e-16
8.068095867e-16
7.957390271e-16
8.768220236e-16
8.099863229e-16
8.18828112e-16
8.272023872e-16
8.697197095e-16
8.145936662e-16
8.373671473e-16
8.436180188e-16
8.066082334e-16
8.1247012e-16
8.368375836e-16
8.318457127e-16
8.273942557e-16
8.13261708e-16
8.296847236e-16
8.084850837e-16
8.125043534e-16
8.483863566e-16
8.195384749e-16
8.378605045e-16
8.300265574e-16
8.363492915e-16
8.328936326e-16
8.194840971e-16
8.269761524e-16
8.122960132e-16
8.359149277e-16
8.152393361e-16
8.495733646e-16
8.405283918e-16
8.255218084e-16
8.265289988e-16
8.709467415e-16
8.098050196e-16
8.351582403e-16
8.701087377e-16
8.242814166e-16
8.298250522e-16
8.686607024e-16
8.152978327e-16
8.519835879e-16
8.511640187e-16
8.137947431e-16
8.104050948e-16
8.394914969e-16
8.375169917e-16
8.442906952e-16
8.516402128e-16
8.112935729e-16
8.371245542e-16
8.155917853e-16
8.354367201e-16
8.525482943e-16
8.469746332e-16
8.404557421e-16
8.786241696e-16
8.253824909e-16
8.027624112e-16
8.338803618e-16
8.393989146e-16
8.250169449e-16
8.897580185e-16
8.628751676e-16
8.628309201e-16
8.403802377e-16
8.217854247e-16
8.316795782e-16
7.825733207e-16
8.364757879e-16
8.201907494e-16
8.344351308e-16
8.235537439e-16
8.208978834e-16
8.089224485e-16
8.39754424e-16
8.437970486e-16
8.36980444e-16
8.468060131e-16
8.036341883e-16
8.252646306e-16
8.395490444e-16
8.219828659e-16
7.79697519e-16
8.688318404e-16
7.699628867e-16
7.924007307e-16
7.833252375e-16
8.315784164e-16
7.827449166e-16
7.766463948e-16
8.325040012e-16
8.378087742e-16
8.039271839e-16
7.963052474e-16
7.997562654e-16
8.098157513e-16
7.876899972e-16
8.05329688e-16
7.888331505e-16
8.009204649e-16
8.148102798e-16
8.105146732e-16
8.369406432e-16
8.550236632e-16
8.265711766e-16
8.328452718e-16
8.337373693e-16
8.383252974e-16
8.391951629e-16
8.434967173e-16
8.055193726e-16
8.158183542e-16
8.070094669e-16
8.194763421e-16
8.184648898e-16
8.159870471e-16
8.45801523e-16
8.232721961e-16
8.308065683e-16
8.212063725e-16
8.339949319e-16
8.510451768e-16
8.647617179e-16
8.331586399e-16
8.351492383e-16
8.305704519e-16
8.284525982e-16
8.502232018e-16
8.222289138e-16
8.265387173e-16
8.610792983e-16
8.340515771e-16
8.127707284e-16
8.429309613e-16
8.127908027e-16
8.420369765e-16
8.199949084e-16
8.40076677e-16
8.536811114e-16
8.275679881e-16
8.282541422e-16
8.074155068e-16
8.210610121e-16
8.503813823e-16
8.289188555e-16
8.018878035e-16
8.20661581e-16
8.148117906e-16
8.317493771e-16
8.576871062e-16
8.67887867e-16
8.593652617e-16
8.482886226e-16
9.108980822e-16
8.410065796e-16
8.026008632e-16
8.824552458e-16
8.290912468e-16
8.582761543e-16
8.201152257e-16
8.690853842e-16
8.369650689e-16
8.248549334e-16
8.567439989e-16
8.406365766e-16
8.339873389e-16
8.421694744e-16
8.395061009e-16
8.301344886e-16
8.392823692e-16
8.324827746e-16
8.586000239e-16
8.530503676e-16
8.457835152e-16
8.701255801e-16
7.991324366e-16
8.143146365e-16
7.971276025e-16
7.835546471e-16
8.189778187e-16
7.780578383e-16
8.114599009e-16
7.849752262e-16
8.100354048e-16
8.183955175e-16
7.66037243e-16
7.999494385e-16
7.874518409e-16
7.830487412e-16
7.822804405e-16
7.77309879e-16
8.175127542e-16
8.099297428e-16
7.99875339e-16
8.100434014e-16
7.834956351e-16
8.044707573e-16
8.262233207e-16
8.2545071e-16
7.794183295e-16
8.227630088e-16
8.197534651e-16
8.184202384e-16
8.286567457e-16
7.845781614e-16
8.373802136e-16
8.080351733e-16
7.99888873e-16
8.638645643e-16
7.941436031e-16
8.59289082e-16
8.181221242e-16
8.255875609e-16
8.042350359e-16
8.139008415e-16
8.40644174e-16
8.125095205e-16
8.212588055e-16
7.9394029e-16
8.702933894e-16
8.393577076e-16
8.223064864e-16
8.40299594e-16
8.174693802e-16
8.11051589e-16
8.199573729e-16
8.108808837e-16
8.387316331e-16
7.898466408e-16
8.134653273e-16
8.447025559e-16
8.286039271e-16
8.422341742e-16
7.990375555e-16
8.362009133e-16
8.639136422e-16
8.170290062e-16
8.237462877e-16
8.419195462e-16
8.236043219e-16
8.429870614e-16
8.45115791e-16
8.14712767e-16
8.682589778e-16
8.605820881e-16
8.232766162e-16
8.075478876e-16
8.245649962e-16
8.356895666e-16
8.237799066e-16
8.411598332e-16
7.92916813e-16
8.714170985e-16
8.505607629e-16
8.322798576e-16
8.645910361e-16
8.209831952e-16
8.249543298e-16
8.25250242e-16
8.365490232e-16
8.22761358e-16
8.58571643e-16
8.304527895e-16
8.363315345e-16
8.138239073e-16
8.103225167e-16
8.481112007e-16
8.341414935e-16
8.174064952e-16
8.563708605e-16
8.026098078e-16
7.885580297e-16
8.050786285e-16
8.228147408e-16
8.112171098e-16
7.754534855e-16
7.642156906e-16
7.843781176e-16
8.383773192e-16
8.03190002e-16
7.879059688e-16
7.615409413e-16
8.004571099e-16
7.677026453e-16
7.920286974e-16
7.918337327e-16
8.052515732e-16
7.755656775e-16
8.060289048e-16
8.0840003e-16
8.038803243e-16
8.038479772e-16
8.128541958e-16
7.916467516e-16
8.348838449e-16
8.240996596e-16
8.020495992e-16
8.136253405e-16
8.624004601e-16
8.040302554e-16
8.370282478e-16
8.56084554e-16
8.370302586e-16
8.313864333e-16
8.159387119e-16
8.418372166e-16
8.51256474e-16
7.957990216e-16
7.82948088e-16
8.25837717e-16
8.184058323e-16
8.173872376e-16
8.294728578e-16
7.849136637e-16
8.097543314e-16
8.636276419e-16
8.140932561e-16
8.244671194e-16
8.64986317e-16
8.245087792e-16
8.417128453e-16
8.11331235e-16
8.63221767e-16
8.637604777e-16
8.044922446e-16
8.096829181e-16
8.027151387e-16
8.291752315e-16
7.849892498e-16
8.143071415e-16
8.017010981e-16
8.464397099e-16
8.279690964e-16
8.634513412e-16
8.449819043e-16
8.32311546e-16
9.030549183e-16
8.100407247e-16
8.839683931e-16
8.099027502e-16
8.204498517e-16
8.16254892e-16
8.155757183e-16
8.107935344e-16
8.967638537e-16
8.393689886e-16
8.349637396e-16
8.462756815e-16
8.76670064e-16
8.222498268e-16
8.198843483e-16
8.16423448e-16
8.661887461e-16
8.49512404e-16
8.52728375e-16
8.347571739e-16
8.058891126e-16
8.284808585e-16
8.400177745e-16
8.107207423e-16
8.207364683e-16
8.503895068e-16
8.235561521e-16
8.264119489e-16
8.15051904e-16
8.774893899e-16
8.371561051e-16
8.238611534e-16
8.148556542e-16
8.346901046e-16
7.750824112e-16
7.750851203e-16
7.567719243e-16
8.169573254e-16
7.848095572e-16
7.56149545e-16
7.9364867e-16
7.834250654e-16
8.477100975e-16
7.656448593e-16
7.823031057e-16
7.482764448e-16
7.82717839e-16
8.067544305e-16
7.835326554e-16
8.260736243e-16
7.914935498e-16
7.914036062e-16
7.87927485e-16
7.971409143e-16
7.657073589e-16
7.79788372e-16
7.697940296e-16
8.200216891e-16
7.974320769e-16
8.366192703e-16
7.892603779e-16
8.185517796e-16
8.204309335e-16
8.415231844e-16
8.172421189e-16
8.08361335e-16
8.118663651e-16
8.258869393e-16
7.858416337e-16
8.396557551e-16
8.20316082e-16
7.893908703e-16
7.955830458e-16
7.905150807e-16
8.580161938e-16
8.46136321e-16
8.086289574e-16
8.083705434e-16
7.886365264e-16
8.188217951e-16
7.865815244e-16
7.986636998e-16
8.177525957e-16
8.425888856e-16
8.852164234e-16
8.199435623e-16
8.063010884e-16
8.25562093e-16
7.845974618e-16
7.910128763e-16
8.230629657e-16
8.205466754e-16
8.034354744e-16
8.250645164e-16
8.023422503e-16
8.104437221e-16
8.213482983e-16
8.12261933e-16
8.335817906e-16
8.067978244e-16
8.310700818e-16
8.892911469e-16
8.621421278e-16
8.1503066e-16
8.271839852e-16
8.129972328e-16
8.424233399e-16
8.382742611e-16
8.328815788e-16
8.244923678e-16
8.526797709e-16
8.165971985e-16
8.0926427e-16
8.349996655e-16
8.179314594e-16
8.261967527e-16
8.174477428e-16
8.132674956e-16
8.108553731e-16
8.497774641e-16
8.150274723e-16
8.089607422e-16
7.913739602e-16
8.285693931e-16
8.253193213e-16
8.028595179e-16
8.094433402e-16
8.878337699e-16
7.605090812e-16
7.800645281e-16
7.912322941e-16
7.469939762e-16
7.54657197e-16
7.793272909e-16
7.847684041e-16
7.686823475e-16
8.13674913e-16
7.858159399e-16
7.556158831e-16
7.862253921e-16
7.541428693e-16
7.734799986e-16
7.6438992e-16
7.53453575e-16
7.879934081e-16
7.743760368e-16
8.064768346e-16
7.82512024e-16
7.723328543e-16
7.778844583e-16
8.053985795e-16
7.805609557e-16
7.564559112e-16
7.996631652e-16
8.007633825e-16
7.838327832e-16
8.117433931e-16
7.872432163e-16
7.799699766e-16
8.320304564e-16
7.846215616e-16
8.178316583e-16
8.278989734e-16
7.935310118e-16
7.97881017e-16
8.013824447e-16
8.204211107e-16
7.906779733e-16
8.285845631e-16
8.06984004e-16
8.139030923e-16
8.109842919e-16
8.074989417e-16
7.995846896e-16
9.211745786e-16
8.041374268e-16
7.815778261e-16
8.256620867e-16
8.494788806e-16
8.476673673e-16
7.955429318e-16
8.15076871e-16
8.143005819e-16
8.23282227e-16
7.896365524e-16
8.396820045e-16
8.654513063e-16
8.01559636e-16
8.110263428e-16
8.750441334e-16
8.337841825e-16
8.210035793e-16
8.109715884e-16
8.547844997e-16
8.318199187e-16
8.7466281e-16
8.293662676e-16
8.128931831e-16
8.119187165e-16
8.172601501e-16
8.2668104e-16
8.729843044e-16
7.972887079e-16
8.527567622e-16
8.553843956e-16
8.400873203e-16
8.20456935e-16
8.289827449e-16
8.210717588e-16
8.303017787e-16
8.388445259e-16
8.028208173e-16
8.100531782e-16
8.370346771e-16
8.305902424e-16
8.008358923e-16
8.185838194e-16
8.057888143e-16
8.028196043e-16
8.233137595e-16
7.853110035e-16
8.173479594e-16
7.759009562e-16
8.013983528e-16
7.738590721e-16
7.824045335e-16
7.951360027e-16
7.969996562e-16
7.434406176e-16
8.25418176e-16
7.96866598e-16
8.096524775e-16
8.119714889e-16
7.783433486e-16
7.846091737e-16
7.651922928e-16
7.449466067e-16
7.714939634e-16
7.552770227e-16
8.271375518e-16
7.909046922e-16
7.876773975e-16
7.653956968e-16
7.689736273e-16
8.66429967e-16
7.876799607e-16
7.547413311e-16
7.904303472e-16
7.693597891e-16
8.106475489e-16
8.093781853e-16
8.277116166e-16
7.750306938e-16
7.920438114e-16
7.832810217e-16
7.921743744e-16
7.685791343e-16
8.014243745e-16
7.984396001e-16
7.87784026e-16
8.424075883e-16
8.114547913e-16
8.194307123e-16
8.055423922e-16
7.823335625e-16
7.947518236e-16
8.209262256e-16
8.14652739e-16
8.011698611e-16
8.176432224e-16
7.983068706e-16
7.847389629e-16
8.021317694e-16
8.146391691e-16
8.163735345e-16
8.123201364e-16
7.874770275e-16
8.31788371e-16
8.189509182e-16
8.167005417e-16
7.998792878e-16
8.257307068e-16
8.226655446e-16
8.083507502e-16
8.709936844e-16
8.229747889e-16
8.438772751e-16
8.043378773e-16
8.45769266e-16
8.313907329e-16
7.98524149e-16
8.442137023e-16
8.86333746e-16
8.711128499e-16
7.890979989e-16
8.287042053e-16
8.10152324e-16
8.608042014e-16
8.435834281e-16
8.061553536e-16
8.095776093e-16
8.492680684e-16
8.655523252e-16
8.038145254e-16
8.142909071e-16
8.229147406e-16
8.7185152e-16
8.468656127e-16
8.468198434e-16
8.345381082e-16
8.106922762e-16
7.993692717e-16
8.101102462e-16
8.372861896e-16
8.06923048e-16
8.712688514e-16
7.929929297e-16
8.019533457e-16
7.880702361e-16
7.83331808e-16
7.988719396e-16
7.59552403e-16
7.62447186e-16
7.310482976e-16
7.297119028e-16
7.662428886e-16
8.022386519e-16
7.59265e-16
8.191452833e-16
7.845923315e-16
7.164584598e-16
7.486309241e-16
7.591115433e-16
8.110796771e-16
8.329339103e-16
8.027512936e-16
7.645965533e-16
8.147729168e-16
7.826777492e-16
7.564241049e-16
8.0392488e-16
7.535845885e-16
7.708991103e-16
7.554811088e-16
7.586857625e-16
7.874400102e-16
7.639433845e-16
7.786628914e-16
8.424111132e-16
7.758037445e-16
7.600350795e-16
8.059601289e-16
7.96532875e-16
7.917661296e-16
7.664043161e-16
7.868166281e-16
8.040524809e-16
8.013907069e-16
7.699752539e-16
7.81965533e-16
7.918846652e-16
7.86079599e-16
8.049397842e-16
8.330315716e-16
8.19408075e-16
7.834789605e-16
8.200866328e-16
7.968674485e-16
7.949525208e-16
7.84350998e-16
7.98074421e-16
8.088558161e-16
7.823237874e-16
8.082120684e-16
7.952110523e-16
8.066627542e-16
8.292319913e-16
8.096522413e-16
8.139057971e-16
7.965759166e-16
8.180343451e-16
8.332770063e-16
7.980055429e-16
8.180591159e-16
8.141427604e-16
7.917508766e-16
8.045324093e-16
8.076985475e-16
8.272380264e-16
8.110034158e-16
8.000315592e-16
7.85707039e-16
7.884455244e-16
7.908612505e-16
8.067373026e-16
8.072803196e-16
8.246040156e-16
8.347555505e-16
8.108245639e-16
7.99832914e-16
8.0877796e-16
8.145290636e-16
8.083001015e-16
7.877042821e-16
8.257836976e-16
8.244246286e-16
8.104635904e-16
8.178983734e-16
8.577120917e-16
7.915291053e-16
8.036991369e-16
8.238115478e-16
8.10083022e-16
7.896731857e-16
7.748894781e-16
7.669669567e-16
7.230998924e-16
7.87618905e-16
7.394322778e-16
7.179937862e-16
7.286370644e-16
8.175530378e-16
7.243035468e-16
7.410786375e-16
7.701553548e-16
7.47983262e-16
7.272717568e-16
7.495897079e-16
7.977927245e-16
7.659926981e-16
7.360208629e-16
7.831518286e-16
7.795195915e-16
7.616533082e-16
7.723046242e-16
7.583486568e-16
7.875822356e-16
7.444312915e-16
8.240611916e-16
7.592401812e-16
7.615603024e-16
7.645650891e-16
7.527587799e-16
8.129377086e-16
7.663870678e-16
7.848209294e-16
7.63930821e-16
7.98610771e-16
7.793175743e-16
7.873045819e-16
7.684493362e-16
8.287067011e-16
8.152672818e-16
7.587184878e-16
7.725363797e-16
7.752531523e-16
7.974287012e-16
7.81061397e-16
7.848127436e-16
8.090282867e-16
8.264219967e-16
7.985959014e-16
8.110786423e-16
8.447926994e-16
7.788467023e-16
8.098634758e-16
7.942362897e-16
7.792757437e-16
7.894432266e-16
7.800890359e-16
8.11477474e-16
8.307273006e-16
8.026753196e-16
7.998760047e-16
8.206034616e-16
7.76751983e-16
8.307096623e-16
8.342787655e-16
8.076106975e-16
8.057847892e-16
8.388183026e-16
7.887085699e-16
8.298564606e-16
8.109885759e-16
8.701404767e-16
8.191210158e-16
8.255815908e-16
8.110857563e-16
8.124810667e-16
8.128344763e-16
8.033318108e-16
8.335680189e-16
8.130289674e-16
7.980735314e-16
8.26919575e-16
8.373554124e-16
8.110457277e-16
8.47151535e-16
7.903276882e-16
8.07872769e-16
7.925502032e-16
8.18121962e-16
8.20379063e-16
8.549291705e-16
8.097576779e-16
8.521006651e-16
8.247787837e-16
7.994452761e-16
7.536702623e-16
7.949452192e-16
7.517674619e-16
7.480635911e-16
7.353208354e-16
7.075484154e-16
7.408351397e-16
7.568207304e-16
7.682518999e-16
7.208508214e-16
7.918558017e-16
7.357836674e-16
7.39285975e-16
7.641353844e-16
7.199847649e-16
7.448721296e-16
7.344033849e-16
7.467830437e-16
7.318205242e-16
8.044716257e-16
7.514165704e-16
7.711075389e-16
7.550063969e-16
7.252892487e-16
7.650746799e-16
7.801730731e-16
7.919923347e-16
7.401910462e-16
7.503965331e-16
7.463927694e-16
8.015208426e-16
8.117549317e-16
7.974433933e-16
7.951316721e-16
7.740330123e-16
8.253252317e-16
8.227001671e-16
7.730846275e-16
7.602084613e-16
7.45795348e-16
7.748994293e-16
7.428788369e-16
7.946126136e-16
8.016762757e-16
7.701654678e-16
8.382182275e-16
8.348487064e-16
7.727988962e-16
8.038639858e-16
8.065915523e-16
7.930401921e-16
8.44479358e-16
8.371259269e-16
7.905869669e-16
7.925105567e-16
7.846701453e-16
8.022055577e-16
7.829685034e-16
7.993486649e-16
8.105479104e-16
7.730022826e-16
7.970465667e-16
8.186241086e-16
8.206741704e-16
8.054662431e-16
7.962957204e-16
7.83407025e-16
7.962330548e-16
8.096086756e-16
7.941119995e-16
8.092656304e-16
8.314066931e-16
8.033389666e-16
7.842150833e-16
8.079202589e-16
7.930235964e-16
8.325136325e-16
8.456561171e-16
8.054687009e-16
7.933321724e-16
8.006720214e-16
8.038078152e-16
8.134772542e-16
8.100633957e-16
7.795876049e-16
7.913353644e-16
8.313665086e-16
7.960740113e-16
7.882976782e-16
7.966879072e-16
8.126915986e-16
7.872104987e-16
8.160233464e-16
8.106169224e-16
8.145298052e-16
7.910807032e-16
7.72111739e-16
7.497893067e-16
7.119866933e-16
7.254164348e-16
7.658391351e-16
7.084853879e-16
7.433030953e-16
7.882540216e-16
7.430257632e-16
7.698768156e-16
7.617948482e-16
7.549198765e-16
8.089398264e-16
7.547421039e-16
7.165538495e-16
7.590619543e-16
7.702926849e-16