/*--------------------------------*- C++ -*----------------------------------*\
| =========                 |                                                 |
| \\      /  F ield         | OpenFOAM: The Open Source CFD Toolbox           |
|  \\    /   O peration     | Version:  v1706                                 |
|   \\  /    A nd           | Web:      www.OpenFOAM.com                      |
|    \\/     M anipulation  |                                                 |
\*---------------------------------------------------------------------------*/
FoamFile
{
    version     2.0;
    format      ascii;
    class       volScalarField;
    location    "0.04";
    object      dsmcSigmaTcRMax;
}
// * * * * * * * * * * * * * * * * * * * * * * * * * * * * * * * * * * * * * //

dimensions      [0 3 -1 0 0 0 0];


internalField   nonuniform List<scalar> 
6000
(
7.961578957e-16
8.073253085e-16
8.353391502e-16
8.266089814e-16
8.653207563e-16
7.953601688e-16
8.331625982e-16
8.69417865e-16
8.900821682e-16
8.478706074e-16
7.898095716e-16
8.175738374e-16
8.091258805e-16
8.399671416e-16
8.419858181e-16
8.293956085e-16
8.391267403e-16
8.228181588e-16
8.295371898e-16
8.66756464e-16
8.181601963e-16
8.195887477e-16
8.651260424e-16
8.514785981e-16
8.344524832e-16
8.236022039e-16
7.85696773e-16
7.946845037e-16
8.437984128e-16
8.226632214e-16
7.784053353e-16
8.094442895e-16
7.792031246e-16
8.135835011e-16
8.284602584e-16
8.686996017e-16
8.118321817e-16
8.156626615e-16
7.972751275e-16
8.025246867e-16
7.627975749e-16
7.786987952e-16
8.481362102e-16
7.999047536e-16
7.775158278e-16
8.392071411e-16
7.722418321e-16
7.965108826e-16
7.366343136e-16
8.101674575e-16
7.32220412e-16
7.8194595e-16
7.58536661e-16
7.578805716e-16
8.262500279e-16
8.075403356e-16
7.638128209e-16
7.565768287e-16
7.650267479e-16
7.310452547e-16
8.037985197e-16
7.322791949e-16
7.485564457e-16
7.26823042e-16
7.352153009e-16
7.231743326e-16
6.879825634e-16
7.443170191e-16
8.105423105e-16
7.442743131e-16
7.466788804e-16
7.745050126e-16
7.529982658e-16
7.522912988e-16
6.888221889e-16
7.992701586e-16
7.059205587e-16
7.418108392e-16
7.004176157e-16
7.301538276e-16
6.811125354e-16
7.231432763e-16
7.201858703e-16
8.042585129e-16
6.916076609e-16
6.465900725e-16
7.160311646e-16
7.545429476e-16
7.135322848e-16
7.258841444e-16
6.820006843e-16
6.90331709e-16
7.356523563e-16
6.686505852e-16
7.976906652e-16
6.780046324e-16
6.648159204e-16
6.75987916e-16
7.467892148e-16
6.76997495e-16
6.63753781e-16
6.653020795e-16
7.098932573e-16
7.308592037e-16
6.923328934e-16
6.974302326e-16
6.663338878e-16
6.601579512e-16
6.998106752e-16
6.819029071e-16
6.859625112e-16
6.626541886e-16
6.650501198e-16
7.098661382e-16
6.614501161e-16
6.772274849e-16
6.516982657e-16
6.947944757e-16
7.068999991e-16
6.759889489e-16
6.777545237e-16
7.097773502e-16
6.805524809e-16
6.532424615e-16
6.917402431e-16
7.766653846e-16
6.782991112e-16
6.779365794e-16
7.172939727e-16
6.789861345e-16
6.903712621e-16
7.300234624e-16
6.436036627e-16
6.755198042e-16
6.57041711e-16
6.843800055e-16
6.976893962e-16
6.861121123e-16
6.606130638e-16
6.737263305e-16
6.686727721e-16
6.686230862e-16
6.500618139e-16
6.769382779e-16
6.363376976e-16
6.741792126e-16
6.86180796e-16
6.745703154e-16
6.459114226e-16
7.012018082e-16
6.743784311e-16
6.886748905e-16
6.6537868e-16
6.867448429e-16
6.715912008e-16
6.657426934e-16
7.011910932e-16
6.764351097e-16
6.64263758e-16
6.384198381e-16
6.795262581e-16
6.72683756e-16
6.927136676e-16
6.525076499e-16
6.601625275e-16
6.537785327e-16
6.645552068e-16
6.728499443e-16
6.500242482e-16
6.764292466e-16
7.145474949e-16
6.822457613e-16
6.742141568e-16
6.714924793e-16
6.467957112e-16
6.716065556e-16
6.523081617e-16
6.613953616e-16
6.486018312e-16
6.781755064e-16
7.157660959e-16
6.642276288e-16
6.7798186e-16
6.58356597e-16
6.810123598e-16
6.886609827e-16
7.030251871e-16
6.562962594e-16
6.5860413e-16
6.643179335e-16
6.523763574e-16
6.830879272e-16
6.708686557e-16
6.660204369e-16
6.675371838e-16
6.765012622e-16
6.609345469e-16
7.006510331e-16
6.56665907e-16
7.102507401e-16
6.789937721e-16
6.652594637e-16
6.768409067e-16
6.980469148e-16
6.708656307e-16
6.984006276e-16
6.508458397e-16
6.59898953e-16
6.591053067e-16
6.615625666e-16
6.908677751e-16
6.978218314e-16
6.445129813e-16
6.563239139e-16
6.640309769e-16
6.672735626e-16
6.504973076e-16
6.974360038e-16
6.876332963e-16
6.561419799e-16
6.769459581e-16
6.673416172e-16
6.787312357e-16
6.664587043e-16
6.742589446e-16
6.794857247e-16
6.746740971e-16
6.647861384e-16
6.553211999e-16
7.100141656e-16
6.836473635e-16
6.842663167e-16
6.509053243e-16
7.186601518e-16
6.939773944e-16
6.794788924e-16
6.969972718e-16
6.760288374e-16
6.809071618e-16
6.566998363e-16
6.766334074e-16
6.705959419e-16
6.632020844e-16
6.544175168e-16
6.763417301e-16
6.857758757e-16
6.936643541e-16
6.671330255e-16
6.642314656e-16
6.793740831e-16
6.792448782e-16
6.734714479e-16
6.669526551e-16
6.963520363e-16
6.495446397e-16
7.13322228e-16
6.792219391e-16
6.729774001e-16
6.614751668e-16
6.395791534e-16
7.043931055e-16
6.895503777e-16
6.712393908e-16
6.851240886e-16
6.705539412e-16
6.845888212e-16
6.700119887e-16
6.563503163e-16
6.982797109e-16
6.672856375e-16
6.582625912e-16
6.469274599e-16
6.568876473e-16
6.887488915e-16
6.679877911e-16
6.701959351e-16
6.76648083e-16
6.782444999e-16
6.681499108e-16
6.809723351e-16
6.897335158e-16
6.780216534e-16
6.786113484e-16
6.609329801e-16
6.597823908e-16
6.810965118e-16
7.004971197e-16
6.598233131e-16
6.535839161e-16
6.430782271e-16
6.510765152e-16
6.790631718e-16
6.658731076e-16
6.637036495e-16
6.524201118e-16
6.786799949e-16
6.834542413e-16
6.754384201e-16
7.00263196e-16
6.938769479e-16
8.789850544e-16
8.563592988e-16
8.638726593e-16
8.616395698e-16
8.632120549e-16
8.539655974e-16
8.897140208e-16
8.373129605e-16
8.3692101e-16
8.642482394e-16
8.505314464e-16
8.619267529e-16
8.845142159e-16
8.381293318e-16
8.60560989e-16
8.548001916e-16
8.554920083e-16
8.543825812e-16
8.978403243e-16
8.239513103e-16
8.358077045e-16
8.623417586e-16
8.752113983e-16
8.342242992e-16
8.547737527e-16
8.258417405e-16
8.125295882e-16
8.300009978e-16
8.22758517e-16
8.204683162e-16
8.474831247e-16
8.368542815e-16
8.792457956e-16
8.294140823e-16
8.214160656e-16
8.431484969e-16
8.208897753e-16
8.454891669e-16
8.361771623e-16
8.30050103e-16
8.456315524e-16
8.377039043e-16
8.366251983e-16
8.730931176e-16
8.504656326e-16
8.316529862e-16
8.398348945e-16
8.112483166e-16
8.495445019e-16
8.423540932e-16
8.404015453e-16
8.481992416e-16
8.424051334e-16
8.498098355e-16
8.41721613e-16
8.942871773e-16
8.451454864e-16
8.492058479e-16
8.215711428e-16
8.494945786e-16
8.309578984e-16
8.463452496e-16
8.326764012e-16
8.189387403e-16
7.992479739e-16
8.182750259e-16
8.072388298e-16
8.449082601e-16
8.102408089e-16
8.67382545e-16
8.505106312e-16
8.123985213e-16
8.161568144e-16
8.475966746e-16
8.360495343e-16
8.385940031e-16
8.270502262e-16
8.006100373e-16
8.106733731e-16
8.255364e-16
8.293306039e-16
8.178495406e-16
8.45199571e-16
8.092936854e-16
8.132502903e-16
8.548736196e-16
8.969418747e-16
8.336408412e-16
8.052604818e-16
8.0622972e-16
8.202329102e-16
8.351236283e-16
8.067084911e-16
8.336676657e-16
8.223496586e-16
8.706204836e-16
8.630919312e-16
8.236057183e-16
8.473555414e-16
8.780229261e-16
8.508377044e-16
8.399639353e-16
8.756357197e-16
8.626883765e-16
8.731430763e-16
8.536655752e-16
8.723252298e-16
9.009231395e-16
8.371594049e-16
8.491998897e-16
8.772065231e-16
8.757335624e-16
8.322550156e-16
8.823278837e-16
8.518394003e-16
8.881702991e-16
8.789296058e-16
9.132298537e-16
8.714092855e-16
8.882673374e-16
8.485053767e-16
8.515796879e-16
8.869033229e-16
8.273443265e-16
8.492704715e-16
8.130315042e-16
8.552008199e-16
8.265882611e-16
8.417050894e-16
8.20480278e-16
8.519019012e-16
8.650700663e-16
8.869516495e-16
9.230365123e-16
8.56967041e-16
8.399247957e-16
8.316102259e-16
8.18979288e-16
8.476898442e-16
8.33877839e-16
8.573745613e-16
8.317028305e-16
8.347251687e-16
8.627223335e-16
8.771301097e-16
8.121218824e-16
8.21005738e-16
8.227224339e-16
8.336961656e-16
8.698209548e-16
8.550554151e-16
8.81100687e-16
8.136467219e-16
8.113025558e-16
8.274055906e-16
8.313384205e-16
8.116788495e-16
8.286677553e-16
8.460428319e-16
8.241925592e-16
8.282720498e-16
8.249745831e-16
8.906802369e-16
8.506312538e-16
8.273562542e-16
8.458870201e-16
8.240167845e-16
8.178838928e-16
8.024027131e-16
8.359898042e-16
8.424211067e-16
8.069791005e-16
7.97925696e-16
8.517164505e-16
8.22690168e-16
8.283452985e-16
8.257775706e-16
7.896415214e-16
8.470437215e-16
8.41920437e-16
8.518441492e-16
8.190851497e-16
8.350873774e-16
7.918255586e-16
8.299920826e-16
7.980845934e-16
8.079321848e-16
7.909926074e-16
8.001357437e-16
8.086405913e-16
8.264866417e-16
8.177757007e-16
8.592282282e-16
8.311406537e-16
8.402087506e-16
8.241072024e-16
8.454036452e-16
8.54611023e-16
8.902452281e-16
8.368422218e-16
8.637712616e-16
8.515976354e-16
8.374502949e-16
8.796137446e-16
8.379462817e-16
8.438137552e-16
8.652732572e-16
8.483724238e-16
8.320173484e-16
8.722416086e-16
8.42920146e-16
8.350826687e-16
8.359751275e-16
8.279097881e-16
8.733784926e-16
8.241687831e-16
8.580214084e-16
8.613983261e-16
8.419171028e-16
8.397625449e-16
8.44111678e-16
8.303271108e-16
8.45161646e-16
8.520336452e-16
8.690261394e-16
8.101726509e-16
8.590118032e-16
8.551511504e-16
8.373149781e-16
8.407785059e-16
8.513377857e-16
8.42348641e-16
8.622258901e-16
8.32764091e-16
8.458183053e-16
8.249004451e-16
8.740773679e-16
8.231892456e-16
8.639158092e-16
8.294312022e-16
8.251605927e-16
8.265379799e-16
8.049282405e-16
8.555505265e-16
8.294944985e-16
8.7463742e-16
8.690781889e-16
8.169239229e-16
8.076960613e-16
8.335884318e-16
8.679767649e-16
8.505243719e-16
8.619565167e-16
8.468060419e-16
8.796299853e-16
8.169417126e-16
8.163488001e-16
9.406695754e-16
8.284648477e-16
8.428221413e-16
8.504659927e-16
8.013891584e-16
8.327178417e-16
8.150806991e-16
8.336215879e-16
8.197525893e-16
8.044912942e-16
8.713493524e-16
8.391568566e-16
8.32194783e-16
8.315039171e-16
8.79019547e-16
8.4590155e-16
8.175742387e-16
8.329495621e-16
8.256188203e-16
8.272393851e-16
8.130028853e-16
8.551104817e-16
8.132587466e-16
8.002060661e-16
8.322405174e-16
8.277769388e-16
8.059562307e-16
7.929015049e-16
7.939721561e-16
8.525585816e-16
8.394069176e-16
8.198723609e-16
8.173701195e-16
8.447350096e-16
8.290150679e-16
8.78226033e-16
8.758060554e-16
8.486375348e-16
8.587153151e-16
8.867917737e-16
8.890624458e-16
8.576011907e-16
8.604264014e-16
8.556747328e-16
8.488039327e-16
8.948600414e-16
8.320335112e-16
8.292948389e-16
8.72246985e-16
8.578968057e-16
8.550772742e-16
8.244263515e-16
8.582381569e-16
8.704876481e-16
8.152116127e-16
8.552213699e-16
8.48755926e-16
8.685058549e-16
8.618619165e-16
8.431995242e-16
8.42914725e-16
8.411038906e-16
8.211611896e-16
8.453909445e-16
8.529122758e-16
8.558376259e-16
8.316521174e-16
8.345368549e-16
8.461341203e-16
8.56107873e-16
8.730236271e-16
8.111484057e-16
8.581858396e-16
8.400436464e-16
8.100526398e-16
8.61067958e-16
8.220295364e-16
8.541974119e-16
8.55156254e-16
8.622848768e-16
8.25675887e-16
8.290976151e-16
8.530449803e-16
8.484017495e-16
8.700511367e-16
8.299270407e-16
8.724365845e-16
8.379826759e-16
8.696493258e-16
8.197360086e-16
8.627213285e-16
8.363511913e-16
8.083393235e-16
8.140941328e-16
8.084805633e-16
8.130921554e-16
8.359003317e-16
8.576604139e-16
8.589886905e-16
8.505012289e-16
8.199832983e-16
8.123115725e-16
8.680139424e-16
8.205366081e-16
8.190845066e-16
8.263189815e-16
8.331598805e-16
8.526447754e-16
8.087393559e-16
8.55959444e-16
8.47370533e-16
8.599372084e-16
8.493155299e-16
8.105399624e-16
8.23684127e-16
8.100592558e-16
7.966973634e-16
8.299273539e-16
8.15424167e-16
7.909530611e-16
8.178962931e-16
8.396672329e-16
7.836022686e-16
8.238689339e-16
9.031514092e-16
8.210322707e-16
8.54938826e-16
8.109270839e-16
8.405274405e-16
8.378078964e-16
8.338933213e-16
8.023345458e-16
8.023548119e-16
8.219677045e-16
8.244853367e-16
8.362370942e-16
8.205969635e-16
8.004364626e-16
8.631016597e-16
8.133102983e-16
8.385235573e-16
8.612036354e-16
8.59189657e-16
8.597324228e-16
8.676429644e-16
8.255564195e-16
8.965217044e-16
8.616542677e-16
8.337010407e-16
8.412458124e-16
8.799285179e-16
8.34325904e-16
8.535741011e-16
8.371806776e-16
8.713992486e-16
8.566272247e-16
8.367975518e-16
8.46580051e-16
8.379980338e-16
8.325563881e-16
8.283902229e-16
8.522638514e-16
8.50726171e-16
8.395092798e-16
8.168315185e-16
8.477966718e-16
8.533248417e-16
8.39654585e-16
8.482361427e-16
8.408336332e-16
8.336725351e-16
8.397800626e-16
8.580818188e-16
8.148939996e-16
8.872931908e-16
8.003776166e-16
8.240415697e-16
8.21350056e-16
8.331825155e-16
8.249029473e-16
8.389106921e-16
8.293714919e-16
8.262084448e-16
7.99154622e-16
8.203151932e-16
8.903275863e-16
8.741188029e-16
8.505478339e-16
8.424517717e-16
8.160954438e-16
8.45723805e-16
8.094964177e-16
8.080833692e-16
8.266195801e-16
8.024210589e-16
8.158117981e-16
8.172230522e-16
8.442315442e-16
8.490900491e-16
8.173846885e-16
8.253231741e-16
8.315917419e-16
8.338810435e-16
8.137728387e-16
8.281798196e-16
8.332222949e-16
8.361522719e-16
8.614572823e-16
8.019385307e-16
8.186680132e-16
8.341901169e-16
8.306353903e-16
8.156442263e-16
8.534250336e-16
8.277640621e-16
8.169711048e-16
7.77795822e-16
7.850795515e-16
8.240598549e-16
8.341939784e-16
8.252319095e-16
8.471114072e-16
8.213144522e-16
7.890207385e-16
8.893356404e-16
8.590913954e-16
8.323001495e-16
8.284829963e-16
8.159289141e-16
8.393326884e-16
8.428838681e-16
8.508617669e-16
8.775313049e-16
8.22067346e-16
8.247479378e-16
8.434797597e-16
8.642635559e-16
8.330814634e-16
8.139926937e-16
8.491319224e-16
8.245610591e-16
8.32817743e-16
8.424460641e-16
8.561733307e-16
8.183354991e-16
8.284477229e-16
8.401124397e-16
8.28412504e-16
8.400038709e-16
8.460292951e-16
8.144228289e-16
8.343621385e-16
8.061924468e-16
8.321565328e-16
8.455557061e-16
8.256000723e-16
8.369542066e-16
8.499997752e-16
8.44602305e-16
8.377989086e-16
8.191818604e-16
8.449564075e-16
8.238415966e-16
8.309269322e-16
8.399628015e-16
8.498373081e-16
8.251680651e-16
8.248348062e-16
8.255664059e-16
8.75024671e-16
8.613466762e-16
8.666184413e-16
8.280362401e-16
8.719299903e-16
8.811392522e-16
8.603927329e-16
8.358293213e-16
8.242881393e-16
8.098261051e-16
8.221876864e-16
8.104203331e-16
8.591591985e-16
8.488918481e-16
8.371969502e-16
8.197706067e-16
8.415924131e-16
8.266858595e-16
8.528258706e-16
8.188268681e-16
8.497478871e-16
8.186776014e-16
8.43409021e-16
8.134482618e-16
8.231869606e-16
8.372816146e-16
7.990563503e-16
8.677884003e-16
8.11026052e-16
8.360768513e-16
8.670255252e-16
8.697052053e-16
8.386339223e-16
8.244745933e-16
8.050004083e-16
8.726762013e-16
7.89994322e-16
8.2510022e-16
7.94889624e-16
7.881008854e-16
7.861185326e-16
7.906973602e-16
7.713831532e-16
7.987495867e-16
7.64068964e-16
8.501312632e-16
8.259748207e-16
8.244884414e-16
8.046374389e-16
8.125376023e-16
8.184548337e-16
8.145282681e-16
8.180202592e-16
8.164916197e-16
8.105362449e-16
8.267572316e-16
8.231261162e-16
8.234915615e-16
7.942236139e-16
8.776324527e-16
8.602227733e-16
8.339936876e-16
8.607899918e-16
8.246980975e-16
8.59726943e-16
8.278986463e-16
8.202631356e-16
8.760464669e-16
8.121371172e-16
8.350640302e-16
8.507836777e-16
8.443628906e-16
8.471609885e-16
8.404940021e-16
8.461435331e-16
8.593977279e-16
8.118484217e-16
8.257129324e-16
8.183349615e-16
8.160972762e-16
8.330037739e-16
8.199050558e-16
8.311205461e-16
8.784851742e-16
8.660255878e-16
8.682744062e-16
8.25832291e-16
8.058959e-16
8.48958577e-16
8.403420194e-16
8.385442409e-16
8.106336002e-16
8.671816883e-16
8.213515981e-16
8.272670271e-16
9.31152167e-16
8.149368835e-16
8.268066287e-16
8.120257806e-16
8.504462547e-16
8.387639942e-16
8.339912516e-16
8.378770446e-16
8.19713271e-16
8.402068402e-16
8.274571502e-16
8.243065275e-16
8.526224302e-16
8.552492881e-16
8.118714442e-16
8.269071612e-16
8.386762332e-16
8.229181733e-16
8.457938522e-16
8.314463961e-16
8.476247011e-16
7.997971865e-16
8.208039431e-16
8.281359489e-16
8.389758368e-16
8.363675954e-16
8.430221362e-16
8.386552506e-16
8.382370441e-16
8.147268669e-16
8.371308357e-16
8.794013491e-16
8.29046532e-16
8.385534647e-16
8.525442417e-16
8.493252331e-16
8.333941362e-16
8.344035058e-16
8.194314786e-16
8.185216185e-16
8.604423983e-16
7.744789924e-16
7.73029561e-16
8.09756464e-16
8.126952326e-16
8.345306086e-16
7.870852584e-16
7.818587704e-16
8.188899908e-16
8.117498638e-16
8.20423314e-16
8.062004441e-16
8.02086427e-16
7.7233047e-16
7.863540859e-16
8.438430992e-16
8.332290473e-16
8.231828044e-16
8.459845343e-16
8.157042576e-16
7.940205462e-16
7.935680073e-16
8.135839454e-16
8.108584019e-16
8.235387489e-16
8.49329299e-16
8.441831066e-16
7.898972183e-16
8.284205043e-16
8.590152121e-16
8.957101572e-16
8.211908243e-16
8.425503645e-16
8.45209991e-16
8.200527444e-16
8.534446112e-16
8.286816283e-16
8.254526707e-16
8.525849262e-16
8.066553279e-16
8.269025835e-16
8.314089285e-16
8.122681722e-16
8.11656962e-16
8.356002668e-16
8.212208545e-16
8.321017632e-16
8.487595095e-16
8.180324529e-16
8.482649694e-16
8.485124634e-16
8.479384085e-16
8.242249344e-16
8.266688761e-16
8.140784059e-16
8.14807146e-16
8.381021273e-16
8.015924431e-16
8.542533451e-16
8.536813558e-16
8.556215475e-16
8.120794606e-16
8.563495018e-16
8.710638421e-16
8.212859864e-16
8.423643512e-16
8.166307502e-16
8.003905898e-16
8.388047754e-16
8.546801018e-16
8.261853885e-16
8.147961553e-16
8.122142077e-16
8.103607645e-16
8.193411203e-16
8.216632389e-16
8.021520126e-16
8.293484371e-16
8.716096702e-16
8.396042331e-16
8.206613693e-16
8.208374708e-16
8.171386977e-16
8.397478412e-16
8.028951696e-16
8.353318667e-16
8.168030316e-16
8.616577241e-16
8.303203791e-16
8.324166043e-16
8.045769324e-16
8.070311235e-16
8.235539792e-16
8.165167495e-16
8.304451813e-16
7.901498013e-16
7.975471985e-16
8.02206302e-16
7.664484199e-16
7.745872058e-16
7.587757837e-16
8.38850186e-16
7.78718073e-16
7.895282378e-16
7.919305463e-16
8.380509306e-16
8.370823768e-16
8.1058612e-16
8.011445496e-16
8.211232831e-16
8.116994908e-16
7.894541996e-16
8.159020366e-16
8.150392077e-16
8.035259594e-16
7.852669149e-16
8.345157525e-16
8.065522192e-16
7.971621737e-16
8.386129515e-16
8.233871421e-16
7.990534693e-16
8.432644758e-16
8.367514789e-16
8.161653251e-16
8.031746671e-16
8.188448089e-16
8.26437239e-16
8.262493871e-16
8.499866944e-16
8.196128246e-16
8.211033536e-16
8.103027051e-16
8.094904827e-16
8.1944138e-16
8.180947069e-16
8.465659596e-16
8.359348401e-16
8.399858781e-16
8.08589391e-16
8.181084549e-16
8.288992066e-16
8.289953711e-16
8.154316091e-16
8.349554062e-16
8.274162542e-16
8.273091159e-16
8.33491488e-16
8.399118086e-16
8.334604622e-16
8.569417746e-16
8.780527953e-16
8.461389136e-16
8.122006102e-16
8.570169711e-16
8.003420058e-16
8.072888199e-16
8.629526791e-16
8.452876293e-16
8.172052557e-16
8.276648888e-16
8.574981976e-16
8.1338602e-16
8.405930651e-16
8.514034333e-16
8.396529478e-16
8.154361203e-16
8.907199567e-16
8.177872325e-16
8.015211509e-16
7.986399938e-16
8.090667476e-16
8.137898744e-16
8.425397636e-16
8.389064913e-16
8.332575314e-16
8.290980643e-16
8.632132249e-16
8.151699995e-16
8.351885391e-16
8.191666882e-16
8.334127812e-16
8.300356998e-16
8.365786646e-16
8.000883285e-16
8.267626457e-16
8.324060239e-16
7.972180776e-16
8.396931299e-16
8.271873687e-16
7.946529182e-16
8.385892409e-16
7.783498966e-16
7.502390234e-16
7.790710165e-16
7.734034108e-16
8.012934079e-16
7.981607066e-16
7.523193235e-16
7.889355114e-16
8.002174329e-16
8.124380858e-16
8.236358478e-16
7.977407034e-16
8.132160081e-16
7.731127766e-16
7.821193733e-16
8.088182357e-16
7.877033755e-16
8.397553598e-16
8.159475301e-16
7.907167004e-16
8.4725848e-16
7.926198969e-16
7.848340738e-16
7.968799896e-16
7.898741174e-16
7.823851166e-16
7.99347533e-16
8.052718246e-16
8.005274659e-16
8.099846132e-16
8.384422752e-16
8.217985221e-16
7.887464097e-16
8.420740765e-16
8.144841714e-16
8.09090685e-16
8.281999149e-16
8.053403015e-16
7.918113799e-16
8.069844318e-16
8.083464315e-16
7.967453573e-16
8.654262316e-16
8.321996437e-16
8.234294202e-16
8.169183994e-16
8.268913692e-16
8.29091963e-16
8.323966397e-16
8.691292626e-16
8.404831209e-16
8.495373419e-16
8.440670408e-16
8.142256798e-16
8.308370527e-16
8.177840426e-16
8.631888854e-16
8.416257009e-16
8.488614053e-16
8.184483685e-16
8.506728764e-16
8.507782181e-16
8.283509267e-16
8.161329707e-16
8.720145664e-16
8.555317568e-16
8.360945953e-16
8.217732904e-16
8.215613797e-16
8.123437985e-16
8.532264077e-16
8.388386429e-16
8.316047682e-16
8.074354454e-16
8.185582271e-16
8.947287776e-16
8.231653842e-16
8.409742846e-16
8.317194934e-16
8.267093032e-16
8.326445653e-16
8.623127152e-16
8.094173127e-16
8.608942362e-16
7.916423005e-16
8.133310012e-16
8.421308455e-16
8.329307918e-16
8.431434171e-16
8.128907679e-16
8.276993995e-16
8.426421842e-16
8.460155382e-16
8.154520048e-16
8.115311451e-16
8.024579255e-16
7.614291837e-16
8.003559449e-16
7.849117345e-16
7.875328981e-16
8.304848531e-16
8.491053133e-16
8.185693539e-16
7.771707944e-16
7.882871399e-16
7.827493277e-16
7.878137539e-16
8.301984021e-16
8.326111819e-16
8.48317455e-16
7.933371389e-16
7.892304682e-16
7.828959359e-16
7.727575399e-16
8.01033845e-16
8.154485095e-16
8.462106006e-16
7.681945556e-16
7.836025342e-16
8.045832217e-16
8.316146076e-16
8.06950751e-16
7.851783706e-16
8.467600746e-16
9.227510744e-16
7.671929664e-16
7.866859893e-16
8.154939864e-16
8.086915863e-16
8.151504937e-16
7.978424935e-16
8.036388197e-16
8.203521018e-16
8.381677219e-16
8.322839528e-16
8.044456018e-16
8.322859684e-16
8.551052686e-16
8.089138013e-16
8.27746695e-16
8.540230636e-16
8.053323029e-16
8.521874286e-16
8.266379688e-16
8.084161802e-16
8.287180317e-16
8.168332807e-16
8.339882403e-16
8.860716207e-16
8.222276173e-16
8.550240477e-16
8.419419048e-16
8.215898307e-16
8.17860278e-16
8.746987217e-16
8.036072061e-16
8.088717991e-16
8.173536726e-16
8.264985268e-16
8.390291093e-16
8.140875647e-16
8.487643177e-16
8.251981104e-16
8.311836974e-16
8.087108992e-16
8.766163424e-16
8.106002503e-16
8.40282288e-16
7.999369009e-16
8.13507327e-16
8.05853988e-16
8.47133682e-16
8.385196259e-16
8.132863041e-16
8.209498365e-16
8.400300335e-16
8.165229016e-16
8.244788765e-16
8.307748234e-16
8.499192556e-16
8.43936194e-16
8.205659119e-16
8.292108853e-16
8.091514975e-16
7.798282211e-16
8.368479092e-16
8.032793091e-16
8.113755861e-16
8.331630448e-16
7.870988504e-16
8.099630233e-16
7.623767478e-16
7.977555107e-16
7.747246024e-16
7.90070768e-16
7.743676871e-16
8.050338072e-16
8.096085242e-16
7.678852312e-16
7.893072505e-16
8.38177902e-16
8.212095917e-16
7.763867493e-16
7.842596321e-16
8.339833552e-16
7.705788672e-16
8.309271875e-16
8.155387031e-16
7.738590224e-16
8.051274001e-16
7.96473692e-16
7.894899265e-16
7.924977893e-16
7.977320207e-16
8.133533461e-16
7.819717556e-16
7.917154924e-16
8.21403181e-16
7.888718171e-16
7.740330974e-16
8.185803975e-16
8.238391717e-16
7.850170477e-16
8.121531445e-16
8.477195141e-16
8.123952321e-16
8.022813659e-16
7.993535324e-16
7.813822881e-16
7.968753946e-16
8.143565045e-16
8.005686764e-16
8.130280027e-16
7.890460209e-16
8.025404269e-16
7.881614759e-16
8.076708565e-16
8.111035305e-16
7.923411669e-16
7.826454709e-16
8.466985439e-16
7.922537416e-16
8.281231425e-16
8.083232865e-16
8.357634176e-16
8.039845493e-16
8.279460537e-16
8.135531158e-16
8.022845351e-16
8.393578447e-16
8.057879769e-16
8.230294245e-16
8.443800718e-16
8.368371715e-16
8.238556372e-16
8.068308228e-16
8.179506438e-16
8.263694665e-16
8.315007264e-16
8.100896377e-16
8.170558263e-16
8.074877699e-16
8.08980568e-16
7.816484469e-16
8.451390632e-16
7.992025955e-16
8.263942791e-16
7.96761886e-16
8.675268899e-16
8.375980947e-16
8.586168063e-16
8.365638854e-16
8.566653322e-16
7.997148224e-16
8.431706191e-16
8.885188809e-16
8.135347507e-16
8.170967172e-16
8.235214942e-16
7.929847866e-16
8.083051546e-16
7.987488973e-16
7.712300332e-16
8.148717888e-16
7.825028801e-16
7.632306989e-16
7.900781443e-16
7.512368674e-16
7.70902475e-16
7.921817213e-16
7.625242434e-16
7.821544194e-16
8.430662124e-16
8.129366146e-16
8.042428229e-16
7.784205189e-16
7.513328728e-16
7.88474596e-16
7.980183565e-16
7.884427345e-16
7.930540312e-16
7.770456679e-16
7.489094777e-16
8.025820528e-16
7.837462977e-16
7.677752057e-16
7.660834163e-16
7.860920284e-16
8.06207794e-16
8.074424768e-16
7.99540617e-16
7.620721157e-16
7.912742282e-16
7.890406114e-16
7.739254988e-16
7.559813884e-16
8.220565087e-16
8.012048243e-16
7.805594375e-16
7.745636165e-16
8.382427945e-16
7.942724694e-16
7.863314599e-16
8.045051989e-16
7.939555864e-16
7.851279181e-16
7.655471954e-16
7.964448825e-16
7.998312688e-16
7.852692398e-16
8.233958351e-16
7.914693986e-16
8.034111002e-16
8.31577631e-16
7.973878195e-16
8.245290929e-16
8.342646287e-16
8.42065688e-16
8.129767467e-16
7.982218375e-16
7.932031172e-16
8.199167869e-16
8.047272009e-16
8.399514005e-16
8.1664655e-16
8.237595567e-16
8.044854693e-16
8.263796603e-16
8.285991163e-16
8.337853075e-16
8.604773385e-16
8.095013042e-16
8.376787448e-16
8.1630609e-16
7.992132316e-16
8.260981569e-16
7.962782652e-16
7.947661415e-16
8.673978429e-16
8.272081398e-16
8.15963037e-16
8.164619167e-16
8.675374418e-16
7.980433223e-16
8.200305132e-16
8.459960164e-16
8.997655713e-16
8.30628123e-16
7.900337745e-16
8.235837542e-16
8.233620296e-16
7.943753398e-16
8.353923761e-16
7.952281513e-16
8.182601069e-16
7.828338106e-16
7.937356537e-16
8.30439262e-16
7.87363541e-16
8.019638623e-16
8.309811075e-16
7.900563899e-16
7.928032367e-16
7.149067816e-16
7.612997724e-16
7.384643453e-16
7.721855226e-16
7.6238004e-16
7.964362625e-16
7.50707052e-16
7.792250643e-16
7.614071825e-16
7.716285369e-16
7.522963401e-16
7.793887829e-16
7.605413566e-16
7.855288197e-16
7.602990687e-16
7.705582002e-16
7.820415547e-16
8.07884065e-16
8.279235397e-16
7.472226716e-16
7.690243027e-16
7.680210361e-16
7.730845174e-16
7.884561209e-16
7.710977126e-16
7.564427017e-16
7.915753521e-16
7.648418283e-16
7.717972991e-16
7.689975217e-16
7.569617287e-16
7.769817217e-16
8.111836221e-16
7.798936537e-16
7.713514672e-16
8.286449243e-16
7.957340165e-16
7.657880995e-16
7.89436331e-16
8.131265927e-16
8.022949592e-16
7.974037355e-16
8.258966572e-16
7.992063282e-16
7.99390018e-16
7.746493588e-16
8.022159423e-16
7.719790926e-16
8.117898626e-16
8.117713397e-16
8.236348094e-16
8.540570618e-16
8.180289545e-16
8.727407754e-16
8.155300203e-16
8.416345273e-16
8.399370401e-16
8.005341739e-16
8.392889753e-16
7.990334322e-16
7.932404067e-16
8.006505588e-16
8.138582566e-16
8.054045898e-16
8.008316197e-16
8.069237457e-16
8.070989786e-16
8.601547304e-16
8.494486448e-16
8.596328482e-16
8.374513567e-16
8.436548506e-16
8.387204966e-16
8.303189121e-16
8.08072431e-16
8.701643711e-16
8.15590418e-16
8.1604246e-16
8.103353913e-16
8.418901946e-16
7.901415144e-16
8.101065582e-16
7.891769433e-16
8.279686892e-16
8.08582137e-16
8.354586975e-16
7.920242141e-16
7.848532935e-16
7.939514066e-16
7.925795448e-16
7.929946496e-16
8.017639687e-16
7.804994349e-16
7.66753769e-16
7.650336934e-16
7.648814313e-16
7.348127273e-16
7.391608967e-16
7.478195236e-16
7.741072295e-16
7.71040354e-16
7.363678546e-16
7.732845581e-16
7.704623818e-16
7.528686941e-16
7.529832699e-16
7.279753285e-16
7.552241063e-16
7.845062345e-16
7.255751551e-16
7.835037534e-16
7.802724695e-16
7.423562487e-16
7.46816248e-16
8.205246535e-16
7.41542875e-16
7.480045396e-16
7.604245332e-16
7.929724082e-16
8.534853499e-16
7.87068099e-16
7.984194597e-16
7.560912767e-16
7.927783145e-16
8.190845538e-16
7.933198221e-16
7.710859614e-16
7.804835466e-16
8.417868379e-16
7.925659307e-16
7.643851927e-16
7.625268839e-16
7.895721908e-16
8.12101019e-16
7.546982033e-16
8.033384959e-16
8.633030992e-16
8.053410898e-16
7.886128531e-16
7.818040763e-16
8.545215935e-16
7.882861243e-16
7.652607682e-16
8.223549561e-16
7.809353779e-16
7.778961474e-16
7.911984979e-16
7.981543136e-16
7.805881828e-16
7.924588422e-16
7.905667505e-16
8.14734426e-16
8.115731362e-16
8.144023438e-16
8.282738223e-16
8.301502644e-16
8.280184659e-16
7.944771799e-16
8.189046956e-16
8.036490368e-16
7.898712086e-16
7.861548276e-16
7.976691939e-16
7.929539275e-16
8.108039667e-16
7.645835077e-16
8.382727316e-16
8.410670393e-16
8.677400743e-16
8.46134916e-16
8.129453401e-16
8.019572227e-16
8.261176965e-16
8.279624128e-16
8.62441223e-16
8.33156324e-16
8.095941847e-16
8.494562809e-16
8.199099984e-16
8.286422644e-16
8.258633859e-16
7.863392877e-16
7.930127515e-16
7.928315869e-16
7.835169921e-16
8.181369889e-16
7.964797687e-16
8.167387785e-16
7.693355302e-16
7.476124483e-16
7.259784687e-16
7.737912382e-16
7.025763401e-16
7.525601947e-16
7.696838327e-16
7.524333463e-16
7.652097371e-16
8.17772759e-16
7.654396019e-16
7.650830425e-16
7.805871684e-16
7.54188757e-16
7.224855503e-16
7.480173169e-16
7.474032319e-16
7.496909653e-16
7.414021648e-16
7.763750597e-16
7.798317207e-16
7.550605577e-16
7.441732442e-16
7.795417207e-16
8.101084811e-16
7.581611396e-16
7.961819175e-16
7.918923839e-16
7.478244411e-16
7.832994636e-16
7.682200154e-16
7.960000718e-16
7.643591759e-16
7.470955007e-16
7.8280353e-16
7.974616836e-16
7.749511825e-16
7.658606606e-16
7.691633884e-16
7.811192055e-16
8.023655832e-16
7.996531069e-16
8.01065052e-16
8.121439897e-16
7.699629586e-16
7.821146988e-16
8.035756894e-16
7.74095553e-16
7.899484551e-16
7.932530511e-16
8.105519149e-16
8.15917004e-16
8.146318866e-16
7.672975452e-16
7.973572062e-16
7.94802669e-16
8.269408688e-16
7.821027031e-16
8.270819111e-16
7.990063784e-16
8.122138627e-16
7.78923975e-16
7.809013863e-16
8.343018447e-16
8.052994577e-16
8.037726426e-16
8.126515951e-16
8.054568566e-16
7.672993683e-16
8.062797762e-16
8.01644351e-16
8.43477153e-16
7.991265998e-16
8.320840501e-16
8.596489214e-16
8.140598097e-16
8.177124847e-16
7.939861423e-16
8.24719817e-16
8.041050707e-16
7.926932776e-16
8.110885091e-16
8.158431107e-16
8.00366283e-16
8.794331472e-16
8.07425567e-16
8.001451855e-16
7.78273484e-16
7.882213895e-16
8.164962338e-16
7.989199121e-16
8.016627876e-16
8.332477069e-16
7.884633485e-16
7.7503205e-16
8.059614348e-16
6.813736362e-16
7.474087444e-16
6.987467257e-16
7.738541179e-16
8.123896484e-16
7.212814266e-16
7.326718588e-16
7.482268608e-16
7.097681459e-16
7.598699866e-16
7.79746983e-16
7.307710849e-16
7.371561637e-16