/*--------------------------------*- C++ -*----------------------------------*\
| =========                 |                                                 |
| \\      /  F ield         | OpenFOAM: The Open Source CFD Toolbox           |
|  \\    /   O peration     | Version:  v1706                                 |
|   \\  /    A nd           | Web:      www.OpenFOAM.com                      |
|    \\/     M anipulation  |                                                 |
\*---------------------------------------------------------------------------*/
FoamFile
{
    version     2.0;
    format      ascii;
    class       volScalarField;
    location    "0.04";
    object      dsmcNMean_N2cold;
}
// * * * * * * * * * * * * * * * * * * * * * * * * * * * * * * * * * * * * * //

dimensions      [0 0 0 0 0 0 0];


internalField   nonuniform List<scalar> 
6000
(
47.497625
40.037
33.880125
28.814625
25.8025
48.10725
40.48675
34.262375
29.295125
25.809375
48.667625
41.051125
34.732875
29.5795
25.54475
49.162625
41.474375
35.014625
29.819625
25.465
49.9635
42.106875
35.499625
30.0345
25.517625
50.4495
42.4555
35.91275
30.40775
25.726125
51.05175
43.111625
36.235125
30.571625
25.85425
51.711625
43.47
36.57975
30.834625
26.0655
52.23325
43.920875
37.034
31.27225
26.38425
52.839
44.537625
37.37575
31.439
26.440625
53.4695
44.969875
37.8335
31.850625
26.76925
54.14825
45.548375
38.340625
32.31125
27.150625
54.654125
45.99575
38.7095
32.548375
27.487875
55.376375
46.6445
39.27825
33.0445
27.724
56.047
47.043625
39.5505
33.263125
28.008625
56.65825
47.660875
40.166875
33.7145
28.31425
57.367625
48.234875
40.6805
34.166625
28.723625
57.97925
48.8575
41.00175
34.447375
28.95275
58.72775
49.2245
41.2955
34.868375
29.30775
59.551125
50.198625
42.224
35.52875
29.82975
60.0225
50.477
42.42775
35.638875
29.936125
60.985875
51.258625
43.023375
36.234875
30.5185
61.49275
51.645
43.4515
36.557625
30.775625
62.2425
52.571125
44.15625
37.08775
31.176625
62.943875
52.958375
44.478625
37.466875
31.4475
63.94075
53.69125
45.135125
38.019625
31.9345
64.50625
54.186
45.56775
38.341375
32.25225
65.194875
54.9005
46.087625
38.795125
32.608625
66.2105
55.562375
46.746875
39.287875
33.068
66.779625
56.089125
47.293625
39.732375
33.4105
67.72225
56.958
47.844625
40.168375
33.78
68.47875
57.5895
48.474125
40.77125
34.166625
69.242125
58.214375
48.901625
41.21525
34.65725
70.0725
58.84
49.6025
41.577375
35.047
70.9855
59.716125
50.17125
42.191875
35.48525
71.688625
60.2955
50.745125
42.6275
35.852375
72.55975
61.076625
51.370125
43.226625
36.3385
73.493
61.708875
51.872375
43.54625
36.641375
74.310125
62.532625
52.50975
44.154375
37.073
75.10425
63.112875
53.207125
44.819875
37.66525
76.213875
64.103375
53.842375
45.22825
38.063125
76.8255
64.745125
54.362
45.74275
38.421375
78.0095
65.486625
55.059625
46.383
38.972
78.622
66.118375
55.66925
46.748375
39.339875
79.7965
67.127
56.354375
47.482
39.876625
80.63825
67.658
56.957125
47.85875
40.30175
81.605875
68.648375
57.70425
48.47625
40.879625
82.60925
69.437875
58.28575
49.03775
41.256375
83.52925
70.376375
59.2055
49.75
41.8315
84.551875
71.052375
59.7515
50.1905
42.3235
85.513875
71.83675
60.4605
50.9345
42.722375
86.56375
72.82425
61.283125
51.500625
43.321375
87.60175
73.818875
61.96475
51.97775
43.78375
88.588625
74.41425
62.69275
52.703625
44.3505
89.638125
75.286625
63.3585
53.22025
44.76325
90.739625
76.374375
64.14325
53.997125
45.377375
91.6855
76.9475
64.6945
54.40425
45.6895
92.83425
78.1055
65.7315
55.35775
46.557375
94.080375
79.150875
66.567625
55.9385
46.99275
95.080625
79.866625
67.144625
56.452125
47.48675
31.391875
32.68325
32.69075
32.40425
32.21875
32.13125
31.877
31.9595
32.286
32.018375
32.002625
32.01525
31.764875
32.06025
32.165875
32.25125
32.28025
32.24075
32.226125
32.3305
32.170625
32.293
32.361625
32.373
32.499875
32.488
32.54575
32.673
33.01
32.894375
32.89275
32.90075
33.285375
33.277875
33.4855
33.660625
33.706875
33.64825
33.645625
33.771125
33.863
34.015125
34.4225
34.479375
34.64225
34.75825
35.26475
34.949
35.22325
35.40775
35.461
35.62125
35.8905
35.95925
36.043375
36.111
36.4075
36.55875
36.60775
36.772125
36.833
37.06475
37.207
37.185125
37.21375
37.653125
38.007875
37.79525
38.2885
38.48675
38.7685
38.81925
38.724375
38.914625
39.38475
39.21025
39.48375
39.48325
39.53625
39.807375
39.874125
39.899875
39.99775
40.172375
39.8795
39.917125
39.50475
39.139875
38.82875
38.121125
37.292625
35.91925
34.37675
32.09125
27.9895
28.269875
31.12225
33.01425
33.93325
34.164
34.08325
33.82875
33.73675
33.51875
33.169875
33.137375
32.893125
32.896375
32.81175
32.894625
32.7245
32.660125
32.464375
32.37975
32.597125
32.5285
32.36
32.29275
32.335625
32.51075
32.47575
32.37025
32.281625
32.474625
32.723375
32.84625
32.921375
33.05175
33.300375
32.915125
33.287375
33.20075
33.43425
33.16925
33.275125
33.619125
33.784375
33.661125
34.007375
33.983875
34.325875
34.515375
34.373625
34.49325
34.625375
34.941375
34.579375
35.285875
35.3045
35.6075
35.489625
35.52475
35.7205
35.831125
36.15425
36.104375
36.53775
36.624375
36.3515
36.694625
37.208375
37.394875
37.332875
37.745625
37.859125
38.065125
38.053125
38.243125
38.671625
38.661125
38.685375
38.780125
38.895125
39.08875
39.12225
39.12525
39.308875
39.414625
39.541125
39.2355
39.16325
39.146625
38.5575
38.144125
37.459625
36.872125
35.459625
33.956
31.766125
27.204
26.942625
28.6525
30.76625
32.46375
33.76875
34.614875
35.013625
35.14175
35.06625
34.893875
34.891
34.69125
34.595
34.32425
34.245125
34.0445
33.885375
33.7365
33.5635
33.573625
33.398
33.2105
33.08325
33.16775
33.152125
33.144375
32.81925
32.789
32.787125
33.06475
33.280875
33.185625
33.19075
33.200625
33.22725
33.146125
33.30475
33.48675
33.472375
33.533625
33.606125
33.5365
33.670375
33.97725
34.01175
34.1065
34.52
34.45275
34.38925
34.605
34.862375
35.02925
35.118375
34.9035
35.314625
35.493125
35.14475
35.710375
35.894875
36.029125
35.914875
36.250375
36.496
36.4745
36.492375
36.730625
37.106125
37.202625
37.36325
37.349875
37.637
37.842875
38.135
38.5855
38.507875
38.818
38.615625
38.749125
38.813
38.982625
39.101125
39.208625
39.250375
39.223875
39.345
39.037
38.8725
38.401125
38.18925
37.5245
36.674125
35.529125
33.99
31.876875
28.014125
26.395125
27.55225
28.993875
30.50025
32.13125
33.451125
34.52225
35.333375
36.134625
36.310875
36.333375
36.298875
36.21125
36.044625
35.889875
35.76
35.40675
35.245375
35.153625
35.090875
34.915375
34.6635
34.49625
34.238625
34.146625
34.189875
34.107375
34.056125
34.068125
34.011375
34.0885
33.914
33.88075
33.906875
33.809375
34.01225
34.01175
33.967625
33.869
33.95875
33.997625
34.305375
34.320625
34.413875
34.622375
34.573
34.316
34.658875
34.68975
34.96175
35.06925
35.28825
35.3435
35.410125
35.439375
35.62275
35.717875
35.701
36.0255
35.952875
35.961625
36.363125
36.51675
36.61375
36.821875
36.893625
37.246875
37.346125
37.689875
37.79175
37.726625
37.814375
38.373
38.3435
38.6015
38.522375
38.6975
38.818125
38.754875
39.05425
39.0555
39.00725
39.114125
38.89125
39.2875
39.390125
39.1305
38.6505
38.08725
37.645375
36.929125
35.846
34.393375
32.333
29.003
26.266
27.011
28.0915
29.34
30.598625
31.946
33.157125
34.437
35.51775
36.28525
36.800125
37.26
37.4835
37.59425
37.46675
37.456125
37.5305
37.296
36.988875
36.783625
36.54725
36.5185
36.264375
36.0285
35.867
35.766
35.632375
35.26475
35.22625
35.07175
35.142
35.06575
34.979125
35.138
35.117625
34.934375
34.69175
35.047125
35.067
35.038
34.937125
34.780625
35.0505
35.22175
35.052
35.228
35.236625
35.06275
35.170625
35.305625
35.556
35.5905
35.75425
35.66
35.93675
36.01625
35.854
36.102375
36.36075
36.371625
36.37675
36.32075
36.891875
36.697875
36.947
37.115625
37.343625
37.62625
37.8825
37.807625
37.74375
38.0255
38.54275
38.53875
38.696
38.755125
39.193375
38.89275
38.85
38.732125
39.263375
39.406375
39.242625
39.420375
39.525
39.255625
39.02125
38.9835
38.47275
37.930625
37.43975
36.2315
34.86525
33.179375
30.101125
26.270375
26.87025
27.585125
28.46575
29.550375
30.739
31.906875
33.182875
34.450375
35.679875
36.65875
37.468625
38.097125
38.3615
38.7275
38.7885
38.848
38.945375
38.872375
38.608375
38.531125
38.213125
38.149875
38.0425
37.78625
37.525375
37.58725
37.3185
37.157875
36.93075
36.793625
36.768
36.513625
36.23625
36.181875
36.099
36.184875
36.125375
36.18025
36.342375
36.159125
36.086875
36.2035
35.896125
35.963375
36.006375
36.120125
35.894625
36.103375
36.118375
36.3305
36.489125
36.4055
36.457875
36.668875
36.605125
36.6845
36.607375
36.534125
36.708125
36.910375
37.19425
37.352625
37.2255
37.417
37.681875
37.812625
38.00575
38.191875
38.1565
38.333375
38.292875
38.572
38.822125
38.98125
39.0585
39.145625
39.15275
39.256125
39.403125
39.760125
39.861
39.7285
39.503125
39.636
39.672
39.442125
38.984125
38.842625
38.4345
37.847
37.059125
35.923
33.932
31.226375
26.2755
26.76375
27.335125
28.032625
28.898
29.803125
31.023125
32.132
33.322375
34.50525
35.6595
36.6655
37.699125
38.54275
39.161625
39.59475
40.02375
40.142375
40.292875
40.418
40.264375
40.368875
40.108875
40.0695
39.842625
39.753375
39.589875
39.27775
39.138
38.881875
38.710625
38.667375
38.387875
38.169875
38.18275
37.883125
37.706625
37.57775
37.550375
37.597125
37.469625
37.22175
37.282875
37.359125
37.289125
37.26025
37.149375
37.30625
37.128625
37.224875
37.300625
37.1225
37.336
37.365875
37.495625
37.641125
37.50625
37.405875
37.572
37.81575
37.9885
38.137625
38.03225
38.071
38.0865
38.301625
38.562375
38.7055
38.87625
38.854875
39.078375
39.230625
39.190875
39.300375
39.73825
39.55425
39.645125
39.85
39.829375
39.844875
39.9595
40.08925
40.2105
40.12425
40.26575
40.037
39.887875
39.447375
39.403875
39.115
38.290375
37.627875
36.7595
34.696375
32.592125
26.40175
26.7695
27.284375
27.880625
28.581625
29.266125
30.091875
31.100125
32.20475
33.37725
34.56225
35.69375
36.766875
37.85675
38.805875
39.504375
40.342
40.994875
41.39525
41.695625
41.806625
41.879625
41.8135
41.709
41.633375
41.4745
41.50925
41.43575
41.262125
41.086875
40.789
40.457125
40.405375
40.29525
40.116875
39.8365
39.703
39.564125
39.267375
39.214875
39.234375
39.113
38.8695
38.652375
38.739125
38.6805
38.545125
38.462125
38.69725
38.5075
38.459
38.657125
38.44625
38.504125
38.7285
38.706125
38.5335
38.540375
38.56025
38.7115
38.73825
38.759
38.888125
38.9
39.001375
39.139375
39.37575
39.43875
39.58075
39.750375
40.020625
39.969625
40.204375
40.036125
40.117125
40.272375
40.6735
40.647875
40.678125
40.64675
40.67
40.800125
40.71975
40.965
40.936125
40.796375
40.46575
40.323625
40.054875
39.666875
39.29025
38.483625
37.580125
36.003
33.8285
26.753125
27.0125
27.43125
27.832125
28.25675
28.888
29.584625
30.339375
31.282375
32.210625
33.253125
34.5125
35.662
36.949625
38.078125
39.223
40.0865
40.764
41.60675
42.233875
42.746375
42.99125
43.215125
43.480625
43.571375
43.58075
43.295125
43.15275
43.187125
42.983625
42.787
42.618
42.479125
42.114625
42.086625
41.933875
41.6575
41.474
41.300625
41.05375
40.95225
40.86
40.654375
40.501875
40.45675
40.299125
40.345375
40.143875
40.114375
40.260625
40.172625
39.843125
39.831
39.897
39.994125
40.07775
40.1565
40.028625
40.0525
39.814875
39.9485
39.762875
40.088625
40.19225
40.255125
40.282125
40.38475
40.43625
40.51325
40.944625
40.93525
40.85425
41.1345
41.061875
40.917875
41.1645
41.419625
41.331375
41.786875
41.602875
41.579625
41.646
41.479
41.179625
41.363875
41.517875
41.341875
41.112
41.02925
40.69725
40.1025
39.420375
38.556625
37.2275
35.237125
26.69425
27.04125
27.38625
27.749
28.16675
28.652625
29.38
30.01075
30.676875
31.59475
32.543
33.515125
34.65775
35.85075
37.015375
38.180875
39.293375
40.421625
41.33525
42.09525
42.80525
43.58775
44.075625
44.461125
44.724875
45.055875
45.211625
45.326125
45.16325
45.06925
44.958625
44.752875
44.716125
44.494125
44.293375
44.115375
44.097125
43.75925
43.534375
43.409125
43.22275
42.97675
42.8495
42.753
42.46
42.264875
42.20875
42.04775
42.07975
42.11175
41.843125
41.678125
41.569375
41.609375
41.518
41.513875
41.54575
41.543375
41.637625
41.561625
41.57075
41.44925
41.303125
41.51725
41.614125
41.615375
41.4895
41.505875
41.85375
42.14875
41.984375
41.865
42.026625
41.9115
41.85475
41.96825
42.03675
42.332625
42.401625
42.33075
42.443625
42.393875
42.110875
42.4455
42.42825
42.323125
42.369375
42.136625
41.702
41.425625
41.269125
40.72625
39.76325
38.59175
37.037125
27.07675
27.37925
27.651375
28.0195
28.407125
28.786375
29.257
29.762125
30.386625
31.1005
31.879
32.770125
33.73125
34.730375
35.835625
36.85725
38.08975
39.28975
40.5085
41.623125
42.640375
43.3305
44.314625
44.984875
45.5855
45.9905
46.235625
46.437625
46.779625
46.862625
46.95875
46.937625
46.796375
46.70625
46.481875
46.393
46.265375
46.064875
45.885
45.6245
45.51475
45.2765
44.9475
44.8185
44.57525
44.453375
44.3415
44.05675
43.903125
43.89575
43.715375
43.65
43.504375
43.406625
43.168125
43.218125
43.465
43.300625
43.357625
43.181625
43.083125
43.084875
43.0325
42.86775
42.902
42.970875
43.089875
42.997375
43.065125
43.014875
43.39475
43.25675
43.336125
43.3895
43.515625
43.430375
43.345375
43.44175
43.49725
43.560875
43.446625
43.52025
43.558375
43.45275
43.375625
43.4425
43.32425
42.914
42.9655
42.678625
42.229875
41.75275
40.894375
39.686
38.292875
27.379125
27.665375
27.866125
28.17075
28.527375
28.90375
29.291
29.66625
30.1935
30.69275
31.4195
32.1475
32.971875
33.919375
34.927875
35.90125
37.176375
38.147
39.382625
40.812
42.0105
43.1575
44.07575
44.9165
45.61675
46.304
47.02525
47.504375
47.884125
48.222625
48.475375
48.7345
48.75375
48.886125
48.86925
48.707625
48.586125
48.403625
48.202375
48.08175
47.8885
47.583125
47.31625
47.23925
46.92075
46.673875
46.51525
46.326
46.145625
46.11675
45.82175
45.691375
45.736875
45.59175
45.477875
45.4115
45.266
45.17775
45.1255
45.155375
45.124875
44.79325
44.615
44.485
44.4195
44.52075
44.565125
44.703375
44.72425
44.55075
44.553875
44.7485
44.898375
44.99025
44.970125
44.852875
44.734875
44.768
44.74025
44.75975
44.895375
44.9065
44.8645
45.02725
44.859875
44.663
44.796625
44.624
44.280875
43.661875
43.482875
43.104
42.36375
41.43
40.338125
27.735125
27.958625
28.26375
28.378625
28.688875
28.971625
29.360125
29.7985
30.270125
30.757875
31.173875
31.784625
32.396125
33.196
34.138
35.06575
36.052625
37.222125
38.269625
39.436625
40.515875
41.775625
43.03625
44.216
45.43075
46.357875
47.20375
47.842625
48.5955
49.330875
49.693625
49.955875
50.24425
50.364125
50.470125
50.5785
50.556625
50.49525
50.275375
50.146
50.14675
49.979375
49.776375
49.538125
49.3745
49.099125
48.847625
48.777625
48.47825
48.3385
48.287875
48.101375
47.889875
47.697625
47.55625
47.365375
47.07675
47.006875
46.917375
46.987625
46.85775
46.764875
46.68375
46.558125
46.59175
46.484
46.406875
46.414375
46.309125
46.380125
46.4345
46.329375
46.35675
46.33
46.44475
46.4225
46.424
46.35075
46.314375
46.619375
46.435375
46.40425
46.400375
46.115375
46.19625
46.1695
46.0495
45.815
45.646
45.410375
45.147875
44.819375
43.96575
43.30775
42.121375
28.024625
28.312375
28.511125
28.813125
29.0865
29.3505
29.589875
29.876625
30.189375
30.469
31.056125
31.533875
32.221
32.857625
33.6275
34.3775
35.228375
36.10575
37.1195
38.160875
39.32075
40.595875
41.78525
43.051375
44.276875
45.4035
46.567625
47.581
48.353125
49.277875
50.013375
50.648125
51.23925
51.596375
51.7675
52.008125
52.442875
52.3635
52.36925
52.334875
52.207625
52.139125
52.207875
52.0175
51.97725
51.861875
51.44725
51.281125
51.042
50.725875
50.563
50.2285
50.00875
49.942125
49.959
49.848875
49.6985
49.456625
49.26475
48.913625
48.9835
48.847125
48.852125
48.583375
48.639125
48.4905
48.348
48.35675
48.27425
48.14925
48.2035
48.039125
48.306125
48.040625
48.209625
48.072
48.0825
48.06275
48.09575
48.19975
48.301375
48.047375
48.008125
47.9555
48.052875
47.87575
47.610125
47.28875
47.221375
46.941875
46.59875
46.2815
45.8465
45.180125
44.1805
28.325125
28.508375
28.771125
29.04075
29.300875
29.564375
29.806
30.186125
30.510375
30.837375
31.196
31.68925
32.061625
32.5645
33.181
33.841625
34.5665
35.460625
36.358875
37.372875
38.455625
39.476375
40.690125
41.957375
43.251125
44.5435
45.777625
46.828125
47.9395
48.89575
49.861875
50.75175
51.529875
52.290125
52.888625
53.4165
53.75275
54.11325
54.2895
54.35025
54.445125
54.404
54.206
54.30275
54.167125
54.0695
53.98475
53.64625
53.54925
53.33375
53.199625
53.0045
52.872
52.57
52.236
52.013375
52.001375
51.83175
51.715375
51.592625
51.414875
51.282375
51.178125
51.146875
50.829125
50.656625
50.6155
50.331125
50.417375
50.25675
50.142
50.37075
50.215375
50.136125
50.006
49.945375
50.162125
50.224125
49.97625
49.734875
49.766625
49.969
49.977125
49.72025
49.587875
49.458625
49.270875
49.225875
49.051125
48.62875
48.330875
47.879875
47.4255
46.895125
46.174375
28.670625
28.878625
29.065375
29.301875
29.491875
29.824625
30.095125
30.329125
30.69325
30.97725
31.33875
31.66025
32.11625
32.49875
33.009125
33.56075
34.2125
34.847875
35.65925
36.532375
37.394
38.44325
39.529375
40.6375
41.786125
43.034
44.3635
45.776625
47.05775
48.20025
49.411875
50.609625
51.728375
52.55425
53.3195
53.86175
54.450875
55.27175
55.70525
55.940875
56.168125
56.310875
56.35725
56.296
56.4655
56.414125
56.302375
56.187625
55.992125
55.9225
55.806875
55.679
55.441875
55.073375
54.886
54.7185
54.642875
54.54825
54.257375
54.173375
53.9835
53.775375
53.81075
53.554375
53.47675
53.1735
53.011625
52.765
52.60525
52.565625
52.60975
52.516
52.531375
52.214125
52.139625
52.098
51.918375
51.952
52.112375
51.889625
51.753
51.765375
51.439125
51.35275
51.452875
51.5205
51.458125
51.20025
50.695875
50.434125
50.13075
49.79325
49.626
48.952
48.167625
28.938375
29.137
29.360875
29.641875
29.96075
30.1335
30.431375
30.69425
30.940125
31.319
31.6005
31.93625
32.215625
32.622625
33.036625
33.441625
34.013875
34.617125
35.194375
35.90725
36.763
37.665375
38.550125
39.60925
40.750375
41.97225
43.28325
44.414875
45.841625
47.124125
48.442125
49.50525
50.759875
52.06275
53.046125
54.207375
55.02375
55.58525
56.377
57.105875
57.636625
57.862625
58.288875
58.443625
58.581625
58.652125
58.648
58.699625
58.575
58.3865
58.183
58.0935
57.954
58.006
57.838
57.593125
57.331125
57.056375
56.909625
56.857375
56.715625
56.398
56.28225
55.975625
55.828125
55.719625
55.71525
55.40325
55.10475
54.85975
54.79325
54.54625
54.616875
54.523625
54.45925
54.30925
54.3065
54.09625
53.875375
53.874125
53.9875
53.9
53.840875
53.5805
53.586
53.352375
53.400875
53.153875
52.918625
52.671625
52.275875
51.766125
51.40125
50.85975
50.136
29.311625
29.532625
29.780375
29.957375
30.1515
30.45125
30.666
30.895875
31.192875
31.415
31.782625
32.07625
32.39875
32.811875
33.21975
33.588
34.117375
34.56875
35.1335
35.76325
36.3445
37.0365
37.822125
38.755375
39.72575
40.729625
41.90525
43.11775
44.42775
45.645375
47.084125
48.521625
49.8075
50.92525
52.3545
53.518375
54.643375
55.634875
56.640875
57.456
58.276125
58.85975
59.375125
59.816875
60.046875
60.402375
60.555125
60.61875
60.821625
60.804
60.817875
60.729875
60.71225
60.591
60.512625
60.473125
60.413125
60.147
59.802625
59.5335
59.385125
59.2075
59.047875
58.98475
58.635625
58.50125
58.11725
57.706875
57.788
57.7255
57.484125
57.29375
57.125
56.965625
56.844
56.821375
56.869625
56.684
56.520125
56.58025
56.3265
56.26725
56.169625
56.102125
55.702625
55.55275
55.5345
55.4115
55.112375
54.795875
54.550625
54.25825
53.852375
53.04275
52.527625
29.595375
29.8525
30.09725
30.2785
30.502625
30.72225
30.912625
31.26175
31.4695
31.754125
31.991375
32.35625
32.71825
33.0695
33.511375
33.735125
34.094625
34.60325
34.985
35.54075
36.102125
36.64875
37.474125
38.054125
38.826625
39.63575
40.632
41.762625
42.94575
44.240125
45.5075
46.866625
48.2305
49.779375
51.101375
52.48025
53.995125
55.053875
56.101125
57.21375
58.18225
59.15725
59.8805
60.514875
61.345
61.775875
62.061375
62.5495
62.669375
62.87125
63.122
63.181
63.134375
62.982875
63.001125
62.84025
62.73025
62.635375
62.60425
62.360625
62.31
62.059
61.829375
61.70725
61.42175
61.30375
61.18425
61.013875
60.838875
60.483
60.452625
60.38375
59.995625
59.951625
59.778
59.665875
59.497875
59.232875
59.0255
58.820625
58.91925
58.750625
58.70425
58.20275
58.20275
58.056375
58.038375
57.63525
57.5785
57.24575
57.086
56.534875
55.89225
55.607875
55.02075
29.99475
30.19275
30.4385
30.672875
30.892
31.098125
31.35925
31.545125
31.8495
32.14025
32.43875
32.691
32.958125
33.232875
33.5415
33.98925
34.44725
34.72925
35.06425
35.49925
35.9025
36.47
36.93975
37.696375
38.48375
39.261375
40.155
41.00375
41.904625
43.000125
44.275125
45.397875
46.808375
48.045125
49.49075
50.974375
52.347
53.926125
55.344
56.637375
57.697625
58.881125
60.019
60.8875
61.774875
62.677125
63.369625
63.87525
64.412
64.777625
64.989625
65.1095
65.185875
65.320875
65.357125
65.35425
65.229
65.294125
65.2675
65.1615
64.878625
64.84925
64.4745
64.188875
64.063875
63.94475
63.9875
63.902875
63.68025
63.6625
63.311375
63.36625
63.252625
63.009125
62.80675
62.370375
62.169625
62.21575
61.948625
61.76775
61.43225
61.278875
61.153
61.11175
60.7115
60.3445
60.221875
60.276125
60.019375
59.661125
59.501375
59.21475
58.622125
58.055875
57.53475
30.25
30.549375
30.758875
31.022875
31.213875
31.471125
31.766125
31.95475
32.265
32.461625
32.731625
32.944375
33.18625
33.51575
33.76625
34.037625
34.308125
34.702875
35.099
35.508375
36.017125
36.437375
36.890875
37.42175
37.943
38.64175
39.377
40.176625
41.1395
42.145
43.05175
44.214375
45.296125
46.570375
47.96775
49.345875
50.7035
52.20175
53.706125
55.174
56.80375
58.127375
59.298
60.5855
61.664875
62.711
63.6265
64.411125
65.107875
65.759875
66.215625
66.62375
67.136875
67.281125
67.415
67.506125
67.649125
67.55875
67.534125
67.4725
67.4875
67.3305
67.376
67.272375
67.200375
66.9355
66.69875
66.56425
66.46975
66.21775
66.194125
66.068
65.968375
65.772125
65.48925
65.348375
65.136
64.971
64.9905
64.715125
64.38925
64.039375
63.90675
63.962625
63.779375
63.33525
63.25425
62.915625
62.768375
62.579875
62.227125
62.047875
61.565875
61.09125
60.66825
30.835
31.02225
31.33575
31.52275
31.861
32.00175
32.230625
32.41825
32.625375
32.86275
33.11175
33.357125
33.590625
33.9055
34.188375
34.50675
34.904125
35.12625
35.447875
35.75475
36.0825
36.580375
37.0005
37.458625
38.011125
38.478125
39.13225
39.734
40.357625
41.223125
42.133625
43.170375
44.1545
45.36925
46.636
47.788
49.243
50.520875
52.078875
53.576125
55.059875
56.729
58.2305
59.730375
61.086875
62.127625
63.286875
64.3985
65.33425
66.316375
67.15675
67.877
68.431375
68.922
69.242375
69.64325
69.73925
69.95475
70.139
70.148
70.1085
70.12175
70.200625
70.124375
69.983875
69.902125
69.680375
69.458625
69.360875
69.2545
69.083125
68.87025
68.6465
68.614625
68.536375
68.3125
68.19975
67.8695
67.634
67.84175
67.391875
67.402375
67.098375
66.840125
66.81175
66.631
66.363
66.149875
65.71425
65.548
65.130125
64.855875
64.622375
64.118375
63.57175
30.974
31.244125
31.50175
31.694625
31.871625
32.15825
32.41225
32.774375
32.982
33.290875
33.58725
33.81475
34.041625
34.24
34.498625
34.77425
35.01025
35.331375
35.62225
36.006875
36.314625
36.7265
37.129125
37.527375
38.013
38.500875
38.9855
39.570875
40.186125
40.7695
41.521375
42.3175
43.2185
44.12925
45.1625
46.401
47.76175
49.163375
50.583125
51.956875
53.491125
54.984375
56.525125
58.05375
59.675125
61.247375
62.720125
63.96725
65.291625
66.275375
67.2665
68.16375
68.9535
69.802125
70.44825
70.995125
71.30025
71.707125
72.210625
72.268375
72.471375
72.61575
72.806625
72.85175
72.841375
72.840125
72.809625
72.51575
72.340875
72.017875
71.90475
71.935125
71.94125
71.5735
71.40875
71.35
71.119625
70.90525
70.73825
70.6035
70.55475
70.301125
70.254125
70.1215
70.01125
69.850125
69.543375
69.290375
68.94375
68.501375
68.2535
68.05475
67.85675
67.581375
66.974125
31.56625
31.789
32.015875
32.237875
32.526
32.79525
32.997625
33.273875
33.46375
33.576375
33.885625
34.162125
34.408125
34.6725
34.971125
35.209125
35.5285
35.806125
36.09325
36.441
36.782875
37.136625
37.51175
37.828
38.133
38.5575
39.08125
39.51275
40.069875
40.65025
41.2055
42.01075
42.695125
43.62175
44.46025
45.4555
46.433625
47.64475
48.85875
50.25775
51.777125
53.331625
54.867625
56.449125
58.0465
59.60075
61.1515
62.879375
64.23825
65.64025
67.03475
68.058875
69.217625
70.1255
71.01775
71.86575
72.5095
73.20475
73.669375
74.22225
74.578
74.719125
74.900375
75.0785
75.277375
75.34025
75.41775
75.513625
75.34975
75.33125
75.14275
74.8745
74.615375
74.71075
74.7635
74.4975
74.293
74.235125
74.06575
73.563
73.415875
73.390375
73.282125
73.178375
72.856875
72.65575
72.535
72.268625
72.103875
71.938625
71.71925
71.356625
70.86025
70.49875
70.083625
31.83025
32.04025
32.25675
32.442375
32.71475
33.00475
33.176625
33.477
33.761625
33.999875
34.223125
34.537375
34.8245
35.15875
35.373
35.61325
35.93025
36.2315
36.64625
36.904125
37.11875
37.435625
37.764875
38.1555
38.49775
38.881375
39.274875
39.694875
40.27
40.796625
41.22325
41.864125
42.58625
43.263125
43.99575
44.877375
45.813375
46.775
47.8325
49.005375
50.214625
51.49025
52.90475
54.478625
56.064375
57.742625
59.4825
61.095375
62.72375
64.222375
65.78425
67.434875
68.8295
70.145625
71.350875
72.396125
73.30875
74.079375
74.823375
75.398625
76.015
76.447125
76.829875
76.97625
77.16875
77.374875
77.66325
77.8915
78.121875
77.8075
77.862875
77.745875
77.675375
77.468125
77.38975
77.455875
77.56925
77.340375
77.100875
77.253625
76.962625
76.879
76.574125
76.414375
76.188
75.925375
75.76175
75.6575
75.297625
74.853375
74.63825
74.241625
74.0345
73.733625
73.24425
32.184
32.434375
32.682625
32.90725
33.17675
33.41525
33.62775
33.8895
34.0925
34.343875
34.644875
34.9185
35.2275
35.48675
35.74425
36.06175
36.318625
36.58475
36.764625
37.091
37.4615
37.8455
38.127375
38.497875
38.911625
39.226375
39.696625
40.02575
40.29
40.85075
41.34975
41.92825
42.40025
43.026375
43.661625
44.360625
45.159125
46.0105
46.92475
47.927125
48.961125
50.17575
51.44875
52.844625
54.29825
55.80075
57.37725
59.16775
60.927125
62.790875
64.519875
66.091625
67.63125
69.185875
70.526125
71.852625
73.057125
74.153375
75.218
76.283375
77.108125
77.862875
78.53275
79.047
79.419375
79.709625
80.024625
80.124
80.233
80.507875
80.45075
80.392875
80.443
80.3945
80.244625
80.31275
80.386375
80.322875
80.459
80.20775
80.175
79.97475
79.848875
79.721
79.6195
79.5105
79.1635
78.99
78.8995
78.6545
78.29025
77.966875
77.5525
77.168625
76.9715
32.48025
32.701875
32.940625
33.157
33.4585
33.678875
34.01525
34.327375
34.48675
34.839125
35.03475
35.31975
35.47225
35.807375
36.1425
36.46775
36.6815
36.92725
37.27175
37.519125
37.7465
38.111
38.35325
38.747125
39.096375
39.352125
39.804125
40.167625
40.61275
40.9815
41.405875
41.817
42.254375
42.785
43.434125
43.97875
44.71325
45.48725
46.280875
47.279625
48.232375
49.1585
50.34825
51.495125
52.765375
54.319125
55.629625
57.094375
58.748375
60.484
62.31675
64.1345
65.856375
67.489625
69.322375
70.996
72.486125
73.987
75.256375
76.479125
77.492125
78.448125
79.31275
80.01125
80.71075
81.305875
81.62025
81.991375
82.32725
82.7445
83.14975
83.328875
83.36625
83.492125
83.473125
83.159125
83.110875
83.175875
83.278
83.462875
83.17175
82.914375
82.833875
82.721125
82.7215
82.45525
82.21925
82.21725
82.022
81.97475
81.870125
81.752125
81.255125
80.711625
80.2145
32.890625
33.162875
33.43375
33.7275
33.9785
34.205375
34.389625
34.665
35.016
35.265125
35.53375
35.798625
36.028375
36.3145
36.5155
36.707
37.064375
37.367375
37.644625
37.89575
38.2265
38.507875
38.834125
39.0895
39.4285
39.767
40.026875
40.371625
40.815
41.194625
41.596375
41.96
42.4185
42.96725
43.465125
44.0525
44.582625
45.090125
45.809625
46.605125
47.406625
48.355
49.286875
50.5005
51.5485
52.827125
54.1795
55.69025
57.209125
58.762125
60.418375
62.133625
63.9965
65.845875
67.515125
69.231875
71.047875
72.775625
74.229625
75.508875
76.777375
78.115
79.422125
80.612625
81.548
82.420625
83.110125
83.719625
84.195875
84.581375
84.736625
85.231125
85.74775
86.027375
86.26475
86.517125
86.5355
86.42175
86.1615
86.182875
86.0895
86.271625
86.200625
86.07425
85.777375
85.89625
85.891125
85.508
85.293
85.13525
84.9515
84.592
84.473375
84.275125
83.9165
33.374875
33.625625
33.7955
34.166
34.35625
34.60775
34.90125
35.037125
35.296625
35.471875
35.77975
36.06975
36.32925
36.514125
36.824375
37.156
37.441625
37.759875
38.146375
38.501
38.807125
39.053375
39.415
39.658
39.902625
40.23625
40.62975
40.949125
41.335875
41.63475
42.071875
42.477625
42.95525
43.293125
43.7315
44.1185
44.604
45.2505
45.856125
46.44625
47.109
47.877875
48.796125
49.778
50.675875
51.704875
52.863125
54.1125
55.37175
56.953875
58.469375
60.102875
61.764375
63.534125
65.499
67.35875
69.077375
70.87375
72.794625
74.74675
76.361125
77.889875
79.141
80.36525
81.575375
82.62525
83.978375
84.777375
85.657875
86.29325
86.9945
87.62825
87.803875
88.069875
88.426875
88.600875
88.983375
89.02375
89.093375
89.113375
89.271375
89.384
89.24425
89.262
89.262125
88.931375
88.78125
88.696375
88.787125
88.761625
88.5055
88.40975
88.17775
88.054875
87.85325
33.734
33.96825
34.157125
34.402625
34.707625
34.96425
35.230375
35.517875
35.832375
36.10975
36.34775
36.665875
36.822625
37.233875
37.523375
37.8105
38.0345
38.302375
38.565875
38.851
39.0985
39.40575
39.726625
40.056375
40.39775
40.68525
41.003625
41.315875
41.6965
41.969875
42.366375
42.673375
42.982125
43.50475
43.8545
44.408
44.88225
45.333
45.849375
46.376625
46.988125
47.55325
48.18625
48.938875
49.894
50.766375
51.95075
53.00075
54.188
55.37775
56.769125
58.28175
59.9765
61.709
63.411125
65.157
67.028625
69.062875
70.720375
72.64625
74.633125
76.436
78.113625
79.67925
81.172125
82.626625
83.69275
84.900875
86.114375
87.13225
88.05
88.65125
89.464125
90.128875
90.50775
90.830625
91.089
91.552625
91.77425
91.99925
92.1235
92.117125
92.131625
92.02025
92.104625
92.27525
92.287
92.296
92.0555
91.94075
91.8915
91.840125
91.641375
91.47725
91.170875
34.23775
34.4275
34.6495
34.908625
35.22475
35.357875
35.577625
35.798125
36.062125
36.425375
36.65575
36.96575
37.31
37.583125
37.865
38.108
38.48925
38.705125
38.996
39.285625
39.5905
39.81425
40.125625
40.411875
40.718125
41.034875
41.30725
41.666125
42.02825
42.28025
42.617375
43.01
43.333875
43.714375
44.03725
44.416875