/*--------------------------------*- C++ -*----------------------------------*\
| =========                 |                                                 |
| \\      /  F ield         | OpenFOAM: The Open Source CFD Toolbox           |
|  \\    /   O peration     | Version:  v1706                                 |
|   \\  /    A nd           | Web:      www.OpenFOAM.com                      |
|    \\/     M anipulation  |                                                 |
\*---------------------------------------------------------------------------*/
FoamFile
{
    version     2.0;
    format      ascii;
    class       volVectorField;
    location    "0.04";
    object      fD_N2cold;
}
// * * * * * * * * * * * * * * * * * * * * * * * * * * * * * * * * * * * * * //

dimensions      [1 -1 -2 0 0 0 0];


internalField   uniform (0 0 0);

boundaryField
{
    plate
    {
        type            calculated;
        value           nonuniform List<vector> 
95
(
(0.8226090096 -0.6546885469 0.003262647999)
(0.8482797827 -0.7467526948 -0.005751981354)
(0.8302658508 -0.7942214842 0.004706795396)
(0.8297625488 -0.8278695433 -0.002626575554)
(0.8269935726 -0.8675074632 -0.003754017462)
(0.7971234604 -0.8781269419 -0.0005310793799)
(0.7691798174 -0.8798981572 0.000901953128)
(0.7598822707 -0.9032597231 0.004188739993)
(0.7293773287 -0.9040700179 0.002064773239)
(0.7166887666 -0.9070582693 -0.003108703541)
(0.6991596928 -0.9192487696 0.0008505519482)
(0.6871431394 -0.91782852 0.0009127849865)
(0.6542451583 -0.906941348 0.001222207833)
(0.6370466302 -0.9143190985 0.005356154654)
(0.6271092595 -0.9078655425 0.0001818697885)
(0.6181878761 -0.9272818686 0.002225512256)
(0.5988624739 -0.9150231592 0.0008054894561)
(0.5875777553 -0.9102572543 0.0005125058813)
(0.5588972678 -0.8970653996 -0.002833530868)
(0.5554956191 -0.9066858096 -0.0006545561717)
(0.5419186949 -0.9001925724 -0.003001768034)
(0.5346534253 -0.9087518297 0.002486218871)
(0.5221087526 -0.8955245519 0.0004287771625)
(0.5043882459 -0.8982544832 -0.002809557707)
(0.5033283611 -0.8920574096 0.001674328274)
(0.4894985355 -0.8881803457 7.093888227e-05)
(0.4733692485 -0.8857703991 0.004145905559)
(0.4661655704 -0.8703677033 0.004011237815)
(0.4622228708 -0.8725991634 0.002738178324)
(0.4498653096 -0.8643395841 0.003298983554)
(0.436880549 -0.8620202119 -0.00230733598)
(0.4277409952 -0.8669093495 -0.001575686736)
(0.4222717574 -0.8641309344 0.003270660373)
(0.4156555156 -0.8508533295 -0.002755705117)
(0.4086086321 -0.8463025574 -0.003936537987)
(0.408866759 -0.8467635632 -0.000241139862)
(0.3924369862 -0.8389842135 -0.003727636497)
(0.3979299206 -0.8510975995 -0.003646339976)
(0.3839529033 -0.8414190552 0.005174352407)
(0.3694726452 -0.8284241176 -0.0006422298551)
(0.3776671472 -0.8340470563 0.003163353886)
(0.3716135001 -0.83604295 -0.001956526084)
(0.3650642712 -0.8245260536 -0.0006614999088)
(0.3503196383 -0.821304511 -0.001809619018)
(0.3549449946 -0.8154514965 0.003630225498)
(0.3414706931 -0.8138214519 -0.00199751095)
(0.3372857337 -0.8094863797 0.0005189238619)
(0.3377040646 -0.8144963976 -2.608690447e-05)
(0.3364032036 -0.8082012831 -0.001632869765)
(0.3205543072 -0.8013481809 -0.002301049272)
(0.3147176869 -0.7973970746 0.005392992639)
(0.3240403405 -0.8031614758 0.0004279051112)
(0.3154643968 -0.7981585643 0.002834269493)
(0.3082099331 -0.7894474357 0.003461285415)
(0.3096763877 -0.7936553016 -0.001384085059)
(0.2979719474 -0.7924991865 0.002171081732)
(0.2991163885 -0.7790218889 0.0003874333681)
(0.2957443617 -0.7892314751 -0.001119830196)
(0.2864092544 -0.7681725243 0.002818237329)
(0.2892558086 -0.7831034182 0.002975350075)
(0.2859702068 -0.7796932593 -0.002260177809)
(0.2851799655 -0.7740989042 0.0001546667036)
(0.2788021734 -0.7700942001 -0.001145159963)
(0.279581362 -0.7689807802 0.003114865085)
(0.2782904552 -0.769426557 -0.001535774328)
(0.2661139726 -0.7592637114 -0.005179165606)
(0.2645265527 -0.7660078226 -0.002244272449)
(0.2640923365 -0.7599116643 -0.003673030733)
(0.2638292831 -0.7734333204 0.0001516445883)
(0.2542046432 -0.7498885444 0.001867810247)
(0.2536262637 -0.7493790199 0.003099466327)
(0.2558207267 -0.7509358452 -0.00109095622)
(0.2510284249 -0.7496243434 -0.002915388449)
(0.2486725917 -0.7462161907 0.004157294216)
(0.2469041036 -0.7456359307 0.0003497256162)
(0.2435909514 -0.7398850282 0.002429676672)
(0.2431204622 -0.7341254214 0.0005430365043)
(0.2362236588 -0.729561855 -0.00226976108)
(0.2347147755 -0.7251871707 -0.0003393580295)
(0.2365313069 -0.7156134385 0.004282873194)
(0.2303657164 -0.7114206038 0.003263219082)
(0.2350398808 -0.7129289888 0.006361979331)
(0.2337665454 -0.7133445992 0.001553635342)
(0.2282562321 -0.7013864101 0.003214068877)
(0.2320474147 -0.6984046573 0.001617126549)
(0.2276557226 -0.6840537294 0.004454250897)
(0.2291554772 -0.6865979423 -0.00301358775)
(0.2246714838 -0.6607946905 0.002663023798)
(0.2297445733 -0.6494806908 -0.001825189081)
(0.2391775736 -0.6440149893 -0.0004573151222)
(0.2331470855 -0.6191849498 -0.003630979243)
(0.2368580998 -0.5976279695 0.001543651573)
(0.2417331405 -0.5710842641 -0.003647844502)
(0.2479228053 -0.5260900747 -1.326052651e-05)
(0.2578247694 -0.4803772856 0.00400607102)
)
;
    }
    inlet
    {
        type            calculated;
        value           uniform (0 0 0);
    }
    defaultFaces
    {
        type            calculated;
        value           nonuniform List<vector> 
12000
(
(0 0 -0.4159410135)
(0 0 -0.4153302009)
(0 0 -0.4137887524)
(0 0 -0.4141957852)
(0 0 -0.4153790505)
(0 0 -0.4129266944)
(0 0 -0.4180656767)
(0 0 -0.4147864109)
(0 0 -0.4129980758)
(0 0 -0.414643493)
(0 0 -0.4155981818)
(0 0 -0.4162056952)
(0 0 -0.4143899585)
(0 0 -0.4170958872)
(0 0 -0.4151285479)
(0 0 -0.4144550943)
(0 0 -0.41474654)
(0 0 -0.4156588656)
(0 0 -0.4145241906)
(0 0 -0.4149313621)
(0 0 -0.4125853599)
(0 0 -0.4127048095)
(0 0 -0.4136674717)
(0 0 -0.4130897536)
(0 0 -0.4142404713)
(0 0 -0.4131944953)
(0 0 -0.413245787)
(0 0 -0.413484817)
(0 0 -0.4175901389)
(0 0 -0.4142667589)
(0 0 -0.4153292955)
(0 0 -0.4150131326)
(0 0 -0.414723617)
(0 0 -0.4129282822)
(0 0 -0.4146230486)
(0 0 -0.4139357056)
(0 0 -0.4129026966)
(0 0 -0.4142530409)
(0 0 -0.4153345455)
(0 0 -0.4140690038)
(0 0 -0.415037231)
(0 0 -0.4129206071)
(0 0 -0.4150789114)
(0 0 -0.4148671378)
(0 0 -0.4132168889)
(0 0 -0.4142540237)
(0 0 -0.4156014115)
(0 0 -0.4146201475)
(0 0 -0.4160405793)
(0 0 -0.4147708469)
(0 0 -0.4119522808)
(0 0 -0.413044742)
(0 0 -0.4130538414)
(0 0 -0.4155930253)
(0 0 -0.4126151739)
(0 0 -0.4160418679)
(0 0 -0.4163058949)
(0 0 -0.4134540907)
(0 0 -0.4154261976)
(0 0 -0.413478867)
(0 0 -0.4177903535)
(0 0 -0.4195461575)
(0 0 -0.4182071731)
(0 0 -0.4179637833)
(0 0 -0.4192285204)
(0 0 -0.4137120442)
(0 0 -0.4196464843)
(0 0 -0.4157582302)
(0 0 -0.4164832179)
(0 0 -0.4145809094)
(0 0 -0.4168138444)
(0 0 -0.4156261178)
(0 0 -0.4147332058)
(0 0 -0.4151338254)
(0 0 -0.416120787)
(0 0 -0.4140435934)
(0 0 -0.4143792538)
(0 0 -0.4173050148)
(0 0 -0.415044901)
(0 0 -0.4142898281)
(0 0 -0.4126591672)
(0 0 -0.414781695)
(0 0 -0.4143676131)
(0 0 -0.4103926976)
(0 0 -0.4134273037)
(0 0 -0.4139637952)
(0 0 -0.4131941619)
(0 0 -0.413521467)
(0 0 -0.4166834825)
(0 0 -0.4130493189)
(0 0 -0.4172271823)
(0 0 -0.4152128198)
(0 0 -0.4135150945)
(0 0 -0.4145546933)
(0 0 -0.4151391926)
(0 0 -0.4157882197)
(0 0 -0.4120846077)
(0 0 -0.4150789372)
(0 0 -0.4166362578)
(0 0 -0.4140831743)
(0 0 -0.4148235487)
(0 0 -0.4151101065)
(0 0 -0.4145954248)
(0 0 -0.4158195691)
(0 0 -0.4145018337)
(0 0 -0.4153997922)
(0 0 -0.4162680197)
(0 0 -0.4150393453)
(0 0 -0.4165684962)
(0 0 -0.4155403237)
(0 0 -0.4130331935)
(0 0 -0.4144649556)
(0 0 -0.4138490369)
(0 0 -0.4152228483)
(0 0 -0.4136793636)
(0 0 -0.4171812362)
(0 0 -0.4153889439)
(0 0 -0.4141463319)
(0 0 -0.4145613817)
(0 0 -0.4147160086)
(0 0 -0.4237985945)
(0 0 -0.4278943451)
(0 0 -0.4303401354)
(0 0 -0.4275450499)
(0 0 -0.4243727813)
(0 0 -0.4206332758)
(0 0 -0.4236603607)
(0 0 -0.4193955213)
(0 0 -0.4203379848)
(0 0 -0.4194751355)
(0 0 -0.4176945858)
(0 0 -0.4183473777)
(0 0 -0.4136166052)
(0 0 -0.4174271734)
(0 0 -0.4180230244)
(0 0 -0.4120023862)
(0 0 -0.4147302323)
(0 0 -0.4174192772)
(0 0 -0.4161452388)
(0 0 -0.4136121552)
(0 0 -0.4119352721)
(0 0 -0.4145128966)
(0 0 -0.4157795349)
(0 0 -0.4122663439)
(0 0 -0.4128361401)
(0 0 -0.4146136658)
(0 0 -0.4123467454)
(0 0 -0.4138087567)
(0 0 -0.4164814643)
(0 0 -0.4122257549)
(0 0 -0.4167549823)
(0 0 -0.4138746877)
(0 0 -0.4138223588)
(0 0 -0.4149772128)
(0 0 -0.4152640011)
(0 0 -0.4152321771)
(0 0 -0.4123355253)
(0 0 -0.4137968452)
(0 0 -0.4164658067)
(0 0 -0.4144553102)
(0 0 -0.4138950047)
(0 0 -0.4153117544)
(0 0 -0.4132398353)
(0 0 -0.4164042508)
(0 0 -0.4142030614)
(0 0 -0.4129891847)
(0 0 -0.4178040455)
(0 0 -0.4138779472)
(0 0 -0.4165884989)
(0 0 -0.4161404489)
(0 0 -0.4124776925)
(0 0 -0.4133991804)
(0 0 -0.4149016641)
(0 0 -0.4151613372)
(0 0 -0.4132957322)
(0 0 -0.4171200662)
(0 0 -0.4161692253)
(0 0 -0.4137454547)
(0 0 -0.415222118)
(0 0 -0.415959857)
(0 0 -0.4436653987)
(0 0 -0.4579107992)
(0 0 -0.4544938011)
(0 0 -0.4484472387)
(0 0 -0.4375932209)
(0 0 -0.4325764812)
(0 0 -0.4282941333)
(0 0 -0.4246883515)
(0 0 -0.4225104245)
(0 0 -0.4234534993)
(0 0 -0.4185949241)
(0 0 -0.4195251063)
(0 0 -0.4150564513)
(0 0 -0.4176370829)
(0 0 -0.4156897858)
(0 0 -0.4122948757)
(0 0 -0.417208651)
(0 0 -0.4178942712)
(0 0 -0.413912207)
(0 0 -0.4137740323)
(0 0 -0.4128552608)
(0 0 -0.4125816246)
(0 0 -0.416945468)
(0 0 -0.4136032968)
(0 0 -0.4105196657)
(0 0 -0.414745597)
(0 0 -0.4152979475)
(0 0 -0.4132809229)
(0 0 -0.4173605211)
(0 0 -0.4146123382)
(0 0 -0.4165303282)
(0 0 -0.4139448449)
(0 0 -0.4125903242)
(0 0 -0.4157677189)
(0 0 -0.4153944566)
(0 0 -0.4148157124)
(0 0 -0.412751293)
(0 0 -0.4146427169)
(0 0 -0.415804101)
(0 0 -0.4156949077)
(0 0 -0.4132942691)
(0 0 -0.4159211225)
(0 0 -0.412566101)
(0 0 -0.4150373447)
(0 0 -0.4156478435)
(0 0 -0.4136692036)
(0 0 -0.4171766852)
(0 0 -0.4142066098)
(0 0 -0.4168550909)
(0 0 -0.4149146175)
(0 0 -0.4136300934)
(0 0 -0.4141317574)
(0 0 -0.4141405206)
(0 0 -0.4148738278)
(0 0 -0.4127783311)
(0 0 -0.417476516)
(0 0 -0.415002262)
(0 0 -0.4140440266)
(0 0 -0.4148539434)
(0 0 -0.4160035999)
(0 0 -0.528308317)
(0 0 -0.5307109967)
(0 0 -0.5030963524)
(0 0 -0.4774343789)
(0 0 -0.4601175584)
(0 0 -0.447190381)
(0 0 -0.4358821816)
(0 0 -0.431887114)
(0 0 -0.4264735406)
(0 0 -0.4246917016)
(0 0 -0.4221785582)
(0 0 -0.4198036906)
(0 0 -0.4166544226)
(0 0 -0.4193671587)
(0 0 -0.4156240163)
(0 0 -0.4133840993)
(0 0 -0.4168892866)
(0 0 -0.4162830144)
(0 0 -0.4138439193)
(0 0 -0.4150273018)
(0 0 -0.411872507)
(0 0 -0.4139269762)
(0 0 -0.4167688485)
(0 0 -0.4144997336)
(0 0 -0.4105136106)
(0 0 -0.4126050397)
(0 0 -0.416577099)
(0 0 -0.4124170579)
(0 0 -0.4150341215)
(0 0 -0.4138942678)
(0 0 -0.4156063005)
(0 0 -0.4160042915)
(0 0 -0.4121679674)
(0 0 -0.4156082604)
(0 0 -0.4158028737)
(0 0 -0.4130574302)
(0 0 -0.4141231274)
(0 0 -0.414806674)
(0 0 -0.4161823731)
(0 0 -0.4155809113)
(0 0 -0.4134897895)
(0 0 -0.413204535)
(0 0 -0.4130222077)
(0 0 -0.4152773125)
(0 0 -0.4163459299)
(0 0 -0.4133866469)
(0 0 -0.4151818932)
(0 0 -0.4143448573)
(0 0 -0.4156112579)
(0 0 -0.4141204463)
(0 0 -0.4135179069)
(0 0 -0.4139868116)
(0 0 -0.4146088169)
(0 0 -0.4139016502)
(0 0 -0.4135048277)
(0 0 -0.4169180511)
(0 0 -0.4141875329)
(0 0 -0.4138119075)
(0 0 -0.4148812963)
(0 0 -0.4164462178)
(0 0 0.4146174431)
(0 0 0.4155770055)
(0 0 0.4133729319)
(0 0 0.4142584536)
(0 0 0.4155607295)
(0 0 0.4120298753)
(0 0 0.4171360416)
(0 0 0.4152572364)
(0 0 0.4130665622)
(0 0 0.4142696125)
(0 0 0.4158551098)
(0 0 0.4156559037)
(0 0 0.413313311)
(0 0 0.4166279176)
(0 0 0.4154737947)
(0 0 0.4147386599)
(0 0 0.4144449752)
(0 0 0.4167131721)
(0 0 0.4149542983)
(0 0 0.415240841)
(0 0 0.4134735144)
(0 0 0.4129597584)
(0 0 0.4136402828)
(0 0 0.4116741443)
(0 0 0.4145319702)
(0 0 0.4131131479)
(0 0 0.4140796519)
(0 0 0.4140140347)
(0 0 0.4167444874)
(0 0 0.4136651996)
(0 0 0.4154635896)
(0 0 0.415304342)
(0 0 0.414183067)
(0 0 0.412538322)
(0 0 0.4148707017)
(0 0 0.4138308376)
(0 0 0.4126963597)
(0 0 0.4149464981)
(0 0 0.4156022786)
(0 0 0.4133032687)
(0 0 0.4151863454)
(0 0 0.4133254215)
(0 0 0.4148727853)
(0 0 0.4145373678)
(0 0 0.4140978155)
(0 0 0.4145510284)
(0 0 0.4161961379)
(0 0 0.4146530376)
(0 0 0.4158600593)
(0 0 0.414693722)
(0 0 0.4124617739)
(0 0 0.4135791635)
(0 0 0.4131343465)
(0 0 0.414997046)
(0 0 0.4133570762)
(0 0 0.4169424177)
(0 0 0.4157601517)
(0 0 0.4135896986)
(0 0 0.4152306258)
(0 0 0.4134960884)
(0 0 0.4190379298)
(0 0 0.4194080559)
(0 0 0.4184218326)
(0 0 0.4175709541)
(0 0 0.4187341067)
(0 0 0.4152263689)
(0 0 0.4200935734)
(0 0 0.4156650006)
(0 0 0.4169008434)
(0 0 0.4146808848)
(0 0 0.4176636717)
(0 0 0.4158357294)
(0 0 0.4156149946)
(0 0 0.4156467872)
(0 0 0.4159583129)
(0 0 0.4136369627)
(0 0 0.4152224286)
(0 0 0.4166235655)
(0 0 0.4164573075)
(0 0 0.4139284144)
(0 0 0.4123543985)
(0 0 0.413687152)
(0 0 0.4146470346)
(0 0 0.4119884888)
(0 0 0.4131509187)
(0 0 0.4142275831)
(0 0 0.4127677987)
(0 0 0.4138355231)
(0 0 0.4165910444)
(0 0 0.4138140214)
(0 0 0.4172985401)
(0 0 0.4151723385)
(0 0 0.4134998749)
(0 0 0.4138569935)
(0 0 0.4151971058)
(0 0 0.4153990426)
(0 0 0.4118469879)
(0 0 0.4138440516)
(0 0 0.4158157314)
(0 0 0.4149467335)
(0 0 0.4144549143)
(0 0 0.4148894154)
(0 0 0.4138689957)
(0 0 0.4161893501)
(0 0 0.4137293958)
(0 0 0.4142954976)
(0 0 0.4155623592)
(0 0 0.4149250805)
(0 0 0.4163674399)
(0 0 0.4162358598)
(0 0 0.4123332683)
(0 0 0.4140527519)
(0 0 0.4140124097)
(0 0 0.4153866702)
(0 0 0.4136603301)
(0 0 0.416731568)
(0 0 0.416562636)
(0 0 0.4140573773)
(0 0 0.4149493036)
(0 0 0.4148156307)
(0 0 0.4238737687)
(0 0 0.4272521346)
(0 0 0.4299603751)
(0 0 0.4278811821)
(0 0 0.4241173793)
(0 0 0.4206362527)
(0 0 0.4232388169)
(0 0 0.4200049136)
(0 0 0.4189264748)
(0 0 0.4196768273)
(0 0 0.4175938316)
(0 0 0.41778725)
(0 0 0.4143857218)
(0 0 0.4167643018)
(0 0 0.4170893644)
(0 0 0.4129372771)
(0 0 0.4144252551)
(0 0 0.4182461014)
(0 0 0.4142559945)
(0 0 0.4129942347)
(0 0 0.4120615332)
(0 0 0.4139569801)
(0 0 0.4155422922)
(0 0 0.4121266924)
(0 0 0.4120645355)
(0 0 0.4143018749)
(0 0 0.4125285431)
(0 0 0.4134395845)
(0 0 0.4170861616)
(0 0 0.4129624642)
(0 0 0.4164246963)
(0 0 0.4134109667)
(0 0 0.4144531175)
(0 0 0.41563881)
(0 0 0.4156589953)
(0 0 0.4149747387)
(0 0 0.4126871674)
(0 0 0.4141617074)
(0 0 0.4168868261)
(0 0 0.4144060638)
(0 0 0.4140640617)
(0 0 0.4158229097)
(0 0 0.4134677081)
(0 0 0.4167083131)
(0 0 0.4146735938)
(0 0 0.4135717075)
(0 0 0.417535736)
(0 0 0.4145202382)
(0 0 0.4174965351)
(0 0 0.4153871398)
(0 0 0.4125841903)
(0 0 0.4138173671)
(0 0 0.4136531566)
(0 0 0.4157072169)
(0 0 0.4136880211)
(0 0 0.4167847776)
(0 0 0.4153232214)
(0 0 0.4138978074)
(0 0 0.4141508435)
(0 0 0.4160815488)
(0 0 0.4451127544)
(0 0 0.4584826799)
(0 0 0.4540000406)
(0 0 0.4490909937)
(0 0 0.4385005691)
(0 0 0.4314536336)
(0 0 0.4278411561)
(0 0 0.425284675)
(0 0 0.4221519361)
(0 0 0.4236122891)
(0 0 0.4193032333)
(0 0 0.4201022675)
(0 0 0.413805466)
(0 0 0.418261473)
(0 0 0.417117406)
(0 0 0.4121233131)
(0 0 0.4176867285)
(0 0 0.4164009998)
(0 0 0.4154469001)
(0 0 0.4138908826)
(0 0 0.4129572122)
(0 0 0.4143045699)
(0 0 0.4165610717)
(0 0 0.4139777138)
(0 0 0.4103510048)
(0 0 0.4141583456)
(0 0 0.4153057777)
(0 0 0.4120890121)
(0 0 0.415887679)
(0 0 0.4134795597)
(0 0 0.4160985268)
(0 0 0.4135233515)
(0 0 0.4125837205)
(0 0 0.4159731323)
(0 0 0.4154985206)
(0 0 0.414773685)
(0 0 0.4133074842)
(0 0 0.4147876942)
(0 0 0.4159711674)
(0 0 0.4157204509)
(0 0 0.4137433725)
(0 0 0.4148007169)
(0 0 0.4124384746)
(0 0 0.4145074492)
(0 0 0.4148396298)
(0 0 0.4140098646)
(0 0 0.417218793)
(0 0 0.4142416892)
(0 0 0.4158322608)
(0 0 0.414689268)
(0 0 0.413736562)
(0 0 0.4136760291)
(0 0 0.4154415401)
(0 0 0.4141282221)
(0 0 0.4130873882)
(0 0 0.4164854641)
(0 0 0.4157201845)
(0 0 0.4133618444)
(0 0 0.4160338234)
(0 0 0.4164763921)
(0 0 0.528238056)
(0 0 0.5313168792)
(0 0 0.5031728487)
(0 0 0.4789109799)
(0 0 0.4586123778)
(0 0 0.4473806682)
(0 0 0.4351642139)
(0 0 0.431936181)
(0 0 0.4261196455)
(0 0 0.4242357404)
(0 0 0.4218260504)
(0 0 0.4208871995)
(0 0 0.4163243173)
(0 0 0.4178953257)
(0 0 0.4142571473)
(0 0 0.4125878689)
(0 0 0.4168661924)
(0 0 0.4161196115)
(0 0 0.4136723413)
(0 0 0.4152123223)
(0 0 0.4117120694)
(0 0 0.4123344286)
(0 0 0.4170291874)
(0 0 0.4136735226)
(0 0 0.4128003939)
(0 0 0.4130976269)
(0 0 0.4156083648)
(0 0 0.4143328666)
(0 0 0.4166113984)
(0 0 0.4143585103)
(0 0 0.4170358659)
(0 0 0.4152326837)
(0 0 0.4129434375)
(0 0 0.4157721518)
(0 0 0.4147491951)
(0 0 0.4146753838)
(0 0 0.4134828559)
(0 0 0.4143642979)
(0 0 0.4160348865)
(0 0 0.4150507169)
(0 0 0.413069493)
(0 0 0.414644352)
(0 0 0.4137215042)
(0 0 0.4142483529)
(0 0 0.4177655833)
(0 0 0.4131144462)
(0 0 0.4157897242)
(0 0 0.4138008177)
(0 0 0.4155408228)
(0 0 0.4152820802)
(0 0 0.4133191682)
(0 0 0.4159464846)
(0 0 0.4143677411)
(0 0 0.413148323)
(0 0 0.4123896144)
(0 0 0.4174038497)
(0 0 0.4143597908)
(0 0 0.4140172298)
(0 0 0.4144972643)
(0 0 0.4160971894)
(0 0 -0.8004351959)
(0 0 -0.6638557899)
(0 0 -0.5811001227)
(0 0 -0.5249383707)
(0 0 -0.4899396072)
(0 0 -0.4678418625)
(0 0 -0.4499625227)
(0 0 -0.4384173447)
(0 0 -0.4358436048)
(0 0 -0.4271661459)
(0 0 -0.4265015187)
(0 0 -0.4242201918)
(0 0 -0.4165557817)
(0 0 -0.4185763232)
(0 0 -0.4153788835)
(0 0 -0.4127139771)
(0 0 -0.4162634561)
(0 0 -0.4160619073)
(0 0 -0.4145137702)
(0 0 -0.4132889014)
(0 0 -0.4121078644)
(0 0 -0.4138778755)
(0 0 -0.4161887851)
(0 0 -0.4142987751)
(0 0 -0.4118952684)
(0 0 -0.4125668282)
(0 0 -0.413596633)
(0 0 -0.4137813335)
(0 0 -0.4145869851)
(0 0 -0.4141074408)
(0 0 -0.4164239239)
(0 0 -0.4141703994)
(0 0 -0.411819291)
(0 0 -0.41464645)
(0 0 -0.415567656)
(0 0 -0.4151659348)
(0 0 -0.4133041246)
(0 0 -0.413452342)
(0 0 -0.4177965524)
(0 0 -0.4138054506)
(0 0 -0.4143257483)
(0 0 -0.4133917954)
(0 0 -0.4146073266)
(0 0 -0.414053073)
(0 0 -0.4172451124)
(0 0 -0.4119222268)
(0 0 -0.4165097748)
(0 0 -0.4138279491)
(0 0 -0.414373536)
(0 0 -0.4143283663)
(0 0 -0.4131993224)
(0 0 -0.4153002071)
(0 0 -0.4145822216)
(0 0 -0.4106319795)
(0 0 -0.4137810926)
(0 0 -0.4156715203)
(0 0 -0.4135500915)
(0 0 -0.4150230706)
(0 0 -0.4152506977)
(0 0 -0.4172329499)
(0 0 -0.9438392618)
(0 0 -0.8195809534)
(0 0 -0.6830122394)
(0 0 -0.586035682)
(0 0 -0.526674488)
(0 0 -0.4933354118)
(0 0 -0.4673634697)
(0 0 -0.4514805984)
(0 0 -0.442887419)
(0 0 -0.4334623432)
(0 0 -0.4288269486)
(0 0 -0.4242995619)
(0 0 -0.4191895228)
(0 0 -0.4205691027)
(0 0 -0.4156135455)
(0 0 -0.414439414)
(0 0 -0.4169991038)
(0 0 -0.4174031683)
(0 0 -0.4193618625)
(0 0 -0.4123433327)
(0 0 -0.4138281635)
(0 0 -0.4151024153)
(0 0 -0.4157058327)
(0 0 -0.4146342732)
(0 0 -0.4117242637)
(0 0 -0.4138267198)
(0 0 -0.4133747034)
(0 0 -0.414200487)
(0 0 -0.4159715058)
(0 0 -0.411782584)
(0 0 -0.4176797703)
(0 0 -0.4142350325)
(0 0 -0.412065203)
(0 0 -0.4157557366)
(0 0 -0.4152347392)
(0 0 -0.4153418504)
(0 0 -0.4134880021)
(0 0 -0.4147747496)
(0 0 -0.4173861726)
(0 0 -0.415856223)
(0 0 -0.4125633339)
(0 0 -0.4154275893)
(0 0 -0.414576041)
(0 0 -0.4134382578)
(0 0 -0.4168443843)
(0 0 -0.4141494736)
(0 0 -0.4153970114)
(0 0 -0.4123862768)
(0 0 -0.4153503777)
(0 0 -0.4132499903)
(0 0 -0.4130867716)
(0 0 -0.4156199705)
(0 0 -0.4148391034)
(0 0 -0.4110311391)
(0 0 -0.413290252)
(0 0 -0.4164847503)
(0 0 -0.4140100084)
(0 0 -0.4144675382)
(0 0 -0.4145586454)
(0 0 -0.4163000849)
(0 0 -1.027567055)
(0 0 -0.9479229101)
(0 0 -0.7828309126)
(0 0 -0.6634609636)
(0 0 -0.5769335505)
(0 0 -0.5294831769)
(0 0 -0.4895933849)
(0 0 -0.4664228447)
(0 0 -0.4543866278)
(0 0 -0.4385702512)
(0 0 -0.4332877703)
(0 0 -0.428532792)
(0 0 -0.4240066192)
(0 0 -0.420441807)
(0 0 -0.4194325426)
(0 0 -0.4150983896)
(0 0 -0.4151752661)
(0 0 -0.4175971195)
(0 0 -0.419019524)
(0 0 -0.4110565708)
(0 0 -0.4130951749)
(0 0 -0.4158574755)
(0 0 -0.4156662041)
(0 0 -0.4144394442)
(0 0 -0.4119880815)
(0 0 -0.4131526991)
(0 0 -0.4128955407)
(0 0 -0.4135846368)
(0 0 -0.4135361398)
(0 0 -0.4144269044)
(0 0 -0.4167950855)
(0 0 -0.4122618084)
(0 0 -0.4134341505)
(0 0 -0.4139391541)
(0 0 -0.4135661093)
(0 0 -0.4134760968)
(0 0 -0.4150905197)
(0 0 -0.4137673748)
(0 0 -0.4154695682)
(0 0 -0.4162075495)
(0 0 -0.4117728728)
(0 0 -0.4164909305)
(0 0 -0.4132052125)
(0 0 -0.413038049)
(0 0 -0.4162908213)
(0 0 -0.4147837135)
(0 0 -0.4154534115)
(0 0 -0.4135792973)
(0 0 -0.4149243266)
(0 0 -0.4148825901)
(0 0 -0.4146007182)
(0 0 -0.4138423903)
(0 0 -0.4133348518)
(0 0 -0.4109502965)
(0 0 -0.4134195337)
(0 0 -0.4163777022)
(0 0 -0.4158583837)
(0 0 -0.4150860816)
(0 0 -0.4150450857)
(0 0 -0.4156033744)
(0 0 -1.056211361)
(0 0 -1.040455002)
(0 0 -0.883992664)
(0 0 -0.7417172485)
(0 0 -0.6367174102)
(0 0 -0.5684553082)
(0 0 -0.5188951675)
(0 0 -0.4881737818)
(0 0 -0.4652196373)
(0 0 -0.4474518916)
(0 0 -0.4375450274)
(0 0 -0.4323380553)
(0 0 -0.4243500858)
(0 0 -0.4228999818)
(0 0 -0.4237389744)
(0 0 -0.4153936642)
(0 0 -0.4172993653)
(0 0 -0.4204994917)
(0 0 -0.418853549)
(0 0 -0.4108167392)
(0 0 -0.4124172664)
(0 0 -0.4161435439)
(0 0 -0.4140757397)
(0 0 -0.4136820577)
(0 0 -0.4125108746)
(0 0 -0.4152857419)
(0 0 -0.4125991177)
(0 0 -0.4144901602)
(0 0 -0.4140123217)
(0 0 -0.4151400886)
(0 0 -0.4155960659)
(0 0 -0.4134013744)
(0 0 -0.4133435696)
(0 0 -0.4140863145)
(0 0 -0.4152698)
(0 0 -0.4166590581)
(0 0 -0.4134634933)
(0 0 -0.4133703591)
(0 0 -0.4148282761)
(0 0 -0.4146142861)
(0 0 -0.4125638871)
(0 0 -0.4157969519)
(0 0 -0.4126659282)
(0 0 -0.414030053)
(0 0 -0.4162087973)
(0 0 -0.4152251032)
(0 0 -0.4154837147)
(0 0 -0.4131526016)
(0 0 -0.4140896728)
(0 0 -0.4142596528)
(0 0 -0.4144498361)
(0 0 -0.4139852566)
(0 0 -0.4135932129)
(0 0 -0.4115550444)
(0 0 -0.4127887243)
(0 0 -0.4172265395)
(0 0 -0.4154305603)
(0 0 -0.4143070537)
(0 0 -0.4152418593)
(0 0 -0.4151472684)
(0 0 -1.088073221)
(0 0 -1.085921872)
(0 0 -0.9670245968)
(0 0 -0.8280949257)
(0 0 -0.7056418092)
(0 0 -0.6136449455)
(0 0 -0.5514871824)
(0 0 -0.5148119284)
(0 0 -0.4805069969)
(0 0 -0.4639068346)
(0 0 -0.4452968608)
(0 0 -0.4372559139)
(0 0 -0.4294748156)
(0 0 -0.4236784119)
(0 0 -0.4230686156)
(0 0 -0.416828861)
(0 0 -0.420057648)
(0 0 -0.4211033503)
(0 0 -0.4169908568)
(0 0 -0.4134437038)
(0 0 -0.411302038)
(0 0 -0.4183395833)
(0 0 -0.4146312922)
(0 0 -0.4121727391)
(0 0 -0.4146919082)
(0 0 -0.4134049864)
(0 0 -0.4125726035)
(0 0 -0.4155174251)
(0 0 -0.4133543695)
(0 0 -0.4159414164)
(0 0 -0.4157890657)
(0 0 -0.4138001272)
(0 0 -0.4126036879)
(0 0 -0.4147880188)
(0 0 -0.4143665514)
(0 0 -0.4169901564)
(0 0 -0.4125640161)
(0 0 -0.4141883382)
(0 0 -0.4137882892)
(0 0 -0.4147589122)
(0 0 -0.4123874964)
(0 0 -0.4160213334)
(0 0 -0.4130560822)
(0 0 -0.4141995968)
(0 0 -0.4136781017)
(0 0 -0.4140782886)
(0 0 -0.414710435)
(0 0 -0.4141294695)
(0 0 -0.4130538159)
(0 0 -0.4152647896)
(0 0 -0.4144062853)
(0 0 -0.4125624355)
(0 0 -0.4129564277)
(0 0 -0.4127803453)
(0 0 -0.413371173)
(0 0 -0.4160242468)
(0 0 -0.4161167462)
(0 0 -0.4143359844)
(0 0 -0.4150860427)
(0 0 -0.4148563535)
(0 0 -1.097907824)
(0 0 -1.119660814)
(0 0 -1.026983156)
(0 0 -0.8976751514)
(0 0 -0.7684282878)
(0 0 -0.6709277808)
(0 0 -0.5944982688)
(0 0 -0.5436930318)
(0 0 -0.5048064389)
(0 0 -0.4784384938)
(0 0 -0.4572492573)
(0 0 -0.4399390325)
(0 0 -0.4377519049)
(0 0 -0.4268318808)
(0 0 -0.4267825402)
(0 0 -0.4198610006)
(0 0 -0.4212131569)
(0 0 -0.4201890559)
(0 0 -0.4194612053)
(0 0 -0.4139002445)
(0 0 -0.4108840953)
(0 0 -0.4170423044)
(0 0 -0.4142518527)
(0 0 -0.4117066444)
(0 0 -0.4154315177)
(0 0 -0.4135352779)
(0 0 -0.4133265847)
(0 0 -0.4151478919)
(0 0 -0.414009789)
(0 0 -0.41590222)
(0 0 -0.4161385284)
(0 0 -0.4143820289)
(0 0 -0.4101048911)
(0 0 -0.4151639303)
(0 0 -0.4126713275)
(0 0 -0.4173271264)
(0 0 -0.4123460468)
(0 0 -0.4156443205)
(0 0 -0.4137129974)
(0 0 -0.4145911341)
(0 0 -0.4128786984)
(0 0 -0.4163167523)
(0 0 -0.4135525218)
(0 0 -0.4139928191)
(0 0 -0.4149971726)
(0 0 -0.4155438778)
(0 0 -0.4164557945)
(0 0 -0.4132559472)
(0 0 -0.414535801)
(0 0 -0.4152211498)
(0 0 -0.4147499719)
(0 0 -0.4133612569)
(0 0 -0.4156425293)
(0 0 -0.4112863036)
(0 0 -0.413596248)
(0 0 -0.4157652203)
(0 0 -0.4154748061)
(0 0 -0.4161496922)
(0 0 -0.4146420836)
(0 0 -0.4148028354)
(0 0 -1.098898008)
(0 0 -1.140487074)
(0 0 -1.075168681)
(0 0 -0.9542341868)
(0 0 -0.8335816887)
(0 0 -0.7286589228)
(0 0 -0.6416812909)
(0 0 -0.5733864481)
(0 0 -0.5270952878)
(0 0 -0.5001998026)
(0 0 -0.4703263556)
(0 0 -0.4501875372)
(0 0 -0.4439655203)
(0 0 -0.4325674911)
(0 0 -0.4276552446)
(0 0 -0.4237808191)
(0 0 -0.4205582171)
(0 0 -0.4212319192)
(0 0 -0.4174243018)
(0 0 -0.413546301)
(0 0 -0.4125672234)
(0 0 -0.4167301815)
(0 0 -0.4141279975)
(0 0 -0.4135991253)
(0 0 -0.4150030988)
(0 0 -0.4130885996)
(0 0 -0.4134594235)
(0 0 -0.4141979012)
(0 0 -0.4143595894)
(0 0 -0.4168876456)
(0 0 -0.4150626713)
(0 0 -0.4149350063)
(0 0 -0.4104941164)
(0 0 -0.415926513)
(0 0 -0.4142716894)
(0 0 -0.4171520904)
(0 0 -0.4137544767)
(0 0 -0.4141030132)
(0 0 -0.4135931236)
(0 0 -0.4151362251)
(0 0 -0.4132813851)
(0 0 -0.4154989792)
(0 0 -0.4146642214)
(0 0 -0.4140797356)
(0 0 -0.4147971977)
(0 0 -0.4148874949)
(0 0 -0.4161891223)
(0 0 -0.4126297346)
(0 0 -0.4134767545)
(0 0 -0.414304789)
(0 0 -0.4142825462)
(0 0 -0.4134558)
(0 0 -0.4148862597)
(0 0 -0.4118608756)
(0 0 -0.4140854607)
(0 0 -0.4157548345)
(0 0 -0.413644922)
(0 0 -0.4155712058)
(0 0 -0.4146955251)
(0 0 -0.4144345052)
(0 0 -1.116846772)
(0 0 -1.162299863)
(0 0 -1.105824975)
(0 0 -1.005199488)
(0 0 -0.8916484703)
(0 0 -0.7763417301)
(0 0 -0.6876837746)
(0 0 -0.6074372401)
(0 0 -0.5574839069)
(0 0 -0.5156758739)
(0 0 -0.4837894052)
(0 0 -0.4625644145)
(0 0 -0.447614743)
(0 0 -0.4390345404)
(0 0 -0.4313356172)
(0 0 -0.4254067751)
(0 0 -0.4223024946)
(0 0 -0.4231555766)
(0 0 -0.4188954922)
(0 0 -0.4145298234)
(0 0 -0.4141841226)
(0 0 -0.4167090404)
(0 0 -0.4150355486)
(0 0 -0.4160125777)
(0 0 -0.4143465185)
(0 0 -0.4130188614)
(0 0 -0.4151901607)
(0 0 -0.4136706645)
(0 0 -0.4158925743)
(0 0 -0.4163711843)
(0 0 -0.4148399303)
(0 0 -0.4130302827)
(0 0 -0.4110975151)
(0 0 -0.4160891744)
(0 0 -0.4125771519)
(0 0 -0.4144215138)
(0 0 -0.4147956803)
(0 0 -0.4137204331)
(0 0 -0.4130815097)
(0 0 -0.415316532)
(0 0 -0.4141552611)
(0 0 -0.4138587035)
(0 0 -0.4136746276)
(0 0 -0.4138793234)
(0 0 -0.416592418)
(0 0 -0.4148167682)
(0 0 -0.4143080463)
(0 0 -0.4123218662)
(0 0 -0.414144486)
(0 0 -0.4151277959)
(0 0 -0.4150266299)
(0 0 -0.4128261132)
(0 0 -0.4152851657)
(0 0 -0.4120288026)
(0 0 -0.4144566907)
(0 0 -0.4168209346)
(0 0 -0.4130342741)
(0 0 -0.4174703138)
(0 0 -0.4148243933)
(0 0 -0.4151524094)
(0 0 -1.117661712)
(0 0 -1.163429267)
(0 0 -1.127263131)
(0 0 -1.040110883)
(0 0 -0.940406849)
(0 0 -0.8286881879)
(0 0 -0.7336763015)
(0 0 -0.6518191188)
(0 0 -0.589552061)
(0 0 -0.5390342689)
(0 0 -0.5025168619)
(0 0 -0.4803521139)
(0 0 -0.4580271486)
(0 0 -0.4443532696)
(0 0 -0.4354064284)
(0 0 -0.4294574849)
(0 0 -0.4266115206)
(0 0 -0.4240831697)
(0 0 -0.4226797087)
(0 0 -0.4150098621)
(0 0 -0.4159328778)
(0 0 -0.4163031574)
(0 0 -0.414334415)
(0 0 -0.4150905031)
(0 0 -0.4153153724)
(0 0 -0.4142453803)
(0 0 -0.4181714336)
(0 0 -0.4141636591)
(0 0 -0.4149768906)
(0 0 -0.4151951623)
(0 0 -0.4163267408)
(0 0 -0.4128318851)
(0 0 -0.4121113726)
(0 0 -0.4156381482)
(0 0 -0.4150209233)
(0 0 -0.4153903312)
(0 0 -0.4149886046)
(0 0 -0.4136637872)
(0 0 -0.4137237759)
(0 0 -0.414749122)
(0 0 -0.4147348768)
(0 0 -0.413835764)
(0 0 -0.4151410999)
(0 0 -0.4146484289)
(0 0 -0.4150218318)
(0 0 -0.4148013847)
(0 0 -0.4142875682)
(0 0 -0.4144002365)
(0 0 -0.4149091961)
(0 0 -0.4148440255)
(0 0 -0.413343206)
(0 0 -0.4128463692)
(0 0 -0.4156066459)
(0 0 -0.4133860446)
(0 0 -0.4130650678)
(0 0 -0.4138101256)
(0 0 -0.4136927054)
(0 0 -0.4178108321)
(0 0 -0.4141307659)
(0 0 -0.4147771884)
(0 0 -1.119235499)
(0 0 -1.170058753)
(0 0 -1.140116487)
(0 0 -1.081304293)
(0 0 -0.9841799583)
(0 0 -0.8763000413)
(0 0 -0.781934631)
(0 0 -0.6924577636)
(0 0 -0.6237739308)
(0 0 -0.5623712686)
(0 0 -0.520274454)
(0 0 -0.4944299214)
(0 0 -0.4660493562)
(0 0 -0.4524655075)
(0 0 -0.4407300743)
(0 0 -0.4337316704)
(0 0 -0.4264938204)
(0 0 -0.4258059314)
(0 0 -0.4224531578)
(0 0 -0.4158548804)
(0 0 -0.4161320392)
(0 0 -0.4170201989)
(0 0 -0.4151932989)
(0 0 -0.4174140474)
(0 0 -0.4125556462)
(0 0 -0.4144893038)
(0 0 -0.4169951801)
(0 0 -0.414246601)
(0 0 -0.4151635912)
(0 0 -0.4159973647)
(0 0 -0.414977272)
(0 0 -0.4124705084)
(0 0 -0.4148130754)
(0 0 -0.4155720859)
(0 0 -0.4147953573)
(0 0 -0.4137613441)
(0 0 -0.4148687516)
(0 0 -0.4134893835)
(0 0 -0.4147233154)
(0 0 -0.4127106638)
(0 0 -0.4162612469)
(0 0 -0.4144089097)
(0 0 -0.4139955305)
(0 0 -0.4139178621)
(0 0 -0.4155393472)
(0 0 -0.4147588127)
(0 0 -0.4141673493)
(0 0 -0.4133829174)
(0 0 -0.41422467)
(0 0 -0.4134597205)
(0 0 -0.4140465217)
(0 0 -0.4127939109)
(0 0 -0.4152374847)
(0 0 -0.4136407759)
(0 0 -0.413399251)
(0 0 -0.414474116)
(0 0 -0.4132307014)
(0 0 -0.4164914206)
(0 0 -0.4143000485)
(0 0 -0.4146166292)
(0 0 -1.111465955)
(0 0 -1.163949731)
(0 0 -1.152335914)
(0 0 -1.095132707)
(0 0 -1.01739805)
(0 0 -0.9221053597)
(0 0 -0.8290637427)
(0 0 -0.7358971956)
(0 0 -0.6618205464)
(0 0 -0.589320638)
(0 0 -0.5446374914)
(0 0 -0.5080793968)
(0 0 -0.4815176729)
(0 0 -0.4637955188)
(0 0 -0.4464417055)
(0 0 -0.4379566166)
(0 0 -0.4323116717)
(0 0 -0.4278230956)
(0 0 -0.4224906219)
(0 0 -0.421619236)
(0 0 -0.4148314284)
(0 0 -0.4177095184)
(0 0 -0.4146644963)
(0 0 -0.4168968863)
(0 0 -0.4147404895)
(0 0 -0.414613922)
(0 0 -0.416759578)
(0 0 -0.4140943516)
(0 0 -0.4138019978)
(0 0 -0.4157543038)
(0 0 -0.4139230772)
(0 0 -0.4132652906)
(0 0 -0.4134553893)
(0 0 -0.4144484074)
(0 0 -0.4161178393)
(0 0 -0.4145319232)
(0 0 -0.4152738515)
(0 0 -0.4133760482)
(0 0 -0.4155255432)
(0 0 -0.4123686835)
(0 0 -0.415478885)
(0 0 -0.4150228224)
(0 0 -0.4136826469)
(0 0 -0.4148703735)
(0 0 -0.4144795798)
(0 0 -0.4143207338)
(0 0 -0.4139500276)
(0 0 -0.4132753252)
(0 0 -0.4152022717)
(0 0 -0.4139509964)
(0 0 -0.4133730856)