/*--------------------------------*- C++ -*----------------------------------*\
| =========                 |                                                 |
| \\      /  F ield         | OpenFOAM: The Open Source CFD Toolbox           |
|  \\    /   O peration     | Version:  v1706                                 |
|   \\  /    A nd           | Web:      www.OpenFOAM.com                      |
|    \\/     M anipulation  |                                                 |
\*---------------------------------------------------------------------------*/
FoamFile
{
    version     2.0;
    format      ascii;
    class       volVectorField;
    location    "0.04";
    object      fD_N2cold;
}
// * * * * * * * * * * * * * * * * * * * * * * * * * * * * * * * * * * * * * //

dimensions      [1 -1 -2 0 0 0 0];


internalField   uniform (0 0 0);

boundaryField
{
    plate
    {
        type            calculated;
        value           nonuniform List<vector> 
95
(
(0.8378686144 -0.6684747979 0.0008446712173)
(0.8460553676 -0.7413264391 -9.40864296e-05)
(0.8498561136 -0.8012839049 0.0008897429037)
(0.8339071277 -0.8356568729 0.001204514109)
(0.8059181702 -0.8534862281 -0.001236063713)
(0.7963482469 -0.8725649195 0.002076398015)
(0.7696448182 -0.881544406 0.001117243571)
(0.7477902606 -0.8894566862 -0.00750619453)
(0.7442362547 -0.9097337062 0.007558397108)
(0.7176974736 -0.9114815866 -0.001037982714)
(0.6929177277 -0.9054745972 -0.002181088129)
(0.6880587532 -0.924758472 0.002329935541)
(0.6603529972 -0.9085573887 -0.003940735742)
(0.640789712 -0.916271029 0.002472962329)
(0.62261811 -0.9196916398 0.004164812008)
(0.6167381241 -0.9184935705 -0.00188343006)
(0.599739976 -0.9180271679 -0.00156623647)
(0.5773005447 -0.9059595562 0.002243274551)
(0.566995226 -0.9105223083 0.004043253005)
(0.5589333892 -0.9077017081 0.001408331931)
(0.540583111 -0.903035893 -0.001842183557)
(0.5292126411 -0.8970696259 0.001808547144)
(0.5198346829 -0.9017257147 -0.001211700197)
(0.5063941802 -0.888861349 -0.003040356177)
(0.5033007571 -0.8909863154 -0.0001011984133)
(0.4831982841 -0.8806637719 0.003819897215)
(0.4615181288 -0.8692614815 -0.0004476234844)
(0.4659017672 -0.872901242 0.003209871218)
(0.4614943697 -0.8858983152 -0.005567831922)
(0.4555458702 -0.8719576285 0.0004035863723)
(0.4445680485 -0.8700604651 0.004037471869)
(0.4281492946 -0.8626237423 -3.474372312e-05)
(0.419782685 -0.8619616633 -0.006611832425)
(0.4201556844 -0.8582740169 -0.001547751116)
(0.4172976935 -0.8644110699 0.00262886292)
(0.406408345 -0.848257283 -0.0001739338055)
(0.3982846934 -0.8460656837 0.001564924873)
(0.3922054504 -0.8421594145 -0.002952001163)
(0.386193624 -0.8422780737 -0.003531201216)
(0.3808750715 -0.8308680247 0.003657307907)
(0.3757493824 -0.8350395486 0.008617904392)
(0.3597428601 -0.8161460201 0.003732681338)
(0.3610608244 -0.8287274634 -0.005538764873)
(0.363011868 -0.8278675919 -0.002089168062)
(0.345817193 -0.8195073556 -0.00252391963)
(0.3402207014 -0.819184899 -0.001792613087)
(0.3391653199 -0.8204928664 -0.003644720558)
(0.3357408364 -0.8104766065 0.000694583696)
(0.3307922381 -0.8089014917 -0.002353734685)
(0.324491235 -0.8036877517 0.006219670765)
(0.3206413224 -0.8003735115 0.0002051225843)
(0.3260731332 -0.7992848451 0.0005833401317)
(0.3158490916 -0.7974052647 -0.001648648125)
(0.3076062816 -0.796021022 -0.001353880127)
(0.3057071779 -0.791778512 0.002492799656)
(0.306822616 -0.7873359793 -0.003347464794)
(0.3004992572 -0.789595449 -0.005959456019)
(0.297212315 -0.7892040355 -0.001661372269)
(0.2955263024 -0.7749474792 0.002453266887)
(0.2885749527 -0.7764506097 0.001405814085)
(0.2844163433 -0.7795287876 -0.00318999339)
(0.2779739706 -0.7717923583 0.0002504640678)
(0.275767218 -0.7641469415 0.0005867243024)
(0.279026017 -0.768315915 0.001841646519)
(0.2704320686 -0.7583370519 0.00332564999)
(0.2682115827 -0.7635303849 0.005670352838)
(0.2686903533 -0.7619816373 0.0003105375458)
(0.2642760975 -0.7553945478 0.0008715392986)
(0.2591522631 -0.7573357858 -0.001351288263)
(0.2578708571 -0.7568605677 0.005289501991)
(0.2529904789 -0.755073465 0.003061136802)
(0.2580640043 -0.7516536747 0.005349744352)
(0.248743698 -0.7489549212 -0.003376422877)
(0.2467653456 -0.7433670562 -0.00287899422)
(0.2488205159 -0.7487269453 -0.0001772933065)
(0.2387720204 -0.7311771204 -1.943210891e-05)
(0.2449394303 -0.7321781316 -0.003456341623)
(0.2402680183 -0.7306262282 -0.002324101626)
(0.2408966173 -0.7260074562 0.001458876845)
(0.2346191309 -0.7204333222 0.0002453274452)
(0.2360731361 -0.7188383601 0.001453924838)
(0.2347595257 -0.7166725372 0.001453856993)
(0.2310016051 -0.7121593888 -0.0007577159821)
(0.2293999548 -0.7062405844 -0.0002641572137)
(0.2293196823 -0.696633244 0.001748106274)
(0.2271045521 -0.6868807411 0.00373325802)
(0.2276978771 -0.676109037 -0.002693639078)
(0.2319766505 -0.676426093 0.000978458406)
(0.2275584074 -0.6552151645 0.001504774566)
(0.2338986952 -0.6422852683 0.002805527696)
(0.232739798 -0.6210630426 0.002888598104)
(0.2369842438 -0.5933301727 0.001051217825)
(0.2414838365 -0.5684670922 0.003036549847)
(0.2440152601 -0.52775073 -0.0001428770903)
(0.2627704817 -0.4885356526 0.0004547660492)
)
;
    }
    inlet
    {
        type            calculated;
        value           uniform (0 0 0);
    }
    defaultFaces
    {
        type            calculated;
        value           nonuniform List<vector> 
12000
(
(0 0 -0.4151955831)
(0 0 -0.4158486532)
(0 0 -0.4163312848)
(0 0 -0.4158123497)
(0 0 -0.415582134)
(0 0 -0.4153793711)
(0 0 -0.415263691)
(0 0 -0.4140524558)
(0 0 -0.4153829926)
(0 0 -0.4141172176)
(0 0 -0.4163722803)
(0 0 -0.4129889373)
(0 0 -0.413800248)
(0 0 -0.4127203154)
(0 0 -0.4169310869)
(0 0 -0.4128051837)
(0 0 -0.4141524191)
(0 0 -0.4141305948)
(0 0 -0.4139127086)
(0 0 -0.4147404636)
(0 0 -0.4134132153)
(0 0 -0.4149107233)
(0 0 -0.410831562)
(0 0 -0.4147806359)
(0 0 -0.4128833951)
(0 0 -0.4153959829)
(0 0 -0.4140097126)
(0 0 -0.4159944859)
(0 0 -0.4159278253)
(0 0 -0.4157559884)
(0 0 -0.4150745843)
(0 0 -0.4144571283)
(0 0 -0.4147315083)
(0 0 -0.4149142267)
(0 0 -0.4154514333)
(0 0 -0.4141920456)
(0 0 -0.4141784723)
(0 0 -0.4135058283)
(0 0 -0.4144996915)
(0 0 -0.4148205239)
(0 0 -0.4149617173)
(0 0 -0.4131694864)
(0 0 -0.4134156412)
(0 0 -0.4127830072)
(0 0 -0.4153454238)
(0 0 -0.4127986808)
(0 0 -0.4130447504)
(0 0 -0.4167318528)
(0 0 -0.4148120265)
(0 0 -0.4131478536)
(0 0 -0.4142314778)
(0 0 -0.4134195843)
(0 0 -0.4131440249)
(0 0 -0.414379091)
(0 0 -0.4139494808)
(0 0 -0.4145593491)
(0 0 -0.4127025469)
(0 0 -0.4144127454)
(0 0 -0.414750764)
(0 0 -0.4144628277)
(0 0 -0.4203240767)
(0 0 -0.4182081586)
(0 0 -0.4209314381)
(0 0 -0.4180525696)
(0 0 -0.4214939174)
(0 0 -0.4193240407)
(0 0 -0.4192939335)
(0 0 -0.4163202271)
(0 0 -0.4152113502)
(0 0 -0.4168142424)
(0 0 -0.4150740706)
(0 0 -0.4150858321)
(0 0 -0.4154284726)
(0 0 -0.4168695793)
(0 0 -0.4150606307)
(0 0 -0.4125209644)
(0 0 -0.4150228652)
(0 0 -0.4144304714)
(0 0 -0.4136083384)
(0 0 -0.4157822856)
(0 0 -0.4127392982)
(0 0 -0.4153371001)
(0 0 -0.4100407905)
(0 0 -0.4139316669)
(0 0 -0.4129633953)
(0 0 -0.4146094701)
(0 0 -0.4139469885)
(0 0 -0.4142031181)
(0 0 -0.4152527314)
(0 0 -0.4158220808)
(0 0 -0.4139031255)
(0 0 -0.4161256442)
(0 0 -0.4170036717)
(0 0 -0.4138212423)
(0 0 -0.415467753)
(0 0 -0.4142269223)
(0 0 -0.4151471751)
(0 0 -0.4127748873)
(0 0 -0.415164829)
(0 0 -0.4156832875)
(0 0 -0.4144377682)
(0 0 -0.4140552201)
(0 0 -0.4140645672)
(0 0 -0.413728704)
(0 0 -0.4147514351)
(0 0 -0.4141101718)
(0 0 -0.4124199944)
(0 0 -0.4154529014)
(0 0 -0.416102087)
(0 0 -0.4138975856)
(0 0 -0.4124818399)
(0 0 -0.4139291672)
(0 0 -0.4134501998)
(0 0 -0.414660064)
(0 0 -0.4150182756)
(0 0 -0.4142911424)
(0 0 -0.4132795565)
(0 0 -0.4131344554)
(0 0 -0.4164729339)
(0 0 -0.4138339818)
(0 0 -0.4281968259)
(0 0 -0.4308125009)
(0 0 -0.4315934048)
(0 0 -0.4278683181)
(0 0 -0.4290476994)
(0 0 -0.4252285268)
(0 0 -0.4232427343)
(0 0 -0.4204132903)
(0 0 -0.4173809688)
(0 0 -0.4175206087)
(0 0 -0.4179487965)
(0 0 -0.4141983371)
(0 0 -0.4165607287)
(0 0 -0.4186725615)
(0 0 -0.415091318)
(0 0 -0.413260094)
(0 0 -0.4140656069)
(0 0 -0.4140465652)
(0 0 -0.4136016447)
(0 0 -0.415797743)
(0 0 -0.4134539161)
(0 0 -0.4147258044)
(0 0 -0.4121117788)
(0 0 -0.4135472913)
(0 0 -0.4142051367)
(0 0 -0.4142989163)
(0 0 -0.4140709035)
(0 0 -0.4123355584)
(0 0 -0.4166772316)
(0 0 -0.4178557462)
(0 0 -0.4129196206)
(0 0 -0.4157320339)
(0 0 -0.4160395382)
(0 0 -0.4120561783)
(0 0 -0.4142610272)
(0 0 -0.4134709786)
(0 0 -0.414533636)
(0 0 -0.4140336001)
(0 0 -0.4140989798)
(0 0 -0.4156929552)
(0 0 -0.4154450803)
(0 0 -0.4137730973)
(0 0 -0.4137313131)
(0 0 -0.4136685199)
(0 0 -0.4155865593)
(0 0 -0.4142715268)
(0 0 -0.4146306363)
(0 0 -0.4150604693)
(0 0 -0.4161293173)
(0 0 -0.4125720277)
(0 0 -0.4145787872)
(0 0 -0.4136277291)
(0 0 -0.4138386966)
(0 0 -0.4146239033)
(0 0 -0.4154907598)
(0 0 -0.4133456763)
(0 0 -0.4140561314)
(0 0 -0.412797762)
(0 0 -0.4173879111)
(0 0 -0.4128707639)
(0 0 -0.4490163617)
(0 0 -0.4574256413)
(0 0 -0.4581707648)
(0 0 -0.4522825393)
(0 0 -0.4450333209)
(0 0 -0.4372445008)
(0 0 -0.4297951811)
(0 0 -0.4236654098)
(0 0 -0.4229753867)
(0 0 -0.4183850983)
(0 0 -0.4176308433)
(0 0 -0.4190013047)
(0 0 -0.4172768864)
(0 0 -0.4171972736)
(0 0 -0.4167224566)
(0 0 -0.4146936912)
(0 0 -0.4130195187)
(0 0 -0.4151562493)
(0 0 -0.4131255178)
(0 0 -0.4168807781)
(0 0 -0.4125154364)
(0 0 -0.4147269484)
(0 0 -0.4118396103)
(0 0 -0.413127177)
(0 0 -0.4136525411)
(0 0 -0.4154850132)
(0 0 -0.4132650234)
(0 0 -0.4121110081)
(0 0 -0.4168571178)
(0 0 -0.414386943)
(0 0 -0.4145002223)
(0 0 -0.4152715242)
(0 0 -0.4162927416)
(0 0 -0.4133889654)
(0 0 -0.4156426103)
(0 0 -0.4142180062)
(0 0 -0.4157145191)
(0 0 -0.4134899001)
(0 0 -0.412762003)
(0 0 -0.4183344696)
(0 0 -0.4168187206)
(0 0 -0.4119475457)
(0 0 -0.4136284615)
(0 0 -0.4130317651)
(0 0 -0.4157008326)
(0 0 -0.4134265555)
(0 0 -0.415035418)
(0 0 -0.4147538469)
(0 0 -0.4161623811)
(0 0 -0.4134285255)
(0 0 -0.4142202385)
(0 0 -0.4130171422)
(0 0 -0.4136909106)
(0 0 -0.414897838)
(0 0 -0.4151888201)
(0 0 -0.4138547503)
(0 0 -0.4144563184)
(0 0 -0.4138009366)
(0 0 -0.4175587744)
(0 0 -0.412269717)
(0 0 -0.5316496279)
(0 0 -0.5308005353)
(0 0 -0.5048090368)
(0 0 -0.4797805846)
(0 0 -0.465311059)
(0 0 -0.4496071592)
(0 0 -0.4381740219)
(0 0 -0.4330256957)
(0 0 -0.4281257902)
(0 0 -0.4195053539)
(0 0 -0.4189986103)
(0 0 -0.4187081175)
(0 0 -0.4190332923)
(0 0 -0.4177931727)
(0 0 -0.4182753988)
(0 0 -0.4163664245)
(0 0 -0.4127713796)
(0 0 -0.4152287269)
(0 0 -0.4118062825)
(0 0 -0.4169077469)
(0 0 -0.4113803519)
(0 0 -0.4156669646)
(0 0 -0.4137134783)
(0 0 -0.4140104782)
(0 0 -0.4143231438)
(0 0 -0.4146318827)
(0 0 -0.4122486218)
(0 0 -0.4130622835)
(0 0 -0.4156467643)
(0 0 -0.414138097)
(0 0 -0.416242301)
(0 0 -0.4145493389)
(0 0 -0.4159954164)
(0 0 -0.4126661546)
(0 0 -0.4164313467)
(0 0 -0.414187146)
(0 0 -0.4148437597)
(0 0 -0.4142355936)
(0 0 -0.4136375465)
(0 0 -0.4163723476)
(0 0 -0.4165948198)
(0 0 -0.412521459)
(0 0 -0.4153995868)
(0 0 -0.4118265147)
(0 0 -0.4140529304)
(0 0 -0.4143746859)
(0 0 -0.4143222906)
(0 0 -0.4130474709)
(0 0 -0.4159979436)
(0 0 -0.4139774802)
(0 0 -0.4137737225)
(0 0 -0.4129043543)
(0 0 -0.4131275492)
(0 0 -0.4140189097)
(0 0 -0.4154756439)
(0 0 -0.4132021694)
(0 0 -0.4145764589)
(0 0 -0.4155867879)
(0 0 -0.4155576643)
(0 0 -0.4130834915)
(0 0 0.4150196452)
(0 0 0.4155573208)
(0 0 0.416854651)
(0 0 0.4156873529)
(0 0 0.4155884257)
(0 0 0.4152080118)
(0 0 0.4157410021)
(0 0 0.4139212942)
(0 0 0.415198791)
(0 0 0.4142587297)
(0 0 0.4157885703)
(0 0 0.4134884914)
(0 0 0.4138929479)
(0 0 0.4125231065)
(0 0 0.4175701807)
(0 0 0.412584434)
(0 0 0.4146207273)
(0 0 0.4143754866)
(0 0 0.4144675847)
(0 0 0.4149443372)
(0 0 0.4140131877)
(0 0 0.415091956)
(0 0 0.4112191333)
(0 0 0.4145636554)
(0 0 0.4121966276)
(0 0 0.4158694371)
(0 0 0.414188848)
(0 0 0.4149820852)
(0 0 0.4160439496)
(0 0 0.415114516)
(0 0 0.4152228154)
(0 0 0.4145692883)
(0 0 0.415771754)
(0 0 0.4145822624)
(0 0 0.4155027332)
(0 0 0.4134447305)
(0 0 0.4148339715)
(0 0 0.4134197165)
(0 0 0.4143880546)
(0 0 0.4144104405)
(0 0 0.4149660307)
(0 0 0.4124642056)
(0 0 0.4133068703)
(0 0 0.4130993545)
(0 0 0.4150935802)
(0 0 0.412611957)
(0 0 0.4135621305)
(0 0 0.4165367691)
(0 0 0.4146035411)
(0 0 0.4129960936)
(0 0 0.4138625673)
(0 0 0.4137407282)
(0 0 0.4129156736)
(0 0 0.4146806581)
(0 0 0.4143227488)
(0 0 0.4147373007)
(0 0 0.4127626775)
(0 0 0.4142715258)
(0 0 0.4150800644)
(0 0 0.4141859505)
(0 0 0.4208761803)
(0 0 0.418496476)
(0 0 0.421643485)
(0 0 0.4182277973)
(0 0 0.4216072327)
(0 0 0.4194064862)
(0 0 0.4189971145)
(0 0 0.4163316634)
(0 0 0.4151202619)
(0 0 0.4165570425)
(0 0 0.4159549753)
(0 0 0.4134338127)
(0 0 0.4150132571)
(0 0 0.4164776763)
(0 0 0.4156623613)
(0 0 0.4124941169)
(0 0 0.4140676769)
(0 0 0.4135706598)
(0 0 0.4139454053)
(0 0 0.4154723104)
(0 0 0.4121985919)
(0 0 0.4156075175)
(0 0 0.4093641616)
(0 0 0.4136556868)
(0 0 0.4128518072)
(0 0 0.4152169618)
(0 0 0.4138145305)
(0 0 0.4142816833)
(0 0 0.4150034836)
(0 0 0.4162957518)
(0 0 0.4141954598)
(0 0 0.415612442)
(0 0 0.4168612988)
(0 0 0.4129486792)
(0 0 0.4148735106)
(0 0 0.4143472154)
(0 0 0.4140750827)
(0 0 0.4130340985)
(0 0 0.4147703126)
(0 0 0.4151609003)
(0 0 0.4148150232)
(0 0 0.4148749762)
(0 0 0.4136067453)
(0 0 0.4127116433)
(0 0 0.4155431596)
(0 0 0.4132657572)
(0 0 0.4121907264)
(0 0 0.4163846919)
(0 0 0.4167161402)
(0 0 0.4137141373)
(0 0 0.4129254165)
(0 0 0.4138262296)
(0 0 0.4136378497)
(0 0 0.4140728408)
(0 0 0.4146869918)
(0 0 0.4145201435)
(0 0 0.4132876745)
(0 0 0.4129155319)
(0 0 0.4161472077)
(0 0 0.414222247)
(0 0 0.4282536002)
(0 0 0.4298313519)
(0 0 0.4316757611)
(0 0 0.4282477632)
(0 0 0.43041162)
(0 0 0.4262918669)
(0 0 0.4232204867)
(0 0 0.4190591452)
(0 0 0.4167481245)
(0 0 0.4189955412)
(0 0 0.4175072444)
(0 0 0.41529222)
(0 0 0.4172750695)
(0 0 0.4181014606)
(0 0 0.4147658633)
(0 0 0.4145040529)
(0 0 0.4138207972)
(0 0 0.4137547958)
(0 0 0.4128823313)
(0 0 0.4155307216)
(0 0 0.4140188402)
(0 0 0.4140791345)
(0 0 0.411646375)
(0 0 0.4143967835)
(0 0 0.4148155312)
(0 0 0.4149574869)
(0 0 0.4137589393)
(0 0 0.4124293455)
(0 0 0.4174907605)
(0 0 0.4158184281)
(0 0 0.4128949629)
(0 0 0.4153592173)
(0 0 0.4160506421)
(0 0 0.4128701951)
(0 0 0.4152164215)
(0 0 0.4143740052)
(0 0 0.4146845497)
(0 0 0.4142505619)
(0 0 0.4140246446)
(0 0 0.4165179822)
(0 0 0.4164032255)
(0 0 0.4125515292)
(0 0 0.4142562461)
(0 0 0.4138290553)
(0 0 0.4153928374)
(0 0 0.4142239816)
(0 0 0.4133013433)
(0 0 0.4145046141)
(0 0 0.4156940969)
(0 0 0.4130966235)
(0 0 0.4141148884)
(0 0 0.414213705)
(0 0 0.4132144629)
(0 0 0.4150053184)
(0 0 0.4154387991)
(0 0 0.4134305171)
(0 0 0.4144572569)
(0 0 0.4133440015)
(0 0 0.4177341413)
(0 0 0.4122966718)
(0 0 0.4487227923)
(0 0 0.4585054357)
(0 0 0.4574682944)
(0 0 0.4518835944)
(0 0 0.444392108)
(0 0 0.4370237469)
(0 0 0.4294822633)
(0 0 0.4249536305)
(0 0 0.4241923921)
(0 0 0.4177085302)
(0 0 0.4167261779)
(0 0 0.4175593715)
(0 0 0.4174833769)
(0 0 0.4174325707)
(0 0 0.4179377259)
(0 0 0.4141462117)
(0 0 0.4137846945)
(0 0 0.4152962357)
(0 0 0.4135815745)
(0 0 0.416904008)
(0 0 0.4117750304)
(0 0 0.4157124276)
(0 0 0.4135800903)
(0 0 0.4126180503)
(0 0 0.4149250556)
(0 0 0.4137689532)
(0 0 0.412839997)
(0 0 0.4124261629)
(0 0 0.4160747449)
(0 0 0.4155551549)
(0 0 0.415305226)
(0 0 0.41520099)
(0 0 0.4165536401)
(0 0 0.4115328882)
(0 0 0.4160848516)
(0 0 0.4143402298)
(0 0 0.4160311316)
(0 0 0.4136575783)
(0 0 0.4127904573)
(0 0 0.4174727792)
(0 0 0.4157371195)
(0 0 0.4127269579)
(0 0 0.4128684286)
(0 0 0.412838979)
(0 0 0.4148585408)
(0 0 0.4140646795)
(0 0 0.4149802682)
(0 0 0.4144676623)
(0 0 0.4154667684)
(0 0 0.4135719972)
(0 0 0.4145353493)
(0 0 0.4125676992)
(0 0 0.4137035827)
(0 0 0.4145999058)
(0 0 0.4148300102)
(0 0 0.4137890862)
(0 0 0.4134300758)
(0 0 0.4142727224)
(0 0 0.4173052183)
(0 0 0.4130810949)
(0 0 0.5308576465)
(0 0 0.531692079)
(0 0 0.5059644861)
(0 0 0.4795038435)
(0 0 0.4641364286)
(0 0 0.4478946807)
(0 0 0.4381741803)
(0 0 0.4321812735)
(0 0 0.4292100681)
(0 0 0.4192722804)
(0 0 0.419089974)
(0 0 0.4188402301)
(0 0 0.4209010809)
(0 0 0.4186619877)
(0 0 0.4168168542)
(0 0 0.4147184288)
(0 0 0.4146966205)
(0 0 0.4146509095)
(0 0 0.4129295331)
(0 0 0.4182985652)
(0 0 0.4127697477)
(0 0 0.4150414538)
(0 0 0.4133997783)
(0 0 0.4126137647)
(0 0 0.4133370293)
(0 0 0.4150316846)
(0 0 0.412345004)
(0 0 0.4129899448)
(0 0 0.4148571943)
(0 0 0.4151029043)
(0 0 0.4155954209)
(0 0 0.4142398766)
(0 0 0.4146534597)
(0 0 0.4143357207)
(0 0 0.4158060547)
(0 0 0.4133885738)
(0 0 0.4152262299)
(0 0 0.4139516232)
(0 0 0.4141691257)
(0 0 0.4156692926)
(0 0 0.4163656977)
(0 0 0.4131225394)
(0 0 0.4149963541)
(0 0 0.4129086209)
(0 0 0.4150609575)
(0 0 0.4142314259)
(0 0 0.4155363556)
(0 0 0.4135549699)
(0 0 0.4163097361)
(0 0 0.413283599)
(0 0 0.4136242445)
(0 0 0.4132291329)
(0 0 0.41411575)
(0 0 0.4145178554)
(0 0 0.4152291742)
(0 0 0.4142033108)
(0 0 0.4136822508)
(0 0 0.4141135245)
(0 0 0.4154661545)
(0 0 0.4141906254)
(0 0 -0.8077413993)
(0 0 -0.6631294045)
(0 0 -0.5782465339)
(0 0 -0.5264319655)
(0 0 -0.4923229085)
(0 0 -0.4717414861)
(0 0 -0.450325392)
(0 0 -0.4397255437)
(0 0 -0.4347576689)
(0 0 -0.4219330826)
(0 0 -0.4217627383)
(0 0 -0.4207327933)
(0 0 -0.4209653632)
(0 0 -0.4205358782)
(0 0 -0.4171266296)
(0 0 -0.4176757509)
(0 0 -0.4149795084)
(0 0 -0.4171541436)
(0 0 -0.4143659938)
(0 0 -0.4159559954)
(0 0 -0.4140408228)
(0 0 -0.4155411921)
(0 0 -0.4128497064)
(0 0 -0.4137853152)
(0 0 -0.4139575447)
(0 0 -0.4127996601)
(0 0 -0.4110674106)
(0 0 -0.4145302349)
(0 0 -0.4154139495)
(0 0 -0.4141094497)
(0 0 -0.4165401876)
(0 0 -0.4170251894)
(0 0 -0.4138661152)
(0 0 -0.4146814956)
(0 0 -0.4152082858)
(0 0 -0.4144113954)
(0 0 -0.415133753)
(0 0 -0.4123549212)
(0 0 -0.4147220349)
(0 0 -0.4158927635)
(0 0 -0.4159390837)
(0 0 -0.4135503021)
(0 0 -0.4147108534)
(0 0 -0.4119372268)
(0 0 -0.414892249)
(0 0 -0.4143950747)
(0 0 -0.4150151195)
(0 0 -0.4144771922)
(0 0 -0.4144308719)
(0 0 -0.4140221263)
(0 0 -0.4127161199)
(0 0 -0.4134511029)
(0 0 -0.4141112552)
(0 0 -0.4169951545)
(0 0 -0.4148542222)
(0 0 -0.4141345886)
(0 0 -0.4125571508)
(0 0 -0.4163755237)
(0 0 -0.4142518708)
(0 0 -0.4139133097)
(0 0 -0.9559858212)
(0 0 -0.8230069616)
(0 0 -0.6755942525)
(0 0 -0.5906087393)
(0 0 -0.5328809125)
(0 0 -0.4975574823)
(0 0 -0.4668799285)
(0 0 -0.4488605642)
(0 0 -0.4423160811)
(0 0 -0.4303941326)
(0 0 -0.4262169705)
(0 0 -0.4229061033)
(0 0 -0.4241003863)
(0 0 -0.4242184047)
(0 0 -0.416874214)
(0 0 -0.417902353)
(0 0 -0.4128094924)
(0 0 -0.4179267916)
(0 0 -0.4143919853)
(0 0 -0.4133020538)
(0 0 -0.4131796906)
(0 0 -0.4142960123)
(0 0 -0.4126788865)
(0 0 -0.4158235151)
(0 0 -0.4141013678)
(0 0 -0.4137296109)
(0 0 -0.4127123465)
(0 0 -0.4146363434)
(0 0 -0.4134584218)
(0 0 -0.4144289452)
(0 0 -0.4154649761)
(0 0 -0.4184183768)
(0 0 -0.4129173725)
(0 0 -0.416184455)
(0 0 -0.414715064)
(0 0 -0.4158032341)
(0 0 -0.4145003425)
(0 0 -0.4123746593)
(0 0 -0.4160602418)
(0 0 -0.4144441775)
(0 0 -0.4150010807)
(0 0 -0.412447365)
(0 0 -0.4141949218)
(0 0 -0.413166452)
(0 0 -0.4143061274)
(0 0 -0.4131691615)
(0 0 -0.4161850075)
(0 0 -0.4144149414)
(0 0 -0.4145093929)
(0 0 -0.4145910277)
(0 0 -0.4123469907)
(0 0 -0.4134505456)
(0 0 -0.4153431575)
(0 0 -0.4161779021)
(0 0 -0.4147186816)
(0 0 -0.4143274098)
(0 0 -0.4125184475)
(0 0 -0.4181339678)
(0 0 -0.4134951335)
(0 0 -0.413351667)
(0 0 -1.032565398)
(0 0 -0.9487000543)
(0 0 -0.7902196003)
(0 0 -0.6643419103)
(0 0 -0.5838933508)
(0 0 -0.5324469455)
(0 0 -0.4934677389)
(0 0 -0.464710346)
(0 0 -0.4542616369)
(0 0 -0.43757115)
(0 0 -0.4286129644)
(0 0 -0.4259730833)
(0 0 -0.4253575399)
(0 0 -0.4241803291)
(0 0 -0.41955684)
(0 0 -0.4187990473)
(0 0 -0.4150493189)
(0 0 -0.4174477589)
(0 0 -0.4167479136)
(0 0 -0.4138613852)
(0 0 -0.4141463088)
(0 0 -0.4124167584)
(0 0 -0.4153352355)
(0 0 -0.4145949186)
(0 0 -0.4144660306)
(0 0 -0.4143620988)
(0 0 -0.4109854362)
(0 0 -0.4136791492)
(0 0 -0.4154860775)
(0 0 -0.4142979749)
(0 0 -0.4155775911)
(0 0 -0.4167085737)
(0 0 -0.4142413)
(0 0 -0.4170707201)
(0 0 -0.4139120982)
(0 0 -0.4153499099)
(0 0 -0.4135087393)
(0 0 -0.4129149097)
(0 0 -0.4151469238)
(0 0 -0.4150508192)
(0 0 -0.4164981211)
(0 0 -0.4129180745)
(0 0 -0.4145514931)
(0 0 -0.4142917859)
(0 0 -0.4138972086)
(0 0 -0.4140630481)
(0 0 -0.4146592385)
(0 0 -0.414782445)
(0 0 -0.4154599031)
(0 0 -0.4151435487)
(0 0 -0.4127629777)
(0 0 -0.4133344297)
(0 0 -0.416040221)
(0 0 -0.4155604236)
(0 0 -0.4143663045)
(0 0 -0.4145088903)
(0 0 -0.4136587342)
(0 0 -0.4162143729)
(0 0 -0.4152701483)
(0 0 -0.4121978363)
(0 0 -1.062982271)
(0 0 -1.037423001)
(0 0 -0.8858837559)
(0 0 -0.744285354)
(0 0 -0.6449292215)
(0 0 -0.5729675397)
(0 0 -0.5247768747)
(0 0 -0.4904822439)
(0 0 -0.4652374679)
(0 0 -0.4460225869)
(0 0 -0.4369687739)
(0 0 -0.4305289291)
(0 0 -0.4291136851)
(0 0 -0.4260152414)
(0 0 -0.4217211422)
(0 0 -0.4196197034)
(0 0 -0.4162027521)
(0 0 -0.4191900719)
(0 0 -0.4152031282)
(0 0 -0.4163526445)
(0 0 -0.4131427548)
(0 0 -0.415820893)
(0 0 -0.4125608819)
(0 0 -0.4150051929)
(0 0 -0.4148025993)
(0 0 -0.414943667)
(0 0 -0.4121614726)
(0 0 -0.4145473025)
(0 0 -0.4161793303)
(0 0 -0.4142273483)
(0 0 -0.4149629846)
(0 0 -0.4158381295)
(0 0 -0.416864932)
(0 0 -0.4162345651)
(0 0 -0.4121868159)
(0 0 -0.4154786371)
(0 0 -0.4140911103)
(0 0 -0.4136506608)
(0 0 -0.4151843347)
(0 0 -0.4143812057)
(0 0 -0.415424216)
(0 0 -0.4121062583)
(0 0 -0.414770602)
(0 0 -0.4132723928)
(0 0 -0.4139715526)
(0 0 -0.4138576798)
(0 0 -0.4146257687)
(0 0 -0.4152141515)
(0 0 -0.4145787324)
(0 0 -0.4152353006)
(0 0 -0.4130285896)
(0 0 -0.4141266812)
(0 0 -0.4146621158)
(0 0 -0.4176311888)
(0 0 -0.4134139668)
(0 0 -0.414081709)
(0 0 -0.4134264242)
(0 0 -0.4173271917)
(0 0 -0.4147604793)
(0 0 -0.4123522383)
(0 0 -1.081385981)
(0 0 -1.090147609)
(0 0 -0.9678411734)
(0 0 -0.8266010386)
(0 0 -0.7069759194)
(0 0 -0.6195546534)
(0 0 -0.556416534)
(0 0 -0.5106553552)
(0 0 -0.4826037162)
(0 0 -0.4564709581)
(0 0 -0.4442022562)
(0 0 -0.4351347736)
(0 0 -0.4307029125)
(0 0 -0.4300331855)
(0 0 -0.4234563831)
(0 0 -0.4215025561)
(0 0 -0.4192635235)
(0 0 -0.4187274587)
(0 0 -0.4158289008)
(0 0 -0.4147982912)
(0 0 -0.4130304229)
(0 0 -0.4158365812)
(0 0 -0.4128380215)
(0 0 -0.4159600961)
(0 0 -0.4135303508)
(0 0 -0.4151414807)
(0 0 -0.4121963615)
(0 0 -0.4129994063)
(0 0 -0.4173318882)
(0 0 -0.4135724041)
(0 0 -0.415253132)
(0 0 -0.4131513486)
(0 0 -0.4164265771)
(0 0 -0.4170588198)
(0 0 -0.4122245641)
(0 0 -0.4145462226)
(0 0 -0.4130339275)
(0 0 -0.4128533163)
(0 0 -0.4165411257)
(0 0 -0.4148798781)
(0 0 -0.4149629782)
(0 0 -0.4134381576)
(0 0 -0.4154884633)
(0 0 -0.4134228158)
(0 0 -0.4135360366)
(0 0 -0.4138294239)
(0 0 -0.4151427734)
(0 0 -0.4140469965)
(0 0 -0.4150703452)
(0 0 -0.4150329062)
(0 0 -0.4136102811)
(0 0 -0.414524052)
(0 0 -0.4154289387)
(0 0 -0.4155986727)
(0 0 -0.4129830532)
(0 0 -0.4134091786)
(0 0 -0.414115276)
(0 0 -0.4162247107)
(0 0 -0.4163758393)
(0 0 -0.4120922226)
(0 0 -1.109288244)
(0 0 -1.117518793)
(0 0 -1.029697313)
(0 0 -0.9026789926)
(0 0 -0.7732660538)
(0 0 -0.6755187084)
(0 0 -0.5966404904)
(0 0 -0.542575518)
(0 0 -0.5040702932)
(0 0 -0.4727528083)
(0 0 -0.4558180637)
(0 0 -0.4460345536)
(0 0 -0.4348262567)
(0 0 -0.4318567354)
(0 0 -0.4246291953)
(0 0 -0.426295214)
(0 0 -0.420537397)
(0 0 -0.419378213)
(0 0 -0.415567122)
(0 0 -0.414737029)
(0 0 -0.4129978469)
(0 0 -0.4167676785)
(0 0 -0.4115090368)
(0 0 -0.4162565259)
(0 0 -0.4137928841)
(0 0 -0.4158666162)
(0 0 -0.4114238034)
(0 0 -0.4105350464)
(0 0 -0.4171977536)
(0 0 -0.4121422051)
(0 0 -0.4134100869)
(0 0 -0.4154227996)
(0 0 -0.4182891854)
(0 0 -0.4169049554)
(0 0 -0.4129827419)
(0 0 -0.4131371409)
(0 0 -0.4153807406)
(0 0 -0.4152024641)
(0 0 -0.4151306873)
(0 0 -0.4158722778)
(0 0 -0.4154541103)
(0 0 -0.4130065167)
(0 0 -0.415718432)
(0 0 -0.4142522896)
(0 0 -0.412861829)
(0 0 -0.4138267519)
(0 0 -0.41398083)
(0 0 -0.4150492645)
(0 0 -0.4148222861)
(0 0 -0.4146831956)
(0 0 -0.4137520678)
(0 0 -0.4163052382)
(0 0 -0.4136535453)
(0 0 -0.4165848203)
(0 0 -0.4121824017)
(0 0 -0.414472824)
(0 0 -0.4131868251)
(0 0 -0.4155255794)
(0 0 -0.4141136774)
(0 0 -0.4130839213)
(0 0 -1.108028597)
(0 0 -1.130200571)
(0 0 -1.07041581)
(0 0 -0.9663196796)
(0 0 -0.8372528365)
(0 0 -0.7283631629)
(0 0 -0.643941255)
(0 0 -0.5753044169)
(0 0 -0.5277186059)
(0 0 -0.4919618374)
(0 0 -0.4659105458)
(0 0 -0.4535268561)
(0 0 -0.4422282528)
(0 0 -0.4345327371)
(0 0 -0.4281566026)
(0 0 -0.4261785022)
(0 0 -0.4240286908)
(0 0 -0.4211859298)
(0 0 -0.4169388114)
(0 0 -0.4168287986)
(0 0 -0.4130724754)
(0 0 -0.4182938956)
(0 0 -0.4126258499)
(0 0 -0.4165631113)
(0 0 -0.4156125781)
(0 0 -0.4154766086)
(0 0 -0.4124455745)
(0 0 -0.411585366)
(0 0 -0.4161266203)
(0 0 -0.413378884)
(0 0 -0.4137073725)
(0 0 -0.4161536127)
(0 0 -0.4191328402)
(0 0 -0.4168022703)
(0 0 -0.4139674195)
(0 0 -0.4116508906)
(0 0 -0.4157299174)
(0 0 -0.4155980892)
(0 0 -0.4146360595)
(0 0 -0.414521815)
(0 0 -0.415262729)
(0 0 -0.4123257975)
(0 0 -0.4147793902)
(0 0 -0.4137279778)
(0 0 -0.4128280049)
(0 0 -0.4128996862)
(0 0 -0.4153761405)
(0 0 -0.414629217)
(0 0 -0.4148559825)
(0 0 -0.4133313523)
(0 0 -0.4144632689)
(0 0 -0.4157651257)
(0 0 -0.414670146)
(0 0 -0.41465394)
(0 0 -0.4141153514)
(0 0 -0.4124856717)
(0 0 -0.4141016137)
(0 0 -0.4147300751)
(0 0 -0.4162915463)
(0 0 -0.4132159976)
(0 0 -1.11158613)
(0 0 -1.151748037)
(0 0 -1.107003888)
(0 0 -1.007681488)
(0 0 -0.8880871345)
(0 0 -0.781383452)
(0 0 -0.6867790891)
(0 0 -0.6120841954)
(0 0 -0.5532808529)
(0 0 -0.5152037577)
(0 0 -0.4827779408)
(0 0 -0.4646960625)
(0 0 -0.4513309578)
(0 0 -0.4353195275)
(0 0 -0.433182088)
(0 0 -0.4275446107)
(0 0 -0.4250603045)
(0 0 -0.4208249868)
(0 0 -0.4175028092)
(0 0 -0.4156224043)
(0 0 -0.4153089443)
(0 0 -0.4158785686)
(0 0 -0.4125019754)
(0 0 -0.4174614705)
(0 0 -0.4150310242)
(0 0 -0.4154302881)
(0 0 -0.4115667063)
(0 0 -0.4112575315)
(0 0 -0.4150803732)
(0 0 -0.4152596016)
(0 0 -0.4113394271)
(0 0 -0.4173229331)
(0 0 -0.4184887164)
(0 0 -0.4172529049)
(0 0 -0.4136554155)
(0 0 -0.4119062852)
(0 0 -0.4162869426)
(0 0 -0.4147460869)
(0 0 -0.4152356318)
(0 0 -0.4147035104)
(0 0 -0.4151768659)
(0 0 -0.4146821836)
(0 0 -0.4144319109)
(0 0 -0.4147434466)
(0 0 -0.4134956633)
(0 0 -0.4124246554)
(0 0 -0.4160574828)
(0 0 -0.415569848)
(0 0 -0.4139021914)
(0 0 -0.4132221516)
(0 0 -0.4143154375)
(0 0 -0.4168622453)
(0 0 -0.4157411665)
(0 0 -0.4145657398)
(0 0 -0.4132906766)
(0 0 -0.4130109421)
(0 0 -0.4143975559)
(0 0 -0.4144481218)
(0 0 -0.4150147529)
(0 0 -0.4135339477)
(0 0 -1.135290031)
(0 0 -1.165745231)
(0 0 -1.122815314)
(0 0 -1.051905514)
(0 0 -0.9423279404)
(0 0 -0.834432831)
(0 0 -0.7309619021)
(0 0 -0.6543642228)
(0 0 -0.5845419563)
(0 0 -0.5378897769)
(0 0 -0.4999998785)
(0 0 -0.4766217714)
(0 0 -0.4600208868)
(0 0 -0.4441140339)
(0 0 -0.4386933022)
(0 0 -0.4329666311)
(0 0 -0.4281177574)
(0 0 -0.4248592882)
(0 0 -0.4198386099)
(0 0 -0.4159019958)
(0 0 -0.4150142013)
(0 0 -0.4188252706)
(0 0 -0.4138259841)
(0 0 -0.4157874698)
(0 0 -0.4171781674)
(0 0 -0.4138743978)
(0 0 -0.4111726297)
(0 0 -0.4134355567)
(0 0 -0.413381822)
(0 0 -0.4144465668)
(0 0 -0.4117674823)
(0 0 -0.416723261)
(0 0 -0.4174161023)
(0 0 -0.4174089853)
(0 0 -0.4131197613)
(0 0 -0.4133610071)
(0 0 -0.4165709593)
(0 0 -0.415456379)
(0 0 -0.414929977)
(0 0 -0.4145655276)
(0 0 -0.4146012026)
(0 0 -0.4135126702)
(0 0 -0.4157896719)
(0 0 -0.4143913854)
(0 0 -0.4136777072)
(0 0 -0.4113758067)
(0 0 -0.4173645907)
(0 0 -0.4141790779)
(0 0 -0.4127167021)
(0 0 -0.4125722689)
(0 0 -0.4136333327)
(0 0 -0.4170706768)
(0 0 -0.4152379856)
(0 0 -0.4142903337)
(0 0 -0.4142692787)
(0 0 -0.4141586323)
(0 0 -0.4139257728)
(0 0 -0.414608433)
(0 0 -0.4151449152)
(0 0 -0.414149486)
(0 0 -1.117769912)
(0 0 -1.157060179)
(0 0 -1.137327373)
(0 0 -1.07888056)
(0 0 -0.9847958224)
(0 0 -0.8786472211)
(0 0 -0.7805393665)
(0 0 -0.6972191972)
(0 0 -0.621440751)
(0 0 -0.5671172299)
(0 0 -0.5214860356)
(0 0 -0.4899152532)
(0 0 -0.4724997091)
(0 0 -0.4492921873)
(0 0 -0.4436603631)
(0 0 -0.4364582568)
(0 0 -0.4316043435)
(0 0 -0.4272577264)
(0 0 -0.4206900111)
(0 0 -0.4189011045)
(0 0 -0.4155113388)
(0 0 -0.4165840119)
(0 0 -0.4153004527)
(0 0 -0.4164464159)
(0 0 -0.4164637292)
(0 0 -0.415006617)
(0 0 -0.4135846344)
(0 0 -0.4137520836)
(0 0 -0.4115592446)
(0 0 -0.4162247745)
(0 0 -0.4126803693)
(0 0 -0.4152203989)
(0 0 -0.4166976813)
(0 0 -0.4180495824)
(0 0 -0.4117751882)
(0 0 -0.4129896786)
(0 0 -0.4141971788)
(0 0 -0.416290129)
(0 0 -0.41574325)
(0 0 -0.4137756367)
(0 0 -0.4124308896)
(0 0 -0.4136985234)
(0 0 -0.4160687567)
(0 0 -0.4136807903)
(0 0 -0.4140911741)
(0 0 -0.4119767738)
(0 0 -0.4178103986)
(0 0 -0.4131202526)
(0 0 -0.4149976017)
(0 0 -0.4125915355)
(0 0 -0.4144498918)
(0 0 -0.4168857859)
(0 0 -0.4164646599)
(0 0 -0.4132955985)
(0 0 -0.4149594029)
(0 0 -0.415193106)
(0 0 -0.4143813635)
(0 0 -0.4150148699)
(0 0 -0.4148962384)
(0 0 -0.4135515869)
(0 0 -1.123285446)
(0 0 -1.163908886)
(0 0 -1.146037353)
(0 0 -1.098757627)
(0 0 -1.009352689)
(0 0 -0.925784456)
(0 0 -0.8272698747)
(0 0 -0.7401746699)
(0 0 -0.657734844)
(0 0 -0.5951581881)
(0 0 -0.5466154111)
(0 0 -0.5071631616)
(0 0 -0.4800458555)
(0 0 -0.4592210529)
(0 0 -0.4502820892)
(0 0 -0.438809789)
(0 0 -0.4378183878)
(0 0 -0.4291889057)
(0 0 -0.4222806719)
(0 0 -0.4208892478)
(0 0 -0.4170513513)
(0 0 -0.4175173249)
(0 0 -0.4156126994)
(0 0 -0.4138121659)
(0 0 -0.4160535424)
(0 0 -0.4148972633)
(0 0 -0.4140498597)
(0 0 -0.4148395968)
(0 0 -0.4131825549)
(0 0 -0.4157137333)
(0 0 -0.4130040891)
(0 0 -0.4169999488)
(0 0 -0.417431961)
(0 0 -0.4155853689)
(0 0 -0.4134050779)
(0 0 -0.4128047194)
(0 0 -0.4142292446)
(0 0 -0.4158181197)
(0 0 -0.4176424505)
(0 0 -0.4136945973)
(0 0 -0.4133800394)
(0 0 -0.4167458495)
(0 0 -0.4160964123)
(0 0 -0.4142732658)
(0 0 -0.4138842744)
(0 0 -0.4121720795)
(0 0 -0.4171774722)
(0 0 -0.4129138512)
(0 0 -0.4134932792)
(0 0 -0.4122091923)
(0 0 -0.4145260992)
(0 0 -0.4164577315)
(0 0 -0.4144211531)