/*--------------------------------*- C++ -*----------------------------------*\
| =========                 |                                                 |
| \\      /  F ield         | OpenFOAM: The Open Source CFD Toolbox           |
|  \\    /   O peration     | Version:  v1706                                 |
|   \\  /    A nd           | Web:      www.OpenFOAM.com                      |
|    \\/     M anipulation  |                                                 |
\*---------------------------------------------------------------------------*/
FoamFile
{
    version     2.0;
    format      ascii;
    class       volScalarField;
    location    "0.04";
    object      Ma_N2cold;
}
// * * * * * * * * * * * * * * * * * * * * * * * * * * * * * * * * * * * * * //

dimensions      [0 0 0 0 0 0 0];


internalField   nonuniform List<scalar> 
6000
(
3.985300452
3.946276897
3.84574302
3.549030344
2.708419955
3.990178417
3.929835393
3.782472513
3.431513336
2.857452584
3.979372334
3.916693378
3.769922726
3.495983683
3.134024402
3.981733037
3.933195407
3.812187875
3.598614582
3.38126159
3.976499418
3.926096273
3.841569065
3.70558583
3.551291863
3.976167473
3.941827642
3.884334904
3.793486941
3.689375796
3.983715302
3.953875971
3.905839971
3.84678236
3.765050675
3.990984818
3.969928254
3.928850524
3.886781379
3.823254332
3.985233859
3.97498022
3.959483066
3.91109531
3.888206738
3.989080459
3.976648017
3.963349424
3.935903919
3.916377341
3.993905385
3.981367447
3.973196282
3.955625477
3.94566711
3.994731013
3.994597366
3.977938361
3.968441523
3.953449808
3.996278337
3.993828912
3.986141925
3.974998208
3.960870382
4.005705667
3.996153918
3.990953686
3.986592583
3.977170596
3.993776829
3.993400428
3.991406594
3.980886949
3.983619866
4.003093705
3.997849949
3.998802894
3.999720885
3.994543489
3.994523079
4.000624449
3.993615116
3.997214798
3.994408793
3.998234317
3.998374298
3.996955685
3.997723606
3.997517425
3.994166838
3.99657722
3.994869276
3.99036101
3.986279829
3.996226711
3.997445649
3.999513347
3.993473792
3.998158782
3.998520705
3.998762032
3.993412222
4.003869425
3.997990292
3.996344837
3.997787764
3.999790435
3.995524092
3.997814472
4.007391031
4.007589757
4.006124796
3.999729918
3.994196506
4.000556767
4.002541369
4.005891631
4.004236105
4.005940694
4.00034406
4.001101188
3.99530765
3.994244599
3.992485355
3.99392777
3.994520595
3.994938243
3.999090451
3.999007578
3.999375619
3.998777552
3.997430472
4.001727739
4.000474114
3.998744482
3.997708649
4.002791017
4.000704721
3.999720468
3.988882126
3.997787616
3.994895788
3.999239787
4.001147048
3.995870585
3.99375682
3.997462179
3.999374919
3.996936537
3.994815379
3.995163908
3.996563928
3.998254751
3.99312695
3.99993106
3.996678822
3.995377916
3.996590536
3.998821546
3.996974525
3.995947693
4.000470514
3.997193475
3.995077399
3.999149998
4.003895432
4.002605467
4.007067
4.007183964
3.996326172
3.995447919
4.002245695
3.99570328
3.993422265
4.002733791
3.99953147
3.999992728
3.993107901
3.999551766
4.003405966
4.000294785
3.998092125
3.999630771
3.998479969
3.99829467
4.000064016
3.995829392
4.000956684
4.002227514
4.001543976
4.002519969
4.008782882
4.01265626
4.009165915
4.000122857
3.998607705
3.996754801
3.995417622
3.996831956
4.003424319
4.001398972
4.003964833
4.001030054
4.000862171
4.004970416
4.000474926
4.002795319
4.00003306
4.000766379
4.005272044
4.005305034
4.005800682
4.008967078
4.003224836
3.999801415
4.001141144
4.002829792
4.003480335
4.002274509
3.997450517
4.001333172
3.999460057
3.996277559
4.001434395
4.003594659
4.005237971
4.003029166
4.00264103
4.004365699
4.002774916
4.003216936
4.002749424
4.004003291
4.003888082
3.996451346
3.997390156
3.995119977
3.997240594
3.99507987
3.999595012
3.996362988
3.993806576
3.996787082
3.994763595
4.004670897
4.001287484
4.005001451
4.005570883
4.006533624
3.997340699
4.001329588
3.998959666
3.999600514
3.999757895
3.996424949
3.999570768
4.000846709
3.999649488
3.995720809
3.997895533
3.99392464
3.996226852
3.998563086
3.999714731
3.994038332
3.996295472
3.995642243
3.996067267
3.996626146
4.000038871
4.000125019
3.997943644
3.996920381
3.996386129
3.999554186
4.003425513
4.005625525
4.007531837
4.008254479
4.002968614
3.999213229
3.998789848
3.999307245
4.00178051
4.00069923
4.005792043
4.006738949
4.003977114
3.998500517
3.99839352
3.99464987
3.988901801
3.988344155
3.998045403
4.000203506
4.002031131
4.001506357
4.00282555
4.001708027
1.758775
1.536348649
1.381037766
1.276275439
1.182513743
1.11135459
1.060444664
1.004209374
0.9491085456
0.9180545466
0.8859476296
0.8530494281
0.8337438301
0.8031598066
0.7782502632
0.7543251349
0.7341083889
0.7146901326
0.7022545419
0.6820118591
0.666848878
0.6581122147
0.6479888257
0.6366174358
0.6214708918
0.6141317282
0.605171372
0.5949826527
0.5796714234
0.5734915047
0.5648816162
0.5539756336
0.542603889
0.5389417095
0.5322341875
0.5189656898
0.5103528776
0.5024966607
0.5023530071
0.4959251175
0.4871371013
0.4842081458
0.473800239
0.469554476
0.4664903153
0.4611455023
0.4514302893
0.4494317361
0.4460465183
0.4404955421
0.438209331
0.4325418927
0.4275671334
0.4222073928
0.4151807253
0.4104819932
0.4110446296
0.4057216291
0.4018288017
0.4005083306
0.396827935
0.3926146617
0.3874062301
0.3808608051
0.3791300742
0.3797378608
0.3781233862
0.3754314651
0.3697628092
0.3699728191
0.3698745217
0.3677778827
0.3626522635
0.3616546149
0.3551465574
0.3547604956
0.3525182075
0.3483476813
0.3514517023
0.3476483307
0.3521858401
0.3500897752
0.3518423493
0.3527674931
0.357402138
0.3600869002
0.3656074292
0.374790066
0.3810364916
0.3969797038
0.412345509
0.4312634731
0.4635711427
0.5222213339
0.6803546716
2.370005425
2.107922105
1.971682655
1.865312529
1.7690901
1.676059433
1.597100254
1.5245756
1.451112857
1.405945462
1.343412614
1.298242842
1.248523902
1.207864978
1.163335666
1.134438369
1.100741348
1.078013576
1.050830159
1.020420099
0.9997707085
0.9761777705
0.956612827
0.9346717697
0.9137051987
0.8998945237
0.8815391951
0.86903332
0.8510742207
0.8350098183
0.8178362421
0.8094174155
0.7944885427
0.7781267767
0.7714336236
0.7569978003
0.7437850635
0.7313476521
0.7254689369
0.7159273863
0.7022154155
0.68911302
0.6828860336
0.6732937851
0.6674180568
0.6594235614
0.6486859295
0.6497990582
0.6389544003
0.6298419636
0.6172604561
0.6198899769
0.6053190551
0.6002725443
0.5914600438
0.5928907262
0.585303784
0.5825939905
0.5768872349
0.5685443247
0.5659185962
0.5598930435
0.5528323293
0.5543819511
0.5463816061
0.5372812971
0.5276365057
0.5294566654
0.5230802675
0.5209635266
0.5169825307
0.5140432627
0.5073833227
0.4990925248
0.5023118138
0.4967584126
0.4945974948
0.4944679291
0.4909078001
0.4888673194
0.492216306
0.4894199166
0.4908356764
0.4920056781
0.4930412295
0.5025017842
0.5068989767
0.5134632759
0.5269476413
0.5426459137
0.5626464242
0.594880169
0.6395519883
0.7214729951
0.9456497317
2.795779108
2.534135341
2.338677547
2.239243288
2.14630824
2.07378763
2.006577592
1.927593332
1.860653865
1.790725902
1.728559919
1.672058808
1.612930718
1.562346184
1.510623317
1.472221021
1.435403638
1.397978828
1.359215555
1.317626145
1.286163884
1.258794114
1.22840639
1.201618116
1.177001678
1.150927248
1.131595987
1.111052487
1.087576991
1.062140536
1.044096928
1.031375981
1.004551326
0.9917120589
0.9767492942
0.9668092818
0.9517517711
0.9309453099
0.9194943224
0.903263609
0.89216517
0.8791416554
0.8659712386
0.8563018253
0.8468522854
0.8360511795
0.8206587923
0.8151083505
0.809251675
0.8005219847
0.7870415628
0.7758843132
0.765555615
0.7663791245
0.7567570263
0.7449683351
0.7458767851
0.7288510816
0.7209156935
0.7163739141
0.7157282167
0.701666979
0.6959517028
0.6960659322
0.6861230055
0.6746750813
0.6719508646
0.6638325753
0.6567148897
0.6492394022
0.6466177305
0.6381659406
0.6365447395
0.6314689878
0.6274016638
0.6193099862
0.6174317638
0.6192747237
0.6177470208
0.6175662886
0.6122776959
0.6095220051
0.6144562484
0.6140160251
0.6150714689
0.6173144796
0.6251655463
0.636503012
0.649396822
0.6617918502
0.6890219184
0.7262517509
0.7810102711
0.8756851785
1.08596188
3.118447786
2.881683384
2.675591517
2.538083175
2.42932112
2.352426616
2.292135029
2.237839877
2.167790979
2.108173935
2.05219245
1.998750441
1.931974135
1.883071265
1.833028939
1.774364183
1.730489853
1.687759247
1.645293525
1.598688019
1.561533729
1.532115126
1.497405046
1.46574127
1.432583635
1.40052944
1.373970704
1.346345989
1.323291895
1.294162866
1.26723886
1.24433778
1.221450947
1.193943259
1.178560614
1.15880476
1.147844652
1.127495888
1.109957493
1.094888155
1.08397749
1.066727992
1.051242256
1.032917123
1.014377448
1.000609221
0.9954218833
0.9774114979
0.9649806732
0.9495640918
0.9458545073
0.927797357
0.9179841095
0.9090651167
0.9011295778
0.8896717867
0.8863367034
0.8744618459
0.8639768573
0.8554533151
0.8468577374
0.8353857394
0.8267925879
0.8208227937
0.8162260929
0.8102116073
0.7988684303
0.7940320499
0.7853800201
0.7803410681
0.7680108172
0.7648287091
0.7505656244
0.7469775068
0.7453835301
0.7439969607
0.7359616762
0.7354339844
0.7317401144
0.7331482204
0.7242107955
0.7248722469
0.7193046707
0.7236276627
0.7270865267
0.7255205726
0.7333563258
0.7433765801
0.7569293004
0.7786271455
0.799389843
0.8380647212
0.9035161985
1.000000999
1.200914359
3.358376318
3.167730483
2.974985762
2.822210776
2.695729934
2.606741578
2.534506801
2.468515826
2.406650006
2.350726005
2.304261198
2.242871594
2.190550248
2.158052783
2.105585412
2.054483012
2.00164813
1.953328503
1.908378221
1.870743877
1.835018925
1.7869352
1.75066665
1.714687269
1.675967513
1.640501484
1.601385579
1.576935039
1.537493727
1.509691896
1.478424317
1.452622891
1.43613754
1.4060642
1.383929333
1.361328079
1.344712489
1.317582162
1.299449888
1.274291532
1.260835892
1.245028282
1.223031705
1.204511399
1.19238018
1.168619098
1.154234179
1.143501174
1.132922729
1.11529086
1.094132464
1.085473745
1.071907258
1.063526198
1.045184466
1.037679487
1.022206691
1.014239065
1.001319612
0.9891844663
0.980398219
0.9723902168
0.9574717397
0.956424472
0.9434124443
0.9326521848
0.9208782785
0.9130326299
0.9006700143
0.8960251651
0.8890152941
0.8807695664
0.867819475
0.8604028405
0.855023017
0.8587523934
0.8470338074
0.8493105381
0.8460325354
0.8412201744
0.8338220723
0.830099944
0.8322987212
0.8327248251
0.8339068645
0.8402380397
0.8413259941
0.8551540018
0.8654354455
0.8832937816
0.9106786898
0.9468253425
1.013350708
1.108796612
1.2830182
3.543542541
3.370872699
3.217345956
3.081575671
2.957687066
2.850625459
2.757291502
2.677860924
2.617118383
2.558825591
2.508989653
2.457133761
2.414765533
2.378132269
2.331689201
2.287417463
2.237303383
2.193977611
2.149277474
2.115037135
2.069592224
2.030117927
1.98873522
1.947977927
1.908697423
1.875563603
1.830754408
1.796308929
1.7572191
1.725071601
1.693989907
1.660503499
1.636622697
1.610921439
1.576389328
1.55665342
1.533369268
1.511546116
1.485193093
1.458753042
1.438614861
1.422882063
1.400965763
1.381889811
1.360392034
1.337341291
1.314826179
1.308062692
1.291704168
1.276476299
1.257880713
1.238948795
1.224530594
1.212878698
1.186742839
1.176311854
1.167475697
1.154113005
1.141150908
1.134894435
1.115489515
1.09891095
1.083175991
1.089201593
1.076568067
1.066800121
1.053972828
1.035105768
1.026467651
1.015309914
1.004311292
1.002791866
0.9916843962
0.988114369
0.9742888327
0.9670745715
0.9580670918
0.9571335277
0.9546626069
0.9484380015
0.9420498221
0.9457591776
0.9444244077
0.9396706584
0.9338946894
0.9339870862
0.9442885621
0.9574397401
0.96848389
0.9839647271
1.014490396
1.055231914
1.104433061
1.201170413
1.351995283
3.670536242
3.550552926
3.422637327
3.294031577
3.187184919
3.073696005
2.964988365
2.878958606
2.809202639
2.742535229
2.684578328
2.641309382
2.594014629
2.56215033
2.523076176
2.481010256
2.43775821
2.39628058
2.356783226
2.320338525
2.278444836
2.235888331
2.202125155
2.162711836
2.125203098
2.083535807
2.03834437
2.011905047
1.972030089
1.940754172
1.905756965
1.864017958
1.837516335
1.808192006
1.773493965
1.749073258
1.720564958
1.699508376
1.670169624
1.639535441
1.623689107
1.601291137
1.575445352
1.555348034
1.531170607
1.508617506
1.49393
1.472807212
1.450337172
1.431377573
1.407551837
1.391970887
1.377341217
1.35693259
1.333095288
1.315019913
1.302997998
1.301941308
1.281923265
1.26768001
1.251785312
1.240207604
1.230622563
1.217881391
1.208013826
1.191002277
1.174452148
1.160541709
1.144080816
1.135047078
1.122857284
1.118360852
1.110402248
1.104293575
1.090655695
1.085763183
1.075598967
1.069521278
1.063366378
1.059178948
1.049940828
1.047119411
1.050514247
1.050853014
1.043061512
1.049077086
1.046935318
1.061213661
1.073044282
1.086972917
1.114552627
1.152781993
1.201982081
1.29364594
1.420180509
3.767059931
3.681632849
3.591645616
3.458758878
3.36856467
3.25686956
3.166033795
3.07512153
2.989113947
2.911542088
2.852837789
2.797978675
2.756112595
2.705298197
2.665955192
2.639521592
2.601636002
2.570782719
2.535873813
2.497541907
2.464272874
2.4273315
2.389132856
2.352366881
2.316016039
2.280851313
2.241424782
2.208380063
2.172526545
2.138963787
2.10292722
2.072997257
2.032071566
1.998482041
1.964098969
1.939904042
1.908468966
1.877258241
1.854361395
1.827769936
1.796420413
1.769988215
1.746691331
1.728466705
1.696264467
1.677138076
1.655522016
1.635934318
1.605333825
1.579997048
1.561716793
1.544578696
1.528481898
1.507628687
1.482728497
1.469335203
1.451989657
1.433499316
1.416438575
1.403558403
1.384803117
1.376122097
1.357439842
1.346132817
1.333931553
1.320758205
1.301555882
1.291688328
1.280732617
1.26498205
1.244751837
1.236478072
1.223417224
1.221700417
1.21106304
1.207438362
1.192535952
1.185248519
1.168468572
1.165468843
1.16566582
1.159468509
1.157427789
1.15070294
1.147971534
1.145877768
1.15238788
1.162290159
1.174375876
1.191383211
1.211939795
1.24954402
1.295517776
1.369649775
1.495836064
3.82981727
3.772764043
3.707284236
3.620895971
3.529549536
3.4388617
3.341421967
3.256200062
3.166412436
3.095487372
3.022928595
2.960422258
2.907903465
2.855246367
2.815910687
2.774003574
2.74371495
2.706168541
2.676755252
2.641183599
2.618505393
2.589752552
2.562011672
2.520871602
2.486269974
2.450631699
2.423312533
2.385755243
2.344262075
2.314360216
2.28543293
2.252583431
2.215234677
2.192129384
2.150027071
2.119054578
2.086235274
2.056484188
2.026075019
2.002674743
1.967840871
1.940093813
1.91767843
1.889715791
1.862925844
1.843739187
1.81371046
1.794881458
1.768905175
1.738732355
1.719781379
1.706811496
1.68777475
1.659506063
1.639388584
1.615381675
1.598655086
1.577203957
1.55753067
1.543290327
1.522320331
1.51306949
1.490608875
1.476763125
1.45758235
1.446788353
1.43401027
1.422036881
1.403076301
1.381647475
1.373897002
1.36759081
1.347960505
1.33305952
1.324110084
1.31672446
1.300160189
1.295307032
1.281267307
1.280424894
1.27054085
1.261293939
1.257012996
1.25575987
1.248175258
1.243505641
1.250858775
1.261179034
1.268658898
1.287760458
1.307136071
1.339953019
1.37944011
1.452988005
1.561921784
3.891823934
3.836127834
3.782858474
3.726886807
3.658052906
3.588317981
3.505548882
3.420717217
3.34171371
3.272113067
3.18985817
3.128803458
3.063000773
2.997015467
2.95091116
2.904800377
2.873438746
2.828854405
2.801326985
2.772728357
2.74351677
2.717121414
2.684809546
2.660484979
2.625861765
2.59528011
2.568544898
2.542137248
2.515895584
2.480346334
2.445757025
2.413052902
2.382517545
2.352358526
2.324833212
2.293377889
2.252782777
2.230607188
2.1967592
2.166714465
2.129724847
2.112243783
2.082608878
2.05046995
2.028730826
2.000490573
1.973059093
1.955032664
1.923775335
1.893931593
1.879484927
1.861091605
1.837223731
1.810078365
1.78584056
1.767215821
1.739939186
1.724562204
1.696812467
1.679391438
1.661969882
1.648746295
1.632162132
1.616891839
1.597739616
1.573611882
1.55708169
1.540788183
1.528640082
1.50592123
1.495819966
1.484030833
1.45812809
1.450493087
1.442813486
1.425689616
1.418037834
1.402873085
1.392752726
1.3855897
1.375768464
1.372399701
1.3738634
1.363234382
1.355976574
1.354364449
1.357293436
1.366890371
1.374384809
1.385669027
1.402413384
1.422540067
1.474974503
1.541161821
1.628384507
3.9172815
3.887462782
3.850872451
3.814884976
3.749425954
3.693871761
3.633006903
3.56801285
3.490810188
3.427384011
3.351378844
3.274619735
3.205440915
3.143656249
3.08135878
3.039771266
2.996571019
2.958274408
2.917308121
2.887328954
2.857691774
2.834634007
2.802848531
2.775484816
2.752874236
2.726617274
2.702331235
2.68137993
2.651774978
2.625039813
2.597642523
2.564230573
2.534828521
2.503656611
2.472443733
2.435887491
2.401303836
2.381351663
2.35055609
2.322659184
2.29049714
2.265719232
2.247417872
2.209936035
2.184685948
2.158229176
2.131065041
2.107710092
2.084371708
2.046479248
2.029116237
1.998343846
1.974825636
1.953145767
1.937754315
1.907087734
1.881387703
1.866992868
1.842087633
1.824065009
1.804225679
1.783648539
1.762603007
1.75082844
1.730454009
1.706124604
1.685697599
1.669440227
1.650211244
1.632358855
1.616262327
1.604759546
1.586734967
1.577204403
1.558744942
1.543126832
1.537800873
1.518132849
1.512336606
1.496204453
1.48890839
1.47883305
1.474368925
1.463924678
1.463185994
1.459439158
1.456529266
1.463958688
1.468541172
1.481969237
1.494241928
1.514340498
1.554176898
1.610743229
1.698059847
3.944833649
3.925464967
3.904848602
3.870168484
3.835517211
3.776666114
3.732882005
3.66738569
3.614740064
3.559085271
3.492274589
3.430283052
3.357341203
3.2824603
3.228547859
3.169841826
3.121977669
3.077311037
3.036128541
2.993699106
2.962082403
2.93594166
2.903518166
2.881021933
2.86257777
2.835496939
2.810867934
2.789588127
2.770504551
2.741176535
2.716464276
2.691690321
2.670271486
2.64182703
2.617224374
2.583643976
2.551242627
2.527440394
2.503157089
2.483045448
2.440426684
2.413380114
2.390539812
2.354658486
2.339269178
2.308744251
2.279950007
2.255907924
2.230405529
2.195707178
2.172908784
2.146668122
2.124819571
2.100278028
2.080859333
2.051470203
2.022928897
2.005219254
1.981880341
1.959992681
1.943007742
1.92153931
1.900026836
1.883776067
1.854171768
1.832770183
1.813827995
1.796824952
1.77906263
1.766609638
1.745736781
1.72382771
1.703773416
1.695104803
1.676328002
1.665807981
1.652696351
1.638403809
1.622711645
1.611235403
1.601261938
1.585969298
1.583595526
1.575055518
1.573206575
1.561565714
1.559630448
1.568327132
1.567929593
1.583085189
1.592544275
1.613894089
1.645188969
1.693053628
1.764851171
3.95250535
3.937223436
3.920850669
3.897457051
3.871174563
3.841970541
3.800172521
3.76233281
3.709892045
3.66525756
3.613100916
3.553979772
3.488065684
3.426719239
3.352485778
3.305062821
3.256926571
3.202165324
3.157391439
3.115548624
3.084731583
3.039020722
3.016036765
2.979091787
2.954224475
2.931624786
2.907945495
2.891812964
2.871706562
2.843393414
2.8222566
2.792490928
2.774107103
2.750808565
2.735843766
2.709839794
2.67638345
2.65586221
2.63429689
2.615114347
2.581550062
2.559789727
2.531221286
2.500919971
2.472649929
2.443546339
2.423247965
2.39556367
2.373128407
2.349765634
2.315689542
2.295966031
2.271512332
2.24711513
2.215214011
2.190310355
2.171591315
2.145444245
2.121579208
2.093312677
2.069676437
2.050505303
2.030405943
2.010442967
1.985747257
1.971671789
1.948425837
1.924355089
1.905621275
1.891857948
1.87006984
1.84825577
1.824600163
1.811700641
1.791038766
1.788215551
1.774664345
1.75632103
1.741570429
1.722726959
1.711285142
1.694872625
1.68359681
1.68811553
1.676873917
1.673289273
1.666904575
1.666018762
1.668905441
1.680924008
1.686058952
1.702506161
1.740854328
1.771323088
1.829346271
3.972045852
3.952868585
3.942450629
3.928958558
3.900377119
3.884038423
3.859553328
3.83162047
3.793978102
3.759345401
3.710903445
3.665287731
3.604709727
3.553989663
3.480761205
3.431956472
3.373971405
3.321679216
3.270958323
3.216043776
3.188184617
3.140591782
3.102905691
3.071254364
3.037874001
3.018193075
2.987194674
2.972334971
2.958129743
2.935330023
2.918465491
2.898515737
2.875891745
2.851357966
2.837583269
2.8150157
2.792282039
2.767792841
2.749898312
2.73014807
2.707163247
2.691528181
2.655080057
2.633828964
2.601971775
2.576767305
2.559407882
2.532019722
2.508318135
2.478390759
2.452565455
2.431018988
2.403190869
2.382284044
2.350123598
2.325883448
2.303716815
2.278152494
2.255178102
2.234297395
2.208869595
2.187909938
2.160768632
2.138236227
2.110425804
2.09234223
2.075998858
2.058572785
2.033163699
2.014705367
1.989937464
1.978632552
1.950886888
1.94087338
1.918269432
1.906990328
1.887190477
1.871964916
1.856493489
1.84159694
1.823295487
1.820124364
1.806135065
1.797489399
1.783818075
1.771619461
1.768418714
1.766280356
1.765376751
1.778611397
1.783137282
1.800498881
1.821944201
1.850414005
1.908367417
3.9728618
3.975738278
3.970455409
3.947528993
3.937869311
3.926767735
3.899654608
3.885491083
3.850554008
3.814437874
3.786749104
3.741510096
3.702364103
3.651146041
3.610386482
3.546972762
3.502814697
3.449141022
3.392853866
3.336712466
3.301385605
3.2492875
3.208207239
3.178029709
3.138452921
3.104220361
3.076750768
3.061021979
3.038370677
3.020998483
2.997489589
2.971743459
2.951659391
2.940785983
2.925785699
2.91319415
2.888259507
2.871079231
2.850859907
2.828260464
2.807393065
2.786475219
2.771109473
2.743022071
2.718905434
2.698228785
2.674674913
2.657238741
2.628607601
2.603265542
2.582366388
2.557980673
2.531249793
2.510632712
2.487139666
2.462997904
2.428433895
2.410022326
2.383615629
2.365091869
2.347014647
2.315155285
2.292856347
2.264837657
2.244764566
2.227368532
2.20399332
2.186040013
2.160483022
2.146037102
2.117485499
2.090589448
2.077352106
2.063147946
2.039962064
2.025438368
2.004931592
1.986102854
1.971012782
1.955838776
1.948573087
1.925954096
1.916063182
1.90552885
1.8902728
1.878948562
1.872062103
1.869609673
1.871569352
1.878926296
1.884063544
1.895111022
1.903270494
1.934003844
1.978291488
3.983268855
3.974846471
3.97253226
3.963583877
3.957220098
3.93259604
3.917437747
3.905857125
3.887890014
3.864323564
3.84550547
3.808316503
3.77855437
3.737671999
3.700578824
3.655510575
3.607088227
3.564924231
3.512721459
3.462297604
3.413326334
3.368522187
3.324253375
3.283417517
3.23642027
3.202282593
3.172501243
3.138372736
3.109988532
3.090304541
3.076214244
3.054299005
3.03031803
3.014120253
2.991440903
2.981875507
2.971991947
2.950722437
2.924452954
2.910963264
2.899967757
2.879515066
2.863598732
2.843284824
2.81800808
2.803343042
2.780675171
2.761229473
2.745758163
2.723149452
2.697721895
2.673217742
2.650133612
2.626299921
2.608153127
2.58161233
2.557551337
2.536382429
2.513788877
2.486260496
2.468108508
2.447215473
2.412956819
2.39904998
2.379627515
2.355229389
2.332026702
2.314176679
2.289058949
2.270822644
2.241407349
2.219983084
2.192968563
2.182297564
2.16291851
2.140057133
2.117894498
2.105057037
2.084969318
2.072793168
2.054074342
2.033093764
2.022097136
2.016198355
2.001199752
1.99079002
1.979783373
1.971872744
1.975294479
1.971074092
1.975210514
1.982273525
1.98959336
2.025609423
2.054329345
3.993853651
3.994208205
3.987504457
3.978450796
3.969380865
3.964512688
3.95226469
3.934125562
3.923293435
3.898421286
3.878552162
3.858945378
3.833366103
3.809793586
3.776612809
3.740047267
3.701979712
3.660890158
3.620181565
3.567671428
3.520003014
3.477642111
3.429659006
3.392915652
3.349779808
3.304278353
3.264152898
3.229239526
3.19781522
3.169959538
3.148762433
3.128309467
3.104529799
3.083417509
3.064550907
3.05256566
3.032513674
3.020277146
3.004706317
2.984989353
2.973052132
2.959109939
2.943878499
2.933568207
2.912065702
2.897201115
2.878583326
2.863398075
2.837439524
2.822187852
2.796904024
2.782235585
2.761205912
2.736506215
2.7220669
2.69438617
2.674210976
2.651165352
2.625083726
2.600240723
2.580638121
2.566916827
2.538368356
2.519886985
2.498504141
2.480065173
2.45175492
2.437870358
2.417148087
2.388100883
2.359720367
2.348611686
2.321941525
2.301718255
2.27902322
2.261083665
2.239315619
2.221970932
2.201423773
2.1898471
2.164942342
2.154314971
2.135539325
2.128442751
2.110761914
2.104327772
2.084075418
2.077394454
2.075393441
2.072766096
2.071581001
2.075176889
2.084394491
2.107623054
2.136177826
3.986062227
3.990887987
3.988304314
3.979494456
3.972769915
3.972161995
3.963207024
3.957535195
3.9425554
3.929983415
3.916810801
3.898699231
3.876669261
3.858767417
3.831606521
3.809259925
3.773970739
3.742361933
3.704723423
3.665866368
3.622551265
3.587316887
3.543490661
3.50090063
3.456479334
3.414096601
3.370506489
3.328930194
3.28919045
3.258181616
3.223452583
3.196983349
3.177521312
3.156875079
3.127328088
3.102556391
3.092622792
3.084547098
3.071370381
3.054174266
3.037014768
3.022690113
3.015679164
3.001138197
2.986752538
2.973209299
2.962174421
2.94767061
2.928061435
2.914992444
2.900402809
2.879598731
2.857734176
2.840129696
2.820907111
2.802136656
2.775667166
2.755931836
2.739568783
2.714533375
2.691496168
2.675554336
2.646005532
2.627224674
2.608498585
2.591648165
2.566358766
2.551784723
2.530625656
2.506482838
2.478117214
2.458861055
2.44077876
2.415218278
2.393842523
2.381704762
2.353485111
2.335916585
2.326209446
2.306555604
2.279767733
2.259431516
2.244508895
2.228511313
2.221740788
2.211089892
2.197188029
2.183852873
2.179146299
2.174734621
2.169409121
2.173825477
2.181942046
2.196727229
2.211432114
3.986787765
3.986437098
3.982287107
3.985665206
3.988377594
3.979153563
3.975014452
3.970740613
3.965056267
3.959689938
3.945834561
3.93465212
3.918393223
3.900346073
3.872782282
3.858463999
3.832677136
3.804554306
3.775632708
3.746921119
3.715731662
3.678602032
3.636192976
3.602207461
3.557027802
3.513432428
3.471021539
3.428397796
3.381785168
3.33658678
3.308491732
3.274394019
3.248206459
3.225566058
3.202116682
3.180510728
3.156078958
3.144603033
3.129401749
3.116450594
3.102309824
3.085843409
3.079003312
3.068171069
3.049089295
3.034209837
3.027926345
3.007716704
3.004417731
2.982703066
2.973120143
2.952650919
2.944543894
2.92339314
2.90321427
2.889989394
2.873317067
2.85552192
2.835402988
2.81503646
2.796911574
2.778575048
2.762166125
2.741499101
2.722324721
2.69764309
2.679082503
2.65618817
2.635402294
2.61816264
2.597839373
2.573220617
2.551544218
2.526881176
2.50851241
2.491073394
2.470266951
2.451981307
2.436281225
2.413330179
2.390488982
2.377618518
2.357515225
2.346552954
2.330700979
2.320867023
2.300461513
2.292165789
2.284007623
2.279487087
2.272078156
2.272944247
2.282239787
2.286430373
2.301601133
4.001521171
3.997816748
3.996945299
3.988553386
3.99172835
3.995408927
3.988422949
3.982170088
3.981630469
3.974945586
3.957473152
3.953187925
3.944956316
3.932226549
3.915782282
3.893626309
3.875611893
3.858590951
3.830980512
3.808920081
3.782932597
3.749203486
3.72707385
3.68495963
3.65109708
3.613275459
3.576630455
3.527555102
3.487755268
3.450761463
3.405800373
3.374305527
3.334323459
3.308844832
3.272106876
3.249628731
3.223716583
3.204097168
3.18488428
3.173728619
3.160743734
3.145807268
3.126738192
3.121575245
3.1146738
3.101837807
3.086806028
3.076885852
3.06281071
3.050971188
3.039348015
3.02292749
3.013490634
3.003424104
2.989720851
2.973844724
2.962940845
2.952195782
2.926236031
2.9077027
2.895908045
2.87087651
2.856550294
2.835098914
2.818289674
2.799841462
2.774049674
2.755979464
2.741277913
2.722894823
2.699436733
2.676593383
2.658061791
2.633138245
2.62141497
2.602935596
2.584646595
2.557905328
2.538326501
2.520982133
2.503652072
2.486975183
2.466509113
2.440987383
2.435093858
2.422135647
2.401707318
2.386135068
2.380029552
2.375607996
2.366738997
2.364000375
2.36402664
2.375934135
2.385127738
3.998956086
3.997929492
3.994955245
3.997862251
3.990262842
3.99102587
3.987107167
3.98203816
3.977356419
3.975914463
3.96960628
3.968029494
3.952925522
3.94199857
3.938516981
3.928160918
3.918581777
3.896949734
3.877151239
3.856649131
3.832288757
3.813840702
3.778580077
3.760642329
3.728897865
3.696269072
3.652956489
3.616401045
3.578437931
3.538992846
3.508919733
3.463009325
3.423797364
3.392492998
3.365035842
3.327354347
3.299124011
3.276165049
3.248831636
3.229647183
3.20945823
3.194990638
3.179875131
3.163041113
3.153023541
3.138884597
3.133970691
3.123366395
3.116243685
3.104411843
3.096129736
3.085848674
3.072454076
3.062451814
3.055611126
3.043239674
3.032122057
3.018794106
3.002385345
2.989841243
2.975215107
2.961447738
2.939054419
2.921414075
2.909170931
2.88980789
2.868513833
2.847799506
2.837644186
2.821502928
2.796959998
2.776311689
2.757554233
2.737338439
2.721826273
2.701337395
2.684110393
2.667520228
2.643209317
2.625695031
2.610193616
2.595465723
2.57521403
2.547878204
2.535921696
2.529082519
2.507496899
2.493535662
2.480927016
2.477459173
2.468293558
2.459276164
2.457721918
2.466406992
2.473217471
3.999746655
4.002897913
3.999301594
3.993406927
3.98665568
3.992686452
3.986926111
3.988788099
3.985228878
3.983033407
3.981313832
3.973795091
3.970393702
3.966227174
3.958640902
3.945227641
3.932944094
3.930415038
3.915170867
3.899954927
3.877057421
3.865105226
3.839533104
3.81570564
3.783576032
3.7584044
3.730522119
3.706462815
3.667820492
3.629306123
3.585499997
3.552670841
3.520504239
3.487574874
3.443338318
3.412812217
3.381390514
3.349767059
3.318389446
3.292089685
3.271126638
3.249751895
3.232883057
3.210373325
3.200040423
3.191094885
3.179112201
3.165825326
3.158975768
3.151822229
3.143858005
3.132120554
3.126837457
3.115710391
3.106013883
3.100297557
3.09033386
3.077829591
3.06174773
3.050127677
3.040511893
3.02952789
3.008371825
2.993567704
2.978013088
2.959025752
2.946930478
2.938316638
2.922125129
2.905741698
2.895952892
2.872842675
2.851142854
2.838020448
2.817332049
2.802420302
2.78057835
2.767927488
2.749340182
2.72491466
2.715030227
2.694570433
2.672316483
2.662390711
2.632718943
2.623712817
2.613365485
2.597235344
2.589631693
2.575081973
2.5698992
2.560860305
2.547533082
2.551627333
2.554648667
3.997156765
3.998157695
3.991286624
3.995774931
3.994762298
3.996638093
3.993488219
3.993246913
3.995227335
3.991490367
3.986785493
3.985313622
3.980782356
3.979797021
3.971434798
3.96885128
3.966401918
3.951828003
3.940784147
3.941256531
3.925475054
3.908085237
3.889860214
3.868061501
3.850203786
3.827514851
3.805960923
3.774316468
3.74593904
3.721105679
3.68086564
3.647631463
3.61080706
3.57168553
3.539294675