/*--------------------------------*- C++ -*----------------------------------*\
| =========                 |                                                 |
| \\      /  F ield         | OpenFOAM: The Open Source CFD Toolbox           |
|  \\    /   O peration     | Version:  v1706                                 |
|   \\  /    A nd           | Web:      www.OpenFOAM.com                      |
|    \\/     M anipulation  |                                                 |
\*---------------------------------------------------------------------------*/
FoamFile
{
    version     2.0;
    format      ascii;
    class       volScalarField;
    location    "0.04";
    object      Ma_N2cold;
}
// * * * * * * * * * * * * * * * * * * * * * * * * * * * * * * * * * * * * * //

dimensions      [0 0 0 0 0 0 0];


internalField   nonuniform List<scalar> 
6000
(
3.984974844
3.95554232
3.85901404
3.5770012
2.731519565
3.981628808
3.934436337
3.791585322
3.447089089
2.859284337
3.987487285
3.938483367
3.805055728
3.530598276
3.156299765
3.983719039
3.945645567
3.826785696
3.623000809
3.382997629
3.978858479
3.946007882
3.868293832
3.728246413
3.562830105
3.978033732
3.947260804
3.883692912
3.797890816
3.679598936
3.981429908
3.951901495
3.905465607
3.845969671
3.779504278
3.990391231
3.961607147
3.925328298
3.893050382
3.836275033
3.996569357
3.976610162
3.952259013
3.921786177
3.887115889
3.997020037
3.985142012
3.959260278
3.939222582
3.92187269
3.994967757
3.98475541
3.969942781
3.961862648
3.936723341
3.989523747
3.992680638
3.983217287
3.970585107
3.957142744
4.001890694
3.994024175
3.989131252
3.986084826
3.971524669
3.999539351
3.996293402
3.998858743
3.987294125
3.98617429
3.99766139
3.993945985
3.991668345
3.992429084
3.98980974
3.993679018
3.997062791
3.997076712
4.002077253
3.995446599
4.010307709
4.002994851
4.007958777
3.993022591
3.988099613
3.996480337
3.996673873
3.987788066
3.986098374
3.998240668
4.001178417
3.995798597
3.997974743
3.998074595
4.000879891
3.996064765
3.996888233
4.000749535
3.999679818
3.992375153
4.008791042
4.004789501
4.001633873
4.001817145
4.000418625
4.011937488
4.010658258
4.010954971
4.011892455
4.020600368
4.009817466
4.00375046
4.00658806
3.997158513
3.996062097
4.000189103
4.003139357
4.001863883
3.995964396
3.997100962
4.001506304
4.004947
4.006005744
4.004758265
4.004237467
4.004492355
4.009525185
4.004088407
4.005884401
4.009680461
4.006591239
4.009415719
4.00916153
3.996700134
3.99465427
4.001231741
4.001966836
4.003885214
4.008527314
4.004228187
3.995847915
3.99656481
3.99882116
3.995767291
4.001579532
4.000264893
4.001726624
3.992602643
3.997500568
3.993963019
3.991791267
3.991560997
4.001004091
3.998927256
4.001952069
3.998254951
3.999956481
4.000228332
4.001972114
3.998072584
3.995611773
4.001191449
3.999628888
3.998112552
4.002448445
4.002319957
3.997074716
3.997359552
3.99852409
3.997724484
3.999944726
3.998280215
4.002098515
3.999721993
4.002711172
4.002911579
4.001956951
4.003421142
4.003471941
4.000864294
4.002455304
4.006476693
4.004692491
4.003886292
4.001598063
4.005161107
4.003665771
4.000025256
3.997155899
4.000618794
4.000755686
3.998868506
3.998215069
4.000588384
3.997761195
3.99745275
4.001273389
3.999193798
4.001656516
4.001767406
3.997114221
3.997203251
4.004187851
3.999627385
3.995772281
4.002751479
4.001013182
3.997880869
4.001741979
4.006631107
3.999451102
4.001862578
4.005004667
4.002175835
4.004202783
3.997471507
3.997331057
4.000287354
4.003024147
4.002418009
4.00229635
4.000685958
3.997577002
3.99937378
3.995754839
3.998565691
3.994835643
3.998815881
3.997467569
3.998715077
3.997195891
4.000753467
3.998082345
3.996609383
3.997789916
3.993216765
3.994868308
3.998805726
3.999821635
3.999635944
4.00365167
3.996388679
3.99488337
3.995906255
3.991209338
3.998320979
3.998512828
3.994585411
3.999822469
4.000401677
3.99853425
4.005436103
4.006682999
4.002585361
4.000022227
4.007492301
4.003501725
4.003539747
3.999666137
3.999442533
3.998257464
3.998360151
4.000123232
4.003546198
4.003951152
4.003760076
4.00012294
4.002602581
4.000188116
4.003112057
4.000475191
4.004501022
4.002811235
4.003264483
4.003520688
3.996812861
3.997939115
3.997713634
3.994523082
3.993265409
3.993009802
3.993610254
3.994391116
3.995339108
3.998310558
3.99946944
3.996799369
3.998552708
3.998775685
4.000970347
4.000803082
4.000372959
3.998949406
3.999419544
3.998316068
4.005287524
4.001858296
3.999380619
3.995734385
3.996150565
1.771884245
1.541581647
1.379453149
1.274861474
1.175105953
1.111474066
1.059409758
1.00239678
0.9593013797
0.919440402
0.8847806763
0.8536473923
0.825106435
0.7980140831
0.7822272254
0.7537603168
0.7394036778
0.717794623
0.7043727835
0.683447897
0.6690609787
0.658547746
0.647565712
0.629873072
0.6218220324
0.6069718651
0.5981884906
0.5874581351
0.5753905286
0.5685192407
0.5606769278
0.5473626515
0.5438183524
0.5399897156
0.5294094819
0.5259817157
0.5193874521
0.5058808102
0.4998529563
0.4985790914
0.4881000553
0.4778905939
0.4770766925
0.4722761353
0.4658726174
0.4582824543
0.4562129744
0.4549062555
0.4464539022
0.4434040019
0.4454415745
0.4355821972
0.4315045226
0.4250245632
0.4204612007
0.4173942523
0.4155241677
0.4067550352
0.4077575942
0.4043985093
0.4011836119
0.3966309604
0.3919400477
0.3892518866
0.3861175165
0.3836674796
0.381982851
0.3751732814
0.3685834177
0.3659841852
0.3642033866
0.3629602407
0.3601933643
0.3586440733
0.3583192005
0.3560620671
0.3503736146
0.3516074854
0.3497252309
0.3481120156
0.3507510682
0.3464486032
0.3495133356
0.3510591204
0.3560316025
0.3626139588
0.3641593758
0.3779980643
0.3792444123
0.3904251581
0.4113647544
0.4318519157
0.4657357017
0.5252659103
0.6865281255
2.375037342
2.110247052
1.967916442
1.862478684
1.770093893
1.687731602
1.593792643
1.52129843
1.460722756
1.400344792
1.341763821
1.298796895
1.25208968
1.208734425
1.170044803
1.134593436
1.100010994
1.078381699
1.048796299
1.023965056
1.001436668
0.9695084841
0.9485315622
0.9271013322
0.908748995
0.8937207072
0.876097305
0.8589486983
0.8468207729
0.834517719
0.8179948886
0.8064822061
0.7918965971
0.7790822891
0.7717506372
0.7602240316
0.7449036302
0.7330834102
0.7273606871
0.7124300435
0.7030898964
0.6949679984
0.6828294107
0.678871784
0.669700487
0.663345156
0.655502501
0.6455252858
0.6425104552
0.6369324121
0.6296768394
0.6188981733
0.6091655794
0.606056401
0.5979941669
0.5892075619
0.5874924307
0.5817440827
0.5780102051
0.5670923232
0.5690606856
0.5624567338
0.5571447134
0.5506352925
0.545851251
0.5376870667
0.5330632755
0.5290745385
0.5254562539
0.522792573
0.517229513
0.5137014189
0.5094987995
0.5067518357
0.5049110343
0.5016573646
0.4995939482
0.4959432125
0.4909417192
0.4874095365
0.4880067093
0.4927151034
0.4901169054
0.4943771716
0.4951407612
0.4986623697
0.5011586025
0.5108154323
0.5255502436
0.5433089955
0.5625063587
0.590738538
0.6381104489
0.7246321599
0.9420619268
2.793501149
2.525214566
2.362510469
2.233861879
2.147172063
2.06988479
1.993483014
1.926741881
1.858015869
1.793920228
1.730641285
1.667848903
1.611795988
1.56999092
1.518489878
1.48061551
1.438800776
1.398618801
1.355956433
1.314908928
1.288023329
1.256081447
1.227809482
1.19203158
1.168173847
1.159687636
1.129100154
1.108534935
1.085347027
1.068722772
1.046980976
1.030800863
1.010325992
0.9959625454
0.9826020008
0.9657603255
0.9518207994
0.9368800758
0.9242264247
0.9120514114
0.8924403378
0.882098716
0.874889624
0.8615361372
0.8517540237
0.8419339137
0.8291665339
0.8132729458
0.8120044175
0.8013082361
0.7881063196
0.7796053832
0.7653800712
0.7544695573
0.749801976
0.7450340056
0.7378164139
0.7304049199
0.7289876783
0.718726492
0.7121466192
0.7055717347
0.698257529
0.6871197145
0.681279224
0.6776053844
0.6731576809
0.6672026281
0.6602851092
0.656453574
0.6480263102
0.6427040705
0.638271206
0.630433895
0.6243637117
0.6183391873
0.6174001485
0.6203145247
0.6145886022
0.6111856593
0.6138646725
0.6135678239
0.613758736
0.6124106008
0.6108117965
0.6192113424
0.6231534034
0.6285412809
0.6466261701
0.6570455769
0.6889937317
0.7202189111
0.7765503356
0.8830582796
1.089364794
3.115409221
2.881795435
2.687742274
2.558162935
2.439726357
2.364279508
2.293592257
2.229648239
2.170300457
2.098297109
2.049416711
1.98522131
1.939478295
1.88747212
1.832414093
1.786560451
1.739617169
1.700900237
1.644262891
1.602519929
1.571062394
1.529487105
1.490749852
1.455891505
1.429217556
1.405475804
1.365118913
1.336521504
1.317020629
1.29556024
1.269141119
1.25227472
1.226486631
1.208371099
1.186123619
1.173278493
1.149771847
1.128924041
1.108761041
1.095428425
1.076605944
1.05897688
1.052049086
1.03072817
1.019141563
1.009107883
0.997138927
0.9823100434
0.970811997
0.9572861366
0.9447943696
0.9308321911
0.9187673819
0.9089688794
0.9055827185
0.8989321782
0.8847462241
0.8779014838
0.8652546093
0.8513767567
0.8499545579
0.8406675085
0.8265181689
0.8194905165
0.8129209563
0.8050935304
0.7924425308
0.7917902976
0.7826527162
0.7790852205
0.7698002208
0.7656616124
0.7580464905
0.751363238
0.7469432289
0.7384249003
0.7308720774
0.7304710772
0.7258303283
0.7285014429
0.7225807937
0.7231116361
0.7237324197
0.7240999958
0.7251149505
0.728577157
0.7315866443
0.7425958262
0.7598454119
0.7775403104
0.7998557579
0.8385249899
0.9019371081
1.003778561
1.188535846
3.345340132
3.178269538
2.978041541
2.831169687
2.704288741
2.616098688
2.532294864
2.465792838
2.408317909
2.360691034
2.302045176
2.250833198
2.203049089
2.162139817
2.101663784
2.053675013
2.015902569
1.966544353
1.916540284
1.872608287
1.826584231
1.778679932
1.746175182
1.710885219
1.668368091
1.63957637
1.606443681
1.568399755
1.54239152
1.511068109
1.479577966
1.462812357
1.431391877
1.414586787
1.391394166
1.366717004
1.343110844
1.322657071
1.293298262
1.276854106
1.260485946
1.24730708
1.226428299
1.203707846
1.186388545
1.169480035
1.158882853
1.143370644
1.127274968
1.118202736
1.100654067
1.084571901
1.069834864
1.059157077
1.046613842
1.041203131
1.028559371
1.021705921
1.007154558
0.9898182486
0.9899302572
0.9727280486
0.9622912925
0.9585885791
0.9417888362
0.9355964896
0.9261416919
0.9125613267
0.9056685048
0.8954669447
0.8906741621
0.886049611
0.8759327688
0.8641228966
0.8539136013
0.8520450928
0.8497985826
0.8469266489
0.8440747354
0.8391350045
0.8439304085
0.8395093892
0.8402747155
0.8352652292
0.8351581504
0.8371207568
0.8450654485
0.8557245382
0.8661361524
0.8835241734
0.911241718
0.9468538292
1.011407413
1.103117713
1.277653057
3.529528141
3.38292837
3.221634779
3.087459677
2.953319713
2.834070138
2.739504001
2.670994257
2.612060318
2.563576526
2.514248279
2.457058805
2.422633442
2.382268019
2.334995242
2.288793914
2.243750803
2.20353734
2.154898358
2.107759387
2.072332928
2.028198429
1.988974274
1.947317477
1.90055231
1.865467116
1.825122287
1.793587316
1.754242985
1.720655313
1.698488226
1.666572527
1.634193265
1.617532187
1.588428318
1.559554409
1.532586379
1.510636459
1.482607532
1.463766367
1.438829297
1.419935188
1.400996133
1.374169339
1.353303037
1.34041331
1.323499698
1.302317681
1.288534956
1.272766896
1.250707555
1.23256431
1.221669958
1.206738026
1.195368931
1.184908392
1.170643378
1.154009949
1.14124645
1.132406371
1.122373614
1.105374157
1.095790527
1.084858913
1.069539307
1.065143957
1.05544946
1.035638933
1.02780305
1.023066693
1.014840579
1.006606388
0.9894668001
0.9865023384
0.9760257411
0.9685460742
0.9625001536
0.960182039
0.9554967912
0.950030836
0.9454777586
0.9459512271
0.9444123015
0.9414074021
0.9438656825
0.9474884763
0.9539947406
0.9575190885
0.9729862072
0.9839202453
1.015358801
1.052547217
1.116590042
1.20542918
1.356763635
3.661490932
3.54298466
3.429836038
3.302264706
3.175588468
3.069778947
2.954726072
2.874984713
2.810329903
2.747124927
2.690674968
2.638034009
2.58838956
2.557790965
2.526418635
2.487824873
2.43958819
2.400708478
2.362838897
2.321911875
2.284004753
2.247535917
2.201048575
2.162258061
2.118037159
2.081104392
2.041914279
2.014881586
1.969998703
1.938700283
1.906769308
1.876191856
1.849937081
1.817665669
1.784277376
1.75816441
1.728095372
1.693806838
1.670772278
1.645492938
1.626091821
1.59322249
1.580617545
1.547440038
1.526556139
1.512457472
1.494558112
1.468731715
1.448224481
1.429740918
1.408281884
1.395868374
1.371149994
1.359572052
1.338349399
1.32308962
1.312460701
1.30327392
1.278309995
1.266769561
1.25495459
1.239299283
1.236898506
1.219229609
1.201278881
1.188471572
1.179844644
1.169230777
1.156398996
1.146735308
1.140038342
1.125988343
1.112411651
1.107468661
1.094613013
1.084961408
1.083929625
1.073886368
1.068327503
1.058716084
1.056301889
1.050597752
1.048785727
1.052834366
1.046262694
1.052125437
1.052585974
1.062446055
1.070487732
1.087305936
1.115093483
1.151608464
1.211405326
1.293184585
1.426739468
3.766320879
3.674978686
3.575374322
3.483423246
3.367187939
3.256809528
3.165990272
3.082617139
2.986779426
2.921319588
2.861336912
2.803647747
2.752505096
2.710900268
2.687221044
2.648087122
2.595263636
2.568676543
2.535787058
2.510805022
2.465497816
2.437541603
2.393787831
2.353711176
2.315800576
2.281419449
2.243376654
2.208267417
2.170426215
2.139548242
2.093888567
2.070612483
2.036040847
2.013247492
1.973103356
1.949196066
1.911272534
1.884164649
1.860440601
1.822279128
1.795569448
1.766959165
1.754740833
1.716420048
1.693964325
1.675934609
1.653892217
1.626018831
1.60682823
1.587449534
1.560018216
1.547269616
1.521365028
1.504152144
1.486736062
1.465294381
1.457789222
1.441493915
1.419234731
1.409043
1.392194059
1.377440689
1.36409389
1.347090995
1.326253419
1.314646115
1.303538955
1.284952522
1.278884872
1.266891101
1.255278711
1.243670808
1.227095084
1.224712925
1.206672831
1.197757848
1.191851068
1.187076395
1.179447079
1.174801709
1.158093843
1.160106321
1.162042338
1.154893409
1.14623286
1.151813195
1.15771456
1.161221464
1.163856039
1.188236221
1.215041379
1.254424593
1.305400178
1.377967858
1.492121641
3.821939451
3.769902281
3.70084082
3.617430312
3.536393562
3.439964062
3.352547109
3.262012417
3.172519183
3.09172307
3.024379211
2.968663542
2.902692108
2.85197796
2.811817615
2.782777865
2.743390665
2.709755754
2.680220588
2.656631706
2.621836071
2.5799253
2.55678234
2.522680055
2.48575609
2.450853934
2.415806111
2.387166617
2.350349899
2.320265164
2.288268919
2.24800156
2.217927095
2.183913405
2.15781912
2.12478524
2.094772436
2.057265834
2.029032255
1.992242494
1.976337728
1.939303831
1.917390574
1.884859166
1.857919107
1.837404651
1.812236378
1.78525053
1.761163483
1.740589134
1.716257767
1.695251999
1.668879421
1.655029647
1.634850466
1.612339484
1.599741455
1.578519891
1.560557089
1.543012788
1.527251129
1.511469053
1.493442975
1.474489163
1.46410888
1.443106378
1.433308227
1.413778825
1.405642522
1.387655157
1.372566017
1.356462507
1.343726538
1.339799919
1.322909101
1.315056996
1.299126162
1.297201254
1.286955531
1.279179661
1.269335153
1.265111325
1.262720203
1.258444598
1.250853434
1.25216924
1.252842278
1.266724907
1.270225745
1.295496867
1.311884321
1.3460314
1.388789269
1.460127872
1.556195074
3.881351012
3.847507063
3.796804842
3.741516464
3.661552476
3.578399822
3.488580356
3.417720067
3.341106854
3.267111608
3.191692727
3.127850459
3.062465465
3.000082316
2.952649099
2.913176617
2.884496348
2.83443505
2.8031678
2.78359376
2.753044948
2.710819468
2.69050481
2.662204886
2.633179029
2.600692899
2.567754692
2.536952185
2.505921886
2.482075775
2.446150431
2.417703381
2.382230478
2.348533259
2.325860656
2.298594067
2.258496141
2.228793006
2.199382072
2.171066203
2.142752337
2.105540264
2.082849738
2.053357436
2.025364676
2.002108677
1.973879442
1.947979562
1.920192173
1.899638771
1.867049278
1.846448348
1.821579723
1.807673635
1.781837382
1.762335475
1.746326262
1.726988129
1.699220384
1.682159958
1.668726059
1.651042164
1.631195472
1.612217274
1.595550578
1.581926649
1.565751541
1.540901492
1.52957562
1.514912622
1.501217474
1.47927413
1.467287424
1.451373464
1.444376961
1.429486735
1.414719641
1.410680418
1.39879509
1.389607183
1.376462076
1.373594842
1.372961576
1.368274603
1.361715006
1.358782302
1.36336797
1.363687991
1.369992954
1.38285591
1.399129346
1.436695952
1.472844924
1.535923736
1.621076373
3.903801144
3.876642278
3.854082633
3.814304653
3.759857984
3.697613076
3.629520357
3.557239115
3.481282098
3.414387323
3.345043943
3.284757502
3.216103378
3.152855738
3.087498901
3.043662257
3.001996506
2.966585972
2.929143342
2.893534314
2.866207649
2.83328879
2.804077855
2.780161771
2.745720422
2.718162164
2.699774518
2.677899711
2.651745507
2.617442359
2.586527408
2.56114453
2.527927301
2.50163591
2.479958976
2.449146371
2.424228535
2.386629676
2.354736936
2.333401396
2.305221587
2.268481735
2.24364916
2.212030975
2.188564931
2.160194588
2.132130212
2.110670485
2.078807213
2.056993407
2.022980438
1.993557273
1.979083567
1.951956852
1.928620083
1.910927227
1.879866785
1.859846611
1.848392537
1.82429001
1.800253762
1.786605648
1.759064902
1.747893854
1.725257433
1.712167009
1.691057721
1.673403885
1.661783471
1.642301467
1.622837374
1.601832323
1.590223048
1.57498748
1.564116256
1.543314298
1.531062534
1.53248862
1.508071845
1.496657889
1.492843913
1.485617754
1.478526358
1.475093788
1.463996036
1.471254678
1.470683501
1.468247112
1.470146081
1.485578779
1.50223282
1.529902693
1.568937677
1.620240243
1.693067378
3.933507932
3.912698379
3.889631462
3.859362719
3.822698117
3.783600695
3.731509089
3.674544165
3.597288721
3.542245787
3.488815047
3.43071044
3.360586563
3.290055048
3.224116608
3.171305716
3.117949023
3.077376652
3.038965323
3.002845734
2.972414616
2.942226814
2.909302691
2.887588431
2.858927603
2.833215828
2.811229657
2.786710098
2.768814479
2.738249188
2.717024794
2.690719716
2.667878805
2.63288194
2.614955356
2.600215747
2.566208638
2.537155314
2.502673004
2.47907087
2.448697883
2.420637551
2.392098818
2.364941733
2.341070076
2.312089801
2.283558379
2.26313048
2.235690079
2.205606515
2.182367242
2.148833481
2.128927152
2.105573994
2.079155653
2.055429283
2.022213409
2.002584289
1.986895493
1.967477096
1.942817844
1.915220698
1.888712883
1.877592238
1.859977725
1.837754571
1.820601512
1.801333901
1.780378836
1.762680691
1.745398791
1.729953751
1.708951329
1.690752165
1.674037421
1.655460777
1.648317897
1.644820369
1.628638698
1.61418768
1.600659017
1.594451328
1.591299101
1.584402668
1.566832609
1.570773549
1.5655305
1.567062554
1.574914384
1.577048984
1.592805462
1.61305368
1.64844039
1.69632999
1.760269999
3.95561476
3.938289571
3.930865992
3.917094057
3.881805909
3.836525166
3.799677053
3.769118665
3.709990259
3.663763873
3.610860413
3.5477993
3.494032429
3.437572668
3.368848401
3.301862685
3.256559683
3.197741632
3.148174953
3.111601531
3.078749176
3.045963769
3.011022734
2.983409192
2.958506272
2.932378494
2.906181636
2.884156915
2.862718084
2.841028251
2.821487715
2.79720232
2.773590992
2.75456508
2.734926172
2.709214049
2.683864509
2.665733598
2.637907474
2.611175026
2.588667504
2.56051304
2.530293915
2.497031514
2.468760293
2.447705317
2.430185312
2.399622375
2.37514859
2.343489961
2.317452142
2.286799673
2.264094738
2.239664394
2.225938242
2.195591559
2.163837011
2.1448926
2.118651422
2.101314635
2.075512087
2.042963941
2.027688765
2.009747128
1.993933022
1.967301082
1.950856125
1.930832753
1.907446705
1.888427043
1.871685306
1.852778535
1.831748473
1.818043719
1.8004656
1.776158881
1.762305054
1.750797793
1.743310105
1.731415585
1.715670366
1.706341553
1.695440729
1.693311243
1.677678898
1.673826464
1.663168308
1.671978354
1.671280652
1.678433274
1.680148444
1.705155152
1.734767093
1.770428868
1.840214715
3.979165179
3.966049338
3.951768589
3.93368213
3.917197568
3.8946784
3.862721008
3.827042035
3.794980494
3.751437981
3.701023415
3.648889752
3.60334007
3.549178347
3.496080592
3.439883715
3.386481937
3.335519128
3.269631255
3.228076186
3.182190297
3.150295283
3.115873478
3.081388409
3.048965011
3.020547606
2.989181699
2.963319236
2.948741316
2.927354811
2.909915093
2.894976519
2.872250667
2.851352524
2.835127161
2.820594365
2.797739063
2.777879107
2.74811224
2.727661162
2.706959813
2.679128464
2.654769478
2.630628566
2.610608788
2.586325376
2.559874991
2.528920182
2.504504639
2.484042815
2.451738551
2.435609204
2.403529292
2.380161401
2.362285227
2.327188758
2.302389938
2.283941259
2.255717687
2.232551745
2.212293258
2.189301831
2.16424762
2.138622597
2.11902042
2.101658693
2.076294638
2.061510574
2.041226343
2.017506019
1.995833373
1.972374124
1.956667182
1.941732264
1.919812753
1.901059925
1.885293403
1.870954211
1.861966528
1.841739179
1.826998343
1.820820948
1.810895384
1.801091349
1.789377983
1.783502969
1.773820238
1.768106795
1.767989901
1.77352595
1.776254274
1.798937981
1.824679354
1.855067758
1.910686648
3.982484118
3.973798375
3.969630127
3.949599737
3.936457778
3.917245759
3.898296617
3.873862788
3.847061021
3.824933036
3.783945808
3.747353136
3.70846086
3.654273628
3.602739993
3.555206926
3.500482126
3.455342082
3.390332444
3.344587478
3.303411702
3.255067526
3.21583549
3.177376168
3.143651838
3.111270906
3.082161474
3.056248088
3.036116336
3.016999118
2.995517153
2.97503487
2.953552292
2.938350515
2.921955646
2.907934845
2.893810014
2.869515702
2.846220543
2.82557335
2.812966675
2.789178936
2.770699167
2.748447281
2.725595684
2.70415298
2.677020702
2.656636273
2.633679536
2.613156892
2.580928694
2.561564097
2.5323021
2.509759181
2.485394134
2.460508373
2.433412428
2.41547253
2.392818281
2.355469365
2.338243614
2.310591372
2.288068976
2.267938785
2.24512064
2.223807913
2.205632932
2.186419755
2.160622537
2.144904991
2.122364151
2.107862067
2.089298926
2.065979331
2.04407968
2.023294784
2.008353533
1.991461948
1.979288311
1.961328893
1.940853751
1.929597986
1.92064052
1.916337125
1.909720528
1.891129017
1.878591508
1.869405295
1.875882907
1.870925188
1.884464627
1.896890777
1.910986616
1.940633652
1.992955764
3.995684733
3.97925837
3.973677373
3.968162995
3.956723961
3.942162444
3.922412119
3.91048743
3.883670449
3.862260092
3.830992736
3.795061606
3.777293424
3.743218643
3.692150415
3.656735117
3.608582891
3.559801995
3.518370387
3.474883244
3.413603738
3.376145769
3.332153241
3.283536554
3.239242311
3.209445337
3.172749528
3.144688704
3.11731018
3.093233872
3.071685339
3.047862793
3.025935819
3.017077062
2.996891262
2.983124036
2.968267739
2.950560061
2.934440297
2.916743049
2.903969464
2.87906043
2.861591727
2.844347974
2.831478268
2.815864
2.789440569
2.762652212
2.746492425
2.732269465
2.70683298
2.67962045
2.658896556
2.623403636
2.604602367
2.586081966
2.557701368
2.537154108
2.51548335
2.48616875
2.464491554
2.444207224
2.418440277
2.399731893
2.377138868
2.348006662
2.330492755
2.303097655
2.281226974
2.26591848
2.245293618
2.224540263
2.205293967
2.184300792
2.166792112
2.140965342
2.124409347
2.101627586
2.089252986
2.068049338
2.06066903
2.04303604
2.030327936
2.017922667
2.010153004
1.99582832
1.990246184
1.98042382
1.977485144
1.97067699
1.976558835
1.987780277
2.00414964
2.026421558
2.066307399
3.989980486
3.991010251
3.991492347
3.987964943
3.97097084
3.965634884
3.955308709
3.938898622
3.92097734
3.907743056
3.88507945
3.865644257
3.835776064
3.815529059
3.783804449
3.747685698
3.704719157
3.660909147
3.612774377
3.576474426
3.522532679
3.472838395
3.431712446
3.392306056
3.34480665
3.301657719
3.268275359
3.2277217
3.197519461
3.171476987
3.145764851
3.122318562
3.104854782
3.085579127
3.068746596
3.05141125
3.037234708
3.02432231
3.005831283
2.992635531
2.978187958
2.962248589
2.949181143
2.932743574
2.91704443
2.900759396
2.883971744
2.865074668
2.843336562
2.830557139
2.806733177
2.783456871
2.76408324
2.745228479
2.718248024
2.700073555
2.673718821
2.653267854
2.632580128
2.611858725
2.582834763
2.559381743
2.541166561
2.515117037
2.497820885
2.47181125
2.450184575
2.427824237
2.398461316
2.391087899
2.364868857
2.343044476
2.315036267
2.303970431
2.283811207
2.263332182
2.240486882
2.222940702
2.206318888
2.186614218
2.17340685
2.156608728
2.153145034
2.131792209
2.108417787
2.103704198
2.093917778
2.084022356
2.077254816
2.078849606
2.075739039
2.084691011
2.090626054
2.11223025
2.139575176
3.993905551
3.991346003
3.987096963
3.978883941
3.979392485
3.979190836
3.96812858
3.957306366
3.947660244
3.942935191
3.914251027
3.894580517
3.886844574
3.861688304
3.836049265
3.807999276
3.776975009
3.745232694
3.715736248
3.66544287
3.633031976
3.580088129
3.53226481
3.487577665
3.452386468
3.410984953
3.365273344
3.325257424
3.293704143
3.264357127
3.229576474
3.205527429
3.17694156
3.150359601
3.130651773
3.103986716
3.095036737
3.081863149
3.070068982
3.054832239
3.046274633
3.030191011
3.020182449
3.007882535
2.991591942
2.977006501
2.960315102
2.942250783
2.930003758
2.910719136
2.892910715
2.879215962
2.857950982
2.836384862
2.828601933
2.807841591
2.783035973
2.762101445
2.741404272
2.724049999
2.696728178
2.677667113
2.658780135
2.637424544
2.612648984
2.585639964
2.573288239
2.544898591
2.519119632
2.507160338
2.480277141
2.464320618
2.441417623
2.415490355
2.401653242
2.378447791
2.357633388
2.342788144
2.321735277
2.297848091
2.286915054
2.262264898
2.257413184
2.243022661
2.225020819
2.214124814
2.20153318
2.190550428
2.179401203
2.175298687
2.172751582
2.181570863
2.183272015
2.195032518
2.224993541
4.001855545
3.984575719
3.983208328
3.982471454
3.981513036
3.976789437
3.970639663
3.966402455
3.958570086
3.954205588
3.953341963
3.929741711
3.912983192
3.901643312
3.886229848
3.859986239
3.835993941
3.804497133
3.775216955
3.749771042
3.717584817
3.6812892
3.633645539
3.596880733
3.558289847
3.516088755
3.475704451
3.427744389
3.385515084
3.352157815
3.321544062
3.288921403
3.254783574
3.229636227
3.205386761
3.181802225
3.165013126
3.14147089
3.12819807
3.11250051
3.09729918
3.083675243
3.07700087
3.06430633
3.052149063
3.040863394
3.028969968
3.014551935
2.996995733
2.988236268
2.970836518
2.96087947
2.943474627
2.927361422
2.910868232
2.890261581
2.880559159
2.861228659
2.840859013
2.822963919
2.798882342
2.779349292
2.760331381
2.738807013
2.717883962
2.693327387
2.66722559
2.654136171
2.633577332
2.609801259
2.593574131
2.571603762
2.555671348
2.526285105
2.511226808
2.496903523
2.471249051
2.454531792
2.435376975
2.410546666
2.391017971
2.378380187
2.368463721
2.342604413
2.336553168
2.321764797
2.30064545
2.289207975
2.279827802
2.272838955
2.26811102
2.275618415
2.274871414
2.276645593
2.302998203
3.99717842
4.003468208
4.006805134
4.008595418
4.00093869
3.991923769
3.992955755
3.982448129
3.982976914
3.977656562
3.963042593
3.957084884
3.942838021
3.931470631
3.91442545
3.897789022
3.878322752
3.865270104
3.838369963
3.809185227
3.781655227
3.757479654
3.724418038
3.686531847
3.644127207
3.606720563
3.571912853
3.531674017
3.481148977
3.435064747
3.401183064
3.371069187
3.33535937
3.304282132
3.276924394
3.248457449
3.222232013
3.200673598
3.188425519
3.174088971
3.157828698
3.142642772
3.125604824
3.119366606
3.103651397
3.090034753
3.07789618
3.07189294
3.066808798
3.05159922
3.043553762
3.025434819
3.017208776
2.999373342
2.986749379
2.968767491
2.954718558
2.937856982
2.920135667
2.9072078
2.889835056
2.867709023
2.850886359
2.830711131
2.816887307
2.791685148
2.780724601
2.754944688
2.740195546
2.724604557
2.70250631
2.683363797
2.662076259
2.637848863
2.623850297
2.596293042
2.576191879
2.563799343
2.546542489
2.520874069
2.49742667
2.482625793
2.47429242
2.453836874
2.441474738
2.428038371
2.415442871
2.395373294
2.387311654
2.37589199
2.370547263
2.369240384
2.364846813
2.37327061
2.38394948
4.001157346
4.003017702
4.002825918
4.001480389
4.002703219
4.004591398
3.997930014
3.991542145
3.988258885
3.979912806
3.978310529
3.973620493
3.967667615
3.953122856
3.943582554
3.926814233
3.921129823
3.898688865
3.879167784
3.865745662
3.8479796
3.818785844
3.793379101
3.762102769
3.72955029
3.699317584
3.664159363
3.632896938
3.587086414
3.549492413
3.50544488
3.463858062
3.42402562
3.39190526
3.362763557
3.322956583
3.29673599
3.268671322
3.244890094
3.230606359
3.209657988
3.191680544
3.179183167
3.163927688
3.155599641
3.14198747
3.130743143
3.12532969
3.11673538
3.10566093
3.099366313
3.088402224
3.078278896
3.072555847
3.056324168
3.043825343
3.028359081
3.013049232
2.999792099
2.98393078
2.973091095
2.959465519
2.944200478
2.924082675
2.905664664
2.891951454
2.871411847
2.85445434
2.832717291
2.816644528
2.796074561
2.784017405
2.764900789
2.742127143
2.730181351
2.708683372
2.685216171
2.670454125
2.650149063
2.62727622
2.614763352
2.585960497
2.56923643
2.560282151
2.545836863
2.529010566
2.511996596
2.497284915
2.481556979
2.478164017
2.46703834
2.459820122
2.455956802
2.45661266
2.468817668
4.010213767
4.012307327
4.011403915
4.003286086
3.998054667
3.996909781
4.003446374
4.004414311
3.992756421
3.989473564
3.98620946
3.982608022
3.973724907
3.973187982
3.961171163
3.950135226
3.944844432
3.931648226
3.916994525
3.902535648
3.890743878
3.865230207
3.844534998
3.82856442
3.802232628
3.769773232
3.746129349
3.713651199
3.677181523
3.640081045
3.603655937
3.561237626
3.525578111
3.492210595
3.453168741
3.417721366
3.382432386
3.354715944
3.327150617
3.293447674
3.266247962
3.253743825
3.237456617
3.225900217
3.205087956
3.195667983
3.190306963
3.175014476
3.168923404
3.158135682
3.148294064
3.143116492
3.130852889
3.117423278
3.109350151
3.0940485
3.08730769
3.076979906
3.066418058
3.054495119
3.042644533
3.032200816
3.018087541
3.005582928
2.991316472
2.972532542
2.959348018
2.938542551
2.925676099
2.906023402
2.893022519
2.868181126
2.854754791
2.834435236
2.819310641
2.803628318
2.785131699
2.76819403
2.758844903
2.733855986
2.709069124
2.694523188
2.674080005
2.655088087
2.639790889
2.626394976
2.610219732
2.59498048
2.585928653
2.576954479
2.565423485
2.558748501
2.553158707
2.549452481
2.54859609
3.998926844
3.996084653
3.99872948
4.002335215
4.000872485
4.000907162
4.002016839
4.000413509
3.995122536
3.997084298
3.990480162
3.982090294
3.978266155
3.976465357
3.974230199
3.964952038
3.954227003
3.944869913
3.942491384
3.92838456
3.912989249
3.903927306
3.890560514
3.873019381
3.849078494
3.825197328
3.80680671
3.778596112
3.756675698
3.717368914
3.693543686
3.659946851
3.617899349