/*--------------------------------*- C++ -*----------------------------------*\
| =========                 |                                                 |
| \\      /  F ield         | OpenFOAM: The Open Source CFD Toolbox           |
|  \\    /   O peration     | Version:  v1706                                 |
|   \\  /    A nd           | Web:      www.OpenFOAM.com                      |
|    \\/     M anipulation  |                                                 |
\*---------------------------------------------------------------------------*/
FoamFile
{
    version     2.0;
    format      ascii;
    class       volScalarField;
    location    "0.04";
    object      mct_N2cold;
}
// * * * * * * * * * * * * * * * * * * * * * * * * * * * * * * * * * * * * * //

dimensions      [0 0 1 0 0 0 0];


internalField   nonuniform List<scalar> 
6000
(
2.771226127e-05
2.763935174e-05
2.723498419e-05
2.609033572e-05
2.210313052e-05
2.770514184e-05
2.749895105e-05
2.695495674e-05
2.549864831e-05
2.268695024e-05
2.780390558e-05
2.752478324e-05
2.695797033e-05
2.575590812e-05
2.393619715e-05
2.774686928e-05
2.762587041e-05
2.711270286e-05
2.616990182e-05
2.506192151e-05
2.772944728e-05
2.752067585e-05
2.725828244e-05
2.662264293e-05
2.584898215e-05
2.774157683e-05
2.764376899e-05
2.735990025e-05
2.70368689e-05
2.640088638e-05
2.767153959e-05
2.758190547e-05
2.737990184e-05
2.706731882e-05
2.680194679e-05
2.781406787e-05
2.76602713e-05
2.747737223e-05
2.73991241e-05
2.711111738e-05
2.776718287e-05
2.762811417e-05
2.757017354e-05
2.74746369e-05
2.730760895e-05
2.783819589e-05
2.775260929e-05
2.766492017e-05
2.739141429e-05
2.738820915e-05
2.776416987e-05
2.774104918e-05
2.768904334e-05
2.768251909e-05
2.756413739e-05
2.77374903e-05
2.774353208e-05
2.772399682e-05
2.76237748e-05
2.754042932e-05
2.781582661e-05
2.776367865e-05
2.780548097e-05
2.779204392e-05
2.775849857e-05
2.782528246e-05
2.781376682e-05
2.779035059e-05
2.772378581e-05
2.767491334e-05
2.784405366e-05
2.776785459e-05
2.772817091e-05
2.778112131e-05
2.77864854e-05
2.775129203e-05
2.77970706e-05
2.786460043e-05
2.788534647e-05
2.7900305e-05
2.78069718e-05
2.777032272e-05
2.779356389e-05
2.772745106e-05
2.76463269e-05
2.781566291e-05
2.777955376e-05
2.771149271e-05
2.768174326e-05
2.775210983e-05
2.78104985e-05
2.77535329e-05
2.779268218e-05
2.773463428e-05
2.78184673e-05
2.778517398e-05
2.789802441e-05
2.794190833e-05
2.790773963e-05
2.782796456e-05
2.783962628e-05
2.781587873e-05
2.785788247e-05
2.784701504e-05
2.782938043e-05
2.785582821e-05
2.777140523e-05
2.776863955e-05
2.776100603e-05
2.776274797e-05
2.782284554e-05
2.772750599e-05
2.771289098e-05
2.763398524e-05
2.772606983e-05
2.781736892e-05
2.790836215e-05
2.785333205e-05
2.788847329e-05
2.776137849e-05
2.78133278e-05
2.784672756e-05
2.789774795e-05
2.797702623e-05
2.79391474e-05
2.785727418e-05
2.785604055e-05
2.783123716e-05
2.78473408e-05
2.790782328e-05
2.783663932e-05
2.790641081e-05
2.790235002e-05
2.781190738e-05
2.780257592e-05
2.780373504e-05
2.774976644e-05
2.780215957e-05
2.782350601e-05
2.775545887e-05
2.777408905e-05
2.777409263e-05
2.773688519e-05
2.778080156e-05
2.781333341e-05
2.779080155e-05
2.7845249e-05
2.78414524e-05
2.775952571e-05
2.783650012e-05
2.776370126e-05
2.769832969e-05
2.777961108e-05
2.770567532e-05
2.772714355e-05
2.778165313e-05
2.780015547e-05
2.779087106e-05
2.781570208e-05
2.776802476e-05
2.778097223e-05
2.777391794e-05
2.780987507e-05
2.785100818e-05
2.784112318e-05
2.780152152e-05
2.778875005e-05
2.772523903e-05
2.774767987e-05
2.772847658e-05
2.778767751e-05
2.773190899e-05
2.777898294e-05
2.779254565e-05
2.777299323e-05
2.780527782e-05
2.783298068e-05
2.779216171e-05
2.779026486e-05
2.774676938e-05
2.779870868e-05
2.788305984e-05
2.788671878e-05
2.78839119e-05
2.788837661e-05
2.783975605e-05
2.785868594e-05
2.780128571e-05
2.784720031e-05
2.786597995e-05
2.777550344e-05
2.771435507e-05
2.774687229e-05
2.773086311e-05
2.77206552e-05
2.779864516e-05
2.778358432e-05
2.777498179e-05
2.779756238e-05
2.775605834e-05
2.780183516e-05
2.782823938e-05
2.785836042e-05
2.787177807e-05
2.781700688e-05
2.783078538e-05
2.783476619e-05
2.778554578e-05
2.775645072e-05
2.78542994e-05
2.779892739e-05
2.78262615e-05
2.785406155e-05
2.792165458e-05
2.787388061e-05
2.774379093e-05
2.770588301e-05
2.772978311e-05
2.778540961e-05
2.773930912e-05
2.784051616e-05
2.784934407e-05
2.781747118e-05
2.777352628e-05
2.774422321e-05
2.77891247e-05
2.77835628e-05
2.779986216e-05
2.784161832e-05
2.78007901e-05
2.777385725e-05
2.777259934e-05
2.774360643e-05
2.768683627e-05
2.775282731e-05
2.777265844e-05
2.781747048e-05
2.786468821e-05
2.786074916e-05
2.785258031e-05
2.780354831e-05
2.775976603e-05
2.77310603e-05
2.77246762e-05
2.770802855e-05
2.778556777e-05
2.77662752e-05
2.771999344e-05
2.773993181e-05
2.775929168e-05
2.783956305e-05
2.790154213e-05
2.792384808e-05
2.788385183e-05
2.787011986e-05
2.782875652e-05
2.778656214e-05
2.780722898e-05
2.779625689e-05
2.777191649e-05
2.776709243e-05
2.778910997e-05
2.776728222e-05
2.782059387e-05
2.781665355e-05
2.78022132e-05
2.781622142e-05
2.779412876e-05
2.782018174e-05
2.784311849e-05
2.782790437e-05
2.787529973e-05
2.78803553e-05
2.784693739e-05
2.790354911e-05
2.777832359e-05
2.777483541e-05
2.773730829e-05
2.771094114e-05
2.770390421e-05
2.773001389e-05
2.774427701e-05
2.773988506e-05
2.775029615e-05
2.778337428e-05
2.783091299e-05
2.778694495e-05
2.777917547e-05
2.780344939e-05
2.778628126e-05
2.779801229e-05
2.781298866e-05
2.780795143e-05
2.780307093e-05
2.777798385e-05
2.783306003e-05
2.781869714e-05
2.774123857e-05
2.775570427e-05
2.777254539e-05
1.64716328e-05
1.566313449e-05
1.558692898e-05
1.587498642e-05
1.593578074e-05
1.623106938e-05
1.652961112e-05
1.663623411e-05
1.689374151e-05
1.705738323e-05
1.720130308e-05
1.745246144e-05
1.765276615e-05
1.774455477e-05
1.795340588e-05
1.80066325e-05
1.828568453e-05
1.842369931e-05
1.855005919e-05
1.872266684e-05
1.880429955e-05
1.88557839e-05
1.912494039e-05
1.92238158e-05
1.935408578e-05
1.94994773e-05
1.978587923e-05
1.988378564e-05
2.009305429e-05
2.036515564e-05
2.033154757e-05
2.027284292e-05
2.049544371e-05
2.074284654e-05
2.080230463e-05
2.093668628e-05
2.09675982e-05
2.085020122e-05
2.097740748e-05
2.133446168e-05
2.126569116e-05
2.135063258e-05
2.162593798e-05
2.170904768e-05
2.191875689e-05
2.203721008e-05
2.202183682e-05
2.202713613e-05
2.227091277e-05
2.231635584e-05
2.247453461e-05
2.231451793e-05
2.256607131e-05
2.258623783e-05
2.26298497e-05
2.258849984e-05
2.287219322e-05
2.277405782e-05
2.312614089e-05
2.30085437e-05
2.307539328e-05
2.312468861e-05
2.32185748e-05
2.341468921e-05
2.35120295e-05
2.354015941e-05
2.349703745e-05
2.349807642e-05
2.352927101e-05
2.389012866e-05
2.391103553e-05
2.399492131e-05
2.404171196e-05
2.399960641e-05
2.429933297e-05
2.445772991e-05
2.456878421e-05
2.47916753e-05
2.487985062e-05
2.503749747e-05
2.530674665e-05
2.534673106e-05
2.533812057e-05
2.565688791e-05
2.58916271e-05
2.634530325e-05
2.626683217e-05
2.713449473e-05
2.737617206e-05
2.809540241e-05
2.918290879e-05
3.023478664e-05
3.18995615e-05
3.4850863e-05
4.082390374e-05
1.97103155e-05
1.756206821e-05
1.639736048e-05
1.598739801e-05
1.587052187e-05
1.601281373e-05
1.609722393e-05
1.627861423e-05
1.65404226e-05
1.671279981e-05
1.691734893e-05
1.717033082e-05
1.731083242e-05
1.754217133e-05
1.772333751e-05
1.799812361e-05
1.812991942e-05
1.83317948e-05
1.851089506e-05
1.86037808e-05
1.89751931e-05
1.912274467e-05
1.921032992e-05
1.929467748e-05
1.963207383e-05
1.980905628e-05
1.990031685e-05
2.002702297e-05
2.025411314e-05
2.041526552e-05
2.053915802e-05
2.053589001e-05
2.069193968e-05
2.088768382e-05
2.100752606e-05
2.12196246e-05
2.137999166e-05
2.132340098e-05
2.14563483e-05
2.144101796e-05
2.150305673e-05
2.165752526e-05
2.186211077e-05
2.201778698e-05
2.203669557e-05
2.23294799e-05
2.23396115e-05
2.233370844e-05
2.254288632e-05
2.263577008e-05
2.263995957e-05
2.267150262e-05
2.268832726e-05
2.291403848e-05
2.307772528e-05
2.31456155e-05
2.326684216e-05
2.336413986e-05
2.356070273e-05
2.338440666e-05
2.363043509e-05
2.366160487e-05
2.380295104e-05
2.37116393e-05
2.380453608e-05
2.392322321e-05
2.390351074e-05
2.394366617e-05
2.410254647e-05
2.415629673e-05
2.425125188e-05
2.444241951e-05
2.44990741e-05
2.454614369e-05
2.473457012e-05
2.489534437e-05
2.504577467e-05
2.515928335e-05
2.52103977e-05
2.549639163e-05
2.56283426e-05
2.575457355e-05
2.580740714e-05
2.595826923e-05
2.616190283e-05
2.665884755e-05
2.695716026e-05
2.755149475e-05
2.801618424e-05
2.865891555e-05
2.959461879e-05
3.065074156e-05
3.242316323e-05
3.575960826e-05
4.222594615e-05
2.1981334e-05
2.013359648e-05
1.874620784e-05
1.761283745e-05
1.69486688e-05
1.659291579e-05
1.635237397e-05
1.637590726e-05
1.641957139e-05
1.650543992e-05
1.669178498e-05
1.679677227e-05
1.692980595e-05
1.72554707e-05
1.743502619e-05
1.767802077e-05
1.790786225e-05
1.819440405e-05
1.836456455e-05
1.854707484e-05
1.877831969e-05
1.888005026e-05
1.908426445e-05
1.919828405e-05
1.941186766e-05
1.968876453e-05
1.972247829e-05
1.984811713e-05
2.005445484e-05
2.026931631e-05
2.039193842e-05
2.061119395e-05
2.068846088e-05
2.084618102e-05
2.113026435e-05
2.123860349e-05
2.125846075e-05
2.148959101e-05
2.16376295e-05
2.17269544e-05
2.169090081e-05
2.187999555e-05
2.198298154e-05
2.21486285e-05
2.230619205e-05
2.233801402e-05
2.240985845e-05
2.257833968e-05
2.278919375e-05
2.289411218e-05
2.294983876e-05
2.298670068e-05
2.289497338e-05
2.316997965e-05
2.325128732e-05
2.339080964e-05
2.339458235e-05
2.362946027e-05
2.370898512e-05
2.371885436e-05
2.382875182e-05
2.395925735e-05
2.391507164e-05
2.398438592e-05
2.41690848e-05
2.422372984e-05
2.432050255e-05
2.437120692e-05
2.43938675e-05
2.4480823e-05
2.452578035e-05
2.469252107e-05
2.472074285e-05
2.487628475e-05
2.504322853e-05
2.510177109e-05
2.514779885e-05
2.545824928e-05
2.562986591e-05
2.558711989e-05
2.582309329e-05
2.605340953e-05
2.622861397e-05
2.644823448e-05
2.664451391e-05
2.695002223e-05
2.727457273e-05
2.769468302e-05
2.848016364e-05
2.879981797e-05
2.984993515e-05
3.082133764e-05
3.267387891e-05
3.578250494e-05
4.194562691e-05
2.361944509e-05
2.216392548e-05
2.076727597e-05
1.965193713e-05
1.858505966e-05
1.785781542e-05
1.729166423e-05
1.693845632e-05
1.6765145e-05
1.664617065e-05
1.669291851e-05
1.665975276e-05
1.686238616e-05
1.699997186e-05
1.713654009e-05
1.736054222e-05
1.751445386e-05
1.779216202e-05
1.787712992e-05
1.804739459e-05
1.827144503e-05
1.847464592e-05
1.861749887e-05
1.872559142e-05
1.904172964e-05
1.937431079e-05
1.949643143e-05
1.969641456e-05
1.979401876e-05
2.002036354e-05
2.014023528e-05
2.046872348e-05
2.063412979e-05
2.072585763e-05
2.078673173e-05
2.093428425e-05
2.115188207e-05
2.119808954e-05
2.133625201e-05
2.162731965e-05
2.170532026e-05
2.18651134e-05
2.206279534e-05
2.196262322e-05
2.220217986e-05
2.246893451e-05
2.257359556e-05
2.250406969e-05
2.27377566e-05
2.284122303e-05
2.313420217e-05
2.306507625e-05
2.310233849e-05
2.300153543e-05
2.330630835e-05
2.352897324e-05
2.361823966e-05
2.368263536e-05
2.375752111e-05
2.37589116e-05
2.403635534e-05
2.408430451e-05
2.416604269e-05
2.421802292e-05
2.420566497e-05
2.450611752e-05
2.44704312e-05
2.458006433e-05
2.45609695e-05
2.477344166e-05
2.490148013e-05
2.490691013e-05
2.510746631e-05
2.513816351e-05
2.519964352e-05
2.522734153e-05
2.545036058e-05
2.572155998e-05
2.565778125e-05
2.572504843e-05
2.610776682e-05
2.619454651e-05
2.638150604e-05
2.646624758e-05
2.692481469e-05
2.717705742e-05
2.745962027e-05
2.798081333e-05
2.856461071e-05
2.911384723e-05
2.977671734e-05
3.105444837e-05
3.285232091e-05
3.568718861e-05
4.106427187e-05
2.481066522e-05
2.384426255e-05
2.258044955e-05
2.143552444e-05
2.032055962e-05
1.946242579e-05
1.865740615e-05
1.800402981e-05
1.756254357e-05
1.723703896e-05
1.698796112e-05
1.693438358e-05
1.6891254e-05
1.699324516e-05
1.699351228e-05
1.711777617e-05
1.730876942e-05
1.741724791e-05
1.752142121e-05
1.772483512e-05
1.786762083e-05
1.798027575e-05
1.832873629e-05
1.852581789e-05
1.86314661e-05
1.895696576e-05
1.914230115e-05
1.923825252e-05
1.95414034e-05
1.972375397e-05
1.989124654e-05
2.01426183e-05
2.019537981e-05
2.045332808e-05
2.065652164e-05
2.078220355e-05
2.092717144e-05
2.104520514e-05
2.113095346e-05
2.126971494e-05
2.147351824e-05
2.169474185e-05
2.18375495e-05
2.192341655e-05
2.20463576e-05
2.216311206e-05
2.238855559e-05
2.259270216e-05
2.265725084e-05
2.28239939e-05
2.285841214e-05
2.305349818e-05
2.300099083e-05
2.314767198e-05
2.330566435e-05
2.362433439e-05
2.360092534e-05
2.369082583e-05
2.377292051e-05
2.372184543e-05
2.408622169e-05
2.413413884e-05
2.410018114e-05
2.43165006e-05
2.4268423e-05
2.437159993e-05
2.448957104e-05
2.452354505e-05
2.463276737e-05
2.472528567e-05
2.503242907e-05
2.524364798e-05
2.516791058e-05
2.517074774e-05
2.517732752e-05
2.534832763e-05
2.540024338e-05
2.562716059e-05
2.564640681e-05
2.582730885e-05
2.618924296e-05
2.64160547e-05
2.661995681e-05
2.671544482e-05
2.683513037e-05
2.710781419e-05
2.754366634e-05
2.797011546e-05
2.867742457e-05
2.929289094e-05
3.013372095e-05
3.110325829e-05
3.280733521e-05
3.530584248e-05
3.975735175e-05
2.56871113e-05
2.488175391e-05
2.390053128e-05
2.303950865e-05
2.196742725e-05
2.093965645e-05
2.012182567e-05
1.937200147e-05
1.874141043e-05
1.824526901e-05
1.779670132e-05
1.738402217e-05
1.724603172e-05
1.714939065e-05
1.704918302e-05
1.700621139e-05
1.707274857e-05
1.720904947e-05
1.728697444e-05
1.737740392e-05
1.758789097e-05
1.775510806e-05
1.788176252e-05
1.811118055e-05
1.827710753e-05
1.843037555e-05
1.865023541e-05
1.892308867e-05
1.901380564e-05
1.921802258e-05
1.953561562e-05
1.968052944e-05
1.981001076e-05
2.017196134e-05
2.036962362e-05
2.051235852e-05
2.063880662e-05
2.088461903e-05
2.098527607e-05
2.116132156e-05
2.125354426e-05
2.139717748e-05
2.153844477e-05
2.171083567e-05
2.179505618e-05
2.197366517e-05
2.222115744e-05
2.228194636e-05
2.245284157e-05
2.262202587e-05
2.263083429e-05
2.277045366e-05
2.295148538e-05
2.312858304e-05
2.319858707e-05
2.329481176e-05
2.34966622e-05
2.358511946e-05
2.370666182e-05
2.392622062e-05
2.414502679e-05
2.395038966e-05
2.400233379e-05
2.433144694e-05
2.42213013e-05
2.435895303e-05
2.460914886e-05
2.45606248e-05
2.472003276e-05
2.481608458e-05
2.487140927e-05
2.505588212e-05
2.498263596e-05
2.524848176e-05
2.522651678e-05
2.546506608e-05
2.554017526e-05
2.568021418e-05
2.591359712e-05
2.602375621e-05
2.607282331e-05
2.64448777e-05
2.669853892e-05
2.681024858e-05
2.698469892e-05
2.729916838e-05
2.764894014e-05
2.788469626e-05
2.853944011e-05
2.909067198e-05
3.009440023e-05
3.108968622e-05
3.251906068e-05
3.478618918e-05
3.858093505e-05
2.624651088e-05
2.558012495e-05
2.497047781e-05
2.415103678e-05
2.328570174e-05
2.24816841e-05
2.15105608e-05
2.070718366e-05
2.001656629e-05
1.931026741e-05
1.878708418e-05
1.824130338e-05
1.779834371e-05
1.763862403e-05
1.745801003e-05
1.728062719e-05
1.714350159e-05
1.706729095e-05
1.710946089e-05
1.720297289e-05
1.728724471e-05
1.744158074e-05
1.755087345e-05
1.766479944e-05
1.78139861e-05
1.798247225e-05
1.810080332e-05
1.834078368e-05
1.858352266e-05
1.870650817e-05
1.892851386e-05
1.918604706e-05
1.947687152e-05
1.967663491e-05
1.982379348e-05
2.007220206e-05
2.021639047e-05
2.033335332e-05
2.053410266e-05
2.082795099e-05
2.100941845e-05
2.103942846e-05
2.128258974e-05
2.134019118e-05
2.150972826e-05
2.17778775e-05
2.19582536e-05
2.202342241e-05
2.218884022e-05
2.233577146e-05
2.242464417e-05
2.264077217e-05
2.275355503e-05
2.300248723e-05
2.29689e-05
2.309446492e-05
2.329277111e-05
2.35164273e-05
2.352165222e-05
2.369133104e-05
2.392609453e-05
2.400008684e-05
2.421727077e-05
2.413209085e-05
2.414786107e-05
2.427253684e-05
2.455449277e-05
2.456087729e-05
2.462616127e-05
2.468591992e-05
2.486490298e-05
2.494227186e-05
2.495673329e-05
2.518634822e-05
2.532037968e-05
2.540345603e-05
2.569181247e-05
2.573293034e-05
2.597900433e-05
2.598558403e-05
2.608079722e-05
2.638882669e-05
2.662381526e-05
2.690612467e-05
2.697306787e-05
2.741187105e-05
2.763819283e-05
2.795287343e-05
2.846405946e-05
2.898176921e-05
2.996197243e-05
3.098889436e-05
3.24073406e-05
3.426859685e-05
3.744785033e-05
2.67585396e-05
2.628026789e-05
2.570349274e-05
2.523175467e-05
2.442266969e-05
2.37212627e-05
2.299132998e-05
2.221429788e-05
2.132013308e-05
2.056747902e-05
1.988025747e-05
1.930031438e-05
1.872169267e-05
1.819579386e-05
1.790654558e-05
1.769254092e-05
1.738896401e-05
1.727162683e-05
1.71957773e-05
1.72066499e-05
1.715907895e-05
1.721771708e-05
1.726616225e-05
1.73409908e-05
1.744596175e-05
1.754455934e-05
1.768262394e-05
1.788854111e-05
1.806237291e-05
1.828006416e-05
1.83714595e-05
1.871217346e-05
1.888661983e-05
1.914364823e-05
1.927852544e-05
1.955898949e-05
1.966609362e-05
1.987300926e-05
2.017039417e-05
2.019594948e-05
2.042279092e-05
2.064159468e-05
2.096442933e-05
2.095199722e-05
2.109590718e-05
2.132893847e-05
2.161467164e-05
2.177686054e-05
2.186743754e-05
2.199949721e-05
2.208393317e-05
2.23536588e-05
2.234702423e-05
2.251045871e-05
2.276055164e-05
2.289880203e-05
2.316530996e-05
2.328613521e-05
2.341310746e-05
2.362317246e-05
2.35759853e-05
2.375236839e-05
2.390764185e-05
2.397910384e-05
2.411181056e-05
2.421137489e-05
2.423353894e-05
2.437417282e-05
2.460439471e-05
2.4697536e-05
2.465988698e-05
2.470429862e-05
2.478549845e-05
2.517804061e-05
2.514196622e-05
2.529176141e-05
2.545511581e-05
2.564396327e-05
2.586453233e-05
2.602925606e-05
2.595944299e-05
2.609193895e-05
2.644300626e-05
2.663440697e-05
2.683186983e-05
2.722159312e-05
2.75580494e-05
2.801263591e-05
2.818884443e-05
2.903361183e-05
2.961396403e-05
3.075596704e-05
3.198717058e-05
3.364866333e-05
3.642492729e-05
2.697771918e-05
2.665367011e-05
2.635218899e-05
2.584982177e-05
2.534741196e-05
2.47157171e-05
2.406669262e-05
2.323387505e-05
2.258697203e-05
2.17914143e-05
2.106415578e-05
2.043883989e-05
1.973321032e-05
1.917931645e-05
1.870189848e-05
1.834807786e-05
1.795734472e-05
1.771385138e-05
1.747137667e-05
1.7352089e-05
1.721850909e-05
1.711380383e-05
1.715785638e-05
1.718162012e-05
1.719261936e-05
1.726087669e-05
1.736788307e-05
1.748540922e-05
1.762463012e-05
1.784244053e-05
1.805904478e-05
1.809314754e-05
1.839187055e-05
1.854738842e-05
1.88140346e-05
1.899930528e-05
1.925090814e-05
1.941614146e-05
1.957770308e-05
1.971501173e-05
1.998143317e-05
2.012590806e-05
2.039775095e-05
2.05175476e-05
2.068372738e-05
2.091262811e-05
2.101991065e-05
2.109758565e-05
2.128799307e-05
2.157344729e-05
2.165637287e-05
2.182900897e-05
2.188363816e-05
2.207413393e-05
2.224597133e-05
2.240041067e-05
2.270864464e-05
2.28537603e-05
2.289438888e-05
2.298105029e-05
2.318649563e-05
2.340346316e-05
2.358052298e-05
2.366511348e-05
2.384455825e-05
2.381753807e-05
2.403965071e-05
2.40750241e-05
2.427288421e-05
2.442025064e-05
2.449845254e-05
2.462612691e-05
2.469442069e-05
2.493687869e-05
2.491113561e-05
2.50740111e-05
2.510998926e-05
2.550261589e-05
2.559295131e-05
2.57549022e-05
2.582198078e-05
2.606095935e-05
2.637196691e-05
2.664668587e-05
2.67876089e-05
2.70970971e-05
2.732577673e-05
2.772890344e-05
2.794123884e-05
2.875546235e-05
2.931814061e-05
3.012143164e-05
3.116738846e-05
3.292655552e-05
3.511221279e-05
2.71568973e-05
2.706989342e-05
2.673291474e-05
2.641609451e-05
2.59719377e-05
2.544712836e-05
2.487580828e-05
2.44001278e-05
2.385201681e-05
2.313972589e-05
2.247093395e-05
2.17830096e-05
2.117312237e-05
2.045025046e-05
1.986645758e-05
1.930022539e-05
1.886786359e-05
1.83558702e-05
1.802838242e-05
1.783771974e-05
1.761788601e-05
1.733221885e-05
1.72246677e-05
1.71577227e-05
1.715549339e-05
1.716356424e-05
1.718192237e-05
1.724589057e-05
1.732381066e-05
1.746657248e-05
1.761959827e-05
1.781644987e-05
1.796211415e-05
1.809799625e-05
1.830359154e-05
1.854383679e-05
1.859362792e-05
1.884074644e-05
1.902407883e-05
1.926381329e-05
1.94986209e-05
1.960342576e-05
1.978783773e-05
2.001023913e-05
2.014303394e-05
2.031449912e-05
2.050854961e-05
2.073782872e-05
2.092083006e-05
2.108994801e-05
2.122686152e-05
2.138023046e-05
2.161794775e-05
2.180930968e-05
2.185859445e-05
2.204435126e-05
2.22909232e-05
2.246476597e-05
2.250113444e-05
2.271724417e-05
2.301717154e-05
2.312045587e-05
2.32898021e-05
2.337256833e-05
2.350464071e-05
2.370006e-05
2.381450884e-05
2.389443206e-05
2.407067202e-05
2.421608644e-05
2.437515726e-05
2.437812615e-05
2.448744814e-05
2.459731213e-05
2.479293379e-05
2.489746625e-05
2.508775238e-05
2.526241562e-05
2.538631415e-05
2.555641477e-05
2.580993742e-05
2.601804728e-05
2.624357591e-05
2.639971937e-05
2.661347265e-05
2.685020212e-05
2.719683402e-05
2.745610782e-05
2.793095784e-05
2.827479546e-05
2.900055664e-05
2.989831854e-05
3.090410355e-05
3.227593553e-05
3.40071648e-05
2.739476047e-05
2.717312371e-05
2.709692537e-05
2.684945827e-05
2.6508277e-05
2.619516176e-05
2.576587554e-05
2.528207984e-05
2.481937947e-05
2.427731204e-05
2.364584396e-05
2.303627927e-05
2.233755826e-05
2.162678118e-05
2.092687635e-05
2.035884903e-05
1.982328243e-05
1.935293307e-05
1.889723884e-05
1.845713817e-05
1.810236878e-05
1.778906721e-05
1.76138618e-05
1.742602608e-05
1.727381686e-05
1.720257109e-05
1.713441956e-05
1.71990843e-05
1.721957306e-05
1.723862581e-05
1.727307074e-05
1.739802162e-05
1.746048981e-05
1.763501261e-05
1.783949154e-05
1.798081807e-05
1.820380472e-05
1.834211443e-05
1.84859754e-05
1.867358027e-05
1.885441841e-05
1.897957662e-05
1.92104701e-05
1.937137781e-05
1.962347644e-05
1.987024244e-05
2.003858643e-05
2.022860137e-05
2.038343242e-05
2.057186183e-05
2.071701111e-05
2.090549176e-05
2.116998499e-05
2.13374925e-05
2.152544281e-05
2.167781757e-05
2.181578488e-05
2.20339645e-05
2.229129327e-05
2.246315602e-05
2.253675604e-05
2.276234311e-05
2.283585388e-05
2.30418205e-05
2.316955573e-05
2.334481321e-05
2.347424494e-05
2.357319311e-05
2.377994415e-05
2.389559722e-05
2.396021647e-05
2.402992664e-05
2.425072352e-05
2.429578594e-05
2.441575661e-05
2.449924576e-05
2.464469046e-05
2.495139522e-05
2.496622541e-05
2.516975966e-05
2.548148498e-05
2.57349651e-05
2.597470771e-05
2.615642984e-05
2.619365325e-05
2.64959016e-05
2.686322707e-05
2.717158365e-05
2.748675937e-05
2.800212288e-05
2.854895372e-05
2.932928901e-05
3.032703354e-05
3.148492741e-05
3.301126121e-05
2.74105722e-05
2.732120147e-05
2.729877185e-05
2.712309412e-05
2.700844602e-05
2.677233482e-05
2.645685197e-05
2.599977135e-05
2.543639566e-05
2.499918606e-05
2.459627653e-05
2.418398013e-05
2.349537558e-05
2.288945251e-05
2.222946989e-05
2.16431228e-05
2.090828761e-05
2.030777047e-05
1.982187313e-05
1.928775945e-05
1.884466843e-05
1.849467007e-05
1.810897948e-05
1.780643969e-05
1.757999057e-05
1.73818971e-05
1.724392102e-05
1.718600475e-05
1.712730345e-05
1.710258253e-05
1.713185804e-05
1.71247036e-05
1.721545305e-05
1.723970991e-05
1.742178361e-05
1.757827932e-05
1.765522897e-05
1.782618791e-05
1.795366832e-05
1.818107874e-05
1.838346613e-05
1.856226019e-05
1.873547113e-05
1.896387119e-05
1.912822111e-05
1.923176008e-05
1.944751457e-05
1.97084906e-05
1.992112199e-05
2.003602105e-05
2.024324416e-05
2.035447648e-05
2.054486434e-05
2.074243559e-05
2.102205537e-05
2.123995636e-05
2.129447949e-05
2.151673291e-05
2.17010156e-05
2.188942881e-05
2.200994631e-05
2.212471344e-05
2.222254036e-05
2.25096702e-05
2.272483501e-05
2.28778096e-05
2.304985488e-05
2.31931293e-05
2.335243629e-05
2.34455791e-05
2.358177633e-05
2.368171781e-05
2.380682593e-05
2.387632546e-05
2.406509982e-05
2.410833613e-05
2.432829979e-05
2.4639555e-05
2.475204084e-05
2.495531583e-05
2.50576722e-05
2.523272496e-05
2.546839868e-05
2.572073398e-05
2.585406748e-05
2.632074096e-05
2.656357269e-05
2.686002394e-05
2.725720516e-05
2.760040882e-05
2.819638928e-05
2.885007656e-05
2.956092865e-05
3.067269235e-05
3.201564283e-05
2.767568088e-05
2.753111111e-05
2.746369735e-05
2.738494792e-05
2.712248769e-05
2.684681678e-05
2.662099206e-05
2.644594966e-05
2.615432946e-05
2.581563562e-05
2.540184634e-05
2.492460395e-05
2.448914058e-05
2.395515407e-05
2.328840747e-05
2.264923845e-05
2.214553542e-05
2.151762571e-05
2.088117519e-05
2.034691531e-05
1.980853702e-05
1.931921057e-05
1.883086528e-05
1.845362483e-05
1.815118243e-05
1.785666508e-05
1.759116532e-05
1.736043246e-05
1.72210697e-05
1.709442012e-05
1.70185983e-05
1.705501109e-05
1.707678293e-05
1.711902678e-05
1.720538135e-05
1.727761006e-05
1.737598374e-05
1.750656659e-05
1.758047776e-05
1.773919417e-05
1.789803886e-05
1.807091957e-05
1.82449303e-05
1.837626294e-05
1.85636122e-05
1.880255022e-05
1.899933666e-05
1.916842239e-05
1.938129923e-05
1.949884149e-05
1.970627172e-05
1.981890148e-05
2.001255484e-05
2.02128025e-05
2.045960158e-05
2.060444416e-05
2.066591726e-05
2.086534214e-05
2.107713606e-05
2.13557164e-05
2.152014906e-05
2.157674488e-05
2.178328705e-05
2.20695498e-05
2.22504194e-05
2.235571937e-05
2.26002352e-05
2.277805632e-05
2.2862539e-05
2.305829251e-05
2.322627657e-05
2.332162172e-05
2.342513464e-05
2.361843975e-05
2.369636921e-05
2.377988831e-05
2.398566751e-05
2.427164059e-05
2.441880517e-05
2.452778533e-05
2.473178206e-05
2.498906759e-05
2.518867938e-05
2.553009661e-05
2.563421236e-05
2.58785233e-05
2.606233976e-05
2.640468378e-05
2.67992906e-05
2.727157818e-05
2.757320882e-05
2.825204268e-05
2.912717132e-05
2.993104001e-05
3.135299131e-05
2.762370996e-05
2.763702259e-05
2.752710441e-05
2.746752269e-05
2.735484843e-05
2.725505016e-05
2.706538296e-05
2.687770734e-05
2.659105984e-05
2.633493106e-05
2.598987198e-05
2.55444096e-05
2.517661113e-05
2.472138546e-05
2.42989744e-05
2.378760725e-05
2.32160658e-05
2.25989066e-05
2.194485236e-05
2.142613207e-05
2.08336315e-05
2.031992732e-05
1.982379345e-05
1.935220296e-05
1.883990404e-05
1.845267431e-05
1.806275276e-05
1.779208878e-05
1.761058332e-05
1.739631118e-05
1.727369057e-05
1.713291667e-05
1.706209187e-05
1.69945023e-05
1.696189149e-05
1.703275332e-05
1.70717201e-05
1.718677089e-05
1.724886728e-05
1.732097219e-05
1.746780317e-05
1.762152956e-05
1.774786391e-05
1.791094058e-05
1.808484787e-05
1.828235058e-05
1.844669301e-05
1.855285223e-05
1.871214558e-05
1.893085525e-05
1.908970993e-05
1.932553818e-05
1.948914023e-05
1.969184951e-05
1.987816627e-05
1.998340567e-05
2.020693241e-05
2.039776041e-05
2.054705607e-05
2.073863695e-05
2.093162988e-05
2.111432273e-05
2.130903981e-05
2.144367878e-05
2.16774139e-05
2.185964695e-05
2.195721584e-05
2.220287518e-05
2.24013554e-05
2.252806369e-05
2.277940088e-05
2.28916394e-05
2.300810145e-05
2.319815207e-05
2.326628926e-05
2.338595828e-05
2.350057771e-05
2.366545221e-05
2.398562016e-05
2.418599383e-05
2.426142523e-05
2.454486236e-05
2.478486214e-05
2.500532761e-05
2.522690665e-05
2.550298821e-05
2.56371264e-05
2.600034512e-05
2.628815762e-05
2.670013897e-05
2.705283851e-05
2.770643946e-05
2.833847631e-05
2.913623851e-05
3.016142586e-05
2.780639023e-05
2.767312373e-05
2.766013067e-05
2.756045845e-05
2.753580752e-05
2.743544008e-05
2.732133368e-05
2.71835662e-05
2.699090815e-05
2.684269926e-05
2.660589386e-05
2.632695443e-05
2.600305036e-05
2.562665133e-05
2.511188487e-05
2.467473994e-05
2.422088747e-05
2.370732426e-05
2.311816488e-05
2.258875712e-05
2.201141985e-05
2.14634681e-05
2.08686363e-05
2.029158259e-05
1.983281996e-05
1.934033522e-05
1.889604918e-05
1.850306271e-05
1.815421616e-05
1.785600419e-05
1.75978489e-05
1.740960562e-05
1.724288496e-05
1.717583375e-05
1.710540133e-05
1.705671685e-05
1.706299692e-05
1.700879486e-05
1.708308243e-05
1.712241296e-05
1.720099855e-05
1.729513677e-05
1.740348886e-05
1.74907298e-05
1.7592227e-05
1.772376694e-05
1.788783527e-05
1.806857275e-05
1.827650333e-05
1.845064755e-05
1.861731573e-05
1.878248005e-05
1.899033997e-05
1.917097327e-05
1.937515424e-05
1.953651435e-05
1.966095092e-05
1.986140053e-05
2.002731032e-05
2.010448971e-05
2.042321897e-05
2.061680686e-05
2.076507928e-05
2.095559409e-05
2.116670318e-05
2.139284492e-05
2.157660132e-05
2.176797322e-05
2.184160829e-05
2.204837641e-05
2.213246563e-05
2.236249269e-05
2.262578508e-05
2.272903212e-05
2.29278808e-05
2.302122299e-05
2.318771867e-05
2.337698517e-05
2.360116286e-05
2.372765991e-05
2.392069167e-05
2.40754176e-05
2.433461743e-05
2.453575954e-05
2.478229001e-05
2.484516268e-05
2.516938554e-05
2.550706138e-05
2.587358308e-05
2.599446224e-05
2.650011973e-05
2.691180653e-05
2.741941604e-05
2.826841787e-05
2.940439046e-05
2.786353246e-05
2.781829563e-05
2.782102771e-05
2.780792232e-05
2.771312616e-05
2.764651245e-05
2.748456531e-05
2.740986836e-05
2.727659318e-05
2.706436025e-05
2.686925499e-05
2.660787935e-05
2.647878852e-05
2.620940787e-05
2.581451836e-05
2.547514172e-05
2.514017736e-05
2.464160281e-05
2.419868735e-05
2.37077653e-05
2.308409208e-05
2.261600053e-05
2.209535222e-05
2.145592168e-05
2.086580502e-05
2.036286784e-05
1.985255759e-05
1.937245938e-05
1.889314892e-05
1.853163667e-05
1.818737728e-05
1.785194779e-05
1.755615713e-05
1.736937483e-05
1.721265979e-05
1.711568323e-05
1.706656598e-05
1.69938768e-05
1.699051285e-05
1.696397237e-05
1.701596114e-05
1.700889004e-05
1.702980514e-05
1.715794215e-05
1.731199196e-05
1.742281923e-05
1.753342677e-05
1.765559511e-05
1.78559367e-05
1.803446426e-05
1.812896658e-05
1.830674089e-05
1.846330103e-05
1.854386987e-05
1.872092328e-05
1.89709972e-05
1.913753574e-05
1.93605415e-05
1.954247258e-05
1.972280366e-05
1.987577655e-05
2.00562091e-05
2.026782363e-05
2.047199515e-05
2.060640924e-05
2.073456016e-05
2.095082714e-05
2.110976251e-05
2.128224877e-05
2.151857311e-05
2.171153217e-05
2.186741198e-05
2.205217658e-05
2.22467485e-05
2.244133656e-05
2.263668183e-05
2.283200582e-05
2.292494764e-05
2.311604686e-05
2.325233896e-05
2.350810086e-05
2.362775911e-05
2.393194395e-05
2.415724739e-05
2.444820359e-05
2.463984554e-05
2.477109973e-05
2.490959922e-05
2.519304601e-05
2.551892707e-05
2.588500928e-05
2.64221002e-05
2.699354863e-05
2.754298703e-05
2.849621595e-05
2.764860596e-05
2.767309353e-05
2.767957587e-05
2.765718693e-05
2.751561019e-05
2.751543063e-05
2.742157865e-05
2.734829472e-05
2.726528478e-05
2.723957009e-05
2.706517244e-05
2.698260097e-05
2.675935596e-05
2.662235813e-05