/*--------------------------------*- C++ -*----------------------------------*\
| =========                 |                                                 |
| \\      /  F ield         | OpenFOAM: The Open Source CFD Toolbox           |
|  \\    /   O peration     | Version:  v1706                                 |
|   \\  /    A nd           | Web:      www.OpenFOAM.com                      |
|    \\/     M anipulation  |                                                 |
\*---------------------------------------------------------------------------*/
FoamFile
{
    version     2.0;
    format      ascii;
    class       volScalarField;
    location    "0.04";
    object      mctToDt_N2cold;
}
// * * * * * * * * * * * * * * * * * * * * * * * * * * * * * * * * * * * * * //

dimensions      [0 0 0 0 0 0 0];


internalField   nonuniform List<scalar> 
6000
(
6.928065318
6.909837936
6.808746048
6.522583931
5.525782631
6.926285461
6.874737763
6.738739184
6.374662077
5.67173756
6.950976394
6.88119581
6.739492583
6.438977029
5.984049288
6.93671732
6.906467603
6.778175716
6.542475455
6.265480376
6.932361821
6.880168963
6.814570609
6.655660731
6.462245536
6.935394207
6.910942247
6.839975063
6.759217226
6.600221594
6.917884899
6.895476368
6.844975461
6.766829706
6.700486697
6.953516968
6.915067826
6.869343056
6.849781026
6.777779345
6.941795718
6.907028541
6.892543385
6.868659225
6.826902238
6.959548973
6.938152324
6.916230043
6.847853574
6.847052288
6.941042467
6.935262294
6.922260836
6.920629772
6.891034348
6.934372574
6.93588302
6.930999205
6.9059437
6.88510733
6.953956653
6.940919661
6.951370242
6.94801098
6.939624643
6.956320614
6.953441704
6.947587648
6.930946453
6.918728335
6.961013416
6.941963647
6.932042727
6.945280326
6.94662135
6.937823007
6.949267651
6.966150108
6.971336618
6.97507625
6.951742949
6.94258068
6.948390973
6.931862766
6.911581726
6.953915728
6.944888441
6.927873176
6.920435814
6.938027457
6.952624626
6.938383226
6.948170545
6.933658569
6.954616825
6.946293495
6.974506102
6.985477082
6.976934908
6.956991141
6.95990657
6.953969683
6.964470617
6.96175376
6.957345109
6.963957052
6.942851309
6.942159888
6.940251509
6.940686994
6.955711386
6.931876497
6.928222745
6.908496309
6.931517456
6.954342229
6.977090539
6.963333013
6.972118323
6.940344623
6.95333195
6.961681889
6.974436987
6.994256557
6.98478685
6.964318545
6.964010138
6.957809289
6.961835201
6.976955821
6.959159831
6.976602704
6.975587504
6.952976845
6.950643981
6.950933761
6.937441609
6.950539893
6.955876502
6.938864716
6.943522262
6.943523157
6.934221297
6.945200391
6.953333353
6.947700388
6.96131225
6.960363101
6.939881428
6.959125031
6.940925316
6.924582422
6.94490277
6.92641883
6.931785888
6.945413284
6.950038868
6.947717764
6.953925521
6.942006191
6.945243058
6.943479485
6.952468767
6.962752046
6.960280794
6.950380381
6.947187512
6.931309757
6.936919967
6.932119144
6.946919377
6.932977247
6.944745735
6.948136412
6.943248308
6.951319454
6.958245169
6.948040427
6.947566216
6.936692345
6.94967717
6.970764959
6.971679694
6.970977974
6.972094153
6.959939013
6.964671486
6.950321427
6.961800078
6.966494987
6.94387586
6.928588768
6.936718071
6.932715778
6.930163801
6.949661289
6.945896081
6.943745447
6.949390595
6.939014584
6.950458789
6.957059844
6.964590104
6.967944518
6.954251721
6.957696345
6.958691547
6.946386444
6.939112681
6.96357485
6.949731848
6.956565376
6.963515387
6.980413644
6.968470153
6.935947733
6.926470752
6.932445779
6.946352402
6.934827279
6.96012904
6.962336018
6.954367794
6.943381571
6.936055803
6.947281175
6.945890701
6.949965541
6.960404581
6.950197526
6.943464313
6.943149834
6.935901607
6.921709067
6.938206827
6.94316461
6.95436762
6.966172052
6.965187291
6.963145078
6.950887077
6.939941507
6.932765076
6.93116905
6.927007138
6.946391942
6.9415688
6.929998359
6.934982952
6.939822919
6.959890763
6.975385533
6.980962021
6.970962957
6.967529964
6.957189131
6.946640534
6.951807245
6.949064222
6.942979122
6.941773107
6.947277492
6.941820555
6.955148469
6.954163387
6.9505533
6.954055355
6.948532191
6.955045435
6.960779623
6.956976093
6.968824933
6.970088826
6.961734348
6.975887277
6.944580897
6.943708853
6.934327074
6.927735286
6.925976052
6.932503472
6.936069254
6.934971264
6.937574038
6.945843571
6.957728247
6.946736238
6.944793868
6.950862347
6.946570316
6.949503073
6.953247165
6.951987857
6.950767731
6.944495963
6.958265008
6.954674286
6.935309642
6.938926067
6.943136349
4.1179082
3.915783622
3.896732245
3.968746605
3.983945185
4.057767344
4.132402781
4.159058529
4.223435377
4.264345807
4.300325769
4.36311536
4.413191538
4.436138692
4.48835147
4.501658126
4.571421132
4.605924828
4.637514796
4.680666711
4.701074887
4.713945975
4.781235098
4.805953949
4.838521444
4.874869326
4.946469808
4.970946411
5.023263572
5.09128891
5.082886892
5.06821073
5.123860928
5.185711636
5.200576158
5.234171571
5.24189955
5.212550306
5.244351869
5.33361542
5.316422789
5.337658146
5.406484496
5.427261919
5.479689223
5.509302519
5.505459204
5.506784032
5.567728193
5.579088959
5.618633651
5.578629481
5.641517828
5.646559457
5.657462425
5.647124961
5.718048306
5.693514456
5.781535222
5.752135925
5.76884832
5.781172153
5.804643699
5.853672303
5.878007376
5.885039853
5.874259362
5.874519106
5.882317753
5.972532166
5.977758882
5.998730328
6.010427989
5.999901602
6.074833242
6.114432478
6.142196053
6.197918825
6.219962656
6.259374367
6.326686663
6.336682765
6.334530142
6.414221977
6.472906774
6.586325813
6.566708043
6.783623682
6.844043015
7.023850602
7.295727199
7.558696661
7.974890375
8.712715749
10.20597594
4.927578875
4.390517052
4.09934012
3.996849503
3.967630466
4.003203433
4.024305982
4.069653556
4.13510565
4.178199954
4.229337234
4.292582705
4.327708104
4.385542833
4.430834377
4.499530902
4.532479856
4.5829487
4.627723765
4.650945199
4.743798276
4.780686168
4.80258248
4.823669369
4.908018457
4.952264069
4.975079212
5.006755742
5.063528286
5.10381638
5.134789506
5.133972503
5.17298492
5.221920954
5.251881516
5.304906149
5.344997914
5.330850245
5.364087075
5.360254491
5.375764183
5.414381315
5.465527693
5.504446745
5.509173894
5.582369975
5.584902876
5.583427111
5.63572158
5.65894252
5.659989894
5.667875654
5.672081816
5.728509621
5.769431321
5.786403874
5.81671054
5.841034965
5.890175684
5.846101666
5.907608773
5.915401218
5.950737759
5.927909824
5.951134021
5.980805803
5.975877686
5.985916542
6.025636616
6.039074182
6.06281297
6.110604878
6.124768525
6.136535922
6.18364253
6.223836092
6.261443667
6.289820838
6.302599424
6.374097907
6.40708565
6.438643388
6.451851786
6.489567308
6.540475708
6.664711886
6.739290064
6.887873687
7.00404606
7.164728886
7.398654698
7.662685391
8.105790807
8.939902066
10.55648654
5.4953335
5.03339912
4.68655196
4.403209363
4.237167199
4.148228946
4.088093493
4.093976815
4.104892847
4.12635998
4.172946245
4.199193068
4.232451489
4.313867674
4.358756547
4.419505193
4.476965562
4.548601012
4.591141137
4.636768711
4.694579923
4.720012564
4.771066112
4.799571013
4.852966915
4.922191133
4.930619573
4.962029282
5.01361371
5.067329078
5.097984605
5.152798488
5.172115219
5.211545256
5.282566086
5.309650874
5.314615187
5.372397752
5.409407375
5.431738601
5.422725203
5.469998889
5.495745385
5.537157126
5.576548013
5.584503504
5.602464613
5.64458492
5.697298437
5.723528046
5.73745969
5.746675171
5.723743346
5.792494911
5.812821829
5.84770241
5.848645588
5.907365067
5.927246281
5.929713589
5.957187956
5.989814338
5.97876791
5.996096481
6.042271201
6.055932459
6.080125637
6.092801731
6.098466876
6.120205751
6.131445088
6.173130268
6.180185712
6.219071187
6.260807132
6.275442772
6.286949712
6.364562321
6.407466479
6.396779972
6.455773322
6.513352384
6.557153494
6.612058619
6.661128478
6.737505557
6.818643183
6.923670755
7.12004091
7.199954494
7.462483788
7.70533441
8.168469727
8.945626235
10.48640673
5.904861273
5.54098137
5.191818993
4.912984282
4.646264916
4.464453856
4.322916057
4.23461408
4.191286251
4.161542663
4.173229628
4.16493819
4.215596539
4.249992965
4.284135022
4.340135554
4.378613465
4.448040504
4.469282481
4.511848647
4.567861257
4.618661481
4.654374718
4.681397854
4.76043241
4.843577698
4.874107858
4.92410364
4.94850469
5.005090884
5.03505882
5.117180869
5.158532448
5.181464408
5.196682933
5.233571063
5.287970517
5.299522384
5.334063003
5.406829913
5.426330064
5.466278349
5.515698836
5.490655806
5.550544966
5.617233628
5.643398889
5.626017422
5.684439151
5.710305756
5.783550544
5.766269062
5.775584622
5.750383858
5.826577089
5.88224331
5.904559914
5.920658841
5.939380277
5.9397279
6.009088836
6.021076127
6.041510672
6.054505731
6.051416242
6.126529381
6.117607801
6.145016082
6.140242376
6.193360415
6.225370031
6.226727532
6.276866578
6.284540878
6.29991088
6.306835384
6.362590145
6.430389996
6.414445313
6.431262106
6.526941704
6.548636629
6.59537651
6.616561894
6.731203673
6.794264354
6.864905068
6.995203333
7.141152677
7.278461806
7.444179336
7.763612092
8.213080229
8.921797152
10.26606797
6.202666305
5.961065636
5.645112387
5.358881109
5.080139906
4.865606449
4.664351537
4.501007452
4.390635893
4.30925974
4.246990279
4.233595896
4.222813499
4.248311291
4.248378071
4.279444043
4.327192356
4.354311979
4.380355304
4.431208779
4.466905208
4.495068938
4.582184071
4.631454473
4.657866524
4.73924144
4.785575288
4.80956313
4.88535085
4.930938494
4.972811636
5.035654576
5.048844952
5.11333202
5.164130411
5.195550888
5.231792861
5.261301285
5.282738365
5.317428735
5.36837956
5.423685462
5.459387375
5.480854137
5.511589401
5.540778015
5.597138897
5.648175539
5.664312709
5.705998476
5.714603034
5.763374544
5.750247706
5.786917995
5.826416087
5.906083596
5.900231334
5.922706457
5.943230129
5.930461359
6.021555423
6.03353471
6.025045284
6.079125151
6.06710575
6.092899982
6.12239276
6.130886262
6.158191842
6.181321417
6.258107268
6.310911995
6.291977645
6.292686935
6.294331881
6.337081909
6.350060846
6.406790148
6.411601701
6.456827212
6.547310741
6.604013675
6.654989203
6.678861206
6.708782592
6.776953547
6.885916586
6.992528865
7.169356142
7.323222735
7.533430237
7.775814573
8.201833802
8.826460621
9.939337936
6.421777825
6.220438479
5.975132821
5.759877163
5.491856811
5.234914113
5.030456419
4.843000368
4.685352607
4.561317252
4.44917533
4.346005542
4.31150793
4.287347663
4.262295756
4.251552847
4.268187143
4.302262368
4.321743609
4.34435098
4.396972742
4.438777015
4.47044063
4.527795138
4.569276883
4.607593887
4.662558853
4.730772167
4.753451411
4.804505644
4.883903905
4.92013236
4.95250269
5.042990336
5.092405906
5.12808963
5.159701654
5.221154759
5.246319017
5.29033039
5.313386066
5.34929437
5.384611193
5.427708918
5.448764045
5.493416293
5.55528936
5.57048659
5.613210392
5.655506468
5.657708573
5.692613415
5.737871344
5.78214576
5.799646768
5.82370294
5.87416555
5.896279864
5.926665454
5.981555154
6.036256697
5.987597414
6.000583447
6.082861734
6.055325326
6.089738257
6.152287216
6.1401562
6.180008189
6.204021144
6.217852317
6.263970531
6.245658991
6.312120441
6.306629195
6.36626652
6.385043816
6.420053545
6.478399281
6.505939052
6.518205828
6.611219425
6.674634731
6.702562146
6.746174729
6.824792095
6.912235035
6.971174065
7.134860027
7.272667994
7.523600057
7.772421555
8.129765169
8.696547295
9.645233763
6.56162772
6.395031237
6.242619453
6.037759195
5.821425434
5.620421026
5.377640199
5.176795915
5.004141574
4.827566852
4.696771044
4.560325844
4.449585927
4.409656008
4.364502508
4.320156797
4.285875398
4.266822737
4.277365222
4.300743223
4.321811178
4.360395185
4.387718363
4.416199861
4.453496526
4.495618064
4.525200831
4.585195919
4.645880665
4.676627043
4.732128464
4.796511765
4.869217881
4.919158727
4.955948371
5.018050516
5.054097617
5.083338331
5.133525664
5.206987747
5.252354614
5.259857115
5.320647436
5.335047794
5.377432066
5.444469375
5.489563399
5.505855602
5.547210055
5.583942866
5.606161042
5.660193042
5.688388758
5.750621807
5.742225
5.77361623
5.823192777
5.879106826
5.880413055
5.92283276
5.981523633
6.00002171
6.054317692
6.033022712
6.036965268
6.068134211
6.138623192
6.140219322
6.156540318
6.17147998
6.216225745
6.235567965
6.239183322
6.296587055
6.33009492
6.350864008
6.422953118
6.433232584
6.494751084
6.496396009
6.520199306
6.597206672
6.655953815
6.726531168
6.743266968
6.852967763
6.909548207
6.988218357
7.116014865
7.245442303
7.490493108
7.747223589
8.10183515
8.567149212
9.361962582
6.6896349
6.570066971
6.425873184
6.307938667
6.105667423
5.930315674
5.747832496
5.553574469
5.330033269
5.141869755
4.970064368
4.825078595
4.680423167
4.548948464
4.476636394
4.423135229
4.347241001
4.317906706
4.298944326
4.301662476
4.289769738
4.304429269
4.316540563
4.335247701
4.361490439
4.386139834
4.420655985
4.472135276
4.515593227
4.570016041
4.592864876
4.678043366
4.721654958
4.785912058
4.819631361
4.889747371
4.916523405
4.968252316
5.042598543
5.048987371
5.105697731
5.160398669
5.241107334
5.237999305
5.273976795
5.332234616
5.40366791
5.444215135
5.466859386
5.499874302
5.520983294
5.588414699
5.586756059
5.627614678
5.69013791
5.724700507
5.79132749
5.821533803
5.853276866
5.905793116
5.893996324
5.938092096
5.976910462
5.994775959
6.027952641
6.052843722
6.058384736
6.093543206
6.151098677
6.174383999
6.164971745
6.176074655
6.196374611
6.294510152
6.285491556
6.322940352
6.363778952
6.410990818
6.466133083
6.507314014
6.489860747
6.522984738
6.610751565
6.658601743
6.707967457
6.80539828
6.88951235
7.003158979
7.047211108
7.258402959
7.403491008
7.68899176
7.996792645
8.412165831
9.106231822
6.744429796
6.663417527
6.588047246
6.462455441
6.336852989
6.178929276
6.016673154
5.808468762
5.646743008
5.447853575
5.266038944
5.109709973
4.93330258
4.794829112
4.675474621
4.587019465
4.489336181
4.428462846
4.367844167
4.338022249
4.304627271
4.278450957
4.289464094
4.295405031
4.298154841
4.315219172
4.341970768
4.371352304
4.406157531
4.460610133
4.514761196
4.523286885
4.597967639
4.636847106
4.70350865
4.74982632
4.812727036
4.854035365
4.894425769
4.928752933
4.995358292
5.031477014
5.099437736
5.1293869
5.170931844
5.228157028
5.254977662
5.274396412
5.321998268
5.393361822
5.414093218
5.457252242
5.470909539
5.518533482
5.561492832
5.600102667
5.677161161
5.713440074
5.723597221
5.745262573
5.796623908
5.850865791
5.895130746
5.916278369
5.961139563
5.954384517
6.009912678
6.018756024
6.068221052
6.10506266
6.124613135
6.156531728
6.173605172
6.234219671
6.227783903
6.268502775
6.277497315
6.375653973
6.398237826
6.43872555
6.455495194
6.515239838
6.592991727
6.661671469
6.696902225
6.774274276
6.831444182
6.93222586
6.985309709
7.188865586
7.329535151
7.53035791
7.791847116
8.231638879
8.778053198
6.789224325
6.767473355
6.683228684
6.604023627
6.492984426
6.361782091
6.21895207
6.100031951
5.963004202
5.784931472
5.617733488
5.445752399
5.293280593
5.112562614
4.966614396
4.825056349
4.716965898
4.58896755
4.507095606
4.459429936
4.404471501
4.333054713
4.306166924
4.289430676
4.288873348
4.290891061
4.295480592
4.311472643
4.330952665
4.36664312
4.404899567
4.454112468
4.490528537
4.524499061
4.575897884
4.635959197
4.64840698
4.710186609
4.756019706
4.815953322
4.874655226
4.90085644
4.946959432
5.002559783
5.035758485
5.078624779
5.127137403
5.184457179
5.230207515
5.272487002
5.306715381
5.345057615
5.404486937
5.45232742
5.464648612
5.511087816
5.5727308
5.616191493
5.625283609
5.679311043
5.754292886
5.780113968
5.822450525
5.843142082
5.876160178
5.925015
5.953627209
5.973608016
6.017668006
6.054021609
6.093789316
6.094531539
6.121862035
6.149328031
6.198233447
6.224366564
6.271938095
6.315603904
6.346578538
6.389103692
6.452484356
6.504511819
6.560893978
6.599929843
6.653368163
6.71255053
6.799208506
6.864026954
6.982739459
7.068698865
7.250139159
7.474579635
7.726025887
8.068983883
8.5017912
6.848690118
6.793280927
6.774231343
6.712364567
6.627069251
6.548790441
6.441468885
6.320519959
6.204844867
6.06932801
5.911460991
5.759069818
5.584389566
5.406695295
5.231719086
5.089712257
4.955820607
4.838233267
4.724309711
4.614284543
4.525592194
4.447266802
4.403465451
4.356506521
4.318454215
4.300642773
4.28360489
4.299771076
4.304893264
4.309656452
4.318267685
4.349505406
4.365122452
4.408753152
4.459872884
4.495204517
4.550951179
4.585528608
4.621493851
4.668395069
4.713604603
4.744894155
4.802617525
4.842844452
4.905869109
4.96756061
5.009646607
5.057150342
5.095858106
5.142965456
5.179252777
5.226372939
5.292496248
5.334373125
5.381360703
5.419454392
5.45394622
5.508491124
5.572823319
5.615789005
5.634189011
5.690585778
5.708963469
5.760455124
5.792388932
5.836203302
5.868561235
5.893298278
5.944986038
5.973899304
5.990054117
6.00748166
6.062680879
6.073946486
6.103939152
6.124811441
6.161172615
6.237848805
6.241556352
6.292439915
6.370371244
6.433741276
6.493676929
6.539107461
6.548413311
6.623975399
6.715806767
6.792895913
6.871689841
7.00053072
7.13723843
7.332322253
7.581758384
7.871231852
8.252815302
6.85264305
6.830300368
6.824692962
6.78077353
6.752111505
6.693083706
6.614212993
6.499942837
6.359098915
6.249796515
6.149069132
6.045995033
5.873843894
5.722363128
5.557367473
5.410780701
5.227071904
5.076942619
4.955468281
4.821939862
4.711167106
4.623667518
4.52724487
4.451609923
4.394997642
4.345474276
4.310980255
4.296501189
4.281825863
4.275645632
4.282964511
4.281175901
4.303863261
4.309927476
4.355445904
4.394569831
4.413807243
4.456546978
4.488417081
4.545269685
4.595866531
4.640565047
4.683867782
4.740967797
4.782055279
4.807940019
4.861878641
4.92712265
4.980280497
5.009005263
5.060811039
5.08861912
5.136216085
5.185608896
5.255513842
5.30998909
5.323619873
5.379183226
5.425253899
5.472357202
5.502486578
5.531178359
5.555635089
5.627417549
5.681208753
5.719452399
5.762463719
5.798282325
5.838109073
5.861394774
5.895444082
5.920429451
5.951706482
5.969081365
6.016274954
6.027084032
6.082074947
6.159888749
6.188010209
6.238828958
6.264418049
6.308181239
6.367099669
6.430183495
6.46351687
6.580185241
6.640893171
6.715005985
6.814301291
6.900102205
7.04909732
7.21251914
7.390232162
7.668173088
8.003910708
6.918920221
6.882777779
6.865924338
6.846236981
6.780621923
6.711704196
6.655248016
6.611487416
6.538582365
6.453908905
6.350461585
6.231150987
6.122285144
5.988788518
5.822101867
5.662309612
5.536383854
5.379406428
5.220293796
5.086728828
4.952134255
4.829802642
4.707716319
4.613406208
4.537795607
4.464166269
4.397791331
4.340108115
4.305267425
4.27360503
4.254649575
4.263752773
4.269195734
4.279756696
4.301345338
4.319402516
4.343995935
4.376641649
4.395119439
4.434798542
4.474509716
4.517729892
4.561232575
4.594065735
4.64090305
4.700637554
4.749834165
4.792105598
4.845324808
4.874710374
4.92656793
4.95472537
5.00313871
5.053200625
5.114900394
5.15111104
5.166479314
5.216335534
5.269284014
5.3389291
5.380037265
5.39418622
5.445821763
5.51738745
5.562604851
5.588929843
5.650058801
5.694514079
5.71563475
5.764573127
5.806569141
5.83040543
5.856283661
5.904609936
5.924092303
5.944972078
5.996416878
6.067910147
6.104701292
6.131946332
6.182945516
6.247266899
6.297169846
6.382524153
6.408553091
6.469630826
6.51558494
6.601170944
6.699822651
6.817894545
6.893302205
7.063010669
7.281792829
7.482760003
7.838247827
6.905927489
6.909255647
6.881776103
6.866880672
6.838712108
6.813762539
6.766345741
6.719426835
6.647764961
6.583732765
6.497467996
6.3861024
6.294152782
6.180346365
6.0747436
5.946901814
5.804016451
5.64972665
5.486213091
5.356533018
5.208407875
5.079981829
4.955948363
4.838050741
4.709976011
4.613168576
4.515688189
4.448022196
4.40264583
4.349077794
4.318422643
4.283229166
4.265522967
4.248625574
4.240472871
4.25818833
4.267930024
4.296692721
4.31221682
4.330243048
4.366950793
4.405382389
4.436965977
4.477735144
4.521211967
4.570587645
4.611673252
4.638213057
4.678036395
4.732713813
4.772427482
4.831384545
4.872285058
4.922962377
4.969541567
4.995851417
5.051733102
5.099440102
5.136764017
5.184659238
5.23290747
5.278580683
5.327259953
5.360919694
5.419353475
5.464911738
5.48930396
5.550718796
5.60033885
5.632015922
5.694850221
5.722909849
5.752025363
5.799538016
5.816572315
5.84648957
5.875144428
5.916363051
5.996405041
6.046498457
6.065356309
6.136215589
6.196215535
6.251331902
6.306726662
6.375747052
6.409281599
6.50008628
6.572039406
6.675034743
6.763209627
6.926609866
7.084619077
7.284059628
7.540356465
6.951597556
6.918280933
6.915032666
6.890114613
6.883951881
6.85886002
6.830333419
6.795891549
6.747727038
6.710674814
6.651473466
6.581738608
6.50076259
6.406662833
6.277971218
6.168684984
6.055221868
5.926831066
5.77954122
5.647189281
5.502854963
5.365867024
5.217159076
5.072895647
4.958204991
4.835083806
4.724012295
4.625765678
4.53855404
4.464001047
4.399462224
4.352401405
4.310721241
4.293958438
4.276350332
4.264179213
4.265749229
4.252198714
4.270770608
4.28060324
4.300249636
4.323784193
4.350872215
4.372682451
4.398056751
4.430941735
4.471958818
4.517143188
4.569125834
4.612661888
4.654328932
4.695620012
4.747584993
4.792743317
4.843788559
4.884128588
4.915237731
4.965350133
5.00682758
5.026122427
5.105804742
5.154201715
5.191269821
5.238898521
5.291675795
5.348211229
5.39415033
5.441993304
5.460402073
5.512094103
5.533116407
5.590623171
5.65644627
5.68225803
5.731970199
5.755305747
5.796929668
5.844246293
5.900290716
5.931914979
5.980172917
6.0188544
6.083654358
6.133939885
6.195572502
6.211290671
6.292346385
6.376765345
6.46839577
6.49861556
6.625029932
6.727951633
6.854854011
7.067104467
7.351097616
6.965883115
6.954573906
6.955256927
6.951980579
6.92828154
6.911628113
6.871141328
6.85246709
6.819148294
6.766090063
6.717313746
6.651969837
6.619697131
6.552351967
6.453629591
6.36878543
6.285044341
6.160400701
6.049671836
5.926941324
5.77102302
5.654000132
5.523838055
5.36398042
5.216451254
5.09071696
4.963139397
4.843114844
4.72328723
4.632909167
4.54684432
4.462986947
4.389039282
4.342343708
4.303164947
4.278920807
4.266641495
4.248469201
4.247628212
4.240993094
4.253990285
4.252222509
4.257451286
4.289485537
4.327997991
4.355704807
4.383356691
4.413898777
4.463984174
4.508616065
4.532241646
4.576685222
4.615825256
4.635967468
4.68023082
4.742749299
4.784383934
4.840135376
4.885618144
4.930700914
4.968944137
5.014052274
5.066955907
5.117998788
5.151602309
5.183640041
5.237706786
5.277440627
5.320562192
5.379643277
5.427883042
5.466852996
5.513044144
5.561687125
5.610334139
5.659170458
5.708001456
5.73123691
5.779011716
5.813084739
5.877025215
5.906939777
5.982985988
6.039311847
6.112050898
6.159961386
6.192774931
6.227399806
6.298261502
6.379731767
6.47125232
6.605525051
6.748387156
6.885746757
7.124053988
6.91215149
6.918273383
6.919893966
6.914296732
6.878902549
6.878857657
6.855394661
6.837073679
6.816321195
6.809892522
6.766293111
6.745650242
6.689838989
6.655589532
6.613025645
6.553845868
6.469009472
6.372798202
6.268958799
6.175796354
6.048788534
5.898296518
5.783338675
5.667238999
5.511530889
5.374268611
5.229227016
5.090765316
4.963451112
4.838630555
4.720811018
4.623083291
4.549321047
4.476880296
4.41270527
4.353843516
4.31410027
4.283131434
4.247269993
4.239733029
4.232693767
4.234123402
4.249473991
4.251103065
4.265076838
4.281868489
4.304667222
4.326130415
4.338161366
4.376891934
4.420415489
4.447395804
4.48525558
4.540098534
4.570182539
4.62252838
4.661799914
4.703542763
4.753284104
4.796860737
4.829652226
4.872269082
4.923841144
4.94844771
5.00919748
5.05442041
5.107744347
5.151547674
5.187113005
5.246615959
5.295898232
5.340747826
5.361014653
5.438422838
5.483000828
5.516514741
5.544442302
5.596173409
5.642380195
5.682229011
5.735781557
5.776974958
5.845833555
5.882649309
5.926162045
5.997546001
6.059282688
6.114438544
6.170277291
6.270726872
6.360052774
6.466600847
6.584403819
6.745848693
6.875376411
6.927084555
6.918112531
6.910464995
6.896001667
6.908731798
6.905094961
6.898107657
6.87870515
6.880095761
6.863865345
6.822064436
6.809998776
6.792264293
6.741128938
6.701936037
6.627895947
6.566113579
6.507525809
6.4341044
6.326322264
6.255983198
6.142550765
6.016699386
5.884332882
5.757625102
5.628431667
5.490875315
5.361670905
5.224537642
5.104956134
4.990677391
4.875946654
4.751796666
4.638405192
4.555958929
4.468754215
4.397981123
4.350764156
4.316782777
4.276389369
4.248751568
4.235388208
4.219961352
4.231104098
4.228923823
4.246292577
4.250815719
4.266810088
4.296080528
4.312079094
4.33423753
4.374514804
4.391035907
4.426867255
4.475537299
4.507603528
4.543335547
4.581618716
4.615752847
4.668662628
4.702198327
4.746310483
4.795735232
4.843149007
4.880612725
4.920425573
4.968873577
5.002463719
5.046003606
5.106606391
5.139697967
5.182745146
5.246418541
5.268244174
5.332521881
5.368257672
5.410012984
5.454533237
5.500790777
5.535182378
5.590660702
5.63517071
5.711072357
5.772909698
5.805938433
5.855041436
5.909492243
5.977821902
6.031274839
6.104815759
6.186536918
6.304168015
6.394493783
6.494685416
6.672438683
6.959290703
6.931809969
6.94101685
6.943568531
6.954679057
6.933909412
6.936704286
6.920107228
6.901428985
6.895002057
6.887670245
6.848482113
6.814307489
6.789251161
6.752228752
6.715403615
6.679681091
6.613576689
6.551198512
6.492123762
6.417262269
6.308955883
6.216463176
6.107474108
6.022079615
5.90275443
5.782132984
5.650959061
5.506901788
5.387186375
5.258016184
5.108308382
4.994233221
4.877748036
4.761755373
4.658205485
4.578387302
4.486109369
4.415487338
4.360525375
4.314503279
4.283473145
4.262091037
4.231084226
4.213222043
4.204397354
4.211547973
4.22848883
4.233610063
4.252047998
4.270006585
4.288011832
4.321854991
4.343340426
4.377322952
4.404566086
4.439500157
4.474926155
4.517040518
4.55757943
4.591363543
4.630480152
4.664017167
4.702097823
4.75458223
4.787184156
4.817740988
4.879117302
4.924927073
4.968820198
5.022288082
5.065199519
5.111131782
5.13262333
5.173120737
5.246196356
5.283555497
5.334673386
5.369978594
5.406872918
5.466807861
5.529003294
5.577407106
5.612273312
5.685569638
5.741138924
5.779009496
5.84834084
5.903386755
5.961859175
6.033246378
6.128525229
6.213077301
6.310122045
6.471735232
6.963592006
6.97861712
6.986285191
6.979336322
6.947379794
6.937145812
6.946756458
6.927844333
6.924344524
6.937295755
6.890072615
6.876821535
6.85516322
6.833506119
6.808058802
6.779323984
6.72339971
6.696585378
6.659300872
6.60296414
6.545580865
6.506528141
6.427485957
6.347653979
6.240857687
6.142873475
6.040262602
5.931297807
5.79713983
5.648413506
5.52093977
5.402644284
5.259890663
5.117381732
4.995580863
4.87786602
4.760748884
4.657572284
4.580350122
4.495849181
4.419728156
4.363341928
4.31309834
4.283177615
4.244797941
4.225407188
4.208066886
4.194083749
4.198072439
4.196077743
4.217845954
4.222559657
4.248323004
4.265382349
4.285210019
4.3081645
4.350765684
4.373412335
4.401995429
4.431766397
4.47361254
4.511129447
4.548373579
4.585802166
4.627705779
4.65956584
4.716199113
4.741873634
4.806228782
4.843017172
4.8819933
4.934401927
4.972074175
5.016230328
5.075114254
5.099768816
5.161536735
5.219357381
5.258233908
5.280965674
5.320023581
5.362961092
5.432517799
5.457625674
5.507831389
5.56340288
5.641236082
5.68077387
5.752842344
5.821889061
5.890689165
5.959484803
6.049979084
6.155973595
6.273970128
6.98095728
6.966147279
6.961055633
6.975205658
6.987449903
6.965648707
6.951293856
6.925785385
6.928099378
6.916855997
6.913860474
6.904978657
6.904694871
6.871498156
6.857090949
6.834283568
6.825290705
6.795883121
6.758100012
6.719487574
6.677899151
6.626765069
6.553970158
6.489558884
6.411056828
6.331988412
6.246496065
6.143485387
6.025729309
5.921186624
5.798268073
5.653472318
5.524649777
5.418502499
5.278716591
5.141427196
5.018248687
4.895601575
4.777319168
4.694627745
4.593038062
4.509970078
4.426803
4.365242772
4.320229216
4.276468582
4.245722819
4.216692078
4.199998156
4.193704403
4.192507853
4.195111537
4.196741883
4.219615903
4.230384826
4.241657062
4.262698779
4.290314103
4.315495173
4.341996674
4.371113998
4.404237846
4.446433227
4.476940759
4.51587175
4.558812073
4.59537381
4.634839452
4.654007466
4.714861559
4.770459922
4.815600814
4.858815304
4.894789307
4.942662779
4.97218158
5.012712225
5.069659278
5.113211167
5.152141948
5.1885395
5.217054764
5.260002404
5.345269468
5.392548224
5.444159129
5.484429672
5.541937449
5.589442864
5.671529271
5.733801145
5.799016138
5.875789549
5.973943918
6.097055411
6.914058256
6.914907353
6.925267876
6.902284966
6.894025881
6.889497194
6.91721858
6.943814397
6.922011944
6.900666407
6.915056172
6.896802858
6.886128136
6.892455293
6.877736547
6.861748558
6.844210067
6.814181459
6.787276356
6.757360896
6.741961158
6.700159416
6.655404956
6.617956248
6.570507282
6.513205358
6.440360545
6.358400379
6.263735732
6.161626374
6.044585255
5.91834577
5.81548987
5.676510621
5.560694774
5.426213721
5.297885332
5.166167866
5.041572302
4.910659945
4.788454014
4.692589452
4.612128503
4.522918593
4.439391669
4.372287914
4.326404259
4.283263485
4.258714061
4.228900547
4.211944951
4.206650407
4.196745167
4.194561886
4.195112577
4.194662029
4.218544677
4.228017214
4.244904791
4.271375222
4.300543751
4.329434638
4.349967063
4.375847515
4.411301086
4.445612101
4.473241926
4.511850945
4.568103295
4.590580556
4.62966234
4.660405499
4.717215786
4.765585407
4.804385579
4.84756024
4.880772786
4.919522483
4.987228337
5.018590985
5.064420914
5.108361415
5.15300739
5.180018086
5.247534669
5.302427328
5.340470688
5.384585981
5.446266462
5.519105186
5.578781141
5.655227575
5.730981379
5.798128794
5.887542448
6.928512938
6.93129122
6.929958353
6.942894064
6.946048358
6.94116225
6.954228851
6.93032356
6.937926991
6.940249435
6.938210378
6.932099305
6.934279868
6.927515776
6.918157768
6.905055223
6.903877371
6.897028233
6.876608845
6.8681515
6.814568832
6.80082282
6.775449213
6.737918481
6.666152232
6.611747782
6.553704614
6.478202686
6.428140726
6.328928316
6.261426311
6.159493296
6.039276055
5.942231121
5.82843428
5.694771437
5.561086896
5.430421833
5.303558023
5.183074405
5.060929393
4.931755917
4.821611854
4.717799419
4.639883836
4.54881523
4.471597289
4.413016577
4.350726166
4.300878377
4.254338582
4.20814732
4.192139421
4.172793891
4.16827533
4.170107513
4.167432198
4.181359323
4.195197224
4.21200247