/*--------------------------------*- C++ -*----------------------------------*\
| =========                 |                                                 |
| \\      /  F ield         | OpenFOAM: The Open Source CFD Toolbox           |
|  \\    /   O peration     | Version:  v1706                                 |
|   \\  /    A nd           | Web:      www.OpenFOAM.com                      |
|    \\/     M anipulation  |                                                 |
\*---------------------------------------------------------------------------*/
FoamFile
{
    version     2.0;
    format      ascii;
    class       volScalarField;
    location    "0.04";
    object      mfpCellRatio_N2cold;
}
// * * * * * * * * * * * * * * * * * * * * * * * * * * * * * * * * * * * * * //

dimensions      [0 0 0 0 0 0 0];


internalField   nonuniform List<scalar> 
6000
(
0.9670889884
1.151600777
1.374550592
1.667050006
2.027567948
0.9654870445
1.154642114
1.385102715
1.680425852
1.991562871
0.9666056083
1.153038886
1.383581188
1.672383596
1.949200088
0.9682688853
1.153242013
1.382683769
1.659634375
1.902630607
0.9639481129
1.150027629
1.375847488
1.649013932
1.86477817
0.966377173
1.152006517
1.369836319
1.632947993
1.822612452
0.9653778812
1.146748887
1.370600637
1.634237195
1.799369982
0.9634565101
1.148733161
1.370487474
1.632508909
1.77374101
0.9654986537
1.149235454
1.365125286
1.624808265
1.741001685
0.9654261372
1.146775535
1.368696169
1.631581479
1.732637389
0.9653241359
1.149007442
1.366784146
1.626395193
1.706195224
0.9642960966
1.146466718
1.364211707
1.619930161
1.681443425
0.966518823
1.148621578
1.365676806
1.626144741
1.658946509
0.9644492611
1.145940471
1.361834914
1.619054575
1.642606473
0.9650100399
1.149914334
1.367943103
1.627914876
1.625239511
0.9650191507
1.147775318
1.362019963
1.602995444
1.606099409
0.9653620151
1.147479146
1.361400055
1.582153008
1.582752775
0.9659620989
1.146303937
1.365916088
1.568987215
1.569613624
0.9652319074
1.151612022
1.372603095
1.55077701
1.552204407
0.9625990308
1.141706233
1.357445307
1.521792116
1.523390519
0.9666121064
1.14933228
1.367854899
1.51550459
1.517971702
0.9626606295
1.145266363
1.364124256
1.491784188
1.488947374
0.9649853883
1.149086336
1.366084036
1.47818141
1.477122346
0.9650511623
1.142139052
1.359577962
1.455823227
1.456591792
0.9656026032
1.147804143
1.367591418
1.443013643
1.445996378
0.9626993816
1.146277556
1.36338589
1.42126492
1.422839117
0.9648367281
1.148766206
1.366208441
1.409116281
1.408257237
0.9661176229
1.147309411
1.365888884
1.392367171
1.393454043
0.9630396233
1.146866358
1.363714441
1.375336903
1.374021253
0.9659216345
1.150351645
1.359014428
1.360212194
1.360595368
0.9631896739
1.145213348
1.342856309
1.345055471
1.345672507
0.9641091791
1.146780902
1.326318985
1.325646726
1.330058959
0.9648055771
1.147762628
1.313777479
1.311316175
1.311342024
0.9642757868
1.147778206
1.294810329
1.298477791
1.295337153
0.9635487386
1.145290837
1.280591715
1.281082405
1.280992965
0.9649135233
1.147494649
1.266076888
1.268233982
1.267561989
0.9641960284
1.145910871
1.25095965
1.249886472
1.250091573
0.9635108339
1.147188146
1.238651677
1.240199143
1.239157445
0.9640688382
1.145586277
1.222573641
1.222119999
1.224381471
0.9653992689
1.148819416
1.208042383
1.206086139
1.206646116
0.9620895046
1.144292581
1.19287683
1.19465646
1.193882914
0.9659087774
1.146718328
1.18166409
1.1811017
1.182476378
0.9620910666
1.145930233
1.166341758
1.163854955
1.165375537
0.966710961
1.149216905
1.153715999
1.155276672
1.154697166
0.9638798565
1.13839952
1.140337993
1.13840362
1.139276537
0.9645458272
1.128898891
1.127965217
1.128883782
1.12704914
0.9644199175
1.112636462
1.113115156
1.114060728
1.110850032
0.9645831576
1.100701919
1.103177886
1.102120857
1.10192513
0.964785907
1.086165872
1.08577398
1.086352727
1.086588089
0.9641362074
1.075394393
1.074912935
1.07612174
1.073047019
0.9652480992
1.063715811
1.062816983
1.060915726
1.06355518
0.9647644293
1.0493358
1.048565041
1.04911738
1.049245683
0.9641890075
1.035555668
1.037228843
1.039541479
1.037738334
0.9653835115
1.027199321
1.02531575
1.025587531
1.024822519
0.9648917654
1.015279683
1.014621912
1.01566973
1.015544265
0.9644904453
1.000152329
1.001282351
1.000087869
1.000666594
0.9656094802
0.9932512656
0.9934902088
0.9932704633
0.9943120113
0.9649395582
0.9778309262
0.976925666
0.9757506838
0.9760689326
0.9633856822
0.965811994
0.9662733637
0.9670321559
0.9670232216
0.9556951465
0.9564758789
0.9565494597
0.9566768942
0.9564683139
1.860786199
1.808758521
1.819814245
1.837268978
1.847483216
1.850327025
1.861047604
1.851323909
1.829496224
1.838484628
1.833732761
1.827814147
1.835286087
1.812976151
1.802047107
1.791653735
1.788110865
1.785844538
1.783015535
1.772654711
1.779641621
1.76866867
1.761645551
1.758710294
1.745810255
1.743877307
1.736446471
1.730860894
1.710826929
1.714165727
1.711788039
1.706526789
1.685665216
1.686331248
1.671132937
1.661035919
1.655331834
1.65944959
1.657439749
1.650125633
1.643186111
1.633349266
1.61397388
1.608513382
1.598715799
1.593799252
1.567081917
1.582464791
1.568542136
1.55820068
1.556114056
1.547979373
1.534106306
1.529785562
1.527073903
1.52349093
1.509865147
1.503735493
1.500714956
1.492203417
1.489421314
1.478383646
1.47263093
1.474549602
1.471178732
1.453599502
1.438074036
1.446950234
1.426151159
1.419829606
1.407687101
1.405094207
1.408840243
1.401228881
1.382917516
1.388598371
1.378624834
1.377809975
1.376264516
1.364911924
1.362557994
1.362897629
1.357318064
1.351079128
1.359748774
1.357717551
1.37402168
1.386169531
1.39584092
1.422649482
1.452124337
1.508034721
1.574483622
1.687371675
1.92581657
1.938034987
1.818160508
1.737796171
1.702437748
1.700458909
1.712859894
1.731301209
1.739760186
1.754954893
1.772792664
1.776568427
1.789563138
1.788815915
1.793345888
1.788454608
1.794558609
1.796228835
1.80311104
1.806385906
1.792431678
1.793221425
1.800996733
1.800024656
1.795792563
1.784237561
1.780736699
1.787011742
1.789331482
1.776547028
1.757599177
1.750335241
1.744741834
1.739044672
1.721385684
1.740459815
1.717453898
1.722116628
1.707981987
1.721960362
1.714211754
1.691723189
1.682582771
1.688521269
1.668082123
1.669464521
1.650282237
1.640270969
1.646674599
1.638787086
1.631208057
1.615234611
1.630752957
1.596953556
1.59548862
1.57990671
1.584988635
1.584341096
1.574775174
1.569477677
1.551851624
1.553078545
1.533297479
1.530884985
1.540380531
1.528237858
1.504217321
1.493225529
1.49602142
1.47961148
1.473102596
1.464996422
1.464972655
1.457393408
1.438592133
1.440143995
1.438553436
1.434896104
1.428099323
1.42142789
1.418757285
1.416958293
1.411109727
1.406959371
1.400272762
1.411099744
1.413912048
1.414025561
1.436028318
1.450157001
1.475350887
1.49514492
1.553626243
1.62128859
1.727439294
1.98007887
1.936339844
1.886328149
1.804761394
1.736706272
1.68344008
1.649642729
1.636921344
1.63923778
1.649162749
1.663918982
1.668492823
1.680754983
1.689532723
1.705988338
1.712914951
1.723214379
1.730734129
1.73920252
1.749307096
1.749103606
1.758233036
1.766420251
1.772947383
1.765663059
1.765755738
1.765653398
1.783302198
1.783723359
1.782923714
1.765295228
1.751236538
1.754916415
1.755160341
1.752204127
1.749479989
1.752132481
1.743094156
1.732093061
1.730527789
1.727663791
1.72107958
1.726156753
1.71708347
1.697762432
1.695032083
1.691357746
1.668972567
1.670480628
1.673301173
1.66127222
1.64711254
1.639278365
1.632962753
1.644841841
1.621882319
1.612675007
1.629211656
1.601245011
1.591752407
1.585606751
1.590036881
1.574664352
1.560915923
1.562932948
1.561806752
1.551438484
1.534259841
1.529852855
1.52152363
1.522659805
1.508990197
1.499884241
1.487609606
1.467575527
1.470428911
1.456701204
1.466669004
1.459923077
1.456941614
1.449072024
1.444593866
1.439812543
1.436637406
1.43768827
1.432994655
1.443615618
1.447030138
1.465749456
1.470646168
1.495214733
1.526971767
1.574642591
1.639137345
1.736449687
1.938612919
1.906391184
1.887963245
1.847760159
1.793353442
1.731784973
1.683400146
1.637754911
1.605274116
1.576486624
1.574856381
1.579503458
1.585320703
1.596762621
1.607254522
1.617894672
1.628237443
1.646840395
1.65697751
1.662880586
1.669429631
1.678321285
1.691654168
1.70191037
1.715907147
1.720327569
1.718055694
1.722269188
1.724897082
1.725024893
1.727703608
1.724451004
1.732653247
1.734245982
1.733640085
1.738465977
1.725517689
1.722191125
1.725519783
1.729663661
1.724706129
1.721721286
1.704429212
1.703942783
1.699263193
1.688053131
1.69178848
1.702197209
1.683506525
1.682202615
1.66770447
1.660087897
1.649422874
1.64614904
1.64429234
1.640976851
1.632226905
1.625949798
1.626729844
1.6093345
1.611508975
1.611831948
1.591566066
1.586873587
1.579807149
1.570314808
1.567194551
1.550339361
1.544558319
1.531052549
1.525318334
1.531638601
1.525904257
1.501854733
1.502989584
1.489880206
1.490337026
1.486335002
1.479463413
1.482364789
1.468159913
1.46905234
1.470641888
1.465216089
1.47359014
1.455107983
1.451755391
1.460194269
1.474763473
1.495967574
1.50988813
1.53708335
1.581009354
1.638349187
1.730218191
1.890894575
1.866028804
1.865846454
1.845552722
1.808671611
1.769819824
1.721248444
1.68201163
1.631385006
1.589342774
1.561939071
1.543979562
1.53198764
1.527487512
1.523758171
1.53433013
1.539087914
1.541326313
1.554799297
1.571917834
1.583070656
1.595233209
1.600560726
1.613171697
1.627072095
1.636762898
1.641749594
1.650420098
1.6680522
1.673371196
1.682447708
1.680029189
1.68433874
1.686826269
1.681052684
1.681286894
1.69011677
1.70020656
1.683958146
1.682500648
1.684747592
1.688606929
1.697100574
1.68598036
1.675594416
1.684192211
1.675759071
1.67568959
1.6830446
1.674923773
1.668188228
1.657291072
1.654303636
1.648163598
1.650831896
1.637941117
1.632734223
1.640008756
1.626800569
1.615530529
1.615105477
1.613803186
1.616941017
1.591397133
1.597383466
1.585655459
1.576710293
1.568117702
1.555715358
1.543498029
1.547670087
1.550918316
1.537311225
1.516314484
1.515543829
1.507560745
1.503807009
1.486904825
1.497945285
1.499259511
1.503725745
1.482366282
1.475043818
1.48011015
1.473128438
1.467636268
1.475515304
1.48377037
1.482333006
1.500852423
1.520213264
1.534689629
1.583308028
1.636364092
1.702595248
1.846184565
1.828791356
1.834519757
1.829534419
1.81214922
1.781628705
1.744590789
1.708421185
1.667035651
1.62529054
1.576481576
1.539805352
1.512705825
1.491753099
1.484554101
1.474943937
1.47694539
1.4793773
1.479415195
1.48553422
1.498350456
1.505193213
1.520552073
1.525534474
1.533316162
1.546809061
1.559486419
1.560081922
1.574369003
1.584254419
1.595839637
1.604086473
1.607492109
1.620429106
1.632997105
1.638679011
1.642276132
1.638720125
1.641491328
1.639128286
1.633365363
1.642646541
1.645306854
1.640831691
1.654943983
1.652161208
1.650907887
1.646935202
1.656272165
1.64523282
1.645814816
1.635582866
1.628428496
1.631399874
1.629959356
1.62186244
1.623447836
1.61886133
1.621697489
1.625215441
1.615366213
1.607912412
1.594368585
1.588775289
1.591324466
1.583322016
1.571277273
1.566053316
1.558916652
1.549808599
1.551722671
1.544616063
1.545476533
1.53375047
1.520919543
1.51576035
1.513193795
1.509542599
1.509208956
1.502765716
1.497045991
1.481988945
1.475648868
1.480234377
1.487520058
1.482416017
1.479575265
1.486269192
1.502414477
1.5052008
1.517821559
1.537528324
1.564799689
1.605448867
1.684350539
1.80256094
1.804290688
1.807030856
1.806478198
1.798485251
1.777357723
1.756796236
1.719766243
1.687577726
1.650202473
1.615383167
1.576661509
1.538309119
1.502220132
1.471473159
1.451955547
1.440376047
1.42935209
1.428977468
1.426949839
1.425089703
1.434102246
1.433622428
1.445740092
1.450333748
1.461352769
1.468225781
1.478671002
1.491749741
1.501155145
1.512823876
1.522012881
1.527733974
1.539767489
1.550437541
1.553710325
1.567314578
1.576888766
1.581724214
1.585811328
1.584950881
1.590428321
1.602212925
1.600449289
1.596965921
1.601926519
1.60363094
1.608677697
1.60201718
1.612047439
1.606487713
1.604387021
1.612591665
1.602531248
1.602241366
1.598049801
1.59173612
1.59726475
1.600014702
1.594288879
1.582968686
1.576918238
1.568889991
1.574784925
1.572197366
1.571212705
1.561980923
1.552288021
1.546987752
1.539554982
1.540217589
1.530685515
1.524400758
1.526694033
1.521108878
1.504589357
1.51174445
1.508700684
1.499235839
1.499237208
1.497558662
1.492717229
1.485213466
1.47897669
1.482268965
1.475898393
1.481562768
1.487926458
1.50158129
1.500032871
1.507743087
1.536885317
1.556190199
1.58655385
1.66660827
1.749692559
1.778210066
1.782147316
1.777689147
1.776855542
1.762512218
1.754826295
1.735560201
1.707546034
1.675998971
1.642006429
1.606308033
1.57483864
1.534895706
1.497282176
1.464839117
1.441011284
1.414488626
1.395034336
1.384601898
1.377891195
1.376990804
1.377797158
1.383173405
1.390351442
1.396439522
1.404586981
1.40663133
1.411286359
1.420215697
1.428704667
1.44212472
1.456716882
1.461767964
1.468407735
1.478084349
1.48984622
1.49688296
1.505224128
1.517204372
1.520711924
1.521345697
1.527944763
1.53900247
1.548650288
1.547602786
1.550419159
1.557752037
1.560978797
1.552970269
1.562852185
1.565565967
1.55696486
1.566776328
1.565245483
1.556715279
1.557558494
1.565142331
1.566171962
1.565604033
1.559622916
1.560000316
1.557574433
1.553178298
1.552061871
1.547868699
1.541223443
1.534040947
1.531431735
1.526282991
1.520249651
1.511927465
1.513251368
1.503786823
1.508347282
1.506885815
1.498787713
1.484131865
1.484513705
1.483080945
1.484273021
1.482033175
1.475231724
1.477731583
1.467984694
1.467893967
1.471640179
1.481487422
1.483860511
1.492640251
1.504141718
1.513393056
1.539238532
1.568703468
1.623724994
1.706925239
1.743553739
1.749570601
1.747406714
1.750128817
1.753572313
1.74436453
1.732852132
1.717843199
1.694058523
1.669365608
1.641477221
1.602711256
1.5701188
1.530562602
1.489612957
1.45085492
1.423033452
1.403563721
1.377730819
1.361137161
1.34605221
1.341115767
1.336032302
1.332114699
1.332078356
1.334555175
1.345571625
1.353242449
1.356085018
1.364352745
1.372892706
1.380831944
1.38888321
1.40177722
1.406869248
1.414847355
1.426801347
1.435619251
1.444184747
1.45352356
1.460225511
1.464874508
1.473856403
1.481730799
1.485576486
1.492322855
1.49226805
1.500183201
1.503782779
1.500838202
1.504819514
1.517320553
1.517655632
1.517678194
1.514791791
1.512558859
1.509971426
1.516259185
1.516640049
1.526180659
1.521966337
1.528377593
1.517462985
1.512431105
1.510754929
1.511754779
1.50721843
1.505171104
1.503317053
1.489190799
1.489916095
1.491244402
1.481689198
1.485241278
1.490359858
1.480338851
1.471758586
1.473004723
1.458192117
1.46349621
1.464068715
1.461393834
1.466804266
1.476437056
1.47018801
1.463712789
1.46662493
1.472384195
1.472622812
1.48047961
1.499689108
1.520759114
1.545549284
1.587886991
1.657898039
1.737146331
1.737195686
1.737425987
1.736846729
1.735925505
1.731524072
1.715504339
1.706986914
1.696097367
1.671051922
1.648120375
1.622269376
1.591202185
1.559944734
1.52826122
1.49123701
1.452417663
1.417301613
1.388390328
1.365809796
1.346401876
1.324282942
1.312646504
1.303107417
1.298576168
1.291757788
1.288959612
1.287322247
1.293970419
1.29954893
1.30596983
1.314925116
1.318451985
1.327441956
1.335819712
1.343105229
1.347534839
1.359061594
1.368943379
1.375875456
1.385148884
1.393333795
1.400190774
1.405749731
1.416416091
1.425617194
1.429473886
1.435662574
1.437109093
1.438952058
1.448390126
1.454794951
1.460073579
1.461216666
1.465677996
1.465994218
1.467485961
1.466951121
1.466141295
1.469690249
1.470050518
1.473816627
1.480137388
1.472259451
1.469566744
1.472490386
1.478162088
1.478283891
1.465316316
1.456448158
1.462468454
1.467000158
1.463421767
1.467341902
1.469134028
1.465942114
1.461637952
1.452590472
1.450315192
1.451867635
1.448670784
1.448677407
1.457926477
1.4455549
1.445890818
1.449743592
1.445686636
1.450209032
1.463031045
1.470171514
1.472166421
1.485657972
1.513082648
1.547285165
1.595812415
1.707840482
1.706306243
1.708307075
1.704367068
1.704569967
1.704455848
1.700332147
1.695479713
1.686198059
1.670030711
1.654514403
1.634415931
1.611034955
1.586439996
1.558478389
1.532691821
1.498564229
1.457525767
1.419161001
1.384146561
1.354411573
1.334609507
1.308218305
1.291227132
1.276383346
1.267159119
1.26243237
1.257754591
1.25110012
1.25070252
1.250443715
1.25442272
1.260411096
1.265700491
1.274333417
1.280403462
1.286461375
1.292660354
1.300324217
1.309583499
1.315568738
1.324237083
1.334953568
1.342207148
1.351059502
1.356580996
1.362483103
1.373515207
1.379692959
1.383677649
1.389579653
1.394022885
1.400632247
1.405036813
1.41297369
1.414118
1.407315845
1.413335564
1.413080963
1.420052326
1.424250869
1.426088388
1.428507225
1.433885341
1.434222369
1.43415822
1.431821992
1.434861281
1.43469364
1.43661587
1.424317
1.429672618
1.427613661
1.426905849
1.423091177
1.426824881
1.428768608
1.4267521
1.424305132
1.423627413
1.425886131
1.423794817
1.420766513
1.42467371
1.427118719
1.424045997
1.427118758
1.438269954
1.43364327
1.440020812
1.451627681
1.463611469
1.486985211
1.522894664
1.562616548
1.684960535
1.683451656
1.687232454
1.687040531
1.684014712
1.684309075
1.681187375
1.683132161
1.675302951
1.670006682
1.654738322
1.639794491
1.622598516
1.601019238
1.574948093
1.552992507
1.51792202
1.496821943
1.460539569
1.414689107
1.378333121
1.344270634
1.319688054
1.297047717
1.278620966
1.262819105
1.245240242
1.234288319
1.226100961
1.220140703
1.215244466
1.210309136
1.211405685
1.210380657
1.212177178
1.219399711
1.225436693
1.23137471
1.238215247
1.242314198
1.251641394
1.261289771
1.270238192
1.276017718
1.285155713
1.294498859
1.301090271
1.30789994
1.315122288
1.319565979
1.329463173
1.335032921
1.334884815
1.341089417
1.345331796
1.349900568
1.356745692
1.359894185
1.362863489
1.363708212
1.365039344
1.377367007
1.384542955
1.388904638
1.394223542
1.392991816
1.39248851
1.388712958
1.388570508
1.394315729
1.39644832
1.391880901
1.388338623
1.38466409
1.386877773
1.390409665
1.393635025
1.393104
1.394243609
1.394057773
1.38925121
1.390507603
1.390975525
1.385078412
1.39003989
1.397045644
1.391047666
1.39244351
1.401566208
1.418585829
1.42203333
1.429873694
1.448801073
1.473496859
1.500809143
1.661045001
1.662702237
1.659319627
1.668916768
1.667637332
1.668928397
1.665940027
1.659935875
1.654706705
1.647684853
1.646371178
1.636999701
1.629329206
1.611738783
1.591106024
1.567908484
1.543998648
1.514860418
1.491328869
1.463828864
1.43007489
1.393014182
1.354812779
1.322745526
1.289527781
1.265654792
1.24515766
1.229111669
1.211985321
1.19620036
1.189114612
1.185481006
1.180019538
1.179237619
1.177206242
1.176749557
1.180935177
1.183336212
1.189782655
1.194025335
1.19665688
1.202380063
1.209837049
1.218229435
1.22438567
1.233793168
1.240689632
1.244313953
1.253711902
1.259100884
1.264091451
1.270252557
1.277483841
1.284496219
1.291949611
1.298831941
1.307937742
1.312252607
1.315775533
1.315830755
1.321227707
1.324591995
1.328710098
1.33375099
1.334621371
1.337586738
1.342451886
1.344172782
1.348210247
1.346764479
1.346415898
1.351123696
1.352076039
1.353091779
1.351181641
1.350880304
1.351478423
1.354019364
1.355936264
1.348527154
1.353868553
1.355434313
1.355638527
1.362463052
1.36024292
1.360727081
1.36320687
1.368667154
1.37210636
1.375757506
1.382554817
1.387732906
1.408803488
1.423786614
1.453917064
1.641191836
1.639554543
1.641959353
1.638674807
1.640336989
1.640171555
1.643300578
1.64401953
1.645656642
1.648570205
1.637189606
1.631850002
1.61909445
1.607821684
1.594103573
1.578865621
1.561434612
1.542971085
1.519939936
1.497362271
1.467736547
1.435420609
1.399630943
1.362579093
1.328799411
1.298108393
1.268869794
1.243163299
1.224178052
1.203422038
1.186634996
1.173510254
1.161868892
1.15548363
1.152520126
1.148952701
1.141142404
1.145000641
1.146120812
1.14803061
1.152347196
1.154449924
1.156214691
1.161906295
1.165512013
1.170036286
1.180463063
1.186142087
1.193405343
1.203185478
1.20935685
1.219140433
1.226892454
1.22981823
1.232103369
1.236558168
1.242043236
1.250622358
1.257005152
1.267269779
1.267410474
1.271562651
1.274568511
1.282731308
1.283738384
1.288685249
1.293916773
1.294365281
1.298831466
1.303236607
1.303945886
1.308466522
1.303111092
1.309990844
1.307717639
1.310962834
1.312291809
1.313668225
1.314713496
1.310816249
1.3092966
1.315552868
1.317394477
1.317896315
1.315063487
1.321177929
1.328066213
1.337231291
1.338204683
1.342280693
1.349660451
1.35545504
1.364374202
1.378795429
1.399799449
1.624145015
1.625783605
1.623247873
1.624018337
1.62338772
1.622067191
1.625204391
1.619093597
1.619147188
1.619609079
1.617370834
1.611094986
1.610729904
1.606316221
1.594632737
1.585074811
1.570168638
1.550694772
1.532372033
1.510458246
1.483549672
1.463721551
1.436447512
1.399866068
1.363129546
1.327796581
1.295259422
1.267470432
1.240366027
1.21780353
1.196480714
1.177796799
1.161868682
1.145627637
1.133692745
1.12324725
1.11791201
1.111400683
1.109631859
1.110216831
1.109776359
1.112083266
1.11683576
1.117432646
1.121983914
1.125189459
1.128169786
1.137172289
1.141679684
1.148291744
1.151801651
1.157847714
1.162709159
1.170730407
1.180155388
1.187356034
1.190883235
1.195755362
1.200801648
1.204815085
1.209928837
1.215771272
1.219555855
1.223323995
1.232637125
1.237587044
1.239958566
1.247878015
1.247477606
1.252200251
1.257951499
1.254301361
1.258293951
1.260573669
1.266604581
1.268857837
1.264402773
1.264131471
1.271454137
1.278685534
1.277138304
1.27305993
1.272994483
1.279540958
1.284307655
1.28746138
1.292654538
1.292851894
1.295494069
1.304173729
1.310287692
1.320214771
1.330811265
1.340463617
1.352612537
1.602582499
1.604179826
1.606298869
1.606505778
1.608796618
1.606329677
1.606441963
1.607471649
1.602775602
1.603838269
1.600269585
1.6020296
1.595501129
1.595123844
1.58787412
1.580753489
1.569562265
1.558886346
1.54299302
1.524975389
1.508789596
1.484939749
1.461611398
1.438089666
1.414321672
1.37824792
1.340580961
1.303142495
1.270889783
1.242426832
1.213146154
1.186826364
1.163424016
1.146492983
1.132002285
1.121134395
1.109599822
1.094733045
1.088592989
1.084904175
1.080892584
1.079778314
1.079759137
1.082403643
1.081294789
1.082962002
1.087076637
1.09030318
1.09464094
1.097462452
1.101926576
1.105740372
1.1125141
1.121810384
1.126829742
1.132215877
1.135207787
1.138690012
1.146450578
1.15099676
1.156110419
1.162206753
1.164691956
1.170680917
1.17328302
1.182102063
1.187366333
1.194058642
1.200354958
1.201567917
1.203629768
1.207311139
1.208748192
1.216530358
1.219271738
1.221987742
1.228406568
1.227496669
1.225460989
1.231219792
1.235791193
1.237381268
1.245237187
1.246513316
1.244649345
1.243338254
1.245072854
1.25061722
1.261974816
1.268010667
1.273438186
1.28037718
1.282296393
1.293239847
1.308891195
1.586143531
1.587087841
1.587706013
1.585520472
1.581639132
1.58490473
1.582968368
1.583680012
1.584588893
1.580865828
1.581740195
1.579742496
1.581887175
1.577340293
1.574083161
1.572342627
1.563882945
1.554406497
1.546470875
1.53513878
1.518155942
1.499057955
1.482847323
1.459386991
1.435002952
1.409725872
1.377248794
1.346929634
1.309174108
1.276929902
1.244303231
1.219455985
1.191651306
1.164211118
1.14463888
1.120947988
1.105658526
1.095541851
1.081228405
1.069007475
1.059559472
1.056492555
1.050060231
1.047936968
1.04662671
1.046284959
1.047814356
1.047437086
1.051905151
1.056233526
1.061694546
1.064594171
1.068298887
1.0693765
1.072861023
1.079622686
1.086114545
1.092873897
1.097487734
1.100367772
1.103792279
1.11079979
1.11578352
1.123436913
1.127736458
1.131035481
1.133673971
1.14074897
1.148072769
1.155884249
1.159841561
1.165522153
1.166637445
1.169798448
1.172789947
1.176621427
1.178083566
1.183725464
1.190439514
1.191149106
1.190373807
1.192404898
1.195444766
1.200876219
1.201981737
1.206353815
1.206501026
1.211734136
1.215808372
1.221504042
1.230098586
1.239651014
1.246817558
1.255902801
1.269234254
1.566933228
1.566097263
1.565247953
1.568795494
1.571314303
1.567522805
1.569462946
1.570282778
1.569110285
1.571987948
1.566989904
1.566632575
1.565817128
1.560155035
1.556625294
1.554466878
1.547195822
1.543360831
1.535706798
1.526189339
1.519746098
1.507836753
1.494127617
1.47507821
1.455820817
1.436798593
1.413119521
1.389093059
1.354268527
1.322232464
1.286458778
1.25139073
1.221091307
1.195969108
1.166232454
1.143569095
1.120898647
1.101287582
1.08259237
1.068627564
1.055341279
1.045618025
1.03658067
1.030284971
1.02734357
1.022322296
1.020031868
1.020051054
1.01789433
1.018850352
1.019792424
1.022492306
1.024491127
1.027345942
1.029812275
1.031743086
1.034894008
1.040829442
1.048123859
1.054984678
1.059152525
1.063121641
1.068097581
1.070626928
1.078284249
1.081654433
1.0910264
1.099411899
1.09981253
1.102730792
1.109558359
1.114574137
1.118857099
1.124204257
1.12800599
1.128854252
1.130580814
1.135131575
1.138671592
1.138384473
1.146068373
1.14881981
1.151577836
1.153701222
1.16133761
1.164980367
1.166031966
1.16907658
1.17543901
1.181368137
1.186227701
1.191245623
1.197186386
1.212300117
1.221166486
1.551716739
1.54919095
1.549021417
1.550499442
1.550386613
1.551932141
1.554129286
1.549223463
1.551896093
1.549857507
1.552008894
1.547497472
1.544296608
1.542052691
1.537271991
1.540276563
1.539681985
1.532356135
1.531530469
1.523154177
1.515145641
1.509040596
1.493435584
1.486586692
1.474898561
1.461756873
1.442820792
1.420049786
1.397572463
1.369322919
1.334731882
1.300333353
1.266736225
1.230182385
1.20104904
1.171778129
1.14145938
1.120634395
1.101079835
1.080614324
1.063453648
1.04768029
1.034916993
1.024628386
1.012363598
1.006104996
1.001794755
0.9956840717
0.9936437733
0.9924207173
0.9887657789
0.9896049501
0.9904980774
0.9946320126
0.9955701287
0.9987780957
1.001509043
1.004036705
1.006157608
1.011469449
1.013450733
1.018649444
1.023552524
1.02670383
1.03266866
1.036644313
1.03977137
1.044335124
1.048561796
1.056009351
1.058209606
1.061243322
1.069745782
1.072717226
1.076646518
1.079854655
1.084589024
1.09063737
1.094709474
1.100206474
1.100552792
1.103844848
1.106428781
1.116680297
1.117108581
1.120263087
1.121946039
1.130418994
1.130948315
1.137225431
1.139856405
1.149988424
1.161075635
1.165122707
1.174409766
1.528952525
1.530877351
1.529691976
1.530712875
1.530904885
1.5315848
1.530940527
1.533979667
1.5303774
1.528655863
1.528338674
1.528407167
1.528682904
1.529552128
1.529060676
1.523545718
1.516682112
1.518035565
1.51873781
1.514932604
1.51312105
1.505670078
1.500777666
1.487719246
1.473177494
1.46046743
1.443918701
1.431619958
1.417155577
1.39654905
1.372803753
1.345533195
1.310259074
1.279659756
1.246778311
1.212662846
1.183712973
1.151130073
1.123671041
1.098917917
1.079924032
1.059198213
1.041232991
1.026342735
1.011907892
0.9981429324
0.9883050603
0.9809720631
0.9737460391
0.9689921648
0.9666746501
0.9660423958
0.9654638778
0.9639903273
0.9641595289
0.9652680366
0.9676870778
0.9674602947
0.9695938158
0.9725769645
0.9773604712
0.9799999909
0.9862796943
0.9924230592
0.9952870781
0.998328034
0.9994197159
1.001753633
1.006400629
1.007459149
1.015064525
1.01624204
1.019016613
1.024792112
1.02846324
1.036852851
1.041215181
1.042751907
1.048807051
1.052820095
1.059624338
1.063389803
1.066824369
1.069519289
1.076757184
1.08385623
1.087730128
1.087208316
1.091526347
1.097708452
1.101068967
1.105279336
1.115536977
1.124223984
1.132458221
1.51641212
1.513112771
1.514203862
1.511991105
1.514666445
1.512953192
1.510647961
1.513383957
1.510849238
1.513068153
1.512926476
1.514704749
1.516850831
1.514810621
1.515096513
1.515687774
1.516573659
1.513662092
1.510578672
1.507027442
1.500218384
1.496997787
1.495034646
1.487184735
1.48251193
1.471060715
1.460884881
1.448002829
1.430360925
1.4122587
1.396904002
1.376568957
1.357373479
1.324567172
1.289566636
1.258231669
1.227831271
1.195274675
1.164455471
1.13541489
1.104774557
1.080776903
1.060818198
1.040019242
1.022804491
1.006583843
0.9922149547
0.9811918325
0.9709397521
0.9620562422
0.9558127605
0.9505280935
0.9440601914
0.9427203235
0.9411952625
0.9405783701
0.9394871767
0.9414051746
0.9430968016
0.9444898869
0.9451802334
0.9480527693
0.9491821775
0.9518697121
0.9533600578
0.9585633949
0.963744086
0.9673220548
0.9687664179
0.9736348519
0.975571146
0.9788410145
0.9814006729
0.9856518513
0.9908603391
0.9944384465
0.9988810913
1.0022921
1.003703097
1.009318471
1.015134141
1.021793773
1.025373332
1.026675676
1.02979013
1.036866639
1.039732088
1.045660719
1.049027733
1.051712138
1.05816749
1.061325698
1.069218548
1.075058442
1.080837985
1.487423671
1.488599233
1.485225366
1.488247475
1.484286987
1.488254487
1.489394259
1.49157316
1.493598589
1.494030915
1.493787668
1.494770546
1.496027714
1.493330717
1.49355279
1.4928254
1.488277909
1.490465725
1.490064843
1.49043927
1.491342738
1.483601657
1.481272027
1.477676185
1.471285493
1.467842145
1.458216447
1.450394159
1.444423584
1.430330992
1.415877221
1.396848592
1.380285781
1.357636585
1.330952186
1.302883194
1.268348414
1.240175767
1.206638413
1.176002542
1.146847792
1.115398905
1.088108193
1.062930639
1.040198757
1.023437738
1.005646518
0.9890480301
0.9753462049
0.9613012241
0.9496250402
0.9402935913
0.9330771937
0.9270316746
0.9233224055
0.9182586468
0.9175553192
0.9153800641
0.9142906618
0.9147329023
0.9158527475
0.9161327122
0.9167602869
0.9186534333
0.9218491815
0.9241270571
0.9279541236
0.9313515869
0.9337211937
0.9359667347
0.9383302891
0.9431039917
0.947890889
0.9491848081
0.9516490504
0.9555388545
0.9583260521
0.963828578
0.968781663
0.9672904316
0.9740176306
0.9754082173
0.9812653842
0.985214788
0.9884006243
0.9911616876
0.9954444559
0.9994423415
1.005975268
1.009374647
1.015595848
1.020144237
1.024251436
1.031591144
1.038874127
1.481417435
1.479238267
1.479196883
1.48041815
1.483106905
1.48046083
1.480189243
1.474536888
1.476066297
1.473573659
1.47220318
1.473176471
1.474712612
1.477392339
1.478125376
1.477734071
1.479173877
1.478542109
1.479237379
1.47392132
1.474724695
1.471739121
1.46907006
1.467374583
1.461994124
1.457538453
1.453390554
1.446879316
1.439345533
1.432660279
1.42305933
1.411575493
1.397704007
1.384536847
1.367240922
1.346200402
1.312317956
1.279817516
1.247716207
1.218120519
1.186120559
1.156746811
1.127396703
1.100055824
1.072204143