/*--------------------------------*- C++ -*----------------------------------*\
| =========                 |                                                 |
| \\      /  F ield         | OpenFOAM: The Open Source CFD Toolbox           |
|  \\    /   O peration     | Version:  v1706                                 |
|   \\  /    A nd           | Web:      www.OpenFOAM.com                      |
|    \\/     M anipulation  |                                                 |
\*---------------------------------------------------------------------------*/
FoamFile
{
    version     2.0;
    format      ascii;
    class       volScalarField;
    location    "0.04";
    object      mfpToDx_N2cold;
}
// * * * * * * * * * * * * * * * * * * * * * * * * * * * * * * * * * * * * * //

dimensions      [0 0 0 0 0 0 0];


internalField   nonuniform List<scalar> 
6000
(
0.9643639175
1.150729875
1.375762271
1.666739928
2.025787608
0.9649431628
1.150549551
1.382338995
1.677943356
1.991717927
0.9675882073
1.150610055
1.378746916
1.662904312
1.934800502
0.9664615549
1.153552313
1.38006629
1.65551001
1.901528254
0.966207228
1.148573502
1.375179966
1.645982473
1.861437879
0.9672843468
1.153365675
1.375955473
1.647190158
1.832790349
0.9642604318
1.150000393
1.370626689
1.630851614
1.798838152
0.967117944
1.150100169
1.369032291
1.634641343
1.776741908
0.9640060302
1.146057494
1.36622524
1.629766945
1.749319309
0.9665567711
1.148645041
1.369636556
1.61886153
1.721434304
0.9644525568
1.148247876
1.36686067
1.628385514
1.707762024
0.9642433895
1.146490937
1.365247418
1.621446533
1.678261123
0.9649544227
1.14720715
1.366915221
1.626651399
1.667609158
0.9659619503
1.14870521
1.365310655
1.623175895
1.638837669
0.9670333971
1.147765124
1.363577115
1.622976921
1.624575756
0.9632897352
1.147224679
1.367659617
1.606447329
1.609852165
0.9631516687
1.144663605
1.360660823
1.581434116
1.578790817
0.9653750019
1.146799469
1.36293549
1.562388148
1.562734307
0.9649403927
1.146436747
1.364988777
1.544781967
1.548547262
0.9657122594
1.152737183
1.371825419
1.535861864
1.533468273
0.9642712444
1.146929189
1.366476986
1.513438253
1.513203152
0.9642678103
1.143601918
1.359922446
1.488091419
1.485639393
0.96337371
1.142623911
1.357297568
1.467812737
1.473322212
0.9647489582
1.150896709
1.366208101
1.464336392
1.456867595
0.9650164751
1.147897079
1.367581649
1.44961654
1.447609166
0.9655716264
1.147097617
1.364496672
1.42566131
1.427865188
0.9648265699
1.149156428
1.366404584
1.409570176
1.410165766
0.9638458432
1.144082514
1.362550207
1.389914721
1.387562839
0.9643716452
1.146664022
1.361080755
1.375808705
1.376331685
0.9639145732
1.148410998
1.362634638
1.357821187
1.363024973
0.9646671207
1.145127437
1.34248502
1.338892472
1.339190779
0.9644177086
1.147072233
1.328106022
1.3290747
1.327523333
0.9640973454
1.144430712
1.311726952
1.313832599
1.312514736
0.9634773261
1.147071713
1.293655508
1.294263941
1.294237178
0.9635699166
1.144116972
1.27977261
1.281644866
1.279924283
0.9644188212
1.148299682
1.266276111
1.265606489
1.264343057
0.96422464
1.148910211
1.254866214
1.254433633
1.255387677
0.9649104528
1.14831394
1.237943386
1.240419222
1.240525966
0.9633939354
1.143344983
1.220463812
1.219683271
1.220003971
0.9648040136
1.146427165
1.207783065
1.208526819
1.206345326
0.9653666875
1.149220313
1.196588808
1.198097694
1.196356421
0.9646547407
1.148235797
1.180580395
1.178975996
1.181769946
0.9647345385
1.147467845
1.167759953
1.170754219
1.168443741
0.9629343437
1.143602551
1.150137463
1.151703244
1.150072966
0.9655873519
1.141837717
1.141344154
1.13966193
1.13867133
0.963882734
1.12666984
1.126600441
1.128789017
1.127031816
0.9643603151
1.112299393
1.111532211
1.109353696
1.111587586
0.9648229958
1.102270274
1.103223339
1.102927129
1.103057698
0.9644369927
1.087189069
1.086056687
1.085255998
1.085967217
0.9637722153
1.073019449
1.072330957
1.072236866
1.072962633
0.9659409523
1.065349588
1.065806253
1.064981258
1.06480222
0.9643512638
1.048723285
1.049255269
1.049899084
1.048989122
0.9636707772
1.037484187
1.036180979
1.037582849
1.037377035
0.9639625377
1.025958921
1.024539065
1.025769985
1.02574695
0.9649599703
1.01527642
1.01623797
1.014792584
1.016797906
0.9645698023
1.000707312
0.9996497192
0.9989618059
0.9990947139
0.9628854361
0.988620783
0.9884572484
0.9883861815
0.9889980052
0.9655997352
0.9786773198
0.9783533459
0.9791037084
0.9779512545
0.9648270502
0.9677142862
0.9676646927
0.9676412165
0.9665648342
0.9556290954
0.9555694038
0.9535160322
0.9548924871
0.9551865896
1.867160183
1.809815743
1.81353838
1.838686261
1.833043743
1.845655183
1.859075412
1.849257096
1.853376935
1.848304589
1.83840219
1.839944683
1.83548392
1.820567159
1.817366672
1.799325613
1.808927685
1.797294907
1.785527217
1.779943577
1.771850721
1.748721965
1.757338689
1.745996416
1.738414899
1.733665809
1.743875883
1.733306993
1.735284321
1.73571273
1.713210353
1.690247353
1.698475762
1.70191101
1.687916708
1.681300944
1.668298799
1.64192629
1.632893996
1.6480474
1.626984699
1.618701619
1.62643467
1.613683802
1.615852782
1.613630736
1.594610705
1.579755157
1.58678569
1.575176639
1.5693188
1.543393294
1.548557505
1.536974611
1.526207638
1.511665333
1.515701963
1.49769496
1.508216605
1.48875353
1.481005607
1.468060094
1.46075396
1.461868777
1.457025805
1.445586789
1.428421745
1.415469284
1.409576274
1.418494477
1.409100906
1.400092748
1.394915985
1.376777444
1.38472447
1.384186479
1.377766355
1.3796539
1.375037932
1.369428233
1.375087412
1.369055924
1.354466591
1.358700901
1.362318315
1.373605341
1.357535161
1.392216577
1.396152868
1.421065845
1.462502103
1.503411159
1.57248616
1.707541783
1.961866225
1.936457045
1.819107413
1.730706963
1.699689176
1.691432839
1.70628796
1.719654546
1.735332654
1.755773519
1.765141632
1.775738447
1.786551005
1.787736837
1.794431533
1.797246798
1.808578594
1.803456407
1.800035679
1.803162756
1.793930904
1.816496518
1.81302413
1.797786665
1.785671378
1.801326572
1.793844496
1.787071859
1.783490609
1.786182074
1.778364086
1.772033101
1.75681455
1.752003675
1.753485451
1.744077622
1.747150806
1.742808413
1.720047094
1.715101331
1.69941713
1.688136939
1.681532234
1.681815962
1.677101527
1.665206841
1.676312993
1.657523631
1.641416036
1.64118904
1.635631367
1.619813838
1.602320642
1.588923395
1.594235865
1.591414999
1.584911216
1.575511437
1.571757566
1.573463898
1.548100737
1.550926729
1.536234796
1.535482619
1.518059098
1.505491932
1.500574582
1.48430855
1.477665397
1.47529479
1.463639446
1.459922678
1.459333773
1.44834126
1.437603453
1.438750962
1.438017836
1.432355017
1.427770699
1.419574073
1.419839265
1.418722873
1.412863328
1.402962942
1.39908454
1.399391382
1.415166456
1.417350741
1.435633049
1.449342964
1.469978973
1.506437747
1.543569549
1.607704394
1.746805895
1.987616437
1.932795233
1.880361216
1.808940081
1.738358835
1.68366864
1.653591133
1.633417384
1.635803096
1.641956549
1.650070931
1.666772558
1.673227063
1.681999744
1.704425712
1.715982321
1.726415211
1.7397885
1.757053157
1.763791586
1.771149272
1.775493111
1.770828379
1.773577883
1.773075826
1.776298485
1.78162946
1.766146689
1.76563525
1.765646558
1.770588239
1.766453125
1.76867331
1.763583112
1.7552885
1.764909796
1.75570974
1.743860914
1.746989355
1.74449914
1.733673361
1.715492446
1.714158621
1.702609943
1.704770877
1.705897963
1.688816352
1.677440333
1.677342769
1.678213048
1.673908591
1.662263506
1.645389504
1.628054333
1.634641858
1.628153773
1.619583779
1.605693227
1.610787559
1.601525026
1.59071504
1.581131508
1.577049449
1.562987861
1.549803754
1.546575047
1.537457012
1.534344345
1.524872041
1.512852267
1.509293961
1.496717307
1.493436301
1.47798167
1.478659959
1.479085616
1.46820352
1.455527984
1.462612882
1.459848308
1.442757345
1.446959496
1.449051438
1.443143519
1.441451284
1.442560169
1.446583526
1.450614968
1.463016727
1.487805777
1.490506135
1.525228425
1.555143465
1.623672875
1.744798036
1.961187391
1.903119054
1.882769094
1.841371892
1.790429921
1.732686278
1.6818882
1.633502821
1.601732461
1.586526043
1.580130376
1.58189445
1.580568425
1.594857767
1.603601756
1.612546867
1.628545698
1.638707291
1.654870146
1.658906734
1.668441584
1.679058309
1.690426235
1.693240962
1.69253956
1.70998771
1.721623788
1.724500275
1.732439971
1.725054814
1.730979648
1.728717282
1.742738506
1.743306831
1.735858887
1.72469911
1.721111143
1.72817342
1.71958252
1.718708939
1.728272634
1.71678892
1.718461542
1.716573547
1.696994714
1.696454588
1.703585204
1.695560252
1.678586618
1.684282372
1.676424489
1.683798267
1.663860325
1.652636848
1.632314676
1.638765653
1.639948726
1.633076248
1.622291747
1.618563032
1.605789447
1.609953584
1.597700873
1.58674271
1.575874055
1.564622493
1.57116339
1.556387547
1.547577528
1.53488069
1.533997777
1.52933065
1.515391245
1.518345743
1.503765786
1.498420825
1.491058407
1.486374878
1.49151733
1.473578535
1.461973326
1.471700497
1.465259961
1.461946326
1.454669505
1.469609234
1.468314904
1.468862836
1.483631479
1.500344817
1.514303807
1.52499225
1.570421656
1.634431607
1.73640828
1.912487803
1.875250958
1.87060512
1.851688417
1.815833776
1.767256991
1.723295291
1.677735012
1.628490141
1.589995285
1.559208373
1.537621279
1.532336299
1.524948769
1.530819717
1.533561615
1.540309535
1.550557355
1.55755321
1.565913986
1.577019494
1.585243708
1.592504771
1.616003549
1.624968567
1.629151479
1.648563935
1.655783148
1.655415441
1.67074281
1.675790163
1.680920798
1.688143026
1.6824014
1.691678527
1.694934307
1.692468901
1.689365269
1.688861146
1.686291079
1.68258932
1.690103809
1.691922925
1.690594883
1.686049848
1.682077732
1.678643902
1.681015432
1.682220256
1.672165642
1.67119238
1.659973243
1.664266845
1.644455552
1.643979461
1.640430494
1.647877821
1.635888534
1.628000744
1.619495163
1.603405512
1.6103752
1.603993739
1.585328999
1.590576377
1.576463162
1.567612705
1.5612041
1.552763619
1.547379294
1.538986932
1.545643382
1.546553475
1.526208109
1.518181384
1.505706971
1.499970393
1.48764993
1.493127169
1.480199167
1.475771407
1.484388392
1.48388834
1.484003025
1.476580801
1.467161102
1.469076728
1.477484877
1.482798522
1.505977538
1.523126334
1.546888833
1.577805971
1.629934483
1.712240218
1.850797403
1.841640815
1.841661456
1.833930017
1.82007454
1.78669818
1.746951464
1.713137082
1.669694034
1.631893501
1.58817502
1.550650412
1.516207696
1.498831821
1.487147537
1.477493997
1.473065422
1.475591585
1.48253045
1.487162173
1.494194487
1.505058876
1.515720649
1.520664931
1.535766813
1.548404176
1.553413536
1.569040652
1.583563807
1.584944363
1.59585531
1.609823236
1.615091339
1.617190625
1.634863609
1.641592881
1.644278382
1.644432322
1.653958162
1.652604882
1.655781699
1.651526818
1.649854134
1.647366049
1.653328752
1.646448729
1.648070295
1.652737226
1.647456336
1.645735875
1.645555855
1.635682246
1.63600475
1.637075029
1.638216563
1.625877259
1.618825122
1.622934073
1.617247925
1.612391423
1.610046946
1.614814548
1.589213432
1.579446201
1.588879038
1.570481943
1.569240367
1.568194165
1.558777415
1.552667145
1.543853973
1.535549242
1.53482786
1.519510058
1.522834352
1.506433809
1.510810024
1.500695343
1.497410769
1.498974053
1.491503959
1.483109707
1.488558467
1.489277633
1.482586571
1.479896062
1.485991269
1.487703964
1.482334526
1.499555599
1.516508409
1.546074237
1.576697742
1.61289476
1.68425005
1.799737107
1.806146721
1.805979671
1.807773479
1.798391737
1.782741472
1.760185384
1.726606822
1.689590142
1.654702338
1.615502389
1.58193385
1.538849845
1.502027513
1.482197345
1.461721307
1.444345641
1.432895259
1.422852636
1.42138821
1.426365176
1.430239768
1.438849215
1.446819092
1.452593077
1.461917527
1.471636063
1.476798849
1.488077341
1.507281463
1.507658068
1.519616275
1.532493029
1.548030011
1.556839816
1.561951358
1.572993356
1.575033815
1.581522837
1.586918199
1.601035909
1.603200879
1.597224394
1.600638295
1.601058432
1.605324585
1.612682809
1.613912473
1.60971159
1.610049216
1.609742148
1.604626936
1.608903033
1.609224157
1.613106149
1.599466642
1.595586091
1.597625789
1.59843401
1.589351398
1.588206443
1.592726122
1.588861644
1.585314749
1.568071232
1.561866723
1.555610852
1.564745898
1.551184652
1.542515046
1.534611552
1.532216264
1.524659369
1.512365153
1.517917891
1.513780751
1.504494482
1.510085271
1.50188567
1.501802082
1.489389669
1.477635704
1.486192433
1.486179395
1.487191789
1.484913352
1.493202844
1.492033721
1.487828293
1.501651342
1.510312145
1.541668928
1.569674476
1.61104278
1.656684077
1.749626883
1.779232874
1.782038069
1.780044726
1.782871105
1.770593469
1.761679281
1.742259461
1.712321508
1.678176379
1.64012256
1.604702155
1.574654899
1.531502868
1.487148448
1.456229855
1.437206426
1.414977762
1.399202528
1.388509885
1.38215413
1.377649454
1.375962328
1.377484892
1.380679643
1.386194829
1.390389605
1.397538973
1.408252053
1.417993179
1.429873499
1.436583298
1.454322391
1.46258376
1.473504514
1.481009554
1.494293398
1.499577198
1.507704107
1.521209082
1.519342544
1.527572303
1.538442158
1.550818512
1.545775034
1.544835194
1.551546519
1.563203981
1.568343953
1.563406169
1.564773081
1.563054872
1.570536705
1.556539762
1.558794623
1.566432516
1.565533062
1.568595604
1.567777803
1.567867141
1.569795717
1.555399433
1.556576653
1.558292727
1.551247396
1.550163841
1.542294179
1.528501494
1.530593709
1.532132435
1.527496372
1.514122818
1.505620469
1.49901052
1.511896309
1.498835796
1.494700018
1.493866533
1.491792557
1.490499444
1.486438155
1.473012957
1.469103946
1.475033699
1.471533608
1.468414227
1.474700958
1.477576757
1.488953945
1.483767165
1.506936181
1.519414524
1.554712054
1.584314879
1.629536034
1.706914665
1.752841361
1.750992789
1.755618135
1.753725945
1.749720053
1.742427285
1.728658721
1.701969919
1.686650776
1.655287227
1.622957968
1.592776718
1.557970417
1.525673488
1.487255677
1.4542997
1.422203053
1.400869817
1.377063049
1.360281782
1.346146669
1.33745121
1.334014179
1.331459586
1.328653353
1.331436356
1.335864937
1.339030775
1.347056717
1.358076109
1.369504553
1.369785633
1.387468759
1.394411084
1.407409781
1.415490535
1.429098441
1.437441669
1.441902653
1.448747651
1.458841567
1.465101265
1.477552054
1.478274634
1.484584188
1.492501394
1.492087561
1.489646094
1.495152691
1.506827227
1.506247444
1.508711148
1.505823074
1.507311765
1.509354417
1.512559921
1.522262468
1.522516758
1.516679239
1.512244386
1.515258318
1.521393962
1.523965817
1.52005413
1.51602683
1.506284773
1.506909956
1.501489335
1.503480715
1.501751682
1.495900362
1.494356958
1.485586556
1.488365611
1.477124741
1.476281319
1.466629208
1.473661878
1.470220467
1.469680236
1.460278329
1.456743943
1.464861765
1.46826651
1.463006178
1.466885184
1.463764171
1.468237633
1.465103834
1.490739186
1.500224482
1.514445713
1.540012738
1.58765519
1.644643006
1.722394535
1.728464626
1.725303327
1.724439951
1.724823616
1.719740419
1.714827041
1.708519336
1.697718921
1.674083677
1.651829593
1.621574421
1.59842705
1.56454379
1.53420899
1.493893589
1.456116168
1.418814874
1.389216834
1.367990568
1.347659396
1.324709256
1.309255497
1.298872035
1.294654949
1.291844941
1.288685812
1.289326819
1.291254399
1.295390286
1.304241062
1.313240035
1.32090144
1.327307085
1.335668972
1.345452333
1.347705277
1.360275066
1.368746071
1.380043678
1.390143052
1.395529083
1.401247967
1.41130852
1.413798631
1.418476497
1.426157068
1.437007787
1.443028299
1.446028354
1.451222197
1.453302089
1.464206041
1.465609699
1.461582005
1.466157061
1.472616411
1.474836053
1.47295361
1.475852935
1.484289131
1.482900648
1.485834213
1.480221532
1.476623
1.480225149
1.476836237
1.477098316
1.475272341
1.47329649
1.472032918
1.466575122
1.461197735
1.459399469
1.45792996
1.452523092
1.45482985
1.453091624
1.450045807
1.449867161
1.454218739
1.453089358
1.44846375
1.444776244
1.449156142
1.447282055
1.450959996
1.451123957
1.463059223
1.462439101
1.479944904
1.500343044
1.522856187
1.554889485
1.595606319
1.70916581
1.705092208
1.708562749
1.705832646
1.703287103
1.705526946
1.702127698
1.696679032
1.693356272
1.680602479
1.661257213
1.640050345
1.613462123
1.582784254
1.552057968
1.522404321
1.493895287
1.457085886
1.422769513
1.387097
1.356600416
1.330971959
1.313907656
1.293965386
1.279991804
1.270283392
1.258629986
1.257848601
1.253592097
1.252181722
1.250875836
1.254067043
1.255920661
1.263078269
1.271703418
1.277733395
1.287415756
1.292897899
1.299648558
1.307045752
1.314255696
1.320058339
1.330127951
1.337924294
1.347499077
1.360331144
1.365826454
1.369110625
1.375262175
1.381586268
1.387884046
1.395745375
1.402046483
1.410023693
1.413901659
1.415256281
1.42039424
1.426552597
1.431694546
1.435356875
1.435213224
1.439366336
1.438512914
1.440674979
1.44027934
1.441837488
1.441482172
1.438449245
1.439991563
1.437908904
1.433860749
1.430417902
1.431911955
1.424783229
1.419751379
1.421121302
1.419141511
1.423506194
1.41462371
1.415507114
1.421752664
1.422656344
1.42565998
1.423436751
1.416757613
1.418541744
1.424859317
1.428314935
1.428855997
1.437566372
1.445071699
1.462906321
1.486378444
1.513139069
1.547545966
1.67863635
1.679903011
1.686531412
1.687834457
1.693277655
1.693051572
1.691924786
1.682715589
1.673852505
1.664340398
1.656953961
1.648811018
1.626365265
1.608380983
1.58404153
1.559970916
1.523642982
1.490786275
1.461384069
1.421074468
1.385756866
1.35603138
1.326088794
1.298878072
1.27902746
1.259654505
1.24434892
1.234510198
1.222929236
1.218222552
1.21328094
1.208416758
1.209556827
1.208471738
1.214129362
1.216726357
1.220613095
1.227550575
1.233695217
1.243219287
1.253513381
1.261746221
1.268074145
1.279208895
1.284857158
1.287110114
1.296733077
1.307091311
1.315670036
1.318466988
1.325291103
1.328939062
1.333382206
1.34071968
1.352621513
1.360172945
1.360419914
1.366165967
1.369485623
1.374236313
1.374259223
1.375477053
1.377102398
1.385070176
1.390673898
1.394071394
1.394846719
1.396182139
1.399314267
1.396318699
1.396142404
1.390720207
1.391061696
1.387011418
1.388753578
1.382508493
1.383836943
1.390085803
1.386207135
1.388850386
1.386279128
1.384550888
1.386827246
1.388402324
1.386837253
1.398321834
1.400518433
1.401007563
1.40336341
1.407381572
1.41853675
1.432527712
1.445031328
1.469763508
1.497109284
1.668500594
1.666250505
1.663996291
1.664320813
1.660465937
1.658802275
1.657756944
1.657134269
1.659388966
1.653877731
1.646575948
1.637266356
1.627636454
1.611758954
1.589764754
1.568364679
1.548175037
1.523228396
1.493534115
1.465856233
1.426595126
1.389899798
1.354139213
1.32282336
1.296618092
1.271736168
1.248647853
1.227545106
1.212708902
1.198150886
1.18727023
1.184268019
1.180063717
1.176802877
1.176426384
1.176683306
1.178818688
1.181114871
1.183304103
1.189372694
1.19472719
1.201742909
1.209947078
1.215326761
1.223511284
1.232322984
1.239084731
1.245701546
1.253581538
1.257799003
1.266049778
1.270624998
1.276668226
1.283619925
1.289971977
1.294945243
1.295486313
1.299128079
1.306832037
1.317714584
1.32285669
1.322237999
1.327160456
1.335873617
1.337384531
1.338867141
1.345941136
1.349416072
1.348405087
1.352826225
1.354718421
1.353269478
1.351756137
1.353053591
1.350190261
1.347940753
1.35209291
1.359088098
1.357994517
1.35283662
1.354189546
1.359356271
1.360060696
1.366897217
1.364299801
1.364360748
1.362093321
1.366694177
1.37365194
1.381319351
1.38282625
1.397391133
1.416664345
1.432169031
1.464998474
1.638402024
1.643993738
1.641136376
1.644044885
1.64286429
1.644217898
1.643514942
1.644868019
1.637853626
1.637767408
1.633094299
1.623051284
1.61509603
1.604216636
1.595639785
1.580822669
1.560346951
1.535153725
1.511598807
1.48872287
1.462019145
1.431545856
1.395410181
1.361284958
1.323774414
1.293731934
1.262835664
1.240251038
1.220483579
1.201163583
1.186761616
1.171050127
1.161218442
1.151367028
1.142888139
1.140230189
1.138282098
1.140041995
1.141430811
1.140508955
1.144592919
1.150520585
1.154741967
1.160514926
1.165642155
1.173040466
1.179416536
1.18264475
1.187557662
1.19548702
1.201848526
1.209918335
1.217108971
1.225021335
1.229434488
1.234030527
1.241694569
1.246925968
1.251313955
1.257742264
1.262623578
1.268121645
1.274386335
1.277311466
1.284100447
1.286499912
1.288791033
1.294535475
1.298383251
1.300287605
1.309067615
1.308244205
1.308790062
1.311750925
1.307845602
1.308924299
1.305693972
1.305901969
1.313888188
1.319161929
1.315938908
1.318411313
1.322034181
1.324517646
1.326478814
1.330453017
1.328086354
1.334947465
1.336551047
1.342584506
1.347053827
1.360973905
1.370165059
1.38592191
1.403058764
1.628152228
1.623113148
1.623437853
1.624335744
1.627817608
1.628313678
1.627887608
1.627720951
1.625202261
1.622650146
1.622926732
1.618130495
1.611509858
1.607231732
1.592158222
1.580737198
1.570116824
1.551868345
1.534767001
1.512816207
1.486528033
1.464433169
1.435227305
1.399780414
1.367973781
1.332017591
1.299830451
1.269249909
1.239796174
1.214405587
1.19186712
1.173576516
1.158223692
1.147294232
1.136710289
1.127095237
1.12077707
1.112918294
1.112758373
1.110192994
1.107870743
1.109787795
1.111243569
1.111629672
1.113289555
1.116438504
1.122802571
1.128195346
1.137281385
1.14251399
1.149968836
1.153321848
1.163558022
1.169272257
1.177594699
1.183080115
1.186000211
1.191292444
1.19536004
1.198137239
1.210572057
1.218520747
1.221207275
1.227190134
1.233756711
1.241730984
1.243715832
1.248724125
1.247331115
1.251863371
1.249927159
1.255684047
1.264216662
1.264833092
1.269063278
1.267353548
1.269160236
1.272680754
1.275520272
1.274774553
1.279702418
1.27909571
1.283020918
1.282950635
1.285752059
1.282497468
1.290199309
1.298012009
1.302131904
1.296881094
1.305459942
1.309255877
1.317378629
1.336577232
1.36214279
1.607270156
1.609927482
1.611674394
1.613361055
1.610631945
1.612141528
1.609483365
1.609051596
1.610322017
1.605831502
1.604513682
1.600801552
1.598190057
1.59317001
1.586379962
1.576752247
1.572141794
1.557048726
1.543276236
1.527050011
1.50619736
1.487554136
1.467833784
1.439304917
1.411443735
1.376024799
1.341736825
1.306549714
1.271327681
1.242611726
1.215220331
1.18859384
1.16457711
1.144507651
1.129478343
1.116456816
1.108103312
1.097984385
1.092023786
1.085107414
1.081266456
1.077317097
1.073023274
1.074937713
1.077597535
1.077980311
1.081464879
1.08552183
1.091868268
1.096638775
1.098356823
1.105909623
1.109126861
1.112564462
1.117497098
1.126219597
1.132639545
1.139476177
1.144907225
1.152558275
1.156630882
1.16191927
1.169118387
1.175160399
1.177253964
1.180872055
1.186885452
1.191966775
1.197127805
1.202877139
1.207618249
1.209121927
1.214635641
1.218370231
1.222705656
1.230115905
1.233653284
1.23291334
1.234745487
1.235543415
1.23912896
1.239158469
1.247368159
1.250753979
1.256517751
1.25782309
1.254568853
1.252197199
1.253872733
1.261433555
1.26572999
1.275333712
1.285671225
1.294191103
1.314784167
1.578655599
1.579336213
1.579750582
1.57967958
1.577601062
1.579597429
1.577227582
1.578216435
1.57935861
1.581799347
1.579500533
1.581591253
1.578712569
1.577302846
1.578310865
1.57580567
1.569559905
1.560488871
1.550026927
1.538826481
1.525802672
1.503892494
1.48689702
1.469097207
1.443129884
1.41971491
1.384969208
1.34951247
1.314165695
1.278546254
1.243772996
1.214576042
1.189811931
1.166215726
1.143596452
1.123591122
1.107244501
1.093055983
1.078919023
1.070860679
1.063539436
1.058338469
1.055987546
1.051127783
1.048968238
1.047438615
1.047478874
1.047803752
1.045961006
1.048778022
1.055095488
1.057085564
1.061856178
1.06915696
1.072031845
1.078559315
1.084295512
1.089174602
1.09596269
1.100460316
1.10475335
1.11014263
1.116265898
1.116821253
1.124808411
1.131196978
1.137250799
1.142789111
1.147590707
1.15230716
1.15929402
1.163589301
1.163475582
1.172648029
1.177090536
1.177522059
1.178693204
1.183277688
1.186830658
1.190199338
1.192965643
1.194170118
1.197721458
1.199869299
1.202628292
1.207934406
1.211414339
1.214071046
1.215026421
1.22303018
1.230204494
1.236374567
1.244457034
1.256955938
1.261392736
1.561582951
1.56069903
1.560524952
1.559560675
1.563263478
1.562893034
1.564723272
1.56379623
1.567539148
1.565079244
1.563860029
1.567314127
1.565398914
1.562130496
1.561809493
1.554121337
1.549487873
1.546135782
1.538774188
1.529172781
1.521894678
1.510632893
1.494996724
1.47621939
1.455636153
1.435523946
1.414548659
1.393301868
1.3567198
1.32340087
1.293009056
1.260204107
1.226008643
1.193762158
1.167939511
1.142565564
1.117016291
1.098993541
1.084452347
1.068633215
1.054369918
1.046114004
1.035546419
1.033049791
1.027237578
1.026258072
1.022108631
1.020615645
1.021510913
1.020538813
1.021065924
1.024589493
1.024300021
1.028182552
1.032122989
1.03534626
1.039153797
1.043013644
1.045491305
1.052787803
1.056951539
1.06165333
1.067367206
1.074034329
1.077161569
1.083574478
1.086488649
1.090405908
1.09638642
1.103058674
1.106348416
1.109266635
1.118607368
1.11843312
1.125408443
1.12809171
1.132166056
1.134230583
1.138340714
1.140878412
1.144336263
1.149841335
1.154111852
1.159471398
1.159382454
1.16141863
1.165436477
1.171152951
1.173478696
1.177822315
1.183623985
1.192159632
1.197862557
1.201906961
1.215192821
1.549403335
1.548213516
1.550832532
1.551098527
1.554441013
1.550198402
1.553758593
1.551742525
1.550288672
1.55030016
1.549390207
1.549279942
1.547056731
1.544079854
1.540531091
1.540426162
1.53962072
1.534099606
1.528579454
1.523772851
1.515765068
1.50178371
1.495384551
1.48015661
1.47079674
1.455113661
1.437585823
1.418997238
1.395697839
1.371373658
1.337521968
1.298504702
1.268124229
1.236378382
1.203190432
1.174552753
1.148678232
1.122207015
1.099053934
1.079708591
1.062913579
1.049133652
1.037048992
1.023195597
1.01326219
1.00557474
1.001286732
1.000976213
0.9966844614
0.9943154796
0.9932590862
0.9907688835
0.9943669046
0.9946190304
0.9973015613
0.9992042349
1.00073261
1.003964493
1.009573426
1.012798066
1.016144499
1.020119113
1.022169764
1.026219597
1.033809634
1.036824021
1.040249263
1.04692901
1.051574135
1.056520357
1.061786631
1.0667272
1.070713831
1.072413194
1.074235813
1.083335325
1.087511081
1.092262788
1.093802933
1.098038447
1.104867157
1.109239408
1.110717345
1.112978883
1.119756852
1.123915542
1.127338475
1.13311844
1.134797767
1.137357417
1.140291223
1.146818197
1.151594114
1.15835871
1.170291592
1.533310801
1.534566244
1.53510869
1.533334502
1.528826049
1.528885843
1.530583995
1.530045471
1.529091233
1.534410345
1.528466205
1.526603556
1.526439822
1.52539972
1.524752384
1.523811542
1.517709617
1.515499037
1.515822552
1.511374701
1.5068211
1.505702563
1.497370523
1.490682442
1.479486079
1.46837739
1.454058111
1.439806436
1.422701019
1.399980961
1.378406993
1.349489868
1.31444083
1.277394478
1.244485602
1.213295588
1.181970815
1.151981532
1.126689204
1.100567527
1.077459556
1.058595058
1.040727661
1.026399012
1.012360125
1.001816441
0.9926298058
0.9826851101
0.9765869549
0.9714922599
0.9701691345
0.9669402138
0.9659644535
0.9649273706
0.9639772212
0.9648888523
0.9689024235
0.9694150375
0.9707530911
0.9711706873
0.9755753349
0.9800154116
0.9827655759
0.9865088862
0.9892324858
0.9935761031
0.9995113569
1.002313222
1.010899307
1.01188779
1.015728707
1.021987757
1.025341223
1.030863466
1.036662814
1.039168673
1.046368517
1.051084125
1.053554031
1.054940603
1.057252881
1.060056917
1.066366388
1.067401272
1.06900358
1.073739238
1.081274841
1.084625074
1.090689851
1.096113767
1.09987711
1.101836356
1.110213591
1.116975887
1.12505622
1.517860278
1.514579846
1.513533638
1.517555819
1.518899346
1.514121855
1.512648799
1.509241207
1.511023562
1.510130333
1.510341433
1.509704699
1.511093908
1.508647964
1.508761049
1.508574599
1.508360811
1.509250915
1.506809331
1.502447062
1.499024873
1.49677691
1.488479254
1.483776484
1.475836693
1.466162852
1.456972335
1.442880239
1.428885839
1.415825707
1.399400249
1.37684478
1.354664821
1.327774397
1.291859372
1.259377857
1.226329185
1.194564915
1.162974079
1.13661909
1.107972276
1.084122055
1.059169392
1.038741238
1.021492448
1.005727242
0.9926391824
0.9784713498
0.9687356663
0.9615701677
0.9544946297
0.9499499955
0.9447499777
0.942966516
0.9406043653
0.9380812133
0.9378002095
0.9388103677
0.9391400746
0.9406160319
0.9409218665
0.9427043964
0.9469552956
0.9494761951
0.9532133791
0.9565928279
0.9604372938
0.9636743756
0.9639048571
0.9718506661
0.9797140962
0.9828669566
0.98712088
0.9903948259
0.9934113047
0.9947760372
0.9992346148
1.004868266
1.008975473
1.012807056
1.013735501
1.016660883
1.018999348
1.028269349
1.032295514
1.036324472
1.038186156
1.042733258
1.045756194
1.052295116
1.05690631
1.061324006
1.066263484
1.074316144
1.084299214
1.483105551
1.483230107
1.484843889
1.482025956
1.482565271
1.482236279
1.486232589
1.490996258
1.489750963
1.486508216
1.490060811
1.487272906
1.488485061
1.489159161
1.49026257
1.490026197
1.487956223
1.4853808
1.48388298
1.481762061
1.48244526
1.481066395
1.477638151
1.47407302
1.471819718
1.468913768
1.459863069
1.451374835
1.441057625
1.428265151
1.411925673
1.395605247
1.380964396
1.357667492
1.334888486
1.302499064
1.272337872
1.237828805
1.206155909
1.174668812
1.14283479
1.114023938
1.089651661
1.063713433
1.040390276
1.018487025
1.000592555
0.9862233587
0.9743108691
0.9619276297
0.9518721949
0.9436046547
0.9364041968
0.9308025987
0.9255189683
0.9205855475
0.9197907392
0.9162640311
0.9145430981
0.9150091409
0.9159005951
0.9161946625
0.9156923425
0.9157421993
0.9183188594
0.9213906926
0.9219720583
0.9258676834
0.9316612052
0.9320824535
0.934757961
0.9381622415
0.9446274468
0.9502109905
0.9534685818
0.9569363386
0.9584384025
0.9607486961
0.9678251926
0.9705167886
0.9757260479
0.979051357
0.9837073502
0.9839644974
0.9909738255
0.9951489954
0.9970893112
0.9992894829
1.003425892
1.010126693
1.014309273
1.020395276
1.025578448
1.029122154
1.035970813
1.47155042
1.472510995
1.471197238
1.473765362
1.474811837
1.47302852
1.475278792
1.470810154
1.474157536
1.473847197
1.475930274
1.476966847
1.478777737
1.478264483
1.476973722
1.477239674
1.480390261
1.481583057
1.477730892
1.48065436
1.473130269
1.473044377
1.471467579
1.469356492
1.461090101
1.457233453
1.450284968
1.441533735
1.436522526
1.426023471
1.417746949
1.403650382
1.389059488
1.378301655
1.361413473
1.341707137
1.31121675
1.280012107
1.249769897
1.220338796
1.189064213
1.156877789
1.128432468