/*--------------------------------*- C++ -*----------------------------------*\
| =========                 |                                                 |
| \\      /  F ield         | OpenFOAM: The Open Source CFD Toolbox           |
|  \\    /   O peration     | Version:  v1706                                 |
|   \\  /    A nd           | Web:      www.OpenFOAM.com                      |
|    \\/     M anipulation  |                                                 |
\*---------------------------------------------------------------------------*/
FoamFile
{
    version     2.0;
    format      ascii;
    class       volScalarField;
    location    "0.04";
    object      overallT_N2cold;
}
// * * * * * * * * * * * * * * * * * * * * * * * * * * * * * * * * * * * * * //

dimensions      [0 0 0 1 0 0 0];


internalField   nonuniform List<scalar> 
6000
(
301.1448916
304.3115369
313.0088665
341.53759
455.0873395
301.127336
306.5927633
319.3560443
355.0380671
431.7030536
301.7492677
307.1525745
319.8748046
347.835805
390.9246954
301.5558951
305.7856438
316.2173948
336.4906549
361.0840565
301.8142191
306.1935209
313.7900393
326.7951243
342.8191606
301.7905044
304.6217548
309.3575887
318.0387115
328.1429175
301.4271867
303.7045433
307.8984177
313.3996393
320.8977621
300.8236861
302.9627241
306.3209823
309.4272608
315.3791833
300.6470075
301.5127999
303.0257657
307.3005796
309.3205318
300.5280594
301.3943827
302.5015621
305.1732904
307.3998959
300.829203
301.8376333
302.3301221
303.7354753
304.3903577
300.5663948
300.52887
301.8111617
302.5201206
303.7243612
300.2870617
300.5515652
300.925251
302.0825255
303.2448623
300.3547139
301.4053034
302.1613697
302.2827047
302.936312
300.5831851
300.6411596
300.7761439
301.7536478
301.5838938
299.390243
300.1400734
300.4748758
300.7011825
301.2588236
300.7254193
300.3609599
300.7630326
300.1121349
300.2696703
300.1851463
300.0678569
300.311813
300.3520546
300.5845565
300.4938562
300.4731839
300.6684945
300.5343948
300.9187773
300.1072233
300.1171139
300.0849544
300.6753806
299.9576371
300.3754761
300.4563875
300.5879349
300.0575314
300.3940134
300.2873323
300.0746462
300.0802253
300.1472769
300.2538105
299.5825273
299.508249
299.9428062
300.1166006
300.5888036
300.2203243
300.0273733
299.7442841
299.8422931
299.6973742
300.4729666
300.4499779
300.7429606
300.7480547
300.9175451
300.5574738
300.8309519
300.9473294
300.3096195
300.4390049
300.0087348
300.0762267
300.1128329
299.7436954
299.7949438
299.842878
299.8814274
299.2267373
299.5831866
299.7741774
300.4921583
300.1798543
300.5313808
300.3999138
300.5121396
300.5135705
300.8389908
300.4240638
300.4353216
300.4277664
300.0975459
300.0418951
300.1689837
300.1321697
300.8007965
300.2915964
300.4696641
300.6664313
300.5464482
300.530264
300.4032679
300.8259194
300.3061073
300.5113831
300.6209847
299.8035962
299.4848018
299.9125034
299.9520803
299.8815228
300.5425931
300.6072442
300.2621257
300.4212715
300.2320444
300.3673697
300.433916
300.3031563
300.7080343
300.3975794
299.520142
299.8231064
299.8319088
299.6479193
299.6937365
299.5573339
299.3534853
299.6526576
299.7096795
299.7832636
300.0523716
300.1566252
299.5006054
299.2096607
299.402951
300.1168824
299.9573935
300.4333437
300.437762
300.0621841
299.3738134
299.6996939
299.6105961
299.9451306
300.2874954
299.7943665
300.10694
299.7001618
299.9559534
300.0108517
299.1082431
299.0647085
299.3814498
299.3147878
299.5395758
300.2181922
299.9564749
299.7290922
299.5520686
300.0660521
300.1695377
300.0834838
300.2696955
300.4766652
299.8130998
299.4326473
299.429535
299.7759536
299.8504954
299.7202832
299.7494745
299.5180919
299.5393346
299.3670983
299.2949937
300.298932
300.0772578
300.3281514
300.0195423
300.5079412
299.6842546
300.1863841
300.4442614
300.3651753
300.3880848
300.2233535
300.4222807
299.8615545
299.7280442
299.7827472
300.3695295
300.4960655
300.4162459
300.5389111
300.6014502
300.3830622
300.3074668
300.167295
300.1644303
300.8426838
300.008193
300.3377368
300.4246539
300.2630762
300.1773996
300.7468413
300.5165509
300.4161226
300.3488613
300.2324122
300.1005488
300.1786139
300.2429434
300.2433527
300.3171128
300.2498671
299.9192235
299.9335498
299.8474071
299.8444859
300.2422871
300.3099438
300.1228136
300.122125
299.918262
299.4095242
299.2886697
299.2541888
299.6224009
300.1495179
300.408019
300.4525725
300.7927807
300.5035255
299.9235068
300.2625222
300.1994107
300.143483
300.1442038
300.1859237
646.0119118
683.6846805
708.2539949
717.7507832
723.4626523
725.8563277
724.7867252
722.8275234
721.5588673
717.605014
714.0730947
709.573107
706.6922204
700.6557874
695.6600513
690.7387528
688.4624479
684.5704996
681.6706774
677.2282382
675.8289008
673.01002
668.9104268
666.5627413
659.6177712
657.3085454
653.8322912
656.3759558
653.3477841
651.732183
648.767739
644.3365418
641.5482076
643.3194762
636.3169588
635.3423403
631.8497589
635.3385568
632.8771697
630.1844974
627.564273
626.5941182
624.6432059
622.1149839
619.3748271
619.8158946
616.1856
617.4766031
616.1072517
613.6635842
614.7308423
614.5055139
610.6399805
608.9526862
610.2994724
609.1165979
609.8327975
607.9208752
606.5633662
603.3999845
603.2931911
602.6731233
601.0794376
600.9759502
599.5570853
599.6026983
597.161083
597.8852192
594.342204
597.6276075
593.2835628
594.1839091
593.3910018
593.9127456
591.6013393
589.0629581
590.2459375
588.0961179
589.6411968
588.8528869
586.3171921
587.517771
586.6705383
584.7335065
582.5301744
583.0372633
585.2016009
583.4917617
582.8128235
582.656922
580.330828
578.8782085
578.0728078
577.7560518
572.8947859
518.6999626
570.3971989
595.5570305
616.4510694
634.0984216
651.0549765
663.6027119
672.6830931
681.9542059
686.169304
692.4543759
694.0719003
697.050369
698.5431871
699.7550515
697.8638241
699.2965231
698.3393113
697.7735944
696.0123484
693.7878711
691.3084001
688.7206581
687.3023568
687.6242063
683.168294
683.0999658
680.4423046
678.4063593
673.977517
673.59269
672.709809
673.20512
667.0125226
665.6398383
661.9238003
663.1408021
660.9046111
662.0520621
657.9858965
655.127567
654.7710964
653.5248151
649.9722563
651.7290519
647.9109218
646.7313914
645.2434712
641.7376768
642.4855919
642.3129069
641.356591
638.5963254
636.4186891
636.131789
635.6061595
635.3731061
636.200543
634.4032203
629.8144867
627.7561856
626.4070969
627.8995554
625.3865203
627.6625033
623.6981007
621.6631499
620.751808
620.8086103
618.9479957
619.96405
617.5232992
617.472818
613.5436782
614.0735513
614.5522133
612.6820293
607.7453187
610.821756
608.2614381
606.684033
607.1611853
606.1596631
604.3346857
606.1998818
604.6461451
603.7208753
603.3572009
602.2629962
600.0273917
593.2098702
591.9452458
591.4131633
587.0209664
561.1651639
441.399758
487.0926614
524.4783747
544.9542426
562.3774478
575.5167519
588.51309
603.2432288
615.2914155
628.2449401
636.4700562
644.2036407
653.1389821
660.7065446
665.8833003
668.9340153
671.1726162
675.0026553
678.7547422
680.4765614
682.5147778
681.9958229
682.5346215
682.3051116
680.5678462
682.3831966
684.4304187
682.3049394
683.2844828
680.4697259
679.53455
678.4394187
678.6006918
675.1983793
673.9276841
674.0061507
673.6241728
673.9632872
671.850662
671.4814864
668.4225662
670.2152248
666.6430721
662.8348479
662.6026373
662.7497057
662.7190716
659.4457449
657.669118
657.800885
655.6822263
657.722621
654.1673856
655.9184673
652.5313177
650.3113126
648.3192738
648.5158172
645.5062971
644.9974587
644.9893589
643.7762442
639.1800979
641.3027788
641.2522409
641.0848127
639.9418018
638.4608631
636.50925
638.0312361
633.5270049
633.918466
631.8398926
627.6537202
628.0088336
624.0645166
627.702154
626.8273704
625.5662362
624.0903329
623.322593
621.7533747
620.1352962
620.2605696
620.9098
619.6081302
615.5797688
617.0241616
611.6209877
608.12815
607.3184842
603.0383454
595.8571472
585.4543699
558.3414451
394.3186984
429.3244041
463.7198389
488.5398539
508.2390382
523.0232259
535.1884582
544.8885708
556.8052801
568.157002
580.5519602
588.9591086
601.1812055
608.3653841
615.7957717
624.4138649
630.5824925
636.1998272
640.5632134
646.6502654
649.2339459
652.4327072
658.4553173
660.0872757
662.0011017
662.6340689
664.7093578
667.2364892
669.5451668
670.6337619
673.0377722
673.5512052
672.7245022
672.7681886
672.4413346
672.1438009
668.7142696
670.7984487
670.4565204
669.5982876
669.233546
667.4764801
669.8116122
669.1244147
668.8016836
671.2242171
667.8175135
664.9826819
665.4110887
664.3966401
662.8388991
661.9412151
661.7050733
663.5593613
659.638105
661.2879246
656.6250519
657.5900859
652.8993006
652.657698
654.1560508
650.8119749
653.1170714
651.0508169
650.1998993
649.4095857
647.2264261
645.6869031
645.535478
642.1685243
647.7991293
644.7421887
642.1944478
640.7073319
638.8912718
634.746999
638.8432508
636.6657504
636.8929561
631.6923973
634.0866458
632.2232855
633.8129562
633.0061285
628.0380431
627.2975226
625.8562101
621.6379742
619.1643538
614.724768
613.844378
608.344392
598.939774
587.5182067
558.939821
364.2037031
388.3518373
415.5541444
440.1660825
462.0274124
478.1078113
492.3956839
504.0929624
515.5762349
525.6543278
534.9256291
546.1636892
554.3308205
559.865268
569.026373
576.6346267
587.0184866
594.9789484
602.5674579
608.4399652
611.8795859
619.5553012
623.3755739
629.5391748
634.7512889
637.3073389
641.1280004
642.6618089
648.2276866
652.338002
655.6232497
656.364412
656.1483881
659.4240074
659.4173207
659.5847626
659.0503545
661.7686591
660.2636976
661.42414
661.8287609
662.8946085
666.1158622
664.2638852
665.2424406
666.9920987
666.0010847
664.1605644
661.3215557
661.7500934
664.6966671
663.6046298
664.9695017
662.0745693
660.9343216
661.9399725
660.1880115
658.8539591
659.1946592
659.3102585
659.6493623
658.2215688
657.6661457
654.6074769
654.6765362
652.7601431
655.3148292
655.6673908
651.1965267
652.1127649
651.1607702
649.3974974
648.35111
648.7609057
646.9324183
644.5929956
644.6556151
643.7461928
640.9468295
641.539699
642.3739012
638.9154498
638.7163166
636.8635624
635.6290027
631.6892874
632.0192746
627.5266791
625.6789483
622.334076
616.1917246
611.776719
601.2844059
586.6595826
561.4890052
343.2628992
362.9643116
381.8148205
401.1177782
419.4416593
437.2869219
453.1389757
466.9344619
477.8238265
487.9959466
497.2360287
507.9797868
515.7066089
522.762785
531.5495197
538.8936953
547.3919574
555.5237083
562.6430428
567.9925908
575.7818494
581.946527
587.510553
594.2807812
599.2488727
603.6765023
608.6090693
614.397888
619.569336
623.8932475
628.274916
631.1213978
636.2087587
637.6148937
641.7328119
643.0528598
644.6734096
645.7103376
646.8977748
648.4631357
650.279483
650.0418099
652.1957322
653.0698421
653.5268892
655.4729545
657.0763302
656.2315291
656.6645731
658.9287136
658.0003978
658.9672794
657.6487787
659.1242749
659.482735
658.9465212
656.8861612
658.3776563
657.6358102
655.0984174
658.9898637
656.2165542
655.9252313
652.4754698
654.219797
653.7926067
654.2114758
654.979153
651.9188597
653.9307577
652.6717622
651.2279118
652.5586847
648.3336364
649.7855136
650.8459411
649.9786664
647.6183483
646.4589358
646.4179934
645.0511788
640.0672269
639.7464731
639.9833213
639.1555234
636.5384972
634.8592104
632.8004409
627.333926
624.5835271
621.2847656
612.2072877
603.3970814
587.0401213
565.3749811
329.6881794
341.8805197
356.1521269
372.108381
386.7924329
403.2255633
419.181928
433.833186
445.799172
457.7271397
467.7504731
475.6644589
484.7397593
490.3501822
497.76971
505.9127325
514.2630864
521.8574531
528.8794179
534.6217248
541.5609701
548.6408385
554.2318976
560.6899092
565.8997343
571.7025369
579.1531247
584.1447548
591.2373324
594.1741381
598.0539789
604.7264022
607.2744669
611.9333924
616.7084235
619.2938197
622.3888089
624.0612017
629.533362
631.6472986
634.3513228
635.7283369
636.3487282
636.8947421
640.0327392
641.779339
642.2987435
644.3150956
646.4935838
645.6484189
648.2509593
649.2170861
647.8356568
649.633463
651.6878199
651.3919869
652.037072
651.6623291
653.057738
653.2123075
652.1224782
651.0490343
650.6417568
649.3151852
650.0257682
650.619823
650.6086472
653.305619
652.7299126
652.7914447
652.5995137
650.6929799
652.2779245
650.6625155
651.7841438
652.0693322
651.5371858
649.1499409
648.7738192
647.4638074
646.8202599
642.3144462
639.6660878
640.6752207
639.7160401
636.2053359
636.5520667
632.0908658
627.7868863
624.1196069
621.5288339
612.9690437
603.4256063
589.8952318
567.4354087
321.1943052
329.6025548
338.8628388
353.5206456
363.8939924
378.9326645
391.1906286
404.2276516
417.3486264
430.3224054
440.3262019
449.8184866
457.2049134
465.8487316
472.9561893
478.0780739
484.3132675
491.1735213
497.9382449
504.7699902
510.3418213
517.5404636
523.340581
530.5541755
537.3010782
542.5827173
548.4201928
553.2660431
559.48922
563.7726991
569.4179036
575.2066387
580.8006921
585.6380409
590.7954061
593.8869363
596.7093519
602.2199958
603.1521546
606.952315
609.7871561
613.3069615
616.8491926
619.170378
621.4230519
622.7973362
625.7343563
627.4729195
629.4259661
631.6048959
633.9086902
633.5097965
636.2302277
637.7192616
638.8762345
639.2192856
640.5830133
640.8677282
643.3960942
644.0023494
645.0900942
643.5033471
645.384899
643.0370403
645.0819898
643.5174875
646.6268996
646.6064978
647.4706034
648.9420747
650.878494
649.585565
649.8257236
648.599777
648.4677512
647.4173768
647.0303973
646.5993011
645.9208475
647.13618
645.3939351
642.4797044
641.182663
639.9790141
638.7515796
637.3463229
634.9069373
629.3252768
627.549318
623.9963687
617.3916626
610.6827479
602.7071881
588.0362046
569.3843486
314.6694196
320.1021041
326.4620005
335.4790195
345.6921205
356.0520034
368.2344961
380.0853076
391.9574866
402.0108078
413.5940614
423.3429368
432.3490469
441.1571348
447.7131351
454.8418531
460.8685855
468.0652515
473.6989062
480.6720608
485.1983387
490.3141711
495.8627181
503.9309328
509.51948
514.9932738
519.6915824
525.8473813
532.2066804
537.4852397
542.2524283
546.3747552
552.5585104
555.4057553
561.7691755
566.9878174
571.8579181
575.5003513
579.6434891
583.0852343
588.3083976
590.4467745
592.9103031
596.8372918
600.8038759
603.6012457
606.6429047
608.4853767
610.9926403
615.4958213
616.54873
617.7707529
619.1220803
621.5370303
623.5274021
626.2051042
627.6796934
629.2173986
630.4576145
632.560672
634.4083517
634.0148137
638.1572196
636.115913
635.6914385
639.9508061
637.7068768
637.8335773
638.9578725
641.4863147
642.4814315
642.2447418
641.5571442
642.8959617
643.8662889
642.4198467
643.5397205
641.408309
642.5591032
643.6074261
641.3937001
641.373951
640.163644
638.4159162
639.407955
637.9992125
634.4823236
630.8665377
628.5651961
621.2047655
618.6345854
611.3775573
599.3306001
586.9851023
569.3870355
309.4920973
314.1199913
319.4429504
324.9470253
332.0099419
339.2005878
348.0954558
358.174721
368.4007431
378.3107973
389.0977658
398.3191928
408.5037967
419.4848204
426.5144565
434.9677275
440.643309
447.7551856
452.6807519
458.2313415
464.787701
469.6008776
475.1335317
479.7115889
485.6262695
491.176736
496.0522412
500.920951
505.1432789
510.6276149
516.5350535
521.767961
526.3188649
531.3480913
536.1876059
540.22202
545.7702286
549.7194476
554.5983351
558.8447756
564.64151
566.5811277
571.774433
575.4240173
577.7158053
581.8693783
586.5608085
587.4214756
591.313057
595.9994231
597.5213299
600.0377082
601.4673057
605.6002086
608.1285266
608.9044782
612.414626
613.3596587
615.2169523
617.6811866
620.2504185
619.4238023
620.8363635
622.5253255
624.3770353
626.6070141
628.1490531
629.3208013
629.3317897
631.1989218
631.9354073
633.1521131
635.0883583
634.6697881
635.2729496
636.9715022
635.2117768
636.0437036
637.6941132
635.9652286
637.4793018
635.4923082
633.9020696
632.8755816
632.7992495
633.2735099
630.2589754
625.2723876
622.3200393
617.8569758
614.9590598
608.284993
598.9413495
588.1982661
568.9553791
307.0261476
309.6462636
312.9835291
316.1016104
322.1781527
328.334033
335.0332282
342.2137561
351.5677548
359.0917129
368.7657821
378.3478545
387.2893833
397.1762788
406.1146117
413.5160497
420.9456894
427.2388304
434.7744228
439.8742546
445.494547
450.3991933
455.5853874
460.8751003
465.6678723
470.4385286
474.8806769
478.5700367
483.4788298
487.7947841
493.2226803
499.2446423
503.4234699
508.4698142
513.2972767
520.3299479
524.4181152
527.0817768
532.176768
536.184234
540.2095644
544.0585996
547.0578341
552.9433554
555.67348
559.1538469
563.6968639
567.2575597
569.9979869
575.1559257
577.7387033
582.3573913
584.7014593
586.8116461
587.671254
592.1915047
594.8731175
596.211909
599.4982761
600.8221444
603.7376058
606.3972006
608.4185667
608.6278188
610.4783832
613.7126033
614.9493995
616.3453896
619.8980308
621.2257817
621.1270428
623.027964
622.7994074
623.7389403
624.0495028
626.6115313
624.7894651
628.0242594
627.3298682
629.240423
628.1786108
628.2256217
626.6723103
627.6539179
627.9714106
624.849902
625.4132637
620.356024
617.1042722
612.9188364
609.5981527
604.5786699
594.401536
584.6671171
567.3655904
304.9629262
306.5880899
308.4525329
311.7459207
314.8929336
320.2540677
324.4418751
330.9347896
336.5161279
343.2991229
351.2317581
358.7316889
367.9783043
377.06232
385.3299229
393.9425226
401.0267941
408.2110282
415.4518859
422.1864231
428.5873459
432.9842347
438.5817119
442.9433843
447.0172317
452.4601538
457.3415118
461.6187644
465.9051638
470.1750351
474.1428968
477.9816809
481.8518505
487.0052293
490.5601766
496.0419409
502.0303644
505.4131487
508.8464962
512.2643476
518.5926331
521.3401819
525.169784
531.2784127
533.9360131
538.0539503
541.6694299
543.8984602
548.3626855
554.3003476
557.2142774
560.078146
564.0366918
567.6403353
569.8846621
572.7325679
576.1955725
577.3293649
581.2173757
584.0547124
585.5231986
589.5265223
592.2561347
594.5008515
598.7607875
600.4484713
602.171
603.9359727
605.07457
606.5836807
609.4423524
612.6186109
613.472453
613.4487063
614.7164722
615.8497087
615.8990017
616.9811586
617.3758562
616.7377658
616.9749048
617.9997679
618.1958133
617.4960973
616.7076164
618.6463247
616.7547613
612.0527802
609.0538767
605.467182
602.3634265
597.3667175
590.2755049
580.2788092
567.6313296
303.8088803
305.1639134
306.6074937
308.5426229
310.7852971
313.4944767
317.814799
321.5858956
326.7822272
331.5884097
337.3831484
344.2298228
352.1824094
359.3273021
368.2384646
374.6742032
381.8014836
389.7178338
396.614833
403.7993162
409.385433
416.9916666
421.2355496
427.4551368
431.8348209
435.6528817
440.8963649
443.5659475
448.4025284
453.0461932
456.9202543
461.5450671
464.70447
469.5590803
472.1937346
476.8165159
482.6782946
486.1106597
488.8740568
492.0554772
498.1719899
501.7819154
505.7754949
509.8804
514.2293457
518.2410981
521.2935422
525.3866585
528.5059066
531.7591425
538.3099485
540.6700402
543.3139121
547.3096053
552.344637
554.9541587
557.2965128
561.2666204
564.1220961
567.2015978
571.4400185
572.1289808
575.117369
577.0450795
580.2309011
581.8581299
585.9618607
589.1830476
590.9544853
591.8207562
593.3338386
596.1135854
599.5424374
600.0477756
602.0382022
602.1852472
603.5849655
604.5822353
605.261741
606.3599017
608.9502043
610.1178368
608.8054673
607.7133177
607.6334842
606.9175681
607.0779716
605.558219
604.2550285
598.3242882
596.031625
590.4175698
583.7424449
575.9622526
564.7259263
303.2184965
304.3342849
304.883301
306.04536
308.8793409
310.5749171
312.6186943
315.3365123
318.8310566
322.2876616
326.9997911
332.1251248
338.7319141
345.1151298
353.1985031
359.031675
366.6609049
373.5268043
380.463244
387.7439616
392.3144606
400.2170173
406.2909845
411.8939521
417.4920059
421.766975
427.1864821
430.3241888
433.972513
438.6285577
442.0722639
446.0281533
450.0527454
453.6371523
456.5515357
460.2142072
464.5184654
469.0994415
472.2018634
475.4038842
478.5935939
481.4888166
486.826884
490.3748397
495.2798726
499.0503884
501.2276206
504.825691
508.6927747
512.2567589
516.4072254
520.1860079
524.8443404
527.5798608
532.0598096
534.926901
539.0859658
542.4069262
545.1951788
546.552188
551.3782551
553.8720455
557.4726178
559.6822189
564.2674617
565.9029623
568.0927071
570.5819497
574.2473405
575.4952571
579.1024254
579.7781448
583.2679747
583.677518
586.3576984
586.3299179
588.6800738
591.5421421
594.6188493
593.4064679
595.4436504
595.4799189
597.2270127
595.7210706
595.5254449
598.1407707
597.3187757
598.6850062
596.9258279
591.3418605
588.4389235
584.3758349
579.3638434
573.126145
562.0645501
302.9412955
302.9943509
303.1691612
305.400385
306.6492748
307.5620363
309.7371961
311.7298427
314.449186
317.7927849
321.0285056
324.7281375
328.6807275
334.1920655
338.724699
345.4298217
350.9390057
357.4822195
364.7878551
372.0092994
377.0587444
384.8388374
390.6715031
395.3208022
401.2616696
407.4877899
412.1907317
415.7754036
420.01864
423.9116479
428.0361152
432.7199069
437.039035
440.1131096
442.7534601
445.3286124
449.4461915
452.4622924
456.2588192
459.9954206
463.8713234
467.3678156
469.822954
474.3959416
477.6162108
480.9972425
484.4662471
487.6365225
491.4092662
495.7349475
497.9230247
501.3611685
504.9852376
507.7469814
511.6109099
515.4929763
520.3749718
522.5205683
526.245088
529.3730607
530.8280569
535.1288067
538.6430994
543.0775853
545.8363396
548.3606707
551.3933698
552.4752281
555.7036693
557.5083835
561.9898021
565.3308201
566.6113288
567.5199358
572.4800093
573.623343
575.9246467
577.7211745
579.7556802
582.319601
581.7039123
583.3260469
584.237731
584.5590276
586.5609228
585.8138249
586.7055265
586.5066299
583.42203
581.0053655
578.1046897
575.3561939
572.1646274
565.0896304
556.3362838
301.8086444
302.257124
302.6858611
303.539467
303.8133113
306.2018386
308.013845
308.9664439
310.2026992
312.5800198
314.1474212
318.0529498
320.741812
324.8839229
328.3619517
333.1505628
338.5618779
343.4768931
349.5878417
355.8854009
362.0177276
367.6805224
374.2550783
380.3924111
387.4625299
392.7668936
398.0428718
403.451618
408.2395158
411.5841962
414.6658261
419.3720358
423.1943128
426.8530253
431.2526012
433.0728051
435.860031
439.7098876
443.8330887
446.8985358
449.0839147
452.6388451
455.0197711
458.5574835
462.7363676
465.0168394
468.7358409
471.9822608
474.3098172
477.1331941
480.4269441
484.179382
487.7314407
491.9822755
494.184003
497.5256113
500.855744
504.7415702
508.1268938
511.7992796
514.5570336
517.9032888
522.8556793
524.5814746
526.4686957
529.7823963
531.9452926
535.4292777
539.9846987
541.603985
546.1445705
548.4690522
551.6470831
552.9117109
555.3098235
558.6475432
561.1360357
561.8100999
564.4241775
565.7418927
568.3104092
571.5090255
571.7634284
572.1139053
572.5043808
574.2384194
574.5189787
574.0203969
572.3285005
571.4926559
569.2332145
567.3864049
565.0533295
556.5260226
550.1032714
300.6148238
300.9010269
301.3289369
301.8105243
302.7529078
303.0655467
304.5242234
305.7081088
307.1178725
309.2042534
311.1209966
312.9242808
315.5773051
318.007139
320.9569299
324.8432372
328.9610442
333.4350146
337.7762552
343.9077289
349.4710822
354.5526175
360.7462498
365.7475691
371.2606517
377.7707463
383.99157
389.0341631
393.3943633
398.0963218
402.0754612
406.210768
410.3040287
414.3713216
418.4268617
421.1414449
424.1390393
427.3176192
430.3109155
433.8473593
436.3701183
439.0947933
442.4545814
444.7015417
447.9239271
450.5261267
453.9197235
456.0993521
460.2757849
463.143563
466.9002229
469.8974876
472.3330998
476.5276374
478.2503992
481.944022
485.4534098
488.2538262
491.5250891
495.4889747
497.7859707
499.6092881
503.6079489
506.7878957
509.8591079
511.9833387
516.3347971
518.5578698
520.4407864
525.021855
529.0836647
530.179433
534.6306318
537.196881
539.661692
541.1558171
543.1776535
546.4192662
549.5667387
550.3504567
553.3989044
553.4396476
556.4410941
557.3568183
559.1012912
558.7734042
560.6056801
560.4751006
559.6559813
559.3733566
558.9348225
555.698997
553.1887463
548.0142956
541.6912567
301.4801234
300.9908114
301.4446684
302.0880832
302.5189485
302.6315094
303.2985488
304.0134302
304.9705884
306.2540834
307.385784
308.6849471
310.8447275
312.6221913
315.4708688
317.5496577
320.9807657
324.0036231
327.7868266
331.8279565
336.7029955
341.1847955
346.2287239
351.8297978
356.8550191
362.5711066
368.5513287
374.6965995
380.4257537
385.322582
390.5726814
394.8541678
398.5477408
402.3363997
406.9880296
411.6486976
414.3274668
415.7814461
419.2928193
422.3405222
426.4291439
429.0824176
430.7598034
434.1421016
436.6971404
439.3090617
441.2581459
443.9109577
447.0449523
449.108581
451.9918321
454.6911155
458.2998328
460.3270489
463.7890523
466.5518315
469.8149088
473.1137254
475.624899
479.6531478
482.855283
485.6569396
488.2555008
490.942715
494.1745964
496.5324747
500.9512677
502.0040651
505.3172147
508.3910439
512.7175423
515.1348746
516.9299202
520.4376479
522.9080518
524.9635682
528.6312358
530.3760115
531.4303386
534.4949215
537.5483935
540.802373
542.5893745
543.6159431
543.9309641
545.0301224
546.2521417
547.04693
547.6999166
547.0566932
545.3924413
543.728581
540.7001532
537.2519203
533.1849225
300.7349021
300.5998318
301.0692198
300.5136215
300.5840463
301.2524091
301.8876974
302.2098811
303.096944
303.3948328
304.2366584
305.4252502
306.8939527
308.4615555
311.0327662
312.7895798
315.6088773
318.5181692
321.6077248
324.3729696
327.1481915
330.8750618
335.3928338
339.3880829
345.2497965
350.2002323
355.6190852
360.5696539
366.4921655
372.8116979
377.08575
381.9231041
386.5205232
390.5472132
394.970376
398.7810681
403.1545677
406.2459258
409.2750331
412.2684637
414.846376
417.9401441
420.1263407
422.0437188
426.2476808
428.5767846
430.0684035
433.9495429
435.3298412
439.127848
440.5489365
443.7651924
445.2934351
448.7324034
451.6817412
453.6236208
456.2878255
458.4911103
462.1214131
464.8832305
467.7904709
470.4078457
472.9184489
475.434832
477.6302766
481.208595
483.5812073
486.6765857
489.8420165
492.4595717
495.1057644
499.1457241
502.4893062
506.3641593
507.7729421
509.9645258
513.2409451
515.6383143
516.7462941
519.3194823
523.123906
523.9570519
527.2318656
528.9258663
529.6675451
530.4743397
531.8656784
532.9231274
533.2956769
533.0288465
532.8154081
532.4655111
529.5913102
527.9268802
524.0058985
300.1032735
300.3502231
300.4412184
301.1291828
300.9196295
300.8807546
301.3367113
302.1821316
301.9982302
302.1568455
303.9872575
304.2214741
305.0652226
306.6589006
308.0034221
309.5677841
310.7614259
312.1993875
314.7504353
317.1215064
319.9477823
323.2977696
326.2254477
330.3675949
333.9835393
338.374701
342.9203602
348.796656
353.8320557
358.2846796
364.2029154
369.1063061
374.3375292
378.4307919
383.7434483
387.656278
392.1795819
395.4161831
399.2323028
401.9833366
405.1760345
408.0155403
411.686205
413.5375601
414.9003846
418.1049495
420.4556633
422.539278
424.9490565
427.2898239
429.7100779
432.3124527
434.2422794
436.9668163
438.8479889
441.4690094
443.7569782
445.957958
448.6957943
451.4667466
452.8398951
457.0265831
458.6664365
461.9472282
464.1761522
467.0024657
470.4631815
473.0521701
475.444816
477.2485705
481.4264297
484.8026138
486.7792283
490.3986316
491.9807113
494.454298
496.7975103
500.366204
502.6324123
505.6688895
507.5561019
509.2239728
512.200588
515.4166602
516.7168517
518.361007
520.7892952
522.0551525
521.8740818
521.9433991
522.5965058
521.6222279
520.1234353
517.4275726
514.4101121
300.0725265
300.3159305
300.5113411
300.4821063
300.9966377
300.2449957
300.7245999
300.6489043
301.4882763
301.7527842
302.7313835
302.747082
303.9334612
304.6250264
304.8974697
306.0288423
307.1951634
309.179638
310.9980605
312.7922334
314.8877418
317.0130715
320.5969794
322.3761475
325.9855285
329.413786
333.8521591
337.9687104
342.371703
346.9781685
350.8967962
356.0672063
361.3568105
366.3090748
370.7125182
376.012955
380.453284
384.4680478
388.7246885
391.8335175
395.6135858
398.5029485
401.4095416
404.8077226
407.7088115
410.0636926
411.7936117
414.6013206
416.6906211
418.9779429
420.3481032
422.767067
425.0508453
426.891934
428.7243736
431.0775069
433.1655933
434.5698548
437.6486388
439.8400345
442.1325195
444.2051641
447.8387111
450.5656605
451.8074643
454.4507067
457.2777649
460.6820526
462.0847755
464.6657396
467.4156682
470.4094807
473.0124582
475.8658112
477.5913039
480.1711469
482.9157182
484.9030422
488.7067788
490.6653294
493.1659577
495.398912
497.2951026
501.5294029
502.8374015
503.1820249
505.8829036
506.5809611
508.1691278
508.2858283
509.4490624
509.6348344
509.7388828
506.6995821
505.3176755
300.2191539
299.706223
300.1601755
300.6248922
300.9129451
300.7797984
301.2962814
301.1987883
301.6341787
301.4898622
301.4551431
302.0944584
302.8858582
303.2279104
303.9298143
305.1258064
305.9787396
306.1365369
307.6045065
309.1501152
311.2794749
312.609024
314.7749027
317.1997176
319.9249831
322.1895188
325.0523447
327.8963257
332.2056071
336.8451676
341.6522104
346.0573113
349.7485278
353.5764847
358.9041518
363.3059798
367.7820693
372.2711346
376.894242
380.9870398
385.045649
388.7336607
391.9816566
395.9286052
398.4325407
400.8636529
403.5585199
405.8854117
408.1813722
410.2210748
412.4857166
414.4783884
416.1114567
418.2099368
419.9798932
421.1339613
423.3455333
425.4032097
427.5954243
429.464423
431.6133245
433.7133558
436.4588464
438.4367038
441.4306196
443.990016
445.8329142
447.4096967
449.3507437
451.3290203
453.4075736
456.7131554
459.3443774
461.6765464
464.8050792
466.8670545
469.0749038
471.0032624
473.7896417
477.0201174
477.9077813
481.3637354
484.127974
484.6048274
489.1954775
490.9098846
491.5689053
493.5129164
493.8334194
495.2486576
495.1168571
495.8401844
496.9146861
496.764017
495.142218
300.6794059
300.3174768
300.910516
300.8679386
300.7712439
300.8715863
301.0907413
300.9633168
300.8438789
300.8866335
301.6743958
301.7226322
302.004157
302.0736622
302.5599827
303.1980308
303.1155361
304.4358164
305.4760218
305.4986575
306.7885845
308.1354921
310.0088696
312.0056837
313.5085598
316.1502028
318.3437631
321.0575921
323.862648
326.7874981
331.0086782
334.9415206
339.3969969
344.136768
347.6396801
352.6518942
357.0302556
361.767079
366.2808785
370.4876298
374.2786328
377.9613361
381.5276751
385.4292507
389.0973496
392.521283
395.0874892
397.2651952
399.6582632
402.2683115
404.1216469
406.5354102
408.5821244
410.9191815
412.4662292
414.057878
415.8281776
417.5019195
420.4411696
422.1028022
423.6246542
424.5976745