/*--------------------------------*- C++ -*----------------------------------*\
| =========                 |                                                 |
| \\      /  F ield         | OpenFOAM: The Open Source CFD Toolbox           |
|  \\    /   O peration     | Version:  v1706                                 |
|   \\  /    A nd           | Web:      www.OpenFOAM.com                      |
|    \\/     M anipulation  |                                                 |
\*---------------------------------------------------------------------------*/
FoamFile
{
    version     2.0;
    format      ascii;
    class       volScalarField;
    location    "0.04";
    object      p_N2cold;
}
// * * * * * * * * * * * * * * * * * * * * * * * * * * * * * * * * * * * * * //

dimensions      [1 -1 -2 0 0 0 0];


internalField   nonuniform List<scalar> 
6000
(
0.4167810716
0.4243522949
0.4452052353
0.512332421
0.8091500825
0.4160666877
0.4277631404
0.4583653742
0.5429512003
0.7431939816
0.4177180003
0.4299227298
0.4607497348
0.526495863
0.6367488833
0.4171958235
0.4269373769
0.4508770546
0.5004120117
0.5598757804
0.4189325995
0.4294507569
0.446267085
0.4758390986
0.514349116
0.4188492001
0.4247805708
0.437796238
0.4582427115
0.4819795262
0.4173034223
0.4245589146
0.4324863329
0.4448591072
0.4632862378
0.4162006863
0.4200301687
0.42726921
0.435679524
0.4498289099
0.416191964
0.417699333
0.4216372555
0.4323865065
0.4380320043
0.4155934418
0.4187112329
0.4206454543
0.4255703385
0.4290207793
0.4156543749
0.4175840362
0.4191208543
0.4227041314
0.4239002172
0.4156687594
0.4159661121
0.4192238722
0.4213916774
0.4240918424
0.4143983077
0.4149790005
0.4164011235
0.4184661838
0.4223606658
0.4136526889
0.415779817
0.4176200271
0.4181539467
0.4186606168
0.415276043
0.4148439095
0.4149706253
0.4172459714
0.4172964828
0.4133630425
0.4143848317
0.4154352281
0.4145908934
0.4151998091
0.4154629217
0.4144171612
0.4167053256
0.4156483336
0.4157838913
0.4140870006
0.414954852
0.4141048199
0.4138712749
0.4135316215
0.4150917694
0.413801
0.4126716298
0.4148537398
0.4154982734
0.4150312938
0.4156890079
0.4159504418
0.4175900827
0.4160769162
0.4139415928
0.4138689168
0.4142909905
0.4121927029
0.4126774217
0.4158086725
0.4154969605
0.4142700116
0.4155904577
0.4157252594
0.4125430077
0.412175622
0.4127985441
0.4138902175
0.4150508538
0.4134508861
0.4145994234
0.4138468349
0.4135309876
0.4137325513
0.4132754206
0.4137031344
0.414414573
0.4151780801
0.4147799349
0.4165699169
0.4156791224
0.4153148229
0.415444698
0.4149384083
0.4140924269
0.4139073032
0.4141556615
0.4137958073
0.4134821034
0.4139649327
0.4146099362
0.4128894133
0.4134710245
0.4138948381
0.4164029141
0.4144473074
0.415392489
0.4143753039
0.4147288641
0.4147292733
0.414735396
0.4149552832
0.4145012005
0.4149679363
0.4146957218
0.4147647184
0.4142346523
0.4136521403
0.4146055345
0.4149742318
0.4155818802
0.4159597594
0.4155837434
0.4139521226
0.414802744
0.4150108926
0.4134841281
0.4151371722
0.415139954
0.4142240269
0.412770376
0.4139737631
0.4120164239
0.413013307
0.4154858111
0.4155142922
0.4144493924
0.4152666006
0.4155240149
0.413878184
0.4143511449
0.4142495379
0.4149857216
0.4144920126
0.4133015116
0.4143718279
0.4148497002
0.4148379198
0.4144957272
0.4142811939
0.4131931649
0.4137407217
0.4123128721
0.412235358
0.4138013858
0.4140170372
0.4124646766
0.4117846844
0.411730732
0.4137881683
0.4135059229
0.4151947343
0.4161379057
0.4155951072
0.4141058941
0.4148753844
0.4139235015
0.4142446814
0.4148626453
0.4129092808
0.4147058421
0.413313237
0.4138919615
0.4134762622
0.4136608388
0.4127495849
0.413210782
0.4133854912
0.4139201474
0.4135239417
0.4130956335
0.4131251243
0.4125461055
0.4132742298
0.4150535343
0.4148786637
0.4143054226
0.4156099109
0.4142048468
0.4135598454
0.4124141544
0.4133799399
0.4131630839
0.4134108334
0.4137193094
0.413600838
0.4135304333
0.4129213836
0.4140259469
0.4150223596
0.4145938474
0.4146452517
0.414102484
0.4148708582
0.4139439947
0.4155164355
0.4158441516
0.4152270426
0.4154430837
0.4136807264
0.4139058319
0.4132704918
0.4128962698
0.4139557533
0.4147393075
0.4136903925
0.4141162553
0.4149581626
0.4138297719
0.4148465226
0.4145514988
0.4148723386
0.4144458114
0.4153839754
0.414183567
0.4159050552
0.4149176905
0.4134901685
0.4142037823
0.4151534355
0.4142433195
0.4151110452
0.4149801534
0.4152477339
0.4143351433
0.4141756695
0.4147554032
0.4142180816
0.4145085875
0.4146127872
0.4140998896
0.4133924859
0.413683286
0.4133332503
0.4136648572
0.4132844045
0.4133561492
0.4130881793
0.4121464033
0.4139715493
0.4133800514
0.413503167
0.4146898804
0.4155875941
0.4145834277
0.4156236837
0.4167729492
0.4166746818
0.4145698333
0.4141587761
0.4132571344
0.4129149067
0.4127832653
0.4131432934
1.485479273
1.613637031
1.64492164
1.623546524
1.601078552
1.577216505
1.539278021
1.515077729
1.508611629
1.464085463
1.434091242
1.407373335
1.36449544
1.350225688
1.329360782
1.305934101
1.291676455
1.267386102
1.246865346
1.228364054
1.208146413
1.191912701
1.176536741
1.161914074
1.141370041
1.125639589
1.107783276
1.107078234
1.103911217
1.084891563
1.070437424
1.05035036
1.051850107
1.04462546
1.031172918
1.025337856
1.010463616
1.004403032
0.9916023329
0.9851131935
0.9744370511
0.9654806978
0.969751726
0.9572599555
0.9491748275
0.9463924322
0.943494048
0.9311763019
0.9276357976
0.9202963993
0.9155297164
0.9101287798
0.9047044901
0.8963851687
0.8939743366
0.8873150507
0.8850480953
0.882481502
0.8747221266
0.8678166569
0.8621049649
0.8569816993
0.8537075564
0.8494604953
0.8385441619
0.8412173814
0.8381389641
0.8292022716
0.828613604
0.8292757724
0.8247478937
0.8179334552
0.8106674395
0.8069272736
0.8068151255
0.7962069934
0.7950173441
0.7871832709
0.7831636604
0.7780300992
0.7734458031
0.7711289631
0.7620766848
0.7589871687
0.7450542278
0.7385778152
0.7302862343
0.7167996461
0.702860457
0.6867866004
0.6628618489
0.6344404959
0.6007966659
0.5577723616
0.4737863178
1.011268795
1.225955869
1.344090186
1.411351175
1.443892601
1.459389906
1.457234467
1.455580231
1.448848665
1.421161079
1.416091165
1.394685519
1.382737717
1.368782316
1.360974586
1.334068592
1.315953994
1.286675957
1.269678097
1.263198205
1.242617084
1.222673576
1.198017378
1.185709604
1.178187144
1.153561722
1.142622014
1.124335325
1.117103115
1.103085669
1.09729253
1.087562613
1.086930772
1.074846009
1.051899728
1.046953279
1.037012769
1.03132075
1.016447821
1.006635765
0.9973587184
0.9927677677
0.9813406192
0.9762084123
0.968920227
0.9652539549
0.9611288017
0.9492830823
0.9403729223
0.9338734057
0.9325312657
0.9128412035
0.9218833389
0.914106623
0.9103546592
0.9002830738
0.8967201041
0.8929473135
0.8881047955
0.8809857148
0.8711621036
0.8719151164
0.8704340381
0.8529863465
0.8600013461
0.85866963
0.8483418324
0.8414534757
0.8443852036
0.8357903353
0.8338462687
0.8263170254
0.8236328659
0.8204207501
0.8169130847
0.8098055505
0.8054913967
0.7959957991
0.7950191096
0.7864919835
0.7769050145
0.7765820187
0.7721170589
0.7639242011
0.7522718923
0.7458293775
0.738974721
0.7233406392
0.7074095376
0.6870755837
0.6644282612
0.6324532292
0.5994353789
0.5491783468
0.4321459089
0.7767484022
0.9214034482
1.065679703
1.153540265
1.227045262
1.272006478
1.297115894
1.319870114
1.328696949
1.334398688
1.339262272
1.330547969
1.330514935
1.320464041
1.31727922
1.300585974
1.283227209
1.270730749
1.258339901
1.250436992
1.234557376
1.213620094
1.199334731
1.185800868
1.174483698
1.16416639
1.14469831
1.132000861
1.12125551
1.115426866
1.107614912
1.092832652
1.086298593
1.072417432
1.062049205
1.047607461
1.04315789
1.037335911
1.023569925
1.018638277
1.006361576
1.000525826
0.9918101491
0.9842538862
0.975594684
0.9736040427
0.9729955646
0.9597699489
0.9503378626
0.9454826135
0.940997206
0.9385848033
0.9289401707
0.9207251378
0.9157281569
0.9111192947
0.8968111319
0.8994805944
0.894526181
0.8907730075
0.8800082167
0.8801729525
0.8722671163
0.8678838585
0.8611011372
0.8598063026
0.8587609822
0.8536749385
0.8469899026
0.8418276071
0.8373087906
0.8336252503
0.8320574082
0.829406322
0.821412151
0.8173049858
0.8124432943
0.8053642082
0.7994409429
0.7935388398
0.7899060596
0.7843940656
0.7757556508
0.7697154561
0.7658238293
0.7527564862
0.7383318568
0.725993063
0.7101509718
0.6898058086
0.6639271624
0.6358797362
0.593525258
0.5377440854
0.4333283538
0.6470006438
0.746541589
0.8550584202
0.9441034135
1.028369202
1.091562229
1.13717088
1.170807937
1.210188308
1.226581148
1.236561119
1.240320116
1.252914979
1.248019985
1.24538833
1.24594529
1.23190755
1.225264838
1.217906503
1.217629967
1.204134407
1.189996396
1.181485519
1.167418989
1.155161202
1.147860503
1.136836953
1.126887462
1.120992453
1.110368572
1.106463911
1.090951906
1.081595372
1.076365079
1.064941693
1.056864411
1.040619311
1.03435744
1.021607762
1.015841418
1.007062199
1.004171534
0.9978981328
0.9931060223
0.9893945901
0.983930989
0.9640938213
0.9621572086
0.9563998623
0.9534522992
0.9434131995
0.9414679409
0.9343686117
0.9321793396
0.9215042656
0.9187571615
0.9099335367
0.9028482919
0.8979679164
0.8871023049
0.882429297
0.8800237115
0.8818781766
0.8711291805
0.8683468196
0.8634945503
0.8607404568
0.8528657201
0.8557454409
0.8480257427
0.8488267542
0.8395412824
0.8413910642
0.8345197549
0.8268545835
0.8131624078
0.817121519
0.8085044007
0.8023541283
0.7961714057
0.7924567375
0.7851564837
0.7784033507
0.7682324719
0.7624246134
0.759755838
0.7466575022
0.724752555
0.7077497994
0.6874695978
0.6656566254
0.6371462012
0.5924880552
0.5365230766
0.4397409308
0.5702627103
0.6340306095
0.7141431475
0.7911970631
0.8643578064
0.9257278532
0.981081959
1.031958371
1.077833546
1.111340708
1.130663186
1.158478527
1.171605894
1.168895466
1.173442578
1.178217677
1.188787013
1.184639979
1.179354439
1.171520072
1.161264227
1.164115306
1.151665207
1.145532024
1.138858297
1.128351736
1.122986965
1.104413043
1.104686599
1.096382974
1.093066915
1.08444179
1.069360902
1.071238233
1.060801732
1.047540847
1.02825526
1.033690438
1.025399932
1.019176589
1.006278264
0.9966002572
1.001765521
0.9938441464
0.9829625476
0.9805942304
0.9744535875
0.9602498086
0.949122536
0.9449842753
0.9467148331
0.9374066598
0.9382033675
0.9249090738
0.9248211945
0.916330462
0.905238338
0.9003642915
0.9008189583
0.8946020961
0.8856944893
0.8793050857
0.8853827008
0.8687445955
0.866035861
0.8596344857
0.860923607
0.8596296983
0.8552080928
0.8497958345
0.8435520971
0.838785373
0.8431012042
0.8346885361
0.8277553517
0.8196229018
0.8226010673
0.8092747949
0.8017015916
0.7931849228
0.7958873908
0.7885799879
0.7771491333
0.7742596216
0.7671363833
0.7516469555
0.7404063651
0.7283532732
0.711237405
0.6920901119
0.6681626995
0.637542462
0.5952516672
0.5396170299
0.4538618367
0.5186456317
0.5683887396
0.6195724145
0.6741886959
0.7335125867
0.793112206
0.8483000314
0.9028492875
0.9510359068
0.996561497
1.031421563
1.064474721
1.086474422
1.095420033
1.111559742
1.118705418
1.12701522
1.133420386
1.13356857
1.125898136
1.127321286
1.118460784
1.115888818
1.115067484
1.108631873
1.098525305
1.101527359
1.094429869
1.090519365
1.081080669
1.075562991
1.073267375
1.062753704
1.047370809
1.046679565
1.03617642
1.03190636
1.022828184
1.017183347
1.01825318
1.00823954
0.9972443484
0.9952002356
0.9796542732
0.9750455594
0.9708016546
0.9697189468
0.9541594787
0.9491366764
0.9455802345
0.9426502799
0.9397041159
0.9288364208
0.9254736696
0.9270411302
0.9157146414
0.9084447281
0.8985476707
0.8907699177
0.883536911
0.8850790049
0.8823969147
0.8823407011
0.8663337992
0.8647159448
0.8623446771
0.8594578539
0.8593856385
0.8537764284
0.8478048372
0.8455987567
0.8367538919
0.8354294968
0.8279592983
0.8276298898
0.8241559336
0.8192849844
0.8132815593
0.8039204144
0.8007496838
0.7984360522
0.7887970543
0.7796615668
0.7670489611
0.7637229107
0.7556130973
0.7416958315
0.7250477071
0.711799491
0.692729175
0.6701014448
0.642020664
0.6037917578
0.5452033528
0.4673491667
0.4850643303
0.5167874857
0.5541304462
0.5964567882
0.6395438135
0.6878134965
0.7454138947
0.7951782419
0.841424513
0.8874622835
0.9286778335
0.9605639661
0.9971165584
1.018077222
1.037907638
1.054745346
1.072070321
1.079411758
1.085955533
1.089447759
1.088596677
1.093641689
1.087439422
1.088276578
1.082660403
1.083299488
1.084242332
1.071762133
1.072189315
1.062547295
1.057302832
1.059931436
1.047115685
1.038746813
1.042028821
1.029853675
1.023563359
1.011044944
1.010654238
1.007418402
0.9968458203
0.9860324357
0.9826018754
0.9768249399
0.972788177
0.966055205
0.9567498762
0.9539895212
0.948257808
0.9403327757
0.9381511013
0.9280250471
0.9244865585
0.9208004707
0.9204518328
0.9169073441
0.9064476839
0.893799214
0.8943210057
0.8910591211
0.8912536686
0.8837995569
0.8784750302
0.8706352424
0.8638005743
0.8613622504
0.8628654955
0.8607242923
0.8566893063
0.8495041165
0.8464461349
0.8427076217
0.8373749814
0.8305122542
0.8341538845
0.8245459669
0.8213242584
0.8156238477
0.8074720121
0.7994125464
0.794611328
0.7854290074
0.7781548035
0.7710261293
0.7655469031
0.7497514313
0.743185953
0.7236158096
0.7111527408
0.6942681272
0.6685841334
0.6388208141
0.6091908409
0.5508337236
0.4846928298
0.4624928634
0.4826144021
0.5073055305
0.5449819226
0.5766190428
0.6159411831
0.6538084408
0.6972805416
0.7437592017
0.7907682334
0.8317841957
0.8708513255
0.9018578301
0.9388287413
0.9667329802
0.982780793
1.006277422
1.024418329
1.03633428
1.04647532
1.05028999
1.054583061
1.055309676
1.056645092
1.05818343
1.055131486
1.058315742
1.055394164
1.052454741
1.047694057
1.041413618
1.03349246
1.033942845
1.031266806
1.028251406
1.017424553
1.012264961
1.009915112
0.9966311973
0.9919930237
0.9889530459
0.9836784806
0.9742859087
0.9643244201
0.9656654781
0.9583322445
0.9527635116
0.9433876861
0.9459219022
0.9399425609
0.9337065692
0.9301836748
0.9214249446
0.9180447183
0.9179318091
0.9105234612
0.9012565587
0.8979172672
0.892348329
0.889589756
0.8871052311
0.8773202107
0.8755965901
0.8679316348
0.863430886
0.8573638456
0.8610345516
0.8557066596
0.853282662
0.8517629884
0.8558285852
0.8470458266
0.8442891504
0.8305356454
0.8297299849
0.8215806398
0.8239575493
0.8161195582
0.8099780872
0.8035138761
0.7949526688
0.7870149379
0.7787887083
0.775739676
0.76704269
0.7560596857
0.7398825512
0.7260421245
0.7135586959
0.6954657748
0.6741593351
0.6451445092
0.6129970312
0.5629071536
0.4987355788
0.4508720287
0.4627973824
0.4798693503
0.5011269236
0.5259371959
0.5551836262
0.5879984062
0.6217485974
0.6614852006
0.6966542887
0.7369832425
0.7781688378
0.8144558958
0.8542480522
0.8847349275
0.9170122344
0.9397202306
0.9604470959
0.980779753
1.000024368
1.008570805
1.015483405
1.019184259
1.031524891
1.034918735
1.036449286
1.029123129
1.028396292
1.034050824
1.027401623
1.022212754
1.018340015
1.018326443
1.004776913
1.009104821
1.006486241
0.9999826665
0.9954812769
0.9912779382
0.9799499845
0.9789744554
0.973331309
0.9656042434
0.9611830912
0.9589429059
0.9506702971
0.9491497625
0.9385778441
0.9374649576
0.9405277614
0.933368615
0.9190540545
0.911706868
0.912840025
0.9103391432
0.9078585877
0.9039040079
0.8980132438
0.8951024027
0.8844347679
0.883034629
0.8708260439
0.8751196926
0.868254856
0.8648596515
0.8638630423
0.8580519916
0.852532801
0.8502507751
0.8570890844
0.851512055
0.8397625886
0.8407399417
0.8352702051
0.8259757447
0.8223189792
0.8225885814
0.8104492135
0.8162585896
0.8040691014
0.7971578557
0.791793343
0.7817727628
0.768190984
0.7666705779
0.7616532392
0.7457946566
0.7311347374
0.7187324212
0.6994600473
0.6789771209
0.6537384956
0.6190837658
0.5737664315
0.5132327681
0.4338558141
0.4465096987
0.4591678365
0.472441869
0.4901973273
0.5100436344
0.5376419675
0.5657221854
0.5939319678
0.6257827788
0.6625629617
0.6952161222
0.7341892891
0.7749978265
0.8078975718
0.8419141329
0.8685238462
0.9011810564
0.9214394591
0.9385846053
0.9569811372
0.9735865315
0.9866817324
0.9938403053
1.002495498
1.011343643
1.012780761
1.013183961
1.008624258
1.008408283
1.008877192
1.006258582
1.005798219
1.001007832
0.9964897549
0.9910085542
0.9951869676
0.9836861283
0.9799483207
0.9787593427
0.9771796314
0.9652193229
0.963060063
0.9606427319
0.9497453399
0.945771652
0.9429549121
0.9343950153
0.9350986103
0.9368709826
0.9245882872
0.9159347796
0.9106543866
0.9114343387
0.9059546
0.8996455022
0.900391904
0.8921568676
0.8939730728
0.8879684719
0.8833467542
0.8729531996
0.8661799613
0.8636769075
0.8611243212
0.8620397144
0.8560204316
0.8517579976
0.8509388159
0.8540259783
0.8452112118
0.837475819
0.839453136
0.8307680233
0.8230869859
0.8210772715
0.8119328375
0.8143662369
0.8099068264
0.8005985194
0.7983600056
0.7877219307
0.7756357791
0.7740949886
0.7675385047
0.7605829853
0.7504537028
0.7335217841
0.7159367811
0.7007483995
0.6859941624
0.6605616465
0.6253386774
0.583794592
0.5329378336
0.4299116002
0.4366526166
0.4445315045
0.4537887586
0.4691936867
0.4835523092
0.5010742254
0.5207080787
0.5453943785
0.5686384084
0.5982394995
0.6310665817
0.6642321012
0.6973215894
0.7328307485
0.7609228351
0.7928878645
0.822931904
0.8559295509
0.8809196907
0.9049314013
0.9178821247
0.9415324154
0.9564450602
0.9689372787
0.9768223715
0.9812468817
0.9809348848
0.9892434509
0.9896992831
0.9920286653
0.9955455495
0.9924622276
0.9925765053
0.9886821378
0.9911943988
0.9892736443
0.9796418728
0.9767482836
0.9697164764
0.9689239286
0.9620440274
0.9510714599
0.9514091495
0.9437323465
0.9394706145
0.9373081273
0.9307158436
0.9244798486
0.9279758868
0.9179035415
0.9162487129
0.9117414727
0.9063657072
0.8952230592
0.8969973865
0.898761658
0.8905617349
0.8893800817
0.8823958192
0.8763529357
0.874784078
0.8690319374
0.8590652122
0.8571188013
0.857742712
0.8578469048
0.8496153946
0.8498480874
0.8432220864
0.8451041475
0.8382086493
0.8349402553
0.8323720579
0.8294379675
0.8239915231
0.8143064175
0.8128551467
0.806435061
0.8049807293
0.7935219822
0.7897684187
0.7805653008
0.7739780083
0.7667307252
0.7603208414
0.750894251
0.7330134268
0.7223874805
0.705614595
0.6857626919
0.6642824052
0.6327167833
0.594134398
0.5458746164
0.4253920822
0.4304870177
0.4342071613
0.4419175713
0.4505825751
0.4644675014
0.4752430487
0.4909367732
0.5076586433
0.5249220819
0.5488324264
0.5726314327
0.6012674605
0.6336744991
0.6627549799
0.6935533871
0.7269668796
0.7541721253
0.7849387937
0.8201853141
0.8482866991
0.871968759
0.8935974655
0.9099641554
0.9218102342
0.9386192626
0.9519237128
0.9597550154
0.9655632619
0.9740172182
0.9768280646
0.9799735209
0.9784457801
0.9814919091
0.9785735072
0.978830641
0.9791235692
0.9726085392
0.9669665801
0.9606544901
0.9635258975
0.9554372863
0.9487948195
0.9517657933
0.9398540551
0.9356829132
0.9321332369
0.9259208822
0.92168556
0.9248682674
0.9162194235
0.9119454397
0.9094922223
0.9054340151
0.8989967983
0.8982832209
0.8957002827
0.8887422773
0.8849599462
0.8837459713
0.8777571116
0.8707422063
0.8652533917
0.8572051572
0.8580105528
0.8586173313
0.8554185447
0.8531262081
0.8485408719
0.8398860514
0.8393457537
0.8406024483
0.8400010116
0.8334288003
0.8309076878
0.822422111
0.8131565688
0.808989696
0.8032096393
0.7986620061
0.7937785791
0.7919333802
0.7834214024
0.7784487163
0.7693812675
0.7623724187
0.7548874758
0.7376174848
0.7229784065
0.7017404573
0.6888876244
0.6687421446
0.6411839944
0.6086321621
0.5681427957
0.4234547867
0.426653129
0.4307242898
0.4337013383
0.4402049019
0.447214494
0.4577371979
0.4685888604
0.4828054057
0.4959049472
0.509980853
0.5299244611
0.5519861843
0.5760612917
0.6072883897
0.6315945738
0.6582073267
0.6901962437
0.7184071649
0.7473894911
0.7719369317
0.8045829355
0.8293920743
0.8568293395
0.8799998019
0.897007662
0.9133178099
0.9206916608
0.9344490504
0.9491426593
0.9545919509
0.9613638361
0.9643731499
0.9664743056
0.9629098059
0.9649262303
0.9699426575
0.9649245425
0.9579220323
0.9523298093
0.9541183406
0.9495805281
0.9470762813
0.9438998685
0.9406351123
0.9365255699
0.9265750663
0.9241421036
0.9169335295
0.9128915803
0.916270537
0.9097800907
0.9038956911
0.8990748772
0.9003317435
0.8949319404
0.8861653081
0.8849917019
0.8796541273
0.8801216028
0.8760651504
0.8699293349
0.8669673873
0.8621963335
0.8613986554
0.8527518366
0.8520480272
0.851025245
0.8454213395
0.8421060842
0.8400884888
0.836282556
0.8351242023
0.8291103727
0.8287132333
0.8198285015
0.8154439088
0.8091841835
0.8047172769
0.8077077742
0.7986039875
0.7938090743
0.7881317904
0.7738530616
0.769904219
0.7630948877
0.7530628145
0.7402982775
0.7285399222
0.7119457865
0.700091158
0.6797209682
0.6505020463
0.6242436255
0.585760997
0.4199971314
0.42443976
0.4262053612
0.4296276355
0.4360836993
0.4396585936
0.4448817053
0.4509518757
0.4599937633
0.4678370935
0.4828811237
0.4961788007
0.5167264161
0.5345320225
0.5596166476
0.5800415185
0.6049025545
0.6292363933
0.656427595
0.6849253054
0.7081418097
0.7399388632
0.7675362292
0.794928365
0.8216382575
0.8425069724
0.866867489
0.8831183332
0.8934869943
0.9108562845
0.9205994265
0.931195938
0.9415313686
0.9467711746
0.9458565048
0.9493331268
0.9562077668
0.9551221554
0.9525160761
0.9488756572
0.9447905789
0.9386118687
0.9440705846
0.938622178
0.9400659403
0.9375195683
0.9264481281
0.9226693385
0.9170709938
0.9120724057
0.9096375578
0.9023035248
0.8990453971
0.8951542929
0.8970419347
0.8936954565
0.889645606
0.8861833233
0.8806650362
0.8715155742
0.8719202001
0.864842642
0.8674349299
0.8594258152
0.8609926798
0.8548496694
0.8499917676
0.845756745
0.8441987114
0.8385934828
0.8391900957
0.8303399395
0.8338130199
0.8222955667
0.8252060141
0.8155116904
0.8138629707
0.809699692
0.8092839172
0.8023671256
0.8013045472
0.789569722
0.78502894
0.7760887997
0.7715546838
0.7660765368
0.755084815
0.7448016216
0.7361319453
0.717688302
0.7017673174
0.6845646912
0.6651055439
0.6395300212
0.6023005784
0.4199352337
0.4196922814
0.420868483
0.4259799968
0.4286962666
0.4307444969
0.435947658
0.4410696869
0.4487405924
0.4569687198
0.464282676
0.4768721817
0.4871462481
0.5024223766
0.5168873858
0.537287542
0.5547765154
0.5784852238
0.6030709449
0.6302012876
0.6523635933
0.6797958481
0.7075334505
0.7329310006
0.7618719973
0.7892636479
0.8136684078
0.8296774786
0.8496141688
0.8652022699
0.8827835441
0.8992153524
0.9123554922
0.9211948959
0.9284004508
0.9333993683
0.938274611
0.9409256744
0.9435547554
0.9441213787
0.9441061358
0.9416304554
0.9337131455
0.9375172476
0.934374403
0.9298938176
0.9257586563
0.9195258272
0.9193036112
0.9154995772
0.9085073032
0.9043880263
0.901816236
0.8943407501
0.8881953048
0.8845652273
0.887926983
0.8815190138
0.8802502313
0.8752042773
0.8686148885
0.8680638073
0.863788375
0.8657985582
0.8589244013
0.8518765117
0.8488208776
0.8404115181
0.8405251444
0.8337306348
0.8336547759
0.8370255857
0.8286192764
0.8220231311
0.8212719879
0.8161666922
0.8164477607
0.814909373
0.8077130125
0.8006703361
0.7934002922
0.7936118748
0.7882745479
0.778384531
0.7739954644
0.7658043698
0.7579939187
0.7493578086
0.7365485898
0.7189141993
0.704938159
0.6879703815
0.6721060962
0.6487503324
0.6172303165
0.4179258764
0.4193493676
0.4196453806
0.4214572519
0.4219770255
0.4277017668
0.4315000835
0.4334846256
0.4384421892
0.4438460378
0.4494581865
0.4581783235
0.4668602
0.4772863721
0.4886013655
0.5028789892
0.5190615083
0.5340867906
0.5548397983
0.5762971052
0.5985478719
0.6220339917
0.6473366774
0.6718347396
0.6997012406
0.7260803313
0.7514707682
0.7794969052
0.8038901602
0.8219274896
0.8398103347
0.8610530448
0.8807456121
0.8926104869
0.9054822932
0.9097563448
0.914994148
0.927644838
0.9365510207
0.9368236503
0.9350798309
0.9364299885
0.9334432168
0.9308334024
0.9344597232
0.929188019
0.9275005745
0.9223523351
0.9142364484
0.911428115
0.9103776234
0.905990864
0.9023943157
0.8959590525
0.8902602867
0.8873301677
0.8842091172
0.8810605972
0.8751793327
0.8761521764
0.8700023117
0.8653014014
0.8695726776
0.8603366087
0.8555175292
0.8507791469
0.8468640456
0.8400756079
0.8391295043
0.833227048
0.8366545128
0.8334274819
0.8326736648
0.8227977037
0.818389261
0.8165670188
0.8138041947
0.8080335231
0.8093559085
0.8013257631
0.7968876519
0.7962656273
0.7854548011
0.776249395
0.7735022418
0.7696604125
0.7636621173
0.7524297166
0.7369009884
0.7264832211
0.7115640328
0.697730191
0.6849295761
0.656352661
0.6301706718
0.4151421448
0.4150270792
0.4163034157
0.4185469511
0.4214756987
0.4215601318
0.4247890949
0.4282925816
0.4306609121
0.4371625463
0.4417489878
0.4467427555
0.4523871052
0.4591196731
0.4676662934
0.4772308182
0.4903340706
0.5039582066
0.5172433788
0.5355945745
0.5559154252
0.5753956541
0.5968204353
0.6183800685
0.6426137099
0.6691705384
0.6967345381
0.7202689186
0.7478090326
0.7715702748
0.7929254159
0.8095453554
0.8307292005
0.8530376853
0.8691060887
0.884332115
0.8955753079
0.9016706391
0.9115556462
0.9222211462
0.925394327
0.9261049291
0.9308415411
0.92888056
0.9285077498
0.9261703341
0.9246423444
0.920648734
0.9200791275
0.9137362104
0.910155999
0.9065557815
0.9017447993
0.9030629875
0.8951466593
0.8923606744
0.8870651101
0.8814560371
0.8787047416
0.8776510726
0.8712468444
0.8625593671
0.8631320015
0.8570114739
0.8526599712
0.8481920503
0.8498298868
0.8409822589
0.8337634811
0.8319790045
0.8324784107
0.8238986709
0.8266192342
0.822555314
0.8202258793
0.8136624728
0.8116625039
0.805590583
0.8016158325
0.7976090815
0.7982272506
0.7913514279
0.7894262604
0.7788154081
0.7764750574
0.7650521182
0.7633931064
0.7533119603
0.7411285878
0.732235404
0.7198017297
0.7014890542
0.68766623
0.6661152474
0.6416439785
0.4166784556
0.4160484147
0.4172165526
0.4180315624
0.4188509523
0.4200866942
0.421502331
0.4226262068
0.4261139631
0.4287630204
0.4325281733
0.4362048481
0.4412145422
0.4466626171
0.4539999256
0.4599766423
0.4707549943
0.4800094511
0.4921175966
0.505984429
0.520128881
0.5341338644
0.5516653927
0.5709589107
0.5912484965
0.6129455066
0.6377564157
0.6623388918
0.6893090858
0.7121315436
0.7402179252
0.7649373529
0.7848024971
0.8011965373
0.826194867
0.8466516076
0.8608895405
0.8712736596
0.8834481167
0.8944290191
0.9067892152
0.9118312906
0.9131992373
0.9182725822
0.9187700435
0.9212627928
0.9178878656
0.9161732053
0.9171537391
0.9126161169
0.9104793197
0.9069910627
0.9063234607
0.9008043726
0.8971451005
0.8945089095
0.8946903647
0.889022672
0.8819903182
0.8789156049
0.8755485001
0.8692100411
0.867589946
0.864952227
0.8577590397
0.8524358228
0.8478001091
0.8376170381
0.838792556
0.8371805916
0.8344184162
0.829659051
0.824173751
0.8225738273
0.8190032839
0.8138609347
0.8166160159
0.8104916871
0.8029420174
0.8005917168
0.7985387626
0.7962897268
0.7912454654
0.786582444
0.7734715739
0.7671204209
0.7630562304
0.7570029476
0.7474305419
0.7354447018
0.7256222218
0.7129974288
0.6950872254
0.6722763204
0.6540847601
0.415582646
0.4155028237
0.4170148577
0.4157226094
0.4155986164
0.4168976284
0.4167782035
0.4196022198
0.4209912182
0.422232567
0.4248332183
0.4284024996
0.4330359675
0.4378319696
0.4455809656
0.4475545524
0.4543458848
0.4628463581
0.4704729294
0.480207541
0.4903528596
0.5016218148
0.5187928942
0.5303874523
0.5480973825
0.565452329
0.5860810078
0.608428365
0.6331050436
0.659718289
0.6811367806
0.7060221012
0.7288091488
0.7539655527
0.7755184403
0.7970510636
0.8216740188
0.8351232402
0.8491329965
0.8627571878
0.8737442613
0.8880375442
0.8918984938
0.8967670709
0.9083588083
0.9110423294
0.9097316979
0.9166816916
0.9111721933
0.9149254911
0.9129311545
0.9138334773
0.9070694421
0.9048650577
0.9031032266
0.8966425487
0.8921271662
0.8879517915
0.8869315051
0.8819962941
0.8789883523
0.8729360278
0.8672636721
0.863127552
0.8569379932
0.8558255628
0.8516377898
0.8486343468
0.8440769128
0.837187831
0.8361028284
0.834986805
0.828796628
0.8291226396
0.823236652
0.8193954405
0.8163576297
0.81044752
0.8024106136
0.7988333281
0.8009075411
0.7931470301
0.7917905578
0.7813503122
0.7768501208
0.7701711302
0.7680781703
0.7588879109
0.7509514137
0.7403213065
0.7313561726
0.7164275177
0.6977194006
0.6844301725
0.6647771025
0.4138937917
0.414364891
0.4145958139
0.4163874296
0.4160557954
0.4152707582
0.4166645643
0.4169557576
0.4176730401
0.4194157068
0.4231230069
0.4240166432
0.4260139971
0.4290763028
0.4326622319
0.4393593515
0.444771651
0.4482286541
0.4542878387
0.4612232369
0.4683226637
0.4789134479
0.4858910604
0.5008119423
0.5149195517
0.5301539943
0.5466813915
0.5657738624
0.5840983947
0.6044233201
0.6299823871
0.6498955941
0.6764320524
0.6962690331
0.7227509115
0.7444896942
0.7665763046
0.7898286868
0.81073195
0.8264217353
0.8395869
0.8538020376
0.8712603863
0.877238613
0.8846068252
0.893920655
0.9012149726
0.903612005
0.9081910256
0.9095354874
0.9091084441
0.9085824643
0.9051248036
0.9023692077
0.8989681352
0.896442475
0.890317257
0.8874775381
0.887209036
0.8845762201
0.8762923544
0.8776287124
0.8682852493
0.8644382794
0.8597502595
0.8560793419
0.8566213184
0.852781579
0.8475775704
0.8438276499
0.8399442238
0.8415694506
0.8371323495
0.833996231
0.8264450497
0.8185939233
0.8132602279
0.8153798799
0.8109242285
0.8056147871
0.7986588116
0.7942710572
0.7906559135
0.7903808184
0.7799995505
0.7712193671
0.7688954819
0.7652740634
0.7554557461
0.7443771499
0.7380837392
0.7260633832
0.7110803023
0.6933838286
0.6772429258
0.4129501101
0.4144839607
0.414573382
0.4145583916
0.4149648071
0.4147957747
0.4163554728
0.4163678325
0.4183872527
0.4181391833
0.419944158
0.4200574771
0.4224144861
0.425526114
0.4260201842
0.4281063699
0.4303528653
0.435985249
0.4412694026
0.4465996512
0.454044932
0.4599322742
0.4693836657
0.4758997563
0.4856394626
0.497373672
0.5127072414
0.5277221247
0.5455304758
0.5641683294
0.5792222103
0.6019433608
0.6224420134
0.6439847917
0.6661192697
0.6908664481
0.712579921
0.7350985343
0.7579197401
0.778438936
0.8013791524
0.8176762032
0.832509605
0.8502628817
0.8625249039
0.8737524423
0.8804183783
0.8887344773
0.8926982842
0.8979004615
0.89896206
0.9001064246
0.9035489669
0.9015610676
0.8980971465
0.8952934497
0.8941504679
0.8889943945
0.8874160149
0.8821599942
0.8793582717
0.873430773
0.8743721055
0.8712775126
0.8657295691
0.8613259779
0.8585552193
0.8565290681
0.849281719
0.8441065051
0.8433138775
0.8405477182
0.8369502323
0.8329781224
0.8266030228
0.8237308024
0.8191150222
0.8139917441
0.8140227915
0.8090996309
0.8014357937
0.7948278433
0.792039783
0.7939669676