/*--------------------------------*- C++ -*----------------------------------*\
| =========                 |                                                 |
| \\      /  F ield         | OpenFOAM: The Open Source CFD Toolbox           |
|  \\    /   O peration     | Version:  v1706                                 |
|   \\  /    A nd           | Web:      www.OpenFOAM.com                      |
|    \\/     M anipulation  |                                                 |
\*---------------------------------------------------------------------------*/
FoamFile
{
    version     2.0;
    format      ascii;
    class       volScalarField;
    location    "0.04";
    object      rhoM_N2cold;
}
// * * * * * * * * * * * * * * * * * * * * * * * * * * * * * * * * * * * * * //

dimensions      [1 -3 0 0 0 0 0];


internalField   nonuniform List<scalar> 
6000
(
4.657599102e-06
4.655263958e-06
4.675350291e-06
4.726831536e-06
5.03658388e-06
4.6567193e-06
4.667037932e-06
4.686964068e-06
4.762546304e-06
4.987450142e-06
4.642159537e-06
4.664807437e-06
4.693058004e-06
4.761894508e-06
4.904549682e-06
4.649553459e-06
4.650426486e-06
4.677855668e-06
4.736549657e-06
4.811527177e-06
4.651591989e-06
4.66944113e-06
4.674460656e-06
4.711833913e-06
4.764266439e-06
4.647922e-06
4.649372133e-06
4.664751354e-06
4.675260641e-06
4.725431366e-06
4.661147947e-06
4.661452257e-06
4.672533893e-06
4.697020049e-06
4.708343268e-06
4.642518772e-06
4.6548984e-06
4.667394686e-06
4.663997898e-06
4.683982699e-06
4.654073083e-06
4.666034175e-06
4.664823148e-06
4.665079369e-06
4.677022575e-06
4.641987751e-06
4.650518432e-06
4.651112488e-06
4.688216473e-06
4.680915815e-06
4.653194847e-06
4.652285091e-06
4.654074345e-06
4.650280926e-06
4.657402023e-06
4.655867753e-06
4.655790997e-06
4.654114131e-06
4.665373524e-06
4.673101597e-06
4.647787467e-06
4.652657873e-06
4.644612886e-06
4.644047701e-06
4.642435585e-06
4.644508194e-06
4.64548077e-06
4.648664889e-06
4.654706699e-06
4.662853072e-06
4.640329234e-06
4.651145793e-06
4.656741269e-06
4.649394238e-06
4.646583673e-06
4.657151846e-06
4.649937308e-06
4.638566806e-06
4.637398963e-06
4.631103883e-06
4.653020161e-06
4.657496129e-06
4.656660424e-06
4.659604371e-06
4.670223171e-06
4.646747548e-06
4.652241207e-06
4.659226504e-06
4.664189086e-06
4.657972129e-06
4.648250006e-06
4.655100047e-06
4.649047661e-06
4.658910709e-06
4.646280686e-06
4.648349965e-06
4.630296792e-06
4.625081941e-06
4.630650401e-06
4.640779869e-06
4.647591172e-06
4.649050578e-06
4.641191043e-06
4.642633583e-06
4.644420639e-06
4.646302044e-06
4.659656864e-06
4.659981347e-06
4.661979605e-06
4.665838648e-06
4.651188175e-06
4.665271622e-06
4.669167188e-06
4.67704865e-06
4.660497761e-06
4.648178454e-06
4.633321679e-06
4.642029984e-06
4.633863647e-06
4.656399502e-06
4.647832477e-06
4.644540009e-06
4.636057928e-06
4.622861173e-06
4.629203e-06
4.642922862e-06
4.645477283e-06
4.646826376e-06
4.645039152e-06
4.636478696e-06
4.64643927e-06
4.637124668e-06
4.637766987e-06
4.646918733e-06
4.646646459e-06
4.651537153e-06
4.660382276e-06
4.652610957e-06
4.65153462e-06
4.661108012e-06
4.652600067e-06
4.652966045e-06
4.660477618e-06
4.651220883e-06
4.647690141e-06
4.652403607e-06
4.643577446e-06
4.641219323e-06
4.656349562e-06
4.640924389e-06
4.652694325e-06
4.662320631e-06
4.653791052e-06
4.66624558e-06
4.663970705e-06
4.651876438e-06
4.650010949e-06
4.650515967e-06
4.646760707e-06
4.653413924e-06
4.65273492e-06
4.657699535e-06
4.6505887e-06
4.643416075e-06
4.646631598e-06
4.652640025e-06
4.650928036e-06
4.662545423e-06
4.659595595e-06
4.661194393e-06
4.65351997e-06
4.661749489e-06
4.655891633e-06
4.651263745e-06
4.656086645e-06
4.64997605e-06
4.644793925e-06
4.652058092e-06
4.653490294e-06
4.659409658e-06
4.650990441e-06
4.639505235e-06
4.637971287e-06
4.639027023e-06
4.636837085e-06
4.64597954e-06
4.642706288e-06
4.649227308e-06
4.640722271e-06
4.639013219e-06
4.654940988e-06
4.664803544e-06
4.659587778e-06
4.662429577e-06
4.662616144e-06
4.649542992e-06
4.652702754e-06
4.654167142e-06
4.650862967e-06
4.65857447e-06
4.647877571e-06
4.643238361e-06
4.641590929e-06
4.637478297e-06
4.645370951e-06
4.647338767e-06
4.644785282e-06
4.651585044e-06
4.657217063e-06
4.643637859e-06
4.649694443e-06
4.647083067e-06
4.644085943e-06
4.632513257e-06
4.641087696e-06
4.658650023e-06
4.664941739e-06
4.662440247e-06
4.65466343e-06
4.661807576e-06
4.644224782e-06
4.641932764e-06
4.645529256e-06
4.652623167e-06
4.657086637e-06
4.652618272e-06
4.651132243e-06
4.649972021e-06
4.641936271e-06
4.64897196e-06
4.65264713e-06
4.654647541e-06
4.658652882e-06
4.667995205e-06
4.657789196e-06
4.651583159e-06
4.644538845e-06
4.638674246e-06
4.639636849e-06
4.640004331e-06
4.650069328e-06
4.654076347e-06
4.658912169e-06
4.661214352e-06
4.6609703e-06
4.653181595e-06
4.656870635e-06
4.662156887e-06
4.66076078e-06
4.657561183e-06
4.643416954e-06
4.634981268e-06
4.632171303e-06
4.637226268e-06
4.638728374e-06
4.648261862e-06
4.65380202e-06
4.650914811e-06
4.650312392e-06
4.654366408e-06
4.654922229e-06
4.651242119e-06
4.656038963e-06
4.648484934e-06
4.649280571e-06
4.651366538e-06
4.647670252e-06
4.652792608e-06
4.647797762e-06
4.646013803e-06
4.646805203e-06
4.639846754e-06
4.637159687e-06
4.643265276e-06
4.633981615e-06
4.651762606e-06
4.654438666e-06
4.660021874e-06
4.663818866e-06
4.664064785e-06
4.659883935e-06
4.657875357e-06
4.658630062e-06
4.657965192e-06
4.653804682e-06
4.644962941e-06
4.65047463e-06
4.651899738e-06
4.648096422e-06
4.65232304e-06
4.649536073e-06
4.647216182e-06
4.647744093e-06
4.648194326e-06
4.652900978e-06
4.647585584e-06
4.648888223e-06
4.6603245e-06
4.655664923e-06
4.653564339e-06
6.050595477e-06
6.275801898e-06
6.259744527e-06
6.13711035e-06
6.112177607e-06
6.013881286e-06
5.916351776e-06
5.891748808e-06
5.819348861e-06
5.778544799e-06
5.749298889e-06
5.68510443e-06
5.639523764e-06
5.627802579e-06
5.579967924e-06
5.579591036e-06
5.502111162e-06
5.479659387e-06
5.459425157e-06
5.423232404e-06
5.403997513e-06
5.413114478e-06
5.342164419e-06
5.326467984e-06
5.300891719e-06
5.269158949e-06
5.196493441e-06
5.180706252e-06
5.131965335e-06
5.078771114e-06
5.097821135e-06
5.121173838e-06
5.062103679e-06
5.008505734e-06
5.003925664e-06
4.979550597e-06
4.977033474e-06
5.012729088e-06
4.993289645e-06
4.910402092e-06
4.932075018e-06
4.916839949e-06
4.855944046e-06
4.848264026e-06
4.804117003e-06
4.776783328e-06
4.789536361e-06
4.793931098e-06
4.739464895e-06
4.734753753e-06
4.709785887e-06
4.748838541e-06
4.697111788e-06
4.695425425e-06
4.690240805e-06
4.699733881e-06
4.647334692e-06
4.668034488e-06
4.599278248e-06
4.624027666e-06
4.612418793e-06
4.611065575e-06
4.59640303e-06
4.558554813e-06
4.539902033e-06
4.538495929e-06
4.553302558e-06
4.557316013e-06
4.546838044e-06
4.481744455e-06
4.478163596e-06
4.468409631e-06
4.45572267e-06
4.472744886e-06
4.415925527e-06
4.386213486e-06
4.370488442e-06
4.331844549e-06
4.315432513e-06
4.295023585e-06
4.247556403e-06
4.237771311e-06
4.245829753e-06
4.197456568e-06
4.157400874e-06
4.089518928e-06
4.104747548e-06
3.973282725e-06
3.935483667e-06
3.836476903e-06
3.697087465e-06
3.569296243e-06
3.385316386e-06
3.096565079e-06
2.660011269e-06
5.414427829e-06
5.911897853e-06
6.25961831e-06
6.371546136e-06
6.385704071e-06
6.305333867e-06
6.240000067e-06
6.153664792e-06
6.046415182e-06
5.9768133e-06
5.900880538e-06
5.818169358e-06
5.771283124e-06
5.701584962e-06
5.647216835e-06
5.565991431e-06
5.533460541e-06
5.488478046e-06
5.437107295e-06
5.417743084e-06
5.311403932e-06
5.276688311e-06
5.268046292e-06
5.255306588e-06
5.168300471e-06
5.137497409e-06
5.116611074e-06
5.086828285e-06
5.036058647e-06
5.009150328e-06
4.984744983e-06
4.988370678e-06
4.958320907e-06
4.914911282e-06
4.896352703e-06
4.849709248e-06
4.819954009e-06
4.840597505e-06
4.814911499e-06
4.821106464e-06
4.812637516e-06
4.787524683e-06
4.747311043e-06
4.719947827e-06
4.717374823e-06
4.653529684e-06
4.661956858e-06
4.668350094e-06
4.630053569e-06
4.611366403e-06
4.61657984e-06
4.621862234e-06
4.622673733e-06
4.575205156e-06
4.546334582e-06
4.532195061e-06
4.517495189e-06
4.496775592e-06
4.4590717e-06
4.495881147e-06
4.452007643e-06
4.454155296e-06
4.425568954e-06
4.443061286e-06
4.436896041e-06
4.416884409e-06
4.426739513e-06
4.416536284e-06
4.389352176e-06
4.385933438e-06
4.36669789e-06
4.33453161e-06
4.330138762e-06
4.32630312e-06
4.292174382e-06
4.263601248e-06
4.243718219e-06
4.22534907e-06
4.217687963e-06
4.17845238e-06
4.153859086e-06
4.137108398e-06
4.132306046e-06
4.110903852e-06
4.079374703e-06
4.003816941e-06
3.964066316e-06
3.881817986e-06
3.817129089e-06
3.733794667e-06
3.616220331e-06
3.497687881e-06
3.320498368e-06
3.02259575e-06
2.599557848e-06
5.112035367e-06
5.408896986e-06
5.711332067e-06
6.007943658e-06
6.202210672e-06
6.300488735e-06
6.360996819e-06
6.327476131e-06
6.282929921e-06
6.227250161e-06
6.137851488e-06
6.083747727e-06
6.021163659e-06
5.902719183e-06
5.830459866e-06
5.751529686e-06
5.67129998e-06
5.577995958e-06
5.520875376e-06
5.461866358e-06
5.401813423e-06
5.374550375e-06
5.322109387e-06
5.287382257e-06
5.234304587e-06
5.17087955e-06
5.170274673e-06
5.135585827e-06
5.09058078e-06
5.0378975e-06
5.01019669e-06
4.962224569e-06
4.94176403e-06
4.916977265e-06
4.852625756e-06
4.835325646e-06
4.831643648e-06
4.783773506e-06
4.753312246e-06
4.741088663e-06
4.752693578e-06
4.716727352e-06
4.704605845e-06
4.66666483e-06
4.631421979e-06
4.634732021e-06
4.626114187e-06
4.592009981e-06
4.552842979e-06
4.531477787e-06
4.525268543e-06
4.528441082e-06
4.544738263e-06
4.492029763e-06
4.476568621e-06
4.458868393e-06
4.461398339e-06
4.415784647e-06
4.404986439e-06
4.402729907e-06
4.389932216e-06
4.367548635e-06
4.375018802e-06
4.37143834e-06
4.343410595e-06
4.335410184e-06
4.315105919e-06
4.308147274e-06
4.307434737e-06
4.288875718e-06
4.287315286e-06
4.261900469e-06
4.266277419e-06
4.236163162e-06
4.205795048e-06
4.201107145e-06
4.200246266e-06
4.149112221e-06
4.123980763e-06
4.136745768e-06
4.096595324e-06
4.060509258e-06
4.040551865e-06
4.011456946e-06
3.980355532e-06
3.937775706e-06
3.894590264e-06
3.834312779e-06
3.735921403e-06
3.69824995e-06
3.578200326e-06
3.474857506e-06
3.291285117e-06
3.023474888e-06
2.626098403e-06
4.948248896e-06
5.130248559e-06
5.354606049e-06
5.579186765e-06
5.829216939e-06
6.028755447e-06
6.192563867e-06
6.294235685e-06
6.33251013e-06
6.343186459e-06
6.306750006e-06
6.291356762e-06
6.201922155e-06
6.136662832e-06
6.072154222e-06
5.980544056e-06
5.913310527e-06
5.816603729e-06
5.773788357e-06
5.708542904e-06
5.634501392e-06
5.563663279e-06
5.517141704e-06
5.4819569e-06
5.388453919e-06
5.304663341e-06
5.263876488e-06
5.205658465e-06
5.184951415e-06
5.127844816e-06
5.097069046e-06
5.017164815e-06
4.977848415e-06
4.959280174e-06
4.949924272e-06
4.919591794e-06
4.866126462e-06
4.854993555e-06
4.822629156e-06
4.75927547e-06
4.749311711e-06
4.712120949e-06
4.676524155e-06
4.696746776e-06
4.655242277e-06
4.600871263e-06
4.584293047e-06
4.597505604e-06
4.549235903e-06
4.532969724e-06
4.477849704e-06
4.494880241e-06
4.489984622e-06
4.511130604e-06
4.456412544e-06
4.417483998e-06
4.402189264e-06
4.394729373e-06
4.376514762e-06
4.377642111e-06
4.330817786e-06
4.327275066e-06
4.319139223e-06
4.313563772e-06
4.314153165e-06
4.263012071e-06
4.270600532e-06
4.257687525e-06
4.261190668e-06
4.228633408e-06
4.208702878e-06
4.212165093e-06
4.175691325e-06
4.178182877e-06
4.165020023e-06
4.157527916e-06
4.130908717e-06
4.086869204e-06
4.101810712e-06
4.097794056e-06
4.039324756e-06
4.026634542e-06
4.002263319e-06
3.991156312e-06
3.922337652e-06
3.891659452e-06
3.856817541e-06
3.78778168e-06
3.714370446e-06
3.648869415e-06
3.582709359e-06
3.444755915e-06
3.271437743e-06
3.034945689e-06
2.687920647e-06
4.840305998e-06
4.939866004e-06
5.097569864e-06
5.2799061e-06
5.49395595e-06
5.682880842e-06
5.880650665e-06
6.060151619e-06
6.185804025e-06
6.281255232e-06
6.346933191e-06
6.343584072e-06
6.342966578e-06
6.287882998e-06
6.257945401e-06
6.19806545e-06
6.120407343e-06
6.064514297e-06
6.00729057e-06
5.929406553e-06
5.868116345e-06
5.814216256e-06
5.695298961e-06
5.62823651e-06
5.583944067e-06
5.482646883e-06
5.423879881e-06
5.390792786e-06
5.304528115e-06
5.252475391e-06
5.20290183e-06
5.140368374e-06
5.123338381e-06
5.058248467e-06
5.0100254e-06
4.980109286e-06
4.949245749e-06
4.917775355e-06
4.893275845e-06
4.86481447e-06
4.812898934e-06
4.768281802e-06
4.73703132e-06
4.716619644e-06
4.69172458e-06
4.666891043e-06
4.623105502e-06
4.583682423e-06
4.574128554e-06
4.541988662e-06
4.537199148e-06
4.495392578e-06
4.511096491e-06
4.480815517e-06
4.454119231e-06
4.397871648e-06
4.399800854e-06
4.38598075e-06
4.373844097e-06
4.384309909e-06
4.325922628e-06
4.314156204e-06
4.326805873e-06
4.284430518e-06
4.291935311e-06
4.279321626e-06
4.262144372e-06
4.254986114e-06
4.237316937e-06
4.225443945e-06
4.175022268e-06
4.141036058e-06
4.159687778e-06
4.154921384e-06
4.156294556e-06
4.135157369e-06
4.132975828e-06
4.091792412e-06
4.093131312e-06
4.070068285e-06
4.015324116e-06
3.984132929e-06
3.954104899e-06
3.942473831e-06
3.932031775e-06
3.895376996e-06
3.839461265e-06
3.789583497e-06
3.700132528e-06
3.627173596e-06
3.535961778e-06
3.433773588e-06
3.278283761e-06
3.072952217e-06
2.776921104e-06
4.776030607e-06
4.849589996e-06
4.954984872e-06
5.062948165e-06
5.230176658e-06
5.414839305e-06
5.575768709e-06
5.754691564e-06
5.915331908e-06
6.053958002e-06
6.17964057e-06
6.298853167e-06
6.336662059e-06
6.355271516e-06
6.370319708e-06
6.363557188e-06
6.321697531e-06
6.258227073e-06
6.21068897e-06
6.156324474e-06
6.074496183e-06
6.00175487e-06
5.948339496e-06
5.859239877e-06
5.786609279e-06
5.731768377e-06
5.647949386e-06
5.560541816e-06
5.524056002e-06
5.455272282e-06
5.367428819e-06
5.318908891e-06
5.278334664e-06
5.183255908e-06
5.128342136e-06
5.087295131e-06
5.052652201e-06
4.989781838e-06
4.96133828e-06
4.91765856e-06
4.895168619e-06
4.863256392e-06
4.833157567e-06
4.787269634e-06
4.770426865e-06
4.731167199e-06
4.680902763e-06
4.664634252e-06
4.632288094e-06
4.598223773e-06
4.594124877e-06
4.562583921e-06
4.526339487e-06
4.490783135e-06
4.484708872e-06
4.46876759e-06
4.427427547e-06
4.410577897e-06
4.389730866e-06
4.356918691e-06
4.314681278e-06
4.350906219e-06
4.343652426e-06
4.285545706e-06
4.304441256e-06
4.278078693e-06
4.24232444e-06
4.243363499e-06
4.222632877e-06
4.211096006e-06
4.202267851e-06
4.172382466e-06
4.184025278e-06
4.142179706e-06
4.151360549e-06
4.110627043e-06
4.103418929e-06
4.08164773e-06
4.046212188e-06
4.032991747e-06
4.025723776e-06
3.975546681e-06
3.941236147e-06
3.927477387e-06
3.903971055e-06
3.859204656e-06
3.818725561e-06
3.795768897e-06
3.716959366e-06
3.647504082e-06
3.539147893e-06
3.435748113e-06
3.310241703e-06
3.121541406e-06
2.858530945e-06
4.745892722e-06
4.805071841e-06
4.858520882e-06
4.950337846e-06
5.060751574e-06
5.181024326e-06
5.34527953e-06
5.505533894e-06
5.656952247e-06
5.827543392e-06
5.958857226e-06
6.107722146e-06
6.234593737e-06
6.280921967e-06
6.333521746e-06
6.379835695e-06
6.406229413e-06
6.418807337e-06
6.390093053e-06
6.337475572e-06
6.289551956e-06
6.2193681e-06
6.159299826e-06
6.104046346e-06
6.036071431e-06
5.965273967e-06
5.912987805e-06
5.830125843e-06
5.732921328e-06
5.692188056e-06
5.615266684e-06
5.533277151e-06
5.443809568e-06
5.380577678e-06
5.33175424e-06
5.260390799e-06
5.218766322e-06
5.173345566e-06
5.12022534e-06
5.042682325e-06
4.998995819e-06
4.986127625e-06
4.934242419e-06
4.908315835e-06
4.864259092e-06
4.805470952e-06
4.766274758e-06
4.747714841e-06
4.71207391e-06
4.679657224e-06
4.660577413e-06
4.615023533e-06
4.585933184e-06
4.538894234e-06
4.544718981e-06
4.521201196e-06
4.482473123e-06
4.443714147e-06
4.439370783e-06
4.408801116e-06
4.364735668e-06
4.347079756e-06
4.316771821e-06
4.332097166e-06
4.323068112e-06
4.304866107e-06
4.251718527e-06
4.254130501e-06
4.244806483e-06
4.234942027e-06
4.207547083e-06
4.195972592e-06
4.196381339e-06
4.154060793e-06
4.133496068e-06
4.124383597e-06
4.078525601e-06
4.071309807e-06
4.037360084e-06
4.038812496e-06
4.032879972e-06
3.982890911e-06
3.950817961e-06
3.914435559e-06
3.897912746e-06
3.841896293e-06
3.81367072e-06
3.784036156e-06
3.718979187e-06
3.661864376e-06
3.551914049e-06
3.449105207e-06
3.317695863e-06
3.171180252e-06
2.942618736e-06
4.710073607e-06
4.747134932e-06
4.800764462e-06
4.83964552e-06
4.933648348e-06
5.01628955e-06
5.121548206e-06
5.253910819e-06
5.414969206e-06
5.575298381e-06
5.731694491e-06
5.871152979e-06
6.023874931e-06
6.177137381e-06
6.269127278e-06
6.324377522e-06
6.404431645e-06
6.438113728e-06
6.452726975e-06
6.441430967e-06
6.436228315e-06
6.405185901e-06
6.368409577e-06
6.323260488e-06
6.26783297e-06
6.21720168e-06
6.153715117e-06
6.072031419e-06
5.999237403e-06
5.916286131e-06
5.865256137e-06
5.754657734e-06
5.690371139e-06
5.610189398e-06
5.555221182e-06
5.470268786e-06
5.425101232e-06
5.362164457e-06
5.279157848e-06
5.259115324e-06
5.19635809e-06
5.131106147e-06
5.052439549e-06
5.043071743e-06
5.0088761e-06
4.952288598e-06
4.882880743e-06
4.838504158e-06
4.81828767e-06
4.783821359e-06
4.759477032e-06
4.702024648e-06
4.706555677e-06
4.668657185e-06
4.614446458e-06
4.58481336e-06
4.537356161e-06
4.50994145e-06
4.480837307e-06
4.441751796e-06
4.450270979e-06
4.415669218e-06
4.382522045e-06
4.369784359e-06
4.343122073e-06
4.329394284e-06
4.331116068e-06
4.299514145e-06
4.261548597e-06
4.24422993e-06
4.250476067e-06
4.242959807e-06
4.229735557e-06
4.163315097e-06
4.169003276e-06
4.147177765e-06
4.119753797e-06
4.092407821e-06
4.061852262e-06
4.039723271e-06
4.04850942e-06
4.028735089e-06
3.979308361e-06
3.955263099e-06
3.930515774e-06
3.879836511e-06
3.838375149e-06
3.778672679e-06
3.759714631e-06
3.662984298e-06
3.598998108e-06
3.478902547e-06
3.367713215e-06
3.226695552e-06
3.020570806e-06
4.699470072e-06
4.729402997e-06
4.748778492e-06
4.795543485e-06
4.846695795e-06
4.916431455e-06
5.00021713e-06
5.126774171e-06
5.221227557e-06
5.363970828e-06
5.508287852e-06
5.643363352e-06
5.805663387e-06
5.943436952e-06
6.072767538e-06
6.176799915e-06
6.289636132e-06
6.356520051e-06
6.431291838e-06
6.468894863e-06
6.503314931e-06
6.519353603e-06
6.49507923e-06
6.472373033e-06
6.452697948e-06
6.408812164e-06
6.354392232e-06
6.301853499e-06
6.234480113e-06
6.148011252e-06
6.062635528e-06
6.033322701e-06
5.923534364e-06
5.861829585e-06
5.771608289e-06
5.705528391e-06
5.619884941e-06
5.558606499e-06
5.506472343e-06
5.453580191e-06
5.378364437e-06
5.327410467e-06
5.24980229e-06
5.213706042e-06
5.162235466e-06
5.101255492e-06
5.069997538e-06
5.045955243e-06
4.995418892e-06
4.924627716e-06
4.897734986e-06
4.856302643e-06
4.836733355e-06
4.795754346e-06
4.756300959e-06
4.717183134e-06
4.652908791e-06
4.620549697e-06
4.608139793e-06
4.589169471e-06
4.547407407e-06
4.500330214e-06
4.462995846e-06
4.444215844e-06
4.417273279e-06
4.417547718e-06
4.380132483e-06
4.368469283e-06
4.331700898e-06
4.305179462e-06
4.290828223e-06
4.266044687e-06
4.257083236e-06
4.216848912e-06
4.219394751e-06
4.191363562e-06
4.186706631e-06
4.129453796e-06
4.111669819e-06
4.08433146e-06
4.077207625e-06
4.048782133e-06
3.99881338e-06
3.95896122e-06
3.941186245e-06
3.899142186e-06
3.872870068e-06
3.824948952e-06
3.800604519e-06
3.700686182e-06
3.64036466e-06
3.562165795e-06
3.46060664e-06
3.304915532e-06
3.134247908e-06
4.698648608e-06
4.697290412e-06
4.730119817e-06
4.758504445e-06
4.796838351e-06
4.85151177e-06
4.911982228e-06
4.967225264e-06
5.038278264e-06
5.149538937e-06
5.259014233e-06
5.389651042e-06
5.504620575e-06
5.659882982e-06
5.797845667e-06
5.944986557e-06
6.06726456e-06
6.207591558e-06
6.306255496e-06
6.36502134e-06
6.428374777e-06
6.512124852e-06
6.546437685e-06
6.560693184e-06
6.5470545e-06
6.527897589e-06
6.507859151e-06
6.469726302e-06
6.426041399e-06
6.365685998e-06
6.292508184e-06
6.212831703e-06
6.146292491e-06
6.085333368e-06
6.009606636e-06
5.926718094e-06
5.891314098e-06
5.803607883e-06
5.73603958e-06
5.655616497e-06
5.580105782e-06
5.533327764e-06
5.475776259e-06
5.405487995e-06
5.362813258e-06
5.311466247e-06
5.252279193e-06
5.183859381e-06
5.131121086e-06
5.086272237e-06
5.041684951e-06
5.00133833e-06
4.936599415e-06
4.89450803e-06
4.877471012e-06
4.831250774e-06
4.776203312e-06
4.736504449e-06
4.717847548e-06
4.673496822e-06
4.612700213e-06
4.587414505e-06
4.549200524e-06
4.532992409e-06
4.509150817e-06
4.468412437e-06
4.446326582e-06
4.421784535e-06
4.392175916e-06
4.365777135e-06
4.337357232e-06
4.3288586e-06
4.311267364e-06
4.288294496e-06
4.257900562e-06
4.241234172e-06
4.206117947e-06
4.178687201e-06
4.157464637e-06
4.128563624e-06
4.086948324e-06
4.057282159e-06
4.03172395e-06
4.010186329e-06
3.973146879e-06
3.94380564e-06
3.899447489e-06
3.86664577e-06
3.804037393e-06
3.768119772e-06
3.685436198e-06
3.592334822e-06
3.495028344e-06
3.37310771e-06
3.233220631e-06
4.669206479e-06
4.693268291e-06
4.694632194e-06
4.719274868e-06
4.752022181e-06
4.775938001e-06
4.818965298e-06
4.871125084e-06
4.919517242e-06
4.991524157e-06
5.085595038e-06
5.184269991e-06
5.306394906e-06
5.443470392e-06
5.586772951e-06
5.718131186e-06
5.846702819e-06
5.968782645e-06
6.08933759e-06
6.216579783e-06
6.323429447e-06
6.415552431e-06
6.464667897e-06
6.524840094e-06
6.564255392e-06
6.578110872e-06
6.596973528e-06
6.561973444e-06
6.544651391e-06
6.519960108e-06
6.492309148e-06
6.436591717e-06
6.39602255e-06
6.322488349e-06
6.241409103e-06
6.178800013e-06
6.094873543e-06
6.036176706e-06
5.974367923e-06
5.905274017e-06
5.838797315e-06
5.784742236e-06
5.706658456e-06
5.644922396e-06
5.56784178e-06
5.486256962e-06
5.431774541e-06
5.379806796e-06
5.32720599e-06
5.270840752e-06
5.220617236e-06
5.162891949e-06
5.100228714e-06
5.046614625e-06
4.999037959e-06
4.960602628e-06
4.917317484e-06
4.864200732e-06
4.809647165e-06
4.767272191e-06
4.741823407e-06
4.694088571e-06
4.670332571e-06
4.628833819e-06
4.599555941e-06
4.562843301e-06
4.533914757e-06
4.51239269e-06
4.47382758e-06
4.449686779e-06
4.433409905e-06
4.415805094e-06
4.377258407e-06
4.367943588e-06
4.348944796e-06
4.323039543e-06
4.297390826e-06
4.248814536e-06
4.245141984e-06
4.211079067e-06
4.160714993e-06
4.123782501e-06
4.085273925e-06
4.059336134e-06
4.050936666e-06
4.010645761e-06
3.959819155e-06
3.918174692e-06
3.880867961e-06
3.8196074e-06
3.759636368e-06
3.673575971e-06
3.571539222e-06
3.462178957e-06
3.332253774e-06
4.683170689e-06
4.688678239e-06
4.680931885e-06
4.69357506e-06
4.695260159e-06
4.715418287e-06
4.743966919e-06
4.797413717e-06
4.861457667e-06
4.916632891e-06
4.966602399e-06
5.019909973e-06
5.126407965e-06
5.221206644e-06
5.337200718e-06
5.449340879e-06
5.608748729e-06
5.752600848e-06
5.869002619e-06
6.010490971e-06
6.134412054e-06
6.236095924e-06
6.348677626e-06
6.444842421e-06
6.511681035e-06
6.57410945e-06
6.615974574e-06
6.628611679e-06
6.646593239e-06
6.639047419e-06
6.622194052e-06
6.611970624e-06
6.566756198e-06
6.540256626e-06
6.466728637e-06
6.407264187e-06
6.358820169e-06
6.286696582e-06
6.225068756e-06
6.139291503e-06
6.057354909e-06
5.985793209e-06
5.920937295e-06
5.837473188e-06
5.777844204e-06
5.735609521e-06
5.661174322e-06
5.580403906e-06
5.511705557e-06
5.469432427e-06
5.407122322e-06
5.364606118e-06
5.311020485e-06
5.25143829e-06
5.173991019e-06
5.113914555e-06
5.087597662e-06
5.031890369e-06
4.985859331e-06
4.937312324e-06
4.905428802e-06
4.872226895e-06
4.840339546e-06
4.777838517e-06
4.727931678e-06
4.688741511e-06
4.652685006e-06
4.618814493e-06
4.580703941e-06
4.559540852e-06
4.529777685e-06
4.512412382e-06
4.483216204e-06
4.466581234e-06
4.429806956e-06
4.419398606e-06
4.381145049e-06
4.32767615e-06
4.307953209e-06
4.270419139e-06
4.24981909e-06
4.222169271e-06
4.183708186e-06
4.145572786e-06
4.121887521e-06
4.053584016e-06
4.017029387e-06
3.979672378e-06
3.933169422e-06
3.888868712e-06
3.818753586e-06
3.74336546e-06
3.669105728e-06
3.559313283e-06
3.440367562e-06
4.647806867e-06
4.662776795e-06
4.671554587e-06
4.677523627e-06
4.704865574e-06
4.730458394e-06
4.751234829e-06
4.767235109e-06
4.789288377e-06
4.827690852e-06
4.876487537e-06
4.935615858e-06
4.992841975e-06
5.071745141e-06
5.177794204e-06
5.284534976e-06
5.378004657e-06
5.499027259e-06
5.636256224e-06
5.762595562e-06
5.899499241e-06
6.029052945e-06
6.163217328e-06
6.275447396e-06
6.367118819e-06
6.457489428e-06
6.54122143e-06
6.61599609e-06
6.658190767e-06
6.698185152e-06
6.718599654e-06
6.694832668e-06
6.677465764e-06
6.65359339e-06
6.613240763e-06
6.573950844e-06
6.524814469e-06
6.469976059e-06
6.426003386e-06
6.356922298e-06
6.290843415e-06
6.218955222e-06
6.144943869e-06
6.08633112e-06
6.01256806e-06
5.930728857e-06
5.861876063e-06
5.798579176e-06
5.727036234e-06
5.678657954e-06
5.609161769e-06
5.561987412e-06
5.501310629e-06
5.438748904e-06
5.372656066e-06
5.32333981e-06
5.294239237e-06
5.242064248e-06
5.180795964e-06
5.106474555e-06
5.05798346e-06
5.03350224e-06
4.981725846e-06
4.91490484e-06
4.874084949e-06
4.84164996e-06
4.784872636e-06
4.742300098e-06
4.717601736e-06
4.672394089e-06
4.634953328e-06
4.610709597e-06
4.585978111e-06
4.548171935e-06
4.528593382e-06
4.507556526e-06
4.46462686e-06
4.410459339e-06
4.38268448e-06
4.365218972e-06
4.32900843e-06
4.282582477e-06
4.248786413e-06
4.194311703e-06
4.174231815e-06
4.139270766e-06
4.113000014e-06
4.064540687e-06
4.00965584e-06
3.949508348e-06
3.911456939e-06
3.830337745e-06
3.733525039e-06
3.650230703e-06
3.51448176e-06
4.667644999e-06
4.65830525e-06
4.671448273e-06
4.672005693e-06
4.6829819e-06
4.689196172e-06
4.705986984e-06
4.719711066e-06
4.754618461e-06
4.776889797e-06
4.814375764e-06
4.870090644e-06
4.916657951e-06
4.977372143e-06
5.032728356e-06
5.109097878e-06
5.204251495e-06
5.316806932e-06
5.435821018e-06
5.542371178e-06
5.670600443e-06
5.795008062e-06
5.919915535e-06
6.043113727e-06
6.18726271e-06
6.300090935e-06
6.420848231e-06
6.503540607e-06
6.565238432e-06
6.633468518e-06
6.67227721e-06
6.719305893e-06
6.736381624e-06
6.753251447e-06
6.759542154e-06
6.728352737e-06
6.701210805e-06
6.648733966e-06
6.607648306e-06
6.571953763e-06
6.508221287e-06
6.438785433e-06
6.380025263e-06
6.311378317e-06
6.243801509e-06
6.167238523e-06
6.100083288e-06
6.051415344e-06
5.990640977e-06
5.914019389e-06
5.851631586e-06
5.774852928e-06
5.711894311e-06
5.642797628e-06
5.58539625e-06
5.539178006e-06
5.470953327e-06
5.413633703e-06
5.364262938e-06
5.305824788e-06
5.251482276e-06
5.197850808e-06
5.141999262e-06
5.100772722e-06
5.040964515e-06
4.996681257e-06
4.962335967e-06
4.905657305e-06
4.858547368e-06
4.823190182e-06
4.762516408e-06
4.734658944e-06
4.704043782e-06
4.662092719e-06
4.644913102e-06
4.61377776e-06
4.591242253e-06
4.557970976e-06
4.497053579e-06
4.452704876e-06
4.434676445e-06
4.388857768e-06
4.345483273e-06
4.306286064e-06
4.268392736e-06
4.223325051e-06
4.200468614e-06
4.145110334e-06
4.104921046e-06
4.049307495e-06
4.001559555e-06
3.919816268e-06
3.84927074e-06
3.761348538e-06
3.661796371e-06
4.639678241e-06
4.657891623e-06
4.658457155e-06
4.665194719e-06
4.662005096e-06
4.669443859e-06
4.679431297e-06
4.69104954e-06
4.71088417e-06
4.727212969e-06
4.746941469e-06
4.778365229e-06
4.817102382e-06
4.857644966e-06
4.929283266e-06
4.989653775e-06
5.051994093e-06
5.135355673e-06
5.227800372e-06
5.326004797e-06
5.441988259e-06
5.551298261e-06
5.685946518e-06
5.822132327e-06
5.934369847e-06
6.066894277e-06
6.189703956e-06
6.306121387e-06
6.417518885e-06
6.513698115e-06
6.598251804e-06
6.660365597e-06
6.711391566e-06
6.731326988e-06
6.751262782e-06
6.764446561e-06
6.75709108e-06
6.76623144e-06
6.7267539e-06
6.701655744e-06
6.668607455e-06
6.619751326e-06
6.570197832e-06
6.528183405e-06
6.480133076e-06
6.422851547e-06
6.351233801e-06
6.280801181e-06
6.196594043e-06
6.130193998e-06
6.059901542e-06
6.002077041e-06
5.920337595e-06
5.856004007e-06
5.782636688e-06
5.723770269e-06
5.677231912e-06
5.61502003e-06
5.561374424e-06
5.523202731e-06
5.431440714e-06
5.367908753e-06
5.322904125e-06
5.265938966e-06
5.206139541e-06
5.142570105e-06
5.097665034e-06
5.046121108e-06
5.021581154e-06
4.970407114e-06
4.946325805e-06
4.891299988e-06
4.828248173e-06
4.798053925e-06
4.751491939e-06
4.727398713e-06
4.689570038e-06
4.646731242e-06
4.602453701e-06
4.57448177e-06
4.530188563e-06
4.500015962e-06
4.452710785e-06
4.418303998e-06
4.375358165e-06
4.359056622e-06
4.302018959e-06
4.24488086e-06
4.192860573e-06
4.17624541e-06
4.107859817e-06
4.055841974e-06
3.991385013e-06
3.888966251e-06
3.764236634e-06
4.637906145e-06
4.637539325e-06
4.634706289e-06
4.633233859e-06
4.644921811e-06
4.64802571e-06
4.665153117e-06
4.671902997e-06
4.680924719e-06
4.705335811e-06
4.723721194e-06
4.751657325e-06
4.766808041e-06
4.798105282e-06
4.843943317e-06
4.890266946e-06
4.928934475e-06
5.001580857e-06
5.068678689e-06
5.147002091e-06
5.250695288e-06
5.337035666e-06
5.434619142e-06
5.568310349e-06
5.698042324e-06
5.81950408e-06
5.945797733e-06
6.076445471e-06
6.21410403e-06
6.322665245e-06
6.429507565e-06
6.537266522e-06
6.634738121e-06
6.703691379e-06
6.753413284e-06
6.786636091e-06
6.796486296e-06
6.816801804e-06
6.810609508e-06
6.812107028e-06
6.788582589e-06
6.776834074e-06
6.76094333e-06
6.704660789e-06
6.641866497e-06
6.594993933e-06
6.538845573e-06
6.479518679e-06
6.400425824e-06
6.331187245e-06
6.286035904e-06
6.210545346e-06
6.152239677e-06
6.106065025e-06
6.041102566e-06
5.955645996e-06
5.890577866e-06
5.817260051e-06
5.754791834e-06
5.68781429e-06
5.634727703e-06
5.57562526e-06
5.508653005e-06
5.44661373e-06
5.403748235e-06
5.358514794e-06
5.297476201e-06
5.246425657e-06
5.194289333e-06
5.134247679e-06
5.082322445e-06
5.042252623e-06
4.990888797e-06
4.942971248e-06
4.894464651e-06
4.840259468e-06
4.794726738e-06
4.76855973e-06
4.727767455e-06
4.694825587e-06
4.645359623e-06
4.616260366e-06
4.554777355e-06
4.510621338e-06
4.45694252e-06
4.420888695e-06
4.398674588e-06
4.374431158e-06
4.331074379e-06
4.274580119e-06
4.221735977e-06
4.147989357e-06
4.072759137e-06
4.004343591e-06
3.892318405e-06
4.670246384e-06
4.667216022e-06
4.666054781e-06
4.667976575e-06
4.682694904e-06
4.679631163e-06
4.690973139e-06
4.695472052e-06
4.700559811e-06
4.69891457e-06
4.716989673e-06
4.720664665e-06