/*--------------------------------*- C++ -*----------------------------------*\
| =========                 |                                                 |
| \\      /  F ield         | OpenFOAM: The Open Source CFD Toolbox           |
|  \\    /   O peration     | Version:  v1706                                 |
|   \\  /    A nd           | Web:      www.OpenFOAM.com                      |
|    \\/     M anipulation  |                                                 |
\*---------------------------------------------------------------------------*/
FoamFile
{
    version     2.0;
    format      ascii;
    class       volScalarField;
    location    "0.04";
    object      rhoN_N2cold;
}
// * * * * * * * * * * * * * * * * * * * * * * * * * * * * * * * * * * * * * //

dimensions      [0 -3 0 0 0 0 0];


internalField   nonuniform List<scalar> 
6000
(
9.991047765e+19
1.001516636e+20
1.007857525e+20
1.01935301e+20
1.085502737e+20
1.000109307e+20
1.000938403e+20
1.007324505e+20
1.02424721e+20
1.073110441e+20
9.999421774e+19
1.003037792e+20
1.009230729e+20
1.022110994e+20
1.049702874e+20
9.983149954e+19
1.001543646e+20
1.005534575e+20
1.018373772e+20
1.034203985e+20
1.002728091e+20
1.004941631e+20
1.007555763e+20
1.013732176e+20
1.024237268e+20
1.00065643e+20
1.00142766e+20
1.007376427e+20
1.014343164e+20
1.020545788e+20
1.000775247e+20
1.005027194e+20
1.004547976e+20
1.007898832e+20
1.013649617e+20
1.001871224e+20
1.001545898e+20
1.002257808e+20
1.004696491e+20
1.009996277e+20
1.000157885e+20
1.000115128e+20
1.002852668e+20
1.007054885e+20
1.010406806e+20
9.999399067e+19
1.002314156e+20
1.00028608e+20
1.000600077e+20
1.000739457e+20
1.000053491e+20
1.000221733e+20
1.000710888e+20
1.001861213e+20
1.001344015e+20
1.000919913e+20
1.001256367e+20
1.00228006e+20
1.004479692e+20
1.003748088e+20
9.984714403e+19
9.992816327e+19
1.000104222e+20
1.000033409e+20
1.004347179e+20
9.998503893e+19
1.00154032e+20
1.002946172e+20
1.003418673e+20
1.001143617e+20
1.000139695e+20
9.983126436e+19
9.981027894e+19
9.982603874e+19
9.996088157e+19
9.992387062e+19
9.995985145e+19
1.001818701e+20
9.999892059e+19
9.987140272e+19
9.999326774e+19
9.998216733e+19
1.002778862e+20
1.001563452e+20
1.001320561e+20
9.987902075e+19
1.000899384e+20
9.988932391e+19
9.979994738e+19
9.975197389e+19
9.998683985e+19
9.966399515e+19
9.942994674e+19
9.983979602e+19
9.979572871e+19
1.002045053e+20
1.004492268e+20
1.004781542e+20
1.005425053e+20
1.003868638e+20
9.981806666e+19
9.982656054e+19
9.978380775e+19
9.967621928e+19
9.956819921e+19
1.00235632e+20
1.001883732e+20
1.000028431e+20
1.001594977e+20
1.003196603e+20
9.988829108e+19
9.976459602e+19
9.981836201e+19
9.987140008e+19
9.99833179e+19
9.992530707e+19
1.003675292e+20
1.002526001e+20
1.001362785e+20
1.001031072e+20
9.987107817e+19
9.992597902e+19
9.980507228e+19
9.997841118e+19
9.979352966e+19
1.002678682e+20
1.001255856e+20
1.00095304e+20
1.002684684e+20
1.001553543e+20
9.99732132e+19
9.986802169e+19
9.987445862e+19
9.993601685e+19
9.997050094e+19
9.986035552e+19
1.000030969e+20
9.983411611e+19
9.99376892e+19
9.98946277e+19
1.002315198e+20
1.000266556e+20
1.000794776e+20
1.000249826e+20
1.001187393e+20
9.991236146e+19
9.979560414e+19
1.000674537e+20
9.997519743e+19
9.997426461e+19
1.001392697e+20
1.00157914e+20
1.000509447e+20
9.989179119e+19
9.989935439e+19
1.000752446e+20
1.000856105e+20
1.001834105e+20
1.002068382e+20
9.986260994e+19
1.000089858e+20
9.998995515e+19
9.988652957e+19
1.001149814e+20
1.001135197e+20
1.000262626e+20
9.988415334e+19
1.001347905e+20
9.981504186e+19
1.000569531e+20
1.001460617e+20
1.001874555e+20
1.001000164e+20
1.001072548e+20
1.001248997e+20
9.995678395e+19
9.997799514e+19
1.000624998e+20
9.995957105e+19
9.997926726e+19
9.998977729e+19
1.000903834e+20
1.0011184e+20
1.001806047e+20
1.001513517e+20
1.000929739e+20
9.994538497e+19
9.990995146e+19
9.974264385e+19
9.980662621e+19
1.000238134e+20
1.000966573e+20
9.995634431e+19
9.995433969e+19
9.980289576e+19
9.991201609e+19
9.984554042e+19
1.00100904e+20
1.002758488e+20
1.002129989e+20
1.00203999e+20
1.002280786e+20
1.001129404e+20
1.00007666e+20
1.000887919e+20
9.982842042e+19
1.000491438e+20
9.989855997e+19
9.99639874e+19
9.98508353e+19
1.00183015e+20
1.00013059e+20
9.999881424e+19
1.001792867e+20
1.000988971e+20
9.979033583e+19
9.979851224e+19
9.992513992e+19
9.978917058e+19
9.986363448e+19
1.000981473e+20
1.001375435e+20
9.997348505e+19
1.001713892e+20
1.000438937e+20
9.997262267e+19
9.975085935e+19
9.986264128e+19
9.978697088e+19
9.99295407e+19
9.999060887e+19
1.000289125e+20
9.999092493e+19
9.989397627e+19
1.001785372e+20
1.000378307e+20
9.999758391e+19
9.981894453e+19
9.987082064e+19
9.992097145e+19
9.997052288e+19
1.001654101e+20
1.002098548e+20
1.001380116e+20
1.001305992e+20
1.000125315e+20
9.994642759e+19
9.99528053e+19
9.984474142e+19
1.001250505e+20
9.996904943e+19
9.986956328e+19
9.995757424e+19
1.00141368e+20
9.988823954e+19
1.000144686e+20
1.000599517e+20
1.001342549e+20
1.000718126e+20
1.001057439e+20
1.000316315e+20
1.002419465e+20
1.000654769e+20
9.981930525e+19
9.999252165e+19
9.997705122e+19
9.987021162e+19
1.000586596e+20
1.000311696e+20
1.001038724e+20
9.997995283e+19
9.986090359e+19
9.994016188e+19
9.983195388e+19
9.985544924e+19
1.000264687e+20
1.001205265e+20
9.999629644e+19
1.001062264e+20
1.000431416e+20
9.988871242e+19
9.969371283e+19
9.967772467e+19
9.968299587e+19
9.955478942e+19
9.995897282e+19
1.000121278e+20
1.000926281e+20
1.002454058e+20
1.002610002e+20
1.001175906e+20
1.001669773e+20
1.001819336e+20
1.001139652e+20
1.000166273e+20
1.000002698e+20
9.989229131e+19
9.987007919e+19
9.985318801e+19
9.988760186e+19
1.308193976e+20
1.352003069e+20
1.342378164e+20
1.320837899e+20
1.303628326e+20
1.290536451e+20
1.27091835e+20
1.264846257e+20
1.268380488e+20
1.248625373e+20
1.238842295e+20
1.23022591e+20
1.211637419e+20
1.213919773e+20
1.208971345e+20
1.20327456e+20
1.195508393e+20
1.185273115e+20
1.176031431e+20
1.171172386e+20
1.156819101e+20
1.152688342e+20
1.146651323e+20
1.138627214e+20
1.134691649e+20
1.12594376e+20
1.119658432e+20
1.115778107e+20
1.119004688e+20
1.106892822e+20
1.098706439e+20
1.090899739e+20
1.095544551e+20
1.087250795e+20
1.085996652e+20
1.083655971e+20
1.077172585e+20
1.067399119e+20
1.059474518e+20
1.055613634e+20
1.050708989e+20
1.047675149e+20
1.052433189e+20
1.046427303e+20
1.043646257e+20
1.039447809e+20
1.046846841e+20
1.029851585e+20
1.030307526e+20
1.028095183e+20
1.022076796e+20
1.019152706e+20
1.019312064e+20
1.013761594e+20
1.008667929e+20
1.003136033e+20
1.003942246e+20
1.000706589e+20
9.946860208e+19
9.918117695e+19
9.861549851e+19
9.850691354e+19
9.81584842e+19
9.738004863e+19
9.673903116e+19
9.716209587e+19
9.735695637e+19
9.610106061e+19
9.663998652e+19
9.642669932e+19
9.641899753e+19
9.58359182e+19
9.489932863e+19
9.466493085e+19
9.510468718e+19
9.3987694e+19
9.394795397e+19
9.325655775e+19
9.26956845e+19
9.264567145e+19
9.211923305e+19
9.150150472e+19
9.105206838e+19
9.077772919e+19
8.945385597e+19
8.888043411e+19
8.731599068e+19
8.587395288e+19
8.456545324e+19
8.241434976e+19
8.003088729e+19
7.65172747e+19
7.26933363e+19
6.736184491e+19
5.832033831e+19
1.164331302e+20
1.272392865e+20
1.339828547e+20
1.367007196e+20
1.366191601e+20
1.352949078e+20
1.332980987e+20
1.319589353e+20
1.301430321e+20
1.278422779e+20
1.267787077e+20
1.249196918e+20
1.24014186e+20
1.227864014e+20
1.221921689e+20
1.206671344e+20
1.195449897e+20
1.179554849e+20
1.167836727e+20
1.167039343e+20
1.156026491e+20
1.141589112e+20
1.130847083e+20
1.124029394e+20
1.121814251e+20
1.112373689e+20
1.100614224e+20
1.089537062e+20
1.087998566e+20
1.08827792e+20
1.084338995e+20
1.07883444e+20
1.075149468e+20
1.075278763e+20
1.055030472e+20
1.059123484e+20
1.048606371e+20
1.048223133e+20
1.032274891e+20
1.027961749e+20
1.030958585e+20
1.028414655e+20
1.017134885e+20
1.020047943e+20
1.011854163e+20
1.014528376e+20
1.012634524e+20
1.00106671e+20
9.971703568e+19
9.936359048e+19
9.95337434e+19
9.77788764e+19
9.904358312e+19
9.836782544e+19
9.848317505e+19
9.743601699e+19
9.681590255e+19
9.663417585e+19
9.622129953e+19
9.637573054e+19
9.553570422e+19
9.597215196e+19
9.549292749e+19
9.408510502e+19
9.427543569e+19
9.489303744e+19
9.46680173e+19
9.38167083e+19
9.41570678e+19
9.374636373e+19
9.356397638e+19
9.284730277e+19
9.262535647e+19
9.297506496e+19
9.226693885e+19
9.164652251e+19
9.119603025e+19
9.079448199e+19
9.057610074e+19
8.998771281e+19
8.933344241e+19
8.909331367e+19
8.867668503e+19
8.830771034e+19
8.698139112e+19
8.618336253e+19
8.551387569e+19
8.360816347e+19
8.210413398e+19
8.003839102e+19
7.820430155e+19
7.465590568e+19
7.096498365e+19
6.590060116e+19
5.602159336e+19
1.096706427e+20
1.157738714e+20
1.234014187e+20
1.292533554e+20
1.334614011e+20
1.358003895e+20
1.363555681e+20
1.358490926e+20
1.345613167e+20
1.329161225e+20
1.319287452e+20
1.302097527e+20
1.288945204e+20
1.269462074e+20
1.257230726e+20
1.240682729e+20
1.225811325e+20
1.211459544e+20
1.196392488e+20
1.187961131e+20
1.173064809e+20
1.15790923e+20
1.14499823e+20
1.13948921e+20
1.130584775e+20
1.122016257e+20
1.102847636e+20
1.093736204e+20
1.085638688e+20
1.086787836e+20
1.085854948e+20
1.074792518e+20
1.067061003e+20
1.05953669e+20
1.05259594e+20
1.042311693e+20
1.03960551e+20
1.037607139e+20
1.029541926e+20
1.023848172e+20
1.018523489e+20
1.008945948e+20
1.005531484e+20
1.007241234e+20
1.000856468e+20
9.962711021e+19
1.00094155e+20
9.916521874e+19
9.825524541e+19
9.814528515e+19
9.814882703e+19
9.789410468e+19
9.742213909e+19
9.611469258e+19
9.65323668e+19
9.630750846e+19
9.4661618e+19
9.547846438e+19
9.526667686e+19
9.492046088e+19
9.392431449e+19
9.410522417e+19
9.40468059e+19
9.330086753e+19
9.266079464e+19
9.258055072e+19
9.283988542e+19
9.239748205e+19
9.211465868e+19
9.140518004e+19
9.143115506e+19
9.125588565e+19
9.128471563e+19
9.168451626e+19
9.082783767e+19
9.088665753e+19
8.97485818e+19
8.93972132e+19
8.888671315e+19
8.861929009e+19
8.823563059e+19
8.782818472e+19
8.727576375e+19
8.657607566e+19
8.620540654e+19
8.490219946e+19
8.392329632e+19
8.229653708e+19
8.124119331e+19
7.924057809e+19
7.687586793e+19
7.392857563e+19
7.020637406e+19
6.535798767e+19
5.701610554e+19
1.06187159e+20
1.100279197e+20
1.149342979e+20
1.200174339e+20
1.255064694e+20
1.297020298e+20
1.328717611e+20
1.349945627e+20
1.370415469e+20
1.366982559e+20
1.357780455e+20
1.34652533e+20
1.333406088e+20
1.31751929e+20
1.302224834e+20
1.287979893e+20
1.265887742e+20
1.250860341e+20
1.238438222e+20
1.227145306e+20
1.212037491e+20
1.194453673e+20
1.17995741e+20
1.162541106e+20
1.150899346e+20
1.143890953e+20
1.132747096e+20
1.122735473e+20
1.11487969e+20
1.1048454e+20
1.099215306e+20
1.085554034e+20
1.07652221e+20
1.06943724e+20
1.058527708e+20
1.057056024e+20
1.049274623e+20
1.040214565e+20
1.029574268e+20
1.024718432e+20
1.018354499e+20
1.020023394e+20
1.012979613e+20
1.008269534e+20
1.006925814e+20
9.981027259e+19
9.834049422e+19
9.859337646e+19
9.795621756e+19
9.799897815e+19
9.757811369e+19
9.746610663e+19
9.690152246e+19
9.637093201e+19
9.574193628e+19
9.553030156e+19
9.508168615e+19
9.433854905e+19
9.449664393e+19
9.361329779e+19
9.294815628e+19
9.329539881e+19
9.300123104e+19
9.256319639e+19
9.240545021e+19
9.190530221e+19
9.210360533e+19
9.167056222e+19
9.183465424e+19
9.140636856e+19
9.057846554e+19
9.012213768e+19
9.078160707e+19
9.004537585e+19
8.99852649e+19
8.914106688e+19
8.888842926e+19
8.851042609e+19
8.771700042e+19
8.774518324e+19
8.710332622e+19
8.635657805e+19
8.595700277e+19
8.483930431e+19
8.507405729e+19
8.466963004e+19
8.349361315e+19
8.186354112e+19
8.0077882e+19
7.856735731e+19
7.650627997e+19
7.371677445e+19
7.020983796e+19
6.551892025e+19
5.833929907e+19
1.044335439e+20
1.066066488e+20
1.10056605e+20
1.14103468e+20
1.181240149e+20
1.224194232e+20
1.261270568e+20
1.300332033e+20
1.331287773e+20
1.350063438e+20
1.359160994e+20
1.366035576e+20
1.364133423e+20
1.358112333e+20
1.343562417e+20
1.333313314e+20
1.32614581e+20
1.308177698e+20
1.287873335e+20
1.271317767e+20
1.253868072e+20
1.243677067e+20
1.225949101e+20
1.209026948e+20
1.19476477e+20
1.1826474e+20
1.169572716e+20
1.149002092e+20
1.139315437e+20
1.125984873e+20
1.119951323e+20
1.109311101e+20
1.098440956e+20
1.095323419e+20
1.086645841e+20
1.073033838e+20
1.057752831e+20
1.060737549e+20
1.053541666e+20
1.04493664e+20
1.03427343e+20
1.022075882e+20
1.022439293e+20
1.019886387e+20
1.007514299e+20
1.005133992e+20
9.979937674e+19
9.857732986e+19
9.815416215e+19
9.780703316e+19
9.777698354e+19
9.71528137e+19
9.688276287e+19
9.591747447e+19
9.595171637e+19
9.545748656e+19
9.432931332e+19
9.428495138e+19
9.426207537e+19
9.359753727e+19
9.292298749e+19
9.209830377e+19
9.285923566e+19
9.169229554e+19
9.163653638e+19
9.137845557e+19
9.126432784e+19
9.127946422e+19
9.122593581e+19
9.037673469e+19
8.956118847e+19
8.956684744e+19
9.011822065e+19
8.944685676e+19
8.915199989e+19
8.863223729e+19
8.897598057e+19
8.764483472e+19
8.690529775e+19
8.600508019e+19
8.654419899e+19
8.622126174e+19
8.523215942e+19
8.498920074e+19
8.45887149e+19
8.339499683e+19
8.22880617e+19
8.160448634e+19
7.99436529e+19
7.823810335e+19
7.665823312e+19
7.363931416e+19
7.03418452e+19
6.644873651e+19
5.984099534e+19
1.032310023e+20
1.048125125e+20
1.068104966e+20
1.0941054e+20
1.127449455e+20
1.16418332e+20
1.199536485e+20
1.238342442e+20
1.27619855e+20
1.312034263e+20
1.338126147e+20
1.357640269e+20
1.370271776e+20
1.369643827e+20
1.372552873e+20
1.364615033e+20
1.356667396e+20
1.350075856e+20
1.337645092e+20
1.318799909e+20
1.30649161e+20
1.286189757e+20
1.274627129e+20
1.261701574e+20
1.243995888e+20
1.226331111e+20
1.21932873e+20
1.201716392e+20
1.187753269e+20
1.171820369e+20
1.158892217e+20
1.149576904e+20
1.133236418e+20
1.116365426e+20
1.106500845e+20
1.095855792e+20
1.090392513e+20
1.080601846e+20
1.074292298e+20
1.071178262e+20
1.057947004e+20
1.048076129e+20
1.043738415e+20
1.027273842e+20
1.021637094e+20
1.015343911e+20
1.011068465e+20
9.973745718e+19
9.958048392e+19
9.888995518e+19
9.87399512e+19
9.844247836e+19
9.749529079e+19
9.691824556e+19
9.676300149e+19
9.588511488e+19
9.538705903e+19
9.448720284e+19
9.360534989e+19
9.336018742e+19
9.318489541e+19
9.321169932e+19
9.292087695e+19
9.192428577e+19
9.171835246e+19
9.168902107e+19
9.133120969e+19
9.112326003e+19
9.089677428e+19
9.014540133e+19
8.989792232e+19
8.914318048e+19
8.913327502e+19
8.905218072e+19
8.876026145e+19
8.828276499e+19
8.782964905e+19
8.720025232e+19
8.678815431e+19
8.647314266e+19
8.661555085e+19
8.619734194e+19
8.527964924e+19
8.41728908e+19
8.383553962e+19
8.32952031e+19
8.22041525e+19
8.065267833e+19
7.97695471e+19
7.835150563e+19
7.658701111e+19
7.444171632e+19
7.162940886e+19
6.716233409e+19
6.135294981e+19
1.02045218e+20
1.031777817e+20
1.046062996e+20
1.064873686e+20
1.089681728e+20
1.115555647e+20
1.152690014e+20
1.185119931e+20
1.219994964e+20
1.254021053e+20
1.286448637e+20
1.313023092e+20
1.340119656e+20
1.360042749e+20
1.371728374e+20
1.376710322e+20
1.38140269e+20
1.375318046e+20
1.370332249e+20
1.364488886e+20
1.349316078e+20
1.342879164e+20
1.324427886e+20
1.313406968e+20
1.296375731e+20
1.28396891e+20
1.269293868e+20
1.250035092e+20
1.236436426e+20
1.219320603e+20
1.205031637e+20
1.194842083e+20
1.177490579e+20
1.162202126e+20
1.154052809e+20
1.136584764e+20
1.122977987e+20
1.110917763e+20
1.101952753e+20
1.095218772e+20
1.083485601e+20
1.06841048e+20
1.06230274e+20
1.056654857e+20
1.046926521e+20
1.038430249e+20
1.027733775e+20
1.024491276e+20
1.012122532e+20
1.00729116e+20
1.001925522e+20
9.898151636e+19
9.881940257e+19
9.817188865e+19
9.77890303e+19
9.744727315e+19
9.638474353e+19
9.542057293e+19
9.514020252e+19
9.505391926e+19
9.478661351e+19
9.445959105e+19
9.350654027e+19
9.291413885e+19
9.226906989e+19
9.210852517e+19
9.205427313e+19
9.171712248e+19
9.144493481e+19
9.072319969e+19
9.057469709e+19
9.025955234e+19
8.950565255e+19
8.9096316e+19
8.942714096e+19
8.835910687e+19
8.791146244e+19
8.771656035e+19
8.702706025e+19
8.642130941e+19
8.60331795e+19
8.567841282e+19
8.530618261e+19
8.449782196e+19
8.417283105e+19
8.307975774e+19
8.216221684e+19
8.065789973e+19
7.99770322e+19
7.880744411e+19
7.657924455e+19
7.470139404e+19
7.244128768e+19
6.787318397e+19
6.328843431e+19
1.013379652e+20
1.019946231e+20
1.031926063e+20
1.046729898e+20
1.065164282e+20
1.082660904e+20
1.105029911e+20
1.133664311e+20
1.165305561e+20
1.198858695e+20
1.23230158e+20
1.263294852e+20
1.291715354e+20
1.320234218e+20
1.343391804e+20
1.357525371e+20
1.376124546e+20
1.388121372e+20
1.39138055e+20
1.391180455e+20
1.384636062e+20
1.376863444e+20
1.364589904e+20
1.351179248e+20
1.338820528e+20
1.323913034e+20
1.315287626e+20
1.30331263e+20
1.28831644e+20
1.273419862e+20
1.254900003e+20
1.235545188e+20
1.224899076e+20
1.212586081e+20
1.198349144e+20
1.181231457e+20
1.168623732e+20
1.155980478e+20
1.138881038e+20
1.129002423e+20
1.121265172e+20
1.10958423e+20
1.094575334e+20
1.080464342e+20
1.074933536e+20
1.065421463e+20
1.053892642e+20
1.043897217e+20
1.042562565e+20
1.029828472e+20
1.020975016e+20
1.018695141e+20
1.005694831e+20
9.998090059e+19
9.982470038e+19
9.903406075e+19
9.786804344e+19
9.716636006e+19
9.650224019e+19
9.616900136e+19
9.55284334e+19
9.487740042e+19
9.449411668e+19
9.38285315e+19
9.338191867e+19
9.30238503e+19
9.289809639e+19
9.23631374e+19
9.201467656e+19
9.173010045e+19
9.167524034e+19
9.088575474e+19
9.074790646e+19
8.970422231e+19
8.9225339e+19
8.891257781e+19
8.913844529e+19
8.84278183e+19
8.784348248e+19
8.71308591e+19
8.65402004e+19
8.61792621e+19
8.537759832e+19
8.526078804e+19
8.457473935e+19
8.36667819e+19
8.237902334e+19
8.148659373e+19
8.034882472e+19
7.898592199e+19
7.766119101e+19
7.550796819e+19
7.319351141e+19
6.960662976e+19
6.492204807e+19
1.014873192e+20
1.017184175e+20
1.025363766e+20
1.032705018e+20
1.040757823e+20
1.056191099e+20
1.073714084e+20
1.093016623e+20
1.118709694e+20
1.143442668e+20
1.171777784e+20
1.207220954e+20
1.238264995e+20
1.273548502e+20
1.302802448e+20
1.332113913e+20
1.351438392e+20
1.364182468e+20
1.382155825e+20
1.392681178e+20
1.399225198e+20
1.396902049e+20
1.393860151e+20
1.392120292e+20
1.384776889e+20
1.374898998e+20
1.355853112e+20
1.341466012e+20
1.332671312e+20
1.31664697e+20
1.300995205e+20
1.28633616e+20
1.272724852e+20
1.252533814e+20
1.242505076e+20
1.228900221e+20
1.211831891e+20
1.197629968e+20
1.183861542e+20
1.168139391e+20
1.156690472e+20
1.145606072e+20
1.131466731e+20
1.11894098e+20
1.109482851e+20
1.097040789e+20
1.09023085e+20
1.076816132e+20
1.068119516e+20
1.064137824e+20
1.054010978e+20
1.0376858e+20
1.029748669e+20
1.023877085e+20
1.018829087e+20
1.01345862e+20
1.007989709e+20
9.973979398e+19
9.906608034e+19
9.775483788e+19
9.736232399e+19
9.619794351e+19
9.627349162e+19
9.581321956e+19
9.525808594e+19
9.462166688e+19
9.416579369e+19
9.359318026e+19
9.308248422e+19
9.338246497e+19
9.267517916e+19
9.181228228e+19
9.176293989e+19
9.092795468e+19
8.994339429e+19
8.982073426e+19
8.971343157e+19
8.886458438e+19
8.918386895e+19
8.813883595e+19
8.744240404e+19
8.693854529e+19
8.595376512e+19
8.470646683e+19
8.446036456e+19
8.415199251e+19
8.317963512e+19
8.21094226e+19
8.134212669e+19
8.009115655e+19
7.834088955e+19
7.644258383e+19
7.421832874e+19
7.113340288e+19
6.683558207e+19
1.000812642e+20
1.006373924e+20
1.011725587e+20
1.017595212e+20
1.025326096e+20
1.035350126e+20
1.053833911e+20
1.068549838e+20
1.084242926e+20
1.108480258e+20
1.133360775e+20
1.158641249e+20
1.189340099e+20
1.221241339e+20
1.251650166e+20
1.2815756e+20
1.309227875e+20
1.336925591e+20
1.357099156e+20
1.371897505e+20
1.384787584e+20
1.399742438e+20
1.405010937e+20
1.406887044e+20
1.404835502e+20
1.404835006e+20
1.399334553e+20
1.392571765e+20
1.37737355e+20
1.364408554e+20
1.351060124e+20
1.334996572e+20
1.324100412e+20
1.307847145e+20
1.292381229e+20
1.277730902e+20
1.267818974e+20
1.248861848e+20
1.233316096e+20
1.220732943e+20
1.206561831e+20
1.19088085e+20
1.178631532e+20
1.167337515e+20
1.150819968e+20
1.137115409e+20
1.127262341e+20
1.114712368e+20
1.107364938e+20
1.10006527e+20
1.085017724e+20
1.072799222e+20
1.062138915e+20
1.05535014e+20
1.045296165e+20
1.037513507e+20
1.030681891e+20
1.023051196e+20
1.017839023e+20
1.008516992e+20
1.001327426e+20
9.910657862e+19
9.803164064e+19
9.781590803e+19
9.732383989e+19
9.661172379e+19
9.561186081e+19
9.494688094e+19
9.503926178e+19
9.500597779e+19
9.394019917e+19
9.298490113e+19
9.265810375e+19
9.17254069e+19
9.092823286e+19
9.050496683e+19
8.998668125e+19
8.995428521e+19
8.943895426e+19
8.863346478e+19
8.821689885e+19
8.746614508e+19
8.624396012e+19
8.629062821e+19
8.562185858e+19
8.478222512e+19
8.425131655e+19
8.317291786e+19
8.171026622e+19
8.05724125e+19
7.967830909e+19
7.805250157e+19
7.564702094e+19
7.28789291e+19
6.942922729e+19
1.003296715e+20
1.007052137e+20
1.009589193e+20
1.015513954e+20
1.021998716e+20
1.028034287e+20
1.037165271e+20
1.04732065e+20
1.061440716e+20
1.078395847e+20
1.097268919e+20
1.119654517e+20
1.144026089e+20
1.169258458e+20
1.197604963e+20
1.222697651e+20
1.254301174e+20
1.284311968e+20
1.314422455e+20
1.34066741e+20
1.363342379e+20
1.375229486e+20
1.396130775e+20
1.406834782e+20
1.415144726e+20
1.417228312e+20
1.414314423e+20
1.410057392e+20
1.410006401e+20
1.402130739e+20
1.394684518e+20
1.383815265e+20
1.369514919e+20
1.356835237e+20
1.340396555e+20
1.328004896e+20
1.314621874e+20
1.299308326e+20
1.284726309e+20
1.268047572e+20
1.255703617e+20
1.239953461e+20
1.221899914e+20
1.209441764e+20
1.194040294e+20
1.182027257e+20
1.170390221e+20
1.154330873e+20
1.14185471e+20
1.133275329e+20
1.1203268e+20
1.110432901e+20
1.098597373e+20
1.08807591e+20
1.074147481e+20
1.067490954e+20
1.065701365e+20
1.05387124e+20
1.047505782e+20
1.035589117e+20
1.025635973e+20
1.018142205e+20
1.009433545e+20
9.981812256e+19
9.916394662e+19
9.859343822e+19
9.814012344e+19
9.720998306e+19
9.664784764e+19
9.582585304e+19
9.596188517e+19
9.495394674e+19
9.442929878e+19
9.385099565e+19
9.34322958e+19
9.256417372e+19
9.170429236e+19
9.123296003e+19
9.06783917e+19
9.014386075e+19
8.924690405e+19
8.87413536e+19
8.816655879e+19
8.730659281e+19
8.651134685e+19
8.600816646e+19
8.514388995e+19
8.371802677e+19
8.320269772e+19
8.203997386e+19
8.058096058e+19
7.908521235e+19
7.689025962e+19
7.407004933e+19
7.094484346e+19
1.002651982e+20
1.005691469e+20
1.005546918e+20
1.00907099e+20
1.014337954e+20
1.020170145e+20
1.026242911e+20
1.031754043e+20
1.04237631e+20
1.05182729e+20
1.068822172e+20
1.085552772e+20
1.105210328e+20
1.128617255e+20
1.153635375e+20
1.177073321e+20
1.20992526e+20
1.232393646e+20
1.262964854e+20
1.29918813e+20
1.327515396e+20
1.353740903e+20
1.372386792e+20
1.388290282e+20
1.399575308e+20
1.410223654e+20
1.421667868e+20
1.425601669e+20
1.426440632e+20
1.425970506e+20
1.422913259e+20
1.420009722e+20
1.410133981e+20
1.40357468e+20
1.392781968e+20
1.377977004e+20
1.364441209e+20
1.349329481e+20
1.333847306e+20
1.320734407e+20
1.305761967e+20
1.287903417e+20
1.271271198e+20
1.259877833e+20
1.242189739e+20
1.226575844e+20
1.213426458e+20
1.199611041e+20
1.186161279e+20
1.176710019e+20
1.160593103e+20
1.148788548e+20
1.141484207e+20
1.129502601e+20
1.118403942e+20
1.108566949e+20
1.096896761e+20
1.086715302e+20
1.077483847e+20
1.070275901e+20
1.061695207e+20
1.046150036e+20
1.034331735e+20
1.023741007e+20
1.01472352e+20
1.00956453e+20
1.003146337e+20
9.988655487e+19
9.919900999e+19
9.808821819e+19
9.737441451e+19
9.708126199e+19
9.669079016e+19
9.617682637e+19
9.54275308e+19
9.44794665e+19
9.353861271e+19
9.292015882e+19
9.218032002e+19
9.154297217e+19
9.114576921e+19
9.049856065e+19
8.97496678e+19
8.941347908e+19
8.842665235e+19
8.739177648e+19
8.700927036e+19
8.603720243e+19
8.474840409e+19
8.294978661e+19
8.200280199e+19
8.069108794e+19
7.87226936e+19
7.64219361e+19
7.3861201e+19
1.003826316e+20
1.004481196e+20
1.007983303e+20
1.004644607e+20
1.008166309e+20
1.010622749e+20
1.016650476e+20
1.024249421e+20
1.032816304e+20
1.041748196e+20
1.048080816e+20
1.060763639e+20
1.073228392e+20
1.091647431e+20
1.114377338e+20
1.136252562e+20
1.159648022e+20
1.188469446e+20
1.212938018e+20
1.240742629e+20
1.265332712e+20
1.295090223e+20
1.324369094e+20
1.350677373e+20
1.3775889e+20
1.395374566e+20
1.410396862e+20
1.418983625e+20
1.430724444e+20
1.44170469e+20
1.44163635e+20
1.438597067e+20
1.436271415e+20
1.429121001e+20
1.42160728e+20
1.414193245e+20
1.403196315e+20
1.3911964e+20
1.374962313e+20
1.361348506e+20
1.351367187e+20
1.336961658e+20
1.321748885e+20
1.305758323e+20
1.291883941e+20
1.275240505e+20
1.25938742e+20
1.248343485e+20
1.231566711e+20
1.218994439e+20
1.20877148e+20
1.195256621e+20
1.181258427e+20
1.167872748e+20
1.155856512e+20
1.142759541e+20
1.127451595e+20
1.117507283e+20
1.107185128e+20
1.100696497e+20
1.08958991e+20
1.079441162e+20
1.069651942e+20
1.058936173e+20
1.051915565e+20
1.041772529e+20
1.032403062e+20
1.024983857e+20
1.015146318e+20
1.009233221e+20
1.002993106e+20
9.933702964e+19
9.866548704e+19
9.788409569e+19
9.740562073e+19
9.664368214e+19
9.59367608e+19
9.508167273e+19
9.43090586e+19
9.423269253e+19
9.317119487e+19
9.242469354e+19
9.173800791e+19
9.050469551e+19
8.999733404e+19
8.928441241e+19
8.839810346e+19
8.730181474e+19
8.63407581e+19
8.526401445e+19
8.414833983e+19
8.292234782e+19
8.074540779e+19
7.895261536e+19
7.622562507e+19
1.002457697e+20
1.005310225e+20
1.004929754e+20
1.008113121e+20
1.0102013e+20
1.011881171e+20
1.012639105e+20
1.014940671e+20
1.018030497e+20
1.019911353e+20
1.031927162e+20
1.040103769e+20
1.054959768e+20
1.067900048e+20
1.08489217e+20
1.100940454e+20
1.119901192e+20
1.139360147e+20
1.162744558e+20
1.186582894e+20
1.213665766e+20
1.24381781e+20
1.270853287e+20
1.299741528e+20
1.326919223e+20
1.350686038e+20
1.375139371e+20
1.394741568e+20
1.406961732e+20
1.423335429e+20
1.433966496e+20
1.441497084e+20
1.447607116e+20
1.446987217e+20
1.441120335e+20
1.437182121e+20
1.438548968e+20
1.425818947e+20
1.415499192e+20
1.4041775e+20
1.3904722e+20
1.37844571e+20
1.370122819e+20
1.355097392e+20
1.344100934e+20
1.331264514e+20
1.310919003e+20
1.297086049e+20
1.281552749e+20
1.264258545e+20
1.25094075e+20
1.233535554e+20
1.219115944e+20
1.208547106e+20
1.200073526e+20
1.188630947e+20
1.176339036e+20
1.162013714e+20
1.149001557e+20
1.132430964e+20
1.125717068e+20
1.114335587e+20
1.106262026e+20
1.092093391e+20
1.085314006e+20
1.074048435e+20
1.063024487e+20
1.055405661e+20
1.045864446e+20
1.03549247e+20
1.029043048e+20
1.017999612e+20
1.016137034e+20
1.003127826e+20
9.992610004e+19
9.890879938e+19
9.820358208e+19
9.744206064e+19
9.679258738e+19
9.628923472e+19
9.578334459e+19
9.457965439e+19
9.380810329e+19
9.301684103e+19
9.252095227e+19
9.150268961e+19
9.032649243e+19
8.905764582e+19
8.82774046e+19
8.711018109e+19
8.58381405e+19
8.462740342e+19
8.321609427e+19
8.140407087e+19
7.901815353e+19
1.001372997e+20
1.000446932e+20
1.002249829e+20
1.004209969e+20
1.005761121e+20
1.007350275e+20
1.008121919e+20
1.013477898e+20
1.016838563e+20
1.020186151e+20
1.024468208e+20
1.033020845e+20
1.037481137e+20
1.046011954e+20
1.057984391e+20
1.071121025e+20
1.086026193e+20
1.105933047e+20
1.125616449e+20
1.148508102e+20
1.17309985e+20
1.195390848e+20
1.223092299e+20
1.251918549e+20
1.281040112e+20
1.309625773e+20
1.336022219e+20
1.356640395e+20
1.378634157e+20
1.395803222e+20
1.412925436e+20
1.427575921e+20
1.43881458e+20
1.449315644e+20
1.455134464e+20
1.458860729e+20
1.457258648e+20
1.45625399e+20
1.450263476e+20
1.441219604e+20
1.433128619e+20
1.421525176e+20
1.405945998e+20
1.398107784e+20
1.384369958e+20
1.371722592e+20
1.359510557e+20
1.34106062e+20
1.32880114e+20
1.313730454e+20
1.300799237e+20
1.286506548e+20
1.273862482e+20
1.25728096e+20
1.240114621e+20
1.225757341e+20
1.216471255e+20
1.203595197e+20
1.192070136e+20
1.180503577e+20
1.167793405e+20
1.156226501e+20
1.145398769e+20
1.136289511e+20
1.120934107e+20
1.108922645e+20
1.09988197e+20
1.085667278e+20
1.079537892e+20
1.068192723e+20
1.057923876e+20
1.054942375e+20
1.043961747e+20
1.034656497e+20
1.02438945e+20
1.015630685e+20
1.012544249e+20
1.006347608e+20
9.940239751e+19
9.819554306e+19
9.753634773e+19
9.721348481e+19
9.651496907e+19
9.5313466e+19
9.436132085e+19
9.342392383e+19
9.23855174e+19
9.162302307e+19
9.062701923e+19
8.918655448e+19
8.798902148e+19
8.652754737e+19
8.507674319e+19
8.350725144e+19
8.161971469e+19
1.00174919e+20
1.001603662e+20
1.0006746e+20
1.001405357e+20
1.000493882e+20
1.004348875e+20
1.006012346e+20
1.006386021e+20
1.010985992e+20
1.012844283e+20
1.017136039e+20
1.020021352e+20
1.027110828e+20
1.031707741e+20
1.04021138e+20
1.049824713e+20
1.062349705e+20
1.074129264e+20
1.091063425e+20
1.109566308e+20
1.127391686e+20
1.150510418e+20
1.174324047e+20
1.198374464e+20
1.223193651e+20
1.250467442e+20
1.279628854e+20
1.310688667e+20
1.33747136e+20
1.359878708e+20
1.383820534e+20
1.406951446e+20
1.427487702e+20
1.439623547e+20
1.44985549e+20
1.453840168e+20
1.458943976e+20
1.470058185e+20
1.470703054e+20
1.466073246e+20
1.461214236e+20
1.454165371e+20
1.444670721e+20
1.43249847e+20
1.426255584e+20
1.414489061e+20
1.401315751e+20
1.388185534e+20
1.373192264e+20
1.361408706e+20
1.348612577e+20
1.335637132e+20
1.320178076e+20
1.301768781e+20
1.287808522e+20
1.274446034e+20
1.263334523e+20
1.251881422e+20
1.236057594e+20
1.225076965e+20
1.211814294e+20
1.198273722e+20
1.190252727e+20
1.175879036e+20
1.165548244e+20
1.150424301e+20
1.138495891e+20
1.124873931e+20
1.113229094e+20
1.10421806e+20
1.097025703e+20
1.087025566e+20
1.079355335e+20
1.064954929e+20
1.055622608e+20
1.047030627e+20
1.035754849e+20
1.028811262e+20
1.0244054e+20
1.012532743e+20
1.00244748e+20
9.953206546e+19
9.817813498e+19
9.729319452e+19
9.67667063e+19
9.618202876e+19
9.535980994e+19
9.418485051e+19
9.25718932e+19
9.141733769e+19
9.019985325e+19
8.893437517e+19
8.798446711e+19
8.615187437e+19
8.414863556e+19
9.992951475e+19
9.98762034e+19
9.990419817e+19
1.001193379e+20
1.004529122e+20
1.0028985e+20
1.005371416e+20
1.006606057e+20
1.007214858e+20
1.012058241e+20
1.013652569e+20
1.016896239e+20
1.018255671e+20
1.023544513e+20