/*--------------------------------*- C++ -*----------------------------------*\
| =========                 |                                                 |
| \\      /  F ield         | OpenFOAM: The Open Source CFD Toolbox           |
|  \\    /   O peration     | Version:  v1706                                 |
|   \\  /    A nd           | Web:      www.OpenFOAM.com                      |
|    \\/     M anipulation  |                                                 |
\*---------------------------------------------------------------------------*/
FoamFile
{
    version     2.0;
    format      ascii;
    class       volScalarField;
    location    "0.04";
    object      rhoN_N2cold;
}
// * * * * * * * * * * * * * * * * * * * * * * * * * * * * * * * * * * * * * //

dimensions      [0 -3 0 0 0 0 0];


internalField   nonuniform List<scalar> 
6000
(
1.001634216e+20
1.001132034e+20
1.005451675e+20
1.016522911e+20
1.083136318e+20
1.001445011e+20
1.003664071e+20
1.007949262e+20
1.024203506e+20
1.072569923e+20
9.98313879e+19
1.003184395e+20
1.009259786e+20
1.024063335e+20
1.054741867e+20
9.999039698e+19
1.000091717e+20
1.005990466e+20
1.018612829e+20
1.034737027e+20
1.000342363e+20
1.004180888e+20
1.005260356e+20
1.013297616e+20
1.024573428e+20
9.995531183e+19
9.998649749e+19
1.003172334e+20
1.005432396e+20
1.016221799e+20
1.002397408e+20
1.002462851e+20
1.004845998e+20
1.010111838e+20
1.012546939e+20
9.983911339e+19
1.001053419e+20
1.003740793e+20
1.003010301e+20
1.007308107e+20
1.000875932e+20
1.00344821e+20
1.003187774e+20
1.003242875e+20
1.005811306e+20
9.982769358e+19
1.000111491e+20
1.000239245e+20
1.008218596e+20
1.006648562e+20
1.000687064e+20
1.000491417e+20
1.000876203e+20
1.000060414e+20
1.001591833e+20
1.001261882e+20
1.001245376e+20
1.000884759e+20
1.003306134e+20
1.004968085e+20
9.995241864e+19
1.000571585e+20
9.988414808e+19
9.987199356e+19
9.983732441e+19
9.988189665e+19
9.990281225e+19
9.997128794e+19
1.001012193e+20
1.002764101e+20
9.979202654e+19
1.000246407e+20
1.001449735e+20
9.998697285e+19
9.992653059e+19
1.001538031e+20
9.999865178e+19
9.975412487e+19
9.972900997e+19
9.959363188e+19
1.000649497e+20
1.001612071e+20
1.001432349e+20
1.002065456e+20
1.004349069e+20
9.99300548e+19
1.00048198e+20
1.001984194e+20
1.003051416e+20
1.001714436e+20
9.996236571e+19
1.001096784e+20
9.997951958e+19
1.001916282e+20
9.992001475e+19
9.996451537e+19
9.957627509e+19
9.946412776e+19
9.958387959e+19
9.98017176e+19
9.994819726e+19
9.997958231e+19
9.981056007e+19
9.984158243e+19
9.988001374e+19
9.992047405e+19
1.002076745e+20
1.002146526e+20
1.002576259e+20
1.003406161e+20
1.000255521e+20
1.00328422e+20
1.004121976e+20
1.005816914e+20
1.002257583e+20
9.996082697e+19
9.964132643e+19
9.98286018e+19
9.965298165e+19
1.001376237e+20
9.995338661e+19
9.988258083e+19
9.97001705e+19
9.94163693e+19
9.955275268e+19
9.984780347e+19
9.990273728e+19
9.993175003e+19
9.989331509e+19
9.970921928e+19
9.992342516e+19
9.972311113e+19
9.973692446e+19
9.993373618e+19
9.992788083e+19
1.000330571e+20
1.002232748e+20
1.000561496e+20
1.000330026e+20
1.00238882e+20
1.000559154e+20
1.000637859e+20
1.002253251e+20
1.000262555e+20
9.995032561e+19
1.000516905e+20
9.986188056e+19
9.981116823e+19
1.001365497e+20
9.980482558e+19
1.000579425e+20
1.002649598e+20
1.00081528e+20
1.003493673e+20
1.003004453e+20
1.000403535e+20
1.000002355e+20
1.000110961e+20
9.993033779e+19
1.000734177e+20
1.000588155e+20
1.001655814e+20
1.000126602e+20
9.985841022e+19
9.992756125e+19
1.000567747e+20
1.000199578e+20
1.00269794e+20
1.002063569e+20
1.002407396e+20
1.000756983e+20
1.002526772e+20
1.001267018e+20
1.000271773e+20
1.001308956e+20
9.999948496e+19
9.988804139e+19
1.0004426e+20
1.000750601e+20
1.002023582e+20
1.000212998e+20
9.977430612e+19
9.974131799e+19
9.976402199e+19
9.971692656e+19
9.991353849e+19
9.984314599e+19
9.998338297e+19
9.980047895e+19
9.976372514e+19
1.001062578e+20
1.003183558e+20
1.002061888e+20
1.002673027e+20
1.002713149e+20
9.999017187e+19
1.000581237e+20
1.00089616e+20
1.000185584e+20
1.001843972e+20
9.995435636e+19
9.985458841e+19
9.981915977e+19
9.973071605e+19
9.990045057e+19
9.994276918e+19
9.988785553e+19
1.00034087e+20
1.001552057e+20
9.986317977e+19
9.999342889e+19
9.993727026e+19
9.987281597e+19
9.9623941e+19
9.980833755e+19
1.00186022e+20
1.003213277e+20
1.002675322e+20
1.001002888e+20
1.002539264e+20
9.987580176e+19
9.982651105e+19
9.990385498e+19
1.000564122e+20
1.001524008e+20
1.000563069e+20
1.000243493e+20
9.999939829e+19
9.982658647e+19
9.997789161e+19
1.000569275e+20
1.000999471e+20
1.001860835e+20
1.003869937e+20
1.001675096e+20
1.000340464e+20
9.988255581e+19
9.975643541e+19
9.977713653e+19
9.978503938e+19
1.000014909e+20
1.000876634e+20
1.001916596e+20
1.002411689e+20
1.002359204e+20
1.000684214e+20
1.001477556e+20
1.002614384e+20
1.002314146e+20
1.001626061e+20
9.985842912e+19
9.967701651e+19
9.961658716e+19
9.972529609e+19
9.975759944e+19
9.996262069e+19
1.000817639e+20
1.000196734e+20
1.000067181e+20
1.000939012e+20
1.001058544e+20
1.000267122e+20
1.001298702e+20
9.996741793e+19
9.998452842e+19
1.000293879e+20
9.994989789e+19
1.000600561e+20
9.995264005e+19
9.991427533e+19
9.993129468e+19
9.978165061e+19
9.972386423e+19
9.985516723e+19
9.965551861e+19
1.000379055e+20
1.000954552e+20
1.002155242e+20
1.002971799e+20
1.003024685e+20
1.002125577e+20
1.001693625e+20
1.001855927e+20
1.001712945e+20
1.000818211e+20
9.989167615e+19
1.000102071e+20
1.000408546e+20
9.995906283e+19
1.000499578e+20
9.999002307e+19
9.994013295e+19
9.995148586e+19
9.99611683e+19
1.000623866e+20
9.994807709e+19
9.997609081e+19
1.002220323e+20
1.001218263e+20
1.000766525e+20
1.301203328e+20
1.349634817e+20
1.346181619e+20
1.319808677e+20
1.314446797e+20
1.293307803e+20
1.272333715e+20
1.267042754e+20
1.251472873e+20
1.242697806e+20
1.236408363e+20
1.222603103e+20
1.21280081e+20
1.210280124e+20
1.199993102e+20
1.199912051e+20
1.183249712e+20
1.178421374e+20
1.174069926e+20
1.166286539e+20
1.162150003e+20
1.164110641e+20
1.148852563e+20
1.145476986e+20
1.139976714e+20
1.133152462e+20
1.117525471e+20
1.114130377e+20
1.103648459e+20
1.092208842e+20
1.09630562e+20
1.101327707e+20
1.088624447e+20
1.077098007e+20
1.076113046e+20
1.070871096e+20
1.070329779e+20
1.078006256e+20
1.07382573e+20
1.05600045e+20
1.060661294e+20
1.057384935e+20
1.044289042e+20
1.042637425e+20
1.033143441e+20
1.027265232e+20
1.03000782e+20
1.030952924e+20
1.019239762e+20
1.018226613e+20
1.01285718e+20
1.0212556e+20
1.010131567e+20
1.009768909e+20
1.008653937e+20
1.010695458e+20
9.994268154e+19
1.003878385e+20
9.890920964e+19
9.944145518e+19
9.919180199e+19
9.916270053e+19
9.884737699e+19
9.803343683e+19
9.763230178e+19
9.7602063e+19
9.792048513e+19
9.800679598e+19
9.77814633e+19
9.638160119e+19
9.630459347e+19
9.609483078e+19
9.58219929e+19
9.618806206e+19
9.496614037e+19
9.432717174e+19
9.398899876e+19
9.315794729e+19
9.280500028e+19
9.23660986e+19
9.1345299e+19
9.113486691e+19
9.130816672e+19
9.026788318e+19
8.94064704e+19
8.794664361e+19
8.827414082e+19
8.544694032e+19
8.463405735e+19
8.250487964e+19
7.950725731e+19
7.6759059e+19
7.280250292e+19
6.65927974e+19
5.720454341e+19
1.164393082e+20
1.271375882e+20
1.346154475e+20
1.370224975e+20
1.373269693e+20
1.355985778e+20
1.341935498e+20
1.323368773e+20
1.30030434e+20
1.285336194e+20
1.269006567e+20
1.251219217e+20
1.241136156e+20
1.226147304e+20
1.214455233e+20
1.196987405e+20
1.189991514e+20
1.180317859e+20
1.169270386e+20
1.16510604e+20
1.142237405e+20
1.13477168e+20
1.132913181e+20
1.13017346e+20
1.111462467e+20
1.104838152e+20
1.100346468e+20
1.093941567e+20
1.083023365e+20
1.07723663e+20
1.071988168e+20
1.072767888e+20
1.066305571e+20
1.056970168e+20
1.052979076e+20
1.042948225e+20
1.036549249e+20
1.040988711e+20
1.035464838e+20
1.036797089e+20
1.03497581e+20
1.029575201e+20
1.020927106e+20
1.015042543e+20
1.014489209e+20
1.000759072e+20
1.002571367e+20
1.003946257e+20
9.957104449e+19
9.916916997e+19
9.928128688e+19
9.939488675e+19
9.941233834e+19
9.839150873e+19
9.777063617e+19
9.746656044e+19
9.715043416e+19
9.670485145e+19
9.589401506e+19
9.668561607e+19
9.574209984e+19
9.578828594e+19
9.51735259e+19
9.554970507e+19
9.541711915e+19
9.498676148e+19
9.51986992e+19
9.497927493e+19
9.439467045e+19
9.432114919e+19
9.390748151e+19
9.321573355e+19
9.312126369e+19
9.303877677e+19
9.230482543e+19
9.169034942e+19
9.126275741e+19
9.086772194e+19
9.070296695e+19
8.985919097e+19
8.933030292e+19
8.897007308e+19
8.88667967e+19
8.840653445e+19
8.772848823e+19
8.610359012e+19
8.524873797e+19
8.347995669e+19
8.208879762e+19
8.02966595e+19
7.776817915e+19
7.521909422e+19
7.140856705e+19
6.500205914e+19
5.590446985e+19
1.099362445e+20
1.163203653e+20
1.228243455e+20
1.292030894e+20
1.333808747e+20
1.354943814e+20
1.367956305e+20
1.360747555e+20
1.351167725e+20
1.339193583e+20
1.319968062e+20
1.308332844e+20
1.294873905e+20
1.269401975e+20
1.253862337e+20
1.236888104e+20
1.219634404e+20
1.199569023e+20
1.187285027e+20
1.174594916e+20
1.161680306e+20
1.155817285e+20
1.144539653e+20
1.137071453e+20
1.1256569e+20
1.112017108e+20
1.111887026e+20
1.10442706e+20
1.094748555e+20
1.083418817e+20
1.077461654e+20
1.067145069e+20
1.062744953e+20
1.057414466e+20
1.043575431e+20
1.039854978e+20
1.03906315e+20
1.028768496e+20
1.022217687e+20
1.01958896e+20
1.022084641e+20
1.014349968e+20
1.011743192e+20
1.003583835e+20
9.960047266e+19
9.967165636e+19
9.948632661e+19
9.875290281e+19
9.79106017e+19
9.745113521e+19
9.731760307e+19
9.738582973e+19
9.773630673e+19
9.66027906e+19
9.627029292e+19
9.588964286e+19
9.59440503e+19
9.496311068e+19
9.473089117e+19
9.46823636e+19
9.440714442e+19
9.39257771e+19
9.408642585e+19
9.400942667e+19
9.340667946e+19
9.323462761e+19
9.279797676e+19
9.264832848e+19
9.26330051e+19
9.22338864e+19
9.220032873e+19
9.165377352e+19
9.174790149e+19
9.110028306e+19
9.044720533e+19
9.034639022e+19
9.032787669e+19
8.922821981e+19
8.868775833e+19
8.896227457e+19
8.809882417e+19
8.732277975e+19
8.68935885e+19
8.626789131e+19
8.559904369e+19
8.468334853e+19
8.375462933e+19
8.245833934e+19
8.034239576e+19
7.953225699e+19
7.695054464e+19
7.472811841e+19
7.078032511e+19
6.502096533e+19
5.647523446e+19
1.064139547e+20
1.10327926e+20
1.151528183e+20
1.199825111e+20
1.253595041e+20
1.296506548e+20
1.331734165e+20
1.353599072e+20
1.361830136e+20
1.36412612e+20
1.356290324e+20
1.352979949e+20
1.3337467e+20
1.319712437e+20
1.305839618e+20
1.286138507e+20
1.271679683e+20
1.250882522e+20
1.241674916e+20
1.227643635e+20
1.211720729e+20
1.196486727e+20
1.186482087e+20
1.178915462e+20
1.158807294e+20
1.140787815e+20
1.132016449e+20
1.119496444e+20
1.115043315e+20
1.102762326e+20
1.096143881e+20
1.078960175e+20
1.070505035e+20
1.066511865e+20
1.064499843e+20
1.05797673e+20
1.046478809e+20
1.044084636e+20
1.03712455e+20
1.023500101e+20
1.021357357e+20
1.013359344e+20
1.005704119e+20
1.01005307e+20
1.001127372e+20
9.894346802e+19
9.858694726e+19
9.887108825e+19
9.783303016e+19
9.748321987e+19
9.629784309e+19
9.666409121e+19
9.655880908e+19
9.701356138e+19
9.583682891e+19
9.499965588e+19
9.467073686e+19
9.451030911e+19
9.411859703e+19
9.41428411e+19
9.313586636e+19
9.305967884e+19
9.288471448e+19
9.276481231e+19
9.277748743e+19
9.167767895e+19
9.184087167e+19
9.156317258e+19
9.1638509e+19
9.093835286e+19
9.050973931e+19
9.058419554e+19
8.979981345e+19
8.985339521e+19
8.957032307e+19
8.94092025e+19
8.88367466e+19
8.788966031e+19
8.821098305e+19
8.812460335e+19
8.686719905e+19
8.659429123e+19
8.607017891e+19
8.583131855e+19
8.435134736e+19
8.369160111e+19
8.29423127e+19
8.145767053e+19
7.987893433e+19
7.847031e+19
7.704751309e+19
7.408077236e+19
7.035349985e+19
6.526764922e+19
5.78047451e+19
1.040926021e+20
1.062336775e+20
1.096251584e+20
1.135463677e+20
1.181495903e+20
1.222124912e+20
1.264656057e+20
1.303258413e+20
1.330280436e+20
1.350807577e+20
1.364931869e+20
1.364211628e+20
1.364078834e+20
1.352232903e+20
1.34579471e+20
1.332917301e+20
1.316216633e+20
1.304196623e+20
1.291890445e+20
1.275141194e+20
1.261960504e+20
1.250369087e+20
1.224795475e+20
1.210373443e+20
1.200848186e+20
1.179063846e+20
1.166425781e+20
1.159310277e+20
1.140758734e+20
1.1295646e+20
1.118903619e+20
1.105455564e+20
1.1017932e+20
1.087795369e+20
1.077424817e+20
1.070991244e+20
1.064353924e+20
1.057586098e+20
1.052317386e+20
1.04619666e+20
1.035032029e+20
1.025436947e+20
1.018716413e+20
1.014326805e+20
1.008973028e+20
1.003632482e+20
9.942162371e+19
9.857381554e+19
9.836835601e+19
9.767717553e+19
9.757417522e+19
9.667510919e+19
9.701282776e+19
9.636162402e+19
9.578751035e+19
9.45778849e+19
9.461937319e+19
9.432216667e+19
9.406116337e+19
9.42862346e+19
9.303059416e+19
9.277755277e+19
9.304958867e+19
9.213829071e+19
9.22996841e+19
9.202842206e+19
9.165901874e+19
9.150507773e+19
9.112509542e+19
9.086976226e+19
8.978542512e+19
8.905453887e+19
8.945565114e+19
8.935314804e+19
8.938267862e+19
8.892811547e+19
8.88812006e+19
8.799553574e+19
8.802432928e+19
8.752835021e+19
8.635105626e+19
8.568027803e+19
8.503451396e+19
8.478438346e+19
8.455982312e+19
8.37715483e+19
8.256905947e+19
8.14964193e+19
7.957274253e+19
7.800373324e+19
7.604218878e+19
7.384459329e+19
7.050072604e+19
6.608499392e+19
5.971873343e+19
1.027103356e+20
1.04292258e+20
1.065588145e+20
1.088806057e+20
1.124769174e+20
1.164481571e+20
1.199090045e+20
1.237568078e+20
1.272114389e+20
1.301926452e+20
1.328954961e+20
1.354592079e+20
1.362723023e+20
1.366725057e+20
1.369961228e+20
1.368506922e+20
1.359504845e+20
1.345855284e+20
1.335632037e+20
1.323940747e+20
1.306343265e+20
1.290699972e+20
1.279212795e+20
1.260051586e+20
1.244432103e+20
1.232638361e+20
1.214612771e+20
1.195815444e+20
1.187969033e+20
1.173176835e+20
1.154285767e+20
1.143851374e+20
1.135125734e+20
1.11467869e+20
1.102869276e+20
1.094041964e+20
1.086591871e+20
1.073071363e+20
1.066954469e+20
1.057560981e+20
1.052724434e+20
1.04586159e+20
1.039388724e+20
1.029520352e+20
1.025898251e+20
1.017455312e+20
1.006645755e+20
1.003147151e+20
9.961909878e+19
9.888653275e+19
9.879838445e+19
9.812008432e+19
9.734063413e+19
9.65759814e+19
9.644535208e+19
9.610252882e+19
9.521349564e+19
9.485113758e+19
9.440281432e+19
9.369717616e+19
9.278884469e+19
9.356787568e+19
9.341188014e+19
9.216227325e+19
9.256862917e+19
9.200169232e+19
9.123278365e+19
9.125512901e+19
9.080930917e+19
9.056120442e+19
9.037135163e+19
8.972865519e+19
8.997903824e+19
8.907913347e+19
8.927657094e+19
8.840058158e+19
8.824556836e+19
8.777737054e+19
8.701531588e+19
8.673100531e+19
8.657470486e+19
8.549562754e+19
8.475776659e+19
8.446187929e+19
8.395636678e+19
8.299364851e+19
8.212313034e+19
8.162943864e+19
7.993461003e+19
7.844094799e+19
7.611070737e+19
7.388705619e+19
7.11879936e+19
6.71299227e+19
6.147378377e+19
1.020622091e+20
1.033348783e+20
1.0448432e+20
1.064588784e+20
1.088333672e+20
1.11419878e+20
1.14952248e+20
1.183985784e+20
1.21654887e+20
1.253235138e+20
1.281474672e+20
1.313488634e+20
1.340772847e+20
1.350735907e+20
1.362047687e+20
1.372007676e+20
1.377683745e+20
1.380388675e+20
1.37421356e+20
1.362897972e+20
1.352591818e+20
1.337498516e+20
1.324580608e+20
1.312698139e+20
1.298079878e+20
1.282854617e+20
1.271610281e+20
1.253790504e+20
1.232886307e+20
1.224126464e+20
1.207584233e+20
1.189952075e+20
1.170711735e+20
1.157113479e+20
1.146613815e+20
1.131266838e+20
1.122315338e+20
1.112547434e+20
1.101123729e+20
1.084447812e+20
1.075052864e+20
1.072285511e+20
1.061127402e+20
1.055551792e+20
1.046077224e+20
1.033434613e+20
1.025005324e+20
1.021013944e+20
1.013349228e+20
1.006377898e+20
1.002274712e+20
9.92478179e+19
9.862221901e+19
9.761062869e+19
9.773589206e+19
9.723013326e+19
9.639727146e+19
9.556374509e+19
9.547033943e+19
9.481292722e+19
9.386528318e+19
9.348558614e+19
9.28338026e+19
9.316337991e+19
9.296920671e+19
9.257776573e+19
9.143480703e+19
9.148667745e+19
9.128616093e+19
9.10740221e+19
9.048488349e+19
9.023596973e+19
9.024475997e+19
8.933464071e+19
8.889238857e+19
8.869642145e+19
8.771022798e+19
8.755504962e+19
8.682494804e+19
8.685618271e+19
8.672860154e+19
8.565356797e+19
8.496382712e+19
8.418140987e+19
8.382608057e+19
8.262142566e+19
8.201442408e+19
8.137712163e+19
7.997804704e+19
7.874977152e+19
7.638524837e+19
7.417430554e+19
7.134829814e+19
6.819742477e+19
6.328212336e+19
1.012919055e+20
1.020889233e+20
1.032422465e+20
1.040783983e+20
1.060999645e+20
1.078771946e+20
1.101408216e+20
1.129873294e+20
1.164509507e+20
1.198988899e+20
1.232622471e+20
1.262613544e+20
1.295456974e+20
1.328416641e+20
1.348199415e+20
1.360081188e+20
1.377297128e+20
1.384540587e+20
1.387683221e+20
1.385253971e+20
1.384135121e+20
1.377459334e+20
1.369550447e+20
1.359840965e+20
1.347921069e+20
1.337032619e+20
1.323379595e+20
1.305813208e+20
1.290158581e+20
1.272319598e+20
1.261345406e+20
1.237560803e+20
1.223735729e+20
1.206492344e+20
1.194671222e+20
1.17640189e+20
1.166688437e+20
1.153153647e+20
1.135302763e+20
1.130992543e+20
1.117496363e+20
1.103463687e+20
1.08654614e+20
1.084531558e+20
1.077177656e+20
1.065008301e+20
1.05008188e+20
1.040538529e+20
1.036190897e+20
1.028778787e+20
1.023543448e+20
1.011188096e+20
1.012162511e+20
1.004012298e+20
9.923540769e+19
9.859813677e+19
9.757755186e+19
9.698798816e+19
9.636209261e+19
9.552154399e+19
9.570475223e+19
9.496062835e+19
9.424778592e+19
9.397385719e+19
9.340047468e+19
9.310525341e+19
9.314228102e+19
9.246266979e+19
9.164620638e+19
9.127376193e+19
9.140808747e+19
9.124644746e+19
9.096205498e+19
8.9533658e+19
8.965598442e+19
8.91866186e+19
8.859685585e+19
8.800877035e+19
8.735166156e+19
8.687576928e+19
8.706471871e+19
8.663946429e+19
8.557652389e+19
8.505942148e+19
8.452722095e+19
8.343734432e+19
8.254570214e+19
8.126177805e+19
8.085407808e+19
7.877385586e+19
7.739780878e+19
7.481510853e+19
7.24239401e+19
6.939130219e+19
6.495851196e+19
1.010638725e+20
1.017075913e+20
1.021242686e+20
1.031299674e+20
1.042300171e+20
1.057297087e+20
1.075315512e+20
1.10253208e+20
1.122844636e+20
1.153542114e+20
1.184578033e+20
1.213626527e+20
1.248529761e+20
1.278158484e+20
1.305971513e+20
1.328344068e+20
1.352609921e+20
1.366993559e+20
1.383073514e+20
1.391160186e+20
1.398562351e+20
1.402011527e+20
1.396791232e+20
1.391908179e+20
1.387676978e+20
1.378239175e+20
1.366535964e+20
1.355237312e+20
1.340748411e+20
1.322152957e+20
1.303792587e+20
1.297488753e+20
1.273878358e+20
1.260608513e+20
1.241206084e+20
1.226995353e+20
1.208577407e+20
1.195399247e+20
1.184187601e+20
1.172812944e+20
1.156637513e+20
1.14567967e+20
1.12898974e+20
1.121227106e+20
1.110158165e+20
1.097044192e+20
1.090322051e+20
1.085151665e+20
1.074283633e+20
1.059059724e+20
1.053276341e+20
1.04436616e+20
1.040157711e+20
1.031345021e+20
1.022860421e+20
1.014447986e+20
1.000625547e+20
9.936666015e+19
9.909978049e+19
9.869181659e+19
9.779370768e+19
9.678129492e+19
9.597840528e+19
9.557453428e+19
9.499512427e+19
9.500102619e+19
9.419639747e+19
9.394557598e+19
9.315485803e+19
9.258450456e+19
9.227587576e+19
9.17428965e+19
9.155017712e+19
9.068492284e+19
9.073967207e+19
9.013685079e+19
9.003670175e+19
8.880545797e+19
8.842300686e+19
8.783508517e+19
8.76818844e+19
8.70705835e+19
8.599598667e+19
8.513895096e+19
8.475669344e+19
8.385252013e+19
8.328752834e+19
8.225696672e+19
8.173343051e+19
7.958464907e+19
7.828741204e+19
7.660571603e+19
7.442164817e+19
7.10734523e+19
6.740318081e+19
1.010462066e+20
1.010169981e+20
1.017230068e+20
1.023334289e+20
1.03157814e+20
1.043335865e+20
1.056340264e+20
1.068220487e+20
1.083500702e+20
1.107427728e+20
1.130970803e+20
1.15906474e+20
1.183789371e+20
1.217179136e+20
1.246848531e+20
1.278491733e+20
1.304788077e+20
1.334965926e+20
1.356183978e+20
1.368821793e+20
1.382446189e+20
1.400456957e+20
1.407836061e+20
1.41090176e+20
1.40796871e+20
1.403848944e+20
1.399539602e+20
1.39133899e+20
1.381944387e+20
1.368964731e+20
1.353227566e+20
1.336092839e+20
1.321783331e+20
1.308673843e+20
1.292388524e+20
1.274563031e+20
1.266949268e+20
1.248087717e+20
1.233556899e+20
1.216261612e+20
1.200022749e+20
1.18996296e+20
1.177586292e+20
1.162470537e+20
1.153293174e+20
1.142250806e+20
1.129522407e+20
1.114808469e+20
1.1034669e+20
1.093821987e+20
1.084233323e+20
1.07555663e+20
1.061634283e+20
1.052582372e+20
1.048918497e+20
1.038978661e+20
1.027140497e+20
1.018603107e+20
1.014590871e+20
1.00505308e+20
9.919785403e+19
9.865407538e+19
9.783226933e+19
9.748370773e+19
9.697098531e+19
9.609489113e+19
9.56199265e+19
9.509214055e+19
9.445539605e+19
9.388768032e+19
9.327649961e+19
9.309373333e+19
9.271542719e+19
9.222138701e+19
9.156775403e+19
9.120933704e+19
9.04541494e+19
8.986424088e+19
8.940784166e+19
8.878631449e+19
8.789136182e+19
8.725337977e+19
8.670374086e+19
8.624056621e+19
8.544401891e+19
8.481302452e+19
8.385908579e+19
8.315367247e+19
8.180725577e+19
8.10348338e+19
7.925669243e+19
7.72545123e+19
7.516189987e+19
7.253995075e+19
6.953162648e+19
1.004130426e+20
1.009305009e+20
1.009598321e+20
1.014897821e+20
1.021940254e+20
1.027083441e+20
1.036336623e+20
1.047553781e+20
1.057960697e+20
1.073446055e+20
1.093676352e+20
1.114896772e+20
1.141160195e+20
1.170638794e+20
1.201456548e+20
1.229705631e+20
1.257355445e+20
1.283609171e+20
1.309534966e+20
1.336898878e+20
1.3598773e+20
1.379688695e+20
1.390251161e+20
1.403191418e+20
1.411667826e+20
1.414647499e+20
1.418703985e+20
1.411177085e+20
1.407451912e+20
1.402141959e+20
1.396195516e+20
1.384213272e+20
1.37548872e+20
1.359674914e+20
1.342238517e+20
1.328774196e+20
1.310725493e+20
1.298102517e+20
1.284810306e+20
1.269951402e+20
1.255655337e+20
1.244030588e+20
1.227238378e+20
1.213961806e+20
1.197385329e+20
1.179840207e+20
1.168123557e+20
1.156947698e+20
1.145635697e+20
1.13351414e+20
1.122713384e+20
1.110299344e+20
1.096823379e+20
1.085293468e+20
1.075061927e+20
1.066796264e+20
1.057487631e+20
1.046064674e+20
1.034332724e+20
1.025219826e+20
1.019746969e+20
1.009481413e+20
1.004372596e+20
9.954481332e+19
9.891518154e+19
9.812566238e+19
9.750354317e+19
9.704070302e+19
9.62113458e+19
9.569218879e+19
9.534214849e+19
9.496355041e+19
9.41345894e+19
9.393427071e+19
9.352569454e+19
9.296859233e+19
9.241700701e+19
9.13723556e+19
9.129337599e+19
9.056084016e+19
8.947774179e+19
8.868349465e+19
8.785535323e+19
8.729755127e+19
8.711691755e+19
8.625044647e+19
8.515740118e+19
8.426182133e+19
8.345952605e+19
8.214209461e+19
8.0852395e+19
7.900163379e+19
7.680729509e+19
7.445546144e+19
7.166137149e+19
1.007133481e+20
1.008317901e+20
1.006652018e+20
1.009370981e+20
1.009733368e+20
1.014068449e+20
1.02020794e+20
1.031701875e+20
1.045474767e+20
1.057340407e+20
1.068086537e+20
1.079550532e+20
1.102453326e+20
1.122840139e+20
1.147785101e+20
1.171901264e+20
1.206182522e+20
1.237118462e+20
1.262151101e+20
1.292578703e+20
1.319228399e+20
1.341095898e+20
1.365307016e+20
1.385987617e+20
1.400361513e+20
1.413786978e+20
1.422790231e+20
1.425507888e+20
1.42937489e+20
1.427752133e+20
1.424127753e+20
1.421929166e+20
1.412205634e+20
1.406506801e+20
1.390694331e+20
1.377906277e+20
1.367488208e+20
1.351977759e+20
1.338724464e+20
1.320277742e+20
1.30265697e+20
1.287267357e+20
1.273319848e+20
1.255370578e+20
1.242547141e+20
1.233464413e+20
1.217456843e+20
1.200086861e+20
1.185313023e+20
1.176222027e+20
1.162822005e+20
1.153678735e+20
1.142154943e+20
1.129341568e+20
1.112686241e+20
1.099766571e+20
1.094107024e+20
1.082126961e+20
1.072227813e+20
1.061787597e+20
1.054930925e+20
1.04779073e+20
1.040933236e+20
1.027492154e+20
1.016759501e+20
1.008331508e+20
1.000577421e+20
9.932934393e+19
9.850976216e+19
9.805464198e+19
9.741457387e+19
9.70411265e+19
9.64132517e+19
9.605551042e+19
9.526466572e+19
9.504083024e+19
9.42181731e+19
9.306830429e+19
9.264415503e+19
9.183697074e+19
9.139395893e+19
9.079933916e+19
8.997221905e+19
8.915210293e+19
8.864274238e+19
8.717384981e+19
8.638772875e+19
8.558435221e+19
8.458428864e+19
8.36315852e+19
8.212373304e+19
8.0502483e+19
7.890549954e+19
7.654437168e+19
7.398639917e+19
9.995283585e+19
1.002747698e+20
1.004635395e+20
1.005919059e+20
1.011799048e+20
1.017302881e+20
1.021770931e+20
1.025211851e+20
1.02995449e+20
1.038213086e+20
1.048706997e+20
1.061422765e+20
1.073729457e+20
1.09069788e+20
1.11350413e+20
1.136459135e+20
1.156560141e+20
1.182586507e+20
1.212098113e+20
1.239267863e+20
1.268709514e+20
1.296570526e+20
1.325423081e+20
1.34955858e+20
1.369272864e+20
1.388707404e+20
1.406714286e+20
1.422794858e+20
1.431868982e+20
1.440469925e+20
1.444860141e+20
1.439748961e+20
1.436014143e+20
1.430880299e+20
1.422202315e+20
1.41375287e+20
1.403185907e+20
1.391392701e+20
1.381936212e+20
1.367080064e+20
1.352869552e+20
1.337409725e+20
1.321493305e+20
1.308888413e+20
1.293025389e+20
1.275425561e+20
1.260618508e+20
1.247006274e+20
1.231620696e+20
1.221216764e+20
1.206271348e+20
1.196126325e+20
1.183077555e+20
1.16962342e+20
1.155409907e+20
1.14480426e+20
1.138546072e+20
1.127325645e+20
1.11414967e+20
1.098166571e+20
1.087738379e+20
1.0824736e+20
1.071338892e+20
1.056968783e+20
1.048190312e+20
1.041215045e+20
1.029004868e+20
1.019849483e+20
1.014538008e+20
1.004815933e+20
9.967641566e+19
9.915504509e+19
9.862318518e+19
9.781014915e+19
9.7389105e+19
9.693669949e+19
9.601348087e+19
9.484858793e+19
9.425127914e+19
9.387567682e+19
9.309695548e+19
9.20985479e+19
9.137175083e+19
9.020025169e+19
8.976842613e+19
8.901657561e+19
8.845161321e+19
8.740947713e+19
8.622915785e+19
8.493566339e+19
8.411735352e+19
8.237285472e+19
8.029086105e+19
7.849958501e+19
7.55802529e+19
1.003794623e+20
1.001786075e+20
1.004612532e+20
1.004732407e+20
1.007092882e+20
1.008429284e+20
1.012040212e+20
1.014991627e+20
1.022498594e+20
1.027288128e+20
1.035349627e+20
1.047331321e+20
1.057345796e+20
1.070402611e+20
1.082307173e+20
1.098730726e+20
1.11919387e+20
1.14339934e+20
1.168993767e+20
1.19190778e+20
1.219483966e+20
1.246238293e+20
1.273100115e+20
1.29959435e+20
1.330594131e+20
1.354858266e+20
1.380827577e+20
1.398610883e+20
1.411879233e+20
1.42655237e+20
1.434898325e+20
1.44501202e+20
1.44868422e+20
1.452312139e+20
1.453664979e+20
1.446957578e+20
1.441120603e+20
1.429835261e+20
1.420999636e+20
1.41332339e+20
1.399617481e+20
1.384685039e+20
1.372048444e+20
1.357285659e+20
1.342753013e+20
1.326287855e+20
1.311845868e+20
1.301379644e+20
1.288309888e+20
1.271832127e+20
1.258415395e+20
1.241903855e+20
1.228364368e+20
1.213504866e+20
1.201160484e+20
1.191221076e+20
1.176549103e+20
1.164222302e+20
1.153604933e+20
1.141037589e+20
1.129351027e+20
1.117817378e+20
1.105806293e+20
1.09694037e+20
1.08407839e+20
1.074555109e+20
1.067169025e+20
1.054980066e+20
1.044848896e+20
1.0372452e+20
1.024197077e+20
1.018206225e+20
1.011622319e+20
1.002600585e+20
9.989060434e+19
9.922102709e+19
9.873639255e+19
9.802088121e+19
9.671082966e+19
9.57570941e+19
9.536938592e+19
9.438403802e+19
9.345125318e+19
9.260830244e+19
9.179339216e+19
9.082419466e+19
9.033265837e+19
8.914215771e+19
8.827787196e+19
8.708188162e+19
8.605504419e+19
8.429712405e+19
8.278001591e+19
8.088921587e+19
7.874830905e+19
9.97780267e+19
1.001697123e+20
1.001818743e+20
1.003267682e+20
1.002581741e+20
1.004181475e+20
1.006329311e+20
1.008827858e+20
1.01309337e+20
1.01660494e+20
1.020847628e+20
1.027605426e+20
1.035935996e+20
1.044654831e+20
1.060060917e+20
1.073043823e+20
1.086450343e+20
1.104377564e+20
1.124258144e+20
1.145377376e+20
1.170320056e+20
1.193827583e+20
1.222784197e+20
1.252071468e+20
1.276208569e+20
1.304708447e+20
1.33111913e+20
1.356155137e+20
1.380111588e+20
1.400795294e+20
1.418978883e+20
1.432336688e+20
1.443310014e+20
1.447597202e+20
1.451884469e+20
1.454719691e+20
1.453137867e+20
1.455103536e+20
1.446613742e+20
1.441216289e+20
1.43410913e+20
1.423602436e+20
1.41294577e+20
1.40391041e+20
1.393577006e+20
1.381258397e+20
1.365856731e+20
1.350709931e+20
1.33260087e+20
1.31832129e+20
1.303204633e+20
1.290769256e+20
1.273190881e+20
1.2593557e+20
1.243577782e+20
1.230918337e+20
1.220910088e+20
1.207531189e+20
1.1959945e+20
1.187785534e+20
1.168051767e+20
1.154388979e+20
1.144710565e+20
1.132459993e+20
1.119599901e+20
1.105929055e+20
1.09627205e+20
1.085187335e+20
1.079909926e+20
1.068904756e+20
1.06372598e+20
1.051892471e+20
1.03833294e+20
1.031839554e+20
1.021826223e+20
1.016644884e+20
1.008509686e+20
9.992970412e+19
9.897749894e+19
9.837595203e+19
9.742340995e+19
9.677453681e+19
9.575722118e+19
9.501729029e+19
9.409372397e+19
9.374315315e+19
9.251653675e+19
9.128776042e+19
9.016904457e+19
8.981172924e+19
8.834107133e+19
8.722240804e+19
8.583623684e+19
8.363368281e+19
8.095132546e+19
9.973991711e+19
9.97320285e+19
9.967110298e+19
9.963943783e+19
9.989079164e+19
9.995754215e+19
1.003258735e+20
1.004710322e+20
1.006650477e+20
1.011900174e+20
1.01585402e+20
1.02186179e+20
1.025120009e+20
1.031850598e+20
1.04170824e+20
1.051670311e+20
1.059985909e+20
1.075608786e+20
1.090038428e+20
1.10688217e+20
1.129181782e+20
1.147749606e+20
1.168735299e+20
1.197486096e+20
1.225385446e+20
1.251506254e+20
1.278666179e+20
1.306762467e+20
1.336366458e+20
1.359712956e+20
1.382689799e+20
1.405863768e+20
1.426825402e+20
1.44165406e+20
1.452346943e+20
1.459491633e+20
1.461609956e+20
1.465978882e+20
1.464647206e+20
1.464969253e+20
1.459910234e+20
1.457383672e+20
1.453966308e+20
1.441862535e+20
1.428358386e+20
1.418278265e+20
1.406203349e+20
1.393444877e+20
1.376435661e+20
1.361545644e+20
1.351835678e+20
1.33560115e+20
1.323062296e+20
1.313132263e+20
1.299161842e+20
1.280784085e+20
1.266790939e+20
1.251023667e+20
1.237589642e+20
1.223185869e+20
1.211769399e+20
1.199059196e+20
1.18465656e+20
1.171314781e+20
1.162096395e+20
1.152368773e+20
1.139242194e+20
1.128263582e+20
1.117051469e+20
1.104139286e+20
1.092972569e+20
1.084355403e+20
1.073309419e+20
1.063004569e+20
1.052573043e+20
1.040916015e+20
1.03112403e+20
1.025496716e+20
1.016724184e+20
1.009639911e+20
9.990020695e+19
9.927441647e+19
9.795220119e+19
9.700260943e+19
9.584822623e+19
9.507287516e+19
9.459515243e+19
9.407378835e+19
9.314138449e+19
9.192645418e+19
9.0790021e+19
8.920407218e+19
8.758621799e+19
8.611491594e+19
8.370577214e+19
1.004354061e+20
1.00370237e+20
1.003452641e+20
1.00386593e+20
1.007031162e+20
1.006372293e+20
1.008811428e+20
1.009778936e+20
1.010873078e+20
1.010519262e+20
1.014406381e+20
1.015196702e+20
1.020219288e+20
1.02321115e+20