/*--------------------------------*- C++ -*----------------------------------*\
| =========                 |                                                 |
| \\      /  F ield         | OpenFOAM: The Open Source CFD Toolbox           |
|  \\    /   O peration     | Version:  v1706                                 |
|   \\  /    A nd           | Web:      www.OpenFOAM.com                      |
|    \\/     M anipulation  |                                                 |
\*---------------------------------------------------------------------------*/
FoamFile
{
    version     2.0;
    format      ascii;
    class       volScalarField;
    location    "0.04";
    object      rotationalT_N2cold;
}
// * * * * * * * * * * * * * * * * * * * * * * * * * * * * * * * * * * * * * //

dimensions      [0 0 0 1 0 0 0];


internalField   nonuniform List<scalar> 
6000
(
299.6468758
300.4416662
302.6022403
307.7908565
327.8660455
300.8342599
302.1765782
304.0224364
311.6731665
326.8288078
300.5193809
302.2087428
303.6863104
309.9549024
318.2752394
299.864474
301.3351275
303.3866659
307.3656539
314.5533231
300.6267121
301.2035664
303.2664468
307.0178978
311.4595552
299.7182462
300.7116755
301.2353731
304.2812201
307.2552347
300.5420446
300.3087807
302.0008149
303.9719431
305.6872998
300.7246958
301.7715872
302.6437718
302.4390564
304.5706541
299.5193072
300.0269754
300.7818635
301.778296
302.3053047
299.7736838
299.6296138
299.3765464
300.851833
302.7367606
300.5116317
301.0126563
300.7971108
300.947151
301.0498591
300.2298809
299.9650295
300.1004342
300.5232495
300.279022
299.8075287
300.2030299
299.963441
300.5810971
301.2267729
301.408729
302.4861685
303.0151349
302.9534005
303.0087157
300.3464873
300.1361093
300.2407164
300.2794414
300.4127242
299.0373287
299.963118
300.6591261
301.3179779
301.4745509
300.4056313
300.5807296
300.4348316
299.4062907
299.5436786
300.0352772
299.7492062
300.3790225
300.3305096
301.0650148
300.2009932
300.0953427
300.7558358
299.8970796
299.9570081
300.2797211
300.6893666
300.4557258
300.4478856
299.5915525
300.3943128
300.7140221
300.3903501
300.864534
300.6894185
300.0271373
299.6208523
300.1318634
299.5711156
300.4111695
300.2498716
299.9079245
300.5580901
300.0436123
300.4669339
301.0234844
301.2784838
300.8718555
300.9385825
300.2088475
301.6018813
301.3263842
300.7394938
300.7046731
300.7260095
300.0225482
301.0314117
301.5813156
300.6248294
300.9891029
300.0127338
299.9088593
299.7592287
299.5051086
300.129326
299.2282211
299.2667128
298.7399301
299.464443
299.2872213
299.8765926
300.2955088
300.3858448
300.9163367
301.2347164
300.3082393
300.5874988
300.5380478
300.6439124
300.1136082
300.3264566
300.1962389
300.6085356
300.4333831
301.1021572
300.2213811
300.0535981
300.576111
300.7892926
300.97079
300.3883814
301.1330808
301.0272717
300.7728373
301.0372448
299.5956134
299.7396604
300.6270373
301.4176355
301.2430635
300.6124524
300.9294255
300.8288313
300.3723206
299.6993583
301.0682199
300.8160661
300.9797487
300.7286591
300.5778772
299.7251732
299.7721838
299.3719889
299.2338164
299.5881648
299.2177709
299.2268445
299.2200535
300.1632121
300.7194588
300.6656018
301.0192609
300.4356989
300.4384575
300.3012355
300.3383193
299.9471428
300.4519085
300.2272567
299.5940121
299.4472719
299.535735
299.828784
299.8433488
300.3932313
300.1117448
299.9336594
299.7524203
300.0571215
300.1369208
299.1719472
299.2906877
299.5175996
299.9702285
299.5918541
300.330609
300.1794741
300.1488394
299.7246525
300.5523795
299.9332384
300.0850625
300.43489
300.4270025
299.7194911
299.1486359
299.3895271
299.7076553
299.7890741
299.8359721
299.8482822
299.570636
299.5295755
299.325315
299.2228093
300.0189632
299.7489358
299.5140903
299.5674403
300.17908
299.3507343
299.7757807
300.2650622
300.4134226
300.2029361
301.1734286
301.1288302
300.4463112
300.0335532
300.278496
300.1929599
301.2013761
300.9352059
301.1545723
301.3973849
300.3150139
300.6512039
300.2866701
300.4617031
301.2916629
300.1751966
300.077077
300.5714387
300.6102388
300.4003017
300.7222839
300.6540058
300.3094709
300.1596125
299.9054208
300.0088532
299.8407599
299.7287139
299.825782
299.8001732
300.2899627
300.4429828
300.6891273
300.6513883
300.7411079
300.6809784
300.384684
299.7664177
300.080581
300.0188886
298.5819789
299.1615322
299.3028555
299.6212812
300.0362003
301.127074
300.3319781
300.003453
299.0801028
299.4764092
300.6968748
301.0333529
301.1658632
301.234911
301.1023553
381.3509464
412.5226725
439.3286579
458.9415771
474.3166068
486.8529415
496.114707
505.6866863
511.6798406
520.0931841
527.5077561
531.0444365
543.2218193
543.202389
544.5171022
547.7100927
547.3164684
549.7150698
552.293908
553.5716253
554.9226125
559.1100751
557.5150341
557.7424222
556.2052092
557.1200741
559.6588285
562.9662565
561.5789634
564.480489
563.4280874
564.7803499
560.7572397
564.4476355
559.1939633
560.3792588
560.4627997
566.0217314
565.3480913
561.5759896
561.3319249
565.276595
560.5167132
561.4199552
560.3378538
560.3576736
561.2814172
561.3444813
562.0892319
561.6310808
563.6394798
566.0414955
562.3108835
561.728834
562.8413326
561.7864243
566.8019061
561.7117338
560.9940658
557.8811896
558.4538231
561.5072169
557.7918598
554.7180958
557.1508688
558.3763142
557.5902807
557.2806383
554.3126095
559.7195605
553.8868072
558.20874
555.3935769
558.6924191
557.3241797
552.2869687
556.2308494
553.1668102
556.1917823
559.7455564
553.5989295
553.1930424
557.3568114
553.4637697
551.4339971
554.7802637
554.3323276
551.8615878
554.0402901
551.2711815
550.9709932
546.3733547
547.2559633
544.7875766
549.6243261
353.1286944
379.1988789
398.9920935
419.4399927
437.0106285
455.7185664
471.2893175
483.2988832
495.3746726
507.6748722
517.6002469
522.2014007
531.2579025
535.2251389
539.3070139
543.5107304
552.280385
560.738157
563.245621
564.067852
566.6462168
564.6585206
570.8239766
572.1933169
578.0202021
581.2479849
579.838147
579.9614705
580.5081235
583.7161949
584.558243
586.5399875
584.662933
581.5237638
580.8787697
580.8488595
583.4191656
583.335437
585.3429797
581.0592176
586.7823391
588.1412772
585.6006165
585.1789787
588.976726
586.0998287
585.6436291
582.8639905
579.7817834
585.1137038
587.8925538
589.1114953
585.2437247
581.4418301
586.0461758
585.1690945
582.1550155
586.5729354
583.2396063
581.3999417
578.6932825
578.9734625
579.4362537
578.4830004
578.0773251
576.1413578
580.5697606
577.4339636
577.7155844
578.7563603
581.6657539
576.900432
577.6057236
575.1700562
573.2673172
576.3779086
572.0997819
566.8764604
573.4426061
571.1016045
571.8630208
570.9031786
569.4204532
570.9850689
575.871276
571.4078588
570.4425828
568.4492975
569.5762366
567.4289307
559.9749087
559.4730798
560.8219315
562.1707602
564.8384403
334.0188534
353.0685269
372.9553774
392.7722397
407.065351
421.147662
437.7753848
452.5500386
465.4418616
479.8865037
488.2809103
500.3258175
511.3637684
521.672515
526.372131
533.4339932
540.5986677
547.9070457
554.1875795
557.6095811
562.8902461
566.2722952
568.333947
575.1621869
572.7897913
578.6993608
583.4030344
581.3079938
586.1231486
586.0995337
590.6198008
591.4180416
590.4698865
588.3432955
588.6171608
593.0505875
593.9032088
598.747422
599.483939
597.7873453
597.5845681
598.1601576
594.9883559
595.4372678
597.4838501
595.1481558
600.686099
597.0994517
593.3488765
597.8756136
597.5817958
602.6497813
599.4709692
599.0426659
600.7018645
597.9448061
591.5153526
597.7749607
593.625919
592.9287557
594.5470512
593.2809579
590.29235
592.6469477
593.4923315
593.7181652
594.902386
592.3686464
592.2923108
594.4791987
588.8724378
592.3255929
589.3086074
586.3029408
587.4830572
583.167783
585.7581899
588.3088907
586.7746692
587.3720238
585.6956249
584.0789167
584.6455335
584.7340605
587.1084585
585.7609892
583.1280533
584.1344371
579.3620568
574.5474574
580.0040959
573.1152234
571.1615574
569.7447862
570.1442312
323.8235986
336.1560934
351.0345418
366.7102695
380.3914037
393.2145508
408.1472545
419.9477835
432.5940954
445.5353724
461.9302577
471.6447228
482.0915039
491.7787664
500.4632735
510.0471611
519.1748499
526.2859575
532.9751055
538.6052137
543.7242313
548.6912031
558.2864977
559.2148065
564.5347867
566.370182
571.4059245
577.6286494
581.4612688
584.7084273
588.9852481
592.0309212
590.2465426
588.4376661
588.0754017
594.1116522
594.302806
596.6687635
598.1030612
596.9626704
598.6864126
599.1305035
604.2594867
602.7054464
604.4751182
607.0418295
604.4335075
602.2123713
602.7725457
603.9670239
606.6912528
605.408287
606.6631358
607.9991681
603.4056224
608.3378049
601.8329081
604.2148695
599.8385022
602.1028224
603.9434031
602.2235813
602.5784114
605.1539676
604.5525245
602.7567906
602.7453491
603.4331018
601.4537908
597.4684025
601.3712744
599.7675695
598.5366196
594.8763802
598.9182275
595.7911141
598.3758681
599.2441233
598.4530102
593.4261386
596.7807744
592.759495
600.6773955
598.7234648
596.4348925
593.3573309
593.0666251
592.2459525
587.6818382
586.1655081
589.3301482
581.8288856
580.5184327
579.1247173
578.4260291
317.2526011
324.7292264
333.9053171
347.0709454
360.0760509
373.7069222
385.8958488
398.0173966
409.3361438
419.7998287
433.5189126
444.0401295
452.7180914
464.5855929
473.6851363
481.5208087
493.6326031
503.6009596
511.5199609
519.9403976
523.4930508
531.9466024
537.8250577
544.4603769
551.2713016
556.7025327
559.6498577
562.3711354
567.1462909
572.9626127
578.6934181
578.8229183
582.6886482
586.0051802
587.937839
588.328723
591.4788002
595.6794615
593.235081
593.89888
597.5344253
597.8717747
600.8128317
601.9566951
603.1364914
607.5603735
604.1844397
602.0866813
602.743004
604.6825787
609.8035109
610.7243007
610.3210572
607.5539137
605.1766629
611.9328246
607.855128
609.6457973
609.7217247
609.8553894
613.5796831
608.2748512
608.2754862
607.1595357
609.917319
609.837331
613.4113192
616.0027351
609.4910745
608.7178331
604.6095852
606.0480872
604.454121
608.067855
608.5926094
606.7972199
607.1986951
606.1889822
600.1214796
601.8716603
606.8063081
603.6258059
606.167495
602.3974716
603.7740206
600.0003032
602.4937009
599.1204779
597.6163533
594.7718915
593.5205118
588.8373196
583.8321287
584.3686577
579.7124422
312.3136232
318.2416325
324.32631
333.326224
341.7689772
353.0652943
364.5247066
375.2322327
384.9300565
394.7758629
405.6633563
418.1089305
427.8356028
437.9851559
449.0182282
456.5715648
465.944889
476.7133554
485.915209
492.4517159
502.0032621
510.1022295
517.6342286
525.5230294
529.89766
535.9735953
540.0411154
546.5452648
551.4189642
557.4169853
562.3624509
563.4774895
571.6495711
574.7378789
576.6242202
580.3542159
583.51314
585.9171044
588.5546185
588.3924241
590.3003448
591.3523981
594.5687435
596.5922694
596.919508
599.8989863
600.6782077
601.2084356
606.1326254
608.4693364
607.7941969
610.3286632
609.0673483
610.3630517
607.8348193
609.7981644
607.5100118
612.7646131
610.2038152
609.5625098
615.5590575
612.0486768
608.1671342
607.2766201
611.2548904
612.6690126
613.147062
612.8192096
609.3198438
613.0408295
609.7465953
608.2644486
613.092353
610.7161363
611.4269053
612.8739408
611.4985733
605.7626637
609.7713506
609.9865754
611.1256982
605.9559128
606.0937488
609.905164
608.1620393
605.7769872
606.8914968
605.3140034
598.8785789
600.9003738
602.6222339
593.5167095
592.6867234
585.6575439
585.8504026
307.7870235
310.5327171
314.8584424
321.7317626
329.3370559
338.1991714
345.3799451
355.6126428
365.1823134
375.4481624
385.079659
394.354321
403.4797238
412.6034494
422.3742484
432.4189383
442.4964683
451.9526611
461.2170331
469.1050752
477.3841593
486.8007322
493.5395605
501.5069067
507.4114963
512.6102485
519.83182
528.8597288
535.9708965
538.6794466
541.8810087
548.0426305
552.0354382
558.7966549
560.7875406
563.81245
565.7076608
571.3808842
577.4022706
579.7704428
586.3099258
586.6446022
585.9391884
587.8726015
590.5738968
593.7250504
594.3410413
599.1081186
598.3436128
599.8962768
603.3368368
604.4202342
603.1859061
605.0558193
606.5894084
606.2151311
608.3486487
611.4890136
611.3826995
614.5703542
608.7506516
611.1038674
605.9114892
605.2543945
607.9612514
610.5496509
608.1487706
613.6840628
614.0039083
614.6651516
616.1854316
612.3741
614.2655017
613.9256253
616.0519774
616.3291417
613.817805
612.6548017
613.8874434
613.6786839
613.5990248
609.8231591
608.1207176
610.3283905
611.175011
610.0536479
608.652901
605.5320269
603.4046236
603.1762496
605.2886369
603.3321223
594.9245201
593.019565
586.5376018
307.1469516
309.9264416
313.0495958
318.1420569
321.5958878
329.2377714
335.1643112
342.3317994
349.9454489
359.1860888
367.4823493
375.6063433
384.4715275
392.0425537
400.5619649
408.6632378
416.331194
426.149478
435.6349473
444.6782582
451.7520188
461.7088877
468.1461302
476.7671837
484.5432194
490.582618
496.8678298
503.3857938
511.1818096
515.5696493
521.9283771
529.2416611
534.9287737
540.1075468
544.7573796
548.9349429
550.6920344
556.3842962
557.1359835
562.7808409
566.2263327
570.1027052
575.0741027
578.2639188
577.5510275
579.7508963
582.1438603
586.8436457
587.8284645
587.3949696
591.1914492
591.7277377
595.1669226
596.7027176
598.1570523
599.1661489
600.9619081
598.1824091
603.8636161
605.0145121
603.8205329
604.1355932
606.7462874
602.6106533
608.1529141
607.4607482
609.5859014
609.9696193
611.180164
613.5331568
612.9523623
611.4086135
613.7712395
615.603508
610.8556825
614.6337275
613.3130358
613.7947376
613.0243564
615.9296759
615.4836989
614.0252061
611.9344787
611.4528835
611.5380055
611.593725
611.4830834
605.295451
604.0276602
603.3835304
600.3608654
598.4420682
596.86842
591.4852024
588.8466111
304.004807
305.9457558
307.6997845
311.4930459
315.2056253
319.0436219
325.6161132
332.2029748
337.4865272
343.0992781
350.6716314
358.0402403
366.2748786
374.1468611
381.4766918
389.2082591
396.7140527
405.2561107
413.3044858
421.5509437
429.8792339
435.9901404
445.2532623
454.8000289
461.8396922
468.4812584
474.5928269
481.7268379
487.5187909
495.9420826
501.9940113
505.8427393
512.1153334
516.9733323
522.0630216
527.6562666
533.1293904
535.687765
539.4003544
546.2965512
551.2495469
553.0503118
555.0936579
558.8247369
562.9789296
567.5150658
570.753625
574.243036
573.932954
578.4959986
579.2817802
582.1881299
585.9013814
585.2201655
588.0637117
592.2729914
594.9414687
594.8563842
594.4968981
598.4431207
600.66193
601.5394829
607.821896
605.7586611
602.8322671
607.9905552
604.2833775
604.950064
604.9947328
606.5478805
607.9634409
611.8932943
608.4828062
609.2245346
611.9526027
611.3971254
612.6806524
612.6779838
612.0252298
617.8814835
613.0403015
613.9546077
612.2581612
610.7583545
612.3232735
611.6651724
612.09151
609.752981
611.4392024
604.1871528
604.9694357
599.31415
592.0809087
591.1296617
589.1828409
302.75259
303.2643007
305.5285109
307.9607015
310.60734
312.7871148
315.959347
320.2404952
325.8637414
332.4341436
337.608548
343.9016899
350.5883112
359.2559014
365.023015
373.6937894
380.875674
387.0484305
394.0305789
402.2864158
411.1630037
418.3288743
424.8680762
431.802559
438.7748941
445.8079758
453.8065759
461.8451364
467.2754949
473.5984588
480.0566626
485.5081412
490.5242258
496.8206481
502.766425
507.9080738
511.6100523
518.5428989
523.2461395
526.02216
531.7054617
535.8798342
541.7018246
544.4867537
547.6715315
551.0460072
557.5909886
557.8536504
560.8497534
564.7274616
567.9989751
572.5091736
572.1745582
575.7118417
578.703344
580.18655
581.9308298
585.9595811
583.8125214
587.6214431
592.1908191
591.5943181
592.1388969
597.0242823
599.6529044
597.1128706
597.6701558
598.6643636
600.5756602
601.3723629
602.3280106
604.3652447
603.4362519
602.6683792
604.7270271
606.7865799
607.7508171
606.5386002
610.414464
608.5612842
610.4693264
610.2763214
607.6601399
607.5622938
608.0783517
608.5320467
607.9159546
605.0194166
603.8685698
599.7477486
602.0178797
601.2496271
599.2400838
600.2021509
588.4348586
302.0249049
303.0387969
304.0870845
304.7693795
306.6648761
309.8084624
312.7009739
315.3745264
320.6772995
324.846664
329.5763545
333.5209254
337.4235902
345.0074679
350.4762005
357.6616886
365.5842793
371.9499539
379.4616846
385.8093973
392.5983597
400.8620966
406.2792486
413.5617468
420.2903874
427.265969
433.4297266
440.6178448
446.4605393
452.6157971
460.2766478
466.500575
471.2321538
476.3989106
481.8769438
489.9257579
493.4784892
498.5556781
504.4425795
509.6215558
512.2031957
517.2054088
522.0052483
527.7049896
530.491496
534.3825708
539.1618104
542.163361
545.3766528
548.2608404
554.2033454
559.4380149
560.097775
562.0221283
563.7061711
567.5547373
570.927121
572.4421343
576.3046181
576.3268796
581.0330868
582.5235902
585.7146896
586.5420183
587.1326308
589.0968003
587.7075844
591.3105678
594.4076847
597.0445348
596.0221074
598.5076998
596.3681817
595.770694
595.6408112
599.3929897
597.2435042
602.0746933
602.11083
602.9106169
604.4546724
603.6644643
604.8182325
605.9951874
607.0367991
601.6966338
605.384374
599.627053
599.4810316
597.8607853
599.4056291
598.878905
591.9870211
590.2032435
582.4650833
301.4647154
301.4166849
301.991504
303.5617631
304.6189315
305.9938592
307.9827378
310.3768483
312.1694223
316.0496091
320.1978822
323.7272476
328.887314
332.659492
339.1703208
344.7029273
349.7916399
355.6698933
363.3989982
369.5868991
377.2265746
382.6620404
389.0412409
395.2409526
401.9717763
408.0324557
415.8895227
422.6218156
429.3441669
433.3353297
439.5143348
445.1796691
450.7811729
457.7837998
463.0605122
468.3608769
475.4426856
480.4139257
484.5029968
490.420181
494.7905253
497.3662103
502.0721492
507.4490032
512.824273
516.3497408
519.5854605
521.1727426
526.7040809
531.8290913
535.3519648
537.7404128
544.4528698
548.1829064
551.4043007
551.4740122
553.3234837
554.8023664
560.723683
563.0398681
565.5891527
569.5355604
571.7926158
576.5434512
578.2467129
577.1185026
578.9774026
581.9127191
583.3497212
586.1845551
587.1146825
590.8210649
589.8324768
592.1534177
590.8007297
593.8989716
595.2715361
596.5627345
596.7701908
593.9811812
596.2643242
594.2750223
597.1360495
597.8632221
596.4768153
598.8429479
599.2935886
598.6968838
595.801754
594.5549647
593.2100333
593.0058092
590.7965176
585.4412134
583.3814056
301.2155795
301.4426387
302.2668369
302.3423841
302.5788897
302.9693995
305.3755742
306.9218159
309.0807252
311.7890907
314.809667
317.8205927
321.6723396
325.0023921
328.5298259
332.7769606
337.8459754
343.3485255
348.0501851
355.0536057
360.6601552
367.5185167
372.6979602
379.429752
385.569265
390.7180829
398.7017857
403.9873127
411.4166391
417.3572857
422.9018414
427.8298157
432.2763617
439.1656705
444.593098
450.7429704
455.7037794
461.7257899
465.2702856
470.1174674
478.357257
482.8045234
485.9655311
489.3373711
494.5207895
497.7271108
503.8986881
509.1772929
512.3782907
515.7712552
522.2301665
524.7180916
526.940222
531.8856154
534.5967468
536.5553583
539.3068986
542.7742842
547.1292276
549.2781169
555.0636725
554.7488429
557.2152043
558.0185758
560.9031068
565.3266256
568.2556837
570.9024914
572.58698
573.020328
573.3485187
575.6453543
579.2677286
579.8650925
580.7636566
583.831838
585.5053581
586.8463387
586.1162648
584.6625372
591.1444119
592.1784512
588.6364373
590.327484
589.6579259
588.7326596
592.1533851
592.6166378
593.8997285
588.6404496
586.1867301
585.4766357
584.0932598
580.901491
576.9289319
302.8612528
302.1411176
301.431176
302.1031517
303.2018629
304.3810848
304.240054
305.6191569
306.1711029
307.3629278
309.1073152
312.0271474
314.6817929
318.9733238
322.5787268
325.1748544
329.8208223
333.8042728
337.8055587
342.2368148
346.8744094
354.2238328
359.5653798
365.2598581
370.9953151
376.7341823
383.0875032
387.8985787
394.9876484
401.3065643
407.6884562
413.2354738
418.5023925
423.2264692
428.3080103
432.8825394
439.1330879
444.9651132
449.4154891
454.3425453
458.2723165
463.9395693
468.4623739
473.3999155
478.338783
482.5163777
485.2605597
489.2324663
494.2789566
496.8494381
500.9958455
505.7550813
510.9047041
514.2348722
518.0438357
520.4524592
526.0548277
527.4649126
530.2702406
530.2557213
536.9436425
541.4836892
541.7855754
544.2249131
548.7789097
550.0413097
551.5131833
555.8247048
558.6640808
558.8809281
561.7545407
563.2775371
566.6643806
568.6006801
568.6904377
570.0415753
571.3081967
576.0686054
578.169406
578.1942132
579.7108675
581.7141283
583.8810412
582.8242108
582.8009239
585.7613277
585.0828136
588.103452
586.3446664
583.2483535
582.8774084
582.0969046
580.0674211
579.2781223
577.0398658
301.7423441
301.7170822
301.6989582
302.6374351
303.5362614
304.3396596
304.5257456
306.4994327
306.6644777
307.8342219
310.2011827
310.2861297
311.5648296
313.637013
316.0197883
318.6004221
322.3571661
325.4141326
329.885672
333.8769049
338.4723507
344.2567791
348.1930482
352.2469937
357.0137021
363.9588579
368.8068432
375.0039413
380.5006707
386.3356973
391.2890165
397.4593965
403.6805547
409.7310645
413.7134599
418.1990555
424.0941105
429.1739313
433.7960756
438.2748399
443.958045
448.7492016
453.0305379
457.4618094
460.7494031
465.9897492
471.3510835
474.1480649
476.8887868
482.2263924
486.0102022
489.6542553
493.3270489
496.5474712
500.8934267
504.7018247
507.9193941
510.5839379
513.358516
517.9618794
518.9630603
522.1484434
527.2787904
529.8747112
532.0941526
536.2926961
540.032531
540.1746826
543.3563369
545.794479
548.8449588
551.3064237
554.1891622
555.6314825
560.1771203
560.9850405
563.7754169
564.5333263
566.5779036
569.9297577
570.501434
571.385193
573.2534472
574.1443253
575.2497324
573.9659221
575.3702651
577.6952746
575.5740556
576.752946
574.8390538
574.5709732
572.1204075
568.6878914
569.2418294
301.2610588
300.7723329
301.1004726
301.6012275
301.3048479
302.8423004
304.0353435
304.4474543
304.3397523
305.350985
305.2837989
307.1176368
308.02483
309.6011013
310.5870551
312.4559488
315.5703855
318.4818219
321.4785257
325.4254705
328.2357212
331.8049823
336.7437511
341.8964928
347.1792863
351.0761847
357.0850694
362.4951664
367.5887117
372.2998383
377.3250479
383.5268356
387.6602302
393.503672
399.6111077
402.8273331
408.2732449
413.6998811
417.7292746
423.0060095
427.457451
431.9658993
435.5662661
440.4249958
445.0197634
448.8487156
452.7453034
458.0889673
462.4472622
465.4861399
467.6654603
473.4900171
476.7002995
482.1961331
484.4021953
487.3793011
491.7355463
497.2258395
501.0698862
502.4931659
506.3972633
510.2111003
513.4063347
516.5520021
518.7164927
520.9919373
521.7171171
527.197143
531.021707
534.1943678
536.7765222
538.1904319
540.9748499
542.8782336
545.9898799
549.3131911
549.2082389
551.2260643
552.6888357
554.5344381
557.1153775
559.6067944
560.2198489
563.469653
562.8140315
566.2095774
566.2488072
567.1053073
565.9774934
565.3462788
566.0139738
566.1011875
566.8724818
563.6012843
561.6435086
300.1899057
300.7896635
300.5979467
300.3401724
301.0367724
300.9857395
302.2663763
302.0077605
303.2569507
303.7165238
304.3307112
305.0138838
306.2613317
307.6837154
308.5791521
310.6139816
312.0584711
314.389382
316.4165277
319.900145
322.3183605
325.2512891
328.9907816
332.3954846
335.9561041
341.2790617
346.5007491
349.9693472
352.5471121
357.2841548
362.6924296
368.8999719
373.8236331
378.4069253
383.7128817
388.4519976
392.5758567
397.8432394
402.5492113
407.230029
412.4810152
416.4181335
421.3094628
425.1346234
430.015199
433.9979257
438.459624
442.3990635
446.6153984
451.1894656
455.6601458
459.6222851
462.5168388
467.2786471
470.5207001
473.5654399
477.951619
480.6477676
483.7597007
488.3662548
492.195648
494.5174455
496.8610324
500.4385054
504.3343795
506.5068635
510.0951963
513.6798735
515.1278631
518.9295419
521.7595101
523.2707657
526.8416981
529.8864565
531.3847551
533.402653
534.3795751
539.3944056
541.8564515
541.8278841
544.3907374
544.203233
546.6251674
550.0206277
550.7799265
552.562598
553.5094117
554.2708031
556.0219646
555.33203
556.0972601
555.209334
553.4704275
551.9652496
548.9193151
301.1661345
300.6892282
300.9992235
301.0664732
300.8369921
300.9236406
300.8973426
301.5082993
301.1299589
301.3418102
302.0850852
302.2248539
303.479688
304.607956
306.303157
306.9306463
308.1996047
308.9395958
310.2748498
311.4420958
313.7848237
316.9656952
319.4696683
323.9013354
326.6189442
330.3742234
334.5105652
340.0079373
343.8830363
348.2363317
352.0520701
356.3863596
361.2809761
367.0234087
371.9616739
377.2266895
381.8028749
384.53365
391.127762
395.1637129
400.7939085
405.4590481
409.5489986
414.3230869
417.9687586
421.6759921
425.7511139
429.3593199
433.7136546
437.020989
440.928506
444.234396
448.4420466
451.2297433
456.660814
459.9854785
462.0637852
466.4288708
468.990597
472.9928878
476.6056564
481.3389173
481.7957423
484.5142634
488.9008145
492.2208008
496.8683157
497.7029241
500.3826713
503.0672865
507.514889
509.6996618
511.3105416
513.6298301
515.7311546
519.7028186
520.9815364
522.8454239
524.7496609
529.6901604
529.7870029
533.3454219
535.5539295
535.9291506
538.5980751
539.8474755
540.9335175
541.5779226
543.1599867
544.0534683
541.198152
540.979025
542.0025768
542.1168032
540.1571038
299.5378772
299.8639942
299.7524841
299.1480794
299.4594247
299.6270732
300.8024741
300.2913741
300.6592157
300.8027651
300.1204572
301.0616055
301.4818407
301.796042
302.726858
304.6724542
306.0387277
307.9197919
309.3793019
310.2742543
310.8595548
312.4794834
314.0264143
316.5576896
320.4002232
322.9621152
326.2588433
328.7861354
332.4943538
337.1818429
341.239914
344.9579411
350.0430028
354.1032261
359.3167216
363.7126993
368.7029634
373.746937
377.9947202
383.1170967
387.4589291
390.6419824
396.3949662
399.6961373
405.8707876
409.4965326
412.3490023
417.2956521
421.1262436
425.0816179
427.8189155
430.8380915
434.195214
437.7879342
441.6395293
444.6000497
448.4436893
451.0408317
455.4283241
458.3370413
462.2397686
465.5928233
468.621207
471.6428582
473.6714902
476.8324523
479.5472277
482.434015
486.7693466
489.581165
491.301494
496.0238615
499.5698562
502.7973755
503.9118797
505.8809839
509.0730804
511.5196553
513.5778488
515.0273035
518.0166419
519.7020773
522.7744259
524.8750609
525.4541324
526.4662693
525.9659279
526.7536381
529.4183851
529.6245356
530.7074856
532.6711488
531.5741225
532.748158
531.6700425
300.5422222
300.2899009
300.5964061
300.5036743
300.2246129
300.6537894
300.7254505
301.8590493
301.6305233
300.914919
302.3306138
302.1202861
302.4219871
303.52776
303.8910717
303.3652812
303.4075519
303.6938659
304.7004765
305.6869483
307.1904498
308.5928207
311.3745496
312.9087877
314.4652952
316.7702612
319.8325262
323.2347261
326.1264076
328.3799516
331.962946
336.38657
339.5318217
343.6517807
347.7938787
352.9898438
358.0822982
361.4663683
366.2593256
370.95919
375.9975914
380.6338311
384.3686198
389.0967304
391.6848758
397.5314305
400.478649
404.3310496
407.7025513
411.4608333
415.1185487
418.352022
421.5923103
426.9039704
429.5787018
433.0505179
437.1348403
440.4951969
442.2769338
445.0965713
446.9447418
450.9747877
453.3667682
456.437871
459.2913491
462.873454
466.3352905
469.8168214
472.4097381
474.6102544
479.0723744
481.3718036
483.471285
487.0145249
489.8637856
492.486223
495.318316
497.3123904
498.2931965
503.0514438
504.6054187
505.431985
509.127416
511.2045613
513.8925209
516.3545461
517.4278158
519.2163728
519.7613753
521.042737
521.4481972
522.3163046
521.2379618
520.799883
518.7717814
300.0190924
300.0720497
300.220029
300.6917248
300.9786488
299.659645
300.047564
299.1877642
300.1309808
300.4722538
301.3736574
300.8820252
301.2624009
300.7695127
300.9490049
301.8108429
302.547908
303.3310554
304.0714907
304.856973
305.4539992
306.5788322
308.023659
309.0683892
311.1873672
313.1657871
314.5298829
316.3612123
318.3712252
320.7688757
323.7330496
325.9267727
329.654854
334.147162
338.3677245
342.411561
346.7942825
351.1447938
355.9414881
359.3115515
364.2127817
368.6358814
372.4955935
376.5617103
381.2461585
384.9062344
388.9230825
393.0411824
397.5788518
401.2195665
403.5785268
408.0047638
411.4267344
414.0565338
417.6332204
421.6185374
424.2221453
425.8015837
429.5485308
433.4658486
436.5468586
439.7597276
443.6078069
446.7869816
448.492201
450.8485692
452.6225677
456.261661
459.5616792
462.4851584
464.5954866
467.846772
471.09348
474.2344768
475.6799028
477.7731204
481.0050863
483.32783
487.6345767
488.4424098
492.5463649
494.7574919
495.0721511
498.9467073
501.7136787
503.0142438
505.0965034
505.8341659
507.0371371
508.7650744
510.1908625
510.351695
511.8495171
511.4988369
513.020196
300.6619191
300.3712532
300.7349094
300.7547955
300.281424
300.5067616
300.8222811
300.7812932
301.2062293
300.5340607
300.4252204
300.7621335
301.9021041
302.4689119
302.1626871
302.4594028
302.6208881
302.1694106
302.9904668
303.9382431
304.6337313
305.7309438
306.2154077
307.2413676
308.0801364
308.6049068
309.7137463
311.5413459
313.6138078
316.4364487
318.9146201
322.2823926
324.1360021
326.2723376
328.886127
332.533193
336.1691266
339.6686685
343.8972164
347.5443462
352.0851237
356.0440486
360.6847523
365.3161906
369.390853
373.7711665
378.0145386
381.8061306
386.2904309
390.2901336
394.9663367
397.8429347
400.7809939
404.309408
407.0533398
409.2057864
413.0933175
416.3209147
417.9078362
420.9182594
424.4923744
428.3921193
430.2934175
432.5447098
435.9608644
438.7357302
440.6655842
443.2946756
444.9528695
447.4426775
452.5129829
455.1114906
456.4950879
459.7270785
463.3349679
466.1359344
467.9631933
470.2211957
472.308146
475.8402248
477.2308494
481.1239639
483.6077334
484.3137855
487.2450406
491.2841053
492.0682411
494.4942763
495.5785743
496.5244081
496.9700952
498.0098694
499.4243605
501.1783699
501.8207395
300.9653165
300.3660938
300.3261969
301.0562364
300.7963253
301.4356115
301.4008369
301.2502849
300.9935111
300.6164029
301.533076
301.5828433
301.6160586
301.313364
301.303832
302.2936262
301.396352
302.1619894
302.2790031
302.7865834
302.7701531
302.4916483
303.8218711
304.5930186
304.7508359
306.6887837
307.5455587
308.1063535
309.244707
311.5632308
313.2448337
315.4875582
318.256823
321.1610746
322.6823607
325.6328507
328.9076796
331.6434264
335.5627558
339.295447
342.6753005
345.7799549
349.8439419
354.2040161
358.5270812
363.2612163
367.3025436
370.7149066
374.4968233
378.3484563
381.8284538
386.2036137
390.2673286
394.1482326
396.841503
400.7356629
402.6712997
406.2951446
410.45411
412.998759
415.2675847