/*--------------------------------*- C++ -*----------------------------------*\
| =========                 |                                                 |
| \\      /  F ield         | OpenFOAM: The Open Source CFD Toolbox           |
|  \\    /   O peration     | Version:  v1706                                 |
|   \\  /    A nd           | Web:      www.OpenFOAM.com                      |
|    \\/     M anipulation  |                                                 |
\*---------------------------------------------------------------------------*/
FoamFile
{
    version     2.0;
    format      ascii;
    class       volScalarField;
    location    "0.04";
    object      SOFP_N2cold;
}
// * * * * * * * * * * * * * * * * * * * * * * * * * * * * * * * * * * * * * //

dimensions      [0 0 0 0 0 0 0];


internalField   nonuniform List<scalar> 
6000
(
0.2087893152
0.1863431446
0.1666005261
0.1503742404
0.133800552
0.2116347526
0.1874568174
0.1672065882
0.1492081261
0.1356360824
0.2111814367
0.1875350613
0.1675414862
0.1515952122
0.1391747706
0.2120374868
0.1883193875
0.1676290918
0.1538503133
0.140423372
0.2127154883
0.1888395847
0.1685783188
0.1545268269
0.143255253
0.2135831314
0.1892677484
0.1697282145
0.1555062785
0.1442514828
0.2131024715
0.1901121513
0.1721117566
0.1579862652
0.1459031258
0.2139322224
0.1915627138
0.1731048949
0.1575452748
0.1466789459
0.2165689842
0.1920494324
0.1735674818
0.159230061
0.1490168559
0.2163261681
0.192363888
0.1754269405
0.1604876594
0.1488918996
0.2165842969
0.1930394617
0.1744721872
0.161407273
0.1509347439
0.2182884843
0.1954962461
0.175826492
0.1620024358
0.1515680166
0.2192035348
0.1944922094
0.1766831762
0.1624499647
0.1521885151
0.2197311551
0.1962358316
0.1785324147
0.1626742018
0.1533856143
0.2192512428
0.1954453799
0.1793829011
0.1649979127
0.1542444846
0.2219864668
0.1991838885
0.1791152378
0.1657170471
0.1538264354
0.2226049482
0.1993006738
0.1807965126
0.1660033629
0.1557812198
0.2221472625
0.2001774254
0.1822432395
0.1671826627
0.1573064281
0.2231459515
0.2008726956
0.1813328347
0.1691163403
0.1569522144
0.2246318622
0.198651874
0.1812859556
0.1680189959
0.1575660688
0.2251927926
0.2012741714
0.1839326078
0.168319034
0.158423314
0.2261734572
0.2036035342
0.185554618
0.1709705899
0.1620136156
0.2275326921
0.2045933509
0.1863487882
0.1727876155
0.1623388095
0.2286844697
0.203835424
0.1870241191
0.1723719606
0.1626123041
0.2293235421
0.2062075228
0.1864876387
0.1716934066
0.1617798554
0.2295228187
0.206583425
0.1875767698
0.1745131481
0.1635052189
0.2299879375
0.2081821368
0.1894092347
0.1756673383
0.163978312
0.2321955725
0.209546993
0.1908753522
0.1765780474
0.1662763394
0.2329578138
0.2096669488
0.192305459
0.1771207811
0.1669910112
0.2346352707
0.2097804781
0.1920955824
0.1780490236
0.1678279299
0.2347937537
0.210837099
0.1933655723
0.1802977606
0.1701274043
0.235126051
0.2133763104
0.1953101978
0.1813421667
0.1698698143
0.2360559769
0.2153645836
0.1964269324
0.1825707917
0.1722867643
0.2380278341
0.2154402714
0.1974840796
0.1832901984
0.1723943674
0.2396599977
0.2164576803
0.1991935352
0.1857003434
0.173765741
0.2404003439
0.2169844806
0.2012640293
0.186100705
0.1767635868
0.2422228905
0.2194197638
0.1998408836
0.1868087382
0.1759040826
0.2422829724
0.2192385128
0.201702601
0.1882434605
0.1761976969
0.2433575681
0.2219419295
0.2037630365
0.1906902992
0.1800857321
0.2459064162
0.2225767677
0.205135287
0.1909679911
0.1806651253
0.2459880687
0.2233445166
0.2058968755
0.1916822802
0.1819456911
0.2474280778
0.2254576592
0.207155336
0.193959184
0.1823622304
0.249005375
0.2259911967
0.2091483998
0.1937564985
0.1833995972
0.2510102103
0.2280613901
0.2105674703
0.1969768806
0.187055261
0.2509719402
0.2283522296
0.2104727543
0.197815116
0.1868184955
0.2523206832
0.2303671106
0.2125223399
0.198494905
0.1871796019
0.2542080661
0.2320142044
0.2149118482
0.2011437651
0.1896169472
0.2551961871
0.2323755886
0.2140685676
0.2018035448
0.1911612012
0.2556189061
0.2345700443
0.2165954874
0.2038454142
0.193294949
0.2575057151
0.2375786802
0.218974346
0.2056672342
0.1947229254
0.2580394807
0.2359784102
0.2193742218
0.2061488011
0.1948571001
0.2598029483
0.2390394253
0.2213579396
0.209285323
0.1984491451
0.2615533123
0.2396773879
0.2228160509
0.2102568048
0.2008443156
0.2630475505
0.2423179438
0.2249959442
0.211102225
0.2006881459
0.2647252359
0.2433129444
0.2263145359
0.2139568336
0.2020876708
0.2666832946
0.2452649967
0.2276727471
0.214826004
0.2045918223
0.267694386
0.2465394548
0.2296470479
0.2162380682
0.2062753805
0.2691934438
0.2481684962
0.2307613814
0.2187427121
0.2069899269
0.2705516942
0.2499200433
0.231042159
0.2203940783
0.2089521941
0.272525817
0.2510003956
0.2355932546
0.2217076566
0.2118403323
0.1428267166
0.1471824282
0.1467569321
0.1439210848
0.1436199506
0.1425792622
0.1407321304
0.1414065981
0.1399856365
0.1411029524
0.14059165
0.1399743608
0.1399254232
0.1406340614
0.1398571267
0.1414651389
0.1391962925
0.1411216064
0.1406134659
0.1406452692
0.1409020761
0.1418689392
0.140620978
0.1414358874
0.1413234673
0.1419003018
0.1406150106
0.1408049173
0.1399272568
0.1402790444
0.1403067355
0.1420571115
0.1405008601
0.1406081929
0.1409023197
0.1412132392
0.1418221978
0.1438389063
0.1445126707
0.142236588
0.1434553769
0.143806378
0.1420379592
0.1430546128
0.1421702119
0.142596376
0.1434037698
0.1444244362
0.1438937956
0.1445309883
0.144363076
0.1466259982
0.145386686
0.1448351931
0.1465507889
0.1470036829
0.1469684928
0.1488188384
0.1464653128
0.1481616525
0.1490370961
0.1490324097
0.1503113203
0.1498913596
0.1498818277
0.1509743424
0.1509855595
0.1524505119
0.153147558
0.1520385581
0.1539940152
0.1528193887
0.1520326228
0.1550249111
0.1525015111
0.153464739
0.1542974889
0.1524769909
0.1535642889
0.153542475
0.1525729382
0.1530724533
0.1535264034
0.1528642085
0.1515919567
0.150789677
0.1511880748
0.1479103026
0.1481366783
0.1449542596
0.1410062074
0.1371316808
0.1304918797
0.1215283563
0.105245777
0.1395539682
0.1465803341
0.1542029076
0.1562890944
0.1554997936
0.154584991
0.1523465978
0.1503627017
0.1480122997
0.1472495051
0.1454544491
0.1453296436
0.1438447447
0.1424577177
0.1425132191
0.1408826273
0.1405793321
0.1406600294
0.1407101626
0.1406505734
0.1379290006
0.1378433534
0.1383455385
0.1385233365
0.1376746636
0.1385214414
0.1369123808
0.1377381956
0.1367737602
0.13705415
0.136596189
0.1370708622
0.1377608256
0.1365777805
0.1372580251
0.1370905705
0.1364022771
0.137338481
0.1374524416
0.1381418504
0.1387069739
0.138906036
0.138467248
0.1395712313
0.1388235034
0.1370909023
0.1388165954
0.1400412822
0.1402203851
0.1398391341
0.1404863654
0.1418237182
0.1419805323
0.141565893
0.1411126892
0.1419402918
0.1423471606
0.142039076
0.1408169411
0.1432875417
0.1423857053
0.1441793533
0.1431112649
0.144775297
0.1448266741
0.1449413258
0.1461028698
0.1473562562
0.145546954
0.1469905036
0.1471092107
0.1470251252
0.1483261871
0.1482136106
0.1485282324
0.1473368788
0.1481308313
0.148623321
0.1489968995
0.1482385475
0.1478091004
0.1478304904
0.148905311
0.1499053691
0.1498572202
0.1476215894
0.146104238
0.1441828131
0.1427401911
0.1404557829
0.136916155
0.1329527062
0.1285281398
0.1178750031
0.1050869327
0.1383763208
0.1422076546
0.1470419658
0.1532029455
0.1575535538
0.1602098364
0.1615198682
0.1601271088
0.1589860428
0.1582668814
0.1555729574
0.1548155273
0.1534666641
0.1506777688
0.1490778555
0.1478857712
0.1458613363
0.144717538
0.1440880016
0.1422595396
0.1419536069
0.1412578917
0.140642871
0.140112365
0.1397321389
0.1392698524
0.1399038066
0.1391817402
0.1388219469
0.138211428
0.1373286438
0.1371347059
0.1367605595
0.1368954446
0.1359854018
0.136025954
0.1363482013
0.135991513
0.1359099173
0.1361641085
0.1362902162
0.1379564055
0.137659925
0.1379169988
0.1366323976
0.1369497342
0.1382945632
0.138353243
0.1372207572
0.1375054633
0.1376528569
0.1382587158
0.1390515855
0.1382066005
0.1391398321
0.1396614048
0.1398991168
0.1393701343
0.1396158966
0.1400619664
0.1411979532
0.1402200474
0.1416621042
0.1425865615
0.1416761429
0.1424488863
0.1419125618
0.1428374108
0.1430161676
0.1441029475
0.1440424572
0.1454365652
0.145500509
0.1447967268
0.1448921473
0.1451983744
0.1466163635
0.1455610263
0.1444599531
0.1468771695
0.1462268665
0.1451557977
0.1450736073
0.1454368749
0.1452653678
0.1447536368
0.1437126074
0.1417501958
0.1392922603
0.1384400248
0.1346247644
0.1326467653
0.1269675545
0.1188917603
0.1059198165
0.1400184103
0.1422393748
0.1449419803
0.149038254
0.1546689298
0.1581794129
0.1623266185
0.1653406805
0.1651519763
0.1652659846
0.1644600764
0.1647998539
0.1610981491
0.1601572439
0.1598899202
0.1576578855
0.1556668272
0.1531794685
0.1530556283
0.1509134332
0.1493906811
0.1482333949
0.1483394268
0.1464629657
0.1457018851
0.1437906287
0.1431887887
0.1421229646
0.1432332028
0.1413230089
0.1412898072
0.139475855
0.1388516492
0.1397265877
0.1403336274
0.1393704351
0.1389779087
0.1387207736
0.1378660002
0.136342497
0.1376539119
0.1373317458
0.1368704544
0.1379997083
0.137818076
0.1365385187
0.1365867685
0.1388936941
0.1377454258
0.1377054137
0.1356991776
0.1377487968
0.138634346
0.1393587674
0.1389206141
0.1385723787
0.1374579845
0.1377358799
0.1388173133
0.1386962214
0.1382120614
0.1392149765
0.1405076403
0.1403319315
0.1403036531
0.1396763204
0.1415880455
0.1417983566
0.1416457253
0.1419000974
0.1416817472
0.1425077098
0.1432027887
0.1431432468
0.1432694297
0.1446265572
0.1439711086
0.1423906315
0.1443198851
0.1452904256
0.1443244239
0.1431927211
0.1443142951
0.1444420069
0.1433105296
0.142477533
0.1418493541
0.1413247174
0.1380048769
0.137412518
0.1353666456
0.1322518433
0.1281172265
0.1203723954
0.1095089801
0.1420799406
0.1434624826
0.1434481041
0.1464645554
0.1512765921
0.1548628902
0.1584549478
0.1627553909
0.1660447206
0.1686717321
0.1696849061
0.1705585207
0.1708416379
0.1696240431
0.1685069603
0.1662271998
0.1645693131
0.1632691026
0.1622728249
0.1607553351
0.1594611169
0.1581845555
0.1558479576
0.1546005413
0.1528237139
0.1511154481
0.1499272154
0.148647416
0.1476677822
0.1466588774
0.1453731459
0.1449788456
0.1445632483
0.143884776
0.143596238
0.1426950723
0.1424257125
0.1416914314
0.1413997791
0.1421066799
0.1402226005
0.1400667423
0.139341252
0.139391129
0.139281666
0.1389530671
0.1381506376
0.1381517578
0.1390652743
0.1386957491
0.1387050124
0.1375104116
0.1386742583
0.1393797803
0.1387888788
0.1376795401
0.1382476073
0.139046842
0.1393301469
0.1386241626
0.1390971442
0.1392980229
0.1404472041
0.1392094016
0.1406044422
0.1410617011
0.141553688
0.1408040987
0.1411544443
0.1416398348
0.1408895831
0.1403539687
0.1422795473
0.1414132693
0.1428387863
0.1428632845
0.1440819784
0.1436744314
0.144891269
0.1441824934
0.1431082829
0.142306316
0.1426432997
0.1430195769
0.1425808231
0.1429948733
0.1420579139
0.1411654278
0.1382799162
0.1367998016
0.1348557018
0.1313369941
0.1287316179
0.1221320392
0.1122943419
0.1449445674
0.1443694638
0.1453254467
0.1466328311
0.1484973858
0.1517791604
0.155440217
0.1589701845
0.163928797
0.1659372953
0.1698950546
0.1723793471
0.1731896703
0.1744365561
0.1749522701
0.1751213406
0.1750758369
0.1731673123
0.1715221767
0.1694168254
0.1693538364
0.1668616716
0.1653040394
0.1632362561
0.1619641552
0.1602143682
0.1586515707
0.1568515845
0.1553311692
0.1540653876
0.1535033841
0.1519140555
0.1506698003
0.1492080414
0.1480877572
0.1470977783
0.1463821927
0.1455744955
0.1454551944
0.1441843517
0.1439767473
0.1445097411
0.1439303538
0.1424609349
0.1426359369
0.1418930509
0.1411325605
0.1416058246
0.1414067645
0.1409004907
0.1405710189
0.1406385206
0.1400319153
0.1395346309
0.1410224321
0.140297793
0.1395537172
0.1401723701
0.1401748138
0.1396325012
0.1377813904
0.1414421167
0.141437993
0.140428804
0.1407780719
0.1412722298
0.1412140114
0.1414064492
0.1412246893
0.1425957204
0.1425732555
0.1420257819
0.1426026833
0.1412370358
0.1427003582
0.1424614433
0.1434467869
0.1430803261
0.142816673
0.1432291174
0.1439085837
0.1430769457
0.1415284583
0.1432476615
0.1423135193
0.1407629134
0.1410604569
0.1415444247
0.139990996
0.139110396
0.1353892149
0.1326241598
0.1292456662
0.1241632931
0.1170705765
0.1449999749
0.1458249914
0.1454001444
0.1464628145
0.1478099318
0.1501610606
0.1538850397
0.1574810476
0.1602594925
0.1645146561
0.1685387956
0.1717370137
0.174607516
0.1768403423
0.1779270579
0.1794881424
0.1796231415
0.180576599
0.1809293012
0.1789311787
0.1792218826
0.1758976286
0.1739411587
0.172837646
0.1714176128
0.169174516
0.168764176
0.1670814203
0.1648552727
0.1646314684
0.161967954
0.160457995
0.1585297671
0.1569859194
0.1558648306
0.1540988123
0.1545084362
0.1526946848
0.1515573305
0.1503806155
0.1481559225
0.1493792519
0.1478399949
0.1475813193
0.1470037767
0.1458365913
0.1456560878
0.1457193479
0.1446159192
0.1435267624
0.1439568792
0.1444857932
0.1435843855
0.142266234
0.1433145607
0.1424243526
0.1421637831
0.142128516
0.1426877384
0.1423678934
0.1415523719
0.1424590033
0.1408737586
0.1423771109
0.1428426904
0.1433863479
0.1417390561
0.1425929857
0.1429115412
0.1433914109
0.1429019002
0.1423918241
0.144332536
0.1424885647
0.1425368387
0.1432643822
0.1424745507
0.1438108007
0.1425264744
0.142850289
0.1443142624
0.1443807752
0.1428176476
0.1431160132
0.1421534675
0.1415396409
0.1411833573
0.141437439
0.1389079905
0.1393253839
0.1367867157
0.1327125788
0.1296493996
0.1248579859
0.1204930594
0.1473713464
0.1476775662
0.1481859911
0.1482119045
0.1495910903
0.1490140806
0.1517243721
0.1542713132
0.1567200427
0.1619173025
0.1658924904
0.1684742381
0.1727973926
0.1775699966
0.1795250898
0.1812907177
0.1838095947
0.184837872
0.1858468409
0.1860611493
0.1854276233
0.1855249344
0.1834978758
0.1833182422
0.1812864396
0.1813802072
0.1793145955
0.1769107894
0.1754412346
0.1741654339
0.1711530301
0.1687025998
0.1678756938
0.1661713943
0.1648495908
0.1623371238
0.1620007283
0.1598618339
0.1587971653
0.1591789119
0.1569071876
0.1545394726
0.1526685827
0.153481073
0.1536136477
0.1519350436
0.1505450163
0.1501130373
0.1500051528
0.1494347198
0.1483301968
0.1477436336
0.1487944994
0.1469745225
0.1471026094
0.1471150875
0.1457739253
0.1448245206
0.1445740202
0.1443947984
0.1447851864
0.1454554361
0.1445851687
0.1440449075
0.1446260441
0.1449789091
0.1453089195
0.1447223534
0.1439377712
0.1453227365
0.1456894855
0.1457535884
0.1461601578
0.1439634824
0.1441342555
0.1446573493
0.1444717255
0.1448765513
0.1443297147
0.1451769055
0.1458623463
0.145842131
0.1448514203
0.1446816916
0.1446436641
0.143321811
0.1428467245
0.1420268254
0.1417986143
0.1389903916
0.1374813553
0.1339299038
0.1315595051
0.1281684283
0.1230063524
0.1483173869
0.1486790528
0.1490979037
0.1493442465
0.1500689874
0.1501637129
0.1526351753
0.15455774
0.1563627779
0.1592367905
0.1623837464
0.1659156066
0.1692383427
0.1736820121
0.1774145709
0.1807561321
0.1839708086
0.1848115367
0.1882944387
0.1884183141
0.1906649628
0.191078764
0.1912094231
0.1906736955
0.1913250897
0.1892801177
0.1887688439
0.1874471443
0.1852939153
0.1839605001
0.1810686842
0.1803959792
0.1772220452
0.1759077898
0.1756592432
0.1727490764
0.1698887022
0.1691092532
0.1674603388
0.1671556207
0.1644538152
0.1633926698
0.1614369131
0.1611038444
0.1592696916
0.1589578287
0.1583411536
0.1579842014
0.1570038446
0.1548072845
0.1548912924
0.1545086943
0.1539602965
0.1534188322
0.1528899912
0.1525701058
0.1512628073
0.1500374157
0.1499705327
0.1500033318
0.1498685416
0.148039565
0.1487610414
0.1484025919
0.1484692406
0.1496404663
0.1488495489
0.1477347476
0.1471958674
0.1468709533
0.1476017297
0.1477051008
0.1473486488
0.147718022
0.1478349618
0.1473040519
0.148858385
0.1475020454
0.1466358595
0.1462449128
0.1472902391
0.1466597941
0.1461327036
0.1458299466
0.1454093461
0.1458489177
0.144862154
0.1454331156
0.143846475
0.1418743454
0.13965283
0.1381701282
0.1367581587
0.1321516998
0.1273831997
0.1499420935
0.1505205774
0.1511544115
0.1508403561
0.1509624489
0.1517955756
0.1516049343
0.1544201185
0.1539187463
0.1563290548
0.1587881615
0.1619547532
0.1642837745
0.1694675731
0.1727550005
0.1775902293
0.1807480095
0.1849671301
0.1874885818
0.1894270138
0.1919576912
0.1939809102
0.1958113539
0.1964163546
0.1963259138
0.1968852236
0.1962401998
0.1959942876
0.1937459388
0.1934370984
0.1904510585
0.1897306505
0.1880545251
0.1857539973
0.1845181531
0.1811824943
0.180867507
0.1785306918
0.1771154281
0.1757464743
0.1732223165
0.1725066105
0.1706944688
0.1701218065
0.1670704955
0.1677389114
0.1652052575
0.1642246789
0.1626816344
0.163342148
0.1609270241
0.1610533652
0.1589737309
0.15760024
0.1584020517
0.1570865377
0.1565364913
0.1560184893
0.1555846547
0.1538256892
0.1535804074
0.1526457082
0.1525413663
0.1523347479
0.152360851
0.1518460957
0.1511384664
0.1506861537
0.150110451
0.1505225405
0.1506136204
0.1504804808
0.1511853913
0.1501876431
0.1503379884
0.1508115878
0.1500367215
0.1494604676
0.1490438982
0.1497960206
0.1490522812
0.1475078674
0.1482669054
0.147764428
0.1476157429
0.147548503
0.1464087414
0.1466818739
0.145011472
0.1444884899
0.1417684156
0.1409669121
0.1378137239
0.1349750238
0.132219028
0.1512696081
0.1509671103
0.1512485735
0.1527114133
0.1525423348
0.1512203304
0.1525934891
0.1522291251
0.1544454469
0.155765027
0.1572791185
0.1596735549
0.1635076318
0.1663430952
0.1709166913
0.1734920394
0.1763147683
0.1809329969
0.184206224
0.1884836899
0.1913820179
0.1946890625
0.1961726353
0.198229525
0.2005095214
0.2008221991
0.2013754308
0.2005860446
0.2005515128
0.2007021742
0.1994599959
0.1999549828
0.1983896649
0.195333659
0.1947898406
0.1924908076
0.1910306901
0.1899567725
0.187792932
0.1852567632
0.1838331572
0.1826375443
0.1812150981
0.1795291297
0.1776554492
0.1747013933
0.1738216788
0.1735743318
0.1721045673
0.1708035529
0.1695201778
0.1676478585
0.1665746582
0.1650230834
0.1642073096
0.1639165006
0.1624383778
0.1621027974
0.1604757121
0.1589908971
0.159334562
0.1577413993
0.1573925833
0.1563488674
0.1560725158
0.1555424826
0.155392577
0.1553236863
0.1559080024
0.1550956975
0.1543339431
0.1548925593
0.1548669845
0.1541765482
0.1555838469
0.1547732183
0.1544203698
0.1540854398
0.1530688545
0.1531163047
0.1516337085
0.1507627384
0.1517586725
0.1503681309
0.1513143934
0.149932081
0.1490940006
0.148872259
0.1490297174
0.1476572504
0.1457492314
0.1448195118
0.1411242605
0.1390331423
0.135846146
0.1525290634
0.1520111326
0.1528811281
0.1510580563
0.151564548
0.1524380138
0.1530858424
0.1539782338
0.1547648533
0.1558180793
0.1569717348
0.1586134103
0.1617360402
0.1634325918
0.1660066268
0.1689110146
0.1731496184
0.1782307199
0.1805181193
0.1848230784
0.1889595624
0.1924235761
0.1959521904
0.1986042906
0.2013541408
0.2034386502
0.2050510997
0.2066109917
0.207025242
0.2072880894
0.207241541
0.2071281049
0.206264193
0.205456023
0.2034434438
0.2037480293
0.2012839835
0.2000950116
0.1981688034
0.1967999909
0.1947351775
0.1923059905
0.1907675594
0.1882173446
0.1870758262
0.1860974966
0.1842246623
0.1814703234
0.1807412154
0.1800257885
0.1785547585
0.1763955526
0.1763746032
0.174741791
0.1721431347
0.1698407778
0.1705757495
0.1693541457
0.1680704291
0.1659530771
0.1669689847
0.1668156817
0.165118874
0.1633937175
0.1630507681
0.1620917698
0.1610043723
0.1604695886
0.1598717488
0.1599772987
0.1599977563
0.1606681677
0.158927914
0.1598347126
0.15933357
0.1585799609
0.1583564564
0.1569032956
0.1580332704
0.1559923103
0.157515027
0.1570718633
0.1555422585
0.1545863393
0.1546842018
0.1534192878
0.1527646222
0.152052732
0.1526225383
0.1509033157
0.1497673176
0.1481581005
0.1464539054
0.14408229
0.1398954992
0.1526021473
0.1522339601
0.1531993847
0.1534140265
0.1544715614
0.15403452
0.1544876674
0.1564052951
0.1549426372
0.1561638619
0.1578703073
0.1589129726
0.1597514203
0.1612514049
0.1635025545
0.1666878701
0.1692466585
0.1725649952
0.1765457747
0.180385813
0.184993067
0.1882761053
0.1928966524
0.195547528
0.1994037939
0.2025259846
0.2056606555
0.2086245563
0.2101023735
0.2118951952
0.2135439276
0.2124867682
0.212120039
0.2130414218
0.2120968635
0.2113802186
0.2095735851
0.2090276958
0.2077954339
0.2059235564
0.2042901665
0.2027786175
0.2016388632
0.1987244805
0.1971821039
0.1954487497
0.193270839
0.1915809843
0.1896674877
0.187801854
0.1874409393
0.1857568475
0.1843024727
0.1829242005
0.1813770587
0.180677986
0.179759687
0.1784210423
0.1768526251
0.1748402912
0.1731830158
0.1738390551
0.172757732
0.1705619918
0.1700008204
0.1692378547
0.1677259342
0.1659663685
0.1662869011
0.1659810485
0.1647131178
0.1642928028
0.164856236
0.1644796277
0.1643917388
0.165405917
0.1623205508
0.1610935274
0.1609789421
0.1622007135
0.1610435626
0.1592115727
0.1595105438
0.1576668796
0.1579322614
0.1569080826
0.1581799093
0.1570347725
0.1548108246
0.1551772219
0.1532148218
0.1517948999
0.1496160166
0.1477274781
0.1449778124
0.1549318391
0.1527639544
0.1538946847
0.1547929531
0.1557985591
0.1548312655
0.1548417031
0.1563699822
0.1569039324
0.1566156509
0.1586052658
0.1595227181
0.1614871609
0.1610842523
0.1632750985
0.1655847565
0.1677496203
0.1706002494
0.1744884538
0.1759997231
0.1802893119
0.1839747641
0.1883179041
0.1918429306
0.1968569945
0.1999471299
0.204458916
0.2069137511
0.2099065828
0.2130523979
0.214820791
0.216946968
0.2175591271
0.2189957802
0.2191985101
0.2183979125
0.2190187789
0.2184928063
0.2173053497
0.216074207
0.2139880755
0.2130093265
0.2114433764
0.208465577
0.2076734181
0.2057520112
0.204454027
0.2032439729
0.2011041041
0.1993502417
0.1984260656
0.1956605506
0.1935956995
0.1925274162
0.1915823616
0.1898225502
0.1880005513
0.1866902847
0.1852220474
0.1840075569
0.1819842638
0.180600843
0.1809987226
0.1792285205
0.1775840947
0.1766784479
0.1757474783
0.1752324378
0.1737056314
0.1735544585
0.1712987688
0.1706637422
0.1701119534
0.1690569405
0.1691762923
0.1686692565
0.1687860773
0.1685277854
0.1674697888
0.167330812
0.1663723341
0.1649847237
0.1638717032
0.1646185609
0.1631495804
0.1615023079
0.1614140072
0.1613562169
0.1597743572
0.1606156638
0.157697908
0.1561094669
0.1551726512
0.1527687695
0.1504662561
0.1541694295
0.1553787404
0.1545493634
0.1564590062
0.1557432327
0.155405429
0.1571901875
0.156066654
0.1572145103
0.1579898091
0.1576294997
0.1601506685
0.1605120678
0.1612852762
0.1620174737
0.1642152119
0.1653640008
0.1669572114
0.1703722852
0.172148116
0.1758181386
0.1792968526
0.1841233133
0.188217365
0.1909712482
0.1954527905
0.1995449928
0.2051441779
0.2080960392
0.2117137598
0.2144583186
0.2165809959
0.2188874702
0.220435666
0.2217343558
0.2225744878
0.2236622174
0.2237543064
0.223128718
0.2231025209
0.2227829163
0.221526022
0.2201299041
0.2188216759
0.21880116
0.2166706541
0.2152572617
0.2134525843
0.2112018879
0.2093866209
0.2076860477
0.2065946021
0.20362665
0.2021412982
0.2004404949
0.198470824
0.1968731751
0.1962931344
0.1949141149
0.1945084499
0.1910988217
0.1895185816
0.1883375818
0.1878585539
0.1857323491
0.1830820328
0.1819601185
0.1813430912
0.1822307156
0.1809407136
0.1799800041
0.1786053798
0.177150894
0.1767828815
0.1749244497
0.1740440609
0.1743667217
0.1744680928
0.1732250896
0.1720800573
0.1716555551
0.1717372846
0.1706513163
0.1694320649
0.1688955082
0.1678606134
0.1680706601
0.1663672976
0.1654034418
0.1648436319
0.1635244389
0.1632018937
0.1618253925
0.1598457146
0.1558532032
0.1542591082
0.1557286382
0.1552867462
0.1561897822
0.1551784034
0.1561940971
0.1578427552
0.157160294
0.1574398034
0.1586353744
0.1594994302
0.1595512163
0.1608463692
0.1611308694
0.1630055884
0.1638480443
0.1644281802
0.1672162114
0.1684960542
0.1712540779
0.1734692179
0.176524725
0.1785077657
0.1824238132
0.186365848
0.1913796665
0.1957437068
0.1994090624
0.2040754223
0.2072044316
0.2121407756
0.2163806414
0.2195977934
0.2223266842
0.224427265
0.2257840837
0.2262324371
0.2279784962
0.227881562
0.2291705199
0.2295436551
0.2285994012
0.228606164
0.2280359289
0.2278382789
0.2263935594
0.2248301363
0.2230471261
0.2206445148
0.2203066956
0.2169946683
0.2165642799
0.2146616129
0.2135088662
0.2119034571
0.2102815671
0.2070970072
0.2066191134
0.2041472533
0.2027253747
0.2009629151
0.1990034783
0.1984948442
0.197330819
0.1945849787
0.1940113372
0.1918576915
0.1905231614
0.1894469655
0.1884537234
0.1870707761
0.1869731806
0.1847202122
0.1830234079
0.1828247916
0.1810241809
0.1803020661
0.1794728215
0.1790948199
0.1797548309
0.1767218493
0.1774525803
0.1755228047
0.1752058664
0.1731972018
0.17291218
0.1723158237
0.1728017885
0.1728870005
0.1708862129
0.1701329376
0.1685514292
0.167242443
0.1646221327
0.1623531035
0.1570462631
0.1569756822
0.1581511804
0.1575880181
0.1582679391
0.1578054215
0.157980673
0.159417609
0.1582819966
0.1604437142
0.1598543927
0.1619453545
0.1613264974
0.1616170959
0.1614300983
0.1621502518
0.1634275309
0.1655421843
0.1678183501
0.1686879603
0.1702634535
0.1730183292
0.1758184461
0.178298852
0.1823957308
0.1857860191
0.1894901269
0.1929970303
0.1980381022
0.2022442855
0.2082783913
0.2117916178
0.2158026835
0.2187047323
0.2219321362
0.2254001219
0.2280851115
0.2301845117
0.2325753247
0.2329359605
0.2343663691
0.2346028928
0.2347012859
0.2346878256
0.2337579028
0.234419401
0.2329631386
0.2321399301
0.2320551884
0.2300921357
0.2280144034
0.2271199758
0.2254392252
0.222383635
0.2224546976
0.2206453042
0.2181784637
0.2164930083
0.2143011813
0.2124425617
0.2116850486
0.2100855446
0.2078944959
0.2074189022
0.2058697055
0.2025956026
0.2017389209
0.2003292704
0.1989856535
0.1982793753
0.1954912061
0.1948406575
0.1944237431
0.19273248
0.1911350004
0.1905731867
0.1893778291
0.1880817693
0.1872203599
0.1856077359
0.1850067557
0.1853471613
0.1830643516
0.1828882982
0.1815062364
0.1805126335
0.1800148381
0.1784359232
0.1773647557
0.1768064362
0.1763306714
0.173721885
0.1730858759
0.1703716149
0.1679483183
0.1571008096
0.1572129104
0.157712966
0.158170395
0.1588171286
0.1603600114
0.1592329357
0.1599948481
0.1592582087
0.1612276083
0.1620610498
0.1611179865
0.1605594575
0.1628045022
0.1638574991
0.1641684898
0.1654941471
0.1665935821
0.1672549379
0.1688225852
0.1714814724
0.1712464082
0.1733109554
0.1759312945
0.1784632174
0.1825411718
0.1853538308
0.1888954651
0.1935711925
0.1961162847
0.2014686812
0.2060359041
0.2101079901
0.2152654034
0.2193795303
0.2243821601
0.2271518681
0.2306068028
0.2337677658
0.2350583544
0.2375219599
0.2388216437
0.2402508485
0.2409916105
0.2409120869
0.2395664226
0.2398425277
0.2401011907
0.2388220137
0.2381552013
0.2370313675
0.2360522735
0.2347619291
0.2330690497
0.2318986891
0.2305041856
0.228785486
0.2272066012
0.2256551227
0.2246310893
0.22250008
0.2204982
0.2184375004
0.216772359
0.2150340775
0.2133807119
0.212610099
0.2103909454
0.2092465271
0.2068502933
0.2062584891
0.2045757844
0.2022768259
0.2015602979
0.199960811
0.1993731667
0.1984178566
0.1973312753
0.1959386066
0.1955658989
0.1939779057
0.1921709319
0.1908431722
0.1895853263
0.1895307937
0.189010072
0.1873113554
0.1854420536
0.1854080785
0.1853254347
0.1830312992
0.1812775551
0.1805174538
0.1784696586
0.1758847114
0.157059301
0.1579017144
0.1594161476
0.1595293063
0.1597043604
0.1606689125
0.15907117
0.1600908561
0.1610258041
0.1610918814
0.1622251922
0.1629244308
0.1622651954
0.1635286461
0.1648457053
0.1643903366
0.1647340537
0.1656538947
0.1680501197
0.1680714825
0.1695911701
0.1708773513
0.1730414817
0.1759006448
0.1771547151
0.1780421537
0.1820332142
0.1850630352
0.1886867715
0.1920021403
0.1953325047
0.2007164966
0.2042651233
0.2094273711
0.2138191365
0.218781452
0.2226477063
0.2257216985
0.2306805535
0.2340362693
0.23722653
0.2397420121
0.2416726311
0.2439289826
0.2449092325
0.2465316483
0.2464995794
0.2458802274
0.2451280515
0.2456718844
0.2449806924
0.2445290673
0.2436747687
0.2429060015
0.2409155641
0.2398682587
0.2384697789
0.2372046862
0.235333103
0.2332905801
0.2321121751
0.2305715939
0.2294789256
0.2276384672
0.2251516344
0.2239533859
0.223343734
0.2203034111
0.2188597499
0.2176670938
0.2161867983
0.2139171008
0.2133745597
0.2114125324
0.2102002243
0.2081306263
0.2069490262
0.2049948991
0.2039145512
0.2035266039
0.2010123931
0.1996437453
0.2006743811
0.1993008948
0.1969336401
0.1949622475
0.1948106998
0.1941613191
0.1922694243
0.1907757898
0.1897367062
0.188287371
0.1875793412
0.1860395487
0.1839703645
0.1590834044
0.1588845618
0.1582258658
0.1600459579
0.160637038
0.1608755183
0.1619928527
0.1620510047
0.1625243066
0.1613232246
0.1640973535
0.1646056083
0.1647807309
0.164652305
0.1652120961
0.1642544181
0.16586316
0.1677676453
0.1682522546
0.1680707585
0.1704020227
0.1696347017
0.1719418592
0.1733722971
0.1748514504
0.1772086728
0.1789786434
0.1821723416
0.1838472752
0.187340584
0.1912019594
0.1940070944
0.1986049437
0.2032484422
0.2081771523
0.2123608937
0.217471883
0.2228763677
0.2269794683
0.2309760213
0.2350761944
0.2387253202
0.2420231761
0.2442064075
0.2471442751
0.2486365131
0.250005918
0.2520387884
0.2518604853
0.2529881993
0.2521748475
0.2515405975
0.2521181865
0.2510092676
0.2506157511
0.2494559113
0.2482187399
0.2461555473
0.2453125311
0.244573492
0.243540913
0.24088021
0.2388346844
0.2385366731
0.2362046044
0.2351156736
0.2319533963
0.2322678531
0.2290800131
0.2280203363
0.2257490822
0.223880322
0.2217721254
0.2201384291
0.2193363598
0.2181555104
0.2165272101
0.2139146731
0.2140967053
0.2132242774
0.2113570432
0.2103707204
0.2089631971
0.2077995712
0.2070030131
0.2054308394
0.2034027045
0.2036209788
0.2001110674
0.1994000243
0.1976624089
0.1965476891
0.1960317862
0.1934525258
0.192039832
0.1582920847
0.1601399819
0.1606406035
0.1598963531
0.1606379199
0.161501073
0.1622159648
0.1618565329
0.1631021217
0.1633082723
0.1634995297
0.1640097695
0.1645282032
0.164387243
0.164483854
0.1662159047
0.1669375972
0.1669260543
0.167757481
0.168793834
0.1692280645
0.170837036
0.171460878
0.1733019957
0.1736728465
0.1753445806
0.1779085413
0.1791056011
0.1829162888
0.1838879485
0.1869057788
0.1916679554
0.194653539
0.1963027603
0.2020206877
0.2068831411
0.2111237739
0.2154874485
0.2217299431
0.2242296796
0.2302969709
0.2334710328
0.2387647752
0.2425996544
0.2456339607
0.2480112359
0.2511136502
0.253201009
0.2558489908
0.2561272615
0.2580588125
0.2578690716
0.2587397036
0.2581717052
0.258421548
0.2586708641
0.2573815822
0.2564196352
0.2552606484
0.2529893054