/*--------------------------------*- C++ -*----------------------------------*\
| =========                 |                                                 |
| \\      /  F ield         | OpenFOAM: The Open Source CFD Toolbox           |
|  \\    /   O peration     | Version:  v1706                                 |
|   \\  /    A nd           | Web:      www.OpenFOAM.com                      |
|    \\/     M anipulation  |                                                 |
\*---------------------------------------------------------------------------*/
FoamFile
{
    version     2.0;
    format      ascii;
    class       volScalarField;
    location    "0.04";
    object      surfaceHeatTransfer_N2cold;
}
// * * * * * * * * * * * * * * * * * * * * * * * * * * * * * * * * * * * * * //

dimensions      [1 0 -3 0 0 0 0];


internalField   uniform 0;

boundaryField
{
    plate
    {
        type            calculated;
        value           nonuniform List<scalar> 
95
(
486.1946153
489.0170615
483.6741301
476.6446725
459.0413685
447.6947154
436.7268529
418.5024198
418.8067036
403.2992477
384.9947058
385.0572821
373.79274
359.3174686
350.5483663
343.2007844
333.2848727
325.8747088
314.1865963
309.2214472
303.3922506
292.1421345
287.8138632
280.9991175
278.1270808
265.5214988
256.6919949
258.5490307
258.0313809
250.0343631
241.1566682
239.5990014
234.8864012
231.878785
224.125081
225.3864061
213.6415289
209.781638
213.0089363
208.3936417
207.0470481
195.8711688
201.3451186
195.172412
188.8054877
189.4634693
182.2990356
180.1943261
178.4568571
175.5740142
178.6843415
177.2444715
171.9186593
169.5852744
162.668266
167.0669063
162.4589614
159.6401891
156.1674506
157.1229527
155.1695629
149.9437744
152.3779736
148.1066365
145.2664316
144.3368141
144.5916867
143.670321
140.3272495
138.0682045
138.6757372
135.8651359
132.7914746
133.7837762
130.8941433
124.5954774
127.4342569
128.8483629
125.9057881
124.8860499
121.5078456
120.4289924
120.4890096
119.7812365
116.2364414
116.5996071
115.3153474
115.2314346
110.4432784
111.876125
108.8581326
106.4622398
107.6088726
102.2647176
111.6331015
)
;
    }
    inlet
    {
        type            calculated;
        value           uniform 0;
    }
    defaultFaces
    {
        type            calculated;
        value           uniform 0;
    }
}


// ************************************************************************* //
