/*--------------------------------*- C++ -*----------------------------------*\
| =========                 |                                                 |
| \\      /  F ield         | OpenFOAM: The Open Source CFD Toolbox           |
|  \\    /   O peration     | Version:  v1706                                 |
|   \\  /    A nd           | Web:      www.OpenFOAM.com                      |
|    \\/     M anipulation  |                                                 |
\*---------------------------------------------------------------------------*/
FoamFile
{
    version     2.0;
    format      ascii;
    class       volVectorField;
    location    "0.04";
    object      U_N2cold;
}
// * * * * * * * * * * * * * * * * * * * * * * * * * * * * * * * * * * * * * //

dimensions      [0 1 -1 0 0 0 0];


internalField   nonuniform List<vector> 
6000
(
(1411.387297 0.635448652 -0.01277995672)
(1409.436978 -0.4923119946 -0.7444204207)
(1402.907578 -1.466061174 0.2465261189)
(1382.884999 -1.808144085 -0.06371378304)
(1285.768643 8.139836999 0.1849224784)
(1411.411444 0.4568720312 1.151839215)
(1408.85369 0.2177203354 0.02843214796)
(1399.372787 -0.1340071827 0.2340221357)
(1372.745806 3.577904359 1.392502582)
(1304.351674 18.49396428 -0.3190225174)
(1412.328579 0.05641008919 0.1283377831)
(1409.053025 0.9354791392 -0.4104521397)
(1400.536801 2.20452989 -0.06652157537)
(1379.477818 5.258571857 -0.01009890194)
(1341.393816 16.9055645 0.003263224475)
(1412.247903 0.1234105719 0.5440763711)
(1410.046768 -0.1572517678 0.6900246843)
(1401.838139 0.8357711335 -0.2228032579)
(1386.992432 5.354804799 0.05278418564)
(1365.525714 14.32672635 -0.5561800231)
(1411.039184 0.2938696793 1.188706049)
(1409.456955 -0.1951840706 -0.1464855347)
(1404.484259 1.671215004 -0.01464842228)
(1394.937149 5.212966153 -1.176266851)
(1381.090095 11.13382063 -0.1912929127)
(1411.702348 -0.08215280247 -0.3972664646)
(1409.482483 0.8729448845 0.08791426568)
(1405.62949 2.252416374 0.3536443324)
(1400.251503 5.096116991 -0.8200357386)
(1391.304463 9.698804897 1.164820316)
(1412.055347 0.6301183039 -0.3127681356)
(1410.17787 1.033058793 -0.02620398084)
(1407.006609 2.443774351 0.09836933493)
(1402.338808 3.386538774 0.4745906358)
(1397.967566 5.75268934 -1.112708997)
(1412.154041 0.3294159768 0.001856668221)
(1409.758459 0.5079485969 -0.8470951318)
(1407.50772 1.816264068 0.3214063851)
(1405.571039 4.452813981 0.4626231306)
(1401.93207 4.475816967 0.1760776644)
(1412.169834 -0.3319647271 0.4122057884)
(1411.764386 1.092207116 0.2551136173)
(1409.498946 1.074910943 0.01784835604)
(1407.84896 2.281389733 0.03449451023)
(1404.932818 4.313349418 0.485345115)
(1412.453746 -0.3443388679 -0.5679865624)
(1411.627016 0.3005343223 -0.5143123263)
(1410.673066 1.462432516 -0.6137966856)
(1408.913446 2.066205396 1.231209096)
(1407.234333 2.68678638 -0.4740064195)
(1412.410981 0.366465999 0.533661521)
(1411.590097 -0.3230977836 0.09667441815)
(1410.383506 0.1159273765 0.05385396391)
(1410.359272 2.035206275 0.2471120507)
(1408.854209 2.840031451 -0.5892600873)
(1411.536897 0.02418579127 -0.1651677362)
(1412.107043 -0.1170171537 -0.2288274369)
(1411.647107 0.3208754404 -0.6531712054)
(1410.435382 0.5583060701 -0.7914123045)
(1409.359379 0.02220549683 1.094687165)
(1412.965983 -0.2731392055 0.3696581381)
(1412.438927 0.1768884124 0.4454635875)
(1411.322151 0.2232250052 0.2891714045)
(1411.885997 0.3146650745 0.8467257937)
(1410.940923 1.313991833 -0.882667595)
(1413.129778 -0.1655997662 -0.5888662715)
(1412.538561 -0.2512410123 0.229753783)
(1413.872294 -0.06044516949 -0.3156286645)
(1412.766656 -0.661358096 0.4090717435)
(1412.412822 -0.4462024715 0.451305879)
(1413.0797 -0.5431957248 0.1773907615)
(1412.885486 -0.01511642493 0.9523429007)
(1412.698775 -0.5933420973 -0.1773211307)
(1412.074743 -0.3422067442 -0.5547826493)
(1412.265769 0.6645071306 0.1486517574)
(1410.90735 0.1440852756 -0.7401642325)
(1411.837121 -0.01483014848 -0.1582910177)
(1411.901133 0.688639447 -0.5028207627)
(1412.329425 0.6727582576 0.2241556928)
(1412.22031 0.7426336652 0.3199333765)
(1413.742519 0.4037895211 0.4400179932)
(1412.134754 0.3736640222 -0.05425872893)
(1412.100311 0.3598510608 0.1862590754)
(1411.578506 1.38666445 0.4988329136)
(1411.61243 0.002638317812 -0.4880976359)
(1411.679046 -0.1214723924 -0.439581074)
(1412.066074 0.8962595572 -0.0851213169)
(1411.510336 -0.5244094416 -0.5725327427)
(1410.938205 -0.8220142822 -0.1710039245)
(1411.960764 -0.141104312 0.04970901926)
(1412.964667 -0.1742324103 0.1205913168)
(1412.633657 -0.59774784 0.1644500751)
(1413.107535 -1.073025582 0.2504665585)
(1413.065704 -0.1807745136 0.6172058395)
(1413.232143 0.5597580772 -0.01754167255)
(1413.574861 -0.1044230738 -0.2077339925)
(1413.425572 -0.1795368483 0.8880737491)
(1413.580902 1.145859957 0.3425477054)
(1413.258318 1.046057602 0.3648293799)
(1412.516914 -0.167451402 0.04005111755)
(1413.190923 0.7640429611 0.2689151886)
(1413.24535 1.082009622 -0.01512101928)
(1412.629395 0.0970642803 -0.2902204411)
(1412.909861 -0.1086244138 -0.2609954131)
(1413.091455 0.5813705913 -0.03015378543)
(1413.472569 0.2256604731 0.5860832875)
(1413.470517 0.8649491428 0.4226093557)
(1413.656064 1.433728975 -0.4285883828)
(1413.568868 0.9064248631 -0.01642200455)
(1414.214259 -0.2334328504 -0.3475163811)
(1413.088682 -0.9523994695 0.2817504044)
(1412.061264 -1.121237193 0.1680866377)
(1412.226147 -1.680497087 -0.697243973)
(1412.062579 -0.9286870727 -0.5832049294)
(1412.26829 -0.06357182078 0.389642981)
(1411.986067 -0.6960037312 -0.1613982063)
(1412.852136 -1.2586899 -0.02328254205)
(1412.663135 -0.5928954732 -0.6115677888)
(1411.937559 -0.06931867055 -0.3129515222)
(1411.568225 -0.8296312647 -0.1564857294)
(1413.048116 0.1711290354 -0.1309826248)
(1412.926812 -0.7623384459 0.2328190465)
(1413.292904 -1.266818682 -0.3332563207)
(1412.888218 -0.7568111663 0.1920379599)
(1412.660961 -0.2600260568 0.5015916451)
(1412.683553 -0.8556064999 -0.7013482472)
(1413.084367 0.2318409332 0.3960501002)
(1412.798615 0.5741256803 -0.289353042)
(1412.905669 0.5737919394 0.5074608195)
(1413.360937 0.8352119998 -0.5312928551)
(1413.379918 1.33593105 0.7155530007)
(1413.026722 0.685880568 -0.2629718628)
(1412.956256 0.6343467841 -0.06981955446)
(1412.023331 -0.191069951 0.1127753785)
(1412.369742 -0.3201110976 1.657130922)
(1411.723751 0.9345077345 -0.1605387315)
(1412.100267 0.5653921461 0.9995454837)
(1412.187162 0.3888274717 0.1915198444)
(1412.367533 0.1032612156 -0.3138401579)
(1411.918518 0.4212778348 -0.1680860389)
(1412.099283 0.1025727656 0.140425559)
(1412.138458 0.6311628925 0.4304363256)
(1412.195476 0.5813861695 0.3289369604)
(1412.219567 0.1628652487 -0.5509777142)
(1413.156652 0.2009550215 0.007565635122)
(1412.139949 1.156339995 0.3779519243)
(1412.497535 0.701711598 -0.8531488429)
(1411.024642 0.3027786202 0.3269498951)
(1411.919711 0.7663196093 -0.09829800066)
(1412.160797 0.7364711432 -0.2012571663)
(1411.625731 0.4599715022 -0.4757906407)
(1412.332886 0.3288607052 -0.9802728188)
(1412.684884 1.106200669 -0.68338272)
(1411.931571 0.3448342405 -0.07387662142)
(1412.22008 -0.3787700849 -0.1849313961)
(1412.632677 -0.009657786375 -0.1801073673)
(1412.51472 -0.01031396483 0.1886854282)
(1413.222909 -0.3384203946 0.9180243524)
(1413.607361 0.5031087139 0.1321014409)
(1413.003076 1.029191891 0.5417522499)
(1411.264201 0.7694527063 0.4017757507)
(1411.028514 0.355819246 -0.7532216592)
(1411.112153 0.9309479496 -0.8516368642)
(1410.755371 0.3514114754 0.2681030687)
(1411.369592 0.3910567715 -0.3692764022)
(1411.680446 -0.3677725445 -0.09586037107)
(1412.075677 -0.09571858895 0.5136107061)
(1411.615283 0.1436201997 0.3488134136)
(1411.548143 0.222606891 0.1809914269)
(1412.214013 0.3772788621 0.01685950557)
(1411.681209 0.3732362427 -0.02484844585)
(1411.750504 0.687134392 -0.7685574147)
(1411.907428 0.5506902351 0.01777982583)
(1412.443815 -0.294196512 0.1028102061)
(1412.595524 -0.2245232139 0.4642753131)
(1413.077548 -1.022732594 0.1411063309)
(1413.064454 -1.145992639 0.1349396835)
(1413.323357 -0.6410346744 0.008139992963)
(1412.690198 0.7006104524 -0.5015285931)
(1412.571156 0.6881292729 -1.194751217)
(1412.966171 0.1351211809 0.19695499)
(1412.870807 -0.1772772048 0.1249380541)
(1412.783326 -0.6024065171 0.03035090428)
(1412.154147 -0.5616377879 0.02236401041)
(1412.194192 -0.8922731435 0.005368722254)
(1412.840647 0.7945682596 -0.1550328272)
(1412.381317 0.5264688579 0.2736543197)
(1412.88642 0.2818028427 -0.05099143764)
(1412.363997 0.2871687254 -0.3293456949)
(1412.756517 -0.02523295996 -0.352417158)
(1412.3283 0.3225991709 0.180714795)
(1411.899565 0.288102099 0.1168224827)
(1411.522196 0.8154768702 0.7642667879)
(1412.272069 -0.05973976188 -0.1917274151)
(1412.164769 -0.08190402958 -0.6957704806)
(1412.051324 -0.1467605897 -0.152265153)
(1413.027293 -0.5095972534 0.4323619753)
(1412.279224 -0.7209859385 -0.2718216621)
(1412.87064 -0.3112546827 0.2631662782)
(1412.468236 -0.5865205416 -0.09223973979)
(1412.592994 -0.4401410019 0.3125387261)
(1412.758585 -0.3753325207 0.1543930708)
(1413.250203 0.04493598374 -0.07367464716)
(1412.740041 0.5815613931 -0.5157285992)
(1412.101893 -0.1442420405 -1.001766467)
(1412.071588 0.3026947933 -0.4191210878)
(1412.562415 0.3391415925 -0.2182225139)
(1412.289959 0.1947091047 -0.6419566041)
(1413.21258 -0.3105144441 0.6509424792)
(1413.310139 0.4160517689 0.1745082046)
(1412.641075 0.4721389689 0.1123068476)
(1412.348648 0.2384720169 -0.8908736519)
(1412.497546 0.07781329499 -0.2671994888)
(1411.693266 0.2751446977 0.5492421001)
(1412.036911 -0.2334336028 0.3824484964)
(1412.107326 1.301790362 -0.5751273285)
(1412.106083 0.7843474282 0.4691637777)
(1412.265223 0.5916247816 -0.259236749)
(1412.322377 -0.02068204699 0.02278297616)
(1412.452656 0.3124753336 1.101421293)
(1412.782104 -0.3867824653 0.1821963089)
(1412.69338 0.1577287891 -0.2554417718)
(1412.601433 0.3240293861 -1.356220575)
(1413.386688 0.5881597178 -0.4554780839)
(1412.370499 0.5635329027 0.4512859518)
(1411.57904 0.5815554101 0.2536087204)
(1411.672218 0.1580866408 -0.5006145149)
(1412.163318 0.2096876465 -0.08771906926)
(1412.308214 -0.2538300238 -0.2305356622)
(1412.621183 0.4364762587 -0.3245222114)
(1412.570763 0.1875230087 0.4603432678)
(1412.782734 -0.5277946524 -0.2354947245)
(1412.340091 -0.4001567139 0.4398056689)
(1411.941792 0.6084817737 -0.4863761629)
(1411.83793 0.4160883438 0.3307965104)
(1411.90257 0.4254535782 0.2497421584)
(1412.223774 0.6686825926 -0.3606564247)
(1412.440596 0.438728883 -0.001221448886)
(1412.619638 -0.5147095609 0.6096205891)
(1413.135793 -0.3702559269 0.003888362323)
(1413.45346 -0.8555916648 0.2160183994)
(1412.829757 0.3782080176 0.228668695)
(1412.287026 0.3250514201 -0.09809637963)
(1411.932061 0.6719070072 -0.3438131258)
(1412.044659 0.1597241514 -0.4182560014)
(1411.511616 -0.09577797657 0.09563620028)
(1411.313329 -0.6596023155 -0.5738224706)
(1411.375011 -0.7340506979 -0.3421096596)
(1412.085907 -0.1260240722 0.2038714277)
(1412.260694 0.2907916501 -0.01234773232)
(1412.019248 -0.4690528491 0.4305683446)
(1413.354065 0.02305432825 0.5684620505)
(1413.270219 0.2360282371 -0.5414305044)
(1412.755636 -0.3717767094 0.1468539277)
(1412.309021 0.2849233623 -0.5952850041)
(1413.402263 0.6345724591 0.02185834683)
(1412.880877 -0.5830060952 -0.0006453863595)
(1412.560386 -0.5791475809 0.1395870015)
(1412.616861 -0.7182949559 0.3049725931)
(1412.550345 -1.068431577 -0.2312750081)
(1412.279615 -0.3951012815 -0.2883791395)
(1412.311218 0.1047368898 0.4281106829)
(1412.268528 0.132558004 0.01627046828)
(1412.677088 -0.1203512372 -0.008433564941)
(1412.739746 0.0694707433 -0.4773200933)
(1412.864339 -0.6329547467 -0.08794889929)
(1412.371674 -0.4557552657 -0.553487442)
(1412.413302 0.1764365986 0.2021311074)
(1411.933672 0.4451972506 0.08789086328)
(1411.769574 0.4701314173 -1.142266294)
(1411.861236 0.4818224578 -0.3562243427)
(1412.729983 0.2992735921 -0.7861401793)
(1413.215149 0.2858946711 -0.2549164084)
(1413.058598 0.2770370962 -0.492261813)
(1413.068857 0.2691592548 0.4122320654)
(1412.515095 0.4433542624 -0.05736518736)
(1411.692109 0.6122441348 -0.3153546516)
(1412.028567 0.3025393332 -0.2519520196)
(1411.272312 -0.1963206614 -0.1222608901)
(1411.373851 -0.8335787801 -0.1328815501)
(1411.160758 0.8739216702 -0.292358084)
(1411.147695 -0.3586473839 0.1076451583)
(1411.413601 -0.06528512635 -0.2139663331)
(1411.117441 0.04631487677 -0.3383991254)
(1411.358666 -0.4667478223 0.3707324185)
(1412.289457 0.2121889167 0.444754123)
(1412.419512 0.4776024522 -0.4981318085)
(1412.966255 0.9850749989 0.1481268146)
(1412.894159 0.9398857656 0.4525795328)
(1412.877716 1.428319546 -0.214079844)
(1413.300717 -0.06560857298 0.1061764332)
(1413.041164 0.6260106732 0.3285382807)
(1412.721856 -0.1995071381 0.5355857429)
(1413.101621 -0.4895018426 -0.490320394)
(1412.414854 -0.1974802458 0.1413006859)
(1412.599998 -0.02959989851 0.08671704688)
(1412.031038 -0.2849461697 -0.06522973826)
(1412.056066 0.6109995036 0.2209164844)
(1412.068771 0.5567152727 0.6809234388)
(1411.794348 0.4577282634 -0.2935055778)
(1030.101127 60.03508535 -0.2727445792)
(920.2703364 53.95014637 -0.7815308791)
(835.8246964 40.08038994 -0.2256568338)
(774.9465034 30.14181762 1.233864161)
(714.7529561 25.02755893 -0.6594134569)
(673.3726951 20.20378207 0.2610958072)
(639.6020492 16.18713427 0.3472904778)
(602.5534617 15.26893001 -0.1193118192)
(573.3668784 13.24068669 0.4165879768)
(546.8080853 12.10150292 -1.393188216)
(522.862281 10.45237449 -1.193883904)
(501.2814646 11.16457824 0.3535646093)
(481.4254673 9.470550608 0.06564583848)
(462.8756689 7.352773019 -0.8606307872)
(450.9922544 5.275267106 -0.1569834854)
(432.1145897 8.474884444 0.7893908311)
(422.7917512 5.748109744 -0.1499695728)
(407.7272494 6.211105495 0.2831220529)
(397.7091717 5.267801066 0.1149283735)
(383.9528429 5.73610262 0.05753661156)
(375.3206225 3.068842768 1.526055688)
(366.2849306 4.343033048 -0.8508851807)
(359.5008505 4.155291991 -0.1834083064)
(348.1793041 5.060580003 0.3152980737)
(342.4755616 2.292236083 1.093838151)
(333.3118382 5.260196931 -1.290817784)
(328.0706883 3.879998835 -0.09034902595)
(321.023078 3.004192562 0.1726133143)
(313.8131186 3.063563139 0.1360672553)
(308.2635871 2.890382866 -0.6100862875)
(302.790158 2.577172052 -1.421413811)
(294.6442395 3.12842877 0.2134493709)
(293.128287 1.805280365 1.281631872)
(290.3124928 1.306413767 -0.453309206)
(283.5573052 1.45888873 1.187228713)
(280.8775508 1.733267077 -1.267934162)
(276.84505 1.163614032 -0.08818362866)
(268.8410004 2.722132943 -0.3193187846)
(264.5195423 2.466052167 0.478315152)
(263.7777244 1.12942008 -1.905227471)
(257.6506598 2.132183809 -0.3886333355)
(251.8253391 2.205429418 -1.171768347)
(251.2355323 1.358665978 -0.5776939932)
(247.6289521 1.330548998 1.417871542)
(244.0479183 2.412740882 0.2932854613)
(240.2287055 0.2659194755 0.6604072829)
(238.2405355 0.6442752075 -0.02567937622)
(237.0261407 1.363902421 0.5452786398)
(232.8022131 2.393072613 -0.2253242924)
(230.7593957 0.3187584866 0.6281292626)
(231.0302987 0.1881545532 0.314466693)
(225.4264506 1.580303214 -1.013379288)
(223.2105909 0.833229479 0.6894370979)
(219.628737 1.416398256 0.9704484393)
(216.9327173 0.4185111267 -0.1233115443)
(215.2673142 1.213275893 -0.2263688236)
(213.7834036 0.1147570248 -0.4996519461)
(209.1950859 2.592478974 1.140952544)
(209.5263339 -0.5832943974 -0.1751435502)
(207.6934 0.2477836939 -0.3156494694)
(205.8868675 0.8177907039 0.5300601505)
(202.831415 0.8210903555 0.4249716394)
(200.0991007 0.8160591171 -0.08029602382)
(198.6708164 1.056946005 -0.3226266839)
(197.046648 1.632921203 -0.9629793059)
(195.4677166 0.004929164029 -1.305725047)
(194.081084 0.4145965904 0.2724545178)
(190.2811537 0.7921407914 0.2447070706)
(187.2895833 0.8397265259 0.1896259563)
(185.678643 1.488728004 0.22629235)
(184.7542128 -0.07632336765 0.2819110971)
(183.6557348 0.4408631337 0.2597763729)
(182.5700872 -0.06799992484 -0.3527378035)
(181.0623512 1.063581145 0.5734801666)
(181.030538 0.4911826518 0.6316364336)
(179.9786797 0.4625636915 0.4060194753)
(176.7817462 1.041879023 -0.1801098716)
(177.3558348 0.1837538834 0.3817559478)
(176.4861788 -0.2783807406 1.161890813)
(175.1420495 0.9133345314 -0.1933189002)
(176.6110055 -0.6019951991 -0.7927653047)
(174.6867223 1.238635082 -0.4355557791)
(175.7033325 0.4325491274 1.354168751)
(176.1309317 -0.1468905606 0.6943198673)
(178.7920994 -0.3412894748 0.1444070465)
(181.7766267 0.2146218238 -1.160400829)
(182.2969642 0.1981557881 0.4854387833)
(189.2434296 -0.5432205836 -0.3712000216)
(190.1208464 -0.2052479322 0.3403371004)
(195.5552028 0.248087737 -0.3522854604)
(205.6512247 -1.814814339 -0.755384733)
(215.8021529 -1.347979086 -0.1039069724)
(232.4344404 -0.729879489 0.1230027805)
(262.4632298 -3.185150331 -0.1264285205)
(338.4499146 -18.98904086 -1.086116139)
(1211.507353 51.22992854 0.5551055008)
(1132.990947 81.42590675 0.9927649572)
(1079.098279 90.9197479 0.06357833533)
(1036.220601 88.380998 -0.7839408683)
(994.9305385 80.38191494 -0.4129414745)
(955.9544781 71.13167853 0.4257807679)
(911.9320497 65.28785605 0.2756351669)
(875.4029527 57.18491873 0.6619874097)
(843.4703251 50.43846676 0.9562874757)
(810.601109 46.58372544 0.5947045706)
(777.7227916 42.85201488 0.5038935157)
(751.9314279 38.2932372 -0.6513032174)
(724.9713382 33.57693005 0.7476631057)
(698.5133059 28.74756191 0.08755741873)
(675.2232193 28.48772073 1.675842881)
(653.663986 26.89672276 -1.507106823)
(632.0421861 24.86154912 0.4017147678)
(616.2351937 22.11715658 -0.4582067053)
(599.0061285 20.21258254 0.6524011827)
(583.2094186 19.68750424 -0.5749293751)
(570.4753326 18.14255634 0.7112525329)
(551.0947173 15.20836564 1.005155452)
(536.0691558 17.216092 0.5271356405)
(522.0340494 15.21810249 -0.4154969281)
(511.0796828 14.54257529 -0.7818808177)
(499.7196123 14.91442399 -0.4654387551)
(489.4363135 12.32518746 -0.2697791898)
(479.3565113 13.18916017 -0.8573046078)
(471.4906104 11.76015344 0.5847307378)
(462.3913856 9.759014156 -1.276581768)
(452.2278728 9.259754091 -0.8501507416)
(445.4183059 6.324708868 2.550393223)
(436.0181555 9.849585562 -1.007528761)
(428.4594839 9.280594989 0.4757096753)
(422.8849774 7.290127236 -0.4391876815)
(416.2003912 6.466893141 -0.8716753391)
(406.7109358 7.804840296 0.5664519511)
(399.0276349 6.647122431 -0.6001078682)
(395.2285608 6.733995713 0.9855457806)
(386.6957535 6.303555735 -0.860452049)
(380.7845957 6.841647125 1.335437159)
(374.9794534 7.616541917 -0.4947822272)
(367.7822953 5.36543852 -0.4024455397)
(364.7244538 5.5097933 0.3073934681)
(359.5634652 6.463075597 0.3564171532)
(356.4580763 5.442050775 1.332038488)
(350.7553964 -0.1202813353 -1.204011016)
(344.6081174 7.245868813 -0.539842333)
(342.3390045 3.761340389 0.1816177275)
(339.3345904 2.221760792 1.00079364)
(334.6114282 3.478634437 -0.7889811541)
(327.2557455 5.462852696 0.7864980887)
(321.544745 5.197147034 0.6406202021)
(320.1798433 4.088246079 0.3071550996)
(315.4466136 3.660543654 0.3958557486)
(310.9210156 3.031656097 1.383108758)
(308.8254053 4.038015482 -2.009907091)
(306.0645111 3.516502419 0.8030037756)
(304.1266165 3.416553833 -0.1542971465)
(297.9927712 0.6398055597 0.2773571353)
(298.6236093 3.818974428 0.7108328588)
(294.1485417 2.815775164 0.6633928463)
(291.6289096 3.902683766 0.3340780948)
(288.17865 2.688313043 -0.4460314853)
(284.2880265 3.096011935 0.6735102047)
(279.8072029 1.121354445 0.1643042975)
(276.6418329 2.680613476 0.3932361953)
(274.9039028 2.643007286 -0.6459429206)
(272.7775242 3.973911795 0.1752819355)
(270.6439639 3.472859615 1.134758982)
(268.0303938 0.6791020997 -0.4998701149)
(265.9586563 2.293288207 -0.4346251569)
(263.1308481 0.8358172431 0.8990020847)
(261.185938 1.93758105 1.11676954)
(260.3710779 2.148854335 1.319933097)
(258.7783831 3.580825235 -0.9922757221)
(257.064727 1.944089442 0.3262374344)
(255.0992 1.478560909 0.1627547449)
(252.4154263 2.346757647 0.3488276919)
(249.6742 1.69774667 0.001294634538)
(250.3384906 0.617045284 -1.267163693)
(252.3336855 -0.3979626389 -0.05499606084)
(250.5706667 1.335737425 0.6955336405)
(252.4432507 -0.7359918697 0.1011051009)
(252.776782 0.6048856164 0.6815952673)
(254.5155361 0.6859239569 -0.482676878)
(255.2256132 -0.2239215011 0.305153771)
(259.7230184 -0.44293965 -0.06912207105)
(267.2554587 -0.06021772775 -0.5944088458)
(275.9544106 -1.843849534 -1.313690844)
(285.6289703 -2.724395876 -0.0473016098)
(298.9653583 -2.739019681 -0.06209985725)
(320.3137232 -3.896853699 -0.1014355532)
(360.839738 -11.4501303 -0.2213453509)
(453.4050168 -44.82674924 0.09431953466)
(1290.986368 38.22072386 -1.405754062)
(1238.422161 64.08348866 -1.536605179)
(1195.559221 86.92497787 -0.5093895327)
(1154.907242 100.8881751 -0.5092992718)
(1123.535057 106.6256969 0.2201190913)
(1094.314751 106.7712268 -0.7685043911)
(1064.394988 101.7823393 -0.7473149931)
(1036.645769 96.45453329 -0.4490043598)
(1008.615933 88.85318647 -1.112103207)
(980.9930529 83.57701625 -0.9453746224)
(952.527713 78.32378502 -0.747285101)
(922.8381624 72.14293976 -0.3251261699)
(896.3349481 66.12637363 -1.10591118)
(874.7128806 60.91577848 -0.3542384526)
(849.3687931 57.00609995 0.341673632)
(827.9635916 53.80915065 -0.4922641245)
(806.5986386 48.09205065 -1.085131013)
(785.1902311 46.15075808 0.7122725063)
(762.8406512 42.0403654 -0.1386352525)
(740.901554 41.99654022 -1.384064544)
(723.9371971 40.24218203 -0.1572191162)
(705.7543455 34.70326002 -1.045786236)
(688.6463771 33.0396865 -0.3238247523)
(669.316913 32.53326636 -1.144471458)
(654.8402328 28.64886809 0.5850388505)
(647.7282477 25.79655733 0.3263563605)
(628.6545255 26.48833712 -0.3804667158)
(617.6946687 25.12427762 -0.665468655)
(602.9751631 24.77314096 -0.7285112377)
(593.6114093 20.03895552 1.187233434)
(580.977889 18.99938075 0.1799942745)
(570.8081619 18.98755652 -1.028767797)
(559.9462074 16.823022 -1.3592536)
(549.2102811 18.37824756 0.01944467909)
(541.4836602 17.58326135 0.4343274776)
(530.6447019 16.656172 -0.1463800887)
(522.8694569 14.45777733 -0.03999912962)
(513.7933976 14.92064189 -1.104314868)
(506.4299209 13.25488923 -0.5986505098)
(498.3005709 12.07026563 0.6236363365)
(486.7891072 13.98448765 -2.148052491)
(480.1353652 14.26777784 -1.402298852)
(474.3330281 11.84624724 -1.351733003)
(467.648069 10.73809517 -0.4614737573)
(462.769929 10.86159043 -0.8171910844)
(455.5482387 11.0296105 -0.5117914702)
(447.5364643 8.016429192 0.340343735)
(438.8230061 10.64163473 0.1397771622)
(437.5605408 8.985859234 -0.4034501951)
(431.9299072 6.559719963 -0.07891285421)
(423.9124981 8.489217173 0.1332053564)
(417.4911307 8.031120707 -0.1505430091)
(410.1275975 10.73468007 1.025705273)
(404.1018816 9.210056544 -0.7004813782)
(401.6096239 6.581043452 0.6898608892)
(397.5191201 5.832245148 -0.03391444601)
(393.0770769 7.918711921 1.38910807)
(389.3662375 6.73621293 0.4394697146)
(387.9644266 4.31443594 0.153707362)
(382.5709311 4.523144145 -0.4496697713)
(377.7887211 6.656160252 1.273715032)
(374.0608656 6.00438725 0.2482133293)
(370.277276 6.111426911 0.7820419458)
(362.9206613 5.935294361 0.7078407544)
(358.9762856 6.094079003 0.2745176108)
(356.7859648 3.897511848 -0.2560315311)
(354.9155798 4.696384598 -0.9120035912)
(351.4590888 4.703494638 0.4171847119)
(347.293918 5.389108659 0.3445581487)
(345.7798918 5.595006294 -0.08283152132)
(340.3968125 4.050011118 0.5498438016)
(337.0444763 5.346481016 -0.2533757939)
(333.3577867 2.680965658 0.3429356148)
(329.7591642 4.34933065 1.061023149)
(326.9016055 4.229830232 1.443614843)
(322.9723359 5.489295563 0.1677006725)
(321.4963975 3.958798117 -0.2777781539)
(323.0083141 3.269600946 -0.7564033888)
(319.6011578 5.383023566 -1.1349957)
(316.9982455 2.527085991 1.292840056)
(318.7468601 1.36910416 1.081332875)
(318.5780326 0.2135269171 -0.05223124845)
(317.5829133 2.287559141 0.1319079912)
(316.2140469 0.9913667732 -0.8849852682)
(315.6199315 2.101056628 0.6647596847)
(319.5680474 0.862636443 1.031655142)
(321.019564 1.355182316 -0.2658282797)
(323.9923866 -0.5765375682 0.04234569812)
(332.0476741 -1.993482572 0.08674814355)
(336.7359892 -1.211371934 0.6724242389)
(351.1769078 -4.581109776 0.07111209063)
(365.1778305 -4.788083593 0.4631147071)
(390.6068522 -7.862581826 -0.6809642859)
(438.6665128 -20.88384573 1.025144477)
(520.5765962 -53.56433981 0.3881442585)
(1335.201028 28.41729426 -0.8130968213)
(1301.546844 47.36876514 0.2017490307)
(1266.029775 68.7430618 0.9299616597)
(1236.794599 88.7836379 -1.126288746)
(1205.697966 103.4347206 0.1937818581)
(1181.732858 110.6782246 -0.2525975914)
(1157.438906 118.1720636 -0.354793597)
(1134.266681 119.3283014 1.261404584)
(1113.171685 116.193915 0.1413562686)
(1087.592316 113.1403376 0.586302853)
(1068.737131 106.9691583 -1.582297181)
(1044.343704 102.2839785 -0.3859021321)
(1024.914446 97.73033504 -0.4238381186)
(1002.473382 92.06424942 0.07156870035)
(978.283925 87.18412766 1.074276865)
(958.1609781 82.10137621 0.3512538972)
(937.6311169 78.10304308 -0.4167616701)
(918.4789879 71.78268347 0.3183478206)
(892.4426285 69.01732798 0.9850893429)
(873.1557475 64.74380614 -0.0384923108)
(857.4968936 59.34645387 -1.843726958)
(837.5565181 55.12911167 -1.078823057)
(817.4079224 54.21369831 0.2363172835)
(799.3532476 51.10461549 0.1593754316)
(785.5624033 47.69109386 -0.3376408128)
(770.2055521 44.56110632 0.6756035978)
(750.2359194 42.02245961 0.5372095532)
(735.8368574 40.823768 -0.4533351176)
(723.8554292 38.51927147 -0.3956224485)
(711.7979564 35.11254556 -0.04218662052)
(697.4214531 32.92317558 0.09454291328)
(687.6604814 32.30796927 -0.02779154985)
(673.2691706 31.53453247 -0.5383999229)
(662.5690547 27.99695756 -0.8854507654)
(649.0245515 28.38923322 -0.07372546575)
(640.940839 25.94096851 -0.4667313394)
(628.8650523 24.00268885 -0.8725693408)
(617.5452641 24.73101869 -1.114842647)
(606.800054 22.72182926 -1.422637541)
(599.1491566 21.9005817 0.2013323687)
(587.0539262 23.99563633 1.11824478)
(578.0698459 22.56052092 0.01937116521)
(572.8380446 19.23175414 0.3969642634)
(561.4718223 19.16799254 0.9861089267)
(553.0781531 18.32169681 0.2847115457)
(547.477035 16.58095381 0.159823718)
(539.9516523 14.68111074 -1.317031453)
(532.072796 16.5861405 -0.5642746224)
(526.0904339 15.7090958 1.541537837)
(517.852405 13.89302757 0.04447863682)
(510.5648536 14.70763973 -0.2712126105)
(502.2666569 13.52473046 1.647650271)
(495.1905936 15.57577907 -1.872473517)
(489.6636353 13.44980257 -0.2588222792)
(487.007767 10.59684782 -0.9766337982)
(482.7028762 12.46840707 -0.04003443926)
(474.8046356 11.85285632 0.6199581721)
(470.2275853 10.66760617 0.5333404401)
(464.37764 8.775736529 -1.187209631)
(456.6203853 10.18733713 0.8658146351)
(455.1241504 9.420321126 -0.5264164507)
(449.0989099 10.92201559 0.6176938344)
(440.2852076 9.765846626 -0.3066972897)
(435.815921 9.893167902 -1.278436883)
(432.6206415 10.2038547 2.155322207)
(428.1607858 8.283192589 -0.01627524237)
(421.2161219 5.419504381 0.5645658433)
(419.6362297 9.286571285 0.3351505778)
(414.7908034 7.517537384 -0.2666420234)
(412.1201492 9.022315427 -0.4034330995)
(406.9003281 7.479279672 0.2330010478)
(403.888167 8.232554447 0.2910461552)
(400.4336631 5.771728127 -0.1603677025)
(395.4906925 7.340780583 0.2321332556)
(393.6965196 7.63635346 -0.7221023392)
(389.7367633 7.326164162 0.7693350853)
(383.9984501 6.805609968 0.04860424342)
(383.8850631 6.055038417 1.455989776)
(380.6114433 4.747008149 0.5532856992)
(380.8106047 4.755064397 0.007101066564)
(377.4377186 3.840762022 0.09047992083)
(377.5970185 3.107201294 0.05556822709)
(377.1670586 2.850284783 0.4271461125)
(377.0485067 2.833894269 -0.1353348375)
(377.7337595 2.679728347 0.6951051289)
(378.4659663 2.059652353 -1.399165523)
(379.0404534 2.959454807 -0.1485600496)
(384.2074752 -0.1962596991 -0.8800733032)
(392.313563 -2.035389305 0.2618451515)
(400.4789267 -2.750458243 0.2826858275)
(408.6192637 -5.317868837 -1.524266073)
(426.1088914 -6.173997332 0.853577577)
(454.1361769 -11.98297758 -0.8440734056)
(497.4535299 -25.90872035 0.4152924972)
(565.9720421 -56.02831063 0.3823966834)
(1360.950416 21.62889265 0.5783306395)
(1341.795441 33.8954935 -0.4546342008)
(1313.686437 49.6755209 0.01253479205)
(1289.24705 68.24440901 0.6534267641)
(1263.112148 86.29082927 -0.3683749519)
(1242.779146 102.0331145 0.4812753607)
(1220.595327 112.9209071 0.2123821413)
(1200.453118 120.5789453 -0.168331263)
(1181.462854 126.0417932 1.220457639)
(1165.384004 127.145357 0.6230190163)
(1145.154035 128.5310881 0.0800671774)
(1127.761271 125.5255531 0.2097691615)
(1109.792663 120.4028299 0.08192517784)
(1095.005449 117.4250368 0.5910701377)
(1074.306002 113.8111142 0.1542924601)
(1054.848745 108.2488549 0.3271885416)
(1038.743105 103.8066198 1.048158785)
(1019.365493 98.412185 -0.865917647)
(1000.472643 93.57297232 0.3014714411)
(980.6817527 88.36975412 -0.3217277649)
(961.3143053 82.3622248 -1.18510536)
(941.4277413 80.50926358 -0.9442945407)
(927.0532908 76.73298266 -0.4706995462)
(910.5811113 72.22890191 0.2626639483)
(891.7069974 71.16671083 0.3838526817)
(878.3627095 65.16268293 -0.06559141029)
(862.4846849 62.10412274 0.04819174727)
(844.0841504 57.75753317 -0.4106240871)
(830.9556661 55.74107489 0.6453552096)
(815.1588283 51.90758974 -0.275257653)
(799.8720644 48.95565353 0.02344411754)
(790.1287613 47.8774802 -0.1119845639)
(774.3793348 43.86986817 -1.506731566)
(765.5793675 40.53955612 2.250026477)
(752.4721126 41.96781999 -0.6135764152)
(739.1505568 38.76203697 0.0649403246)
(725.3618222 37.96042333 -0.8649649678)
(715.412925 36.27675316 0.4719584431)
(700.8440529 34.29753857 0.7273944037)
(690.9692719 34.15238398 1.061711332)
(683.7102685 33.14379906 -0.6436033907)
(675.4834501 29.72804936 1.319577401)
(664.2570304 27.80850981 -0.4570869962)
(652.3768761 28.90062698 0.4552133175)
(642.6329601 28.14818131 1.015252043)
(633.6390759 24.50092696 0.75069109)
(627.0798492 23.70828017 -1.066742731)
(618.0355205 24.42542856 0.739878073)
(608.4651218 23.35214905 -0.185637854)
(603.2669617 22.49014961 -0.2752054643)
(593.3282458 20.88742825 0.5238679809)