/*--------------------------------*- C++ -*----------------------------------*\
| =========                 |                                                 |
| \\      /  F ield         | OpenFOAM: The Open Source CFD Toolbox           |
|  \\    /   O peration     | Version:  v1706                                 |
|   \\  /    A nd           | Web:      www.OpenFOAM.com                      |
|    \\/     M anipulation  |                                                 |
\*---------------------------------------------------------------------------*/
FoamFile
{
    version     2.0;
    format      ascii;
    class       volScalarField;
    location    "0.04";
    object      variableHardSphereMeanFreePath_N2cold;
}
// * * * * * * * * * * * * * * * * * * * * * * * * * * * * * * * * * * * * * //

dimensions      [0 1 0 0 0 0 0];


internalField   nonuniform List<scalar> 
6000
(
0.01327468285
0.01329236218
0.01334146272
0.01360610588
0.01404457353
0.01325269388
0.01332746684
0.0134438822
0.01371527668
0.01395819829
0.01326804777
0.01330896157
0.01342911418
0.01364963751
0.01382273455
0.01329087863
0.01331130616
0.01342040379
0.01354558109
0.0136519355
0.01323156983
0.01327420411
0.01335405047
0.0134588993
0.0135384557
0.01326491216
0.01329704544
0.01329570574
0.01332777254
0.01338870242
0.01325119545
0.0132363592
0.01330312425
0.01333829473
0.01337416971
0.01322482188
0.0132592627
0.01330202588
0.01332418883
0.01333947599
0.01325285323
0.01326506043
0.01324998019
0.01326133782
0.01324798895
0.01325185784
0.01323666678
0.01328463938
0.01331661935
0.01334014809
0.01325045772
0.01326242859
0.01326608118
0.01327428999
0.01329180295
0.01323634641
0.01323310226
0.01324111295
0.01322152378
0.01325377626
0.01326685651
0.01325797475
0.01325533328
0.01327224586
0.01323097843
0.01323844881
0.01322702805
0.01321804366
0.01321437744
0.01325547554
0.0132461463
0.0132728964
0.01327733008
0.01329216361
0.01327031887
0.01324627136
0.01324820679
0.01321983976
0.01324336887
0.01326901271
0.01325097767
0.01324478822
0.01321382289
0.01322564528
0.0132306589
0.01325921468
0.01323122336
0.01325765576
0.01327058298
0.01327588118
0.01324919175
0.01329249198
0.01332256021
0.01327156547
0.01328378115
0.01321305175
0.01317815432
0.0131754379
0.01317741828
0.01319125909
0.01326813696
0.01326617804
0.01327647397
0.01327805497
0.01329967051
0.01321389728
0.01321924716
0.01324026414
0.01322468712
0.01319953872
0.01324580792
0.01326333923
0.01325928588
0.01325895658
0.01324945701
0.01324671077
0.01318315014
0.01319613757
0.01321272696
0.01321970229
0.01325428008
0.0132485395
0.0132739166
0.01325123801
0.01327862855
0.01321442921
0.01323091885
0.01323309752
0.01320575577
0.01322038251
0.01324376735
0.01325964412
0.01326049335
0.01324760155
0.01323952537
0.01326134947
0.01324282905
0.01325739172
0.01324483048
0.01325516929
0.01321909951
0.01323771511
0.01323628645
0.01323743766
0.0132247747
0.01325865925
0.01327794407
0.01323491327
0.01324657784
0.01325030942
0.01322115917
0.01321863523
0.01323210026
0.01325377014
0.01325985023
0.0132337807
0.01323672874
0.01322359167
0.01321688915
0.01326087975
0.01324333976
0.01324806031
0.01325334359
0.01322851403
0.01322877481
0.01323606763
0.01324824012
0.01321636442
0.01325379888
0.01322174181
0.01322608785
0.01321952964
0.01322570216
0.01323076991
0.01322984619
0.01324482147
0.01324496717
0.01323031964
0.01325286097
0.01324583873
0.01323497283
0.01322668639
0.01322682958
0.0132154825
0.01321765111
0.01322556755
0.01324142936
0.0132514639
0.01326801914
0.01325687474
0.01323322696
0.01322293976
0.01323402321
0.01322911266
0.01325359247
0.01325148903
0.0132602583
0.01323126118
0.01320983513
0.01321596836
0.01320605777
0.01320800726
0.0132195561
0.01323927811
0.0132307056
0.01325848276
0.01323600648
0.0132500499
0.0132437438
0.01325915812
0.01320607921
0.01322690987
0.01323279247
0.01320457831
0.01322183016
0.01326949388
0.01326484632
0.01324423256
0.01326214851
0.01325549599
0.01323063292
0.01322284136
0.01324535729
0.01322288898
0.01323302816
0.01323977432
0.01326744619
0.01325647314
0.01326726863
0.01324570689
0.01323804603
0.01323085106
0.01323654343
0.01324778764
0.01320960784
0.01324028673
0.01324361103
0.0132734018
0.01326068365
0.01325832867
0.01324306976
0.01322315386
0.0132183829
0.01322542866
0.01322829399
0.0132341517
0.01324673566
0.01324080506
0.01325569514
0.01321782066
0.01324941401
0.01325772231
0.01324651969
0.01322282319
0.01325572028
0.01324277495
0.01323305142
0.01322333147
0.01323029696
0.01323191497
0.01323487646
0.01321360012
0.0132349497
0.01326445873
0.01324145075
0.01325127274
0.01326186617
0.01323754795
0.01324105683
0.01323117998
0.01324452282
0.01326287912
0.01325428648
0.01326797442
0.01326633543
0.01323901412
0.01321966573
0.01323460198
0.01321881372
0.01322646311
0.01325437448
0.01328359572
0.01328679131
0.01328385247
0.01329778198
0.01324517884
0.01323190875
0.01321965886
0.01320375912
0.01320806563
0.01322384966
0.01322371635
0.01323003333
0.01324042257
0.01324030025
0.01323983329
0.01325064925
0.01325166861
0.01325343404
0.01325054445
0.01289253872
0.01262481449
0.01279599089
0.01301433708
0.01318354654
0.01330156357
0.01347764866
0.01350645895
0.01344599867
0.01361206425
0.01367736633
0.01373412257
0.01389233036
0.01382502314
0.01384338696
0.01386541117
0.01394041038
0.01402578602
0.01410721036
0.01412903832
0.01428971141
0.01430671188
0.01435536808
0.01443751837
0.01443769054
0.01452844256
0.0145736047
0.01463424089
0.01457191242
0.01470841017
0.0147967167
0.01486041463
0.01478739224
0.01490272188
0.01487771235
0.0148972679
0.01495598851
0.01510415949
0.01519751886
0.01524243687
0.0152906728
0.01531162722
0.01524197454
0.01530283366
0.01532219182
0.01538812445
0.01524214955
0.01550568742
0.01548301731
0.01549477421
0.01558855042
0.01562183044
0.01559641045
0.01566759026
0.0157555711
0.01583493971
0.01580946397
0.0158618152
0.01594711367
0.0159740249
0.01606224846
0.01606121404
0.01611712542
0.0162575651
0.01634044941
0.01626468939
0.01621006301
0.01643082964
0.01631450524
0.01636240063
0.01634253312
0.01643316183
0.01659892194
0.01663143276
0.01653557517
0.01672638639
0.01672915562
0.01684300952
0.01694863504
0.01693323328
0.01702913957
0.01715945112
0.01721568197
0.01726338018
0.01750274523
0.01760594642
0.01794923625
0.01824194681
0.01850517562
0.01900017666
0.01953736468
0.02043976809
0.02149835442
0.02321027424
0.02668620891
0.01358303925
0.0127428791
0.01221928229
0.01205925696
0.01213438854
0.01231334486
0.01253802932
0.01269253825
0.01289815243
0.01312568367
0.01325099148
0.01344670601
0.01354057105
0.01367533069
0.01373896893
0.01388789168
0.01400369943
0.01416139483
0.01429211662
0.01428667168
0.01439875105
0.01456821268
0.01466811328
0.01474193232
0.01475548084
0.0148355224
0.01499798765
0.01512860336
0.01513168122
0.01508109116
0.01512991918
0.01519319078
0.01525566018
0.01521251067
0.0154949136
0.01540326162
0.01555939176
0.01554589696
0.01578912603
0.01583440916
0.0157423347
0.01577316052
0.01594598185
0.01586954983
0.01600025198
0.0159334674
0.01595401947
0.01613484341
0.01617640243
0.01622076081
0.01618079733
0.01645716126
0.01623534369
0.01634050064
0.0163006731
0.01647413777
0.01658928516
0.01661116128
0.01667781001
0.01661255844
0.0167487421
0.01665779993
0.01675468362
0.01698338036
0.01697420773
0.01683106487
0.01683173418
0.01698805702
0.01692606642
0.01697632923
0.01700786527
0.01713346521
0.01717097416
0.01707490379
0.01721983344
0.01732812102
0.01741198884
0.01745777061
0.01750481993
0.01760124419
0.01770903012
0.01776646159
0.01784531255
0.01789195063
0.01816373714
0.01833463796
0.01847181834
0.01889808686
0.01922526386
0.01970402959
0.02011617794
0.02105771151
0.02213744001
0.02376141566
0.02743812636
0.01373153625
0.01337687877
0.01279844888
0.0123158366
0.01201294304
0.0118588916
0.01185453329
0.01195917023
0.01212062635
0.01231958742
0.01244488185
0.01262912588
0.01278903976
0.01300917733
0.01315867072
0.01333576652
0.01349309179
0.0136594658
0.01384050935
0.013941323
0.01411781022
0.01428852448
0.01444746491
0.01449459467
0.01460263786
0.01470986169
0.01496685428
0.01508118729
0.01518599443
0.01514712718
0.01513771
0.01528179091
0.01539703387
0.01548486445
0.01557521814
0.01571428207
0.01574892455
0.01576535376
0.01586768311
0.01595866747
0.01601551068
0.01618163933
0.0162157163
0.0161519179
0.01624529308
0.01633005126
0.01623318423
0.01636810538
0.01651708962
0.01651971936
0.01650013813
0.0165431976
0.01660142928
0.01684596105
0.01673375606
0.01676190583
0.01705911487
0.01689037239
0.01691450895
0.01697390679
0.01714730897
0.01710721115
0.01708335551
0.01723203079
0.01734705897
0.0173594343
0.01729427558
0.01737222956
0.01740552191
0.01754743643
0.01751861068
0.01754177075
0.01752698068
0.01741891281
0.01758195084
0.01754672028
0.01779754246
0.01784679943
0.01794216983
0.01797733185
0.01805441727
0.01812784205
0.01822173693
0.01837002636
0.01844556939
0.0187198134
0.01890296651
0.01928921608
0.01949689627
0.01996932092
0.02054438694
0.02134256522
0.02238115094
0.02388535617
0.02686352903
0.01367891875
0.01354669285
0.01325822386
0.01286783962
0.01242606771
0.01210156569
0.01186056995
0.01171138602
0.01158648855
0.01166017161
0.01178113184
0.01191203651
0.01208680979
0.01225627317
0.01242872172
0.01260075046
0.01283904224
0.01301368148
0.01315670322
0.01330627735
0.01347615527
0.01368374371
0.01386859564
0.01408614088
0.01422695107
0.01431331973
0.01445461795
0.01458381751
0.01469284312
0.01482457204
0.01490617552
0.01508792351
0.01521356396
0.01532080726
0.01547716292
0.01547558303
0.01556006484
0.01570552439
0.01585975969
0.01593134714
0.01602148208
0.01597795723
0.01609161886
0.01616619561
0.01617840637
0.01633420999
0.01655634217
0.01649573885
0.01660495539
0.01658368176
0.01663012026
0.01664557351
0.01673548697
0.01684033324
0.01693076372
0.01696512537
0.01702496067
0.01715919342
0.01710134233
0.01725118988
0.01738235178
0.01729083199
0.01736744768
0.01741807636
0.01744155834
0.01753573289
0.01747552496
0.01753921732
0.0175145283
0.01757807385
0.01778154716
0.01784608568
0.01769481641
0.0178392485
0.0178145304
0.01795188118
0.01803618282
0.01808566987
0.01825525507
0.01821413811
0.0183600973
0.01851599639
0.01858421757
0.01882876162
0.0187302131
0.01882536437
0.01907493331
0.01940784026
0.01983259145
0.02016529129
0.02068043155
0.02142885976
0.02237038925
0.02379964018
0.02620229177
0.01354753542
0.01354621154
0.01339887723
0.01313111709
0.01284904965
0.0124964171
0.01221155433
0.01190187979
0.01168097564
0.01156453237
0.01151616775
0.011511294
0.01156242686
0.01161956375
0.01178677607
0.01191083207
0.01201643688
0.01221118735
0.01243700636
0.01261794857
0.01280899588
0.01294689138
0.01314547838
0.01335688052
0.01353587891
0.01367760484
0.0138516047
0.0141032002
0.01425288444
0.01443625349
0.0145221928
0.01466720136
0.01479757752
0.0148560733
0.01496811069
0.01515808419
0.01536143342
0.01532723414
0.01542730911
0.01556224466
0.01571333634
0.01590925583
0.01592198612
0.01594101915
0.01614140308
0.01617944612
0.01629851704
0.01649121271
0.01653310623
0.01658849227
0.01660210274
0.01669482897
0.01675596787
0.01690730935
0.01689944257
0.01697039836
0.01717216891
0.01715993944
0.01716718346
0.0172896904
0.01740361005
0.01756650639
0.01741695537
0.01761186307
0.01761194764
0.01764220691
0.01767592357
0.01766591097
0.01765689879
0.01783565993
0.01800537487
0.01797949491
0.01786518086
0.01798825705
0.018025937
0.01811413409
0.01804309744
0.01831160112
0.01846331281
0.01865537136
0.01852649387
0.01857141854
0.01877312791
0.01882286224
0.01889147773
0.01913346657
0.01938291463
0.01950745507
0.01989735168
0.02030318849
0.02064822563
0.02146001579
0.02234328431
0.02341967879
0.02558274124
0.01343409194
0.01347617212
0.0134395504
0.01331184072
0.01308764051
0.01281556422
0.01254986645
0.01224585305
0.01194517603
0.01167220448
0.01148503333
0.01136641121
0.01129193264
0.01132060937
0.01133056932
0.01142991791
0.01153347204
0.01161913062
0.01175353962
0.01194268172
0.01208601574
0.0122997036
0.01243133664
0.01258722391
0.01279196893
0.01299226085
0.01309341671
0.01331111894
0.01349383521
0.01369311238
0.01386574304
0.01399802183
0.01421511257
0.01443138869
0.0145887825
0.01472901773
0.01480590106
0.01494070502
0.01502961605
0.01508761995
0.01528565182
0.01542372212
0.01549561314
0.01574455815
0.01583441595
0.01593950805
0.01601883883
0.01622888459
0.01624002801
0.01636601068
0.01638463831
0.01643370337
0.01658554035
0.01669353925
0.01673355097
0.01687387702
0.01695073889
0.01710611076
0.01727009867
0.01729248158
0.01734008264
0.01732127866
0.01738826075
0.0175450599
0.01758602999
0.01758141548
0.01765265367
0.01770226324
0.01772908878
0.01788236271
0.01793220891
0.01807499159
0.01807061123
0.01805206235
0.01812397985
0.01822720279
0.01831779933
0.01844929365
0.01850649156
0.01857250168
0.01852177795
0.01857903636
0.01877470356
0.0190067508
0.0190817233
0.01918611335
0.01941555745
0.01977172659
0.01995499971
0.0202712461
0.02068641837
0.0212091554
0.02192116086
0.02316871765
0.02497824486
0.01341074382
0.01343111065
0.01342700292
0.01336759377
0.01321055929
0.013057732
0.01278249933
0.01254325188
0.01226545299
0.01200665168
0.01175993444
0.01155879334
0.0113711636
0.0112208594
0.01115397173
0.01114691179
0.01114346717
0.01122299941
0.01129002028
0.01135875301
0.01151518766
0.0115965321
0.01178110498
0.01190600873
0.01208525325
0.01223195797
0.01241015316
0.01261258206
0.01278603986
0.0129807951
0.01315629791
0.01330348896
0.0135075136
0.01370177983
0.01383232582
0.01405671298
0.01424725229
0.01439671018
0.01454073827
0.01464040875
0.01479973504
0.01501974351
0.01511425162
0.01519297516
0.01535296356
0.01548304935
0.01564672898
0.01569727034
0.01591245643
0.01597494128
0.01607213036
0.01627388194
0.016292049
0.01640966018
0.01648786428
0.01654427013
0.01672460588
0.01687739476
0.01694146238
0.01694566633
0.01700583462
0.01704447828
0.017235144
0.01733417511
0.01745153132
0.0174773963
0.01749749039
0.01756680472
0.01761179218
0.01774977585
0.01777048231
0.01782850162
0.01798747246
0.01805430959
0.01799040805
0.01820974468
0.01830758297
0.01832737748
0.01846303815
0.01857886192
0.01865585916
0.01869945865
0.01875875156
0.01893965509
0.01899782817
0.01921188592
0.01943720678
0.01976076188
0.01988648659
0.02013664319
0.02067776714
0.02109246314
0.02166316403
0.02292466774
0.02424564307
0.01337308567
0.01340269589
0.01336916808
0.01336289893
0.0132550295
0.01319722727
0.01305233599
0.01284165456
0.01260440386
0.01234876186
0.01208029093
0.01184362436
0.01161850371
0.01141766852
0.01125294376
0.01115182782
0.01102758912
0.01095641455
0.01095496357
0.0109825548
0.0110566088
0.01114496305
0.01127125904
0.01141360493
0.01154842666
0.01170177581
0.01180554041
0.0119322729
0.01209664076
0.01225900968
0.01246574367
0.01268507298
0.01282326767
0.01297685263
0.01315904515
0.01336192554
0.01352439667
0.01370041334
0.0139116623
0.01404702468
0.01415688649
0.01432352597
0.01453396289
0.01473331712
0.01483232152
0.01496928985
0.01515140291
0.01529515817
0.01532930803
0.01554102886
0.01568323602
0.01571250978
0.0159285485
0.01603075979
0.01606139573
0.01618903294
0.01638825914
0.01652041224
0.01663664734
0.01669575006
0.01682338801
0.01692154565
0.01699867151
0.01711217233
0.01719224838
0.01724513565
0.01729180819
0.01739015852
0.01745996678
0.01751966134
0.01755271087
0.01769810487
0.01771758026
0.01790283996
0.01801786684
0.01805367408
0.01800944849
0.01814740706
0.01826407451
0.01841403894
0.01852233072
0.01857378434
0.01874295912
0.01875713816
0.01889479486
0.01908321661
0.01935309183
0.019527557
0.0197884799
0.02008854517
0.02036169443
0.02086270176
0.02141943089
0.02233479616
0.02365301256
0.01326740856
0.01331319331
0.01329672741
0.013317441
0.01334364396
0.0132735782
0.01318597569
0.01307176662
0.01289077936
0.01270288094
0.01249066688
0.0121956809
0.01194767167
0.0116714516
0.01144325723
0.01122800663
0.01109420602
0.01102340321
0.01090059963
0.01084901588
0.01080818599
0.01084824829
0.01088711373
0.01093553071
0.01101616572
0.01111833277
0.01129308003
0.01144151794
0.0115504098
0.0117068376
0.0118673013
0.01202426786
0.01218389073
0.01238801456
0.01252503348
0.01268928616
0.01289120653
0.01306687607
0.01324212536
0.01342639654
0.01358813243
0.01373228179
0.01391873936
0.01409666851
0.0142378576
0.0144083703
0.01451447595
0.01469945614
0.01484378026
0.01492436075
0.01507470148
0.01531242909
0.01542916555
0.01554359035
0.01562885052
0.01572131337
0.0158105768
0.01599391855
0.01611633919
0.01633775098
0.01641322118
0.01660435011
0.0166077873
0.01667522552
0.01678002404
0.01691540337
0.01698946306
0.01709195617
0.01719724714
0.01716173291
0.01729717003
0.01744072423
0.01745722658
0.01762859072
0.01782026561
0.01783144798
0.01785930285
0.01800671574
0.01795756972
0.01815627974
0.01829781236
0.01839955952
0.01860436138
0.01886513801
0.01892432388
0.01898041968
0.01915893886
0.01937652904
0.01952310136
0.01977252618
0.02017731696
0.02061223337
0.02110327844
0.0218418343
0.02297363836
0.01337486392
0.01337524392
0.01337701708
0.01337255719
0.01336546438
0.01333157629
0.01320823507
0.0131426566
0.01305881438
0.01286598121
0.01268942366
0.01249038827
0.01225119169
0.01201053024
0.01176658839
0.01154051918
0.01132329022
0.01113129879
0.01098493761
0.01088625937
0.01081099364
0.01071208804
0.0106965466
0.01069740555
0.0107391057
0.01076178281
0.01081794814
0.0108841698
0.01102135073
0.01115078804
0.01128881914
0.011450352
0.01156603724
0.01173108683
0.01189249579
0.01204585535
0.0121750305
0.01237005522
0.01255221666
0.01270915036
0.01288950668
0.01306163238
0.01322305918
0.01337381121
0.01357502006
0.01376432745
0.01390371142
0.01406725459
0.01418564695
0.01430896387
0.01450941363
0.01468143597
0.01484376066
0.01496532885
0.01512211939
0.01523732738
0.01536572089
0.01547380354
0.01557972204
0.01573302162
0.01585334952
0.01601159778
0.01619927942
0.01623231516
0.01632254498
0.01647606423
0.0166619381
0.01678663868
0.0167625364
0.01678440015
0.01697851684
0.01715717771
0.01724200014
0.01741613987
0.01756646789
0.01765803183
0.0177364923
0.01775716216
0.01786056575
0.01801201449
0.01810537027
0.01823945439
0.01849175903
0.01847054203
0.01861156936
0.01879927675
0.01888541597
0.0190847046
0.01939593979
0.01963485655
0.01980701756
0.02013647563
0.02065997168
0.02128334471
0.02211331243
0.01330462004
0.01329266783
0.01330825495
0.01327756104
0.01327914169
0.01327825266
0.01324612772
0.01320832572
0.01313601868
0.01301006991
0.01288919294
0.01273261946
0.01255047422
0.01235887167
0.01214104187
0.01194015632
0.01168305654
0.01144721396
0.01122839503
0.01103241353
0.01087530786
0.01079561933
0.01066046191
0.01059987851
0.0105555731
0.01055684847
0.01059531096
0.01063417847
0.01065620436
0.0107316611
0.01080885072
0.01092349786
0.01105687719
0.01118545507
0.01134509744
0.01148350447
0.01162322934
0.01176567717
0.01192302878
0.01209680246
0.01224202845
0.01241389395
0.01260697496
0.0127692893
0.01294863844
0.01309778328
0.01325212868
0.0134583073
0.01361889456
0.0137593142
0.01392027301
0.01406813909
0.0142394535
0.01438995218
0.01457834319
0.01469813363
0.01473569291
0.01490825192
0.0150158847
0.01520164808
0.01535943598
0.01549307644
0.01563421605
0.01580922354
0.0159299734
0.01604715601
0.01613958957
0.01629355364
0.01641222725
0.01655584889
0.01653559782
0.01672061658
0.01682010989
0.01693619723
0.01701593251
0.01718684451
0.01733763371
0.01744130151
0.01754025304
0.01766166348
0.01782060952
0.01792617218
0.01802043685
0.01820373314
0.01836993409
0.01846604803
0.01864285849
0.01892758671
0.01900633526
0.01923217923
0.0195306825
0.0198376593
0.02030363138
0.02094784647
0.0216533144
0.01328149946
0.0132696059
0.01329940759
0.01329789478
0.01327404412
0.0132763644
0.01325175798
0.01326708752
0.01320537471
0.0131636275
0.01304327649
0.01292548353
0.01278993832
0.01261984224
0.01241433957
0.01224127729
0.01196483839
0.01179851956
0.01155578206
0.01127585451
0.01106738699
0.01087376792
0.01075392706
0.01064766056
0.01057407801
0.01052069131
0.0104510213
0.0104357737
0.01044327484
0.01046942523
0.01050458799
0.01053935731
0.0106269803
0.0106965736
0.01079173474
0.01093638251
0.01107186893
0.0112078608
0.01135353462
0.0114754267
0.01164715237
0.01182380229
0.01199581878
0.01213958622
0.01231701242
0.01249838053
0.01265499415
0.01281538
0.01298152003
0.01312178666
0.01331804929
0.01347282676
0.01357103572
0.01373502274
0.01388044856
0.01403066712
0.01420618403
0.01434453756
0.01448225653
0.01459848481
0.01472088582
0.01496376558
0.01515305159
0.01531329127
0.0154857046
0.01558653479
0.01569622003
0.01576951681
0.0158846001
0.01606837361
0.01621205658
0.01627862672
0.01635737234
0.01643482233
0.01658292804
0.01674820436
0.01691129932
0.01702997101
0.01717004674
0.01729481959
0.01736274924
0.01750707223
0.01764257981
0.0176978052
0.0178926538
0.01811592605
0.01817165155
0.01832451217
0.01858107788
0.01894590459
0.01913251024
0.0193803805
0.01978225655
0.02026836571
0.02079684376
0.01324771502
0.01326093235
0.01323395425
0.01331049654
0.01330029235
0.01331058928
0.01328675545
0.01323886915
0.01319716375
0.01314116075
0.0131306835
0.01305594099
0.01299476473
0.01285447177
0.01268991458
0.01250490189
0.01231420826
0.01208181542
0.01189413883
0.01167481171
0.01148284983
0.01126805313
0.01104015284
0.01085861776
0.01066427637
0.01054431575
0.0104503282
0.01039200568
0.01032304534
0.01026400496
0.01027872122
0.01032315426
0.0103516473
0.01042135126
0.01048039654
0.01055386774
0.01066979598
0.01077061876
0.01090944293
0.01102937584
0.01113549383
0.01127156064
0.01142540517
0.0115898087
0.01173458854
0.01191226736
0.01206751014
0.01219233648
0.01237534054
0.01252052072
0.01266318059
0.01281907911
0.01298747177
0.01315541272
0.01332967836
0.01349986736
0.01369512678
0.0138420011
0.01398188371
0.01408595705
0.01424841145
0.01439041592
0.01454199206
0.01470519779
0.01482370056
0.01496659348
0.01513220398
0.01526374126
0.01542289749
0.01552038348
0.01563120554
0.01580195423
0.01593012745
0.01606008501
0.01615610861
0.01627205274
0.01639974292
0.01655218168
0.01669829353
0.01672996219
0.01692053965
0.01706548484
0.0171943794
0.01740883799
0.0175091059
0.01764497193
0.01780795931
0.01801161609
0.01819051785
0.01837391148
0.01860135317
0.01880920802
0.01923612051
0.01958458724
0.02014705611
0.01324405973
0.01323084714
0.01325025342
0.01322374786
0.0132371613
0.01323582628
0.01326107682
0.0132668786
0.01328008974
0.01330360155
0.0132117626
0.01316867317
0.01306573865
0.01297476989
0.01286406773
0.01274110079
0.01260043635
0.01245143972
0.01226558338
0.01208338655
0.01184431343
0.01161107755
0.0114053689
0.01118561752
0.01098904914
0.01081469044
0.01064933881
0.01051081068
0.01042689653
0.01032597062
0.01025728738
0.01021891309
0.01019242189
0.01021142863
0.01026062171
0.01030456716
0.0103102667
0.01042169187
0.01050909554
0.01060451625
0.01072316995
0.01082224559
0.01091900873
0.01105397006
0.01117033974
0.01129669496
0.01148171921
0.0116223429
0.01178005688
0.01196449696
0.01211487047
0.01230326802
0.01247313711
0.01259541769
0.0127122153
0.01285260296
0.01300515998
0.01319190831
0.01335736941
0.01356611222
0.01366803452
0.01381430318
0.01394944254
0.0141426831
0.0142585409
0.01441942245
0.01458511307
0.01469815266
0.01485802723
0.01501875956
0.01513815025
0.01530306082
0.01535322361
0.01554851241
0.01563640858
0.01579122615
0.01592422634
0.01605891002
0.01619063701
0.01626211694
0.01636348299
0.01656336077
0.01670930709
0.01683938761
0.01692755428
0.01713212575
0.01734890691
0.01759792113
0.01774107087
0.01792681235
0.01815878142
0.01837171671
0.01862947302
0.01896572077
0.01939714359
0.01326138215
0.01327476147
0.01325405685
0.01326034781
0.01325519873
0.01324441641
0.0132700321
0.01322013658
0.01322057416
0.01322434556
0.01320606996
0.01315482674
0.0131518458
0.01311580743
0.01302041007
0.01294236821
0.01282065712
0.01266165015
0.0125120423
0.01233311301
0.01211340056
0.01195150104
0.01172880452
0.01149171193
0.01127295621
0.01106202615
0.01087082103
0.01071632485
0.01056477708
0.01044937111
0.01034239389
0.01025624027
0.01019242005
0.01012432764
0.01009300587
0.01007402369
0.01010037916
0.0101158681
0.01017451833
0.01025522519
0.0103270269
0.01042508468
0.01054712374
0.01063086332
0.01075316373
0.01086369905
0.01097309108
0.01114251524
0.01126947495
0.01141863274
0.01153830469
0.01168471684
0.01182062105
0.01199025849
0.01217624248
0.01234120324
0.01246947493
0.01261315615
0.01276013163
0.01289753525
0.01304813986
0.0132081836
0.01334735966
0.01348769106
0.01369095688
0.01384767183
0.01397689269
0.01417026694
0.01427056299
0.01443060638
0.01460417875
0.01466957671
0.01482518913
0.01496197124
0.01514481884
0.01528404966
0.01534310875
0.01545334899
0.01565789997
0.0158635001
0.0159615712
0.01602835691
0.01614615524
0.01634930299
0.01653166387
0.01669491275
0.01688631412
0.01701388969
0.01717484057
0.01741787529
0.0176290472
0.01789407324
0.01817119711
0.01843845587
0.01874327042
0.01323995727
0.01325315381
0.01327066058
0.01327236999
0.01329129608
0.0132709151
0.01327184277
0.01328034966
0.01324155262
0.01325033199
0.01322084882
0.01323538942
0.01318145356
0.01317833656
0.01311844196
0.01305961388
0.01296715604
0.01287895545
0.01274765054
0.01259879538
0.01246507421
0.0122680354
0.012075305
0.01188097695
0.01169631039
0.01148234206
0.01125119451
0.01101792828
0.01082476217
0.01066065151
0.01048645015
0.01033486961
0.01020606412
0.01013197501
0.0100779561
0.01005507421
0.01002527822
0.009964160774
0.00998160717
0.01002140872
0.01005824886
0.01012224597
0.01019698118
0.01029760964
0.01036319662
0.01045599314
0.01057340047
0.01068327105
0.01080515738
0.01091318539
0.01103867543
0.01115886225
0.01131031564
0.01148923475
0.0116260556
0.0117680846
0.01188650963
0.01201121515
0.01218257845
0.01232141053
0.01246775015
0.01262625671
0.01274690484
0.01290727771
0.01303170812
0.01322683645
0.01338406965
0.01355912156
0.01373150183
0.01384710923
0.01397353101
0.01412000649
0.01424144218
0.01443921341
0.01457885899
0.0147194751
0.01490630673
0.01500550763
0.01509149644
0.01527463536
0.01544481835
0.01557914764
0.01579409275
0.01592729311
0.01602118038
0.01612275444
0.01626474104
0.01645808272
0.01673046353
0.01693489998
0.01713326166
0.01735411809
0.01750876411
0.01778887957
0.01813741994
0.01325900314
0.01326689689
0.01327206436
0.01325379483
0.01322134965
0.01324864767
0.01323246109
0.01323840992
0.01324600751
0.0132148854
0.01322219447
0.01320549516
0.01322342311
0.01318541449
0.01315818725
0.01314363765
0.01307292088
0.01299370469
0.01292736867
0.01283264063
0.01269067648
0.01253103124
0.01239552218
0.01219941092
0.01199557813
0.01178428018
0.01155893939
0.01138814378
0.01115084765
0.01095670532
0.01075577231
0.01061900796
0.01045368624
0.0102885566
0.0101904568
0.01005340239
0.009989668457
0.009971522457
0.009914079287
0.009874568712
0.009859733525
0.009903956547
0.00991651198
0.009969705749
0.01003093559
0.01010187647
0.01019151772
0.01026325018
0.01038331409
0.01050320425
0.01063564647
0.01074362483
0.01086080402
0.01095222314
0.01106923384
0.01122143874
0.01137246515
0.01152793419
0.01166228242
0.01177942764
0.01190353976
0.01206776957
0.01221162925
0.01238639156
0.01252582038
0.01265543966
0.01277884589
0.01295376409
0.01313341794
0.01332064149
0.01346517213
0.0136312669
0.01374529438
0.01388454413
0.0140230752
0.01417301434
0.01429565377
0.01447042743
0.01466020857
0.01477751445
0.01487719554
0.01501287633
0.0151625455
0.01534416623
0.01547196108
0.0156431657
0.01576086627
0.01594638258
0.01611841804
0.01631378135
0.01655015624
0.01680211927
0.0170243281
0.01727529794
0.01758789024
0.01325321024
0.01324613961
0.0132389561
0.01326896139
0.01329026563
0.01325819692
0.01327460674
0.01328154093
0.01327162392
0.01329596335
0.01325368962
0.0132506673
0.01324377021
0.0131958799
0.01316602515
0.01314776915
0.01308627014
0.01305383357
0.01298909533
0.01290859612
0.01285409882
0.0127533689
0.01263741625
0.01247629529
0.01231341516
0.01215252411
0.01195224517
0.01174902799
0.01153493789
0.01134542425
0.01112016537
0.01089709534
0.0107119468
0.0105692135
0.01038269942
0.01025628343
0.01012736355
0.01002381958
0.009926585855
0.009871059427
0.009820481118
0.009802014633
0.009789214301
0.009801770819
0.009846124778
0.00987051707
0.009921292636
0.009994909765
0.01004759462
0.01013146532
0.01021588717
0.01031874307
0.01041543475
0.01052175918
0.01062507878
0.01072378525
0.01083614624
0.01097895498
0.01113772489
0.01129360201
0.0114221348
0.01154979242
0.0116897332
0.01180413799
0.01197655243
0.01210290272
0.01229811973
0.01248436137
0.01258134327
0.01270809042
0.01288140967
0.01303540864
0.01318234749
0.01334337864
0.01348759244
0.01359763399
0.01371922361
0.01387639245
0.01402268896
0.01412291115
0.01432346981
0.01446412184
0.01460615482
0.01474138886
0.01494878812
0.01510666331
0.01523220743
0.01538501049
0.01558322658
0.0157777468
0.01595990274
0.01614603691
0.01634665288
0.0166755307
0.01692181096
0.01327960768
0.01325799196
0.01325654109
0.01326919004
0.01326822445
0.01328145109
0.01330025428
0.0132582702
0.01328114259
0.01326369636
0.01328210795
0.01324349915
0.01321610613
0.01319690266
0.01315598938
0.01318170254
0.01317661413
0.01311391944
0.01310685338
0.01303516898
0.01296663185
0.01291438481
0.01278083696
0.01272222408
0.01262219693
0.01250973023
0.01234767505
0.01215280055
0.0119604394
0.01174948421
0.01153743867
0.0113232871
0.01111236399
0.01087156866
0.01069266348
0.01050928069
0.01031313059
0.01019991251
0.01009610248
0.009981782771
0.009895970789
0.009821347077
0.009773502945
0.009747956051
0.009702555793
0.00971393911
0.009743910197
0.009756151333
0.009808218338
0.009868648583
0.009905074206
0.009986851891
0.01006984621
0.01018671323
0.01027178574
0.01038115201
0.01048657966
0.01059085508
0.01069177706
0.01082777185
0.01092927658
0.01106664484
0.01120221236
0.01131986631
0.011469898
0.01159927321
0.01172036974
0.01185893758
0.01199505873
0.01216966318
0.01228527669
0.01241168256
0.01260371913
0.01273226998
0.0128734861
0.01300740847
0.01316112848
0.01333247395
0.01348129747
0.0136492711
0.01375461975