/*--------------------------------*- C++ -*----------------------------------*\
| =========                 |                                                 |
| \\      /  F ield         | OpenFOAM: The Open Source CFD Toolbox           |
|  \\    /   O peration     | Version:  v1706                                 |
|   \\  /    A nd           | Web:      www.OpenFOAM.com                      |
|    \\/     M anipulation  |                                                 |
\*---------------------------------------------------------------------------*/
FoamFile
{
    version     2.0;
    format      ascii;
    class       volScalarField;
    location    "0.04";
    object      wallHeatFlux_N2cold;
}
// * * * * * * * * * * * * * * * * * * * * * * * * * * * * * * * * * * * * * //

dimensions      [1 0 -3 0 0 0 0];


internalField   uniform 0;

boundaryField
{
    plate
    {
        type            calculated;
        value           nonuniform List<scalar> 
95
(
482.4346772
490.54683
474.7281898
472.8083146
471.3347965
447.9606932
437.6885722
423.4678248
414.6202696
401.6901229
391.0192609
386.6116822
369.4794319
357.8163394
348.6396801
344.038935
335.1031664
327.3250753
313.5308858
299.987892
302.3426447
294.4204198
290.1798962
280.975411
279.1920867
265.3891224
266.0565041
254.8924533
256.2037472
251.2696863
244.4633835
234.6779724
233.2442434
229.8920412
224.0430801
224.1093642
221.3451278
217.7097104
211.0757251
202.7183659
207.4631608
203.5924459
196.9536707
193.1759499
194.6848472
186.821232
183.4186194
184.1733395
182.9995691
175.7866496
175.3566
174.9976919
167.7770742
165.0636264
164.9718425
162.0169518
160.7622081
157.7282072
155.9077193
154.9891012
154.7000702
152.6362389
152.8505747
152.4254782
150.2703696
142.9907985
144.9802361
140.9443339
141.7426571
136.8105901
134.7146177
136.1322118
132.8769251
136.7340715
132.0778109
129.7804906
131.0349048
126.4120892
124.6376533
127.7357046
121.4081756
122.5901915
121.8566935
116.8488695
114.991635
115.2111554
117.2680928
110.9895373
110.9320698
113.5797636
111.7370077
105.4451812
104.4984306
104.2566401
108.8359661
)
;
    }
    inlet
    {
        type            calculated;
        value           uniform 0;
    }
    defaultFaces
    {
        type            calculated;
        value           uniform 0;
    }
}


// ************************************************************************* //
