/*--------------------------------*- C++ -*----------------------------------*\
| =========                 |                                                 |
| \\      /  F ield         | OpenFOAM: The Open Source CFD Toolbox           |
|  \\    /   O peration     | Version:  v1706                                 |
|   \\  /    A nd           | Web:      www.OpenFOAM.com                      |
|    \\/     M anipulation  |                                                 |
\*---------------------------------------------------------------------------*/
FoamFile
{
    version     2.0;
    format      ascii;
    class       volScalarField;
    location    "0.008";
    object      Ma_Ar;
}
// * * * * * * * * * * * * * * * * * * * * * * * * * * * * * * * * * * * * * //

dimensions      [0 0 0 0 0 0 0];


internalField   nonuniform List<scalar> 
4000
(
5.30165635
5.249984465
5.209081443
5.172061846
5.096472776
5.027298357
4.932120716
4.865662122
4.707716306
4.559570285
4.421184935
4.169241594
3.951972589
3.736731356
3.541854624
3.271318744
3.024407731
2.750452075
2.486214236
2.225679959
1.960019884
1.731158456
1.50683249
1.302410274
1.104339415
0.9316059712
0.783575619
0.6564008011
0.5514215519
0.4653890623
0.3881399606
0.3230030037
0.2656796466
0.2159594835
0.1715737809
0.1299535856
0.08988295614
0.05546819323
0.0284236951
0.008297404353
5.262964467
5.234041549
5.217416565
5.177547817
5.125693209
5.057900792
4.939584848
4.867785972
4.75415356
4.609142324
4.47780887
4.270834455
4.067370937
3.836459831
3.597850242
3.318147605
3.049084312
2.791954903
2.521606518
2.243755609
1.990592703
1.736936631
1.516026595
1.301657144
1.103302213
0.9294340191
0.7763417153
0.648155311
0.5430761069
0.4534177427
0.3800828027
0.3183418208
0.2645422462
0.2157808566
0.1706576382
0.129642246
0.0917701516
0.05745797247
0.02975182083
0.01200666775
5.284701493
5.246828655
5.220027035
5.19046958
5.142423313
5.072993082
4.966270348
4.876729478
4.772989457
4.652405634
4.501529372
4.326421115
4.116345494
3.869838477
3.653164927
3.39379777
3.11659273
2.825313623
2.556906857
2.273823443
2.012479217
1.756242966
1.525667477
1.304078313
1.104240239
0.9296829344
0.7767120316
0.6485146717
0.5406982525
0.4514624848
0.3783106437
0.3178095803
0.2651425879
0.2170826835
0.1735954772
0.1327874788
0.0955586687
0.06316444269
0.03685268179
0.01644179432
5.297432134
5.257493061
5.205669273
5.180577897
5.131935621
5.071182224
4.991868841
4.878080312
4.780251889
4.664520595
4.541603429
4.377058064
4.136654185
3.927963056
3.69184166
3.43272011
3.146141376
2.851212985
2.570883431
2.286222537
2.034426951
1.776848643
1.542422452
1.319955253
1.119052625
0.9406844121
0.7853116081
0.6561684321
0.5463772095
0.4550273223
0.3814882246
0.3217538422
0.2689052016
0.2214159488
0.1785483559
0.1379112766
0.1028463365
0.07102343729
0.0464437537
0.02169272025
5.302223256
5.264177791
5.221494551
5.179177963
5.127644128
5.087506271
5.001346216
4.920737538
4.793903229
4.683703807
4.541498611
4.376864057
4.172231372
3.953839562
3.717946182
3.455399813
3.200733773
2.899243857
2.611216641
2.33733246
2.050755394
1.795945944
1.559365873
1.338792014
1.136525609
0.9541842133
0.7988089955
0.6650926002
0.5534776192
0.4643086857
0.3904013715
0.3284128225
0.2754053018
0.2276265928
0.1848555323
0.1463861331
0.1126622245
0.08157802559
0.0552409448
0.02848622871
5.292538754
5.268626758
5.230473119
5.196082496
5.141645722
5.067152971
4.996508722
4.925025811
4.832087339
4.702622925
4.559938918
4.398202433
4.174478667
3.983561329
3.748612551
3.496198591
3.214039844
2.92903254
2.628644667
2.360003184
2.083233925
1.8296415
1.587090416
1.361427821
1.154039972
0.9719132439
0.8119810916
0.6782363108
0.5653787237
0.4746884728
0.3991714221
0.3384813427
0.2854066219
0.2387021389
0.1974759406
0.1591236975
0.1232583296
0.09332544605
0.06579355329
0.03469012324
5.290184081
5.266333993
5.241354447
5.195025063
5.139500117
5.087582386
5.017838103
4.932114023
4.835750215
4.731294333
4.580682207
4.427979547
4.217888721
4.014674162
3.782759433
3.519702786
3.241341293
2.953747635
2.652671433
2.375395605
2.111169506
1.843821444
1.603894109
1.378036613
1.176282439
0.9891381701
0.8275776077
0.6936392384
0.5824582396
0.4901035768
0.4125483305
0.3506210102
0.2981666848
0.2515268359
0.2096272575
0.1715128024
0.1375327394
0.1059496036
0.07619440052
0.040573749
5.289008925
5.263833501
5.229230483
5.194032119
5.155260084
5.100906991
5.03281917
4.936869666
4.837660457
4.721140092
4.592379404
4.438268387
4.265718908
4.040228277
3.815870824
3.573257986
3.282568876
3.003296158
2.708693821
2.420845303
2.144950368
1.876741123
1.63786479
1.407496265
1.192691672
1.009128307
0.8474448873
0.7118546125
0.5968303578
0.5041684336
0.4275502664
0.3660375442
0.3138644534
0.267049678
0.2253557925
0.1870210432
0.1536507536
0.1204725737
0.08843507094
0.04647078181
5.299655879
5.280589162
5.241518655
5.201037652
5.17294451
5.114522319
5.039582514
4.972097121
4.855730642
4.753825624
4.614439947
4.478326397
4.291907875
4.075446657
3.85641557
3.591444693
3.33235963
3.048217968
2.752246987
2.472542363
2.183420958
1.918905622
1.668099675
1.437672397
1.221814353
1.034347747
0.868311648
0.7321328591
0.6163541544
0.521960723
0.4446514411
0.3809117063
0.3292472863
0.283283519
0.241900437
0.2047374867
0.1699108408
0.1370859428
0.1014428079
0.05303328742
5.303270593
5.281987171
5.252165514
5.224518786
5.175671839
5.116139841
5.053588444
4.971811788
4.899553679
4.772371111
4.650045788
4.499232461
4.331018201
4.102065075
3.888671647
3.636235084
3.357474499
3.08489807
2.797199558
2.511189779
2.226057796
1.960646809
1.701854968
1.464888396
1.254298937
1.066857643
0.8989458013
0.7550835553
0.6391187833
0.5413117197
0.4648734262
0.4011869412
0.3464493885
0.3014607831
0.2611314252
0.223385424
0.18830666
0.1536894279
0.1143746161
0.06175918146
5.301481801
5.282305843
5.260128154
5.21545352
5.173331905
5.128167765
5.073462312
4.990924299
4.900884312
4.770276778
4.629713004
4.508599486
4.32491592
4.146288857
3.912364375
3.650089314
3.406434088
3.114986334
2.852228215
2.552835721
2.271451001
2.013033508
1.749017856
1.505630556
1.290448748
1.097266182
0.927594564
0.7821784397
0.6621509238
0.5645925451
0.48599158
0.4220642591
0.3700047464
0.3236184666
0.2838373212
0.2471564483
0.2099211157
0.1726931855
0.1298647069
0.06973502975
5.304986597
5.293950727
5.269645512
5.231280093
5.181964462
5.120216688
5.070000562
5.018659818
4.924752105
4.784473069
4.680248875
4.54278051
4.376447595
4.162050625
3.942162195
3.681030003
3.421935671
3.157017308
2.875836678
2.600366984
2.324662458
2.048239943
1.789741934
1.544898806
1.326452924
1.129576173
0.9602759034
0.8141616693
0.6906733828
0.5887367095
0.5095352351
0.4455321609
0.392556425
0.3485732755
0.3080485099
0.2713902494
0.2334655083
0.1938051102
0.1467407787
0.07919792941
5.31697949
5.28943372
5.261832555
5.228381077
5.181171558
5.12784502
5.074781952
5.009087789
4.923479365
4.828359246
4.707597123
4.562153138
4.392016045
4.218615247
3.991325316
3.741347965
3.491566564
3.221022542
2.952498537
2.663472241
2.372381652
2.101901297
1.840760488
1.598590842
1.371570257
1.171597616
0.9971033774
0.8437613267
0.7193676517
0.6173062875
0.5373788494
0.472716632
0.4178562551
0.3731450822
0.3339810257
0.2974226595
0.2596262012
0.2178430091
0.1662422547
0.09115499087
5.326660882
5.29675651
5.271471158
5.230091438
5.197652771
5.136291974
5.098323743
5.042880776
4.96316342
4.865988709
4.728928375
4.597955521
4.43159174
4.256409609
4.047672654
3.803000574
3.55740001
3.278062331
3.003607818
2.717986059
2.42483457
2.150271822
1.895245034
1.647444892
1.419029277
1.220785277
1.03908605
0.8850239591
0.7546404919
0.6496485583
0.5654546853
0.5010254988
0.4481976031
0.401781909
0.3622315084
0.3265000601
0.2887189697
0.2443977999
0.1883903087
0.1045401114
5.318308658
5.282190505
5.257493344
5.234652876
5.190978302
5.147153493
5.108261926
5.056036465
4.968366553
4.886469811
4.747026443
4.621537356
4.453811686
4.287390491
4.103197581
3.848797813
3.594857987
3.325641076
3.046944678
2.76410428
2.486972521
2.212963357
1.943712105
1.701252551
1.469066069
1.266232904
1.081920253
0.9245669974
0.7936512618
0.6857799529
0.601238821
0.5348537389
0.4811409942
0.436516797
0.3967306132
0.3585584622
0.3216212901
0.2752492311
0.2146556284
0.1196522095
5.313106045
5.290672384
5.274562107
5.248928624
5.194759658
5.163559421
5.135863873
5.060018331
4.991251827
4.87705169
4.777337916
4.669477161
4.512902816
4.308127839
4.131844191
3.876525539
3.652389371
3.39490282
3.104346842
2.828192505
2.540458445
2.275330113
2.000070809
1.76272543
1.527340116
1.315143923
1.128744494
0.9699143269
0.8338420227
0.724071466
0.6374739149
0.5691234629
0.5171669909
0.4732858769
0.4354508833
0.3979873291
0.3588373184
0.3129652126
0.2454359153
0.1388766557
5.309987385
5.295348214
5.276819103
5.250568676
5.221667077
5.178990876
5.13046889
5.08197329
5.008727671
4.916791274
4.824029054
4.698183966
4.537876467
4.355717084
4.170859568
3.965659968
3.727536869
3.469363149
3.180532099
2.908752776
2.626526052
2.346498792
2.074604019
1.820162017
1.592890282
1.378429689
1.185625794
1.018230151
0.8806735851
0.7679770279
0.6794641521
0.6101248671
0.5579258622
0.5137508409
0.4777487908
0.444122431
0.4056001294
0.3595436677
0.2867487097
0.1637941642
5.317438839
5.310443108
5.289287134
5.261981473
5.233523867
5.17943603
5.125851922
5.086786891
5.030158911
4.926949401
4.837311255
4.720120875
4.584761426
4.395527645
4.227562131
4.010012308
3.772639959
3.536993507
3.272926149
2.969901999
2.704302369
2.423178028
2.156139507
1.902784127
1.667543218
1.445196597
1.250012131
1.081940509
0.9365072818
0.8175945736
0.7252655509
0.6556700963
0.6011223986
0.5599252137
0.5261518873
0.4952789125
0.4605566172
0.4170341289
0.3418276281
0.2007302688
5.327198389
5.316161328
5.288081682
5.259843134
5.242365674
5.183432775
5.147239962
5.089943638
5.027484982
4.965676118
4.848565693
4.74270183
4.601984042
4.454320815
4.276901638
4.066921793
3.869391303
3.622551463
3.321923257
3.054201351
2.791703939
2.502576558
2.238455151
1.985144247
1.736546787
1.520489189
1.323985674
1.147084482
0.9966502332
0.8719886602
0.7769097836
0.7031814827
0.6502861965
0.6104162059
0.5800693449
0.5539963964
0.5268495581
0.4900896755
0.4213940975
0.2590731706
5.324312148
5.301562268
5.288069573
5.263675768
5.237969896
5.189354968
5.153789049
5.091908053
5.036077303
4.978707295
4.880588528
4.770689932
4.637965069
4.477124742
4.331174002
4.139586653
3.92315098
3.664302598
3.405073028
3.142664184
2.868220309
2.602019505
2.318600084
2.067310994
1.81987333
1.593511057
1.392806678
1.212779852
1.057226943
0.9310045787
0.8311501296
0.7575415375
0.7017198652
0.663983962
0.6386178115
0.6201599775
0.605749854
0.5890115503
0.5526091994
0.3943136502
5.327653153
5.309755055
5.298603347
5.281636661
5.247313376
5.207347059
5.16656619
5.111608339
5.063711384
5.007139777
4.904122449
4.816250815
4.71317057
4.539147345
4.394453286
4.200773704
3.967773337
3.740917145
3.496577085
3.244302903
2.953421916
2.673400744
2.414526851
2.158961888
1.910847862
1.681961998
1.472048089
1.28967913
1.128598421
0.9977038951
0.894266642
0.8157271767
0.7594211222
0.7229718483
0.7017295928
0.691669136
0.6919797084
0.7033352417
0.7323049474
0.8069966775
5.330965333
5.315387718
5.30956185
5.280312534
5.256796375
5.226402908
5.196762507
5.137836773
5.087847952
5.019057732
4.940576642
4.840451556
4.74393568
4.610449098
4.450752379
4.25747107
4.029773244
3.806377936
3.572439774
3.328834131
3.0506955
2.794301785
2.5167856
2.2478742
2.008343407
1.777778143
1.560261308
1.368871943
1.207019113
1.069847749
0.9617186379
0.880202244
0.8238334834
0.7876476642
0.7685253237
0.7660082431
0.7792848576
0.8144430563
0.8828624163
1.000990799
5.334573088
5.321833823
5.29250541
5.280565522
5.263997176
5.229402895
5.194208147
5.151105556
5.108094368
5.047733043
4.964556122
4.882395295
4.778065721
4.642868001
4.477214242
4.282518041
4.09808789
3.894302426
3.668514234
3.431662574
3.153534815
2.898943362
2.618132384
2.352831757
2.113406692
1.87271718
1.659368819
1.46324791
1.291934766
1.148527499
1.03507692
0.94737078
0.8894700105
0.8531517299
0.8369787803
0.84061255
0.8627875775
0.909435482
0.9846057233
1.093967486
5.336930645
5.322738027
5.30823564
5.283187206
5.26911365
5.241967611
5.212371132
5.167350729
5.125978832
5.065727596
4.998098508
4.904580228
4.809694307
4.690899702
4.513936754
4.349231969
4.179168825
3.9801078
3.745363444
3.511464589
3.261470259
2.988207331
2.73478663
2.475174251
2.219939855
1.979481169
1.750734126
1.55377807
1.384179277
1.232773457
1.113159177
1.021333667
0.9564367954
0.9195746498
0.9046922488
0.9123746247
0.9377924397
0.9875065392
1.062169089
1.154484397
5.338873821
5.328557374
5.314691572
5.292086416
5.277112978
5.246276094
5.206297274
5.175342697
5.133364928
5.088034273
5.025471048
4.943189455
4.856729392
4.740887115
4.574480952
4.428106131
4.260848478
4.061526093
3.82997352
3.600276201
3.374276684
3.105566391
2.840495546
2.58670648
2.33007253
2.096161445
1.868556478
1.662541597
1.482854102
1.3263112
1.199540604
1.101521092
1.031731072
0.9901496269
0.9756260858
0.9804923435
1.007452062
1.051953189
1.118464271
1.201839679
5.335783908
5.320000073
5.313732987
5.297415337
5.282582845
5.255333787
5.228967857
5.185238608
5.157657251
5.116318517
5.060484852
4.988096267
4.896736587
4.756880296
4.644124614
4.496906652
4.33094571
4.165454196
3.937600798
3.702995002
3.477125036
3.222139612
2.966464211
2.705845741
2.456066911
2.207407827
1.982243873
1.778265897
1.590738607
1.42539708
1.294221968
1.188166496
1.113168953
1.066025759
1.045234554
1.049034368
1.070657266
1.112874898
1.171079051
1.24433408
5.340967418
5.321455053
5.312957502
5.300292815
5.278876344
5.266204027
5.241035123
5.20630247
5.162229567
5.133077075
5.086542478
5.006902725
4.917128961
4.8315414
4.682798975
4.559726063
4.422974612
4.233374691
4.022780104
3.815166334
3.597666577
3.354889689
3.096686817
2.841091023
2.588032861
2.337867941
2.114565086
1.902461261
1.705308503
1.536286003
1.396529239
1.281633076
1.198578428
1.145141154
1.11776082
1.116650357
1.131918785
1.167683434
1.21972296
1.285746739
5.340157076
5.334958753
5.31953183
5.299382738
5.288514037
5.277461326
5.251233851
5.214652821
5.177223472
5.13895903
5.099100414
5.020473654
4.945109968
4.859046353
4.759648736
4.60742672
4.479779344
4.291739441
4.110565656
3.921205005
3.70020834
3.465323003
3.208113184
2.960265263
2.711327673
2.46360323
2.24168941
2.027046373
1.829190874
1.653697361
1.506714331
1.387019947
1.290976261
1.229796745
1.192784391
1.184213964
1.194741524
1.221988039
1.266403149
1.319759322
5.341158713
5.327348078
5.316776096
5.309875247
5.304534784
5.284080096
5.262777928
5.227738406
5.192757589
5.155579512
5.115011879
5.071658207
4.973255796
4.915240282
4.806780145
4.668991239
4.534392753
4.395958381
4.204599744
4.019877958
3.810746611
3.577942985
3.34239155
3.098568879
2.861626229
2.61372297
2.37859441
2.15945158
1.960332772
1.780857259
1.623584217
1.494014875
1.389087516
1.320481388
1.274051551
1.254838285
1.257360443
1.277207913
1.314263639
1.360074193
5.342359529
5.334107619
5.319850982
5.312188239
5.30535963
5.283465556
5.264191504
5.235496646
5.213134651
5.174089671
5.13450434
5.078050937
5.012999441
4.944376916
4.842389181
4.735518322
4.586974404
4.456287431
4.296200111
4.119892671
3.931950883
3.701048366
3.478601222
3.237897161
2.99622142
2.760048767
2.529026726
2.305695471
2.102531832
1.914824769
1.744823324
1.607838158
1.496396443
1.416320484
1.359630593
1.329698728
1.323443273
1.334724265
1.361428912
1.402180596
5.348282954
5.344485723
5.329489437
5.319119467
5.302460602
5.281902893
5.263674021
5.246547469
5.211638542
5.182381379
5.156102688
5.111206206
5.042044618
4.973560334
4.883217337
4.792328585
4.641580759
4.521327511
4.380371115
4.216255927
4.031614806
3.837699123
3.599945254
3.357298599
3.136483405
2.905232134
2.677673282
2.453775887
2.2462522
2.052257756
1.88222769
1.734666714
1.609870827
1.518975749
1.454054487
1.412772085
1.393788559
1.392344286
1.413247704
1.442371246
5.348973115
5.341892712
5.329261632
5.319552384
5.303499694
5.279716814
5.2670082
5.253916189
5.226678966
5.19933232
5.166011039
5.131999557
5.074553471
5.004112802
4.914932575
4.824599633
4.723627521
4.615616523
4.471818758
4.310987445
4.129162929
3.945327328
3.717760435
3.491347084
3.274913414
3.052974915
2.833683938
2.598618959
2.395630817
2.200817466
2.020587494
1.866440648
1.734679123
1.632868431
1.549773708
1.499324404
1.467987541
1.459768105
1.469398825
1.490004675
5.356086255
5.352809702
5.342154234
5.327191553
5.318589658
5.308390002
5.285317015
5.269733466
5.249632416
5.224155172
5.187718814
5.158420268
5.088128941
5.035066294
4.967047669
4.884754688
4.784153427
4.666973199
4.550965893
4.415698964
4.249361072
4.075076109
3.842760736
3.647511214
3.410732289
3.216248236
2.995354832
2.760077083
2.549643593
2.362365556
2.169446253
2.01235183
1.870587487
1.755784386
1.662340968
1.596906776
1.553059844
1.532657684
1.532929868
1.540945481
5.355004088
5.351881597
5.341023769
5.338203797
5.328505978
5.313301767
5.300561801
5.277514615
5.248475319
5.225340973
5.205235074
5.178610026
5.113719667
5.056086512
5.002976905
4.939884686
4.836685985
4.745453244
4.624619101
4.492902599
4.344577572
4.156375984
3.978248037
3.782765499
3.563901978
3.363475554
3.137006677
2.930029903
2.727985561
2.525110845
2.332495667
2.160195712
2.017519868
1.885278558
1.777656678
1.703282719
1.648607034
1.610176693
1.597435467
1.598025588
5.363024224
5.352729919
5.345934071
5.341047935
5.325588789
5.313781597
5.305982508
5.280709115
5.269340125
5.243111082
5.222342637
5.171982057
5.135076974
5.077385968
5.045970703
4.96482977
4.871630563
4.80065088
4.693601736
4.563725426
4.414293818
4.254377409
4.095450027
3.916106377
3.716271742
3.518735556
3.303317201
3.099634583
2.891372992
2.685677262
2.499551476
2.319396331
2.161570661
2.026452156
1.906019789
1.81566083
1.750402701
1.699759345
1.67554314
1.662938371
5.357895421
5.346909066
5.345124688
5.341450736
5.33436317
5.320491102
5.312862432
5.299520782
5.279799491
5.261230156
5.230746483
5.200096153
5.156945346
5.117654513
5.073334327
5.005192529
4.927480394
4.849433747
4.75142099
4.648257869
4.508591132
4.356381911
4.206927073
4.028614428
3.85905678
3.663189709
3.454020948
3.26494133
3.045505446
2.855476253
2.66706816
2.484739488
2.322814757
2.181103927
2.051746026
1.949169651
1.867747368
1.80105338
1.762091581
1.736734985
5.358959788
5.352316149
5.348162801
5.344457427
5.33512329
5.319739538
5.312237641
5.299399981
5.284620021
5.272482025
5.249159069
5.221052651
5.188105284
5.142075731
5.105492966
5.037081671
4.984008072
4.900216621
4.811269755
4.734232867
4.617645112
4.465567951
4.312452316
4.152015938
3.978796147
3.795029081
3.608910459
3.423718597
3.214065307
3.017840695
2.844378314
2.652381614
2.488554104
2.335012669
2.201078753
2.085098331
1.993095018
1.916308168
1.86070144
1.822130421
5.365578723
5.361597993
5.359398693
5.349728963
5.344598337
5.331134469
5.321210455
5.301066206
5.294577528
5.286110896
5.263490061
5.238851021
5.213233932
5.19055407
5.135765103
5.076671157
5.026502877
4.955594648
4.883528836
4.791784931
4.683969239
4.566328369
4.427428699
4.260332083
4.104615949
3.93873035
3.764685244
3.585419241
3.399429952
3.183425827
3.016736978
2.826268963
2.657842449
2.503442048
2.355497567
2.232590015
2.129087932
2.036913022
1.969228833
1.914135264
5.360507088
5.352296585
5.346249171
5.344917341
5.340741714
5.327901076
5.317846445
5.308977101
5.296310399
5.283727409
5.269175272
5.239564307
5.210918248
5.186352264
5.148905227
5.108559623
5.065533685
5.011117874
4.926955935
4.843451963
4.742271966
4.630804025
4.509856531
4.371519691
4.234790196
4.078956781
3.89860303
3.757827507
3.557887315
3.381619799
3.183723376
3.00404891
2.830366609
2.668251705
2.520176788
2.385103521
2.275207739
2.170763429
2.087002998
2.023069304
5.361496299
5.359124869
5.353149681
5.345334139
5.34521765
5.343788102
5.332831071
5.328953528
5.309006477
5.292801823
5.283855992
5.254971271
5.241684451
5.199427565
5.162555812
5.141527211
5.088291909
5.036508479
4.971359222
4.895665626
4.806782389
4.713082226
4.612538216
4.48652424
4.343298582
4.217804254
4.036207723
3.893225495
3.723519812
3.541000567
3.353430729
3.1928047
3.015208631
2.846389606
2.693733217
2.55179891
2.425132759
2.315509146
2.220762573
2.144681764
5.363935843
5.359616799
5.358368787
5.356327497
5.34984738
5.346180334
5.339416956
5.328268205
5.315617775
5.308762561
5.289696667
5.270332062
5.257721842
5.226396007
5.192621923
5.160856591
5.118314053
5.066467708
5.004896628
4.946276208
4.87996124
4.78148196
4.688168829
4.580128953
4.445238693
4.325030913
4.192045544
4.037749579
3.877158231
3.692443212
3.529803345
3.360857777
3.18735217
3.020168223
2.874151625
2.725779509
2.589372848
2.476191107
2.366546368
2.279108356
5.363277725
5.36021183
5.35362629
5.349809836
5.343827061
5.343457923
5.335784113
5.333466951
5.319054127
5.309235215
5.296131749
5.277104003
5.25977164
5.229617114
5.204140903
5.165091451
5.127846494
5.095857365
5.049796925
4.989056874
4.934098029
4.850230023
4.762974278
4.659097535
4.550932024
4.435021372
4.31626487
4.165934954
4.025588695
3.855590934
3.704552298
3.544201739
3.374095909
3.20123073
3.049242837
2.899417541
2.760606115
2.647247071
2.523730052
2.424631879
5.360069645
5.35047177
5.353762026
5.354705964
5.351007294
5.349082815
5.341785415
5.337119785
5.329494983
5.314093752
5.298298049
5.283366642
5.265853
5.246628994
5.225463652
5.196500701
5.167623066
5.140473334
5.091344565
5.041328864
4.976582206
4.905958767
4.83850136
4.747318027
4.647676644
4.552913058
4.425402821
4.298894018
4.153846197
4.005911334
3.845022261
3.712241654
3.540284206
3.38056267
3.231777659
3.082166842
2.925873646
2.813312846
2.688159493
2.575895483
5.367772521
5.364742658
5.358083481
5.354806511
5.344352782
5.33764805
5.336346122
5.336127138
5.326767275
5.314655389
5.307217844
5.293164892
5.281676125
5.273784013
5.251616279
5.225726182
5.201237179
5.158469673
5.122241966
5.080039663
5.02953003
4.956395476
4.893732605
4.813405267
4.736724623
4.635428145
4.521443273
4.410445905
4.294388451
4.160943726
4.012993193
3.877142854
3.7080403
3.551511484
3.410777763
3.264830243
3.102674889
2.979111561
2.857556366
2.733137457
5.359185639
5.360680286
5.359209249
5.355485575
5.35480047
5.347072563
5.342564318
5.339178415
5.334237792
5.318195054
5.31926052
5.30770216
5.286804514
5.281360078
5.259394834
5.236503827
5.213943664
5.191152449
5.157114414
5.114545713
5.066506498
5.003087095
4.942511053
4.876976751
4.803074246
4.719799154
4.616409551
4.50424908
4.415975515
4.300851343
4.140783671
4.006220869
3.864525961
3.722087008
3.58777255
3.45081628
3.304899056
3.152532923
3.029711341
2.899365363
5.367063027
5.36635204
5.359757315
5.355204671
5.349470305
5.350536285
5.343942967
5.342424371
5.331535809
5.323869213
5.322730035
5.30985586
5.292558981
5.281869543
5.278929589
5.256360767
5.232230017
5.213412856
5.177067748
5.139581446
5.090841904
5.057920214
4.996414083
4.939581894
4.876408302
4.789996713
4.714599495
4.618092418
4.512396051
4.416324225
4.288094154
4.151056612
4.018831021
3.891555705
3.750483424
3.620097053
3.490357755
3.346142543
3.207458138
3.080109414
5.36391145
5.360448191
5.356557122
5.358581824
5.354701086
5.351158648
5.347426736
5.344553346
5.340072721
5.33499395
5.322041999
5.316147469
5.30333573
5.294272659
5.281095401
5.266187486
5.255199987
5.223584817
5.187438296
5.157739329
5.121545759
5.082097035
5.039462693
4.987044802
4.924636386
4.865994479
4.77299839
4.69148546
4.621250581
4.523425902
4.399792551
4.288201255
4.157483942
4.037204243
3.911209712
3.788220109
3.660529869
3.514156725
3.397971306
3.256482524
5.369056558
5.362310639
5.364891693
5.35956856
5.364836313
5.364954888
5.357885548
5.354570151
5.353144849
5.345439098
5.338433332
5.334754578
5.316682601
5.302859133
5.301246295
5.287152146
5.274577433
5.237067358
5.217636288
5.195710959
5.158773926
5.109385492
5.080628836
5.034753469
4.988310238
4.922432317
4.853994496
4.787676366
4.718600235
4.628059381
4.526200023
4.427287546
4.300301341
4.188888393
4.069181033
3.941204957
3.82681923
3.696516441
3.580920849
3.445386311
5.369829619
5.370472968
5.369103704
5.367753237
5.36284193
5.359141849
5.358684377
5.359103654
5.352506897
5.349161867
5.344354731
5.33513118
5.320417425
5.320629708
5.316978772
5.302654418
5.28148267
5.25518293
5.233448501
5.204612595
5.173998124
5.145775295
5.111135374
5.072223679
5.033524079
4.976021464
4.908676125
4.854406475
4.78732045
4.716329282
4.633387539
4.532764564
4.41434668
4.333877206
4.216481113
4.095399031
3.970343974
3.851122223
3.739345441
3.624422639
5.365512792
5.367107238
5.365918568
5.364089024
5.358675852
5.360368874
5.351282191
5.348077292
5.346305522
5.344592626
5.343792679
5.336935711
5.325617375
5.31735832
5.309110653
5.294413818
5.28503517
5.273498105
5.254328484
5.225557835
5.208479352
5.181110222
5.147927859
5.107986712
5.065024869
5.037405677
4.979002888
4.92108932
4.864321959
4.802021851
4.724889121
4.641818076
4.543242981
4.454414337
4.351110128
4.237615045
4.129419501
4.012829003
3.896066751
3.784399337
5.367611756
5.362681814
5.361797761
5.356532915
5.356952568
5.353593244
5.360017926
5.358246394
5.357980166
5.353809109
5.342211721
5.335910537
5.336484255
5.331294448
5.320230936
5.312040229
5.304525677
5.291642277
5.273660763
5.24944515
5.222792421
5.205784326
5.176597578
5.142168143
5.108328673
5.077891155
5.023952478
4.98057289
4.91591007
4.871132526
4.805966314
4.732267544
4.643858988
4.568676718
4.463289038
4.368695977
4.280878955
4.170151578
4.057119476
3.956309604
5.364253575
5.364000434
5.36519194
5.362342842
5.357971526
5.360330064
5.356440674
5.350335886
5.350475686
5.346669618
5.342237032
5.338631915
5.328077744
5.329427644
5.325417784
5.314430103
5.301704704
5.292523042
5.277733348
5.261992714
5.232942261
5.225568403
5.194472224
5.176399713
5.14490795
5.09532775
5.070706145
5.028312473
4.977730268
4.932186862
4.872784416
4.820966054
4.736666092
4.666490633
4.577417092
4.49111786
4.397874229
4.319436629
4.200800561
4.106310647
5.36382292
5.36285805
5.366947312
5.364304723
5.3649155
5.362839088
5.359634647
5.356517156
5.355214663
5.347163357
5.343385246
5.34654137
5.339008807
5.3383305
5.329863854
5.319379079
5.308550692
5.306064845
5.295908065
5.282984664
5.258578314
5.244936264
5.231582236
5.204148677
5.175090306
5.141448753
5.117716246
5.072261758
5.028486329
4.985495615
4.953151507
4.879421129
4.822985959
4.761447524
4.681191614
4.615163951
4.518061875
4.428484332
4.344302891
4.243835503
5.363431232
5.361839155
5.361622792
5.358701443
5.359623903
5.356605932
5.357236132
5.358972322
5.355592147
5.352031607
5.350979257
5.346167739
5.343119022
5.346200011
5.335169134
5.332864579
5.322460815
5.319603526
5.306523481
5.298125568
5.282127432
5.267943788
5.24474724
5.226022291
5.207873476
5.174619297
5.157131284
5.12166443
5.088678166
5.040412063
4.998353394
4.960145324
4.897484094
4.846363433
4.783222012
4.703677303
4.628930108
4.551341292
4.478308595
4.378260305
5.368292787
5.367936546
5.366562123
5.363454046
5.358587337
5.357462553
5.356633405
5.360577959
5.355531555
5.354438036
5.350024223
5.348253196
5.343633006
5.342987481
5.330688321
5.329841366
5.316783932
5.317773499
5.312577546
5.299190367
5.29268035
5.276199746
5.252619371
5.239826261
5.227434878
5.210606367
5.171934089
5.154514499
5.122000797
5.082832907
5.050102077
5.020820263
4.971299376
4.907048195
4.837415917
4.791135043
4.72222006
4.658166396
4.577429479
4.505344183
5.364690982
5.366477663
5.365725851
5.363170679
5.366324097
5.36658645
5.359635602
5.35935344
5.356801535
5.359490062
5.356077718
5.35324842
5.345876458
5.344043332
5.336703255
5.334322348
5.331010339
5.328192881
5.319933265
5.307397695
5.303071957
5.291956787
5.267171506
5.261091234
5.252099353
5.238961041
5.202974028
5.175294784
5.150192062
5.128007687
5.09228274
5.067202661
5.024515484
4.978219074
4.922380161
4.866208219
4.810276321
4.746099776
4.682115752
4.612365841
5.362651137
5.359355079
5.356683284
5.356162968
5.352337111
5.351408267
5.354033563
5.356640299
5.35883244
5.360183712
5.358761341
5.359869436
5.35092011
5.348146209
5.348463264
5.345816878
5.33932668
5.336500173
5.325757028
5.319775137
5.307073544
5.299765534
5.286241211
5.281283269
5.267351655
5.251535405
5.220086913
5.202350823
5.184231077
5.159207212
5.138479382
5.110349559
5.07147882
5.037858545
4.993364697
4.949258235
4.896060022
4.837453494
4.776973789
4.71396427
5.364940196
5.362661153
5.359628449
5.358971925
5.360432813
5.359374951
5.361650803
5.360263984
5.356959437
5.356274345
5.357451231
5.355647816
5.352302828
5.352013663
5.351099075
5.349598605
5.350688575
5.345377716
5.332166586
5.323480472
5.31580127
5.310006465
5.300375363
5.299214401
5.28808919
5.274938308
5.252231535
5.227634825
5.211485973
5.19564002
5.169641659
5.144131288
5.114442977
5.085313997
5.057881281
5.018951284
4.975658402
4.925652906
4.867722177
4.815424632
5.364844161
5.363067091
5.362457383
5.364423992
5.363028851
5.362501904
5.361624287
5.356952839
5.357900992
5.360249212
5.362729384
5.363802681
5.356152599
5.357939183
5.356438892
5.349567123
5.346942452
5.336120662
5.338229576
5.331219692
5.321563956
5.315819362
5.309655027
5.300977112
5.287081492
5.275142858
5.265548604
5.241693412
5.234493392
5.21702104
5.191443167
5.178509577
5.146976644
5.121056897
5.094623483
5.060208652
5.02569155
4.990765258
4.955810384
4.898637842
5.367578696
5.368021317
5.365656269
5.364242268
5.362538366
5.363783992
5.363376838
5.360683114
5.359845599
5.359916274
5.359350633
5.358340418
5.356676946
5.355328006
5.353257254
5.353358472
5.355130236
5.35382159
5.352482309
5.337740687
5.333560913
5.330562813
5.325281728
5.316639952
5.305240879
5.298871057
5.288769234
5.269336395
5.265021284
5.248297685
5.219892214
5.217908496
5.194146442
5.171682112
5.148225814
5.121837021
5.080496053
5.053081357
5.020932419
4.982785595
0.9073916899
0.7847217598
0.7184225617
0.6868597174
0.6673430798
0.6520800283
0.6418665637
0.6329116771
0.6280230218
0.6220809665
0.6159801022
0.6162422727
0.6139611171
0.6120109108
0.6102630969
0.6103204792
0.6078695505