/*--------------------------------*- C++ -*----------------------------------*\
| =========                 |                                                 |
| \\      /  F ield         | OpenFOAM: The Open Source CFD Toolbox           |
|  \\    /   O peration     | Version:  v1706                                 |
|   \\  /    A nd           | Web:      www.OpenFOAM.com                      |
|    \\/     M anipulation  |                                                 |
\*---------------------------------------------------------------------------*/
FoamFile
{
    version     2.0;
    format      ascii;
    class       volScalarField;
    location    "0.008";
    object      mctTimeStepRatio_Ar;
}
// * * * * * * * * * * * * * * * * * * * * * * * * * * * * * * * * * * * * * //

dimensions      [0 0 0 0 0 0 0];


internalField   nonuniform List<scalar> 
4000
(
51.16500266
50.91288383
50.77143205
50.62450626
50.34435933
50.04791482
49.61936205
49.29851423
48.48509821
47.72493492
47.02664201
45.6861521
44.36942162
43.18404022
42.07068074
40.40499656
38.79653755
36.88820103
34.92756462
32.77011083
30.40686021
28.10018452
25.69241629
23.21769658
20.6210673
18.14416993
15.87088835
13.85995925
12.24243065
10.89826994
9.857253479
9.06560325
8.4230085
7.885671977
7.33906715
6.820444421
6.235848164
5.588001932
4.829603278
3.938746856
51.04660021
50.93224713
50.84970098
50.71573589
50.50139392
50.21841743
49.67892814
49.40414
48.97305563
48.33828705
47.79473883
46.83599421
45.87268562
44.65590884
43.3307087
41.67819714
40.03258465
38.2716109
36.30197867
34.02427736
31.68463269
29.15453009
26.67709992
24.02793699
21.33542697
18.75849748
16.37796785
14.2721278
12.55106268
11.13045753
10.04025196
9.198686068
8.547031423
7.961941334
7.407436042
6.863479732
6.279122205
5.611006365
4.856761665
3.950939405
51.13029541
51.0172922
50.9397367
50.80309438
50.60662948
50.274291
49.86322455
49.48527299
49.00934688
48.46573153
47.76501841
46.96016395
45.91707112
44.64952372
43.53057148
42.08167748
40.40087894
38.48311534
36.57087677
34.39040383
32.12709406
29.61361159
27.04727727
24.33986053
21.62014318
19.03370029
16.58753688
14.47351705
12.71647279
11.27706895
10.12628867
9.277494917
8.607090505
7.997755722
7.446990811
6.88797203
6.298896965
5.624027798
4.868282999
3.960451712
51.19184562
50.98831487
50.80327401
50.71177723
50.44739379
50.21183333
49.82947384
49.31474286
48.92200062
48.37616333
47.83508514
47.09149073
45.97586417
44.93435534
43.70917227
42.28891504
40.62090453
38.7579301
36.77714758
34.50591313
32.30781468
29.83491281
27.32571197
24.64522687
21.89004721
19.21909549
16.75105059
14.62345798
12.79405837
11.33257953
10.19200249
9.30692042
8.627370021
8.022915114
7.469480057
6.909429524
6.318570818
5.636465687
4.879933168
3.96794741
51.20793361
51.06175534
50.86489283
50.68414835
50.48622979
50.33503039
49.97865921
49.6335471
49.07979373
48.62220495
47.97118541
47.20931206
46.23710221
45.10561922
43.81925028
42.33082458
40.82313273
38.88090627
36.87747217
34.83261816
32.40815628
29.95983348
27.45194016
24.79744357
22.081677
19.43021415
16.97394626
14.77010228
12.91286607
11.42394327
10.27149476
9.376753123
8.68697015
8.057626686
7.488131886
6.929102053
6.329975942
5.653675472
4.89011745
3.98555267
51.16014439
51.06654113
50.91150361
50.77599398
50.51550316
50.14635673
49.8391983
49.5842556
49.13721954
48.53398503
47.89851795
47.19950841
46.09992251
45.16600578
43.94353613
42.60655379
40.94774234
39.15811692
37.09037636
35.04964015
32.68030374
30.30672073
27.70228919
25.01344871
22.28295739
19.64711156
17.12832177
14.93346815
13.04652266
11.54317201
10.34999162
9.452571948
8.701068183
8.098558074
7.530563987
6.97338788
6.346525433
5.683158788
4.911969555
4.001924466
51.16627183
51.00565229
50.86653237
50.67958277
50.52279503
50.34384193
50.04662816
49.66587905
49.2936421
48.83689084
48.16299784
47.39923427
46.41409619
45.40013602
44.2428519
42.8083823
41.16317064
39.36510056
37.3014324
35.18249463
33.00115737
30.48416154
27.90744918
25.25517516
22.5803134
19.86545763
17.31790194
15.11951644
13.2238349
11.68336709
10.44183194
9.516690561
8.784387201
8.149680705
7.57323124
7.007880616
6.394784397
5.703844428
4.930731433
4.011799038
51.17222994
51.06013752
50.89827791
50.75929989
50.5580945
50.31964091
50.04937457
49.59930631
49.19582947
48.65668232
48.10002712
47.39669535
46.60305952
45.49915624
44.31405724
42.9816157
41.33729246
39.61888686
37.65676554
35.50511453
33.22973893
30.73468829
28.26176408
25.55261493
22.76354376
20.10601573
17.57514908
15.3305317
13.40789969
11.81851482
10.56109095
9.617681127
8.849540333
8.206351663
7.622004631
7.044020361
6.43421181
5.732706948
4.954761463
4.02550959
51.20004406
51.14952122
51.03294629
50.81078562
50.68802243
50.42911585
50.1113563
49.80539908
49.26889963
48.86356477
48.22308394
47.58644006
46.68365264
45.63664309
44.54480418
43.15505991
41.693324
39.93056096
37.92088884
35.86223926
33.49177481
31.06212168
28.50012404
25.83718924
23.05754571
20.42876417
17.84503991
15.61135897
13.63033552
11.98317662
10.6989162
9.733567337
8.931168757
8.27945704
7.683010588
7.087422878
6.460609179
5.775445663
4.983073674
4.048568383
51.20592971
51.13714401
51.03914632
50.96349206
50.77857575
50.51336464
50.26674708
49.91797247
49.60376417
48.97431116
48.41781239
47.74172402
46.92028739
45.80062581
44.72553624
43.34213665
41.74096225
40.08025622
38.14782619
36.08302675
33.81634718
31.45718926
28.85901632
26.1526926
23.46021695
20.77797151
18.2041076
15.85834287
13.85795818
12.19232561
10.87204907
9.843978018
9.043290442
8.362240852
7.7415301
7.134693172
6.519775372
5.815289872
5.01335788
4.06632374
51.2096355
51.11706091
50.99616745
50.80548289
50.67419956
50.50553295
50.30025248
49.96591916
49.59837195
49.03906835
48.41254944
47.88276043
47.01053711
46.13109444
44.90783637
43.46157867
42.08223862
40.3022331
38.59895424
36.44231466
34.20489001
31.88713483
29.28885554
26.57400956
23.88345021
21.19547567
18.6126678
16.20056934
14.16709633
12.44692774
11.06388157
9.999697488
9.155127017
8.453142931
7.839150156
7.220283693
6.587297572
5.864500411
5.071131694
4.103858458
51.21393759
51.19128555
51.11974805
50.93412104
50.73316608
50.46815973
50.23426439
49.99873527
49.66571398
49.04510237
48.57944728
47.97843563
47.21823805
46.22062096
45.09572315
43.7276186
42.23545514
40.66917738
38.83941535
36.87645912
34.72313108
32.3671477
29.7803263
27.03145518
24.32709815
21.63905028
19.04000502
16.6214586
14.48356927
12.69123723
11.27841877
10.17453177
9.293030076
8.572228212
7.92317285
7.306610137
6.657379224
5.939128894
5.116046355
4.136043628
51.27579954
51.1627705
51.01651986
50.89689083
50.70004388
50.53087722
50.34162889
50.06886149
49.60496271
49.21392357
48.68496809
48.00962593
47.17517066
46.30549091
45.17223639
43.81999879
42.46908369
40.88531113
39.14005183
37.13801065
34.91343446
32.6297773
30.16572354
27.57354821
24.8129132
22.11467878
19.51967626
17.02275279
14.8588185
13.01620238
11.52718042
10.3727115
9.463490531
8.707050595
8.05785603
7.41213332
6.742815892
6.014624525
5.184101271
4.180470123
51.31859244
51.1911344
51.12507893
50.94580061
50.80785452
50.48985727
50.30656197
50.04407708
49.74904626
49.28541104
48.6670737
48.08221711
47.36856311
46.52914347
45.53866633
44.33336444
42.94417375
41.26496288
39.54117718
37.59716035
35.36755331
33.03286596
30.64532492
28.04226555
25.3410426
22.69877294
20.00152303
17.51168956
15.27800704
13.36187412
11.82170652
10.59171903
9.656017839
8.857481329
8.196152346
7.539305238
6.867898728
6.11433043
5.260760469
4.236060444
51.26956465
51.10494072
51.00774368
50.9118863
50.7348611
50.54559339
50.42815083
50.25923083
49.87401433
49.54583988
48.9345814
48.3629979
47.58287626
46.84294367
45.89701848
44.56049365
43.19443482
41.62236618
39.88572048
37.97660389
35.89639154
33.66041451
31.2168848
28.67617986
25.9259337
23.26020013
20.58280817
18.06265567
15.77892289
13.80300325
12.17244522
10.9052579
9.886750032
9.064330029
8.37778735
7.677832279
7.00027155
6.239583923
5.35777816
4.300640143
51.2446564
51.20711184
51.13900792
51.02076592
50.78916504
50.68561094
50.57880804
50.20652874
49.91949705
49.43463681
48.99728019
48.50293146
47.82788663
46.86434176
46.02995451
44.70775664
43.51928643
42.05477783
40.25348427
38.42540198
36.3374598
34.21285339
31.70847191
29.31831284
26.65957898
23.95816337
21.23979653
18.70232123
16.35009942
14.29761388
12.60982058
11.25276386
10.18126894
9.31822089
8.57294608
7.88265252
7.171394121
6.39945813
5.486339132
4.390843073
51.21308967
51.10621509
51.04641962
50.95361451
50.86276367
50.67846154
50.4679693
50.30619267
50.02344712
49.61522746
49.23136467
48.6481045
47.88978155
47.00768157
46.1231153
45.04613603
43.73384849
42.27250921
40.5775539
38.81488881
36.84829665
34.67688781
32.32114517
29.83609016
27.31536832
24.62825576
21.96147579
19.33858438
16.94581291
14.82903215
13.06404655
11.63036334
10.50299956
9.568882401
8.817788652
8.115986447
7.397105281
6.61431232
5.677543366
4.520815473
51.26904142
51.27572549
51.17846503
51.05745216
50.91707873
50.69859961
50.46501904
50.25257291
49.97389645
49.54841393
49.16257282
48.6877085
48.04010201
47.13467902
46.3256855
45.29032057
44.10481914
42.85137029
41.26659824
39.32753644
37.48065717
35.2848478
33.0140336
30.59319545
28.02663738
25.37142739
22.67990977
20.12159414
17.6385752
15.43522933
13.56524333
12.07033384
10.86358425
9.919184197
9.138516338
8.420790996
7.699399239
6.896414413
5.930363511
4.714774656
51.34769123
51.28685134
51.13906829
51.02240378
50.93719686
50.65403713
50.52941267
50.30180278
50.01766991
49.74277603
49.21443748
48.74290659
48.11685097
47.45920658
46.60453803
45.59245139
44.58381186
43.19589133
41.46818799
39.7693441
37.98481043
35.84917086
33.6422501
31.28127088
28.74194525
26.18252598
23.57132363
20.9452985
18.47838375
16.15465
14.21654088
12.61697978
11.32072646
10.32610326
9.513199048
8.787019334
8.092860443
7.298663876
6.350164529
5.027589624
51.30065811
51.18671986
51.1531179
51.05012682
50.97994488
50.78958309
50.68159831
50.44825032
50.2311988
50.0268621
49.58497275
49.15215556
48.53817864
47.79229935
47.07682383
46.04068993
44.87389133
43.49047842
41.96748539
40.36742154
38.51467118
36.5802855
34.30577657
32.10088854
29.62339022
27.03621933
24.45706075
21.84580422
19.29946551
16.97093529
14.91617968
13.24460355
11.85853487
10.79434799
9.953603052
9.266665033
8.611807138
7.953509748
7.144575682
5.835180324
51.29333248
51.26523632
51.24757317
51.16809422
50.99513498
50.84175489
50.67378053
50.46279666
50.27436482
50.04320404
49.52975777
49.1322207
48.64654836
47.80236328
47.13772531
46.23812883
45.108209
43.90261217
42.56472695
41.01993934
39.17804274
37.1672188
35.15933156
32.90104625
30.44992118
27.9824744
25.38751873
22.75961525
20.19320331
17.84355902
15.74139414
13.9458223
12.48867257
11.35765128
10.49319595
9.803527665
9.260696612
8.80881586
8.533351781
9.370817461
51.33663275
51.23931635
51.2271279
51.11425303
51.00717374
50.87050028
50.7651761
50.52432046
50.27242357
49.97780892
49.71516002
49.26579014
48.85300874
48.27258323
47.56227573
46.63075012
45.51263442
44.29376854
42.99578076
41.54300925
39.71003907
37.95365884
35.8695802
33.64236336
31.38963324
28.90157678
26.29546239
23.74343068
21.2554328
18.84818451
16.67671236
14.75122683
13.2151991
11.99947939
11.09695672
10.44578271
9.998829357
9.788957925
10.01231318
11.55678006
51.29734235
51.22749441
51.09487668
51.09476863
51.04393121
50.88794507
50.6519038
50.44262769
50.26056224
49.99548283
49.63913625
49.3188904
48.9014272
48.27400073
47.51394648
46.60141422
45.70756293
44.68624988
43.44809337
42.14688033
40.48068867
38.77791677
36.71313974
34.51140821
32.3609718
29.93476695
27.44374912
24.87726563
22.30221345
19.88332589
17.67640217
15.68871889
14.07040301
12.75720084
11.80096829
11.14285061
10.76188036
10.7144315
11.1518697
12.57620255
51.33466353
51.30262119
51.252029
51.07576847
51.01506393
50.90583208
50.81939665
50.68535488
50.54655702
50.29600616
49.95034192
49.56355546
49.15284338
48.60685684
47.74404313
46.96673786
46.11098953
45.11624174
43.84914735
42.53813027
40.99551209
39.22577093
37.3853235
35.37200369
33.19819808
30.90033074
28.4361946
25.9650562
23.51021907
21.01541528
18.77139474
16.74927921
14.9724555
13.6113236
12.57362649
11.91997936
11.56655172
11.57868791
12.03804778
13.21030262
51.39197297
51.34843403
51.29767604
51.23377101
51.19705366
51.07513294
50.86918784
50.71076924
50.52117405
50.30335731
50.02522984
49.63811297
49.3113481
48.80356034
48.01209451
47.31373828
46.50684742
45.50937597
44.28626721
42.98959819
41.66921605
39.96827073
38.2106207
36.32588505
34.1453881
31.94213859
29.54883134
27.09420909
24.64855041
22.20863423
19.90015842
17.79849266
16.01351652
14.54092026
13.45546046
12.70531794
12.31861112
12.2975689
12.72418075
13.64674823
51.29923985
51.19433147
51.17238563
51.12865711
51.04413659
50.92341457
50.85238626
50.6726851
50.57509169
50.42306691
50.17754754
49.8428216
49.39123376
48.78348855
48.30025034
47.59887206
46.79588637
45.93962625
44.77901816
43.54541316
42.2787623
40.68499023
38.96629776
37.0951805
35.11767772
32.89693052
30.665862
28.33789149
25.93167617
23.46210292
21.18930556
19.0180683
17.13138483
15.5775979
14.3912527
13.57081309
13.05736225
12.98270984
13.30570493
14.05149813
51.3651473
51.34861284
51.32277081
51.22994807
51.1105122
51.03828833
50.94667881
50.77118722
50.57229341
50.4599451
50.3230901
50.00814234
49.59860253
49.22569364
48.55414436
47.98681405
47.32878117
46.38779805
45.35570648
44.22524372
42.97604454
41.52469546
39.84444961
38.05237764
36.07501588
33.95391761
31.79904027
29.52103095
27.14497699
24.79883694
22.51362
20.28973696
18.34518833
16.67225384
15.35663341
14.47317621
13.88108327
13.67284257
13.86464981
14.45265329
51.35802887
51.32246383
51.27849932
51.19100334
51.20648837
51.17342067
51.04395925
50.92659774
50.76035027
50.60766527
50.41424169
50.0441515
49.73709123
49.37451736
48.95458566
48.26046569
47.66909105
46.7665489
45.82266505
44.8100944
43.58261656
42.17499585
40.60026635
38.89002723
37.04820146
35.00416136
32.9762002
30.78229374
28.44818906
26.10519903
23.85290647
21.69817179
19.62549087
17.94562248
16.49675419
15.43514651
14.73894319
14.40452257
14.41099035
14.78117564
51.37184484
51.3218417
51.26223271
51.21137942
51.19950646
51.15621112
51.07414154
50.89855081
50.74196895
50.60699968
50.44835738
50.2928979
49.86506943
49.52926797
49.00484609
48.36844858
47.76216343
47.14363117
46.20848418
45.30929711
44.17604775
42.86942799
41.40216917
39.81598713
38.17360843
36.24017592
34.164818
32.05973955
29.85983816
27.59470264
25.33369358
23.19421328
21.11290846
19.28885152
17.72545345
16.51539531
15.64397306
15.13989716
15.03710033
15.19797711
51.32794487
51.32009818
51.27325262
51.27725521
51.2591526
51.14656755
51.07175578
51.03074347
50.88191358
50.7094345
50.54165147
50.28899484
49.98186596
49.710533
49.30462459
48.82845777
48.09539326
47.39749901
46.56320169
45.65339334
44.66172175
43.39534161
42.12047451
40.59997625
38.96540453
37.20111161
35.36217683
33.31047626
31.27521763
29.09920196
26.84380097
24.69787402
22.59448086
20.7341883
19.05947498
17.7365575
16.69771602
15.99169737
15.67475699
15.69720713
51.41205103
51.41090431
51.37670062
51.29576108
51.2127311
51.09341995
50.97118409
50.86933986
50.81322748
50.75512443
50.64874188
50.47580014
50.22314478
49.94539892
49.50907594
49.07205128
48.41398611
47.87576805
47.18876892
46.36163801
45.36726233
44.29444021
42.88041893
41.37751298
39.91668626
38.28190726
36.46578352
34.55358094
32.53793142
30.43374979
28.31914832
26.17585019
24.11930245
22.21231853
20.48639183
19.0140931
17.8548973
16.96478735
16.44061287
16.25038768
51.39057255
51.31612619
51.23397179
51.20225757
51.14573688
51.1072227
51.06306125
51.06887391
50.93196516
50.73585705
50.60315175
50.4541712
50.18376604
49.88530608
49.51482152
49.12959573
48.67291422
48.16900177
47.52236928
46.70613716
45.8035887
44.84693548
43.59202474
42.25167244
40.88233218
39.39087781
37.70329663
35.75332774
33.91278839
31.88131514
29.77647666
27.72476883
25.6739411
23.80343277
21.97068784
20.41676769
19.09013023
18.06547145
17.39625061
16.95202974
51.4304762
51.40640423
51.34210909
51.29845124
51.25643897
51.20326927
51.14226877
51.04212447
50.9553794
50.8655762
50.71696779
50.58161012
50.28258463
50.07252414
49.78648862
49.44116959
48.96054102
48.42784496
47.84088617
47.24921756
46.33938689
45.43293845
44.2077624
43.05184259
41.56098329
40.24573309
38.77294065
36.96620201
35.11427935
33.32961549
31.26807148
29.32852344
27.29475188
25.38489637
23.55338752
21.89583046
20.45863031
19.30053446
18.44052066
17.79033216
51.38977384
51.38651715
51.42410488
51.42258385
51.39388666
51.27396863
51.15318031
51.06403201
50.9269716
50.83835774
50.72763342
50.60405504
50.34073894
50.05862973
49.81813588
49.5892722
49.13347261
48.66650049
48.16291976
47.57209543
46.88830519
45.91468932
44.94250848
43.83862438
42.57664374
41.28946545
39.7489888
38.24204538
36.60171784
34.78051549
32.86674159
30.8914747
29.06803112
27.08495378
25.19164375
23.53523262
22.00736455
20.61809762
19.57621337
18.79000588
51.44410348
51.38903622
51.34444429
51.29509198
51.23650811
51.23050496
51.25974116
51.12631136
51.0911552
50.96508572
50.91803955
50.70208338
50.51062986
50.25847667
50.06520251
49.67898228
49.28438295
48.97011642
48.48428424
47.82865352
47.13668703
46.32640901
45.48564179
44.55041134
43.35795934
42.16416539
40.78926011
39.36395749
37.787504
36.09352038
34.35153422
32.43913893
30.5313089
28.70271835
26.82841293
25.11274232
23.52643125
22.07110086
20.88196207
19.90151189
51.43992819
51.39632208
51.39770337
51.39033942
51.31555044
51.22892623
51.19416954
51.17502728
51.04623057
50.96892419
50.84368139
50.76335241
50.61587466
50.52622516
50.37099629
50.05486813
49.73294053
49.34778955
48.90954678
48.41798458
47.7245377
46.95571272
46.16434094
45.19473152
44.27370475
43.07945151
41.77027791
40.46962829
38.85713916
37.31722995
35.67237045
33.9413095
32.18512717
30.38489566
28.51447234
26.7745767
25.15167365
23.5967282
22.31885802
21.17352001
51.4676973
51.43978638
51.39546947
51.41110469
51.4099616
51.338649
51.25518806
51.19978922
51.1906225
51.08882882
50.99920278
50.89190833
50.72408803
50.51010456
50.3542585
50.03114587
49.79741402
49.45356002
49.03926632
48.66093375
48.14381133
47.44879936
46.70634509
45.84550107
44.87958968
43.87395453
42.72415139
41.51618598
40.04679776
38.53026463
37.0874555
35.34772917
33.65591908
31.93726083
30.21642891
28.49977337
26.85870469
25.22587222
23.79217735
22.53255696
51.46387378
51.45147622
51.44730252
51.35501442
51.30226231
51.22525259
51.22820456
51.1759037
51.16137914
51.18825047
51.07581448
50.9198938
50.80559044
50.66784929
50.39577494
50.12224856
49.90149629
49.56520741
49.26237942
48.85382002
48.34075389
47.79915879
47.10067352
46.20858842
45.36186464
44.40298717
43.41052831
42.30820624
41.08296604
39.61594411
38.3007712
36.73721268
35.1939863
33.57244237
31.87735132
30.19961128
28.5839598
26.97904911
25.45584569
24.01316688
51.43640639
51.40476442
51.42873583
51.43872351
51.42666235
51.40066893
51.33265181
51.260336
51.20342108
51.12504526
51.01714769
50.91947034
50.75920629
50.66564037
50.5625353
50.4231391
50.20089679
49.94086046
49.52730442
49.10702982
48.64276
48.0952836
47.54276005
46.88496155
46.14310167
45.3247009
44.26569586
43.38032003
42.16799617
40.95185435
39.51536621
38.07382171
36.52553248
34.98509833
33.37581559
31.77580341
30.2213638
28.61044368
27.09364537
25.65132452
51.43596149
51.44728705
51.43198316
51.38468861
51.40733087
51.39312421
51.35283017
51.30436243
51.20359908
51.14335596
51.14827854
51.03388366
50.99135355
50.84668282
50.6633564
50.55405326
50.35390125
50.1269835
49.83262762
49.53936636
49.08613517
48.60261651
48.04090689
47.42805926
46.69746135
46.02360325
45.06526465
44.17017598
43.14208472
41.94414175
40.67161291
39.48155059
38.05072523
36.5461573
35.03399814
33.45060985
31.88419418
30.34576112
28.81431717
27.39530608
51.41589891
51.41477396
51.39746096
51.40648812
51.41350767
51.4174572
51.38803221
51.32433693
51.27620316
51.23053968
51.16332416
51.0985094
51.06194184
50.88774191
50.71868344
50.53813978
50.38332233
50.15460576
49.87221991
49.59059423
49.31291062
48.89264164
48.49446478
47.9471739
47.27697923
46.6356012
45.89167842
45.06169006
44.06644847
42.94880016
41.89092493
40.66642851
39.33895046
37.92642261
36.54791802
35.04432128
33.52813762
32.04527591
30.49522285
29.05432177
51.45580826
51.4236462
51.3658703
51.33438373
51.27630307
51.24283632
51.25468408
51.29872289
51.28169426
51.23249724
51.17991507
51.07676712
50.99414524
50.88399686
50.79044227
50.59153037
50.41834667
50.3291156
50.18291315
49.90605189
49.6252952
49.18853122
48.76643563
48.26078607
47.71115354
47.08573336
46.4094042
45.57290247
44.79888591
43.77213744
42.76266665
41.66132949
40.46225457
39.16203826
37.86718781
36.47838183
35.0526699
33.71599129
32.20208146
30.76963947
51.45105232
51.36408354
51.40962586
51.42533057
51.44922656
51.44665211
51.3866317
51.30084226
51.19366921
51.14278876
51.06966967
51.00707933
50.94203019
50.8903633
50.80259594
50.65923802
50.50448979
50.33379187
50.05304826
49.86686117
49.63189942
49.33850278
48.97897203
48.55696915
48.06523306
47.62050955
47.02035769
46.33639703
45.48335837
44.61073334
43.64987975
42.81889935
41.66397595
40.48045898
39.28708134
38.00181223
36.57587479
35.31930706
33.8857132
32.4470872
51.45113369
51.46072787
51.41518796
51.39567473
51.31764344
51.29188131
51.30867389
51.37160743
51.33595014
51.27536313
51.20289325
51.06811792
50.98293689
50.9633899
50.83905431
50.75817662
50.66910225
50.47453266
50.33921636
50.11472956
49.85156735
49.54878093
49.31160569
48.95502837
48.53526675
48.02746514
47.40943294
46.82979616
46.24730003
45.55040883
44.67176822
43.77791324
42.67825407
41.5615277
40.4854918
39.32647566
37.92151687
36.78018292
35.47993814
34.06681461
51.39927841
51.36414556
51.34507729
51.31489852
51.27137131
51.25647871
51.23707383
51.24976298
51.23183284
51.14769161
51.23134211
51.25402279
51.20223619
51.12898839
51.08017871
50.96289477
50.86621101
50.82585735
50.64404117
50.47391364
50.24916378
49.89942771
49.56479437
49.24740039
48.91373098
48.52281633
48.0010683
47.44712094
46.94327813
46.27662652
45.37540975
44.55656295
43.65380189
42.76848301
41.8280631
40.7080436
39.51618296
38.15880643
36.97653722
35.64525944
51.47619754
51.49643045
51.45655078
51.43461698
51.44731516
51.424441
51.35861392
51.29004253
51.23715594
51.24453182
51.23096369
51.19532582
51.0980744
51.06367233
51.06008353
51.02459437
50.95449031
50.85017905
50.7150061
50.50699639
50.29549001
50.21491744
49.94202716
49.6651339
49.32472315
48.8912131
48.53062449
48.02257223
47.43404873
46.90139646
46.20188486
45.43389782
44.61382408
43.77561756
42.82588454
41.86530221
40.89613032
39.77475272
38.51520785
37.2745659
51.47804995
51.47403038
51.43470667
51.47906134
51.50348974
51.52379601
51.56239256
51.53931081
51.52325028
51.46411147
51.34672405
51.29249898
51.2985557
51.244908
51.21285042
51.0490814
51.0015362
50.87432656
50.72447382
50.62380442
50.43398487
50.25103151
50.04004002
49.80335577
49.4904138
49.2015926
48.76624215
48.33029528
47.93989594
47.34834248
46.7223011
46.04016688
45.31009328
44.57725362
43.79382769
43.00595989
42.08444567
40.98196856
39.98863668
38.76111902
51.46886767
51.45475043
51.51669256
51.48389668
51.44243013
51.40638601
51.36392608
51.36462785
51.36671139
51.38670124
51.3724487
51.32574865
51.21538078
51.1342619
51.08030593
51.06309524
50.97720786
50.77746656
50.71892713
50.63654989
50.46308217
50.1886666
50.05711462
49.86903302
49.68733432
49.37194285
49.05037239
48.75644724
48.44075188
48.03300823
47.45633785
46.91704388
46.15978975
45.46304921
44.68926724
43.86098211
43.05576721
42.07120485
41.1705274
40.09719054
51.45690147
51.46463445
51.46730048
51.44024443
51.46681681
51.47721669
51.47720273
51.4625785
51.39805557
51.35506194
51.35726279
51.30592218
51.23389302
51.25592986
51.26169306
51.20710293
51.09738811
50.97941986
50.83169074
50.68748586
50.59383494
50.49267782
50.37820302
50.18968154
50.00902954
49.75461883
49.44948051
49.16016594
48.84722452
48.48659265
48.06419884
47.50799401
46.85121165
46.37144071
45.65159632
44.84918128
44.02592811
43.23340407
42.41450249
41.48430205
51.46568592
51.52107193
51.50317134
51.49084277
51.43035527
51.41652183
51.36488759
51.37114314
51.37719053
51.38267696
51.42743122
51.43083451
51.38895859
51.32008638
51.22577044
51.15611755
51.11312481
51.0996842
51.05980884
50.93631099
50.82956577
50.69336794
50.49782739
50.27485792
50.0945835
49.98941699
49.71667077
49.42760199
49.08988275
48.73314802
48.3077683
47.86052034
47.38474099
46.89124127
46.3587398
45.7247421
45.05275975
44.27235878
43.44751919
42.64748061
51.46141947
51.34805659
51.35679405
51.33344178
51.33411988
51.35642077
51.41330716
51.45431797
51.45441564
51.45768613
51.35075912
51.28233351
51.28333387
51.20901853
51.1820028
51.16694808
51.12065348
51.07146617
50.98550982
50.87650314
50.73356759
50.6629673
50.54189946
50.44844249
50.29289479
50.12493199
49.84863232
49.60219754
49.30309197
49.07282572
48.75611912
48.42705549
47.9786894
47.5945901
46.99870522
46.49181351
45.90824999
45.23050521
44.49872115
43.76009821
51.45384921
51.47020259
51.43309652
51.42383819
51.41569218
51.45802378
51.38596933
51.31155931
51.2902662
51.28017714
51.26641325
51.24124058
51.21131423
51.27284813
51.27853144
51.20477892
51.13723404
51.05961461
50.98128422
50.92189852
50.81642323
50.77864261
50.63451276
50.54650975
50.36696751
50.11813964
50.05285463
49.9417651
49.72853485
49.58766814
49.36388977
49.10375171
48.63128616
48.19854249
47.67820934
47.13641379
46.63736074
46.1561958
45.43213506
44.79821757
51.45163486
51.46299346
51.51362583
51.51812791
51.50013448
51.41827845
51.41621648
51.4182183
51.43732037
51.37495472
51.38600751
51.42812876
51.36636324
51.32895583
51.25323066
51.2056799
51.16602761
51.15436836
51.10496537
51.02463057
50.87827641
50.83154369
50.78424268
50.66916003
50.50829952
50.38457463
50.28546185
50.08304443
49.85938075
49.63507705
49.41872992
49.03440195
48.79497997
48.53388107
48.1195076
47.78903284
47.1885205
46.653692
46.13926727
45.50862956
51.44494737
51.45096083
51.41048831
51.4239008
51.46482614
51.51785
51.51650159
51.51667614
51.53289557
51.48862781
51.44584631
51.41859642
51.43117768
51.46539902
51.40513865
51.39258892
51.33678367
51.36469944
51.30075106
51.24914638
51.22829361
51.15410051
51.03575874
50.93961484
50.87845354
50.73840783
50.57404222
50.35593878
50.22249604
49.98868166
49.7858112
49.58052037
49.25899082
48.96478249
48.65413978
48.23524357
47.85073272
47.40060003
46.9423262
46.3270291
51.48515689
51.52870571
51.51163056
51.46324692
51.40606788
51.38385181
51.41377109
51.41777847
51.42223735
51.42881368
51.40646072
51.4036739
51.39394766
51.42740123
51.39761693
51.46463199
51.41047349
51.3892603
51.3861561
51.32168028
51.28422807
51.21234441
51.09298968
51.05480411
51.02958192
50.96067065
50.80202556
50.72697283
50.54823071
50.34909297
50.17197893
50.00526732
49.74132221
49.42065051
49.03834559
48.74749745
48.39921499
48.0119751
47.51330413
47.10810627
51.40615121
51.37748149
51.38644078
51.38071657
51.45870143
51.47133444
51.40204186
51.36735275
51.33209741
51.36353085
51.353732
51.33785982
51.34447726
51.35013968
51.36316171
51.34993193
51.34173641
51.35598555
51.37155063
51.35023762
51.36292671
51.35783492
51.28340045
51.24834811
51.16485718
51.13029989
50.99880835
50.83560215
50.71052788
50.6090801
50.39677583
50.32091156
50.1199946
49.83143487
49.51591733
49.26498661
48.89707493
48.52316565
48.18192922
47.77979207
51.48801222
51.46333507
51.44272582
51.49254947
51.43596839
51.4039298
51.42464842
51.47387133
51.49569454
51.5253027
51.54053397
51.53569767
51.43959912
51.45112871
51.37373005
51.34024219
51.34898138
51.35297742
51.28835572
51.33903108
51.29829901
51.29320017
51.25082327
51.22289262
51.20066709
51.09099573
50.92536942
50.88607574
50.81396761
50.66802939
50.61640374
50.44079237
50.25199078
50.10479549
49.88126511
49.59486701
49.32561691
49.05789985
48.74321228
48.33982791
51.42246045
51.41001981
51.3930094
51.4061124
51.4195313
51.48811337
51.5446012
51.55519547
51.56732046
51.55224371
51.56143254
51.58186429
51.5791539
51.52186819
51.55115297
51.56699961
51.54870867
51.46613869
51.41133709
51.31669156
51.24732444
51.20723811
51.14733622
51.14879501
51.12339352
51.06993193
50.95836302
50.84651499
50.79868651
50.79164116
50.65992912
50.50287335
50.34027437
50.19479749
50.06554431
49.91647221
49.72370745
49.44971017
49.0717084
48.79545518
51.50099905
51.50373972
51.54099869
51.54132818
51.53082517
51.51775728
51.48130317
51.38670563
51.38826423
51.38510214
51.40159689
51.38553087
51.38857439
51.47852893
51.48040166
51.47852456
51.46259642
51.44180894
51.45110874
51.40328523
51.3637895
51.35597421
51.2960486
51.25285123
51.19002427
51.13993792
51.15373971
51.09966719
51.03726899
50.94515359
50.87360362
50.82115968
50.69952313
50.61926065
50.47567324
50.28373536
50.01739385
49.80586658
49.60607569
49.24859587
51.47600021
51.50144886
51.47032252
51.43757946
51.45794176
51.50648047
51.54933845
51.57394371
51.56824371
51.5773523
51.58880991
51.62149379
51.58279902
51.54261464
51.54331141
51.53529978
51.59474169
51.57461497
51.59792859
51.55766246
51.52376188
51.47249175
51.48668514
51.46019598
51.39111489
51.33508534
51.23576484
51.10742635
51.08065506
50.99176409
50.81734898
50.83904977
50.72219501
50.58052041
50.47597916
50.33345028
50.17995765
50.08212237
49.91988313
49.75298641
19.98916747
29.75424244
33.81856109
36.27282051
38.05155611
39.20027935
40.35235432
41.39525918
42.40772239
43.40759507
44.04354838
44.9940413
45.75401818
46.41772659
47.22546843
48.03355916
48.72032994
49.35673543
49.87646563
50.78066173
51.71432204
52.36980886
53.00805083
53.58688396
54.28090236
54.82818884
55.47784418
56.16184724
56.97249235
57.77884065
58.83313421
59.72193659
60.78159219
61.94318261
63.16711929
64.62658347
66.60775299
69.06449763
72.61702563
81.6872399
16.14157755
22.60543418
27.97606204
31.69893241
34.50543785
36.70077351
38.17963269
39.61408399
40.93140868
42.03589477
43.28220424
44.33187763