/*--------------------------------*- C++ -*----------------------------------*\
| =========                 |                                                 |
| \\      /  F ield         | OpenFOAM: The Open Source CFD Toolbox           |
|  \\    /   O peration     | Version:  v1706                                 |
|   \\  /    A nd           | Web:      www.OpenFOAM.com                      |
|    \\/     M anipulation  |                                                 |
\*---------------------------------------------------------------------------*/
FoamFile
{
    version     2.0;
    format      ascii;
    class       volScalarField;
    location    "0.008";
    object      meanCollisionTime_Ar;
}
// * * * * * * * * * * * * * * * * * * * * * * * * * * * * * * * * * * * * * //

dimensions      [0 0 1 0 0 0 0];


internalField   nonuniform List<scalar> 
4000
(
4.093200213e-06
4.073030707e-06
4.061714564e-06
4.049960501e-06
4.027548746e-06
4.003833185e-06
3.969548964e-06
3.943881138e-06
3.878807857e-06
3.817994793e-06
3.76213136e-06
3.654892168e-06
3.54955373e-06
3.454723218e-06
3.365654459e-06
3.232399725e-06
3.103723004e-06
2.951056082e-06
2.794205169e-06
2.621608866e-06
2.432548817e-06
2.248014762e-06
2.055393303e-06
1.857415727e-06
1.649685384e-06
1.451533594e-06
1.269671068e-06
1.10879674e-06
9.793944523e-07
8.718615949e-07
7.885802783e-07
7.2524826e-07
6.7384068e-07
6.308537581e-07
5.87125372e-07
5.456355537e-07
4.988678531e-07
4.470401546e-07
3.863682622e-07
3.150997485e-07
4.083728017e-06
4.07457977e-06
4.067976079e-06
4.057258871e-06
4.040111513e-06
4.017473394e-06
3.974314251e-06
3.9523312e-06
3.91784445e-06
3.867062964e-06
3.823579106e-06
3.746879537e-06
3.669814849e-06
3.572472707e-06
3.466456696e-06
3.334255771e-06
3.202606772e-06
3.061728872e-06
2.904158294e-06
2.721942189e-06
2.534770615e-06
2.332362407e-06
2.134167994e-06
1.92223496e-06
1.706834158e-06
1.500679798e-06
1.310237428e-06
1.141770224e-06
1.004085014e-06
8.904366022e-07
8.032201569e-07
7.358948854e-07
6.837625138e-07
6.369553067e-07
5.925948833e-07
5.490783786e-07
5.023297764e-07
4.488805092e-07
3.885409332e-07
3.160751524e-07
4.090423633e-06
4.081383376e-06
4.075178936e-06
4.06424755e-06
4.048530358e-06
4.02194328e-06
3.989057964e-06
3.958821839e-06
3.92074775e-06
3.877258522e-06
3.821201473e-06
3.756813116e-06
3.67336569e-06
3.571961897e-06
3.482445718e-06
3.366534199e-06
3.232070315e-06
3.078649227e-06
2.925670142e-06
2.751232307e-06
2.570167525e-06
2.369088927e-06
2.163782182e-06
1.947188842e-06
1.729611455e-06
1.522696023e-06
1.32700295e-06
1.157881364e-06
1.017317823e-06
9.021655156e-07
8.101030939e-07
7.421995933e-07
6.885672404e-07
6.398204578e-07
5.957592649e-07
5.510377624e-07
5.039117572e-07
4.499222238e-07
3.894626399e-07
3.168361369e-07
4.095347649e-06
4.07906519e-06
4.064261921e-06
4.056942178e-06
4.035791503e-06
4.016946667e-06
3.986357907e-06
3.945179429e-06
3.913760049e-06
3.870093066e-06
3.826806811e-06
3.767319258e-06
3.678069134e-06
3.594748428e-06
3.496733782e-06
3.383113203e-06
3.249672362e-06
3.100634408e-06
2.942171806e-06
2.76047305e-06
2.584625175e-06
2.386793025e-06
2.186056958e-06
1.971618149e-06
1.751203777e-06
1.537527639e-06
1.340084047e-06
1.169876639e-06
1.02352467e-06
9.066063623e-07
8.15360199e-07
7.445536336e-07
6.901896017e-07
6.418332091e-07
5.975584045e-07
5.527543619e-07
5.054856655e-07
4.509172549e-07
3.903946534e-07
3.174357928e-07
4.096634689e-06
4.084940428e-06
4.069191427e-06
4.054731868e-06
4.038898383e-06
4.026802431e-06
3.998292737e-06
3.970683768e-06
3.926383498e-06
3.889776396e-06
3.837694833e-06
3.776744965e-06
3.698968176e-06
3.608449537e-06
3.505540023e-06
3.386465966e-06
3.265850619e-06
3.110472501e-06
2.950197773e-06
2.786609453e-06
2.592652502e-06
2.396786678e-06
2.196155213e-06
1.983795486e-06
1.76653416e-06
1.554417132e-06
1.357915701e-06
1.181608182e-06
1.033029286e-06
9.139154614e-07
8.21719581e-07
7.501402498e-07
6.94957612e-07
6.446101349e-07
5.990505509e-07
5.543281642e-07
5.063980753e-07
4.522940378e-07
3.91209396e-07
3.188442136e-07
4.092811551e-06
4.08532329e-06
4.072920288e-06
4.062079519e-06
4.041240252e-06
4.011708539e-06
3.987135864e-06
3.966740448e-06
3.930977563e-06
3.882718802e-06
3.831881436e-06
3.775960673e-06
3.687993801e-06
3.613280462e-06
3.515482891e-06
3.408524303e-06
3.275819387e-06
3.132649353e-06
2.967230109e-06
2.803971212e-06
2.614424299e-06
2.424537658e-06
2.216183136e-06
2.001075897e-06
1.782636591e-06
1.571768925e-06
1.370265742e-06
1.194677452e-06
1.043721813e-06
9.234537607e-07
8.279993296e-07
7.562057559e-07
6.960854546e-07
6.47884646e-07
6.024451189e-07
5.578710304e-07
5.077220347e-07
4.54652703e-07
3.929575644e-07
3.201539572e-07
4.093301747e-06
4.080452183e-06
4.06932259e-06
4.054366622e-06
4.041823602e-06
4.027507355e-06
4.003730252e-06
3.973270324e-06
3.943491368e-06
3.906951267e-06
3.853039827e-06
3.791938742e-06
3.713127695e-06
3.632010882e-06
3.539428152e-06
3.424670584e-06
3.293053651e-06
3.149208045e-06
2.984114592e-06
2.814599571e-06
2.64009259e-06
2.438732923e-06
2.232595934e-06
2.020414013e-06
1.806425072e-06
1.589236611e-06
1.385432155e-06
1.209561316e-06
1.057906792e-06
9.346693675e-07
8.353465551e-07
7.613352449e-07
7.027509761e-07
6.519744564e-07
6.058584992e-07
5.606304493e-07
5.115827518e-07
4.563075543e-07
3.944585147e-07
3.20943923e-07
4.093778396e-06
4.084811002e-06
4.071862233e-06
4.060743992e-06
4.04464756e-06
4.025571272e-06
4.003949965e-06
3.967944505e-06
3.935666358e-06
3.892534585e-06
3.848002169e-06
3.791735628e-06
3.728244761e-06
3.639932499e-06
3.545124579e-06
3.438529256e-06
3.306983397e-06
3.169510949e-06
3.012541243e-06
2.840409162e-06
2.658379115e-06
2.458775064e-06
2.260941126e-06
2.044209194e-06
1.821083501e-06
1.608481258e-06
1.406011927e-06
1.226442536e-06
1.072631975e-06
9.45481186e-07
8.448872756e-07
7.694144902e-07
7.079632266e-07
6.56508133e-07
6.097603705e-07
5.635216288e-07
5.147369448e-07
4.586165558e-07
3.963809171e-07
3.220407672e-07
4.096003525e-06
4.091961698e-06
4.082635703e-06
4.064862849e-06
4.055041794e-06
4.034329268e-06
4.008908504e-06
3.984431926e-06
3.94151197e-06
3.909085181e-06
3.857846716e-06
3.806915205e-06
3.734692211e-06
3.650931447e-06
3.563584334e-06
3.452404793e-06
3.33546592e-06
3.194444877e-06
3.033671107e-06
2.868979141e-06
2.679341985e-06
2.484969734e-06
2.280009923e-06
2.066975139e-06
1.844603657e-06
1.634301133e-06
1.427603193e-06
1.248908718e-06
1.090426841e-06
9.586541297e-07
8.559132963e-07
7.78685387e-07
7.144935006e-07
6.623565632e-07
6.14640847e-07
5.669938302e-07
5.168487343e-07
4.620356531e-07
3.986458939e-07
3.238854707e-07
4.096474377e-06
4.090971521e-06
4.083131705e-06
4.077079365e-06
4.06228606e-06
4.041069171e-06
4.021339766e-06
3.993437798e-06
3.968301134e-06
3.917944893e-06
3.873424992e-06
3.819337922e-06
3.753622992e-06
3.664050064e-06
3.578042899e-06
3.467370932e-06
3.33927698e-06
3.206420497e-06
3.051826095e-06
2.88664214e-06
2.705307774e-06
2.516575141e-06
2.308721305e-06
2.092215408e-06
1.876817356e-06
1.662237721e-06
1.456328608e-06
1.268667429e-06
1.108636655e-06
9.753860485e-07
8.697639259e-07
7.875182414e-07
7.234632353e-07
6.689792682e-07
6.19322408e-07
5.707754537e-07
5.215820297e-07
4.652231897e-07
4.010686304e-07
3.253058992e-07
4.09677084e-06
4.089364873e-06
4.079693396e-06
4.064438631e-06
4.053935965e-06
4.040442636e-06
4.024020198e-06
3.997273533e-06
3.967869756e-06
3.923125468e-06
3.873003955e-06
3.830620835e-06
3.760842969e-06
3.690487555e-06
3.59262691e-06
3.476926294e-06
3.36657909e-06
3.224178648e-06
3.08791634e-06
2.915385173e-06
2.736391201e-06
2.550970786e-06
2.343108443e-06
2.125920765e-06
1.910676017e-06
1.695638054e-06
1.489013424e-06
1.296045547e-06
1.133367707e-06
9.95754219e-07
8.85110526e-07
7.99975799e-07
7.324101614e-07
6.762514345e-07
6.271320124e-07
5.776226955e-07
5.269838057e-07
4.691600329e-07
4.056905355e-07
3.283086767e-07
4.097115008e-06
4.095302844e-06
4.089579844e-06
4.074729683e-06
4.058653287e-06
4.037452778e-06
4.018741151e-06
3.999898821e-06
3.973257119e-06
3.92360819e-06
3.886355783e-06
3.83827485e-06
3.777459044e-06
3.697649677e-06
3.607657852e-06
3.498209488e-06
3.378836411e-06
3.25353419e-06
3.107153228e-06
2.95011673e-06
2.777850487e-06
2.589371816e-06
2.382426104e-06
2.162516414e-06
1.946167852e-06
1.731124022e-06
1.523200401e-06
1.329716688e-06
1.158685541e-06
1.015298979e-06
9.022735019e-07
8.139625418e-07
7.434424061e-07
6.85778257e-07
6.33853828e-07
5.84528811e-07
5.325903379e-07
4.751303115e-07
4.092837084e-07
3.308834903e-07
4.102063963e-06
4.09302164e-06
4.081321588e-06
4.071751266e-06
4.056003511e-06
4.042470178e-06
4.027330311e-06
4.005508919e-06
3.968397017e-06
3.937113886e-06
3.894797447e-06
3.840770074e-06
3.774013652e-06
3.704439273e-06
3.613778911e-06
3.505599903e-06
3.397526695e-06
3.270824891e-06
3.131204146e-06
2.971040852e-06
2.793074757e-06
2.610382184e-06
2.413257883e-06
2.205883857e-06
1.985033056e-06
1.769174303e-06
1.561574101e-06
1.361820223e-06
1.18870548e-06
1.041296191e-06
9.221744334e-07
8.298169197e-07
7.570792425e-07
6.965640476e-07
6.446284824e-07
5.929706656e-07
5.394252714e-07
4.81169962e-07
4.147281017e-07
3.344376098e-07
4.105487396e-06
4.095290752e-06
4.090006314e-06
4.075664049e-06
4.064628361e-06
4.039188582e-06
4.024524957e-06
4.003526166e-06
3.979923701e-06
3.942832884e-06
3.893365896e-06
3.846577369e-06
3.789485049e-06
3.722331478e-06
3.643093306e-06
3.546669156e-06
3.4355339e-06
3.30119703e-06
3.163294174e-06
3.007772828e-06
2.829404265e-06
2.642629277e-06
2.451625993e-06
2.243381244e-06
2.027283408e-06
1.815901835e-06
1.600121843e-06
1.400935165e-06
1.222240563e-06
1.068949929e-06
9.457365217e-07
8.473375228e-07
7.724814271e-07
7.085985064e-07
6.556921877e-07
6.03144419e-07
5.494318982e-07
4.891464344e-07
4.208608375e-07
3.388848355e-07
4.101565172e-06
4.088395258e-06
4.080619494e-06
4.072950904e-06
4.058788888e-06
4.043647471e-06
4.034252066e-06
4.020738466e-06
3.989921147e-06
3.96366719e-06
3.914766512e-06
3.869039832e-06
3.806630101e-06
3.747435493e-06
3.671761478e-06
3.564839492e-06
3.455554786e-06
3.329789294e-06
3.190857639e-06
3.038128312e-06
2.871711323e-06
2.692833161e-06
2.497350784e-06
2.294094389e-06
2.074074696e-06
1.86081601e-06
1.646624654e-06
1.445012453e-06
1.262313831e-06
1.10424026e-06
9.737956179e-07
8.724206317e-07
7.909400026e-07
7.251464023e-07
6.70222988e-07
6.142265823e-07
5.60021724e-07
4.991667139e-07
4.286222528e-07
3.440512115e-07
4.099572512e-06
4.096568947e-06
4.091120633e-06
4.081661274e-06
4.063133204e-06
4.054848875e-06
4.046304643e-06
4.016522299e-06
3.993559764e-06
3.954770945e-06
3.919782415e-06
3.880234517e-06
3.826230931e-06
3.74914734e-06
3.682396361e-06
3.576620532e-06
3.481542914e-06
3.364382226e-06
3.220278742e-06
3.074032158e-06
2.906996784e-06
2.737028271e-06
2.536677753e-06
2.345465027e-06
2.132766318e-06
1.916653069e-06
1.699183723e-06
1.496185698e-06
1.308007954e-06
1.143809111e-06
1.008785647e-06
9.002211088e-07
8.145015155e-07
7.454576712e-07
6.858356864e-07
6.306122016e-07
5.737115297e-07
5.119566504e-07
4.389071306e-07
3.512674458e-07
4.097047174e-06
4.088497207e-06
4.08371357e-06
4.07628916e-06
4.069021094e-06
4.054276923e-06
4.037437544e-06
4.024495414e-06
4.00187577e-06
3.969218197e-06
3.938509174e-06
3.89184836e-06
3.831182524e-06
3.760614525e-06
3.689849224e-06
3.603690883e-06
3.498707879e-06
3.381800737e-06
3.246204312e-06
3.105191105e-06
2.947863732e-06
2.774151024e-06
2.585691613e-06
2.386887213e-06
2.185229466e-06
1.970260461e-06
1.756918063e-06
1.54708675e-06
1.355665033e-06
1.186322572e-06
1.045123724e-06
9.304290671e-07
8.402399647e-07
7.65510592e-07
7.054230922e-07
6.492789158e-07
5.917684224e-07
5.291449856e-07
4.542034692e-07
3.616652378e-07
4.101523314e-06
4.102058039e-06
4.094277203e-06
4.084596173e-06
4.073366299e-06
4.055887969e-06
4.037201523e-06
4.020205833e-06
3.997911716e-06
3.963873114e-06
3.933005826e-06
3.89501668e-06
3.843208161e-06
3.770774322e-06
3.70605484e-06
3.623225646e-06
3.528385532e-06
3.428109623e-06
3.301327859e-06
3.146202915e-06
2.998452574e-06
2.822787824e-06
2.641122688e-06
2.447455636e-06
2.242130991e-06
2.029714191e-06
1.814392782e-06
1.609727531e-06
1.411086016e-06
1.234818346e-06
1.085219467e-06
9.656267074e-07
8.690867403e-07
7.935347357e-07
7.31081307e-07
6.736632796e-07
6.159519391e-07
5.51713153e-07
4.744290809e-07
3.771819725e-07
4.107815299e-06
4.102948107e-06
4.091125463e-06
4.081792302e-06
4.074975749e-06
4.05232297e-06
4.042353014e-06
4.024144223e-06
4.001413593e-06
3.979422083e-06
3.937154998e-06
3.899432527e-06
3.849348078e-06
3.796736527e-06
3.728363042e-06
3.647396112e-06
3.566704949e-06
3.455671307e-06
3.317455039e-06
3.181547528e-06
3.038784834e-06
2.867933669e-06
2.691380008e-06
2.50250167e-06
2.29935562e-06
2.094602079e-06
1.88570589e-06
1.67562388e-06
1.4782707e-06
1.292372e-06
1.137323271e-06
1.009358382e-06
9.056581171e-07
8.260882607e-07
7.610559239e-07
7.029615467e-07
6.474288355e-07
5.838931101e-07
5.080131623e-07
4.022071699e-07
4.104052649e-06
4.094937589e-06
4.092249432e-06
4.084010145e-06
4.078395591e-06
4.063166647e-06
4.054527864e-06
4.035860026e-06
4.018495904e-06
4.002148968e-06
3.96679782e-06
3.932172445e-06
3.883054291e-06
3.823383948e-06
3.766145907e-06
3.683255195e-06
3.589911307e-06
3.479238273e-06
3.357398831e-06
3.229393723e-06
3.081173695e-06
2.92642284e-06
2.744462126e-06
2.568071083e-06
2.369871217e-06
2.162897547e-06
1.95656486e-06
1.747664338e-06
1.54395724e-06
1.357674823e-06
1.193294374e-06
1.059568284e-06
9.486827893e-07
8.635478392e-07
7.962882441e-07
7.413332027e-07
6.88944571e-07
6.362807799e-07
5.715660545e-07
4.66814426e-07
4.103466598e-06
4.101218905e-06
4.099805853e-06
4.093447538e-06
4.079610799e-06
4.067340391e-06
4.053902443e-06
4.037023732e-06
4.021949186e-06
4.003456323e-06
3.962380622e-06
3.930577656e-06
3.891723869e-06
3.824189063e-06
3.771018025e-06
3.699050306e-06
3.60865672e-06
3.512208973e-06
3.405178156e-06
3.281595147e-06
3.134243419e-06
2.973377504e-06
2.812746524e-06
2.6320837e-06
2.435993695e-06
2.238597952e-06
2.031001498e-06
1.82076922e-06
1.615456265e-06
1.427484722e-06
1.259311532e-06
1.115665784e-06
9.990938054e-07
9.086121025e-07
8.394556759e-07
7.842822132e-07
7.40855729e-07
7.047052688e-07
6.826681425e-07
7.496653968e-07
4.10693062e-06
4.099145308e-06
4.098170232e-06
4.089140243e-06
4.0805739e-06
4.069640022e-06
4.061214088e-06
4.041945637e-06
4.021793886e-06
3.998224714e-06
3.977212801e-06
3.941263211e-06
3.908240699e-06
3.861806659e-06
3.804982059e-06
3.730460009e-06
3.641010754e-06
3.543501484e-06
3.439662461e-06
3.32344074e-06
3.176803126e-06
3.036292707e-06
2.869566416e-06
2.691389069e-06
2.51117066e-06
2.312126142e-06
2.103636991e-06
1.899474454e-06
1.700434624e-06
1.507854761e-06
1.334136989e-06
1.180098146e-06
1.057215928e-06
9.599583515e-07
8.87756538e-07
8.356626167e-07
7.999063486e-07
7.83116634e-07
8.009850541e-07
9.245424044e-07
4.103787388e-06
4.098199553e-06
4.087590134e-06
4.08758149e-06
4.083514497e-06
4.071035606e-06
4.052152304e-06
4.035410215e-06
4.020844979e-06
3.999638626e-06
3.9711309e-06
3.945511232e-06
3.912114176e-06
3.861920058e-06
3.801115718e-06
3.728113137e-06
3.656605035e-06
3.574899991e-06
3.475847469e-06
3.371750426e-06
3.238455093e-06
3.102233342e-06
2.937051179e-06
2.760912656e-06
2.588877744e-06
2.394781356e-06
2.19549993e-06
1.99018125e-06
1.784177076e-06
1.590666071e-06
1.414112174e-06
1.255097511e-06
1.125632241e-06
1.020576068e-06
9.440774632e-07
8.914280486e-07
8.609504285e-07
8.571545198e-07
8.921495758e-07
1.006096204e-06
4.106773083e-06
4.104209695e-06
4.10016232e-06
4.086061477e-06
4.081205114e-06
4.072466566e-06
4.065551732e-06
4.05482839e-06
4.043724561e-06
4.023680493e-06
3.996027354e-06
3.965084437e-06
3.93222747e-06
3.888548547e-06
3.81952345e-06
3.757339029e-06
3.688879162e-06
3.609299339e-06
3.507931788e-06
3.403050422e-06
3.279640967e-06
3.138061674e-06
2.99082588e-06
2.829760295e-06
2.655855846e-06
2.472026459e-06
2.274895568e-06
2.077204496e-06
1.880817526e-06
1.681233223e-06
1.501711579e-06
1.339942337e-06
1.19779644e-06
1.088905888e-06
1.005890119e-06
9.535983486e-07
9.253241378e-07
9.262950329e-07
9.630438225e-07
1.05682421e-06
4.111357837e-06
4.107874722e-06
4.103814084e-06
4.098701681e-06
4.095764293e-06
4.086010635e-06
4.069535027e-06
4.056861539e-06
4.041693924e-06
4.024268585e-06
4.002018387e-06
3.971049038e-06
3.944907848e-06
3.904284827e-06
3.840967561e-06
3.785099062e-06
3.720547794e-06
3.640750078e-06
3.542901377e-06
3.439167856e-06
3.333537284e-06
3.197461658e-06
3.056849656e-06
2.906070804e-06
2.731631048e-06
2.555371087e-06
2.363906507e-06
2.167536727e-06
1.971884033e-06
1.776690738e-06
1.592012674e-06
1.423879412e-06
1.281081321e-06
1.163273621e-06
1.076436837e-06
1.016425435e-06
9.854888898e-07
9.838055118e-07
1.01793446e-06
1.091739859e-06
4.103939188e-06
4.095546517e-06
4.09379085e-06
4.090292569e-06
4.083530927e-06
4.073873166e-06
4.068190901e-06
4.053814808e-06
4.046007336e-06
4.033845353e-06
4.014203803e-06
3.987425728e-06
3.951298701e-06
3.902679084e-06
3.864020027e-06
3.807909765e-06
3.74367091e-06
3.6751701e-06
3.582321453e-06
3.483633053e-06
3.382300984e-06
3.254799218e-06
3.11730382e-06
2.96761444e-06
2.809414218e-06
2.631754442e-06
2.45326896e-06
2.267031319e-06
2.074534093e-06
1.876968233e-06
1.695144445e-06
1.521445464e-06
1.370510786e-06
1.246207832e-06
1.151300216e-06
1.085665047e-06
1.04458898e-06
1.038616787e-06
1.064456394e-06
1.12411985e-06
4.109211784e-06
4.107889027e-06
4.105821665e-06
4.098395846e-06
4.088840976e-06
4.083063066e-06
4.075734305e-06
4.061694978e-06
4.045783472e-06
4.036795608e-06
4.025847208e-06
4.000651387e-06
3.967888203e-06
3.938055491e-06
3.884331549e-06
3.838945124e-06
3.786302494e-06
3.711023844e-06
3.628456518e-06
3.538019498e-06
3.438083563e-06
3.321975636e-06
3.187555969e-06
3.044190211e-06
2.88600127e-06
2.716313409e-06
2.543923222e-06
2.361682476e-06
2.171598159e-06
1.983906955e-06
1.8010896e-06
1.623178956e-06
1.467615066e-06
1.333780307e-06
1.228530673e-06
1.157854097e-06
1.110486662e-06
1.093827406e-06
1.109171985e-06
1.156212263e-06
4.10864231e-06
4.105797106e-06
4.102279946e-06
4.095280267e-06
4.096519069e-06
4.093873653e-06
4.08351674e-06
4.074127819e-06
4.060828022e-06
4.048613221e-06
4.033139335e-06
4.00353212e-06
3.978967298e-06
3.949961389e-06
3.916366853e-06
3.860837255e-06
3.813527284e-06
3.741323912e-06
3.665813204e-06
3.584807552e-06
3.486609325e-06
3.373999668e-06
3.248021308e-06
3.111202178e-06
2.963856117e-06
2.800332909e-06
2.638096016e-06
2.462583499e-06
2.275855124e-06
2.088415922e-06
1.908232518e-06
1.735853743e-06
1.570039269e-06
1.435649799e-06
1.319740335e-06
1.234811721e-06
1.179115455e-06
1.152361805e-06
1.152879228e-06
1.182494051e-06
4.109747587e-06
4.105747336e-06
4.100978617e-06
4.096910354e-06
4.095960517e-06
4.09249689e-06
4.085931323e-06
4.071884064e-06
4.059357516e-06
4.048559974e-06
4.03586859e-06
4.023431832e-06
3.989205554e-06
3.962341438e-06
3.920387687e-06
3.869475887e-06
3.820973074e-06
3.771490494e-06
3.696678735e-06
3.624743769e-06
3.53408382e-06
3.429554239e-06
3.312173534e-06
3.18527897e-06
3.053888674e-06
2.899214074e-06
2.73318544e-06
2.564779164e-06
2.388787053e-06
2.207576211e-06
2.026695487e-06
1.855537062e-06
1.689032677e-06
1.543108122e-06
1.418036276e-06
1.321231625e-06
1.251517845e-06
1.211191773e-06
1.202968027e-06
1.215838169e-06
4.106235589e-06
4.105607854e-06
4.10186021e-06
4.102180417e-06
4.100732208e-06
4.091725404e-06
4.085740463e-06
4.082459477e-06
4.070553086e-06
4.05675476e-06
4.043332118e-06
4.023119587e-06
3.998549277e-06
3.97684264e-06
3.944369967e-06
3.906276622e-06
3.847631461e-06
3.791799921e-06
3.725056135e-06
3.652271467e-06
3.57293774e-06
3.471627329e-06
3.369637961e-06
3.2479981e-06
3.117232363e-06
2.976088929e-06
2.828974147e-06
2.664838101e-06
2.50201741e-06
2.327936157e-06
2.147504078e-06
1.975829922e-06
1.807558469e-06
1.658735064e-06
1.524757999e-06
1.4189246e-06
1.335817281e-06
1.27933579e-06
1.253980559e-06
1.25577657e-06
4.112964083e-06
4.112872345e-06
4.11013605e-06
4.103660887e-06
4.097018488e-06
4.087473596e-06
4.077694727e-06
4.069547188e-06
4.065058199e-06
4.060409954e-06
4.051899351e-06
4.038064012e-06
4.017851582e-06
3.995631914e-06
3.960726075e-06
3.925764103e-06
3.873118888e-06
3.830061444e-06
3.775101514e-06
3.708931041e-06
3.629380986e-06
3.543555217e-06
3.430433514e-06
3.310201038e-06
3.193334901e-06
3.062552581e-06
2.917262682e-06
2.764286475e-06
2.603034514e-06
2.434699983e-06
2.265531865e-06
2.094068015e-06
1.929544196e-06
1.776985483e-06
1.638911346e-06
1.521127448e-06
1.428391784e-06
1.357182988e-06
1.31524903e-06
1.300031014e-06
4.111245804e-06
4.105290095e-06
4.098717743e-06
4.096180605e-06
4.091658951e-06
4.088577816e-06
4.0850449e-06
4.085509913e-06
4.074557213e-06
4.058868564e-06
4.04825214e-06
4.036333696e-06
4.014701283e-06
3.990824486e-06
3.961185721e-06
3.930367658e-06
3.893833137e-06
3.853520142e-06
3.801789542e-06
3.736490973e-06
3.664287096e-06
3.587754839e-06
3.487361979e-06
3.380133795e-06
3.270586574e-06
3.151270225e-06
3.016263731e-06
2.860266219e-06
2.713023071e-06
2.550505211e-06
2.382118133e-06
2.217981507e-06
2.053915288e-06
1.904274621e-06
1.757655027e-06
1.633341415e-06
1.527210419e-06
1.445237716e-06
1.391700048e-06
1.356162379e-06
4.114438096e-06
4.112512339e-06
4.107368727e-06
4.103876099e-06
4.100515117e-06
4.096261541e-06
4.091381502e-06
4.083369957e-06
4.076430352e-06
4.069246096e-06
4.057357423e-06
4.04652881e-06
4.022606771e-06
4.005801931e-06
3.982919089e-06
3.955293567e-06
3.916843282e-06
3.874227597e-06
3.827270894e-06
3.779937405e-06
3.707150951e-06
3.634635076e-06
3.536620992e-06
3.444147408e-06
3.324878663e-06
3.219658647e-06
3.101835252e-06
2.957296161e-06
2.809142348e-06
2.666369239e-06
2.501445718e-06
2.346281875e-06
2.183580151e-06
2.03079171e-06
1.884271002e-06
1.751666437e-06
1.636690425e-06
1.544042757e-06
1.475241653e-06
1.423226573e-06
4.111181907e-06
4.110921372e-06
4.113928391e-06
4.113806708e-06
4.111510933e-06
4.10191749e-06
4.092254425e-06
4.085122561e-06
4.074157728e-06
4.06706862e-06
4.058210673e-06
4.048324403e-06
4.027259115e-06
4.004690378e-06
3.98545087e-06
3.967141776e-06
3.930677808e-06
3.893320039e-06
3.853033581e-06
3.805767634e-06
3.751064415e-06
3.673175146e-06
3.595400678e-06
3.50708995e-06
3.406131499e-06
3.303157236e-06
3.179919104e-06
3.05936363e-06
2.928137427e-06
2.782441239e-06
2.629339327e-06
2.471317976e-06
2.32544249e-06
2.166796303e-06
2.0153315e-06
1.88281861e-06
1.760589164e-06
1.64944781e-06
1.56609707e-06
1.50320047e-06
4.115528279e-06
4.111122898e-06
4.107555543e-06
4.103607358e-06
4.098920648e-06
4.098440397e-06
4.100779292e-06
4.090104909e-06
4.087292416e-06
4.077206858e-06
4.073443164e-06
4.05616667e-06
4.040850389e-06
4.020678134e-06
4.005216201e-06
3.974318582e-06
3.942750636e-06
3.917609314e-06
3.87874274e-06
3.826292282e-06
3.770934963e-06
3.706112721e-06
3.638851343e-06
3.564032908e-06
3.468636747e-06
3.373133231e-06
3.263140809e-06
3.149116599e-06
3.02300032e-06
2.887481631e-06
2.748122738e-06
2.595131115e-06
2.442504712e-06
2.296217468e-06
2.146273034e-06
2.009019386e-06
1.8821145e-06
1.765688069e-06
1.670556965e-06
1.592120951e-06
4.115194255e-06
4.111705766e-06
4.111816269e-06
4.111227154e-06
4.105244036e-06
4.098314098e-06
4.095533563e-06
4.094002182e-06
4.083698445e-06
4.077513935e-06
4.067494511e-06
4.061068193e-06
4.049269973e-06
4.042098013e-06
4.029679703e-06
4.00438945e-06
3.978635243e-06
3.947823164e-06
3.912763742e-06
3.873438767e-06
3.817963016e-06
3.756457017e-06
3.693147275e-06
3.615578521e-06
3.54189638e-06
3.446356121e-06
3.341622233e-06
3.237570263e-06
3.108571133e-06
2.985378396e-06
2.853789636e-06
2.71530476e-06
2.574810174e-06
2.430791653e-06
2.281157787e-06
2.141966136e-06
2.012133892e-06
1.887738256e-06
1.785508641e-06
1.693881601e-06
4.117415784e-06
4.115182911e-06
4.111637558e-06
4.112888375e-06
4.112796928e-06
4.10709192e-06
4.100415045e-06
4.095983138e-06
4.0952498e-06
4.087106306e-06
4.079936222e-06
4.071352667e-06
4.057927042e-06
4.040808364e-06
4.02834068e-06
4.00249167e-06
3.983793121e-06
3.956284801e-06
3.923141306e-06
3.8928747e-06
3.851504906e-06
3.795903949e-06
3.736507607e-06
3.667640086e-06
3.590367174e-06
3.509916363e-06
3.417932111e-06
3.321294878e-06
3.203743821e-06
3.082421171e-06
2.96699644e-06
2.827818334e-06
2.692473526e-06
2.554980866e-06
2.417314313e-06
2.27998187e-06
2.148696375e-06
2.018069777e-06
1.903374188e-06
1.802604557e-06
4.117109903e-06
4.116118097e-06
4.115784202e-06
4.108401153e-06
4.104180985e-06
4.098020207e-06
4.098256365e-06
4.094072296e-06
4.092910331e-06
4.095060038e-06
4.086065159e-06
4.073591504e-06
4.064447235e-06
4.053427943e-06
4.031661995e-06
4.009779885e-06
3.992119704e-06
3.965216593e-06
3.940990354e-06
3.908305602e-06
3.867260311e-06
3.823932703e-06
3.768053882e-06
3.696687074e-06
3.628949171e-06
3.552238974e-06
3.472842265e-06
3.384656499e-06
3.286637284e-06
3.169275529e-06
3.064061696e-06
2.938977014e-06
2.815518904e-06
2.685795389e-06
2.550188106e-06
2.415968902e-06
2.286716784e-06
2.158323929e-06
2.036467655e-06
1.92105335e-06
4.114912511e-06
4.112381154e-06
4.114298866e-06
4.115097881e-06
4.114132988e-06
4.112053514e-06
4.106612145e-06
4.10082688e-06
4.096273686e-06
4.090003621e-06
4.081371815e-06
4.073557628e-06
4.060736503e-06
4.05325123e-06
4.045002824e-06
4.033851128e-06
4.016071743e-06
3.995268837e-06
3.962184354e-06
3.928562386e-06
3.8914208e-06
3.847622688e-06
3.803420804e-06
3.750796924e-06
3.691448133e-06
3.625976072e-06
3.541255669e-06
3.470425602e-06
3.373439693e-06
3.276148348e-06
3.161229297e-06
3.045905737e-06
2.922042598e-06
2.798807866e-06
2.670065247e-06
2.542064273e-06
2.417709104e-06
2.288835495e-06
2.167491629e-06
2.052105962e-06
4.114876919e-06
4.115782964e-06
4.114558653e-06
4.110775088e-06
4.11258647e-06
4.111449937e-06
4.108226414e-06
4.104348995e-06
4.096287926e-06
4.091468477e-06
4.091862284e-06
4.082710693e-06
4.079308284e-06
4.067734626e-06
4.053068512e-06
4.044324261e-06
4.0283121e-06
4.01015868e-06
3.986610209e-06
3.963149309e-06
3.926890814e-06
3.888209321e-06
3.843272552e-06
3.794244741e-06
3.735796908e-06
3.68188826e-06
3.605221172e-06
3.533614078e-06
3.451366777e-06
3.35553134e-06
3.253729033e-06
3.158524047e-06
3.044058018e-06
2.923692584e-06
2.802719851e-06
2.676048788e-06
2.550735535e-06
2.42766089e-06
2.305145374e-06
2.191624486e-06
4.113271913e-06
4.113181917e-06
4.111796877e-06
4.11251905e-06
4.113080613e-06
4.113396576e-06
4.111042577e-06
4.105946955e-06
4.102096253e-06
4.098443174e-06
4.093065933e-06
4.087880752e-06
4.084955347e-06
4.071019353e-06
4.057494675e-06
4.043051183e-06
4.030665787e-06
4.01236846e-06
3.989777593e-06
3.967247538e-06
3.945032849e-06
3.911411331e-06
3.879557182e-06
3.835773912e-06
3.782158339e-06
3.730848096e-06
3.671334273e-06
3.604935204e-06
3.525315877e-06
3.435904012e-06
3.351273994e-06
3.253314281e-06
3.147116037e-06
3.034113809e-06
2.923833442e-06
2.803545703e-06
2.682251009e-06
2.563622072e-06
2.439617828e-06
2.324345742e-06
4.116464661e-06
4.113891696e-06
4.109269624e-06
4.106750698e-06
4.102104246e-06
4.099426905e-06
4.100374726e-06
4.103897831e-06
4.102535541e-06
4.098599779e-06
4.094393205e-06
4.08614137e-06
4.079531619e-06
4.070719748e-06
4.063235382e-06
4.04732243e-06
4.033467734e-06
4.026329248e-06
4.014633052e-06
3.992484151e-06
3.970023616e-06
3.935082498e-06
3.901314851e-06
3.860862885e-06
3.816892283e-06
3.766858669e-06
3.712752336e-06
3.645832197e-06
3.583910873e-06
3.501770996e-06
3.421013332e-06
3.332906359e-06
3.236980366e-06
3.132963061e-06
3.029375025e-06
2.918270547e-06
2.804213592e-06
2.697279303e-06
2.576166517e-06
2.461571158e-06
4.116084186e-06
4.109126683e-06
4.112770069e-06
4.114026445e-06
4.115938125e-06
4.115732168e-06
4.110930536e-06
4.104067381e-06
4.095493536e-06
4.091423101e-06
4.085573573e-06
4.080566346e-06
4.075362415e-06
4.071229064e-06
4.064207675e-06
4.052739041e-06
4.040359183e-06
4.026703349e-06
4.004243861e-06
3.989348894e-06
3.970551953e-06
3.947080222e-06
3.918317763e-06
3.884557532e-06
3.845218645e-06
3.809640764e-06
3.761628615e-06
3.706911762e-06
3.63866867e-06
3.568858667e-06
3.49199038e-06
3.425511948e-06
3.333118076e-06
3.238436718e-06
3.142966507e-06
3.040144979e-06
2.926069983e-06
2.825544565e-06
2.710857056e-06
2.595766976e-06
4.116090695e-06
4.11685823e-06
4.113215037e-06
4.111653978e-06
4.105411475e-06
4.103350505e-06
4.104693911e-06
4.109728595e-06
4.106876012e-06
4.102029051e-06
4.09623146e-06
4.085449434e-06
4.078634951e-06
4.077071192e-06
4.067124345e-06
4.06065413e-06
4.05352818e-06
4.037962613e-06
4.027137309e-06
4.009178365e-06
3.988125388e-06
3.963902475e-06
3.944928455e-06
3.916402269e-06
3.88282134e-06
3.842197211e-06
3.792754635e-06
3.746383693e-06
3.699784002e-06
3.644032706e-06
3.573741457e-06
3.502233059e-06
3.414260326e-06
3.324922216e-06
3.238839344e-06
3.146118053e-06
3.03372135e-06
2.942414633e-06
2.838395052e-06
2.725345169e-06
4.111942273e-06
4.109131645e-06
4.107606184e-06
4.105191882e-06
4.101709705e-06
4.100518297e-06
4.098965906e-06
4.099981039e-06
4.098546627e-06
4.091815329e-06
4.098507369e-06
4.100321823e-06
4.096178895e-06
4.090319072e-06
4.086414296e-06
4.077031582e-06
4.06929688e-06
4.066068588e-06
4.051523293e-06
4.037913092e-06
4.019933102e-06
3.991954217e-06
3.96518355e-06
3.939792031e-06
3.913098479e-06
3.881825306e-06
3.840085464e-06
3.795769675e-06
3.75546225e-06
3.702130122e-06
3.63003278e-06
3.564525036e-06
3.492304151e-06
3.421478641e-06
3.346245048e-06
3.256643488e-06
3.161294637e-06
3.052704514e-06
2.958122978e-06
2.851620755e-06
4.118095803e-06
4.119714436e-06
4.116524063e-06
4.114769358e-06
4.115785212e-06
4.11395528e-06
4.108689113e-06
4.103203402e-06
4.098972475e-06
4.099562545e-06
4.098477095e-06
4.095626065e-06
4.087845952e-06
4.085093787e-06
4.084806682e-06
4.081967549e-06
4.076359225e-06
4.068014324e-06
4.057200488e-06
4.040559711e-06
4.023639201e-06
4.017193395e-06
3.995362173e-06
3.973210712e-06
3.945977852e-06
3.911297048e-06
3.882449959e-06
3.841805778e-06
3.794723898e-06
3.752111717e-06
3.696150789e-06
3.634711825e-06
3.569105926e-06