/*--------------------------------*- C++ -*----------------------------------*\
| =========                 |                                                 |
| \\      /  F ield         | OpenFOAM: The Open Source CFD Toolbox           |
|  \\    /   O peration     | Version:  v1706                                 |
|   \\  /    A nd           | Web:      www.OpenFOAM.com                      |
|    \\/     M anipulation  |                                                 |
\*---------------------------------------------------------------------------*/
FoamFile
{
    version     2.0;
    format      ascii;
    class       volScalarField;
    location    "0.008";
    object      overallT_Ar;
}
// * * * * * * * * * * * * * * * * * * * * * * * * * * * * * * * * * * * * * //

dimensions      [0 0 0 1 0 0 0];


internalField   nonuniform List<scalar> 
4000
(
102.2449582
104.1688963
105.6829213
107.0484994
109.9578327
112.8040831
116.8088676
119.6683481
127.0984946
134.5610849
142.1721634
157.872603
173.5031248
191.1946213
209.3045958
238.8644062
271.3152263
314.5027098
365.1712786
425.5668386
500.6527974
575.963418
659.5150426
742.9412795
827.5085371
897.8187994
945.1017102
972.9302575
986.3268888
988.5961595
982.3057413
962.8413258
940.0879094
908.3788753
866.8265792
812.1921478
743.2184621
660.6795727
561.2365829
437.6739197
103.7896857
104.8286098
105.4199167
106.8987891
108.9158628
111.5960128
116.4915127
119.6027555
124.8653719
132.0975358
139.1391677
151.4685546
165.1086005
182.8742057
204.0105167
233.6090174
267.99297
307.300834
357.811535
421.5457407
490.8830607
573.7881114
656.2839808
743.0083715
826.6150271
895.4618907
946.4183783
974.5068947
988.5574538
988.3327518
979.2551693
961.4361344
938.077505
905.2084001
864.1949917
810.5229154
742.240703
659.2884022
559.107585
436.4142357
102.9269422
104.3723699
105.3639097
106.4729159
108.291735
111.038101
115.4859327
119.4375746
124.1576535
130.0864973
138.0928827
148.2227768
161.8335768
180.2855503
198.9789106
225.2166635
259.0190303
302.3100724
350.8381482
414.0083564
484.8209094
567.3289309
652.7798064
742.6074953
826.5458653
894.6497313
944.5369733
974.0358086
987.9621251
987.5658708
977.3744169
960.4405767
937.5508759
906.1808029
863.0895416
808.7627176
740.4142521
658.420629
558.3976286
436.6954908
102.4859637
103.9029728
105.8141624
106.7746632
108.6366485
111.0244767
114.3510017
119.2680238
123.7458481
129.379079
135.8254416
145.1466419
160.4750711
175.7066988
195.4063742
220.9491621
254.9419758
297.7570157
347.9696935
410.513526
477.1363733
559.392764
644.6925638
735.5914204
818.960591
889.2674602
943.1726813
975.5077699
987.5214202
986.9853151
977.4491031
959.2742214
935.9556772
904.8080702
862.23365
809.4511453
741.2668747
658.3244536
558.3968525
436.7475848
102.3719604
103.8032764
105.4226746
107.0732043
109.0379136
110.6047852
114.1172768
117.5376806
123.2647807
128.4917102
135.8369212
145.1263827
157.9499995
173.4755508
192.9456801
218.4612324
247.7995384
289.8362701
339.5893238
398.0837696
472.5274022
552.4366751
638.2785502
727.7349912
811.8061555
885.3569807
939.0817366
971.1523696
985.6905704
985.0857368
976.7450569
958.8237
936.3984955
905.2788622
862.8294224
808.6047733
741.9519925
658.8035682
558.7331437
437.1029319
102.692173
103.5590018
104.9535353
106.2302336
108.3116888
111.253943
114.1346671
117.2036415
121.3187273
127.4757608
134.7654266
143.7978078
157.6860146
171.2497421
190.1895201
214.0804364
245.969983
285.211004
336.2009832
392.6072847
462.9581529
541.2444717
628.2920083
717.5891273
804.5572225
878.2837117
934.8409658
967.9928308
985.3120482
984.3607022
977.3996476
960.6114968
937.0784963
905.7596456
863.2829125
810.7767528
743.0800967
660.1096346
559.6962364
437.5724493
102.7886832
103.5669742
104.4502852
106.1616212
108.3077446
110.3653882
113.2189391
116.814697
121.1346942
126.0818518
133.6825866
142.0424919
154.928194
168.9769267
187.3962966
211.8060677
242.7740031
281.7323222
332.1409445
389.1140631
455.7307397
536.8666628
621.6806821
711.1804313
796.3900847
873.1980294
929.3621972
965.1575416
982.2322406
982.8371616
975.2032141
959.6010787
937.8284442
906.7232452
864.7091114
810.6429823
744.4555447
660.8491344
561.1164239
438.1205111
102.8142508
103.7374088
105.0294614
106.3437532
107.7873141
109.9177678
112.6766354
116.7604687
121.1770961
126.6430795
133.1341572
141.5357674
151.8241459
167.0951219
184.4808117
206.3167581
237.6952722
274.3181048
321.7385942
379.0380261
446.630221
526.4588707
609.6204671
699.1116041
789.2350173
863.680858
922.6750135
959.694728
978.1112883
980.8196547
973.4078968
960.1944364
936.9444497
907.3815767
865.4450403
811.8915109
745.0644124
661.2017736
562.6012169
438.6007632
102.4291655
103.1348734
104.5452514
106.0755219
107.1481458
109.4401876
112.4229349
115.2049459
120.2617162
125.0170243
131.9646446
139.3014651
150.288776
164.7168399
181.3285778
204.8017923
232.1331032
268.3685597
314.2955608
368.050146
436.633533
512.852766
597.6940187
686.7544272
776.0814783
854.6800043
915.4785024
954.2417569
974.4527035
979.4662429
972.987637
958.9860142
936.689709
905.7470974
866.5659303
813.0792315
744.8051034
663.3396465
563.8421344
439.8683104
102.3543267
103.1184472
104.2281414
105.2232905
107.0429663
109.323583
111.8366411
115.2526249
118.4141556
124.2380572
130.2338113
138.1847032
147.9160177
162.8488443
178.793067
200.6382109
229.1575904
262.9862044
306.4373778
359.8894725
425.5864331
499.9754322
585.6431958
675.6139756
762.6685672
840.4972795
904.0949053
947.1233958
969.0521661
977.7343655
971.8997691
957.147337
935.8406431
905.9934872
865.4424422
812.2538034
747.0349727
663.7778425
564.788544
440.6757984
102.3037609
103.0009834
103.8113348
105.4801533
107.1226742
108.9258604
111.0557967
114.405025
118.2901465
124.264375
131.224534
137.6413926
148.2575229
159.7799057
176.832145
199.153265
223.7788142
258.9452209
297.517573
351.3812117
414.2080546
483.4638938
568.706481
659.1838346
746.8371031
827.9498617
893.5775221
939.0200375
964.976632
973.6001283
968.2188758
956.8066514
936.2455662
905.8365991
866.0792504
814.4067656
748.7935162
666.9481854
567.5820212
442.4291439
102.2245108
102.6272161
103.5184735
104.9356736
106.7910988
109.1898907
111.1963947
113.3023193
117.3138788
123.6053186
128.6112465
135.7109282
145.1034267
158.665552
174.491703
196.3189915
221.9267167
253.4060437
293.6345671
341.6470631
400.8114287
473.7239088
555.1782426
643.3498133
731.2537401
813.7151468
879.9340239
927.1174024
956.1526947
967.692278
965.4767363
953.5801263
935.5220291
907.8040545
867.9910438
817.425484
752.119998
669.9000812
569.6193817
444.5258614
101.7538923
102.7423173
103.727821
104.9405016
106.7594058
108.8077142
110.8844267
113.5968968
117.2359607
121.5256237
127.2546539
134.6912413
144.1906787
154.904034
170.7495697
190.8937054
214.5860007
245.2019273
281.7226331
329.8233762
389.63835
457.8580022
537.4718434
623.7520031
713.4583698
796.705908
865.5077614
917.5978812
949.8936427
962.6340695
962.544278
952.377376
934.3875429
906.8840408
870.3611048
819.485082
754.8276495
673.2615853
573.1435872
446.5804448
101.4307178
102.4726337
103.4385178
104.9660487
106.1434239
108.4747999
109.986965
112.194374
115.5563989
119.7557443
126.1338898
132.6588803
141.7815361
152.2989461
166.5322351
185.6233257
207.8901315
238.0343086
274.1527468
319.6705513
377.6018081
444.5746619
519.7559394
604.9899508
693.4293404
774.9571164
847.4359828
903.5771371
939.4369116
954.9741828
957.7025904
947.7896186
930.8845402
905.1636865
869.4734544
819.9162015
757.1380784
675.8102874
575.8856447
448.7408483
101.7258993
103.049976
103.9323236
104.7645477
106.4083445
108.0612033
109.5903879
111.7032946
115.303278
118.8521039
125.2871021
131.5142562
140.5527583
150.4699322
162.619491
181.8122717
204.4052323
232.7512049
268.1498243
312.1256526
364.7793237
428.417899
504.1553769
584.9002756
672.8005158
756.0659194
830.6162872
888.8434518
926.4350895
945.08625
949.8677068
944.1338114
927.4617488
902.1518022
868.9307888
820.6442394
758.494401
679.2239569
579.2395991
450.9683913
101.8528289
102.664393
103.2348923
104.1697038
106.1917557
107.4032189
108.4825355
111.4784317
114.3344704
119.3118068
123.8813958
129.098136
137.303538
149.1910454
160.6286336
179.497811
198.8267573
224.7208457
260.0605329
301.0721497
353.3160441
412.7997134
487.2099048
563.4573544
650.5295791
735.5011049
810.5792015
871.2002272
914.0430201
936.5462277
943.6351626
940.4836313
924.4953119
900.3987934
868.1789634
822.1285498
761.3950877
683.628005
583.2799531
454.5911606
102.0869969
102.5864504
103.2408003
104.1907843
105.2687244
106.860077
108.7288855
110.6311137
113.6491637
117.5775935
121.7384639
127.7154741
135.9813828
146.3116591
158.0723199
172.6682801
192.1495446
216.9197456
250.3640655
288.412503
336.7420487
395.9803716
465.8332051
544.0224943
624.8098436
708.8645041
786.65301
851.69849
896.6803743
924.5165884
935.2784356
933.8063206
919.8434528
896.8491428
866.1991754
823.6921786
764.9605127
688.4474201
588.8117859
459.4351998
101.8003098
102.0618748
102.8212433
103.8125712
104.8549606
106.8705512
108.952247
110.4962874
112.746869
117.0779774
121.0808978
126.6404824
133.4794244
143.9678698
154.2837244
169.3348962
188.1809559
210.0274763
238.9344805
279.2777497
322.6014958
378.109212
443.244596
517.08354
596.9404862
681.853089
760.1863641
826.8071316
878.331259
909.3386907
923.5862385
923.9865915
913.8991444
893.5016288
864.2924756
823.0727758
766.7202469
692.1261142
595.5496076
465.301151
101.4133733
101.7990952
102.8299072
103.8565353
104.4845537
106.6875208
108.0434247
110.3108932
112.9104237
115.5170682
120.6008746
125.5368601
132.5666047
140.5902692
151.1969574
165.1572276
180.2184789
201.7744799
233.386672
267.2807642
307.4009642
361.5258309
422.0741053
491.5216577
572.6789771
652.1763364
729.8860269
800.6632673
856.6069185
892.8559573
911.1756501
914.9110659
905.4076518
888.5075097
860.4121534
821.7331336
767.5839575
695.4052278
602.1676439
474.0059526
101.5491009
102.3650373
102.8302734
103.7174784
104.6614722
106.5002156
107.8795654
110.3177973
112.5273435
114.9028302
119.2010933
124.2759878
130.7229698
139.2984191
147.7562421
160.0323336
175.8262635
197.7119552
223.7211566
255.2762281
294.8959794
341.581861
402.2365368
467.5610018
543.2907607
623.6992636
701.4154777
773.2748614
832.8321352
873.9607904
895.4563423
904.0325781
896.9895082
880.9530893
854.7318233
818.281988
767.7772318
699.7348512
609.497469
489.27352
101.4517892
102.1088252
102.5018809
103.1160563
104.3737202
105.8327137
107.3509958
109.4629923
111.4256828
113.7560266
118.1530507
122.081084
126.9882777
135.8682341
143.9769918
156.0248626
172.5056067
190.9723081
214.0912641
242.2949671
281.519432
327.6939375
379.9295631
441.878666
513.812792
590.7311495
669.7933346
742.1036297
804.9509112
850.2349623
876.5469336
886.8016571
884.0902729
870.341154
845.8112024
813.4846571
765.6083031
702.0935006
616.8914837
517.2288468
101.2783023
101.8359331
102.0565264
103.0962659
103.9425263
105.0804922
106.1640163
108.412697
110.3490447
113.1537353
116.4513614
120.8894621
125.4364446
132.1092706
140.7517717
152.3871326
167.9059226
185.3395445
206.5365577
232.4096225
267.6049539
306.85108
358.2898869
419.0965889
484.3048047
556.7504613
635.0620031
709.0203948
772.6034898
822.5415948
853.8365899
867.7275696
869.4251107
857.8012085
837.1175991
805.6877492
762.5734681
702.1661581
626.9395618
546.4380304
101.0636196
101.5189202
102.5501493
102.9898644
103.6115203
104.9074025
106.2494548
107.891449
109.5797832
112.0391533
115.5097686
119.1108884
123.8585439
130.4765748
139.2472195
150.7558294
163.0604576
178.2415932
197.4791545
221.0285118
253.8378931
290.0951528
338.4368682
393.7914382
454.3160162
525.6135969
598.2400453
672.1498075
738.6222279
791.216152
828.3408476
849.6179765
853.0962842
843.8467285
824.8015662
796.1574178
755.9055175
703.0766263
638.677043
570.9627607
101.0513384
101.5755856
102.0696493
102.9558295
103.4694845
104.4643209
105.5500277
107.2638369
108.8669481
111.2842182
114.0671101
118.0486555
122.3061411
127.9501357
137.1685441
146.6346701
157.4399807
171.5422857
190.5288079
212.5782559
240.2135268
276.2685948
316.9803217
366.8550853
425.91187
492.0589242
565.703715
636.3487393
700.0224907
757.5999434
799.2740797
824.8255866
834.1256345
829.7938615
811.8521036
785.7358214
750.2523061
703.3182206
648.3676016
591.1475078
101.0011315
101.3570694
101.862886
102.6722805
103.2129729
104.321533
105.7964116
106.9518306
108.5839923
110.3723278
112.9169121
116.3760272
120.2122516
125.5952772
134.0304621
142.1140774
152.1636352
165.5343907
183.315706
203.7549922
227.2758399
260.0042029
299.0567874
344.3291347
399.3084674
458.9518368
526.6336686
596.7036151
662.3355151
721.1101381
766.9617987
796.912144
811.1955458
811.2254093
797.9077185
775.4076474
742.8460374
702.9794995
656.2523117
605.1500834
101.0914993
101.6552894
101.8862987
102.468002
102.9862135
103.9568623
104.9453007
106.6127666
107.6386795
109.2406664
111.4321905
114.4240477
118.3503576
124.7583895
130.2909599
138.0491083
147.6304687
158.1854164
174.5387655
194.0992189
215.8871615
244.8768562
279.6662493
322.052891
370.8306113
429.0464597
491.4233627
555.6090256
620.8591239
682.3029979
730.5936616
766.602572
784.2871036
788.4193635
779.3000836
761.1912032
733.4824743
698.9180715
658.7905494
615.887596
100.901933
101.6171037
101.9256758
102.3880365
103.1724406
103.6355916
104.5377645
105.8219376
107.5260381
108.6582176
110.5000886
113.7265877
117.578842
121.3883418
128.4732667
134.8013774
142.4440083
153.9899905
168.4785442
184.6210108
204.1174687
229.3830026
261.1114422
299.0947474
343.8617167
397.2299417
453.9835973
515.1595238
579.8121862
639.9656634
691.0255147
730.3810355
754.7594334
763.5355846
759.9743273
745.2346811
722.9991959
693.2586524
659.6696734
621.2701976
100.9955933
101.1691082
101.7106886
102.4101122
102.8050221
103.1742792
104.1422118
105.4839803
106.910338
108.4015608
109.9493782
113.111762
116.3326763
120.1046856
124.73315
132.2922364
139.1067258
150.1617743
162.0896987
176.0178767
194.5266822
217.3660801
247.03835
280.7958896
321.0907899
368.9532544
420.1133606
477.4650348
537.8389344
596.6252032
648.6212793
691.0211772
721.7443471
735.693753
738.0048562
728.4065407
710.6813017
686.6037956
657.3065467
624.7545531
100.9240134
101.4030904
101.7887182
102.0260923
102.223302
102.9851245
103.7724956
105.0506964
106.3040443
107.7184994
109.3083279
111.0512622
115.1252288
117.6270227
122.5208744
129.0976908
136.1638755
143.8761246
155.73838
168.555375
184.9342943
206.017471
230.702828
261.0136151
295.9563542
339.3888687
388.2920997
441.4727267
497.3738885
553.5113922
606.7069263
651.116102
685.9817016
705.3894778
713.2263514
708.9425576
696.7613285
676.8589136
651.8454213
624.2348118
100.8823922
101.1896662
101.6625899
101.9409908
102.1860917
102.9411767
103.6330155
104.670077
105.5711043
107.0708289
108.5997653
110.8292011
113.4837111
116.3980713
120.9341331
125.9298198
133.4221888
140.5519962
150.025529
161.545177
175.2958461
194.5027527
215.9518753
243.140705
275.1876682
312.4302857
355.597069
404.6243391
455.9631212
510.4288138
564.1338093
610.1442965
647.4632833
672.4848125
686.2720098
687.8059759
679.4419582
665.1683479
644.9864314
620.927146
100.6375929
100.7780672
101.3319564
101.7299924
102.3173487
103.0527349
103.729548
104.3693445
105.6530708
106.7195868
107.7290954
109.490657
112.2584804
115.133857
119.05259
123.2344455
130.597283
136.9165356
144.9486622
155.1092508
167.8298988
182.836574
204.0137833
229.1450205
256.0789077
289.0228047
326.9688082
371.0061204
418.7470937
469.6632099
519.8423457
566.508442
606.4198458
635.7658079
654.2616316
662.1272927
660.3548289
651.3052561
634.5613599
615.6897072
100.6841007
100.9344573
101.3814286
101.6979602
102.2725101
103.12218
103.5818667
104.0555276
105.0753953
106.1196806
107.3941376
108.6929627
110.940732
113.8525084
117.6686938
121.7492823
126.5030194
131.9350832
139.6644506
149.0597698
160.7845347
174.1213871
192.915935
214.5380055
238.4175918
267.0742497
300.0063349
341.8220351
383.8317083
429.9411621
478.2953232
523.5953366
564.1151805
596.5328276
621.0198154
633.4498991
638.1238782
633.1978957
622.168418
606.9703473
100.4228092
100.5185014
100.8921816
101.4056792
101.7142166
102.0824874
102.8871937
103.4400172
104.1552353
105.1144038
106.4748197
107.5908805
110.3895787
112.5411491
115.3710507
118.9961322
123.568939
129.2328851
135.2176694
142.7751814
152.9325422
164.676033
182.4972028
199.3922996
223.0294848
245.7923363
275.1979754
312.4956575
350.8949836
390.6151085
437.2362531
480.1088629
521.0900279
555.7732202
584.2336895
602.5629118
612.3353681
613.6007517
606.2851734
596.3901769
100.4110026
100.5241003
100.9161327
101.0148299
101.3755806
101.9338791
102.3824979
103.2498891
104.3033494
105.1345682
105.8767403
106.8775006
109.3832342
111.648308
113.8370309
116.4963042
121.0891939
125.3363552
131.3649894
138.4040149
146.9921712
158.9925582
171.7579961
187.3393895
207.3660388
228.2762612
255.932984
285.1173258
318.0726507
356.3488857
397.9729637
439.9718147
478.2790884
516.0697758
547.4167824
569.0140701
583.063949
590.8796182
588.7993332
582.4301754
100.2002935
100.5704075
100.8113583
100.9813442
101.5113054
101.915506
102.2146618
103.104778
103.4844042
104.4433651
105.1928618
107.0888068
108.5260769
110.8349097
112.1464271
115.5252633
119.6028733
122.8180319
127.9437421
134.6230226
142.9223715
152.6979165
163.2409763
176.5922235
193.1596766
211.8174581
235.3590496
260.9226544
291.0498896
325.2686221
361.3073341
400.2460323
438.3843433
474.0083315
507.6145828
533.3036411
551.673182
563.9188151
567.6032756
566.2172956
100.3966429
100.7940725
100.8416159
100.9482498
101.2143154
101.6804585
101.9564647
102.4147222
103.1387264
103.8067277
104.9404679
106.1054672
107.737862
109.2966991
111.0240752
113.8482242
117.1452298
120.6006115
125.176829
130.2449203
137.5721909
146.2517474
155.6397128
167.9744318
181.0434772
197.9606341
218.4743333
239.8464408
268.1735814
296.3839072
328.5063066
364.020111
399.3054171
433.6604756
466.9408978
494.9865539
516.4764158
534.2816382
542.7594648
546.3452181
100.3401426
100.5706594
100.7206202
100.8779584
101.2010201
101.756977
102.0328203
102.5182475
103.0556705
103.4987654
104.3757989
105.3986958
106.617447
108.3537544
109.7560961
112.5048954
114.7105015
118.3143143
122.3323354
125.9861958
131.830157
140.0244206
149.0001616
159.3581391
171.6549285
186.3198374
203.1125791
221.7977801
246.0394929
272.2413071
298.3014119
331.1844316
362.8311185
395.9547147
427.785062
456.9774771
480.8912784
501.3554354
514.7416131
522.9353442
100.1485503
100.274295
100.3480602
100.6832014
100.8648491
101.3397046
101.6820877
102.392756
102.6249275
102.9247999
103.7098594
104.6194565
105.5779337
106.4346117
108.5498644
110.8903943
112.9611072
115.9010357
119.0480987
123.2784673
128.4910902
134.5501122
142.1940217
152.2709722
162.5839353
174.7784527
188.9758023
205.3515042
224.4279444
249.825533
272.403606
301.3663882
330.4095234
359.7883927
391.2635846
419.2828926
444.3544968
467.4116047
484.9483903
498.2222283
100.2623262
100.5385047
100.7628487
100.8119109
100.9744526
101.4309994
101.7712364
102.0744848
102.5213426
102.9684983
103.4824161
104.5735019
105.6355462
106.5445702
107.9912682
109.5602751
111.2625876
113.5065648
117.1323693
120.8437625
125.5957161
131.147939
137.5341401
145.432738
153.8318828
164.278177
177.8446992
189.3824602
207.8721505
226.2583519
249.573956
273.8965086
300.4576559
327.9689835
356.2181846
384.3408809
408.6472755
433.1283537
453.6065343
468.8243546
100.252979
100.3564689
100.570236
100.8408503
100.8180331
100.84796
101.2408069
101.3808662
102.0934393
102.7052666
103.0223061
104.0490621
104.5271727
106.1176226
107.520602
108.3581034
110.4514329
112.5506621
115.2217671
118.5155126
122.5124361
126.9804104
132.0204851
138.8385697
147.1180108
154.9885764
167.4960352
178.2831048
192.5523343
209.57946
229.3952443
248.4840295
272.2482949
297.6543193
323.3530951
349.7728045
375.2704096
398.7719711
420.2873057
438.0391048
100.1619899
100.3348081
100.375719
100.4581258
100.710404
100.8594228
101.0864357
101.4603127
101.8893407
102.1439628
102.8329661
103.5428588
103.9867882
105.1299727
106.3989798
107.5821414
109.219252
111.2854499
113.857174
116.3166426
119.2498417
123.7474543
128.2916986
133.7403109
141.1116791
148.1836966
156.643465
167.3892469
179.6741954
195.3405342
210.6825169
228.5908484
249.2800173
271.5879592
293.2126895
317.5450173
342.134711
364.3165066
386.9896695
405.9805395
100.1971187
100.2886835
100.5215861
100.6590303
100.8518582
100.869211
101.1414082
101.2552502
101.7701592
102.1195879
102.5977257
103.2599004
103.896033
105.0130341
105.9742783
107.4558736
108.9091559
110.1663949
111.9941793
114.491554
116.8087116
120.5008816
124.5437072
129.6216112
135.2386501
141.6468284
148.6527074
158.227168
168.0441043
181.2214923
194.1015409
209.1235496
226.9758761
247.1828159
267.3256633
288.9900075
311.3488594
331.1105205
354.3048224
374.2101787
100.1569353
100.4845017
100.3869195
100.3726529
100.5259299
100.6072335
100.8821191
101.0402112
101.2956364
101.8444475
102.417075
102.9561649
103.5931517
104.272625
105.0603568
106.1424001
107.2264217
108.2516947
110.2098117
112.2585889
114.9853379
118.049843
121.0968753
125.3440899
130.1991489
135.1252534
142.2210447
149.8089966
159.1106356
169.5792378
182.1189496
193.3504688
209.5021641
226.2266195
243.5028869
262.6421752
285.1292307
302.6103693
323.5496097
344.0736212
100.0044415
100.1168554
100.3323654
100.4126008
100.7662042
100.9861309
101.0360891
101.0737484
101.3975597
101.8028939
102.0689313
102.5868882
103.0122702
103.2997724
104.0934802
105.0259404
105.9618283
107.6010411
109.0254395
110.7357708
112.7476024
115.7488465
118.4995795
122.1703302
125.8106972
130.8394342
136.8560578
143.1237682
150.0343734
158.6790813
169.126804
179.4223368
193.7177757
208.444427
222.914349
239.3382595
259.5826016
276.8332057
295.1920963
315.4566565
100.2575867
100.1938205
100.2307407
100.3722596
100.4184266
100.6935362
100.8348723
100.9553485
101.1494622
101.7319969
101.6677702
102.0653014
102.8254108
103.0175605
103.7904241
104.6551019
105.5010835
106.3511283
107.6458634
109.3004337
111.2107906
113.7836276
116.3247474
119.1878405
122.5699221
126.5156801
131.6952874
137.6804222
142.7937412
149.6679679
160.0512071
169.6223023
180.4630512
192.512743
205.0052724
218.6260998
234.8259808
253.3518103
269.5338532
288.7661119
100.0065954
100.0578562
100.2964826
100.4539294
100.6438852
100.5918901
100.8088101
100.8376954
101.1947752
101.4645943
101.5113814
102.0168633
102.6344815
103.021089
103.1391715
103.9528807
104.8588603
105.5672087
106.9224559
108.3390517
110.2720289
111.6236493
114.1885939
116.6042903
119.3787524
123.3013346
126.9475201
131.7631325
137.3687328
142.7015309
150.3621297
159.3453879
168.6570775
178.37211
190.03751
201.9559987
214.7459019
230.3809187
246.62615
262.9672245
100.1681901
100.2685464
100.3873854
100.2997113
100.4428597
100.5727369
100.7532665
100.8540811
101.0093053
101.1800826
101.6329382
101.8200902
102.27047
102.5868002
103.0552281
103.6043032
104.0216783
105.1850751
106.546033
107.706127
109.1217681
110.6663594
112.3771785
114.5425392
117.2189645
119.8507718
124.1473895
128.0457446
131.599513
136.7960754
143.7414847
150.4863203
158.947067
167.4272954
176.9646648
186.9464319
198.0383077
212.1918798
224.4657378
240.5092402
99.93720464
100.1825319
100.1057536
100.3054012
100.1227791
100.1282362
100.3629073
100.4825864
100.5099248
100.7651106
101.0014923
101.130047
101.820605
102.3125964
102.3683615
102.8739545
103.3112901
104.6689405
105.3963641
106.2415232
107.6706112
109.5582078
110.7107836
112.56851
114.4623415
117.2619252
120.3463752
123.4489706
126.7357108
131.2742094
136.6152064
142.140482
149.6633532
156.7454259
164.9886576
174.5120088
183.5902863
194.7719755
205.4528126
219.1692028
99.90230677
99.9037528
99.94263658
99.9679476
100.126936
100.2334399
100.2578648
100.2526181
100.5069107
100.6431074
100.8436934
101.1537739
101.6662882
101.6430045
101.7719228
102.2582239
103.0017534
103.9668536
104.7409544
105.7853484
106.9657184
108.0752143
109.4725091
111.0389983
112.6905572
115.102064
117.9654062
120.3939308
123.4753221
126.8312203
130.9675485
136.2287252
142.8844076
147.6727398
154.9531461
163.0992105
172.1721818
181.4685803
190.900474
201.2390589
100.0714745
100.0120772
100.0450699
100.1219315
100.3085483
100.2300636
100.5152278
100.6360513
100.7144893
100.7812922
100.7865554
101.0109709
101.4061552
101.704773
102.0159691
102.5701624
102.8963338
103.319099
104.0535293
105.1107424
105.7829387
106.8150875
108.0595613
109.6267701
111.3121801
112.4694936
114.9009507
117.3676398
119.8811209
122.74269
126.3986447
130.4735595
135.6619387
140.5996831
146.6659788
153.6425123
160.8422128
169.1408421
178.0039888
187.1614284
100.0002936
100.17825
100.2072916
100.4129452
100.4368631
100.5454876
100.3470458
100.3975283
100.4090629
100.5201292
100.9162684
101.1404882
101.1115832
101.284674
101.6731385
101.9591072
102.2349817
102.6822043
103.3301175
104.2204135
105.1671956
105.7868342
106.932252
108.2517374
109.593819
110.8042939
113.0065632
114.8296909
117.6186651
119.5907949
122.5519133
126.0649862
130.4447439
134.3174127
140.1153242
145.6187755
150.9136089
158.0611886
165.9554327
173.43334
100.1718878
100.1841601
100.1480177
100.2431416
100.3880376
100.3367282
100.4780516
100.6853247
100.6700238
100.8081646
100.962504
101.0711463
101.4350044
101.397104
101.5445637
101.94092
102.3862611
102.7155229
103.2300167
103.7826535
104.8538459
105.1267785
106.261616
106.9272607
108.1701948
110.0944786
111.0811208
112.8066014
114.9247539
116.864454
119.4583762
121.8452563
125.7994679
129.2827646
133.8637565
138.5511432
143.8560127
148.5592446
156.0223799
162.4336276
100.1342468
100.189881
100.0600578
100.1567226
100.1431098
100.1877509
100.2928375
100.4310762
100.4596221
100.7698809
100.9075827
100.8323105
101.0783541
101.0720952
101.3456311
101.7016962
102.0715364
102.1687784
102.5092458
102.9403987
103.8107048
104.3460229
104.8585608
105.8780869
106.9366107
108.2278565
109.1736148
111.0058222
112.7955775
114.6611024
116.0241485
119.2325082
121.7751555
124.6515374
128.5422895
131.8850429
137.0341733
141.9986977
146.9737316
153.2434059
100.1644853
100.1941621
100.1814831
100.2643627
100.2364706
100.3402644
100.3303318
100.2685181
100.394596
100.4976998
100.5217389
100.6648476
100.8219998
100.7343743
101.139886
101.2496258
101.5848646
101.7074383
102.2051223
102.5040315
103.1122032
103.6040616
104.4376673
105.1186838
105.7872618
107.0557084
107.753564
109.1278387
110.4220533
112.3521003
114.1018754
115.7093699
118.462482
120.7896505
123.7461114
127.5288431
131.2542854
135.3472338
139.3273146
145.0495504
99.96634025
99.97738479
100.0130705
100.1191276
100.2280395
100.2440002
100.2865236
100.1524173
100.3482555
100.3816577
100.572229
100.6637228
100.8147287
100.8507255
101.2759392
101.2719973
101.7608674
101.7237497
101.9357336
102.4303386
102.6359319
103.2315428
104.0985439
104.56257
105.0407665
105.6776635
107.1384043
107.8078453
109.0797953
110.6447355
112.0034514
113.2027838
115.2577367
118.0172978
121.137607
123.3193385
126.6656677
129.8553393
134.0224458
137.9110878
100.072594
99.99551368
100.050064
100.1588478
100.1035546
100.0952
100.3315182
100.3341445
100.383987
100.2948177
100.3912217
100.4639821
100.7342722
100.8149583
101.0704417
101.1499839
101.304502
101.394368
101.672284
102.0805687
102.2374538
102.6647761
103.5820335
103.8155685
104.1467871
104.6364716
105.9907041
107.010296
107.9913502
108.8103505
110.2365666
111.2917711
113.0607978
114.9983379
117.4198046
119.9060627
122.4629542
125.461323
128.5986824
132.1796424
100.1930139
100.338047
100.4218635
100.4202783
100.5534988
100.593251
100.5028196
100.4181324
100.413666
100.3732869
100.4010514
100.3604698
100.6407899
100.7188606
100.7095441
100.7954541
100.9872226
101.0894693
101.4804437
101.7437514
102.2071833
102.4676077
102.9681121
103.1412595
103.6619303
104.193904
105.3483406
106.0233863
106.7114934
107.7012713
108.5168986
109.6384609
111.1927469
112.5429815
114.3899924
116.2691217
118.5916732
121.2365169
124.046207
127.0013158
100.0747093
100.1503717
100.2844076
100.3101607
100.269247
100.310228
100.240052
100.2896698
100.3562345
100.3607822
100.3457756
100.4242489
100.5570671
100.5669516
100.5780436
100.6681226
100.6380607
100.8129879
101.2841107
101.5810934
101.8389954
102.0198585
102.3797011
102.4441694
102.8278023
103.324966
104.1883123
105.1123227
105.7241342
106.332749
107.2470395
108.2132478
109.39449
110.5590237
111.6328519
113.2350612
115.0718061
117.2573181
119.7976922
122.2069862
100.1573569
100.2131144
100.195662
100.1050325
100.1492866
100.1540237
100.1869037
100.3270148
100.3002
100.2338124
100.1680794
100.1194993
100.4001451
100.3673394
100.4368623
100.6588957
100.7226118
101.0894601
101.0007886
101.2700098
101.6295345
101.8548967
102.0217632
102.3306439
102.8309004
103.245484
103.5942007
104.4769014
104.7622458
105.4223938
106.3974575
106.9096569
108.1119038
109.1332906
110.1688011
111.5322351
112.9558718
114.4133674
115.9142673
118.4371801
100.0093965
99.98003794
100.0614178
100.1233867
100.1872447
100.1294828
100.1509418
100.2518916
100.2805685
100.2824036
100.29485
100.3330672
100.3914017
100.4113146
100.4801239
100.5143469
100.4606753
100.545426
100.6090281
101.082916
101.239609
101.3454204
101.5556795
101.8651246
102.2799337
102.502339
102.8526398
103.5659695
103.6903686
104.3166487
105.3577199
105.4301964
106.3520049
107.198612
108.1314284
109.1886682
110.8633426
111.9666836
113.2886436
114.8494808
471.7910708
464.8494375
460.1834302
458.2058335
457.9810778
456.6754025
456.6684466
455.3672747
454.481489
455.6988911
454.1644715
455.2788988
455.2252492
455.0174267
453.8778096
454.2815542
454.7007902
454.8789794
455.6966527
455.252471
454.3570654
455.3201823
454.8971687
455.5893187
455.7797927
454.4193107
456.6738676
457.2401312
456.3981886
456.0213472
455.3527165
456.2370388
455.2850438
455.5480927
454.6571797
454.8591248
453.0546244
450.7568207
444.5838032
424.0664467
488.8531645
471.5798752
469.5407299
470.4372486
470.3925876
470.4637432
470.8964328
470.4015358
471.1809993
470.7177456
470.786578