/*--------------------------------*- C++ -*----------------------------------*\
| =========                 |                                                 |
| \\      /  F ield         | OpenFOAM: The Open Source CFD Toolbox           |
|  \\    /   O peration     | Version:  v1706                                 |
|   \\  /    A nd           | Web:      www.OpenFOAM.com                      |
|    \\/     M anipulation  |                                                 |
\*---------------------------------------------------------------------------*/
FoamFile
{
    version     2.0;
    format      ascii;
    class       volScalarField;
    location    "0.008";
    object      variableHardSphereMeanFreePath_Ar;
}
// * * * * * * * * * * * * * * * * * * * * * * * * * * * * * * * * * * * * * //

dimensions      [0 1 0 0 0 0 0];


internalField   nonuniform List<scalar> 
4000
(
0.0009531012311
0.0009572862196
0.0009615389838
0.0009649308044
0.0009725433812
0.0009792497657
0.0009879481714
0.0009935015687
0.001006986299
0.001019882555
0.001032990513
0.001057506498
0.001076669713
0.001100034195
0.001121279804
0.001150418541
0.001177267433
0.001205160116
0.00122959387
0.001245394313
0.001253386405
0.00124237213
0.001215520763
0.001165846718
0.001092804462
0.001001558983
0.0008988466198
0.0007964305064
0.0007083096646
0.0006312655637
0.0005691468602
0.0005182259403
0.0004757694493
0.0004378418792
0.000398063218
0.0003580858386
0.000313183487
0.0002646044025
0.0002107800591
0.0001518023457
0.0009580518188
0.0009606779647
0.000961822243
0.0009659934975
0.0009709436195
0.0009773102189
0.0009877895744
0.000995357321
0.001008145668
0.00102349021
0.001038603716
0.001061905971
0.001085885649
0.001112500558
0.001140163539
0.001173542452
0.001207314482
0.001235957936
0.001265035009
0.001286934197
0.001293250867
0.001286550676
0.001259011207
0.001206586374
0.001130051055
0.001034109866
0.000928210924
0.0008207790499
0.0007269868151
0.000644628777
0.0005788121335
0.000525449637
0.0004822583324
0.0004413044833
0.0004011611443
0.0003599747867
0.0003151493366
0.0002654138354
0.0002115629249
0.000152052968
0.0009556259092
0.0009601857471
0.0009632692863
0.0009657279882
0.0009701751527
0.0009759488261
0.0009871655285
0.0009963032267
0.00100602956
0.001018347405
0.001034047945
0.001053251668
0.001076102334
0.001104440615
0.001131209312
0.001163424975
0.001197848046
0.001232655193
0.001261925906
0.001289100888
0.001303188366
0.001299433084
0.00127306913
0.001221920154
0.001145083412
0.001048805178
0.0009391532406
0.0008321595799
0.0007363459336
0.0006528664488
0.0005832112139
0.0005296769249
0.0004855107722
0.0004435275919
0.0004030452652
0.0003608668718
0.0003157526236
0.0002658546445
0.0002119301168
0.0001524681584
0.0009547244846
0.0009574800294
0.0009627392524
0.0009653571435
0.0009686613969
0.0009746765663
0.0009816380105
0.0009921649099
0.001002569771
0.001013697856
0.001027027784
0.001045179814
0.001072948231
0.001097280733
0.001125607619
0.001158024642
0.001194855376
0.001232073609
0.001263845049
0.001287959892
0.001300091516
0.001299954865
0.001278182583
0.001231391713
0.001154046421
0.001055830549
0.000947725869
0.000841415536
0.0007406732647
0.0006558872666
0.0005870183478
0.0005310341685
0.0004862405176
0.0004445857193
0.0004040619306
0.0003621450813
0.0003169211568
0.0002664231383
0.000212437134
0.0001527658364
0.000954493202
0.0009583989956
0.0009621221817
0.0009661790846
0.0009711957756
0.0009752194897
0.0009835702389
0.0009913087745
0.001003846505
0.00101535353
0.001029993404
0.001047721692
0.001070521764
0.001094447328
0.001121314792
0.001152627552
0.001183863563
0.001219432664
0.001251939196
0.001280319716
0.001297815337
0.001297256111
0.001277683384
0.001232362907
0.001159053016
0.001065079127
0.0009582517006
0.0008479539514
0.0007468579808
0.0006605384937
0.0005913836843
0.000534893032
0.0004897154
0.0004466253926
0.0004052108228
0.0003629862604
0.0003176398927
0.0002673338333
0.0002129445776
0.0001535060481
0.00095509267
0.0009573603776
0.000960858725
0.0009641122045
0.0009685173953
0.0009744109828
0.0009809004066
0.0009889160575
0.0009970560647
0.001009496545
0.001024368935
0.001042698351
0.001066453349
0.001088859206
0.001116434816
0.001148444407
0.001183085403
0.001218288139
0.001252869418
0.001279404338
0.001295394448
0.00129891509
0.001279208997
0.001234401888
0.001164384397
0.001072657822
0.0009647810381
0.0008559370566
0.0007544435468
0.0006671866988
0.0005961028054
0.0005397205575
0.000490688225
0.00044901336
0.0004076140582
0.0003657964994
0.0003187123685
0.0002689941931
0.0002140804151
0.0001542193793
0.0009556558079
0.0009562556818
0.0009577055977
0.0009619707801
0.0009686395628
0.0009743340527
0.0009810235699
0.0009888990247
0.0009994711433
0.001010227939
0.001025878693
0.001040699979
0.001064290549
0.001087216253
0.001115754621
0.00114773888
0.001181557844
0.00121723598
0.001252367521
0.00127852779
0.001297861685
0.001301225458
0.001281884533
0.001240753082
0.001173918552
0.001081434017
0.0009725968447
0.0008653306457
0.0007635009636
0.0006747670787
0.0006007161937
0.0005430957329
0.00049558511
0.0004520880706
0.0004102620198
0.0003675755257
0.0003214329319
0.0002701244608
0.0002151705931
0.0001546966971
0.0009558859514
0.0009580645186
0.0009609565172
0.0009643100518
0.0009669846961
0.0009718887654
0.0009787249696
0.0009873442376
0.0009976624726
0.001008737817
0.001022433678
0.001038786371
0.001057864227
0.001083503472
0.001108822917
0.001137352451
0.001174079156
0.001208856037
0.00124434175
0.001273436774
0.001293737185
0.001299140481
0.00128550602
0.001244668459
0.00117811619
0.0010885484
0.0009834866658
0.00087492102
0.0007725026293
0.000681871538
0.0006070176144
0.0005490286972
0.0004990254707
0.0004553970162
0.0004130798718
0.0003697555329
0.0003235469738
0.0002715637674
0.000216505116
0.0001553104349
0.0009546127498
0.0009569503849
0.0009612755064
0.0009640700186
0.0009665910205
0.0009718849274
0.0009788332088
0.0009848204656
0.0009953633371
0.001006502376
0.001020537236
0.001034680197
0.001054321787
0.001079015717
0.001105033032
0.001137741708
0.00117025401
0.00120508119
0.001238490588
0.001267465011
0.001289263786
0.001295903152
0.001283604656
0.00124735789
0.001183346188
0.001100243839
0.0009946875392
0.0008884131887
0.0007838482756
0.0006908945636
0.0006148066065
0.0005552943479
0.0005035600274
0.0004590398734
0.0004166556884
0.0003723058486
0.0003248178374
0.0002740302824
0.0002179822595
0.0001564256237
0.0009543736436
0.0009566426301
0.0009599331219
0.0009630751934
0.0009678424395
0.0009729898378
0.0009793048777
0.0009872506502
0.0009944009348
0.001005635835
0.001017916413
0.001033887207
0.001051267758
0.001076735002
0.001101732021
0.001130998995
0.001164058104
0.001197407713
0.001230228383
0.001261050882
0.001285185034
0.001295804029
0.001286598833
0.001252306976
0.001193562117
0.001109727584
0.001008373638
0.0008990962043
0.0007947268818
0.0007023313766
0.0006244062221
0.0005610545794
0.0005096505638
0.0004636927318
0.0004195570084
0.0003745986918
0.0003282828375
0.0002760119096
0.0002194910045
0.0001572557849
0.0009542069228
0.0009557221233
0.0009572051015
0.0009612603705
0.0009662125602
0.0009710677619
0.0009765306065
0.0009845584633
0.0009937720651
0.001007072204
0.00102166979
0.001034900953
0.001054505044
0.001074236531
0.001100139651
0.001129911142
0.001159720669
0.001194753026
0.001226526479
0.001258462562
0.001282456215
0.001291643312
0.001286742274
0.001256913641
0.001202416942
0.001123544466
0.001024990458
0.0009145612273
0.0008107450837
0.0007154800983
0.0006342191769
0.000569828325
0.0005160649213
0.0004686927361
0.0004250038642
0.000379594601
0.0003320728723
0.0002790115278
0.0002225687992
0.0001590227706
0.0009539173919
0.0009553717355
0.0009581703172
0.0009612037842
0.0009658386311
0.0009715245135
0.0009758666557
0.0009804455901
0.0009910063995
0.001004521654
0.001014932411
0.001029671216
0.001047836905
0.001072561436
0.00109740725
0.001128709193
0.001159116401
0.001192666308
0.001226087183
0.00125569203
0.001280660477
0.00129781312
0.001292679166
0.001263101043
0.001211907396
0.001137154501
0.001040488279
0.0009323555865
0.0008250576699
0.0007273068511
0.0006456010106
0.0005788127732
0.0005236359202
0.0004758114207
0.0004300330467
0.0003848443369
0.0003363503957
0.0002831866946
0.0002249427128
0.0001606492513
0.0009528686421
0.0009553748642
0.0009572018636
0.0009605232896
0.0009650648277
0.0009710280145
0.0009765795372
0.0009830962249
0.0009894654388
0.0009994636377
0.001011758369
0.001026462478
0.001043583374
0.001061717401
0.001087417905
0.001115355322
0.001146089839
0.001179435852
0.001210256279
0.001242522985
0.001269604635
0.001286247645
0.001288358372
0.001268655512
0.001220976073
0.001149938814
0.00105792084
0.0009499507102
0.000843658812
0.000743977815
0.000658837829
0.0005897146438
0.0005329174614
0.0004830499331
0.000437939703
0.0003908938402
0.0003412795617
0.0002875050762
0.0002286389801
0.0001627496463
0.0009521482294
0.0009546491305
0.0009579000907
0.0009615633339
0.0009643229021
0.0009687543162
0.0009719419465
0.0009765248576
0.0009852055224
0.0009936001277
0.001006922873
0.001020229148
0.001039070771
0.001057836591
0.00108261625
0.001112735758
0.001140686408
0.001172860381
0.001206121263
0.001238372896
0.001266097432
0.001283109402
0.001287090365
0.001270668479
0.001229336183
0.001164089292
0.001072658789
0.0009697409715
0.000862671786
0.0007606909859
0.0006739700275
0.0006007136549
0.0005427390209
0.0004909292239
0.0004452288156
0.0003977050808
0.0003481420685
0.0002928238072
0.0002325743057
0.0001653122471
0.0009526217152
0.0009557227299
0.000957980149
0.0009600004525
0.0009641384379
0.000967973076
0.0009725330157
0.0009785745293
0.0009865980016
0.0009950747596
0.001009053372
0.001021750147
0.001039239046
0.001058556687
0.001078241024
0.001106895619
0.001137676739
0.00116981669
0.001203237278
0.001236021244
0.001263022185
0.001283507296
0.001291269348
0.001277636432
0.001238861175
0.001178252464
0.001092823251
0.0009920631545
0.0008847690663
0.0007817257022
0.000691121604
0.0006173021571
0.0005546852738
0.0005015573495
0.0004549534934
0.0004051922797
0.000355169902
0.0002995761304
0.0002375521297
0.0001682485129
0.0009527527521
0.0009558401787
0.0009572175039
0.0009593183837
0.0009641876232
0.0009676948125
0.0009704956262
0.0009765639747
0.0009833403766
0.0009947595969
0.00100466228
0.001015250126
0.001032445495
0.001054530095
0.001074724395
0.001103462389
0.001130483581
0.001161400749
0.001195874983
0.001228283986
0.001258291673
0.001280572197
0.001289372627
0.001282078387
0.001252656191
0.001196989292
0.001114020438
0.001016949953
0.0009106443443
0.0008060709177
0.0007136019755
0.000635740537
0.0005702947123
0.000515104723
0.0004653500875
0.0004163775699
0.0003645471478
0.0003082465348
0.0002440991422
0.0001724659988
0.0009532597812
0.0009535946339
0.000955511781
0.0009581527033
0.0009613791809
0.0009651087262
0.0009694677731
0.0009747767691
0.0009824304535
0.00099111112
0.001000692999
0.00101282115
0.001028792196
0.001047498424
0.001068296057
0.001090457903
0.001116818127
0.00114697156
0.001182815316
0.001214368426
0.00124569342
0.001271223818
0.001285129934
0.001282021823
0.001257841939
0.001207981682
0.001134744807
0.001039711139
0.0009348163899
0.0008306445872
0.0007360261733
0.0006547368214
0.0005868341601
0.0005279174219
0.0004780943891
0.0004291102246
0.0003769002167
0.0003197165845
0.000253801267
0.0001785147032
0.0009529603381
0.0009543082168
0.0009560349306
0.0009583611313
0.0009605125598
0.0009655395476
0.0009704063185
0.0009731442571
0.0009775535029
0.000987671316
0.0009965922316
0.001009370694
0.001022483156
0.001041881729
0.001060051561
0.00108573467
0.001114599796
0.001144057493
0.001175122555
0.001210765365
0.001240182115
0.001263985105
0.00128045816
0.001281593442
0.001261483547
0.001220493261
0.001151983977
0.001065883085
0.0009630254163
0.0008574740779
0.0007594713471
0.0006759229539
0.0006050166838
0.000546221396
0.0004949383854
0.0004450584851
0.0003927537897
0.0003342420199
0.0002666154821
0.0001873583626
0.0009526066613
0.0009532856918
0.0009553392298
0.0009579060343
0.0009591933654
0.000963864432
0.000967583602
0.0009732800675
0.000979119169
0.0009849136949
0.0009956640642
0.001006102279
0.001020608879
0.001036676332
0.001055710429
0.001079410937
0.001102610023
0.001130370036
0.001167073379
0.001197780833
0.001226895729
0.001255723034
0.001273281614
0.001277617339
0.001267117406
0.001231796995
0.001173158182
0.001091833926
0.0009963222968
0.0008892693668
0.0007905695257
0.000703056011
0.0006275400612
0.000567037908
0.0005140731608
0.0004640364118
0.0004130570838
0.0003545744336
0.0002870706313
0.0002016493366
0.0009523707669
0.0009540655253
0.0009556033949
0.0009577846634
0.0009608107641
0.0009655949149
0.0009697615817
0.0009761441992
0.0009816296204
0.0009879016356
0.0009973217189
0.001009441741
0.001022361549
0.00103914487
0.001054205193
0.001072977884
0.001096176996
0.001126563637
0.001156409243
0.001188177367
0.001218444351
0.001245488063
0.001267514954
0.00127873712
0.001272026027
0.001243880488
0.001193265305
0.001119128773
0.001026051352
0.0009242656871
0.000822289781
0.0007336283105
0.0006542892653
0.0005902253859
0.0005360932421
0.0004883374589
0.0004395992961
0.0003875882912
0.0003249432148
0.0002377799416
0.0009517784108
0.0009543324294
0.0009558380172
0.0009572105305
0.0009597749392
0.0009635529319
0.0009672337085
0.0009726353551
0.0009776520674
0.0009832804253
0.0009918220346
0.001000082116
0.001009901288
0.001026486902
0.001041982074
0.001064001484
0.001091446041
0.001117688129
0.001147345994
0.001176284269
0.001210994033
0.001239479494
0.001262516993
0.001274108181
0.001271550777
0.001252928043
0.001210419038
0.001142200307
0.001055443512
0.0009585086578
0.0008585702962
0.0007650722566
0.0006840843641
0.0006172745458
0.0005621983646
0.0005151125612
0.0004720544027
0.0004299917137
0.0003904533159
0.0003926123221
0.0009517670471
0.0009525744501
0.0009533787709
0.0009561115508
0.0009580164643
0.0009606653717
0.0009636063331
0.0009691380253
0.0009728798088
0.0009793924195
0.0009883396193
0.0009978947866
0.001007971522
0.001022144429
0.001039524286
0.001060453498
0.001086450792
0.001110891787
0.001138333155
0.001166729244
0.001196719774
0.001224792607
0.001250802232
0.001268786762
0.001272596454
0.001256310266
0.001220770301
0.001164710291
0.001088412106
0.0009958491056
0.0008977241274
0.0008005066014
0.0007178519408
0.0006474419117
0.0005914829186
0.0005462223245
0.000508668777
0.0004778608899
0.0004618408482
0.0004976825175
0.0009500301064
0.0009508711877
0.0009532143735
0.0009552537663
0.0009571791201
0.0009602030019
0.0009618430405
0.0009652421835
0.0009692540839
0.0009749015356
0.0009828305588
0.0009915944962
0.001002604381
0.001015838445
0.001032902786
0.001054098589
0.001075245102
0.00109906535
0.00112480291
0.001154342438
0.001188149797
0.001216745612
0.001244243669
0.001261655816
0.001270707688
0.001264311987
0.001236591507
0.00118817596
0.001116616994
0.001030342659
0.000937224195
0.000842450527
0.0007570954579
0.0006827037007
0.0006243634338
0.0005792164125
0.0005450884701
0.0005233780939
0.0005191984866
0.0005536030752
0.0009506635296
0.0009525314
0.0009539035237
0.0009547407492
0.0009559818711
0.0009585099199
0.0009618420483
0.0009670618125
0.0009715936812
0.0009774518402
0.0009827968673
0.0009920602627
0.001001423679
0.001012891653
0.001030128818
0.001047740685
0.001065876862
0.001088588118
0.001115030011
0.001142570206
0.001170523465
0.001201108736
0.001226202995
0.001248107555
0.001262174676
0.001262748214
0.001245980001
0.001206651729
0.001145929108
0.001065621617
0.0009776636893
0.0008861806507
0.000796624839
0.0007223215077
0.0006600002407
0.0006155436541
0.0005836502183
0.0005656924222
0.0005646922066
0.0005917057322
0.0009514883802
0.0009523559612
0.0009537855916
0.0009563745392
0.0009582022597
0.0009610402219
0.0009639074817
0.0009661384986
0.0009698429555
0.0009735811374
0.0009792952948
0.0009864886784
0.0009960160117
0.001007588586
0.00102399418
0.00103908456
0.001056859892
0.001078673666
0.001104622773
0.001130479246
0.00115727626
0.001187273081
0.001217323491
0.001241790029
0.001256988752
0.001260644474
0.001249222213
0.001219272816
0.001168625836
0.001098671176
0.00101528619
0.0009256216941
0.000840223007
0.000762970496
0.0007001965652
0.0006517719349
0.0006185235354
0.000600669628
0.0006004962937
0.0006184517271
0.000950196283
0.0009508936455
0.0009515653849
0.0009534624604
0.0009542902486
0.0009565092555
0.0009597053456
0.0009638814074
0.0009666426165
0.0009708821274
0.0009757978202
0.0009822145237
0.000989873597
0.001003812992
0.001015667608
0.001030287766
0.001047467979
0.001064426693
0.001089847156
0.001117633441
0.001144407648
0.001172878878
0.001200478129
0.001226383131
0.001245829631
0.001255314709
0.001252357022
0.001230544312
0.001190343218
0.001129017449
0.001055114891
0.0009700555781
0.0008838429179
0.0008057943332
0.0007401096027
0.000689759718
0.0006514714711
0.0006323005569
0.0006291535435
0.0006424190888
0.0009505245966
0.0009535801468
0.0009545462444
0.0009549785164
0.0009563947067
0.0009571844731
0.000959616177
0.0009621665449
0.0009660832435
0.00096899858
0.0009745265888
0.0009824643603
0.0009907842816
0.0009991378522
0.001013859482
0.001026394133
0.001040620775
0.00106046193
0.001084549342
0.001107021041
0.001131127619
0.001158596337
0.001186112444
0.001212359081
0.001232376826
0.00124668277
0.001248185612
0.001234375989
0.001204143445
0.001155725586
0.001090278509
0.001010174123
0.0009284778079
0.0008486996707
0.0007799029381
0.000727872744
0.0006876023389
0.0006632107259
0.0006560202459
0.0006636405634
0.000950833858
0.0009509912842
0.0009527164912
0.0009543554134
0.0009564829611
0.0009575804004
0.0009596278211
0.0009635693925
0.0009668955027
0.0009706868546
0.0009738559151
0.000980510599
0.0009882716134
0.0009968456482
0.00100723174
0.001022595238
0.001035752556
0.001055747586
0.0010747393
0.001095214856
0.001119819353
0.001145502427
0.001175590723
0.001200545706
0.001222999086
0.001238655195
0.001245170825
0.001239129919
0.001215418445
0.001174688954
0.001119133716
0.001050785087
0.0009713087523
0.0008967102624
0.0008256066674
0.0007674370343
0.000723850482
0.0006953397336
0.0006806484892
0.0006806263696
0.0009507525457
0.0009520788261
0.0009527795323
0.0009529435596
0.0009536429571
0.0009563804699
0.000958489335
0.0009610588087
0.0009638008111
0.0009676110428
0.0009716698654
0.0009763678912
0.0009856591544
0.0009896019449
0.0009992845018
0.001012433421
0.00102673891
0.001041747519
0.001062342674
0.001083686608
0.001106727406
0.001133560732
0.001158496252
0.001185043102
0.00120982381
0.0012299407
0.001240233527
0.001240957785
0.001226800711
0.001196007984
0.001149563771
0.00109031991
0.001018707278
0.0009437694982
0.0008720795908
0.0008101017603
0.0007607363301
0.0007256330917
0.0007072638905
0.000699527604
0.0009497441788
0.0009510440628
0.0009523937394
0.0009537713522
0.0009545801416
0.0009559961342
0.0009578002254
0.0009618076919
0.000963121431
0.0009666503856
0.0009703065217
0.0009753155197
0.0009808990384
0.0009880214889
0.00099886589
0.00100944434
0.001023440477
0.001035187487
0.001050680076
0.001068969072
0.001089347278
0.001114938895
0.001140293959
0.001166271583
0.001190799797
0.001211372078
0.001228466043
0.001234388657
0.001230297886
0.001211138329
0.001174573377
0.001123882548
0.00105914402
0.0009905430543
0.0009198227672
0.0008569340154
0.0008018226693
0.000759810741
0.0007333666973
0.00072058927
0.0009501455283
0.0009507872167
0.0009527621662
0.000953127637
0.0009543279737
0.0009555200686
0.0009563592082
0.0009573872911
0.0009621946137
0.0009659330877
0.0009684567871
0.00097300892
0.0009802990037
0.0009872839836
0.000995174692
0.001003564635
0.001019255329
0.001032021592
0.001046624343
0.001063708673
0.001082735354
0.001103381844
0.00112832407
0.001153890703
0.001176756114
0.001198960018
0.00121474128
0.001226107863
0.001226622484
0.001215049064
0.001189490817
0.001147754669
0.001094199533
0.001031781069
0.0009653532869
0.0009013458002
0.0008452615503
0.0007976011845
0.0007629567038
0.0007428305414
0.0009499680138
0.0009497704843
0.0009503472159
0.0009512404498
0.0009528707072
0.0009561001851
0.0009574008147
0.0009596965595
0.0009618027802
0.0009628486962
0.0009660796481
0.0009690425975
0.0009737642853
0.0009805935255
0.0009894885262
0.0009986687812
0.001008516189
0.001019278521
0.001034632465
0.001050507729
0.001069957978
0.001090194306
0.001115414205
0.001140095161
0.001162920134
0.001185923694
0.001203066451
0.00121775964
0.001223993194
0.001217827621
0.001199682859
0.001168721133
0.001123366614
0.001071030516
0.001008652249
0.0009466473018
0.0008883957406
0.0008374600714
0.0007993826444
0.0007693970583
0.0009494712242
0.0009494788782
0.0009500523581
0.0009516570539
0.0009523231423
0.000953055938
0.0009556651077
0.000956352754
0.0009580224148
0.0009607273683
0.0009640994071
0.000966552524
0.0009732551485
0.0009785887883
0.0009851559838
0.0009935740433
0.001002642122
0.001014207323
0.00102485168
0.001040078359
0.001055711654
0.001074066332
0.001100200196
0.001119930348
0.001143436452
0.001162382573
0.001184940207
0.00120384869
0.001211762248
0.001213528277
0.001204492934
0.001183873062
0.001147838032
0.001102476349
0.001048797768
0.0009901652913
0.0009326448697
0.0008807595389
0.0008364822532
0.0008003765875
0.000948664036
0.0009491379953
0.0009516825782
0.0009521196799
0.0009532860069
0.0009536769539
0.0009535216956
0.0009558835308
0.0009581688707
0.0009603053737
0.0009615900512
0.0009637703083
0.0009699292241
0.0009744287942
0.0009792065985
0.0009860271809
0.0009960364516
0.001003722657
0.001016945557
0.001031030954
0.001047265305
0.001066559595
0.001085077779
0.001105392584
0.001129497614
0.001149250534
0.001171478422
0.001189591892
0.001202568189
0.00120953599
0.001207893136
0.001193702621
0.001171119983
0.001133515309
0.001085827005
0.001034248921
0.00097897412
0.0009233007216
0.0008750994749
0.000835398956
0.0009486700252
0.0009494031236
0.0009497149388
0.0009496016601
0.0009510028285
0.0009527826663
0.0009547245394
0.0009563765852
0.0009574767847
0.0009595293547
0.000962077123
0.0009665913927
0.0009693819185
0.0009747487469
0.0009767283119
0.0009836854608
0.0009929450351
0.0009997865316
0.001010312187
0.00102233423
0.001038135974
0.001054606082
0.00107061666
0.00109064292
0.001110125675
0.001130497126
0.001152806342
0.001171385184
0.001187618637
0.001199210456
0.001202900224
0.001195577997
0.001177654835
0.001151227342
0.001113543291
0.00106838183
0.001017986616
0.0009655557768
0.0009165134182
0.0008724141773
0.0009495219914
0.0009505930111
0.00095084273
0.0009512090238
0.0009510756033
0.0009516540047
0.0009522982033
0.0009540790444
0.0009550357708
0.0009566725128
0.0009595189698
0.0009633059765
0.0009678677097
0.0009731178851
0.000977764357
0.0009839080877
0.0009916342563
0.0009983608391
0.001008093211
0.001017963447
0.001031221919
0.001046126123
0.001060991559
0.001079082078
0.00109744404
0.001116618096
0.001137398509
0.001154624937
0.001172259868
0.001183536856
0.001191101862
0.001192988786
0.001184821453
0.001165675715
0.001135118952
0.001097398577
0.001053021444
0.001004805476
0.0009579012738
0.0009117414836
0.0009497672136
0.000950341914
0.0009502308189
0.000951262018
0.0009527628244
0.0009540510472
0.0009537901993
0.0009550230165
0.0009573515304
0.0009574996198
0.0009598610571
0.0009625237034
0.0009648803582
0.0009686019256
0.0009718418776
0.0009776226127
0.0009825472809
0.0009909717745
0.000999216682
0.001006206221
0.001018340302
0.001034361145
0.001050302338
0.001066176061
0.001083233531
0.00110326898
0.001121726382
0.001139045637
0.001157218278
0.001171181169
0.001180048266
0.001185063314
0.001181024201
0.001170753603
0.001151333185
0.0011223644
0.001085059598
0.001040552828
0.000994429288
0.0009492477014
0.0009487895337
0.0009491562834
0.000949428312
0.0009493064731
0.0009491864219
0.0009499899351
0.0009516482228
0.0009539930601
0.0009548029526
0.0009566991336
0.0009582314092
0.0009594863428
0.0009617078486
0.0009629838166
0.0009672836545
0.0009723499321
0.0009770642361
0.0009830274944
0.0009901972029
0.0009992800564
0.001009473691
0.001021427072
0.001034696226
0.001050452311
0.001065552353
0.001081436968
0.001099368398
0.001116911173
0.001133823189
0.001153542235
0.00116455237
0.001174894005
0.001178527762
0.001173144718
0.001161614494
0.00113920007
0.001110023724
0.001074537218
0.001032714725
0.0009874294308
0.0009488216499
0.0009495430572
0.0009510451742
0.0009514614232
0.0009520048728
0.000953672373
0.0009540064349
0.0009540807326
0.0009551051781
0.0009557206583
0.0009560806588
0.0009592676131
0.0009610919556
0.0009634391178
0.0009679841397
0.0009723027517
0.0009755086666
0.0009801929838
0.0009874798315
0.0009944910181
0.001004270488
0.001014678139
0.001027152027
0.001041621014
0.0010543263
0.001070212361
0.001087508943
0.001099784785
0.00112002108
0.001134804267
0.001150034109
0.001160819777
0.001166361758
0.00116719808
0.001160472915
0.001147624759
0.001125468751
0.001096927637
0.001063046279
0.001023198644
0.0009487692142
0.0009494678045
0.0009501957505
0.0009505983519
0.0009509096266
0.0009507879232
0.0009518910886
0.0009516502637
0.0009531131998
0.0009548401187
0.0009564047706
0.0009590092204
0.0009604089988
0.0009649425552
0.0009677983566
0.0009694641585
0.0009749085509
0.0009796945148
0.0009854307992
0.0009935348963
0.001000907643
0.001008958009
0.001016896934
0.001029521683
0.001043449107
0.001055542053
0.00107445757
0.001086498929
0.001102860545
0.001118641043
0.001134824437
0.001146538176
0.001156619743
0.001161563328
0.001160575217
0.001152503195
0.001137870098
0.001116362979
0.001088244666
0.001056276644
0.0009479686685
0.0009487653634
0.0009486392256
0.0009491952362
0.0009505161103
0.00095129215
0.0009518171113
0.0009523937224
0.000953510136
0.0009538506081
0.0009558065743
0.0009578850295
0.0009592492923
0.0009612172021
0.0009637885935
0.0009656826378
0.0009700217664
0.0009747092611
0.0009803563779
0.0009852928245
0.0009920524201
0.001001974613
0.001011897509
0.001021502084
0.001034609062
0.001045834275
0.001058120579
0.001074029802
0.001088168081
0.001105840012
0.00112015798
0.001132688604
0.001144225391
0.001151442391
0.00115291981
0.001150443734
0.001142491763
0.001126804358
0.001105163609
0.001078470894
0.0009488708382
0.0009487109446
0.0009487447717
0.0009488111997
0.0009486450317
0.0009481074313
0.0009496053167
0.000950955966
0.0009530543558
0.0009537732345
0.0009550222862
0.0009561682762
0.0009575575344
0.0009606117596
0.0009632240265
0.0009661353549
0.0009693171008
0.0009731705243
0.0009783599657
0.0009837506163
0.0009880656436
0.0009947273185
0.001002598353
0.001012227606
0.001022151826
0.00103237587
0.001042407394
0.001056069001
0.001069852565
0.001085544632
0.00109755009
0.001109889325
0.001123013578
0.001134277987
0.001140587109
0.00114241016
0.001139435697
0.001130231746
0.001116651245
0.001096542034
0.0009485928654
0.0009485367543
0.0009489166906
0.0009491391165
0.0009503049215
0.0009506415675
0.0009508288007
0.0009499848879
0.0009491977607
0.0009508196812
0.0009521257516
0.0009534583213
0.0009551835853
0.0009573390698
0.0009592911082
0.0009614975533
0.0009634428838
0.0009647661994
0.0009680231427
0.0009733452206
0.0009804539658
0.0009875605929
0.0009929358999
0.001001494527
0.001010369444
0.001019782083
0.001033030013
0.001044807514
0.001056932393
0.001070214376
0.001085189789
0.001096865036
0.001110964156
0.00112166291
0.001129397707
0.001134570846
0.001137786226
0.001131876793
0.001122876905
0.001108782808
0.00094787195
0.0009485813974
0.000948761454
0.0009487805181
0.0009490066007
0.0009495647273
0.0009501105321
0.0009514531753
0.0009523145824
0.0009530899391
0.0009529856565
0.0009528858091
0.0009532666669
0.0009542300057
0.0009555519572
0.0009582953495
0.000960866406
0.0009645519464
0.0009683123079
0.0009715260187
0.0009751637605
0.0009820563052
0.0009889005706
0.0009968395467
0.001002908435
0.001012054902
0.001021743426
0.001032103443
0.001043582641
0.001057054055
0.001070248044
0.001080285107
0.001094300153
0.001105431219
0.001113559713
0.001120820771
0.00112555979
0.001127374103
0.001123001394
0.001114670362
0.0009481143586
0.0009471649425
0.0009469877487
0.0009470990557
0.0009465132939
0.0009475336499
0.0009478394359
0.000948640378
0.000949219739
0.0009503857178
0.0009516395021
0.000953920314
0.0009564983691
0.0009560220507
0.0009586854359
0.0009604601923
0.0009625048511
0.0009656079718
0.0009679927498
0.000972126991
0.0009762192821
0.0009805743556
0.0009848145271
0.00099047693
0.0009976261496
0.00100545643
0.001014801496
0.001025630761
0.001033410996
0.001042968524
0.001057535891
0.001069050542
0.001080342098
0.001093197591
0.001103304395
0.001108858968
0.001115560526
0.001118927291
0.001118350603
0.001115886366
0.0009483439077
0.0009489597707
0.0009493549107
0.0009496947853
0.0009508269676
0.0009501586849
0.0009499650272
0.0009488325908
0.0009495309792
0.0009509328926
0.0009509002744
0.0009526017454
0.0009536659117
0.000954817107
0.0009552970108
0.000958391391
0.0009612361755
0.0009625029831
0.0009660865224
0.0009684766081
0.0009729864782
0.0009773631036
0.000983156393
0.0009879931972
0.0009928262534
0.001000137659
0.001007333017
0.001015517595
0.001024186908
0.001032155589
0.001043695969
0.001056561604
0.001067374478
0.001077062325
0.001087604726
0.00109604324
0.001104052529
0.001112181892
0.001114286544
0.001113546826
0.0009491439394
0.0009495451339
0.0009493818341
0.0009497855095
0.0009509140622
0.0009519038101
0.00095347148
0.0009535213545
0.0009539574915
0.0009536676975
0.0009536193607
0.0009534889751
0.0009557082662
0.0009561841455
0.0009577651745
0.0009572423568
0.0009582752342
0.0009612156047
0.0009645644942
0.000967876762
0.000970563734
0.0009738630114
0.000977241246
0.0009819448313
0.0009871089823
0.0009923038051
0.001000997898
0.001007504749
0.001013139637
0.001020203192
0.001031954064
0.001040472196
0.001052364754
0.001062604175
0.001073250904
0.001083259021
0.001091041557
0.001099771028
0.001103714395
0.00110740701
0.0009478798499
0.000948782261
0.0009495603484
0.0009499016638