/*--------------------------------*- C++ -*----------------------------------*\
| =========                 |                                                 |
| \\      /  F ield         | OpenFOAM: The Open Source CFD Toolbox           |
|  \\    /   O peration     | Version:  v1706                                 |
|   \\  /    A nd           | Web:      www.OpenFOAM.com                      |
|    \\/     M anipulation  |                                                 |
\*---------------------------------------------------------------------------*/
FoamFile
{
    version     2.0;
    format      ascii;
    class       scalarField;
    location    "5e-06/lagrangian/dsmc";
    object      ERot;
}
// * * * * * * * * * * * * * * * * * * * * * * * * * * * * * * * * * * * * * //


100000
(
2.370603319e-21
7.123655151e-21
1.209377929e-21
6.122632673e-22
7.411036749e-21
2.353374856e-21
3.39967378e-21
1.141403553e-20
3.258915202e-22
1.993180174e-21
3.655041037e-21
6.752236678e-21
6.995543617e-21
2.303721834e-21
4.041808561e-21
1.329412557e-21
2.532683093e-21
8.132366376e-21
7.744978937e-21
9.187417765e-22
1.213562891e-21
1.885075785e-20
2.118698693e-21
4.191963691e-21
1.291527339e-20
2.485897112e-21
7.460534752e-22
7.701430054e-22
1.266403022e-21
3.578073323e-21
2.067305398e-21
1.087888679e-20
1.625614982e-21
3.166345012e-21
4.980515356e-22
1.289393388e-20
2.477074486e-21
2.352592906e-21
9.745832871e-22
6.945234754e-22
1.881827819e-21
2.972574962e-22
1.329818715e-21
2.09576482e-21
9.085888362e-22
1.580449594e-21
5.009211491e-21
3.860032352e-21
5.59957286e-21
2.126458627e-20
4.051775109e-21
8.110874621e-22
2.759128598e-21
1.052854182e-21
6.774533233e-21
7.662311687e-21
4.996367967e-22
7.810094005e-21
1.261409062e-21
5.919186578e-21
5.939792479e-21
4.956547676e-21
5.371071867e-21
3.673646517e-21
7.673673671e-22
2.373789661e-21
1.37804558e-20
6.238516116e-21
7.45355906e-21
4.968520642e-21
4.811323774e-21
4.266566568e-22
1.215423814e-21
4.431849438e-21
1.351136642e-21
5.066124627e-22
1.022168361e-22
9.807157194e-21
2.330535342e-21
8.468692576e-22
3.288173766e-21
1.180189134e-21
7.356140371e-22
2.006848514e-21
6.083495805e-21
1.193496231e-21
4.783325775e-21
6.774127484e-21
8.486748572e-22
8.642679685e-22
4.956572681e-21
2.194626147e-21
2.941361039e-22
7.142649315e-21
8.577960129e-22
3.861384515e-21
9.93141516e-22
3.162538639e-21
1.905049469e-21
1.576387317e-21
7.333438618e-21
3.019449749e-21
1.203713478e-21
6.593069694e-22
6.552170224e-22
3.807524229e-21
4.336662358e-21
6.597389259e-21
6.48762905e-21
1.351326572e-20
6.14291529e-21
8.988470064e-22
9.407551787e-21
2.346646181e-21
2.118010586e-20
2.648679447e-23
7.887711353e-21
9.850239052e-22
2.991296968e-22
1.631228095e-21
6.650583365e-21
7.383119515e-22
6.836665605e-21
1.903524633e-21
5.755406212e-22
4.447662993e-21
4.44215026e-21
5.256586769e-21
6.086689687e-23
7.915629965e-22
7.155616283e-21
5.552658732e-24
2.629220788e-21
2.12452045e-21
7.686929783e-21
4.647570653e-21
1.453757253e-22
4.698671983e-21
2.186273409e-21
3.054622797e-21
4.018225248e-21
6.15494827e-21
1.82142161e-21
1.173667935e-20
1.122541781e-20
2.297485066e-21
3.788199002e-21
7.213072539e-21
5.883671492e-21
5.157296116e-21
4.777815167e-21
1.067172389e-20
5.675150872e-21
3.904227996e-21
1.751597915e-21
1.793249166e-21
3.234742685e-21
6.004274491e-21
8.667514035e-21
3.187786691e-21
1.452532568e-21
1.023212872e-20
3.369391681e-21
2.867383997e-21
1.793290367e-21
5.085932337e-21
1.805149432e-21
5.572002326e-21
6.24843257e-22
3.93406764e-22
5.960633192e-23
9.018022565e-22
3.404420236e-21
1.531488623e-21
1.973770787e-21
1.678002624e-21
4.273411282e-21
6.815695319e-21
6.623987784e-21
3.653598066e-24
8.056409968e-22
1.349978861e-21
1.952094559e-21
1.851104299e-20
2.177116686e-20
2.063455551e-21
1.099150309e-20
3.106965728e-21
3.447461964e-21
2.538066784e-21
2.529288001e-22
1.060979577e-21
1.559137523e-21
1.138064188e-20
1.664505452e-21
5.625083012e-21
6.280058918e-21
1.432179827e-21
6.77314397e-21
4.626090849e-21
2.644131527e-21
7.219452439e-21
1.215781036e-21
1.256715932e-21
3.719283292e-21
6.860258618e-21
2.767349604e-21
8.804851657e-21
5.51962916e-21
3.339413457e-22
1.681887225e-21
7.574443912e-21
8.235168429e-21
1.407941913e-20
6.169031984e-21
2.611935434e-21
7.740023851e-22
8.343200967e-21
4.426222216e-21
7.548621591e-21
1.715489714e-21
6.971971459e-22
2.561474899e-21
8.124318819e-21
1.048825636e-21
6.157930748e-21
1.811098046e-21
3.107275161e-21
1.825114946e-21
6.349260397e-21
8.376639042e-21
1.563566434e-21
1.22158858e-21
5.948390902e-21
3.122754316e-21
4.706071057e-23
7.272470016e-21
1.680595118e-22
5.412477302e-21
3.03883515e-21
2.958596993e-21
1.907352273e-21
2.385704104e-20
1.664885028e-21
2.117865396e-21
2.064532227e-21
2.286408179e-21
7.888985016e-22
5.873058769e-22
9.968611137e-22
3.791413015e-21
4.540910335e-21
8.716176195e-21
3.062984179e-22
4.20301891e-21
5.299714959e-23
1.073514372e-20
3.72773881e-21
1.270750727e-21
2.130022016e-20
9.708086227e-21
5.191306608e-21
5.147337762e-21
1.494314628e-21
4.594434405e-21
5.943468737e-22
1.956275929e-22
1.969066391e-21
5.094679058e-21
3.000383818e-21
7.181643272e-21
5.211390458e-21
6.39204294e-21
3.282783126e-21
6.451096459e-21
8.003084666e-21
5.074117069e-21
2.714331011e-22
7.039280877e-22
3.880887635e-21
7.004089527e-22
5.171581899e-21
9.631736905e-22
2.172072125e-22
1.342062564e-21
8.653959737e-22
1.620979071e-20
2.473643782e-21
9.377167702e-21
1.915394491e-20
5.741838079e-21
3.637306413e-21
1.813948091e-21
7.421902913e-23
5.151519541e-21
9.901008408e-22
3.976668677e-21
1.958600923e-21
2.492994198e-21
6.175700965e-22
9.149363214e-22
4.683754695e-21
1.869257273e-21
1.102387917e-21
1.201712212e-20
2.366742785e-21
2.211570727e-20
3.505545329e-21
9.232344186e-21
8.255895276e-22
3.161187851e-21
4.012671434e-21
1.456511695e-21
1.150271798e-20
2.466513892e-21
4.297606738e-21
1.583228121e-21
4.094252132e-21
3.425792842e-21
4.190055561e-22
4.043740978e-22
1.04367468e-21
1.370517849e-21
4.530432286e-21
2.65768261e-21
9.077745238e-22
1.344124327e-20
2.719074133e-22
3.289249294e-22
3.883783631e-21
9.55033995e-22
2.542436485e-21
3.382904717e-21
4.35027357e-21
2.842098045e-21
6.056961078e-21
1.182017837e-21
9.423775422e-21
5.812061666e-21
3.94971564e-21
9.947879436e-21
6.677824237e-21
5.3482071e-22
1.213002261e-21
1.463778293e-21
6.288308338e-21
5.839478621e-21
9.742155306e-22
2.038242745e-21
2.704232443e-21
2.033793365e-21
6.583095441e-21
9.947537588e-21
3.607087084e-21
1.438002923e-20
1.089324101e-21
1.659523104e-20
2.905054128e-22
3.695484561e-21
2.152828102e-20
6.039972169e-21
6.477194742e-21
1.579732595e-21
7.494223972e-21
1.912423997e-21
2.946068964e-21
1.646375078e-21
2.610505683e-21
4.242616877e-21
6.438751705e-21
3.287741292e-22
3.845984569e-21
2.290724333e-21
1.157234608e-20
8.230012319e-21
4.30384807e-21
5.756662822e-22
2.69165358e-21
1.217579094e-20
5.766568886e-21
2.259664112e-21
3.223958506e-21
3.18381076e-21
4.735107461e-21
8.408173585e-22
2.338577504e-21
1.058669797e-20
6.632605805e-23
5.538820334e-21
2.832503737e-21
2.044177551e-21
1.119192992e-21
4.918849963e-21
3.849227089e-21
1.834636055e-23
1.377824494e-21
1.341980398e-21
4.638345045e-21
1.496017854e-21
3.335725269e-22
1.554167496e-21
8.74733148e-22
1.552596175e-20
4.046598068e-22
5.999336021e-22
1.038544516e-21
2.191716968e-21
4.234651786e-21
3.464129812e-21
6.338577429e-21
3.235797545e-22
1.765709169e-20
1.588015081e-22
1.687371962e-20
3.045445058e-22
1.088991991e-21
2.948330159e-21
8.608500723e-23
1.008976951e-20
3.265837864e-22
9.543532021e-21
8.27032243e-22
2.178725178e-21
1.775485852e-22
1.162651321e-21
5.253364884e-21
9.93507236e-22
5.947718917e-21
2.044221597e-21
3.734780378e-21
6.163771165e-21
2.317384915e-21
3.278817455e-21
1.612119335e-20
2.034978914e-21
5.044530075e-21
3.989811646e-21
7.993161996e-21
5.659066579e-21
1.457667803e-21
1.809991013e-21
3.677242731e-21
2.096234184e-21
3.162060256e-21
2.109630492e-21
3.120631722e-21
4.780800589e-21
6.831876365e-22
9.971410628e-22
1.559060515e-21
2.557013156e-20
1.242947515e-21
1.141358419e-20
4.859184941e-22
3.637220152e-21
4.775446833e-21
2.647225067e-21
7.109830334e-21
7.712121293e-21
9.251248455e-21
2.095963982e-21
6.677790494e-22
4.157744145e-22
2.654182463e-21
1.319434056e-20
2.697414349e-21
5.900711476e-22
6.130706271e-22
1.927447822e-21
1.724293021e-21
5.091848609e-21
1.34703195e-20
7.069840554e-22
1.061149324e-20
5.597730818e-21
2.87825985e-21
1.690564596e-21
1.642522365e-20
3.933872955e-22
3.723095719e-21
1.613519739e-22
2.88223528e-21
2.06668124e-21
1.411479708e-21
1.1776687e-21
5.582942653e-21
4.281130314e-22
1.914723019e-21
1.851080808e-21
1.363156295e-21
6.231161998e-21
1.395352866e-23
1.267335976e-21
1.403651312e-21
9.81328127e-21
3.196593231e-21
5.249006204e-21
7.62341528e-22
1.462213981e-21
1.241753819e-22
2.232819883e-21
1.738034192e-21
1.313782109e-21
5.354542242e-23
1.181734985e-20
5.368484356e-21
1.980080311e-21
5.076116534e-21
1.649648682e-20
8.519872013e-22
2.091620611e-21
6.613462262e-21
1.575854416e-21
3.469207372e-21
1.583207021e-21
5.150095487e-22
2.254838989e-21
2.064456796e-21
2.426738182e-21
1.480087218e-22
1.52816598e-21
5.650511148e-21
2.198191574e-22
5.746044175e-21
2.502936162e-21
3.653502839e-21
4.273869161e-21
1.504576004e-20
3.067569005e-21
5.234275727e-21
6.615296381e-22
5.759071719e-21
6.438551693e-23
1.08639619e-20
1.577412498e-22
2.163984743e-20
2.999380508e-21
1.507780326e-20
3.312648461e-21
2.446430161e-21
1.562991516e-20
2.630937674e-21
1.648669782e-21
6.896172687e-21
1.11774579e-20
8.003163005e-22
2.154982817e-21
3.674020315e-21
1.031299989e-20
1.35226827e-21
1.149356959e-20
3.622655055e-21
7.296045246e-21
3.147282255e-21
2.759076405e-21
4.34342512e-21
2.691357542e-21
7.595433633e-21
6.513335087e-22
2.421448003e-21
8.266657661e-21
2.103580695e-21
8.278834965e-22
4.59679281e-21
3.842091161e-21
2.084106256e-20
5.796793106e-21
2.587835932e-21
2.087069273e-21
6.749282269e-21
2.176118992e-21
2.62354422e-21
1.68949948e-21
6.301904048e-21
7.141934003e-21
1.94251407e-21
2.101065513e-21
1.038943608e-20
2.260622736e-21
1.062990892e-21
7.142443827e-21
5.258889456e-21
1.563162179e-22
1.400643677e-20
1.777994717e-21
1.136073059e-20
1.452279735e-21
4.508810859e-21
1.384205092e-21
8.66343999e-21
2.989021824e-21
1.268809161e-21
1.029005506e-21
4.547082381e-21
4.485199579e-21
3.905965653e-21
1.408403422e-21
1.00085138e-21
2.214100789e-21
2.824311793e-21
4.970450497e-21
5.600238258e-21
6.176592679e-22
7.270557775e-21
7.08812869e-21
5.561838722e-21
5.297490754e-21
8.795260392e-21
4.719964099e-21
9.70593126e-21
2.525471822e-21
9.347470098e-21
4.844997201e-21
7.87745086e-22
3.551377248e-21
3.5081966e-21
1.548486325e-21
9.223000691e-22
4.744276195e-21
4.817327252e-21
4.344811491e-21
1.0386238e-20
4.898393564e-21
1.290051481e-23
3.623804479e-21
7.319485897e-21
8.820125685e-21
7.67626046e-21
5.13375904e-21
6.528578175e-22
6.642808674e-21
1.30161647e-21
9.531444328e-23
1.349529639e-20
3.019753722e-21
6.305752984e-21
4.580543269e-21
1.178221608e-21
2.066041304e-21
7.809677948e-22
1.275066621e-22
6.314602144e-21
1.179421479e-20
1.112235914e-20
1.180011513e-22
6.913993653e-22
1.793244743e-20
1.741949888e-21
1.512527768e-20
1.400417271e-21
3.320539111e-21
4.135111217e-21
2.427895289e-21
8.228413973e-21
1.64963614e-21
7.644335553e-21
4.334911145e-21
1.942886662e-21
8.768031788e-21
8.182500021e-23
6.960751187e-22
5.478702936e-21
3.159653782e-22
2.14706375e-21
1.21389646e-21
2.925320902e-21
2.197223834e-21
9.490616028e-22
6.186062857e-21
5.628891824e-21
3.434947621e-21
4.547179233e-21
8.20437093e-21
5.135829694e-21
9.261036563e-21
3.080521173e-21
3.547287822e-22
9.285840073e-21
4.943858842e-22
7.615349538e-21
3.44948293e-21
1.736137262e-21
1.341786883e-21
1.607351294e-20
3.818181045e-22
1.018729409e-21
9.143860685e-21
1.305169365e-22
1.345182377e-21
2.629956313e-21
7.208573734e-22
1.213769622e-21
2.802863462e-21
9.585883961e-22
1.309250664e-20
8.023373148e-21
4.61036689e-21
9.586898458e-21
1.63577274e-21
1.120751463e-21
8.514530219e-21
3.592870518e-22
6.137530893e-21
2.240454059e-21
1.215635946e-21
9.676627839e-22
5.940664166e-21
4.458081362e-21
9.908532563e-21
2.613372409e-21
2.223127182e-21
4.139919822e-21
2.914124654e-21
1.463358782e-22
1.55046969e-20
6.535267033e-22
2.163359251e-21
2.938048074e-21
7.880687149e-22
5.077735351e-21
2.161020605e-21
5.325781034e-21
4.942537043e-21
4.685666318e-21
1.162977772e-21
5.643383525e-21
7.798639444e-21
1.039635839e-20
9.777227926e-23
3.612915274e-21
1.395568576e-20
3.343461613e-21
1.054895535e-20
4.275650469e-22
4.069382904e-21
5.009454288e-21
9.057261223e-21
2.898353537e-21
4.478785174e-21
1.162680818e-21
1.759188762e-21
2.77022333e-21
2.93174667e-20
4.906395905e-21
1.168510596e-22
1.196381956e-21
1.382003857e-21
4.421433548e-22
5.668192487e-21
3.49487109e-21
5.717351007e-22
1.520532674e-20
5.721519586e-21
1.149866285e-21
2.371757116e-21
3.922275682e-23
5.123025053e-21
1.00780635e-20
5.530360018e-21
4.135914131e-22
6.308778091e-22
7.610448825e-21
1.269678699e-20
1.54647864e-21
3.399211205e-21
8.597681406e-22
7.065927945e-22
8.579677739e-21
1.325678521e-21
9.990608172e-21
5.920057066e-21
6.024143949e-21
2.589058835e-21
7.06823327e-22
3.107122776e-21
1.00035035e-20
6.750918009e-21
3.405184787e-22
1.958010681e-21
8.319860276e-21
9.291694011e-21
4.262118731e-21
1.112808063e-21
8.260537526e-22
2.933950071e-22
1.911915669e-21
2.082685914e-21
1.327425842e-20
3.387648666e-21
6.289073019e-21
7.083270055e-22
2.035482998e-21
9.574424076e-21
4.569403222e-22
8.347249437e-21
1.703916945e-21
2.815621155e-21
4.84933293e-21
2.187456679e-21
4.432412863e-21
4.709955006e-22
2.150287853e-22
3.270483883e-21
4.384437597e-22
1.910703677e-20
7.796801862e-22
1.018075054e-21
9.463396161e-21
2.780893936e-21
3.944322995e-21
6.549959315e-23
2.903924269e-21
1.171564817e-21
1.475884111e-21
5.205585434e-21
2.465230869e-21
3.381956504e-21
3.576328719e-21
6.480606029e-21
4.298341152e-21
5.100903371e-24
7.740727085e-21
5.742616883e-22
2.795887592e-21
5.131609998e-23
1.926085956e-21
4.326686631e-21
3.350142914e-21
7.359148934e-21
1.438844321e-21
1.699867577e-21
5.822208168e-21
1.494697024e-21
1.167845833e-21
2.104645387e-22
6.457794202e-22
4.591713124e-21
4.100402164e-21
2.188783644e-21
7.151214564e-21
3.538878965e-21
6.204405379e-21
4.791092493e-21
8.843496499e-21
1.714918478e-21
2.166953257e-22
3.783678823e-21
1.691424806e-21
8.29361479e-21
3.069901668e-22
1.099342397e-21
5.014836041e-21
1.855259435e-21
1.043740441e-20
3.794129476e-21
8.170468542e-22
7.970200843e-21
1.746066065e-21
2.865867968e-21
6.018701475e-22
5.767330374e-22
1.26603686e-20
1.106597695e-20
8.062701091e-21
9.011005895e-21
4.436249091e-21
1.274673276e-22
4.214973516e-21
5.226597027e-21
3.419302702e-21
8.825550036e-21
7.610738778e-21
2.525644364e-20
1.228545867e-21
7.695951236e-21
2.282938247e-21
3.394104309e-21
5.608467892e-21
7.027257972e-21
3.090706362e-21
1.231773977e-21
5.133588513e-21
6.994067281e-21
6.24161473e-21
1.785099816e-21
3.301160716e-21
1.243803176e-20
1.899780539e-21
1.304515961e-20
1.199399002e-21
4.940427902e-21
5.199984661e-21
1.268608369e-21
2.593275251e-21
1.181340425e-21
4.754134281e-22
4.491687606e-21
4.605670019e-21
4.273758751e-22
7.955199203e-21
6.884117549e-21
6.027007355e-22
1.420388305e-22
6.570584918e-21
1.085016235e-22
3.94763605e-24
2.129876449e-22
1.948266578e-21
3.691465805e-21
2.408870959e-22
5.447538909e-21
4.043759455e-21
2.957734158e-21
1.661795647e-22
3.956474493e-21
3.754680713e-21
7.55600711e-23
2.884148164e-23
6.006147897e-21
3.55916126e-21
3.299846691e-22
1.856184877e-21
5.515987241e-21
5.459848685e-22
4.605006051e-21
1.366532258e-22
8.620301986e-22
1.052580892e-21
1.326415192e-21
1.083457298e-21
9.114021237e-22
1.002594812e-20
4.536210218e-21
9.756852822e-21
1.375555606e-20
4.749084978e-21
1.552109596e-23
2.786774272e-21
1.275390532e-22
1.842057999e-21
7.879059519e-22
6.667984267e-21
6.109356481e-22
3.013394192e-21
8.676907818e-21
2.202849954e-21
6.639760969e-22
7.772272551e-21
5.872669901e-21
4.406029848e-21
9.397603919e-21
5.245738474e-22
1.027434211e-20
4.251002666e-21
1.562459417e-20
1.244574734e-20
1.111625236e-21
3.828419651e-21
3.776676511e-21
2.173354226e-21
1.895362548e-21
9.267410346e-21
4.669693007e-22
1.055942205e-20
1.643044663e-21
1.325469123e-20
1.144195044e-20
7.389045904e-22
7.746293528e-21
2.696670698e-21
3.063009655e-21
3.84202907e-21
1.899057068e-21
9.219428089e-21
6.023909498e-21
3.14226203e-21
3.949123701e-23
6.225335343e-21
1.084956272e-20
3.533588123e-21
1.19741247e-21
2.402531324e-22
5.121566128e-22
3.479555572e-21
3.846200245e-21
2.681178352e-21
2.170248609e-21
9.769965087e-21
7.466261459e-23
7.923613095e-21
5.084556575e-21
4.202682458e-21
2.885026148e-21
5.442994886e-21
1.827086504e-20
9.922306337e-23
1.235949782e-20
5.601286302e-22
2.423653503e-21
2.535280416e-21
1.17427626e-21
1.582649995e-21
9.805985327e-22
1.629765089e-20
5.166761271e-21
2.455329416e-21
4.147684085e-21
1.238567905e-20
2.350064517e-21
7.821182014e-21
7.29720326e-21
2.772505671e-22
1.430952196e-21
4.213915848e-21
8.786262704e-23
6.317722522e-21
3.506859282e-21
3.344374295e-21
4.820871687e-21
2.566837838e-22
5.235845245e-21
5.48123508e-23
4.274545205e-22
6.429274787e-22
1.032605663e-21
2.625163357e-21
4.40193767e-21
1.30603314e-21
5.267551547e-21
2.861897993e-21
1.693456104e-21
2.249566286e-21
9.633995804e-22
1.694053651e-21
1.219654824e-21
2.589749978e-21
1.323316436e-20
9.567721463e-21
1.522268132e-20
7.501720334e-21
5.517202738e-21
1.44870455e-22
2.046836174e-21
9.443057654e-22
1.47371068e-20
1.160144389e-22
2.973963723e-21
2.20191453e-21
3.810024385e-22
1.184042079e-21
4.094309791e-21
1.616902669e-21
1.128823134e-20
2.567610054e-21
9.122528277e-22
5.962040472e-21
2.76601471e-21
1.816930909e-21
1.27239404e-21
2.314124659e-21
5.28708316e-21
4.850806081e-21
1.116317488e-21
2.012446506e-21
3.850593713e-21
4.436776973e-21
2.20110166e-21
6.377976552e-21
2.014699626e-21
4.799004622e-21
2.020300111e-22
7.005139141e-21
5.173764174e-23
1.849348371e-21
7.084866345e-22
1.167015238e-20
1.519197434e-21
3.773865842e-21
4.144123025e-21
1.300428376e-21
4.416489228e-21
4.917277127e-22
3.753862619e-21
5.08254753e-21
1.002212576e-21
1.198585481e-23
1.650604337e-21
2.195810072e-22
2.760519861e-21
7.229409222e-21
4.509133245e-21
9.221771862e-21
1.303444183e-20
2.215955184e-21
1.564411198e-20
3.685150662e-21
1.717097552e-21
2.375891675e-21
6.387834149e-21
1.218283675e-20
3.551984672e-21
2.211912681e-21
6.950600706e-21
1.705078862e-20
1.823319871e-21
1.430273307e-21
2.488796479e-21
6.609994696e-22
6.66872056e-21
2.384483401e-21
8.299639952e-22
8.608820163e-21
1.049472269e-20
1.930232616e-21
2.860855592e-21
1.919122233e-21
3.321174978e-21
1.624057075e-20
1.486370092e-21
6.627024541e-22
2.730209314e-21
1.024520201e-20
2.188763399e-22
7.848000427e-22
3.889872734e-21
7.014743659e-22
5.999659704e-22
9.158571773e-22
4.526853446e-21
4.210721398e-21
2.62522869e-21
2.261160116e-21
9.918096175e-21
2.014425725e-20
4.515783517e-21
6.203311198e-21
1.101962721e-21
5.435298064e-21
4.93218664e-22
3.241792042e-21
6.282939257e-21
2.244485143e-21
2.841356125e-21
1.231533408e-20
2.131417037e-21
7.865592298e-21
3.075250695e-21
5.487271671e-25
3.982554766e-21
3.273544582e-21
6.951780018e-21
1.426566929e-21
7.576192648e-21
4.062632871e-21
1.019656895e-20
1.521666363e-21
2.405343612e-21
3.764031691e-21
1.232759428e-21
2.50017493e-21
7.449830416e-21
2.617366986e-21
4.505761606e-22
8.900102356e-21
2.722538275e-21
1.391487191e-21
3.953522196e-21
5.766511296e-21
1.139458351e-20
1.668001227e-21
2.571393321e-21
1.742026788e-21
1.332107075e-21
5.988982404e-21
1.55941552e-21
3.376286796e-21
3.362140315e-21
7.376232032e-23
6.932891555e-22
1.283516625e-20
7.317886831e-21
7.091760696e-21
4.324648639e-21
7.207461768e-21
1.517386986e-20
7.247094995e-22
2.160348467e-21
1.159681009e-21
2.146023846e-21
1.895258825e-21
1.168831297e-20
5.223163124e-21
3.434513459e-22
8.304729104e-22
3.457395444e-21
4.042562376e-21
4.57806203e-22
1.037887755e-21
1.607372858e-20
3.049886095e-21
2.180393659e-21
2.876921041e-22
2.516267632e-22
1.00332363e-21
1.124190494e-21
1.131861342e-21
2.762426633e-21
9.435992828e-22
2.863945469e-21
1.248256107e-21
6.295531563e-22
9.286644351e-23
6.806879873e-21
4.099748641e-21
6.204268523e-21
4.837769127e-21
7.539144574e-21
1.225398451e-21
1.532560903e-20
1.793137532e-20
5.820350763e-21
3.293415655e-21
8.469493843e-21
4.265275662e-21
1.407094638e-21
1.86652063e-21
1.061862577e-21
7.719620045e-21
3.821029329e-22
1.029560984e-20
1.714796234e-21
3.674898982e-21
4.201339645e-21
5.304107302e-22
5.299289522e-21
6.005741507e-22
3.956421317e-21
3.862725598e-22
1.076468048e-20
2.87978331e-21
5.784958249e-21
4.645410998e-21
2.324505731e-21
7.601147184e-21
1.029778456e-20
4.324657682e-21
3.364018524e-22
5.398627117e-21
4.461424534e-23
5.04674693e-21
1.605394207e-22
2.62457885e-21
3.777763446e-21
8.454756691e-22
6.088201392e-21
8.435386093e-21
2.260869619e-21
1.440314565e-21
4.518647805e-21
8.411522088e-22
1.441506465e-21
3.538213052e-22
5.969116215e-22
1.294402714e-22
6.162723228e-21
8.955639618e-22
8.040770718e-21
7.068612846e-22
5.715849369e-21
4.93477e-21
6.093428479e-21
2.612491349e-21
3.777508859e-21
1.211109113e-20
1.129326589e-21
2.96323276e-21
3.276459622e-21
1.084536722e-21
2.408877997e-20
4.167726711e-21
5.145579628e-21
1.099618121e-21
2.334202191e-21
7.974121252e-21
3.662290638e-21
3.373776127e-21
3.72723481e-21
4.939131795e-21
1.048871465e-20
2.572680115e-22
1.770103711e-21
3.396189096e-23
7.457972202e-23
2.699031539e-21
6.175107623e-22
3.942391498e-21
6.363249926e-21
3.321574511e-21
3.491408186e-21
1.44396964e-21
7.802280556e-21
2.062417721e-21
3.463497457e-21
2.613110402e-21
7.787952493e-24
3.326747503e-22
2.477521252e-21
3.052425263e-21
2.623097253e-21
6.829924185e-21
3.412825464e-21
2.462576736e-21
1.107671112e-20
1.948240504e-21
7.198222468e-21
1.087380812e-21
2.60714603e-21
1.844809652e-21
2.43073956e-21
1.130774269e-21
6.626492339e-21
1.706906072e-21
4.489547978e-21
9.302362026e-21
2.201056526e-22
2.534871189e-21
6.846556645e-21
3.597661796e-22
7.646878202e-22
5.533411801e-21
4.44687365e-21
1.780907396e-21
5.963314513e-22
1.922533679e-22
7.169669137e-21
1.654950014e-21
9.64809099e-22
1.582904685e-21
1.484605261e-21
8.826411318e-22
2.046980184e-21
7.088155831e-22
1.593625459e-20
6.719982241e-21
6.974916323e-23
2.840030787e-21
3.257103282e-21
5.942532996e-22
5.050033551e-21
6.071082046e-21
1.761117814e-22
1.15914391e-21
1.270030625e-21
3.803658495e-21
2.269402306e-21
3.03536219e-21
1.818500827e-21
4.433918968e-21
1.737674163e-21
1.075949354e-21
1.734455374e-21
5.339164273e-21
1.268651563e-20
1.155311865e-21
9.428194449e-21
2.007755767e-21
5.05466725e-21
1.840642372e-20
9.065431288e-21
2.023285261e-21
2.117124991e-20
3.044936863e-22
3.119043531e-21
2.112548042e-21
1.593524242e-20
2.82393858e-22
2.281676114e-21
4.54443713e-21
3.286841039e-21
2.398773513e-21
3.334840984e-21
5.996090131e-21
6.757157379e-21
2.183285237e-21
2.087233715e-21
1.137159311e-20
6.842098013e-22
4.050033919e-23
1.039078523e-20
9.686838736e-21
3.134067117e-22
9.980121046e-21
5.620379153e-21
6.828326049e-22
7.532444354e-21
5.238060018e-22
1.870195575e-21
9.676888206e-22
2.999473231e-21
1.460402368e-22
5.566434864e-21
1.400691375e-20
1.061603684e-21
3.375360361e-22
8.072555228e-21
4.444739585e-21
1.35232945e-21
7.217933275e-22
6.932632263e-22
3.913938224e-21
2.011042953e-21
1.365773327e-21
7.203228529e-21
3.703531801e-21
9.891469408e-23
5.209811767e-21
9.46560391e-21
9.87861586e-21
1.715434518e-21
5.369890576e-22
8.412525889e-21
5.109692841e-21
1.517003775e-22
3.390102602e-21
7.22364887e-21
6.640902532e-22
2.187622815e-21
3.06900048e-21
2.604672746e-21
3.515087827e-21
1.285468619e-21
1.140880665e-20
3.251615516e-21
4.850420831e-21
7.711894692e-21
7.450764787e-21
2.378764043e-21
7.94852686e-21
1.22163139e-22
5.921956813e-21
2.856198461e-21
5.335591227e-21
6.601429446e-21
5.187928743e-22
4.135403229e-21
9.891399851e-23
4.990837323e-22
7.272050004e-22
3.336442464e-21
7.194046154e-22
1.863818036e-20
1.828376307e-22
6.481857555e-21
3.491830444e-22
3.01257297e-21
6.753527177e-22
1.888135313e-22
3.93762987e-22
5.386913786e-21
5.6611548e-21
1.500032267e-22
4.391773284e-21
1.388329011e-21
1.935534052e-21
9.394790531e-21
3.860270828e-21
9.53593865e-21
3.828250201e-21
2.161304221e-21
4.023844959e-21
7.498525299e-21
1.662736692e-21
1.262715724e-20
7.362525526e-22
3.216895933e-21
2.679139355e-21
8.206630484e-22
6.664939031e-21
4.090514964e-21
5.917216788e-21
3.808750815e-21
4.557343007e-21
2.027224101e-21
1.65756855e-20
4.229857965e-21
1.532038984e-21
2.989646241e-21
5.745375981e-22
1.667669415e-22
8.472799813e-22
2.389872562e-21
9.440015461e-21
1.198151866e-20
1.716636556e-21
3.388321873e-21
1.791816174e-21
8.959953345e-21
4.183482738e-21
7.149433932e-21
5.546036059e-21
5.774465998e-21
1.701541011e-21
1.404357957e-20
7.842149761e-23
5.823407702e-21
7.547443104e-22
1.699752331e-21
2.153954807e-21
3.367462096e-21
6.070111616e-21
8.770016997e-22
2.104738908e-21
1.316910528e-21
5.577298556e-21
5.572030457e-21
3.415457866e-21
3.244769341e-21
3.303350305e-21
6.186498209e-22
2.65421201e-21
2.679631689e-21
2.431430798e-21
8.404529678e-22
6.381443038e-21
4.933912967e-21
1.31582127e-20
3.837725646e-21
2.059772021e-22
1.020462392e-23
1.86751604e-21
4.171931512e-21
6.194824543e-21
2.84460056e-21
4.150408848e-22
2.380744399e-21
1.742173016e-21
1.03692901e-22
4.80615253e-21
6.08347883e-21
2.64329567e-22
6.857767944e-21
3.234491599e-21
6.139027776e-21
1.938408314e-21
2.896406215e-22
2.678792163e-21
1.638929821e-21
4.425558366e-21
2.073287934e-20
4.353610521e-21
4.444025091e-22
1.766030899e-20
5.178646588e-21
2.376897057e-21
2.509138311e-21
3.717987419e-22
2.492426425e-21
1.560051975e-23
8.878338376e-21
3.15429257e-21
1.378879955e-20
3.524478234e-22
1.173167552e-21
2.206884615e-22
2.502245066e-22
4.055960575e-21
1.114592246e-21
6.460682989e-23
5.589251441e-22
3.993318691e-21
5.757787435e-21
2.981087952e-21
3.399781435e-21
7.423541771e-22
5.345065768e-21
1.730614099e-22
2.234813369e-21
1.154972772e-21
1.375620064e-21
3.482058756e-21
1.523218431e-21
7.665511131e-22
1.238487673e-21
1.213944109e-20
1.340878535e-21
9.78025387e-22
3.103588311e-21
5.271896797e-21
3.952306011e-21
2.789281791e-21
2.028063911e-22
3.114021495e-21
1.377327728e-21
3.296097758e-21
6.265374318e-22
2.902413348e-21
3.737595263e-21
3.124119918e-21
3.607744621e-22
2.753218971e-21
3.92495254e-21
3.807676184e-21
6.198192822e-22
9.037037188e-21
1.950164986e-21
2.942659823e-21
3.704487618e-21
7.186637367e-21
1.584245483e-21
9.727150155e-22
8.349987901e-22
9.311807793e-23
3.507689657e-21
2.241336398e-22
2.331748301e-22
3.706311783e-21
7.529445069e-21
1.237120102e-21
1.900060321e-21
1.298870816e-20
2.992842099e-22
3.223907387e-22
1.941857209e-21
2.951877762e-21
1.543574907e-21
5.995740928e-22
6.388223904e-21
1.451206065e-21
1.071573409e-20
1.429967356e-20
1.971162327e-21
2.458055315e-21
1.370343624e-20
6.293258021e-21
1.570381886e-21
7.260944939e-21
2.844918922e-21
1.773047349e-22
4.05260892e-21
6.080841426e-21
7.638566756e-21
9.925616512e-21
2.615009062e-21
6.299536328e-21
1.748696235e-21
6.70076967e-22
1.254085679e-20
4.194308441e-22
2.017378841e-21
1.199206365e-20
3.954958699e-22
6.5973581e-21
9.463650244e-22
3.975245049e-21
1.131416802e-20
2.299789898e-21
2.239686247e-21
1.280702918e-21
3.41340057e-21
2.140596255e-22
1.021924568e-20
9.12406577e-21
1.454165699e-21
1.731573181e-21
5.578820729e-21
1.681599665e-23
3.387578391e-22
9.269571657e-22
9.029371567e-21
4.184100595e-21
3.078068369e-21
3.003362703e-21
5.537382694e-21
3.774513687e-22
1.448303889e-22
1.718657045e-22
5.25562577e-21
3.450085092e-21
2.519135544e-22
5.299109935e-22
2.093531082e-20
9.584821148e-21
6.304642099e-21
1.736189177e-22
3.728209142e-21
7.302802486e-21
4.00442102e-22
1.190320258e-21
8.814660329e-22
4.548693452e-21
2.357845902e-23
2.5281451e-22
2.162818431e-22
6.884805041e-22
2.169310705e-21
1.907356629e-22
4.142877222e-21
8.843173724e-21
7.284375593e-22
2.419081618e-21
4.709386591e-21
7.319704866e-21
2.245756151e-20
2.978846813e-21
9.815661864e-22
9.001533326e-21
1.0151574e-20
1.487806945e-21
9.276653009e-21
9.581742698e-22
1.349314863e-21
3.085757437e-21
1.563361893e-21
6.112944635e-22
3.047912074e-21
8.403183283e-22
2.278417405e-21
1.863529478e-21
1.053643461e-21
5.670467596e-21
1.044100337e-20
1.660246015e-22
7.225861829e-21
3.086555941e-21
2.818816514e-21
5.45085652e-21
1.337079856e-21
5.363181479e-21
7.217474233e-21
1.886654994e-22
3.147664373e-21
3.625075347e-22
4.214913464e-21
5.293147522e-21
1.104430463e-21
2.690740046e-21
2.579012126e-21
2.758033332e-21
4.798509328e-21
5.009391219e-21
3.775964925e-21
2.344317371e-21
1.73402152e-21
3.830956631e-21
2.70938325e-21
1.477037445e-20
9.581591281e-22
3.058718202e-21
1.267923929e-20
3.374708969e-21
4.769033282e-21
3.421868669e-22
1.115391942e-22
4.872407359e-21
6.85271229e-21
5.424279112e-21
3.897879179e-21
1.920348391e-21
3.673568473e-21
3.968108536e-21
6.310042619e-21
4.523181914e-21
4.279004954e-22
6.654193871e-21
2.706071699e-21
7.403671186e-22
2.262728893e-22
1.606717314e-21
5.374903292e-21
4.467255229e-21
1.322427117e-20
2.080951802e-21
8.339203673e-21
8.837768775e-21
3.97780918e-22
1.222205821e-21
2.922326714e-21
2.439371747e-21
4.313843815e-21
7.711229772e-21
3.375748067e-22
5.217024608e-21
2.940594791e-21
3.520981995e-22
2.837755905e-21
1.14251566e-21
2.924490226e-21
3.35726633e-22
1.346766681e-21
1.965376508e-22
3.357485609e-21
2.032155689e-22
1.509693703e-21
7.396090921e-21
2.384446384e-21
2.556178272e-21
1.255671474e-20
1.162757005e-22
4.525855714e-21
1.56887435e-20
3.40371471e-21
1.362722102e-21
3.844595661e-21
7.38445902e-21
1.072284544e-21
1.159063415e-20
7.605010251e-21
5.986671507e-21
3.045777847e-22
5.7747175e-21
6.282847752e-22
8.840697589e-21
6.904107599e-22
7.563144784e-22
4.35515174e-21
2.430586059e-21
2.956323004e-22
2.70473863e-21
6.384211244e-21
2.715656893e-21
1.940170718e-21
1.807095262e-21
3.861926619e-21
3.704868513e-21
4.586730862e-21
8.929650044e-21
3.195452962e-21
1.196910291e-22
4.798717704e-21
7.611882976e-21
9.87168156e-22
1.681164426e-21
3.199420947e-22
4.880627075e-21
6.588452396e-22
2.043674593e-22