/*--------------------------------*- C++ -*----------------------------------*\
| =========                 |                                                 |
| \\      /  F ield         | OpenFOAM: The Open Source CFD Toolbox           |
|  \\    /   O peration     | Version:  v1706                                 |
|   \\  /    A nd           | Web:      www.OpenFOAM.com                      |
|    \\/     M anipulation  |                                                 |
\*---------------------------------------------------------------------------*/
FoamFile
{
    version     2.0;
    format      ascii;
    class       vectorField;
    location    "5e-06/lagrangian/dsmc";
    object      U;
}
// * * * * * * * * * * * * * * * * * * * * * * * * * * * * * * * * * * * * * //


100000
(
(176.9246058 -294.490589 75.3901706)
(-431.7623656 -206.5250681 58.36354806)
(52.65898935 234.9479397 584.4956231)
(-101.4540064 261.901289 -69.35913654)
(-136.9245203 247.4201037 -76.4893104)
(-438.6205034 -203.717988 457.4438849)
(73.81758059 59.52192205 724.8650681)
(778.956749 -277.8292513 -135.3640686)
(-144.4040522 -145.3131516 474.4158559)
(15.00417374 -696.6567453 -612.5543469)
(66.0235604 416.4040605 -153.993678)
(-709.0703609 -270.7399034 -139.1337049)
(-312.9050286 81.64331643 -76.19807796)
(371.7497014 197.4958431 -132.4983692)
(-131.7796843 -202.7772734 -17.69720616)
(69.57968626 469.7302045 786.8168627)
(592.9264162 99.367077 762.9407778)
(-203.8805022 -345.9718967 61.27349455)
(-361.6545398 -139.4067302 214.5345254)
(53.39731715 211.118319 281.2792893)
(693.2691928 -422.1257707 -57.57674688)
(-126.8646061 -207.9552702 -308.0430753)
(30.22026854 -50.59037819 -239.1994016)
(662.7863362 -209.493313 83.71457229)
(140.9853233 331.2844756 211.8667183)
(-388.4712854 116.2574272 102.1640565)
(500.6894575 441.87375 -137.0427092)
(-424.7927644 -129.8062551 -37.21250858)
(-132.0420612 320.7294314 -221.5436715)
(102.9605003 -525.2956997 413.5363834)
(-307.4504979 -68.3769258 -318.0546312)
(-338.0753636 309.2250147 -198.7601339)
(152.4634424 -183.613569 247.4444022)
(399.1787478 37.83044996 280.5770166)
(143.1840888 -597.8459864 -337.3926101)
(393.9935318 235.9700591 60.96184806)
(-98.74604217 104.4424311 12.99415905)
(-111.3123848 -225.3718423 -386.6278328)
(324.6287138 -93.39828798 -165.7664349)
(248.2512044 135.0803614 172.6767136)
(352.3069937 3.318093823 -507.0498657)
(428.9776198 -24.82133504 239.1726882)
(-45.54658626 -215.3050872 -166.4415558)
(-360.950356 85.41223423 -690.3609734)
(-200.8367437 240.314629 -727.9594651)
(142.3909092 509.9840862 131.6221659)
(-410.0925483 699.2885705 -18.84996772)
(-48.34898703 347.3709912 467.2832176)
(-78.21451776 -251.67443 -118.8797307)
(268.3375309 120.0440471 -227.150612)
(-241.3730653 -141.9854013 100.24417)
(-114.8511595 -84.04851858 18.75638718)
(600.527826 -119.252129 -139.7011525)
(371.9775222 -255.8483029 -45.1578727)
(78.41963903 -262.7270466 -313.1094126)
(-126.0246506 38.56603372 97.38659422)
(-433.5257802 -227.1413336 -715.1219162)
(83.8940256 -385.0999317 189.1554726)
(-68.11376269 313.0080102 -487.434355)
(165.2366606 -108.2115534 516.9734282)
(-90.41688069 243.5217809 -167.195016)
(320.5400945 216.7255299 85.88849408)
(-171.2004358 104.5900843 586.3279257)
(368.6423269 109.5422444 -203.0573374)
(48.42368728 40.53530903 -11.00839344)
(211.0611357 -147.3881986 -316.0455802)
(343.7453532 141.3731958 -529.4891095)
(9.693665022 290.6680238 -398.8776227)
(36.08623457 -329.3041738 -119.453517)
(-260.9798314 307.302654 -476.298284)
(-418.0389337 -243.7550729 -38.60219435)
(318.4486903 220.7704897 50.59374555)
(-167.5930377 -67.70459587 -79.25560626)
(270.1455457 158.3370973 336.2576687)
(-62.67178472 269.6209474 -234.2040489)
(507.3534297 350.6677506 82.28471794)
(615.0395889 34.96162296 -501.8557391)
(-147.9614003 277.5476759 472.0512701)
(-171.6545923 -454.8727326 -257.3286158)
(653.5237387 -19.82611304 -297.3230161)
(-69.75033118 -18.11878386 117.418425)
(-412.0760332 -206.707981 -139.6209287)
(245.3329044 -478.3288045 705.3284328)
(-691.5732141 1.077120162 617.1276711)
(-281.7074692 468.5065666 -62.00377192)
(-144.1765026 -102.1307088 351.9768604)
(-440.0478193 -219.5505483 -242.155307)
(-453.7072248 433.6821365 100.8531899)
(-490.2869206 264.7410725 -96.75547179)
(-78.22072317 127.6844835 -103.2451117)
(-49.80088268 -66.29279217 -62.71663582)
(-68.84846028 69.83834116 -1312.413042)
(-20.56633356 -314.8260257 112.7028526)
(28.26014166 62.45901337 292.184533)
(262.7508298 20.32677803 54.67238133)
(-127.6125672 169.7311697 -133.0414687)
(-33.44308897 -521.9175457 -264.9754113)
(-149.0370409 -151.4693427 -731.9321066)
(270.4087591 -219.534039 -158.4289139)
(338.9831186 15.60187074 -50.04892072)
(-59.47852353 312.4417639 -428.2824007)
(-192.0127978 -140.5960601 40.06827008)
(321.8776702 364.9207882 80.84564464)
(238.6922523 -24.53430782 -125.1762127)
(-470.043314 -174.2948264 -289.4527603)
(-86.29576906 327.389936 133.8805195)
(-149.8495273 -349.6913353 450.107027)
(-744.6792678 -44.98587489 534.2136595)
(443.5355947 -88.39812162 -251.0802153)
(-407.2690153 501.0971821 535.7812443)
(-771.2911637 121.9259915 50.02632665)
(47.57335358 -146.880019 -453.9348311)
(-21.51286284 -955.6368087 -160.4328706)
(-422.9170135 16.92751795 244.9142083)
(128.5808718 458.3605809 -199.5927794)
(223.2943374 -105.1487359 -240.0048088)
(31.30551472 282.1813386 156.6095706)
(-129.263196 359.0851685 -193.9031992)
(37.47840023 57.78660237 -161.979206)
(277.0797438 -223.8790741 408.2524788)
(84.9386222 -307.7519017 65.59422068)
(314.8392889 101.707784 227.3166027)
(-41.07302659 -161.1230275 130.754424)
(15.40007555 -293.0460294 -462.9025335)
(161.1084102 189.2524856 498.4488162)
(243.1228078 -180.486762 -376.620726)
(-98.69272532 152.2313055 -53.29717871)
(-0.362035728 137.8616752 212.450221)
(-310.4889836 432.1004901 -280.4775609)
(201.4497162 52.06306748 -150.4540692)
(3.277421951 173.5113411 446.2152879)
(-40.14653981 -95.11568771 231.0853986)
(49.53067536 433.4291979 -79.51101127)
(-140.6368025 -161.6257537 301.4203185)
(109.1808693 -21.02862783 -43.02665323)
(332.6049058 46.83063824 58.7356081)
(-223.3766783 -18.82644697 430.4673723)
(-103.9258966 -333.3654175 167.3951981)
(340.7587209 -80.80598489 -479.2305733)
(173.1542934 -54.22441154 104.8642627)
(176.2338332 -19.61067878 -167.5445947)
(-147.4780773 22.40061618 165.3732286)
(245.4353475 -95.45817862 -171.246638)
(-128.5027036 -253.4182131 -39.80641066)
(-266.053712 -251.4426601 -650.4712329)
(86.28702534 -95.69598118 175.8787312)
(341.8187581 159.2547395 460.3127036)
(310.9853357 71.16799911 -268.4042564)
(533.2559605 -13.63593241 447.5305221)
(402.7615054 4.000410334 447.106359)
(-67.11380714 -142.8343129 154.3743982)
(-309.7244104 81.73758744 324.9123177)
(-59.78411044 -29.87543097 -344.293678)
(410.2427603 225.1576383 -448.1914732)
(354.4575409 -52.79217683 149.9727056)
(-275.4833722 499.033339 172.4320792)
(-138.1728218 396.9038473 -473.4215618)
(-317.3521415 155.7624167 110.422672)
(-32.44997282 248.0086473 186.1441102)
(-0.8859452193 2.521451915 -35.04581221)
(-138.1615134 323.1850952 -418.8345774)
(87.8507033 256.403505 -91.07134248)
(85.23830757 221.2175667 121.281849)
(-91.54578566 279.6747965 -90.89089842)
(463.6818327 -29.55161044 230.1746223)
(607.0498499 -6.376161762 -25.10708259)
(137.4852751 278.2010298 -141.6196305)
(324.1603214 182.2336457 -115.4098837)
(138.4733009 -8.966207337 -263.9890121)
(-50.52832651 179.5286301 -100.1112273)
(162.0210737 -236.4796903 -266.6368504)
(-61.01860927 253.2929496 -179.3616497)
(-408.3067885 68.31750973 497.4013028)
(903.4576275 66.68422374 357.7743332)
(-117.3300688 -485.6940012 158.199124)
(220.5783938 -32.61472966 -277.9256802)
(261.0539447 -538.6704838 -178.8114385)
(129.2002672 -442.4230057 -194.8922518)
(453.2204001 11.22101394 -525.7214502)
(-266.4002421 103.9262945 240.9161502)
(54.82292071 684.0081228 136.3731381)
(254.2884905 262.1044964 -612.9068256)
(-67.51661241 -226.9773666 -9.80830053)
(64.55708742 305.5105838 -103.5490547)
(-385.6813814 86.36791454 42.44156983)
(-649.6377482 -77.12897815 -117.7811322)
(31.64381944 87.29596631 -273.9939766)
(40.67301193 346.7245786 -14.21689259)
(233.1487461 -209.6893442 -469.8297384)
(-87.07470097 114.8226273 -72.01295754)
(-233.3898871 88.30946582 -5.749971913)
(61.88707049 -192.6235822 64.59331617)
(199.7494136 -5.958874148 122.3093116)
(-314.0696163 41.95781868 -179.213891)
(19.87110808 479.288235 -157.3163222)
(370.1655174 -314.1009908 647.8083412)
(4.221296646 118.6911537 283.6888979)
(211.3055903 168.4296619 -338.8015102)
(-43.84247347 -89.33248061 -106.0500928)
(381.4366694 6.985064158 -96.14729349)
(478.0020603 367.5616704 194.2622816)
(-222.1465424 86.93693237 -239.6261485)
(409.4851186 274.4002432 -42.78559913)
(91.00371537 211.0942989 338.1593345)
(162.4490788 958.3513791 -170.0428736)
(65.00050928 371.8838411 126.1860732)
(-213.8165611 -588.3069307 -157.2398963)
(-890.8648292 164.6790925 -497.5573397)
(-126.7537009 -631.8685164 -31.5889814)
(-59.25876767 -180.7007572 57.3015292)
(391.5191745 -177.1278306 -206.858919)
(194.5199199 320.6015884 -112.0252304)
(143.7936183 -374.8711281 -567.3749521)
(31.92752083 -139.2980964 -117.1562362)
(-124.9637018 -473.7393819 20.43831279)
(513.2639705 -448.4649743 175.4789477)
(-432.3451198 445.2014642 296.6844948)
(-199.9826518 229.9930566 617.3216081)
(477.2961947 -251.6212436 95.0469345)
(267.4501008 -263.7965159 -135.3463581)
(279.5380757 -403.2381141 -34.79379993)
(-316.8180928 165.4054189 -38.89675721)
(74.20343692 -366.5753429 284.8897832)
(354.9278695 -178.7278714 -449.3081388)
(199.5523764 -7.747122879 -453.6771491)
(-51.83934398 -309.4964416 76.08488792)
(278.4163818 473.6520532 -398.7067789)
(211.9433603 165.6796789 -176.2856372)
(-139.0523221 -398.1043711 239.7346504)
(589.3303748 176.592711 -183.7506625)
(-214.384447 476.2588922 -608.9004285)
(50.21753569 -245.8763155 -721.6309989)
(-187.8440065 134.8256785 -38.39004141)
(87.7259726 18.88636924 43.63980395)
(-379.1418931 30.03818301 56.33234347)
(-241.3317495 -38.0414065 77.36832487)
(-187.0408483 -126.9691767 -234.7253673)
(140.1227566 140.4071014 285.0772854)
(406.0768717 -12.1805136 -65.2079594)
(-395.6966934 192.5099572 62.75589015)
(-73.30926764 -268.0329091 220.7855914)
(50.87005359 -502.8795065 -294.0488724)
(148.8863657 266.7072203 -71.39739342)
(-273.2347621 222.8449299 203.9396014)
(-498.6362348 -44.41954104 -4.707328209)
(569.2388891 228.9745268 282.657866)
(-409.7196867 -370.7078709 -54.04238064)
(-8.857279553 -19.99814169 225.8112507)
(306.2568827 77.85717926 -218.1265333)
(-471.1422002 -25.64652732 471.9962292)
(-240.8334418 -105.5719452 123.1414779)
(410.3566482 -357.3613534 -200.0075515)
(507.9591059 53.75824399 -117.9369223)
(-88.84841624 808.0697395 154.8640221)
(113.7505097 206.1584964 -103.6498375)
(-51.84367124 120.8563514 266.6405599)
(-493.4490402 -14.93239281 54.9396197)
(-93.90324033 64.49586829 -241.2345806)
(97.99101067 -235.4383373 391.9729931)
(134.4388433 265.4927402 23.6933293)
(-168.4247359 192.576434 201.3644252)
(430.9937392 -362.1791727 143.192991)
(-27.21911777 74.84529273 -338.3751357)
(37.55410583 97.83338139 122.0617218)
(2.809213552 -40.01977506 411.775602)
(62.75601963 103.6307606 -257.2595199)
(77.98992956 73.19717988 -77.98303793)
(-291.8674305 239.5531164 406.2075928)
(-0.293332973 -191.27455 -367.4584653)
(137.5177766 253.4738991 -156.8417777)
(91.42454274 -210.6876987 -38.75416813)
(121.8656707 -55.1121792 256.9455045)
(-87.32433752 163.602936 -232.6996635)
(-93.54823692 450.0621453 54.42104655)
(-52.13722017 -210.9467433 -371.5468755)
(175.8017994 8.816892556 307.4966067)
(227.8139109 58.89695928 -206.0461779)
(-154.1628893 110.2437051 -18.46906988)
(363.0456656 290.5183877 -7.777470837)
(-148.8056687 -311.5395136 -49.11892075)
(-133.8207381 99.08921068 214.5284199)
(-273.9418446 10.21979861 124.5902668)
(122.5523813 171.6047861 686.2239985)
(-187.18478 -0.2090978302 474.0326451)
(414.3868851 139.1753997 256.5518104)
(91.74337991 75.69367997 412.0310938)
(-588.1755551 -84.11322443 -268.2702034)
(232.520595 -58.73989231 399.8901458)
(134.6503438 320.6173635 -417.7284826)
(-186.8315238 -205.2950399 56.87289242)
(-316.3648078 -503.3300182 40.93253142)
(-375.4118538 -259.7993866 635.3677576)
(9.361914934 25.96848947 274.9355554)
(242.188056 -561.2063699 -88.21777647)
(-362.5012166 -214.6933443 -21.05397618)
(-30.3451964 491.6438997 -440.0697382)
(511.5724152 -376.7724867 -311.7621897)
(54.61489181 148.7275886 194.2501761)
(-453.7203993 127.1473606 -114.4552075)
(-412.4398453 454.2773092 286.5739997)
(8.578203068 320.9963753 -3.078761036)
(-515.4483049 729.7576279 -419.8152256)
(415.9543247 170.2057653 0.6990030862)
(-61.76556623 522.8772464 -319.3994828)
(380.4307424 -407.2386974 8.995044178)
(-64.41581573 105.5668528 66.57693326)
(-214.2791912 -239.1530297 -392.5396362)
(38.0705098 116.5151075 -264.5929849)
(371.7759377 -340.1801683 -149.2821652)
(150.61909 374.7124003 263.9232647)
(-3.366572358 294.8773106 146.7211898)
(605.0617676 -368.3689384 541.3730395)
(-147.9333651 -166.8390129 218.1521135)
(-313.7420726 73.03641495 113.4444481)
(-26.01142537 -119.5505031 306.2539426)
(-947.3753273 -180.6965676 -164.1475921)
(378.2181689 -213.6553478 192.6407358)
(-372.9802627 -89.90656168 171.601393)
(30.48471889 337.6168814 409.1111661)
(-204.9409508 359.0663801 71.74678301)
(466.6311316 345.6091431 43.71294276)
(401.5009802 -20.49072263 -298.9569101)
(139.890446 269.3695837 -245.1748763)
(-382.8828937 -359.654283 -90.67361099)
(-170.5584904 -49.7043081 235.2430435)
(-102.4545783 -481.4615281 -163.4515406)
(147.1144655 252.9469176 30.88439522)
(693.8330581 151.5179294 109.3237474)
(-245.6427122 402.1088905 -369.0629799)
(184.4232929 -394.4545437 -307.1115072)
(158.0560532 -63.58245214 282.2266933)
(-229.7530387 422.4912632 184.013595)
(-42.25031121 216.351018 397.7616656)
(-195.5102249 -333.3061172 300.6487696)
(-176.5719845 213.4016525 -437.9514092)
(149.5018654 -193.1993147 342.789876)
(291.062166 -104.5928449 132.60564)
(68.56686035 -163.4973637 -171.7625189)
(-130.4482839 644.9638666 489.0360368)
(-357.6161911 -356.6272673 -220.675289)
(115.5691863 210.4405226 5.459195877)
(16.24606119 -240.1031334 102.3122882)
(-10.50654783 227.4735896 396.3110242)
(-663.0154984 -147.0732924 -44.55315202)
(422.7513292 -216.0977128 -135.5225953)
(17.28040625 -36.25152759 156.6236226)
(-324.487532 262.8586588 -272.3875588)
(-375.8476935 40.28209064 -220.9119335)
(335.8013257 39.13639973 36.18827167)
(-267.4040127 -396.1433454 43.55000372)
(-293.8779097 443.2654571 -212.0294894)
(-29.4498394 87.34362107 -93.13132732)
(420.7586885 35.10314313 124.6776221)
(-119.9593902 15.89706786 -61.32094147)
(220.7349765 120.0724559 -27.51957785)
(189.463227 -79.66787777 -89.99616516)
(162.3691146 -81.52724146 -734.3194009)
(129.0023219 -667.2000251 -353.361839)
(127.2374721 123.4961004 21.92344191)
(-81.53521781 -104.4126598 425.1149024)
(278.7826414 -290.5718917 120.0599443)
(-20.47872909 44.61047394 -178.3737996)
(-3.487474125 629.5280493 -4.495015706)
(100.2476949 579.8207703 644.355981)
(-362.3921522 -286.1639823 -631.6599079)
(-370.5816546 455.4289211 61.98814944)
(78.97623461 449.8409947 36.40609438)
(-171.2405288 177.129591 270.8595918)
(246.1586961 -565.3838328 555.6285633)
(-418.5230682 513.4660957 -347.1841144)
(57.53072938 -263.5457837 -648.7502137)
(-343.1434059 -148.31039 -95.09730922)
(68.97080248 -121.7588645 319.6389756)
(1.307560945 412.2817451 -280.5341974)
(-294.764179 -12.92200992 268.1826343)
(216.9976963 553.2195175 360.2178776)
(179.2271508 709.0726771 -39.46713039)
(-165.5887634 -142.4594682 -346.6727701)
(-337.9751509 -93.69012331 289.8107836)
(64.96043983 -116.3511173 169.8828023)
(135.4401964 11.59608853 -24.18092084)
(442.6634668 308.8613702 218.1196445)
(-181.4474506 28.04145516 189.8291067)
(432.1375155 321.7748835 -313.1300903)
(39.33185227 -399.986606 294.0720546)
(-294.0807874 337.5101693 -41.36314541)
(-405.1508166 351.8000817 697.9286961)
(-483.5202343 -73.31419267 -252.8254463)
(138.1385705 242.2450647 144.2979297)
(671.2107604 -253.5630891 47.05473302)
(233.812916 -199.9025717 346.2484554)
(-87.70390256 -81.39281596 331.3384365)
(389.8646377 -195.4974597 348.1679084)
(62.70983008 -270.1003811 214.4763273)
(-131.2827952 -122.6096097 96.85026831)
(-125.163995 287.3320802 -346.4088303)
(244.746505 453.463148 423.911086)
(95.44076219 -626.3376831 177.2501423)
(-235.9117921 -87.12028798 -414.0026708)
(136.697566 597.7180584 13.94954567)
(-279.9540701 863.9730514 519.5829642)
(212.5013541 61.83388471 -324.7867232)
(-95.90736035 -500.1117158 -27.14355621)
(371.987133 99.40257691 -613.9845669)
(-547.3435331 -152.2629475 -765.5367181)
(-114.5777393 -481.278421 -387.2703301)
(54.03974313 -6.052460256 -207.3651752)
(136.4403737 -220.2307036 5.895920149)
(-651.7772216 61.45185191 -517.423866)
(-356.7953388 -341.2973842 56.259536)
(-319.8806514 -65.23506466 -403.0496138)
(6.227990186 279.789093 230.020503)
(-169.4542603 191.1483779 186.1430355)
(-200.5667877 253.8053196 -363.3999161)
(28.1297863 -108.2748154 334.8190935)
(122.6177562 324.9221094 -84.1098939)
(373.3307758 72.22988598 -172.1869424)
(-225.9113229 141.6931632 290.0832404)
(124.7693206 -277.7181376 -354.1914976)
(110.5934842 -537.0729161 26.7748014)
(111.8548641 8.101066223 -68.51657524)
(-230.8851541 -32.1692583 251.3521314)
(-65.28216256 534.8283431 -562.2371372)
(-227.8182009 -31.62435822 18.86478101)
(-164.6031485 -118.3107526 20.79833201)
(-52.57768991 -1.505700169 -381.2548674)
(205.5967688 -395.2309902 67.10574317)
(-12.06918282 -125.4397106 287.3010906)
(-91.13060141 219.6494654 -414.7031791)
(-316.9912694 343.9777 -356.8875266)
(93.750223 138.7734116 -599.2612431)
(249.8247836 -101.3842682 392.5228086)
(411.559015 -174.0911852 155.151539)
(-28.77782974 370.5165699 -76.96589777)
(538.9974327 -371.6042068 -162.3416618)
(-15.85448824 457.7553019 -164.8078359)
(-548.1388914 624.6495417 364.3262873)
(-507.9535614 -532.457892 -121.014045)
(599.5333312 -350.7568101 204.9334973)
(-801.1471491 -426.574491 -518.8702523)
(-265.7656388 515.5812211 322.5916128)
(175.6573492 -200.4259064 151.3386683)
(54.43343228 353.1099531 325.1090266)
(-403.6160235 -536.6339371 -47.78494883)
(-202.8392886 160.828261 526.2699455)
(-68.28862628 -95.42451514 180.3780443)
(162.2196224 136.4920252 -93.38482599)
(324.6608182 424.778204 -59.44877664)
(-39.41010588 225.5972264 -429.0697562)
(-843.0996588 -13.00605986 -14.18122176)
(270.7495516 -632.7892493 51.47972524)
(-208.0193816 -49.52276538 -134.2139761)
(-63.22413086 103.1834785 394.0375587)
(-251.0202869 -224.2082956 166.099026)
(407.919805 498.6622506 693.0697225)
(93.70406831 425.1295961 335.1297628)
(-309.0479788 30.24599538 342.6458819)
(-22.4356065 -68.34951865 494.1912553)
(-178.1509301 -232.7857611 317.8745497)
(227.3550233 537.0467999 89.35291973)
(133.0342775 7.492078399 -620.6651274)
(183.6252635 -38.37173058 -61.08217589)
(-319.161649 -237.4065375 -542.4303563)
(228.603262 233.0516628 -60.49720096)
(176.9270484 274.8822273 -528.3894878)
(-124.2068517 368.3701042 235.76096)
(193.8365968 -144.78201 390.3074718)
(-57.40115404 169.9171522 -314.6585506)
(362.3411535 71.56376868 -79.2764902)
(177.0550655 -280.1796586 399.6952981)
(-51.80240213 321.5779356 100.1033128)
(-236.9827058 181.3366828 50.2983629)
(164.3674687 305.665469 -5.622991659)
(41.65337804 225.983063 120.3369457)
(-95.33978235 -687.1044493 130.618178)
(45.04613199 295.901877 148.1924042)
(311.577415 31.74606682 -81.34924801)
(-29.19394285 -60.81277282 457.7912125)
(-142.6177554 -319.4214098 -317.1951796)
(-555.9959542 28.81339053 342.6885481)
(-102.0586989 -102.6612501 108.9785784)
(-25.58797629 -42.72840903 -408.5094976)
(-285.5889217 -308.9016084 -573.8725501)
(53.88472268 351.3553033 -186.9799864)
(-165.9685103 -443.1377269 -130.0599885)
(-19.18628179 142.9705787 355.1102246)
(552.4260009 -256.3753085 -66.40689085)
(424.1095545 173.3218818 -59.90480173)
(102.9008474 114.780275 778.7175151)
(-252.5350539 -176.1051453 455.2154284)
(243.9528714 351.0131351 -272.9322824)
(109.6108411 573.6504917 229.5133596)
(-129.7992744 267.6515502 370.909118)
(-287.0313997 -10.38223641 -168.2605955)
(-336.8062693 37.06723499 4.52775317)
(-504.8518286 -37.18790575 -85.22125963)
(7.788770435 58.21416213 374.0923343)
(-73.30910057 234.3842131 -291.2065623)
(348.1393667 98.99779913 196.0582603)
(103.0810365 -442.1068901 287.4918969)
(-153.3414082 412.4850558 171.6037718)
(-232.6587278 595.6941995 -249.6897072)
(75.57149507 -2.108030437 -346.5979716)
(-357.2259335 25.32180886 -407.840366)
(-90.60786807 -524.0321284 -745.5723993)
(557.1460308 94.84439613 81.95595531)
(-239.8371247 86.42298292 -47.12136733)
(33.91340657 6.980740755 -128.4584282)
(31.19452235 97.32566087 219.0274714)
(7.025577493 -283.5256883 173.2651535)
(295.7178474 90.40578104 178.2229968)
(-246.2914403 56.8518629 -37.38602908)
(403.2402298 -102.3345482 -432.7670873)
(-209.5654799 -167.3709253 -186.691204)
(80.33774023 -50.94894113 -123.183292)
(-208.7664763 -608.4901986 -85.1916721)
(-450.1046032 -496.3038176 104.8685476)
(138.378344 212.9694045 337.7436122)
(-271.7905694 101.0950899 -64.74998628)
(-303.6466024 231.8597249 -170.0011812)
(96.00798817 81.36390675 150.5625825)
(238.1190842 -15.28690439 160.2562411)
(-48.91165849 721.2583443 202.8686109)
(438.8044096 -345.3101843 27.82537164)
(-157.281144 24.15733518 195.6945909)
(300.1799535 271.6514981 48.80769324)
(-269.0537941 -8.558874393 -95.17395992)
(-51.35352104 -82.69725024 468.6126607)
(389.6846295 -405.9117748 35.39864795)
(133.1740639 -348.8598564 -69.76952647)
(363.2935796 -198.6641568 -59.50144246)
(-54.84306305 128.2321589 -16.68971908)
(-213.5097555 -169.6797641 -279.143338)
(-272.8146722 -349.4766493 -258.6139829)
(164.6470167 303.8188817 -267.2183891)
(-176.0195099 146.3147582 -78.00832691)
(-468.4606842 -179.2454829 178.7685206)
(431.8545921 688.7400322 294.1326033)
(-367.8180495 406.2930357 -132.6383305)
(327.3553175 427.0295822 -340.9335385)
(-309.4557698 233.7102122 -1.341058093)
(-446.3380097 -312.4049483 344.8303042)
(590.7919258 -376.3965203 82.08190232)
(82.30035253 -99.34711061 -230.38549)
(279.9462512 -240.9738997 139.5767782)
(-533.0933012 -76.43618569 635.8696367)
(604.8099199 231.6477674 -218.264888)
(331.2427751 -521.0291477 -56.64437069)
(17.13431223 93.25024553 327.0107622)
(-4.355849087 -523.7732677 -292.6880944)
(-311.1250984 18.93215702 165.9436155)
(-116.4197469 -340.0004316 -328.2703009)
(-88.71989577 168.4635476 -793.7015262)
(545.9246588 -171.5737315 200.7559753)
(-148.2025392 741.0844049 -396.5992314)
(274.0490378 -268.5760056 -297.6798967)
(80.87193159 355.5129512 -251.9510484)
(175.238785 247.2855495 159.4331845)
(419.8741045 -393.941489 -473.0058715)
(63.24370304 246.4043218 161.4061889)
(-191.1490283 61.55033543 205.2046881)
(689.0665928 126.0505313 122.5364214)
(-172.4920319 139.1568145 -510.2487674)
(268.5790708 342.1035806 -415.8207535)
(648.4643702 -308.5746827 -93.83011259)
(245.2657517 132.5877972 423.4438602)
(-110.6112332 394.9273508 48.42674747)
(46.77421166 356.3360347 -157.6739929)
(62.1900757 -284.5169167 -244.616906)
(-318.7709819 486.3633336 -408.1214897)
(77.89454064 112.8960943 -189.3352203)
(260.7748735 394.8455734 261.0491006)
(67.96866502 -227.703697 -747.8569558)
(-431.2452525 212.614349 -137.6067775)
(-316.2524619 447.3945314 -473.1801462)
(-141.465554 290.517571 -155.9516367)
(511.4875133 125.9920195 -214.7091017)
(-30.19000864 -64.06508014 -583.0852284)
(-329.8615603 569.9820172 501.436619)
(-215.7195167 -70.99793835 141.2413282)
(-485.1687553 -103.4889605 -199.0056754)
(43.31499731 -200.7222707 216.8988779)
(-1.397226041 138.9117634 -318.9878023)
(-299.3239005 -2.74155259 144.2301652)
(24.17064185 96.48128987 558.2977084)
(-173.947494 319.6121877 -209.312875)
(386.3423782 300.6238408 188.9375221)
(-564.9189037 -148.5347156 396.0476883)
(-238.8548731 -382.9210943 540.7875377)
(-497.5684953 123.8804904 -360.6151096)
(111.8276301 227.612718 128.2501347)
(-17.64208464 -30.5983151 133.7419172)
(-257.6750082 348.5756549 24.42019265)
(84.0940616 -110.1641928 -505.2771989)
(391.9880991 10.98812809 -168.2698448)
(-323.9936876 -109.1878906 458.388982)
(-163.8573079 200.0740548 -294.4965759)
(-38.24996643 116.6982034 481.1807144)
(-233.3856765 290.1611937 -218.0204055)
(-285.4439977 -632.1754949 39.09895179)
(260.8126759 -207.8299324 219.5818518)
(369.7514313 -78.11874927 4.049189137)
(328.5504143 21.78870025 -200.2185495)
(-160.3215485 -357.0953966 -181.2339565)
(-330.4776619 -251.5631474 93.32619967)
(204.3355429 20.38716159 -282.9425567)
(-243.7515709 440.8788463 -266.6586519)
(84.39158754 -382.9459701 -80.56443144)
(86.00675406 252.9225967 -297.6745053)
(-150.9149177 -144.9915046 -239.4381251)
(552.5062189 -393.6442372 -145.342992)
(-338.1269162 174.0562788 -244.942301)
(-180.6374916 225.9478117 396.9120315)
(96.42210318 -112.2432957 -152.4589175)
(15.10647392 146.4651007 92.49658512)
(96.78485059 303.1329736 1.508987824)
(-182.7796635 -114.6909284 175.4220938)
(349.3716719 -252.3349961 12.04280572)
(-453.7460002 664.4293244 -64.77139562)
(437.2746296 803.3356107 -387.5961021)
(-129.3079124 -531.3902191 215.8628738)
(-53.10119811 -18.37967743 -203.3671814)
(258.7853575 -193.6413331 -17.45903618)
(395.3466769 -108.6793592 -167.890638)
(-131.8364393 -361.2782034 -432.5058403)
(60.71793989 158.9273229 212.8974613)
(427.829035 30.27740531 174.6914489)
(486.1210288 29.80409573 -347.0321083)
(-202.7254949 193.0600821 34.08023699)
(-93.15794667 -225.6551455 196.996748)
(218.2535758 424.0277313 -5.056772212)
(0.5592460481 -373.9007706 -60.7074683)
(140.2830834 -115.7051122 614.0233595)
(52.25418236 -267.5578047 14.05683829)
(-401.0785766 -120.7232525 40.1931435)
(43.62196246 -216.0422474 -152.5754245)
(-88.78871765 151.7247562 -248.3395188)
(-70.86683482 -135.4768577 -84.68663456)
(301.7965248 -301.3866248 252.5106197)
(914.5873582 154.778608 -190.0692913)
(-76.68326182 318.2870816 -610.0556194)
(308.7011861 233.372254 -112.9929949)
(-58.53073944 -284.1993732 -493.4658908)
(275.659627 194.7994817 -476.0770427)
(-134.8733458 682.1711897 453.0205525)
(-34.83669369 15.13264955 28.35868513)
(-35.49641245 460.9841269 66.56101333)
(428.5108243 615.494075 241.0906025)
(300.6113101 185.4480478 271.8832373)
(-30.94049409 344.1424071 -262.2371808)
(-154.947245 -482.2419371 521.399162)
(148.3309737 142.738283 -175.4390196)
(76.49029158 35.18217917 -240.1092209)
(405.2098512 39.96627509 51.29368521)
(321.5499965 -107.5744969 247.0720605)
(-72.14652102 -90.6749309 58.36578559)
(43.9128177 71.64278345 431.569951)
(-26.83833328 19.08909367 63.54538161)
(52.28709535 155.5673343 -11.48658578)
(-19.68163356 84.09196665 -192.1959558)
(-54.49150828 -466.4825298 522.7741989)
(114.3180676 85.44059706 -219.8600225)
(146.9446331 322.7759638 -89.20823012)
(-30.19784038 71.16303013 241.4591835)
(-476.1464966 -329.5530079 104.9891471)
(-415.6068863 -333.4259354 -499.5455057)
(458.5983208 -143.571365 616.7059318)
(99.82469572 -542.3652776 -174.3683927)
(129.2204668 274.1134272 396.6997107)
(-139.5538523 -222.8171724 122.2205973)
(448.5378643 56.42279074 -432.1226486)
(-70.14495951 -78.1458975 -142.499296)
(110.2591725 -39.44868768 493.6718369)
(341.673174 1.734629926 -105.4610354)
(-295.0802909 -86.16400539 218.8448208)
(68.39130221 -385.9068025 101.6644467)
(-104.0731536 -200.6122605 -51.48188614)
(-16.73419982 250.7255991 55.74543477)
(641.7063128 45.59803785 286.3637713)
(-9.010185812 243.3821563 -91.61002722)
(-311.684533 -51.5433839 -473.7561639)
(-374.6777084 -459.153105 163.1685511)
(-54.55486712 -21.75513615 397.9503937)
(-679.057313 -81.56049748 120.0678597)
(-295.1377721 240.6665566 147.8903486)
(64.89202598 408.1518505 210.4543229)
(-278.4638337 122.7487937 -69.75977587)
(209.6001046 -66.25994371 -429.649203)
(-187.6324799 153.7449993 -321.8151531)
(149.8202954 -277.8812927 -105.8678621)
(-173.4884692 308.5735663 -79.56229115)
(-72.13359304 -64.03535203 -278.5158393)
(-480.1151759 -337.1175651 -77.89550228)
(89.68897565 -143.9846261 154.226252)
(-63.72635489 91.3148112 -1.269274303)
(401.3895211 20.10650028 -327.23794)
(-201.6869555 -27.59134923 202.8219206)
(-47.10092151 271.2926442 243.3941949)
(-145.5805425 -486.2767046 -135.9353225)
(137.9886105 21.81670795 -535.9523252)
(149.9996987 503.9717268 -36.73121201)
(-2.059478328 488.0005171 -126.4690054)
(129.3678097 38.77410479 196.8348692)
(-68.48595532 287.3210768 605.5982427)
(95.57103433 583.4357889 109.8827663)
(314.4354007 -404.1609267 527.9463708)
(-238.9716571 -104.4846321 -249.7804213)
(122.9844451 136.0232479 424.5969827)
(385.5055213 254.2769971 -53.20493751)
(-263.3168516 371.0761128 -398.8613369)
(35.83543724 75.56648536 -450.1623118)
(153.3103272 -36.87971867 -630.9300904)
(-353.1669613 -97.32443505 -22.53018826)
(-62.80920027 56.6706651 75.63415277)
(-112.8179801 -23.68857127 -14.48529396)
(-189.1179823 -68.89925406 -318.0161376)
(8.236810342 -563.0487472 -283.5460282)
(218.2600944 283.800815 194.1140752)
(108.5983631 142.2852998 -268.1118148)
(-176.9003912 -237.6379318 388.4973998)
(277.0195593 303.2995809 5.025312654)
(78.55328695 312.5719406 265.5406462)
(-116.8161322 13.87178868 -175.4609668)
(-254.7920091 -223.3907771 -83.51525102)
(-101.1265753 -306.5744158 410.348346)
(68.67578211 -11.08917657 -378.021616)
(-175.1106029 27.54738736 613.3042464)
(-33.7526151 -203.0020618 -400.6177057)
(115.7945996 141.0649295 30.47251238)
(-188.5518511 -222.2422693 217.7053602)
(419.9314927 17.44322623 -375.4268098)
(-177.3784741 -341.2809297 114.943703)
(-370.2291118 -43.13479155 -597.0206187)
(488.2635147 -56.61048808 251.45573)
(155.1686148 -629.5002955 -324.9687215)
(53.67104495 115.1223234 -706.3182655)
(205.9831551 -321.4058511 376.0136952)
(-273.1145391 327.9573078 281.4078299)
(351.1522637 -158.4875219 -438.0123748)
(-229.2962259 343.8470866 -155.7735869)
(48.29378918 -299.4121756 203.9494497)
(133.0567493 -45.54223454 -10.08816559)
(-138.6630655 138.0673145 -679.2263838)
(-509.3616578 267.1669684 -77.61867106)
(-649.4579179 -137.462498 342.3030828)