# Probe 0 (5e-06 5e-06 5e-06)
#           Probe                 0
#            Time
            1e-09         3.214e+21
            2e-09        3.1889e+21
            3e-09        3.1641e+21
            4e-09        3.1416e+21
            5e-09        3.1176e+21
            6e-09        3.0919e+21
            7e-09        3.0701e+21
            8e-09        3.0464e+21
            9e-09         3.026e+21
            1e-08        3.0032e+21
          1.1e-08        2.9795e+21
          1.2e-08        2.9597e+21
          1.3e-08        2.9391e+21
          1.4e-08        2.9191e+21
          1.5e-08        2.8963e+21
          1.6e-08        2.8756e+21
          1.7e-08        2.8528e+21
          1.8e-08        2.8312e+21
          1.9e-08        2.8097e+21
            2e-08        2.7868e+21
          2.1e-08        2.7659e+21
          2.2e-08        2.7453e+21
          2.3e-08         2.724e+21
          2.4e-08        2.7031e+21
          2.5e-08        2.6825e+21
          2.6e-08        2.6613e+21
          2.7e-08        2.6432e+21
          2.8e-08        2.6263e+21
          2.9e-08        2.6064e+21
            3e-08        2.5878e+21
          3.1e-08        2.5674e+21
          3.2e-08        2.5486e+21
          3.3e-08          2.53e+21
          3.4e-08        2.5119e+21
          3.5e-08        2.4942e+21
          3.6e-08        2.4766e+21
          3.7e-08        2.4584e+21
          3.8e-08        2.4402e+21
          3.9e-08        2.4212e+21
            4e-08        2.4029e+21
          4.1e-08        2.3839e+21
          4.2e-08        2.3649e+21
          4.3e-08        2.3467e+21
          4.4e-08        2.3278e+21
          4.5e-08        2.3116e+21
          4.6e-08        2.2944e+21
          4.7e-08         2.275e+21
          4.8e-08        2.2595e+21
          4.9e-08        2.2414e+21
            5e-08        2.2232e+21
          5.1e-08        2.2063e+21
          5.2e-08        2.1905e+21
          5.3e-08        2.1739e+21
          5.4e-08        2.1567e+21
          5.5e-08        2.1416e+21
          5.6e-08        2.1249e+21
          5.7e-08        2.1074e+21
          5.8e-08        2.0918e+21
          5.9e-08        2.0759e+21
            6e-08        2.0603e+21
          6.1e-08        2.0436e+21
          6.2e-08        2.0291e+21
          6.3e-08        2.0129e+21
          6.4e-08        1.9981e+21
          6.5e-08        1.9829e+21
          6.6e-08        1.9673e+21
          6.7e-08        1.9519e+21
          6.8e-08        1.9375e+21
          6.9e-08        1.9244e+21
            7e-08        1.9086e+21
          7.1e-08        1.8936e+21
          7.2e-08        1.8815e+21
          7.3e-08        1.8687e+21
          7.4e-08        1.8566e+21
          7.5e-08        1.8427e+21
          7.6e-08        1.8289e+21
          7.7e-08        1.8152e+21
          7.8e-08        1.8021e+21
          7.9e-08        1.7862e+21
            8e-08        1.7723e+21
          8.1e-08        1.7586e+21
          8.2e-08        1.7452e+21
          8.3e-08        1.7331e+21
          8.4e-08         1.721e+21
          8.5e-08        1.7075e+21
          8.6e-08        1.6968e+21
          8.7e-08        1.6844e+21
          8.8e-08        1.6717e+21
          8.9e-08        1.6586e+21
            9e-08        1.6456e+21
          9.1e-08        1.6338e+21
          9.2e-08        1.6211e+21
          9.3e-08        1.6077e+21
          9.4e-08        1.5972e+21
          9.5e-08        1.5869e+21
          9.6e-08        1.5756e+21
          9.7e-08        1.5643e+21
          9.8e-08        1.5522e+21
          9.9e-08        1.5408e+21
            1e-07        1.5296e+21
         1.01e-07        1.5182e+21
         1.02e-07        1.5067e+21
         1.03e-07        1.4964e+21
         1.04e-07        1.4861e+21
         1.05e-07        1.4766e+21
         1.06e-07        1.4664e+21
         1.07e-07        1.4561e+21
         1.08e-07        1.4439e+21
         1.09e-07         1.432e+21
          1.1e-07        1.4229e+21
         1.11e-07         1.414e+21
         1.12e-07        1.4032e+21
         1.13e-07        1.3947e+21
         1.14e-07        1.3844e+21
         1.15e-07        1.3734e+21
         1.16e-07        1.3615e+21
         1.17e-07        1.3515e+21
         1.18e-07        1.3429e+21
         1.19e-07        1.3349e+21
          1.2e-07         1.326e+21
         1.21e-07        1.3163e+21
         1.22e-07        1.3062e+21
         1.23e-07        1.2973e+21
         1.24e-07        1.2885e+21
         1.25e-07        1.2775e+21
         1.26e-07         1.269e+21
         1.27e-07        1.2613e+21
         1.28e-07        1.2524e+21
         1.29e-07        1.2434e+21
          1.3e-07         1.235e+21
         1.31e-07        1.2265e+21
         1.32e-07        1.2151e+21
         1.33e-07        1.2059e+21
         1.34e-07        1.1968e+21
         1.35e-07        1.1902e+21
         1.36e-07        1.1806e+21
         1.37e-07         1.171e+21
         1.38e-07        1.1636e+21
         1.39e-07        1.1561e+21
          1.4e-07        1.1485e+21
         1.41e-07         1.141e+21
         1.42e-07        1.1304e+21
         1.43e-07         1.122e+21
         1.44e-07        1.1144e+21
         1.45e-07        1.1068e+21
         1.46e-07        1.0994e+21
         1.47e-07        1.0912e+21
         1.48e-07        1.0837e+21
         1.49e-07        1.0768e+21
          1.5e-07        1.0703e+21
         1.51e-07        1.0628e+21
         1.52e-07        1.0553e+21
         1.53e-07        1.0479e+21
         1.54e-07        1.0402e+21
         1.55e-07        1.0344e+21
         1.56e-07        1.0273e+21
         1.57e-07        1.0211e+21
         1.58e-07        1.0142e+21
         1.59e-07        1.0063e+21
          1.6e-07        1.0011e+21
         1.61e-07         9.961e+20
         1.62e-07         9.902e+20
         1.63e-07         9.831e+20
         1.64e-07         9.768e+20
         1.65e-07         9.708e+20
         1.66e-07         9.645e+20
         1.67e-07         9.582e+20
         1.68e-07         9.518e+20
         1.69e-07         9.457e+20
          1.7e-07         9.405e+20
         1.71e-07         9.345e+20
         1.72e-07         9.281e+20
         1.73e-07         9.238e+20
         1.74e-07         9.186e+20
         1.75e-07         9.123e+20
         1.76e-07         9.076e+20
         1.77e-07         9.031e+20
         1.78e-07         8.973e+20
         1.79e-07         8.917e+20
          1.8e-07         8.866e+20
         1.81e-07         8.802e+20
         1.82e-07         8.751e+20
         1.83e-07         8.699e+20
         1.84e-07         8.646e+20
         1.85e-07         8.596e+20
         1.86e-07         8.543e+20
         1.87e-07          8.49e+20
         1.88e-07         8.422e+20
         1.89e-07         8.382e+20
          1.9e-07         8.339e+20
         1.91e-07         8.289e+20
         1.92e-07         8.245e+20
         1.93e-07         8.192e+20
         1.94e-07          8.12e+20
         1.95e-07         8.069e+20
         1.96e-07         8.003e+20
         1.97e-07         7.953e+20
         1.98e-07         7.909e+20
         1.99e-07         7.855e+20
            2e-07         7.811e+20
         2.01e-07         7.767e+20
         2.02e-07         7.716e+20
         2.03e-07         7.662e+20
         2.04e-07         7.614e+20
         2.05e-07         7.566e+20
         2.06e-07         7.527e+20
         2.07e-07         7.487e+20
         2.08e-07          7.44e+20
         2.09e-07         7.397e+20
          2.1e-07         7.354e+20
         2.11e-07         7.306e+20
         2.12e-07         7.261e+20
         2.13e-07         7.223e+20
         2.14e-07         7.185e+20
         2.15e-07         7.133e+20
         2.16e-07         7.081e+20
         2.17e-07         7.044e+20
         2.18e-07         7.005e+20
         2.19e-07         6.969e+20
          2.2e-07         6.923e+20
         2.21e-07         6.877e+20
         2.22e-07         6.836e+20
         2.23e-07           6.8e+20
         2.24e-07         6.756e+20
         2.25e-07         6.732e+20
         2.26e-07           6.7e+20
         2.27e-07          6.66e+20
         2.28e-07          6.62e+20
         2.29e-07         6.576e+20
          2.3e-07         6.536e+20
         2.31e-07         6.512e+20
         2.32e-07         6.474e+20
         2.33e-07         6.447e+20
         2.34e-07         6.402e+20
         2.35e-07          6.37e+20
         2.36e-07         6.339e+20
         2.37e-07         6.306e+20
         2.38e-07         6.278e+20
         2.39e-07          6.25e+20
          2.4e-07         6.216e+20
         2.41e-07         6.189e+20
         2.42e-07         6.147e+20
         2.43e-07         6.106e+20
         2.44e-07         6.077e+20
         2.45e-07         6.047e+20
         2.46e-07         6.004e+20
         2.47e-07         5.973e+20
         2.48e-07         5.937e+20
         2.49e-07         5.906e+20
          2.5e-07         5.863e+20
         2.51e-07         5.836e+20
         2.52e-07         5.805e+20
         2.53e-07         5.773e+20
         2.54e-07         5.735e+20
         2.55e-07         5.708e+20
         2.56e-07         5.686e+20
         2.57e-07         5.658e+20
         2.58e-07         5.628e+20
         2.59e-07         5.601e+20
          2.6e-07         5.567e+20
         2.61e-07         5.533e+20
         2.62e-07         5.506e+20
         2.63e-07         5.479e+20
         2.64e-07         5.455e+20
         2.65e-07         5.432e+20
         2.66e-07         5.401e+20
         2.67e-07         5.362e+20
         2.68e-07         5.341e+20
         2.69e-07         5.316e+20
          2.7e-07         5.284e+20
         2.71e-07         5.255e+20
         2.72e-07         5.227e+20
         2.73e-07         5.205e+20
         2.74e-07         5.179e+20
         2.75e-07         5.154e+20
         2.76e-07         5.111e+20
         2.77e-07         5.073e+20
         2.78e-07         5.046e+20
         2.79e-07         5.025e+20
          2.8e-07         5.004e+20
         2.81e-07          4.98e+20
         2.82e-07         4.954e+20
         2.83e-07         4.925e+20
         2.84e-07         4.902e+20
         2.85e-07         4.873e+20
         2.86e-07         4.847e+20
         2.87e-07         4.825e+20
         2.88e-07         4.792e+20
         2.89e-07         4.768e+20
          2.9e-07         4.735e+20
         2.91e-07          4.71e+20
         2.92e-07         4.684e+20
         2.93e-07         4.653e+20
         2.94e-07         4.634e+20
         2.95e-07         4.604e+20
         2.96e-07         4.581e+20
         2.97e-07         4.555e+20
         2.98e-07         4.534e+20
         2.99e-07         4.511e+20
            3e-07          4.49e+20
         3.01e-07         4.465e+20
         3.02e-07         4.442e+20
         3.03e-07         4.416e+20
         3.04e-07          4.39e+20
         3.05e-07         4.368e+20
         3.06e-07         4.347e+20
         3.07e-07          4.33e+20
         3.08e-07         4.306e+20
         3.09e-07         4.293e+20
          3.1e-07         4.275e+20
         3.11e-07         4.257e+20
         3.12e-07         4.244e+20
         3.13e-07         4.224e+20
         3.14e-07           4.2e+20
         3.15e-07         4.183e+20
         3.16e-07         4.168e+20
         3.17e-07         4.146e+20
         3.18e-07         4.124e+20
         3.19e-07         4.104e+20
          3.2e-07         4.085e+20
         3.21e-07         4.065e+20
         3.22e-07         4.045e+20
         3.23e-07         4.016e+20
         3.24e-07         3.994e+20
         3.25e-07         3.976e+20
         3.26e-07         3.954e+20
         3.27e-07         3.936e+20
         3.28e-07         3.917e+20
         3.29e-07           3.9e+20
          3.3e-07         3.881e+20
         3.31e-07         3.865e+20
         3.32e-07         3.847e+20
         3.33e-07         3.836e+20
         3.34e-07          3.82e+20
         3.35e-07         3.791e+20
         3.36e-07         3.775e+20
         3.37e-07          3.76e+20
         3.38e-07          3.74e+20
         3.39e-07          3.72e+20
          3.4e-07         3.693e+20
         3.41e-07         3.672e+20
         3.42e-07         3.653e+20
         3.43e-07         3.634e+20
         3.44e-07         3.613e+20
         3.45e-07         3.598e+20
         3.46e-07          3.58e+20
         3.47e-07         3.564e+20
         3.48e-07         3.551e+20
         3.49e-07         3.539e+20
          3.5e-07          3.52e+20
         3.51e-07         3.512e+20
         3.52e-07         3.491e+20
         3.53e-07         3.465e+20
         3.54e-07          3.45e+20
         3.55e-07         3.433e+20
         3.56e-07         3.413e+20
         3.57e-07         3.398e+20
         3.58e-07         3.383e+20
         3.59e-07         3.368e+20
          3.6e-07         3.353e+20
         3.61e-07         3.332e+20
         3.62e-07         3.326e+20
         3.63e-07         3.312e+20
         3.64e-07         3.299e+20
         3.65e-07         3.283e+20
         3.66e-07         3.269e+20
         3.67e-07         3.255e+20
         3.68e-07         3.237e+20
         3.69e-07         3.223e+20
          3.7e-07          3.21e+20
         3.71e-07         3.195e+20
         3.72e-07         3.172e+20
         3.73e-07         3.159e+20
         3.74e-07         3.146e+20
         3.75e-07         3.137e+20
         3.76e-07         3.123e+20
         3.77e-07         3.105e+20
         3.78e-07         3.087e+20
         3.79e-07         3.067e+20
          3.8e-07         3.053e+20
         3.81e-07         3.039e+20
         3.82e-07         3.026e+20
         3.83e-07         3.007e+20
         3.84e-07         2.996e+20
         3.85e-07         2.984e+20
         3.86e-07          2.97e+20
         3.87e-07         2.954e+20
         3.88e-07         2.938e+20
         3.89e-07         2.925e+20
          3.9e-07         2.908e+20
         3.91e-07         2.892e+20
         3.92e-07         2.881e+20
         3.93e-07         2.857e+20
         3.94e-07         2.841e+20
         3.95e-07         2.834e+20
         3.96e-07         2.817e+20
         3.97e-07         2.804e+20
         3.98e-07         2.795e+20
         3.99e-07         2.779e+20
            4e-07         2.769e+20
         4.01e-07         2.753e+20
         4.02e-07         2.743e+20
         4.03e-07         2.734e+20
         4.04e-07          2.72e+20
         4.05e-07         2.704e+20
         4.06e-07         2.692e+20
         4.07e-07         2.682e+20
         4.08e-07         2.674e+20
         4.09e-07         2.664e+20
          4.1e-07         2.651e+20
         4.11e-07         2.639e+20
         4.12e-07         2.623e+20
         4.13e-07         2.611e+20
         4.14e-07           2.6e+20
         4.15e-07         2.588e+20
         4.16e-07         2.576e+20
         4.17e-07         2.563e+20
         4.18e-07         2.551e+20
         4.19e-07         2.543e+20
          4.2e-07         2.525e+20
         4.21e-07         2.516e+20
         4.22e-07         2.504e+20
         4.23e-07         2.498e+20
         4.24e-07         2.487e+20
         4.25e-07         2.474e+20
         4.26e-07         2.461e+20
         4.27e-07         2.447e+20
         4.28e-07         2.432e+20
         4.29e-07         2.423e+20
          4.3e-07         2.411e+20
         4.31e-07         2.401e+20
         4.32e-07          2.39e+20
         4.33e-07         2.387e+20
         4.34e-07         2.381e+20
         4.35e-07         2.371e+20
         4.36e-07         2.362e+20
         4.37e-07         2.349e+20
         4.38e-07          2.34e+20
         4.39e-07         2.327e+20
          4.4e-07         2.314e+20
         4.41e-07         2.301e+20
         4.42e-07         2.294e+20
         4.43e-07         2.288e+20
         4.44e-07         2.274e+20
         4.45e-07         2.263e+20
         4.46e-07          2.25e+20
         4.47e-07         2.235e+20
         4.48e-07         2.229e+20
         4.49e-07         2.219e+20
          4.5e-07         2.207e+20
         4.51e-07         2.202e+20
         4.52e-07         2.194e+20
         4.53e-07         2.184e+20
         4.54e-07          2.18e+20
         4.55e-07         2.169e+20
         4.56e-07          2.16e+20
         4.57e-07         2.149e+20
         4.58e-07         2.135e+20
         4.59e-07         2.123e+20
          4.6e-07         2.118e+20
         4.61e-07         2.109e+20
         4.62e-07           2.1e+20
         4.63e-07          2.09e+20
         4.64e-07         2.084e+20
         4.65e-07          2.08e+20
         4.66e-07         2.074e+20
         4.67e-07         2.061e+20
         4.68e-07         2.055e+20
         4.69e-07         2.047e+20
          4.7e-07         2.039e+20
         4.71e-07         2.034e+20
         4.72e-07         2.022e+20
         4.73e-07         2.015e+20
         4.74e-07         2.008e+20
         4.75e-07         2.005e+20
         4.76e-07             2e+20
         4.77e-07         1.986e+20
         4.78e-07         1.974e+20
         4.79e-07         1.966e+20
          4.8e-07         1.963e+20
         4.81e-07         1.957e+20
         4.82e-07         1.951e+20
         4.83e-07         1.948e+20
         4.84e-07         1.937e+20
         4.85e-07         1.927e+20
         4.86e-07         1.922e+20
         4.87e-07         1.915e+20
         4.88e-07         1.897e+20
         4.89e-07         1.887e+20
          4.9e-07          1.88e+20
         4.91e-07         1.876e+20
         4.92e-07         1.868e+20
         4.93e-07         1.864e+20
         4.94e-07         1.861e+20
         4.95e-07         1.851e+20
         4.96e-07         1.845e+20
         4.97e-07         1.839e+20
         4.98e-07         1.826e+20
         4.99e-07         1.817e+20
            5e-07         1.811e+20
         5.01e-07           1.8e+20
         5.02e-07         1.792e+20
         5.03e-07         1.787e+20
         5.04e-07         1.779e+20
         5.05e-07         1.774e+20
         5.06e-07         1.767e+20
         5.07e-07         1.757e+20
         5.08e-07         1.749e+20
         5.09e-07         1.743e+20
          5.1e-07         1.735e+20
         5.11e-07         1.727e+20
         5.12e-07         1.722e+20
         5.13e-07          1.71e+20
         5.14e-07         1.698e+20
         5.15e-07          1.69e+20
         5.16e-07         1.684e+20
         5.17e-07         1.677e+20
         5.18e-07         1.673e+20
         5.19e-07         1.667e+20
          5.2e-07         1.661e+20
         5.21e-07         1.655e+20
         5.22e-07         1.649e+20
         5.23e-07         1.638e+20
         5.24e-07         1.628e+20
         5.25e-07         1.619e+20
         5.26e-07         1.613e+20
         5.27e-07         1.607e+20
         5.28e-07         1.603e+20
         5.29e-07         1.597e+20
          5.3e-07         1.588e+20
         5.31e-07         1.582e+20
         5.32e-07         1.578e+20
         5.33e-07         1.573e+20
         5.34e-07         1.566e+20
         5.35e-07          1.56e+20
         5.36e-07         1.555e+20
         5.37e-07         1.549e+20
         5.38e-07         1.545e+20
         5.39e-07         1.538e+20
          5.4e-07          1.53e+20
         5.41e-07         1.522e+20
         5.42e-07         1.517e+20
         5.43e-07         1.512e+20
         5.44e-07         1.507e+20
         5.45e-07         1.502e+20
         5.46e-07         1.494e+20
         5.47e-07         1.487e+20
         5.48e-07         1.479e+20
         5.49e-07         1.469e+20
          5.5e-07         1.462e+20
         5.51e-07         1.457e+20
         5.52e-07         1.451e+20
         5.53e-07         1.444e+20
         5.54e-07         1.438e+20
         5.55e-07         1.432e+20
         5.56e-07         1.428e+20
         5.57e-07         1.423e+20
         5.58e-07         1.416e+20
         5.59e-07          1.41e+20
          5.6e-07         1.406e+20
         5.61e-07         1.399e+20
         5.62e-07         1.397e+20
         5.63e-07         1.396e+20
         5.64e-07         1.392e+20
         5.65e-07         1.386e+20
         5.66e-07         1.383e+20
         5.67e-07         1.377e+20
         5.68e-07         1.373e+20
         5.69e-07         1.371e+20
          5.7e-07         1.364e+20
         5.71e-07         1.357e+20
         5.72e-07          1.35e+20
         5.73e-07         1.347e+20
         5.74e-07         1.343e+20
         5.75e-07         1.336e+20
         5.76e-07         1.332e+20
         5.77e-07          1.32e+20
         5.78e-07         1.313e+20
         5.79e-07          1.31e+20
          5.8e-07         1.304e+20
         5.81e-07         1.299e+20
         5.82e-07         1.294e+20
         5.83e-07         1.288e+20
         5.84e-07         1.284e+20
         5.85e-07         1.276e+20
         5.86e-07         1.271e+20
         5.87e-07         1.267e+20
         5.88e-07         1.263e+20
         5.89e-07         1.257e+20
          5.9e-07         1.255e+20
         5.91e-07         1.255e+20
         5.92e-07         1.252e+20
         5.93e-07         1.247e+20
         5.94e-07         1.241e+20
         5.95e-07         1.237e+20
         5.96e-07         1.228e+20
         5.97e-07         1.225e+20
         5.98e-07         1.224e+20
         5.99e-07         1.217e+20
            6e-07         1.216e+20
         6.01e-07         1.209e+20
         6.02e-07         1.205e+20
         6.03e-07         1.202e+20
         6.04e-07         1.198e+20
         6.05e-07          1.19e+20
         6.06e-07         1.186e+20
         6.07e-07          1.18e+20
         6.08e-07         1.176e+20
         6.09e-07         1.172e+20
          6.1e-07         1.167e+20
         6.11e-07         1.161e+20
         6.12e-07         1.156e+20
         6.13e-07         1.151e+20
         6.14e-07         1.147e+20
         6.15e-07         1.145e+20
         6.16e-07          1.14e+20
         6.17e-07         1.137e+20
         6.18e-07         1.131e+20
         6.19e-07         1.127e+20
          6.2e-07         1.118e+20
         6.21e-07         1.113e+20
         6.22e-07         1.108e+20
         6.23e-07         1.105e+20
         6.24e-07         1.098e+20
         6.25e-07         1.094e+20
         6.26e-07         1.087e+20
         6.27e-07         1.083e+20
         6.28e-07         1.077e+20
         6.29e-07          1.07e+20
          6.3e-07         1.067e+20
         6.31e-07         1.061e+20
         6.32e-07         1.058e+20
         6.33e-07          1.05e+20
         6.34e-07         1.042e+20
         6.35e-07         1.036e+20
         6.36e-07          1.03e+20
         6.37e-07         1.024e+20
         6.38e-07         1.022e+20
         6.39e-07         1.018e+20
          6.4e-07         1.016e+20
         6.41e-07         1.012e+20
         6.42e-07         1.009e+20
         6.43e-07         1.003e+20
         6.44e-07          9.98e+19
         6.45e-07          9.95e+19
         6.46e-07          9.91e+19
         6.47e-07          9.86e+19
         6.48e-07          9.84e+19
         6.49e-07          9.82e+19
          6.5e-07          9.78e+19
         6.51e-07          9.76e+19
         6.52e-07          9.73e+19
         6.53e-07           9.7e+19
         6.54e-07          9.64e+19
         6.55e-07          9.61e+19
         6.56e-07          9.61e+19
         6.57e-07           9.6e+19
         6.58e-07          9.55e+19
         6.59e-07          9.49e+19
          6.6e-07          9.49e+19
         6.61e-07          9.46e+19
         6.62e-07           9.4e+19
         6.63e-07          9.38e+19
         6.64e-07          9.36e+19
         6.65e-07          9.34e+19
         6.66e-07          9.29e+19
         6.67e-07          9.28e+19
         6.68e-07          9.22e+19
         6.69e-07          9.17e+19
          6.7e-07          9.15e+19
         6.71e-07          9.13e+19
         6.72e-07          9.12e+19
         6.73e-07          9.09e+19
         6.74e-07          9.08e+19
         6.75e-07          9.05e+19
         6.76e-07             9e+19
         6.77e-07             9e+19
         6.78e-07          8.95e+19
         6.79e-07          8.91e+19
          6.8e-07          8.89e+19
         6.81e-07          8.88e+19
         6.82e-07          8.85e+19
         6.83e-07          8.83e+19
         6.84e-07          8.79e+19
         6.85e-07          8.77e+19
         6.86e-07          8.76e+19
         6.87e-07          8.71e+19
         6.88e-07          8.68e+19
         6.89e-07          8.64e+19
          6.9e-07           8.6e+19
         6.91e-07           8.6e+19
         6.92e-07          8.56e+19
         6.93e-07          8.53e+19
         6.94e-07          8.52e+19
         6.95e-07          8.47e+19
         6.96e-07          8.45e+19
         6.97e-07          8.41e+19
         6.98e-07           8.4e+19
         6.99e-07          8.37e+19
            7e-07          8.31e+19
         7.01e-07          8.29e+19
         7.02e-07          8.24e+19
         7.03e-07          8.22e+19
         7.04e-07          8.19e+19
         7.05e-07          8.18e+19
         7.06e-07          8.12e+19
         7.07e-07          8.08e+19
         7.08e-07          8.04e+19
         7.09e-07             8e+19
          7.1e-07          7.96e+19
         7.11e-07          7.95e+19
         7.12e-07           7.9e+19
         7.13e-07          7.89e+19
         7.14e-07          7.87e+19
         7.15e-07          7.85e+19
         7.16e-07          7.84e+19
         7.17e-07          7.83e+19
         7.18e-07           7.8e+19
         7.19e-07          7.75e+19
          7.2e-07          7.74e+19
         7.21e-07          7.73e+19
         7.22e-07          7.68e+19
         7.23e-07          7.64e+19
         7.24e-07          7.59e+19
         7.25e-07          7.55e+19
         7.26e-07          7.51e+19
         7.27e-07          7.48e+19
         7.28e-07          7.47e+19
         7.29e-07          7.44e+19
          7.3e-07          7.39e+19
         7.31e-07          7.36e+19
         7.32e-07          7.32e+19
         7.33e-07          7.31e+19
         7.34e-07          7.29e+19
         7.35e-07          7.29e+19
         7.36e-07          7.26e+19
         7.37e-07          7.25e+19
         7.38e-07          7.23e+19
         7.39e-07          7.19e+19
          7.4e-07          7.19e+19
         7.41e-07          7.18e+19
         7.42e-07          7.17e+19
         7.43e-07          7.14e+19
         7.44e-07          7.11e+19
         7.45e-07          7.08e+19
         7.46e-07          7.06e+19
         7.47e-07          7.06e+19
         7.48e-07          7.05e+19
         7.49e-07          7.05e+19
          7.5e-07          7.04e+19
         7.51e-07          6.98e+19
         7.52e-07          6.98e+19
         7.53e-07          6.95e+19
         7.54e-07          6.92e+19
         7.55e-07          6.91e+19
         7.56e-07          6.86e+19
         7.57e-07           6.8e+19
         7.58e-07          6.77e+19
         7.59e-07          6.76e+19
          7.6e-07           6.7e+19
         7.61e-07          6.68e+19
         7.62e-07          6.63e+19
         7.63e-07          6.59e+19
         7.64e-07          6.56e+19
         7.65e-07          6.53e+19
         7.66e-07          6.51e+19
         7.67e-07          6.49e+19
         7.68e-07          6.46e+19
         7.69e-07          6.46e+19
          7.7e-07          6.42e+19
         7.71e-07           6.4e+19
         7.72e-07          6.39e+19
         7.73e-07          6.37e+19
         7.74e-07          6.34e+19
         7.75e-07          6.28e+19
         7.76e-07          6.23e+19
         7.77e-07          6.18e+19
         7.78e-07          6.16e+19
         7.79e-07          6.13e+19
          7.8e-07          6.11e+19
         7.81e-07          6.09e+19
         7.82e-07          6.06e+19
         7.83e-07          6.02e+19
         7.84e-07          5.99e+19
         7.85e-07          5.97e+19
         7.86e-07          5.96e+19
         7.87e-07          5.93e+19
         7.88e-07          5.91e+19
         7.89e-07           5.9e+19
          7.9e-07          5.88e+19
         7.91e-07          5.85e+19
         7.92e-07          5.83e+19
         7.93e-07          5.79e+19
         7.94e-07          5.78e+19
         7.95e-07          5.76e+19
         7.96e-07          5.74e+19
         7.97e-07          5.71e+19
         7.98e-07          5.68e+19
         7.99e-07          5.63e+19
            8e-07          5.63e+19
         8.01e-07          5.62e+19
         8.02e-07          5.61e+19
         8.03e-07           5.6e+19
         8.04e-07           5.6e+19
         8.05e-07          5.57e+19
         8.06e-07          5.57e+19
         8.07e-07          5.56e+19
         8.08e-07          5.54e+19
         8.09e-07          5.53e+19
          8.1e-07          5.51e+19
         8.11e-07          5.48e+19
         8.12e-07          5.47e+19
         8.13e-07          5.45e+19
         8.14e-07          5.41e+19
         8.15e-07           5.4e+19
         8.16e-07          5.37e+19
         8.17e-07          5.33e+19
         8.18e-07          5.31e+19
         8.19e-07          5.29e+19
          8.2e-07          5.26e+19
         8.21e-07          5.24e+19
         8.22e-07          5.23e+19
         8.23e-07          5.21e+19
         8.24e-07          5.21e+19
         8.25e-07           5.2e+19
         8.26e-07          5.19e+19
         8.27e-07          5.16e+19
         8.28e-07          5.14e+19
         8.29e-07          5.14e+19
          8.3e-07          5.11e+19
         8.31e-07           5.1e+19