# Probe 0 (5e-06 5e-06 5e-06)
#           Probe                 0
#            Time
            1e-09                 0
            2e-09                 0
            3e-09             1e+17
            4e-09             3e+17
            5e-09             3e+17
            6e-09             5e+17
            7e-09             7e+17
            8e-09             7e+17
            9e-09             9e+17
            1e-08           1.1e+18
          1.1e-08           1.2e+18
          1.2e-08           1.5e+18
          1.3e-08             2e+18
          1.4e-08           2.2e+18
          1.5e-08           2.4e+18
          1.6e-08           2.5e+18
          1.7e-08           2.5e+18
          1.8e-08           2.9e+18
          1.9e-08             3e+18
            2e-08           3.3e+18
          2.1e-08             4e+18
          2.2e-08           4.6e+18
          2.3e-08           4.9e+18
          2.4e-08           5.4e+18
          2.5e-08           5.9e+18
          2.6e-08           6.3e+18
          2.7e-08           6.6e+18
          2.8e-08           6.6e+18
          2.9e-08           7.3e+18
            3e-08           7.8e+18
          3.1e-08           8.5e+18
          3.2e-08           8.6e+18
          3.3e-08           8.9e+18
          3.4e-08           9.2e+18
          3.5e-08             1e+19
          3.6e-08          1.06e+19
          3.7e-08          1.11e+19
          3.8e-08          1.14e+19
          3.9e-08           1.2e+19
            4e-08          1.22e+19
          4.1e-08           1.3e+19
          4.2e-08          1.34e+19
          4.3e-08          1.39e+19
          4.4e-08          1.48e+19
          4.5e-08           1.5e+19
          4.6e-08          1.56e+19
          4.7e-08           1.6e+19
          4.8e-08          1.66e+19
          4.9e-08          1.71e+19
            5e-08          1.77e+19
          5.1e-08           1.8e+19
          5.2e-08          1.83e+19
          5.3e-08          1.86e+19
          5.4e-08          1.89e+19
          5.5e-08          1.92e+19
          5.6e-08          1.96e+19
          5.7e-08          2.04e+19
          5.8e-08          2.11e+19
          5.9e-08          2.17e+19
            6e-08          2.28e+19
          6.1e-08          2.41e+19
          6.2e-08          2.43e+19
          6.3e-08          2.49e+19
          6.4e-08          2.56e+19
          6.5e-08          2.66e+19
          6.6e-08          2.67e+19
          6.7e-08          2.69e+19
          6.8e-08          2.72e+19
          6.9e-08          2.77e+19
            7e-08          2.84e+19
          7.1e-08          2.92e+19
          7.2e-08          2.99e+19
          7.3e-08           3.1e+19
          7.4e-08          3.12e+19
          7.5e-08          3.23e+19
          7.6e-08          3.33e+19
          7.7e-08          3.41e+19
          7.8e-08          3.49e+19
          7.9e-08          3.59e+19
            8e-08           3.7e+19
          8.1e-08          3.79e+19
          8.2e-08          3.89e+19
          8.3e-08          3.95e+19
          8.4e-08          4.03e+19
          8.5e-08          4.16e+19
          8.6e-08          4.17e+19
          8.7e-08          4.29e+19
          8.8e-08           4.4e+19
          8.9e-08          4.45e+19
            9e-08          4.56e+19
          9.1e-08          4.61e+19
          9.2e-08          4.68e+19
          9.3e-08           4.8e+19
          9.4e-08          4.84e+19
          9.5e-08          4.83e+19
          9.6e-08          4.89e+19
          9.7e-08          4.96e+19
          9.8e-08          5.02e+19
          9.9e-08          5.09e+19
            1e-07          5.16e+19
         1.01e-07          5.28e+19
         1.02e-07           5.4e+19
         1.03e-07          5.46e+19
         1.04e-07          5.53e+19
         1.05e-07          5.61e+19
         1.06e-07          5.64e+19
         1.07e-07           5.7e+19
         1.08e-07          5.81e+19
         1.09e-07          5.86e+19
          1.1e-07          5.87e+19
         1.11e-07          5.92e+19
         1.12e-07          5.94e+19
         1.13e-07          5.97e+19
         1.14e-07          6.02e+19
         1.15e-07          6.06e+19
         1.16e-07          6.19e+19
         1.17e-07          6.22e+19
         1.18e-07          6.29e+19
         1.19e-07          6.39e+19
          1.2e-07          6.46e+19
         1.21e-07          6.53e+19
         1.22e-07          6.58e+19
         1.23e-07          6.66e+19
         1.24e-07          6.68e+19
         1.25e-07          6.69e+19
         1.26e-07          6.77e+19
         1.27e-07          6.84e+19
         1.28e-07          6.92e+19
         1.29e-07          6.98e+19
          1.3e-07          7.04e+19
         1.31e-07           7.1e+19
         1.32e-07          7.14e+19
         1.33e-07          7.25e+19
         1.34e-07          7.31e+19
         1.35e-07          7.36e+19
         1.36e-07          7.41e+19
         1.37e-07          7.46e+19
         1.38e-07           7.5e+19
         1.39e-07          7.59e+19
          1.4e-07          7.65e+19
         1.41e-07          7.69e+19
         1.42e-07           7.8e+19
         1.43e-07          7.78e+19
         1.44e-07           7.9e+19
         1.45e-07          8.03e+19
         1.46e-07          8.08e+19
         1.47e-07          8.12e+19
         1.48e-07          8.13e+19
         1.49e-07          8.15e+19
          1.5e-07          8.18e+19
         1.51e-07          8.29e+19
         1.52e-07          8.35e+19
         1.53e-07          8.41e+19
         1.54e-07          8.54e+19
         1.55e-07          8.59e+19
         1.56e-07          8.67e+19
         1.57e-07          8.81e+19
         1.58e-07          8.86e+19
         1.59e-07          8.93e+19
          1.6e-07          8.94e+19
         1.61e-07          8.94e+19
         1.62e-07          8.97e+19
         1.63e-07          9.08e+19
         1.64e-07          9.13e+19
         1.65e-07          9.25e+19
         1.66e-07          9.34e+19
         1.67e-07           9.4e+19
         1.68e-07          9.47e+19
         1.69e-07          9.53e+19
          1.7e-07          9.54e+19
         1.71e-07          9.59e+19
         1.72e-07           9.6e+19
         1.73e-07          9.71e+19
         1.74e-07          9.83e+19
         1.75e-07          9.89e+19
         1.76e-07          9.92e+19
         1.77e-07         1.002e+20
         1.78e-07         1.007e+20
         1.79e-07         1.013e+20
          1.8e-07         1.011e+20
         1.81e-07         1.017e+20
         1.82e-07         1.019e+20
         1.83e-07         1.018e+20
         1.84e-07         1.024e+20
         1.85e-07         1.035e+20
         1.86e-07         1.035e+20
         1.87e-07         1.042e+20
         1.88e-07          1.05e+20
         1.89e-07         1.049e+20
          1.9e-07         1.047e+20
         1.91e-07         1.052e+20
         1.92e-07         1.048e+20
         1.93e-07         1.056e+20
         1.94e-07         1.062e+20
         1.95e-07         1.068e+20
         1.96e-07         1.073e+20
         1.97e-07         1.081e+20
         1.98e-07         1.087e+20
         1.99e-07         1.087e+20
            2e-07         1.097e+20
         2.01e-07         1.103e+20
         2.02e-07         1.108e+20
         2.03e-07         1.116e+20
         2.04e-07          1.12e+20
         2.05e-07         1.134e+20
         2.06e-07         1.134e+20
         2.07e-07         1.136e+20
         2.08e-07          1.14e+20
         2.09e-07         1.139e+20
          2.1e-07         1.139e+20
         2.11e-07         1.146e+20
         2.12e-07         1.158e+20
         2.13e-07         1.164e+20
         2.14e-07          1.17e+20
         2.15e-07         1.178e+20
         2.16e-07          1.18e+20
         2.17e-07         1.181e+20
         2.18e-07          1.18e+20
         2.19e-07          1.18e+20
          2.2e-07         1.187e+20
         2.21e-07         1.196e+20
         2.22e-07         1.196e+20
         2.23e-07         1.199e+20
         2.24e-07         1.205e+20
         2.25e-07         1.209e+20
         2.26e-07         1.218e+20
         2.27e-07         1.225e+20
         2.28e-07         1.237e+20
         2.29e-07         1.241e+20
          2.3e-07         1.245e+20
         2.31e-07          1.25e+20
         2.32e-07         1.249e+20
         2.33e-07         1.254e+20
         2.34e-07         1.258e+20
         2.35e-07         1.255e+20
         2.36e-07         1.266e+20
         2.37e-07          1.27e+20
         2.38e-07         1.267e+20
         2.39e-07          1.27e+20
          2.4e-07         1.274e+20
         2.41e-07         1.279e+20
         2.42e-07         1.289e+20
         2.43e-07         1.287e+20
         2.44e-07          1.29e+20
         2.45e-07         1.293e+20
         2.46e-07         1.292e+20
         2.47e-07         1.301e+20
         2.48e-07         1.295e+20
         2.49e-07         1.301e+20
          2.5e-07           1.3e+20
         2.51e-07         1.301e+20
         2.52e-07         1.308e+20
         2.53e-07         1.307e+20
         2.54e-07         1.305e+20
         2.55e-07         1.304e+20
         2.56e-07         1.309e+20
         2.57e-07         1.314e+20
         2.58e-07          1.32e+20
         2.59e-07         1.323e+20
          2.6e-07         1.333e+20
         2.61e-07         1.335e+20
         2.62e-07          1.33e+20
         2.63e-07         1.334e+20
         2.64e-07         1.338e+20
         2.65e-07         1.338e+20
         2.66e-07         1.344e+20
         2.67e-07         1.345e+20
         2.68e-07         1.348e+20
         2.69e-07         1.347e+20
          2.7e-07         1.352e+20
         2.71e-07         1.356e+20
         2.72e-07         1.359e+20
         2.73e-07         1.362e+20
         2.74e-07         1.364e+20
         2.75e-07         1.367e+20
         2.76e-07         1.376e+20
         2.77e-07         1.379e+20
         2.78e-07         1.391e+20
         2.79e-07         1.383e+20
          2.8e-07         1.387e+20
         2.81e-07         1.395e+20
         2.82e-07         1.398e+20
         2.83e-07         1.404e+20
         2.84e-07         1.406e+20
         2.85e-07         1.407e+20
         2.86e-07         1.414e+20
         2.87e-07         1.414e+20
         2.88e-07         1.419e+20
         2.89e-07          1.42e+20
          2.9e-07         1.426e+20
         2.91e-07          1.43e+20
         2.92e-07          1.43e+20
         2.93e-07         1.431e+20
         2.94e-07         1.432e+20
         2.95e-07         1.436e+20
         2.96e-07         1.435e+20
         2.97e-07          1.44e+20
         2.98e-07         1.446e+20
         2.99e-07         1.447e+20
            3e-07         1.455e+20
         3.01e-07         1.459e+20
         3.02e-07         1.461e+20
         3.03e-07          1.46e+20
         3.04e-07          1.46e+20
         3.05e-07         1.466e+20
         3.06e-07         1.472e+20
         3.07e-07         1.473e+20
         3.08e-07         1.476e+20
         3.09e-07         1.473e+20
          3.1e-07         1.477e+20
         3.11e-07         1.482e+20
         3.12e-07          1.49e+20
         3.13e-07         1.494e+20
         3.14e-07           1.5e+20
         3.15e-07         1.506e+20
         3.16e-07         1.511e+20
         3.17e-07         1.509e+20
         3.18e-07         1.513e+20
         3.19e-07         1.508e+20
          3.2e-07          1.51e+20
         3.21e-07         1.514e+20
         3.22e-07         1.517e+20
         3.23e-07         1.522e+20
         3.24e-07         1.526e+20
         3.25e-07         1.528e+20
         3.26e-07         1.537e+20
         3.27e-07         1.539e+20
         3.28e-07          1.54e+20
         3.29e-07         1.543e+20
          3.3e-07         1.538e+20
         3.31e-07         1.542e+20
         3.32e-07         1.543e+20
         3.33e-07         1.542e+20
         3.34e-07          1.55e+20
         3.35e-07         1.556e+20
         3.36e-07         1.556e+20
         3.37e-07         1.563e+20
         3.38e-07         1.568e+20
         3.39e-07         1.567e+20
          3.4e-07         1.576e+20
         3.41e-07         1.577e+20
         3.42e-07         1.581e+20
         3.43e-07         1.583e+20
         3.44e-07         1.589e+20
         3.45e-07          1.59e+20
         3.46e-07          1.59e+20
         3.47e-07         1.591e+20
         3.48e-07          1.59e+20
         3.49e-07         1.589e+20
          3.5e-07         1.598e+20
         3.51e-07         1.602e+20
         3.52e-07         1.608e+20
         3.53e-07         1.616e+20
         3.54e-07         1.617e+20
         3.55e-07         1.615e+20
         3.56e-07          1.62e+20
         3.57e-07         1.621e+20
         3.58e-07         1.621e+20
         3.59e-07         1.621e+20
          3.6e-07          1.62e+20
         3.61e-07         1.621e+20
         3.62e-07         1.623e+20
         3.63e-07         1.632e+20
         3.64e-07          1.64e+20
         3.65e-07         1.642e+20
         3.66e-07         1.641e+20
         3.67e-07         1.644e+20
         3.68e-07         1.648e+20
         3.69e-07         1.651e+20
          3.7e-07          1.65e+20
         3.71e-07          1.65e+20
         3.72e-07         1.648e+20
         3.73e-07         1.652e+20
         3.74e-07         1.653e+20
         3.75e-07         1.654e+20
         3.76e-07         1.653e+20
         3.77e-07         1.652e+20
         3.78e-07         1.647e+20
         3.79e-07         1.652e+20
          3.8e-07         1.656e+20
         3.81e-07         1.659e+20
         3.82e-07          1.67e+20
         3.83e-07         1.669e+20
         3.84e-07         1.672e+20
         3.85e-07         1.676e+20
         3.86e-07         1.671e+20
         3.87e-07         1.675e+20
         3.88e-07         1.676e+20
         3.89e-07         1.675e+20
          3.9e-07         1.678e+20
         3.91e-07         1.676e+20
         3.92e-07         1.677e+20
         3.93e-07         1.677e+20
         3.94e-07         1.677e+20
         3.95e-07         1.674e+20
         3.96e-07         1.675e+20
         3.97e-07         1.674e+20
         3.98e-07         1.671e+20
         3.99e-07          1.67e+20
            4e-07         1.673e+20
         4.01e-07         1.672e+20
         4.02e-07         1.674e+20
         4.03e-07         1.681e+20
         4.04e-07         1.684e+20
         4.05e-07         1.683e+20
         4.06e-07         1.688e+20
         4.07e-07         1.689e+20
         4.08e-07         1.685e+20
         4.09e-07          1.69e+20
          4.1e-07         1.691e+20
         4.11e-07          1.69e+20
         4.12e-07         1.695e+20
         4.13e-07         1.696e+20
         4.14e-07         1.696e+20
         4.15e-07         1.696e+20
         4.16e-07         1.696e+20
         4.17e-07         1.692e+20
         4.18e-07         1.696e+20
         4.19e-07         1.698e+20
          4.2e-07           1.7e+20
         4.21e-07         1.697e+20
         4.22e-07         1.697e+20
         4.23e-07         1.699e+20
         4.24e-07         1.699e+20
         4.25e-07         1.709e+20
         4.26e-07         1.709e+20
         4.27e-07         1.709e+20
         4.28e-07         1.714e+20
         4.29e-07         1.719e+20
          4.3e-07         1.721e+20
         4.31e-07         1.723e+20
         4.32e-07         1.727e+20
         4.33e-07         1.727e+20
         4.34e-07         1.724e+20
         4.35e-07         1.722e+20
         4.36e-07         1.725e+20
         4.37e-07         1.729e+20
         4.38e-07         1.729e+20
         4.39e-07          1.73e+20
          4.4e-07         1.727e+20
         4.41e-07         1.725e+20
         4.42e-07         1.726e+20
         4.43e-07         1.726e+20
         4.44e-07         1.734e+20
         4.45e-07         1.731e+20
         4.46e-07         1.728e+20
         4.47e-07         1.727e+20
         4.48e-07         1.727e+20
         4.49e-07         1.727e+20
          4.5e-07         1.724e+20
         4.51e-07         1.722e+20
         4.52e-07         1.717e+20
         4.53e-07         1.717e+20
         4.54e-07         1.715e+20
         4.55e-07         1.715e+20
         4.56e-07         1.722e+20
         4.57e-07         1.722e+20
         4.58e-07         1.727e+20
         4.59e-07          1.73e+20
          4.6e-07         1.735e+20
         4.61e-07         1.733e+20
         4.62e-07         1.727e+20
         4.63e-07         1.724e+20
         4.64e-07         1.725e+20
         4.65e-07          1.72e+20
         4.66e-07          1.72e+20
         4.67e-07         1.718e+20
         4.68e-07         1.715e+20
         4.69e-07         1.716e+20
          4.7e-07         1.723e+20
         4.71e-07         1.723e+20
         4.72e-07         1.724e+20
         4.73e-07         1.729e+20
         4.74e-07         1.727e+20
         4.75e-07         1.725e+20
         4.76e-07         1.724e+20
         4.77e-07         1.728e+20
         4.78e-07         1.731e+20
         4.79e-07         1.732e+20
          4.8e-07         1.727e+20
         4.81e-07          1.73e+20
         4.82e-07         1.729e+20
         4.83e-07         1.729e+20
         4.84e-07         1.732e+20
         4.85e-07         1.733e+20
         4.86e-07         1.733e+20
         4.87e-07         1.737e+20
         4.88e-07         1.739e+20
         4.89e-07         1.743e+20
          4.9e-07         1.739e+20
         4.91e-07         1.736e+20
         4.92e-07         1.739e+20
         4.93e-07         1.741e+20
         4.94e-07         1.747e+20
         4.95e-07         1.748e+20
         4.96e-07          1.75e+20
         4.97e-07         1.753e+20
         4.98e-07         1.752e+20
         4.99e-07         1.749e+20
            5e-07         1.751e+20
         5.01e-07         1.754e+20
         5.02e-07         1.754e+20
         5.03e-07         1.747e+20
         5.04e-07         1.745e+20
         5.05e-07         1.745e+20
         5.06e-07         1.746e+20
         5.07e-07         1.747e+20
         5.08e-07         1.743e+20
         5.09e-07         1.742e+20
          5.1e-07         1.746e+20
         5.11e-07         1.745e+20
         5.12e-07         1.748e+20
         5.13e-07          1.75e+20
         5.14e-07         1.747e+20
         5.15e-07          1.75e+20
         5.16e-07         1.748e+20
         5.17e-07         1.748e+20
         5.18e-07         1.746e+20
         5.19e-07         1.754e+20
          5.2e-07         1.755e+20
         5.21e-07          1.76e+20
         5.22e-07         1.757e+20
         5.23e-07         1.757e+20
         5.24e-07         1.761e+20
         5.25e-07         1.763e+20
         5.26e-07         1.763e+20
         5.27e-07         1.765e+20
         5.28e-07         1.764e+20
         5.29e-07         1.765e+20
          5.3e-07         1.763e+20
         5.31e-07         1.763e+20
         5.32e-07          1.76e+20
         5.33e-07         1.762e+20
         5.34e-07         1.765e+20
         5.35e-07         1.765e+20
         5.36e-07         1.762e+20
         5.37e-07          1.76e+20
         5.38e-07         1.758e+20
         5.39e-07         1.757e+20
          5.4e-07         1.759e+20
         5.41e-07         1.763e+20
         5.42e-07         1.762e+20
         5.43e-07         1.762e+20
         5.44e-07         1.764e+20
         5.45e-07         1.763e+20
         5.46e-07         1.764e+20
         5.47e-07         1.765e+20
         5.48e-07         1.767e+20
         5.49e-07         1.767e+20
          5.5e-07         1.769e+20
         5.51e-07         1.768e+20
         5.52e-07         1.771e+20
         5.53e-07         1.771e+20
         5.54e-07         1.777e+20
         5.55e-07         1.775e+20
         5.56e-07         1.775e+20
         5.57e-07         1.778e+20
         5.58e-07         1.778e+20
         5.59e-07         1.775e+20
          5.6e-07         1.778e+20
         5.61e-07         1.782e+20
         5.62e-07         1.781e+20
         5.63e-07         1.783e+20
         5.64e-07         1.782e+20
         5.65e-07         1.783e+20
         5.66e-07         1.782e+20
         5.67e-07         1.783e+20
         5.68e-07          1.78e+20
         5.69e-07         1.778e+20
          5.7e-07         1.776e+20
         5.71e-07         1.781e+20
         5.72e-07         1.783e+20
         5.73e-07         1.783e+20
         5.74e-07         1.776e+20
         5.75e-07         1.775e+20
         5.76e-07         1.777e+20
         5.77e-07         1.776e+20
         5.78e-07         1.779e+20
         5.79e-07         1.779e+20
          5.8e-07         1.782e+20
         5.81e-07         1.781e+20
         5.82e-07          1.78e+20
         5.83e-07         1.779e+20
         5.84e-07         1.778e+20
         5.85e-07         1.781e+20
         5.86e-07         1.783e+20
         5.87e-07         1.785e+20
         5.88e-07         1.782e+20
         5.89e-07         1.782e+20
          5.9e-07         1.781e+20
         5.91e-07         1.781e+20
         5.92e-07         1.782e+20
         5.93e-07         1.789e+20
         5.94e-07         1.796e+20
         5.95e-07         1.804e+20
         5.96e-07         1.807e+20
         5.97e-07         1.807e+20
         5.98e-07         1.804e+20
         5.99e-07         1.806e+20
            6e-07         1.806e+20
         6.01e-07         1.808e+20
         6.02e-07         1.808e+20
         6.03e-07         1.807e+20
         6.04e-07         1.808e+20
         6.05e-07         1.809e+20
         6.06e-07          1.81e+20
         6.07e-07          1.81e+20
         6.08e-07         1.813e+20
         6.09e-07         1.816e+20
          6.1e-07         1.817e+20
         6.11e-07         1.818e+20
         6.12e-07         1.818e+20
         6.13e-07         1.817e+20
         6.14e-07         1.818e+20
         6.15e-07         1.816e+20
         6.16e-07         1.814e+20
         6.17e-07         1.817e+20
         6.18e-07         1.819e+20
         6.19e-07         1.817e+20
          6.2e-07          1.82e+20
         6.21e-07         1.821e+20
         6.22e-07         1.826e+20
         6.23e-07         1.823e+20
         6.24e-07         1.821e+20
         6.25e-07         1.821e+20
         6.26e-07         1.829e+20
         6.27e-07          1.83e+20
         6.28e-07          1.83e+20
         6.29e-07          1.83e+20
          6.3e-07         1.828e+20
         6.31e-07          1.83e+20
         6.32e-07         1.827e+20
         6.33e-07         1.823e+20
         6.34e-07         1.827e+20
         6.35e-07         1.826e+20
         6.36e-07         1.827e+20
         6.37e-07         1.829e+20
         6.38e-07          1.83e+20
         6.39e-07          1.83e+20
          6.4e-07         1.827e+20
         6.41e-07         1.828e+20
         6.42e-07         1.827e+20
         6.43e-07         1.828e+20
         6.44e-07         1.827e+20
         6.45e-07          1.83e+20
         6.46e-07         1.829e+20
         6.47e-07         1.829e+20
         6.48e-07          1.83e+20
         6.49e-07         1.828e+20
          6.5e-07         1.827e+20
         6.51e-07         1.825e+20
         6.52e-07         1.829e+20
         6.53e-07         1.833e+20
         6.54e-07         1.833e+20
         6.55e-07         1.834e+20
         6.56e-07         1.826e+20
         6.57e-07         1.829e+20
         6.58e-07         1.835e+20
         6.59e-07         1.838e+20
          6.6e-07         1.835e+20
         6.61e-07         1.836e+20
         6.62e-07         1.839e+20
         6.63e-07         1.839e+20
         6.64e-07         1.836e+20
         6.65e-07         1.836e+20
         6.66e-07         1.836e+20
         6.67e-07         1.834e+20
         6.68e-07         1.831e+20
         6.69e-07         1.831e+20
          6.7e-07         1.834e+20
         6.71e-07         1.831e+20
         6.72e-07         1.829e+20
         6.73e-07          1.83e+20
         6.74e-07         1.831e+20
         6.75e-07         1.835e+20
         6.76e-07         1.837e+20
         6.77e-07         1.834e+20
         6.78e-07         1.833e+20
         6.79e-07         1.839e+20
          6.8e-07         1.839e+20
         6.81e-07          1.84e+20
         6.82e-07         1.842e+20
         6.83e-07         1.844e+20
         6.84e-07         1.846e+20
         6.85e-07         1.843e+20
         6.86e-07         1.841e+20
         6.87e-07         1.849e+20
         6.88e-07         1.847e+20
         6.89e-07         1.847e+20
          6.9e-07         1.844e+20
         6.91e-07         1.844e+20
         6.92e-07         1.844e+20
         6.93e-07         1.847e+20
         6.94e-07         1.846e+20
         6.95e-07         1.848e+20
         6.96e-07         1.845e+20
         6.97e-07          1.84e+20
         6.98e-07         1.845e+20
         6.99e-07         1.844e+20
            7e-07         1.842e+20
         7.01e-07          1.84e+20
         7.02e-07         1.841e+20
         7.03e-07         1.845e+20
         7.04e-07         1.848e+20
         7.05e-07         1.846e+20
         7.06e-07         1.845e+20
         7.07e-07         1.842e+20
         7.08e-07         1.844e+20
         7.09e-07         1.841e+20
          7.1e-07          1.84e+20
         7.11e-07          1.84e+20
         7.12e-07         1.838e+20
         7.13e-07         1.838e+20
         7.14e-07         1.836e+20
         7.15e-07         1.832e+20
         7.16e-07         1.833e+20
         7.17e-07         1.833e+20
         7.18e-07         1.832e+20
         7.19e-07         1.832e+20
          7.2e-07         1.832e+20
         7.21e-07         1.832e+20
         7.22e-07         1.831e+20
         7.23e-07         1.833e+20
         7.24e-07         1.836e+20
         7.25e-07         1.832e+20
         7.26e-07         1.835e+20
         7.27e-07         1.836e+20
         7.28e-07         1.835e+20
         7.29e-07         1.837e+20
          7.3e-07         1.838e+20
         7.31e-07         1.836e+20
         7.32e-07         1.838e+20
         7.33e-07         1.833e+20
         7.34e-07          1.83e+20
         7.35e-07         1.829e+20
         7.36e-07         1.828e+20
         7.37e-07         1.831e+20
         7.38e-07         1.836e+20
         7.39e-07         1.843e+20
          7.4e-07         1.841e+20
         7.41e-07         1.843e+20
         7.42e-07         1.841e+20
         7.43e-07         1.841e+20
         7.44e-07         1.843e+20
         7.45e-07         1.843e+20
         7.46e-07         1.845e+20
         7.47e-07         1.841e+20
         7.48e-07         1.835e+20
         7.49e-07         1.835e+20
          7.5e-07         1.834e+20
         7.51e-07         1.832e+20
         7.52e-07         1.831e+20
         7.53e-07         1.834e+20
         7.54e-07         1.832e+20
         7.55e-07          1.83e+20
         7.56e-07          1.83e+20
         7.57e-07         1.836e+20
         7.58e-07         1.834e+20
         7.59e-07         1.834e+20
          7.6e-07         1.834e+20
         7.61e-07         1.834e+20
         7.62e-07         1.835e+20
         7.63e-07         1.831e+20
         7.64e-07         1.833e+20
         7.65e-07         1.829e+20
         7.66e-07         1.828e+20
         7.67e-07          1.83e+20
         7.68e-07         1.832e+20
         7.69e-07          1.83e+20
          7.7e-07         1.829e+20
         7.71e-07         1.825e+20
         7.72e-07         1.822e+20
         7.73e-07         1.825e+20
         7.74e-07         1.822e+20
         7.75e-07         1.821e+20
         7.76e-07         1.825e+20
         7.77e-07         1.826e+20
         7.78e-07         1.827e+20
         7.79e-07         1.827e+20
          7.8e-07         1.829e+20
         7.81e-07         1.828e+20
         7.82e-07         1.829e+20
         7.83e-07         1.829e+20
         7.84e-07         1.834e+20
         7.85e-07         1.833e+20
         7.86e-07         1.832e+20
         7.87e-07         1.833e+20
         7.88e-07         1.831e+20
         7.89e-07         1.834e+20
          7.9e-07         1.833e+20
         7.91e-07         1.835e+20
         7.92e-07         1.838e+20
         7.93e-07         1.834e+20
         7.94e-07         1.834e+20
         7.95e-07         1.827e+20
         7.96e-07         1.826e+20
         7.97e-07         1.828e+20
         7.98e-07         1.831e+20
         7.99e-07          1.83e+20
            8e-07         1.828e+20
         8.01e-07         1.825e+20
         8.02e-07          1.83e+20
         8.03e-07         1.829e+20
         8.04e-07         1.832e+20
         8.05e-07         1.833e+20
         8.06e-07         1.835e+20
         8.07e-07         1.838e+20
         8.08e-07         1.838e+20
         8.09e-07          1.84e+20
          8.1e-07         1.839e+20
         8.11e-07         1.835e+20
         8.12e-07         1.834e+20
         8.13e-07         1.833e+20
         8.14e-07         1.833e+20
         8.15e-07         1.831e+20
         8.16e-07         1.834e+20
         8.17e-07         1.835e+20
         8.18e-07         1.835e+20
         8.19e-07         1.835e+20
          8.2e-07         1.836e+20
         8.21e-07         1.837e+20
         8.22e-07         1.839e+20
         8.23e-07         1.836e+20
         8.24e-07         1.839e+20
         8.25e-07         1.839e+20
         8.26e-07         1.836e+20
         8.27e-07         1.842e+20
         8.28e-07         1.838e+20
         8.29e-07         1.839e+20
          8.3e-07         1.839e+20
         8.31e-07         1.836e+20