# Probe 0 (5e-06 5e-06 5e-06)
#           Probe                 0
#            Time
            1e-09          4.86e+19
            2e-09          1.03e+20
            3e-09         1.487e+20
            4e-09         1.935e+20
            5e-09         2.369e+20
            6e-09         2.821e+20
            7e-09         3.373e+20
            8e-09         3.831e+20
            9e-09         4.311e+20
            1e-08         4.737e+20
          1.1e-08          5.22e+20
          1.2e-08         5.631e+20
          1.3e-08          6.05e+20
          1.4e-08         6.488e+20
          1.5e-08          6.93e+20
          1.6e-08         7.415e+20
          1.7e-08         7.845e+20
          1.8e-08         8.265e+20
          1.9e-08         8.746e+20
            2e-08         9.217e+20
          2.1e-08         9.652e+20
          2.2e-08        1.0074e+21
          2.3e-08        1.0513e+21
          2.4e-08         1.091e+21
          2.5e-08        1.1293e+21
          2.6e-08        1.1735e+21
          2.7e-08        1.2166e+21
          2.8e-08        1.2634e+21
          2.9e-08        1.3083e+21
            3e-08        1.3506e+21
          3.1e-08        1.3953e+21
          3.2e-08        1.4436e+21
          3.3e-08        1.4835e+21
          3.4e-08        1.5236e+21
          3.5e-08        1.5654e+21
          3.6e-08        1.6108e+21
          3.7e-08        1.6555e+21
          3.8e-08        1.6982e+21
          3.9e-08        1.7402e+21
            4e-08        1.7766e+21
          4.1e-08        1.8184e+21
          4.2e-08        1.8584e+21
          4.3e-08        1.9049e+21
          4.4e-08        1.9398e+21
          4.5e-08        1.9804e+21
          4.6e-08        2.0212e+21
          4.7e-08         2.059e+21
          4.8e-08        2.1004e+21
          4.9e-08        2.1455e+21
            5e-08        2.1849e+21
          5.1e-08        2.2252e+21
          5.2e-08        2.2623e+21
          5.3e-08         2.306e+21
          5.4e-08        2.3487e+21
          5.5e-08        2.3856e+21
          5.6e-08        2.4262e+21
          5.7e-08        2.4652e+21
          5.8e-08        2.5031e+21
          5.9e-08        2.5429e+21
            6e-08         2.581e+21
          6.1e-08        2.6197e+21
          6.2e-08        2.6551e+21
          6.3e-08        2.6953e+21
          6.4e-08         2.733e+21
          6.5e-08        2.7722e+21
          6.6e-08        2.8099e+21
          6.7e-08        2.8489e+21
          6.8e-08        2.8882e+21
          6.9e-08        2.9263e+21
            7e-08         2.967e+21
          7.1e-08        3.0044e+21
          7.2e-08        3.0381e+21
          7.3e-08        3.0762e+21
          7.4e-08        3.1126e+21
          7.5e-08        3.1491e+21
          7.6e-08        3.1817e+21
          7.7e-08        3.2229e+21
          7.8e-08        3.2583e+21
          7.9e-08        3.2957e+21
            8e-08        3.3286e+21
          8.1e-08        3.3629e+21
          8.2e-08        3.3983e+21
          8.3e-08        3.4373e+21
          8.4e-08        3.4717e+21
          8.5e-08        3.5022e+21
          8.6e-08        3.5375e+21
          8.7e-08        3.5691e+21
          8.8e-08        3.6052e+21
          8.9e-08        3.6375e+21
            9e-08         3.671e+21
          9.1e-08        3.7055e+21
          9.2e-08        3.7394e+21
          9.3e-08        3.7758e+21
          9.4e-08        3.8086e+21
          9.5e-08        3.8427e+21
          9.6e-08        3.8701e+21
          9.7e-08        3.9046e+21
          9.8e-08        3.9386e+21
          9.9e-08        3.9697e+21
            1e-07        4.0022e+21
         1.01e-07        4.0366e+21
         1.02e-07         4.075e+21
         1.03e-07        4.1054e+21
         1.04e-07        4.1393e+21
         1.05e-07        4.1735e+21
         1.06e-07        4.2074e+21
         1.07e-07        4.2436e+21
         1.08e-07        4.2763e+21
         1.09e-07        4.3098e+21
          1.1e-07        4.3381e+21
         1.11e-07        4.3698e+21
         1.12e-07        4.3986e+21
         1.13e-07        4.4279e+21
         1.14e-07        4.4596e+21
         1.15e-07        4.4928e+21
         1.16e-07        4.5235e+21
         1.17e-07        4.5544e+21
         1.18e-07        4.5821e+21
         1.19e-07        4.6113e+21
          1.2e-07        4.6396e+21
         1.21e-07        4.6711e+21
         1.22e-07        4.6968e+21
         1.23e-07         4.728e+21
         1.24e-07        4.7602e+21
         1.25e-07        4.7907e+21
         1.26e-07        4.8221e+21
         1.27e-07         4.848e+21
         1.28e-07         4.874e+21
         1.29e-07        4.9014e+21
          1.3e-07         4.928e+21
         1.31e-07        4.9564e+21
         1.32e-07        4.9856e+21
         1.33e-07        5.0135e+21
         1.34e-07        5.0413e+21
         1.35e-07         5.065e+21
         1.36e-07        5.0887e+21
         1.37e-07        5.1136e+21
         1.38e-07        5.1406e+21
         1.39e-07        5.1681e+21
          1.4e-07        5.1935e+21
         1.41e-07        5.2227e+21
         1.42e-07        5.2532e+21
         1.43e-07        5.2776e+21
         1.44e-07        5.3036e+21
         1.45e-07        5.3297e+21
         1.46e-07        5.3552e+21
         1.47e-07        5.3786e+21
         1.48e-07        5.4021e+21
         1.49e-07        5.4293e+21
          1.5e-07        5.4542e+21
         1.51e-07        5.4789e+21
         1.52e-07        5.5015e+21
         1.53e-07        5.5267e+21
         1.54e-07        5.5484e+21
         1.55e-07        5.5695e+21
         1.56e-07        5.5931e+21
         1.57e-07        5.6155e+21
         1.58e-07        5.6396e+21
         1.59e-07        5.6635e+21
          1.6e-07        5.6864e+21
         1.61e-07        5.7128e+21
         1.62e-07        5.7337e+21
         1.63e-07        5.7558e+21
         1.64e-07        5.7807e+21
         1.65e-07        5.8047e+21
         1.66e-07        5.8278e+21
         1.67e-07        5.8468e+21
         1.68e-07        5.8659e+21
         1.69e-07        5.8887e+21
          1.7e-07         5.911e+21
         1.71e-07        5.9337e+21
         1.72e-07        5.9546e+21
         1.73e-07        5.9757e+21
         1.74e-07        5.9981e+21
         1.75e-07        6.0199e+21
         1.76e-07        6.0404e+21
         1.77e-07        6.0604e+21
         1.78e-07        6.0797e+21
         1.79e-07        6.1019e+21
          1.8e-07        6.1187e+21
         1.81e-07        6.1395e+21
         1.82e-07        6.1615e+21
         1.83e-07        6.1806e+21
         1.84e-07        6.2002e+21
         1.85e-07        6.2227e+21
         1.86e-07        6.2421e+21
         1.87e-07         6.264e+21
         1.88e-07        6.2848e+21
         1.89e-07        6.3013e+21
          1.9e-07        6.3227e+21
         1.91e-07        6.3412e+21
         1.92e-07        6.3626e+21
         1.93e-07        6.3834e+21
         1.94e-07        6.4034e+21
         1.95e-07        6.4218e+21
         1.96e-07        6.4411e+21
         1.97e-07        6.4605e+21
         1.98e-07        6.4797e+21
         1.99e-07        6.5027e+21
            2e-07        6.5201e+21
         2.01e-07        6.5367e+21
         2.02e-07        6.5554e+21
         2.03e-07        6.5718e+21
         2.04e-07        6.5932e+21
         2.05e-07          6.61e+21
         2.06e-07        6.6254e+21
         2.07e-07        6.6458e+21
         2.08e-07        6.6616e+21
         2.09e-07        6.6821e+21
          2.1e-07        6.7013e+21
         2.11e-07         6.718e+21
         2.12e-07        6.7368e+21
         2.13e-07         6.754e+21
         2.14e-07        6.7714e+21
         2.15e-07        6.7918e+21
         2.16e-07        6.8108e+21
         2.17e-07        6.8289e+21
         2.18e-07        6.8472e+21
         2.19e-07         6.867e+21
          2.2e-07        6.8831e+21
         2.21e-07        6.9066e+21
         2.22e-07         6.923e+21
         2.23e-07        6.9393e+21
         2.24e-07        6.9553e+21
         2.25e-07        6.9727e+21
         2.26e-07        6.9896e+21
         2.27e-07        7.0039e+21
         2.28e-07        7.0203e+21
         2.29e-07        7.0357e+21
          2.3e-07        7.0517e+21
         2.31e-07        7.0708e+21
         2.32e-07        7.0885e+21
         2.33e-07        7.1044e+21
         2.34e-07        7.1198e+21
         2.35e-07        7.1385e+21
         2.36e-07        7.1552e+21
         2.37e-07        7.1714e+21
         2.38e-07        7.1893e+21
         2.39e-07         7.204e+21
          2.4e-07        7.2196e+21
         2.41e-07        7.2373e+21
         2.42e-07        7.2533e+21
         2.43e-07        7.2669e+21
         2.44e-07        7.2804e+21
         2.45e-07        7.2959e+21
         2.46e-07         7.312e+21
         2.47e-07        7.3283e+21
         2.48e-07        7.3399e+21
         2.49e-07        7.3549e+21
          2.5e-07        7.3696e+21
         2.51e-07        7.3851e+21
         2.52e-07         7.397e+21
         2.53e-07        7.4127e+21
         2.54e-07        7.4295e+21
         2.55e-07         7.444e+21
         2.56e-07        7.4599e+21
         2.57e-07        7.4746e+21
         2.58e-07        7.4886e+21
         2.59e-07        7.5033e+21
          2.6e-07        7.5175e+21
         2.61e-07        7.5307e+21
         2.62e-07         7.548e+21
         2.63e-07        7.5628e+21
         2.64e-07         7.579e+21
         2.65e-07        7.5922e+21
         2.66e-07        7.6046e+21
         2.67e-07        7.6169e+21
         2.68e-07         7.631e+21
         2.69e-07        7.6455e+21
          2.7e-07         7.661e+21
         2.71e-07        7.6732e+21
         2.72e-07        7.6887e+21
         2.73e-07         7.705e+21
         2.74e-07        7.7204e+21
         2.75e-07        7.7351e+21
         2.76e-07         7.746e+21
         2.77e-07        7.7635e+21
         2.78e-07        7.7773e+21
         2.79e-07        7.7911e+21
          2.8e-07        7.8017e+21
         2.81e-07        7.8163e+21
         2.82e-07        7.8306e+21
         2.83e-07        7.8452e+21
         2.84e-07          7.86e+21
         2.85e-07        7.8731e+21
         2.86e-07        7.8864e+21
         2.87e-07         7.895e+21
         2.88e-07        7.9069e+21
         2.89e-07          7.92e+21
          2.9e-07        7.9322e+21
         2.91e-07        7.9464e+21
         2.92e-07        7.9614e+21
         2.93e-07        7.9729e+21
         2.94e-07        7.9836e+21
         2.95e-07        7.9982e+21
         2.96e-07        8.0113e+21
         2.97e-07        8.0244e+21
         2.98e-07        8.0368e+21
         2.99e-07        8.0495e+21
            3e-07        8.0617e+21
         3.01e-07        8.0747e+21
         3.02e-07        8.0887e+21
         3.03e-07         8.099e+21
         3.04e-07        8.1116e+21
         3.05e-07        8.1256e+21
         3.06e-07        8.1378e+21
         3.07e-07        8.1517e+21
         3.08e-07        8.1616e+21
         3.09e-07        8.1739e+21
          3.1e-07        8.1839e+21
         3.11e-07        8.1954e+21
         3.12e-07        8.2078e+21
         3.13e-07        8.2186e+21
         3.14e-07        8.2306e+21
         3.15e-07        8.2422e+21
         3.16e-07        8.2515e+21
         3.17e-07        8.2639e+21
         3.18e-07        8.2753e+21
         3.19e-07         8.285e+21
          3.2e-07        8.2962e+21
         3.21e-07        8.3074e+21
         3.22e-07        8.3185e+21
         3.23e-07         8.329e+21
         3.24e-07        8.3408e+21
         3.25e-07         8.354e+21
         3.26e-07        8.3693e+21
         3.27e-07        8.3785e+21
         3.28e-07        8.3914e+21
         3.29e-07        8.4011e+21
          3.3e-07         8.413e+21
         3.31e-07        8.4236e+21
         3.32e-07        8.4337e+21
         3.33e-07        8.4428e+21
         3.34e-07        8.4528e+21
         3.35e-07         8.465e+21
         3.36e-07        8.4754e+21
         3.37e-07        8.4867e+21
         3.38e-07        8.4988e+21
         3.39e-07        8.5099e+21
          3.4e-07        8.5194e+21
         3.41e-07        8.5297e+21
         3.42e-07        8.5411e+21
         3.43e-07        8.5513e+21
         3.44e-07        8.5611e+21
         3.45e-07        8.5734e+21
         3.46e-07        8.5842e+21
         3.47e-07        8.5927e+21
         3.48e-07         8.602e+21
         3.49e-07        8.6121e+21
          3.5e-07        8.6246e+21
         3.51e-07        8.6356e+21
         3.52e-07        8.6442e+21
         3.53e-07        8.6504e+21
         3.54e-07        8.6603e+21
         3.55e-07        8.6701e+21
         3.56e-07        8.6798e+21
         3.57e-07        8.6885e+21
         3.58e-07        8.6983e+21
         3.59e-07        8.7075e+21
          3.6e-07        8.7194e+21
         3.61e-07        8.7271e+21
         3.62e-07        8.7393e+21
         3.63e-07        8.7496e+21
         3.64e-07        8.7596e+21
         3.65e-07        8.7678e+21
         3.66e-07        8.7771e+21
         3.67e-07        8.7862e+21
         3.68e-07        8.7954e+21
         3.69e-07        8.8035e+21
          3.7e-07        8.8124e+21
         3.71e-07         8.819e+21
         3.72e-07        8.8278e+21
         3.73e-07         8.835e+21
         3.74e-07        8.8461e+21
         3.75e-07        8.8568e+21
         3.76e-07        8.8671e+21
         3.77e-07        8.8758e+21
         3.78e-07        8.8841e+21
         3.79e-07        8.8928e+21
          3.8e-07        8.9016e+21
         3.81e-07        8.9113e+21
         3.82e-07        8.9186e+21
         3.83e-07        8.9299e+21
         3.84e-07        8.9354e+21
         3.85e-07        8.9444e+21
         3.86e-07        8.9539e+21
         3.87e-07        8.9613e+21
         3.88e-07        8.9684e+21
         3.89e-07        8.9783e+21
          3.9e-07        8.9884e+21
         3.91e-07         8.996e+21
         3.92e-07        9.0041e+21
         3.93e-07        9.0135e+21
         3.94e-07        9.0235e+21
         3.95e-07        9.0338e+21
         3.96e-07        9.0429e+21
         3.97e-07         9.049e+21
         3.98e-07        9.0579e+21
         3.99e-07        9.0664e+21
            4e-07        9.0765e+21
         4.01e-07        9.0884e+21
         4.02e-07        9.0956e+21
         4.03e-07        9.1059e+21
         4.04e-07        9.1128e+21
         4.05e-07        9.1211e+21
         4.06e-07        9.1306e+21
         4.07e-07        9.1377e+21
         4.08e-07        9.1461e+21
         4.09e-07        9.1556e+21
          4.1e-07        9.1621e+21
         4.11e-07        9.1688e+21
         4.12e-07        9.1753e+21
         4.13e-07        9.1834e+21
         4.14e-07        9.1926e+21
         4.15e-07        9.1998e+21
         4.16e-07        9.2084e+21
         4.17e-07        9.2156e+21
         4.18e-07         9.224e+21
         4.19e-07        9.2328e+21
          4.2e-07        9.2396e+21
         4.21e-07        9.2461e+21
         4.22e-07        9.2537e+21
         4.23e-07        9.2621e+21
         4.24e-07        9.2715e+21
         4.25e-07        9.2819e+21
         4.26e-07        9.2887e+21
         4.27e-07        9.2969e+21
         4.28e-07        9.3042e+21
         4.29e-07        9.3115e+21
          4.3e-07        9.3197e+21
         4.31e-07        9.3295e+21
         4.32e-07        9.3391e+21
         4.33e-07        9.3461e+21
         4.34e-07        9.3532e+21
         4.35e-07        9.3594e+21
         4.36e-07        9.3681e+21
         4.37e-07        9.3763e+21
         4.38e-07        9.3845e+21
         4.39e-07         9.392e+21
          4.4e-07        9.3987e+21
         4.41e-07        9.4057e+21
         4.42e-07        9.4124e+21
         4.43e-07        9.4194e+21
         4.44e-07         9.427e+21
         4.45e-07        9.4333e+21
         4.46e-07         9.439e+21
         4.47e-07        9.4455e+21
         4.48e-07        9.4519e+21
         4.49e-07        9.4583e+21
          4.5e-07        9.4658e+21
         4.51e-07        9.4732e+21
         4.52e-07        9.4801e+21
         4.53e-07        9.4879e+21
         4.54e-07        9.4947e+21
         4.55e-07        9.5025e+21
         4.56e-07        9.5098e+21
         4.57e-07        9.5162e+21
         4.58e-07        9.5227e+21
         4.59e-07        9.5328e+21
          4.6e-07        9.5385e+21
         4.61e-07        9.5479e+21
         4.62e-07        9.5537e+21
         4.63e-07         9.562e+21
         4.64e-07        9.5691e+21
         4.65e-07        9.5754e+21
         4.66e-07        9.5806e+21
         4.67e-07         9.588e+21
         4.68e-07        9.5923e+21
         4.69e-07        9.5988e+21
          4.7e-07        9.6059e+21
         4.71e-07        9.6153e+21
         4.72e-07        9.6218e+21
         4.73e-07        9.6281e+21
         4.74e-07        9.6351e+21
         4.75e-07        9.6411e+21
         4.76e-07         9.648e+21
         4.77e-07        9.6556e+21
         4.78e-07        9.6611e+21
         4.79e-07        9.6698e+21
          4.8e-07        9.6763e+21
         4.81e-07        9.6816e+21
         4.82e-07        9.6891e+21
         4.83e-07        9.6971e+21
         4.84e-07        9.7052e+21
         4.85e-07        9.7127e+21
         4.86e-07        9.7181e+21
         4.87e-07        9.7235e+21
         4.88e-07        9.7279e+21
         4.89e-07        9.7343e+21
          4.9e-07        9.7421e+21
         4.91e-07        9.7492e+21
         4.92e-07        9.7561e+21
         4.93e-07        9.7653e+21
         4.94e-07        9.7717e+21
         4.95e-07        9.7776e+21
         4.96e-07        9.7838e+21
         4.97e-07        9.7869e+21
         4.98e-07         9.794e+21
         4.99e-07        9.7991e+21
            5e-07        9.8041e+21
         5.01e-07        9.8102e+21
         5.02e-07        9.8162e+21
         5.03e-07        9.8235e+21
         5.04e-07        9.8293e+21
         5.05e-07        9.8349e+21
         5.06e-07        9.8422e+21
         5.07e-07        9.8479e+21
         5.08e-07        9.8539e+21
         5.09e-07        9.8588e+21
          5.1e-07        9.8668e+21
         5.11e-07        9.8735e+21
         5.12e-07        9.8798e+21
         5.13e-07        9.8854e+21
         5.14e-07        9.8923e+21
         5.15e-07        9.8976e+21
         5.16e-07         9.903e+21
         5.17e-07        9.9092e+21
         5.18e-07         9.915e+21
         5.19e-07        9.9198e+21
          5.2e-07        9.9239e+21
         5.21e-07          9.93e+21
         5.22e-07        9.9381e+21
         5.23e-07        9.9439e+21
         5.24e-07        9.9503e+21
         5.25e-07        9.9583e+21
         5.26e-07        9.9621e+21
         5.27e-07        9.9675e+21
         5.28e-07        9.9742e+21
         5.29e-07        9.9779e+21
          5.3e-07        9.9847e+21
         5.31e-07        9.9901e+21
         5.32e-07        9.9932e+21
         5.33e-07         9.999e+21
         5.34e-07       1.00047e+22
         5.35e-07       1.00103e+22
         5.36e-07       1.00168e+22
         5.37e-07       1.00218e+22
         5.38e-07       1.00278e+22
         5.39e-07       1.00339e+22
          5.4e-07       1.00389e+22
         5.41e-07       1.00431e+22
         5.42e-07       1.00488e+22
         5.43e-07       1.00548e+22
         5.44e-07         1.006e+22
         5.45e-07       1.00665e+22
         5.46e-07       1.00726e+22
         5.47e-07       1.00787e+22
         5.48e-07       1.00871e+22
         5.49e-07       1.00921e+22
          5.5e-07       1.00987e+22
         5.51e-07       1.01054e+22
         5.52e-07       1.01105e+22
         5.53e-07       1.01165e+22
         5.54e-07       1.01227e+22
         5.55e-07       1.01299e+22
         5.56e-07       1.01353e+22
         5.57e-07       1.01418e+22
         5.58e-07        1.0149e+22
         5.59e-07       1.01551e+22
          5.6e-07        1.0163e+22
         5.61e-07       1.01682e+22
         5.62e-07       1.01739e+22
         5.63e-07       1.01811e+22
         5.64e-07       1.01884e+22
         5.65e-07       1.01939e+22
         5.66e-07          1.02e+22
         5.67e-07       1.02057e+22
         5.68e-07        1.0212e+22
         5.69e-07       1.02198e+22
          5.7e-07       1.02264e+22
         5.71e-07       1.02317e+22
         5.72e-07       1.02359e+22
         5.73e-07       1.02417e+22
         5.74e-07       1.02486e+22
         5.75e-07       1.02541e+22
         5.76e-07       1.02591e+22
         5.77e-07        1.0263e+22
         5.78e-07       1.02683e+22
         5.79e-07       1.02729e+22
          5.8e-07        1.0277e+22
         5.81e-07       1.02817e+22
         5.82e-07       1.02862e+22
         5.83e-07       1.02911e+22
         5.84e-07       1.02968e+22
         5.85e-07       1.03015e+22
         5.86e-07       1.03067e+22
         5.87e-07       1.03131e+22
         5.88e-07       1.03192e+22
         5.89e-07       1.03236e+22
          5.9e-07       1.03277e+22
         5.91e-07       1.03343e+22
         5.92e-07       1.03392e+22
         5.93e-07       1.03435e+22
         5.94e-07       1.03486e+22
         5.95e-07       1.03528e+22
         5.96e-07       1.03561e+22
         5.97e-07       1.03617e+22
         5.98e-07       1.03676e+22
         5.99e-07        1.0373e+22
            6e-07       1.03778e+22
         6.01e-07        1.0382e+22
         6.02e-07       1.03854e+22
         6.03e-07       1.03911e+22
         6.04e-07        1.0396e+22
         6.05e-07       1.04021e+22
         6.06e-07       1.04076e+22
         6.07e-07       1.04122e+22
         6.08e-07       1.04179e+22
         6.09e-07       1.04244e+22
          6.1e-07       1.04279e+22
         6.11e-07        1.0431e+22
         6.12e-07       1.04384e+22
         6.13e-07       1.04431e+22
         6.14e-07       1.04482e+22
         6.15e-07       1.04532e+22
         6.16e-07       1.04576e+22
         6.17e-07       1.04627e+22
         6.18e-07       1.04667e+22
         6.19e-07       1.04735e+22
          6.2e-07       1.04782e+22
         6.21e-07       1.04821e+22
         6.22e-07        1.0485e+22
         6.23e-07       1.04911e+22
         6.24e-07       1.04959e+22
         6.25e-07       1.05009e+22
         6.26e-07       1.05077e+22
         6.27e-07       1.05122e+22
         6.28e-07       1.05182e+22
         6.29e-07        1.0522e+22
          6.3e-07       1.05278e+22
         6.31e-07       1.05322e+22
         6.32e-07       1.05369e+22
         6.33e-07       1.05421e+22
         6.34e-07       1.05469e+22
         6.35e-07       1.05518e+22
         6.36e-07       1.05565e+22
         6.37e-07       1.05621e+22
         6.38e-07       1.05654e+22
         6.39e-07        1.0571e+22
          6.4e-07       1.05743e+22
         6.41e-07       1.05782e+22
         6.42e-07       1.05805e+22
         6.43e-07       1.05852e+22
         6.44e-07       1.05901e+22
         6.45e-07       1.05958e+22
         6.46e-07       1.06009e+22
         6.47e-07       1.06051e+22
         6.48e-07       1.06094e+22
         6.49e-07       1.06164e+22
          6.5e-07       1.06215e+22
         6.51e-07       1.06259e+22
         6.52e-07       1.06311e+22
         6.53e-07       1.06375e+22
         6.54e-07       1.06427e+22
         6.55e-07       1.06476e+22
         6.56e-07       1.06514e+22
         6.57e-07       1.06557e+22
         6.58e-07       1.06619e+22
         6.59e-07       1.06672e+22
          6.6e-07       1.06713e+22
         6.61e-07       1.06772e+22
         6.62e-07       1.06819e+22
         6.63e-07       1.06861e+22
         6.64e-07       1.06918e+22
         6.65e-07       1.06968e+22
         6.66e-07       1.07016e+22
         6.67e-07       1.07048e+22
         6.68e-07       1.07091e+22
         6.69e-07       1.07137e+22
          6.7e-07       1.07182e+22
         6.71e-07       1.07235e+22
         6.72e-07       1.07269e+22
         6.73e-07         1.073e+22
         6.74e-07       1.07337e+22
         6.75e-07       1.07385e+22
         6.76e-07       1.07435e+22
         6.77e-07       1.07486e+22
         6.78e-07       1.07525e+22
         6.79e-07       1.07575e+22
          6.8e-07       1.07629e+22
         6.81e-07       1.07672e+22
         6.82e-07        1.0769e+22
         6.83e-07       1.07722e+22
         6.84e-07       1.07752e+22
         6.85e-07       1.07803e+22
         6.86e-07       1.07847e+22
         6.87e-07       1.07887e+22
         6.88e-07       1.07935e+22
         6.89e-07       1.07973e+22
          6.9e-07       1.08018e+22
         6.91e-07       1.08068e+22
         6.92e-07       1.08104e+22
         6.93e-07       1.08143e+22
         6.94e-07       1.08198e+22
         6.95e-07        1.0824e+22
         6.96e-07       1.08279e+22
         6.97e-07       1.08338e+22
         6.98e-07       1.08387e+22
         6.99e-07       1.08426e+22
            7e-07       1.08464e+22
         7.01e-07       1.08514e+22
         7.02e-07       1.08549e+22
         7.03e-07       1.08593e+22
         7.04e-07       1.08628e+22
         7.05e-07       1.08658e+22
         7.06e-07       1.08703e+22
         7.07e-07       1.08736e+22
         7.08e-07       1.08774e+22
         7.09e-07       1.08803e+22
          7.1e-07       1.08832e+22
         7.11e-07        1.0887e+22
         7.12e-07       1.08906e+22
         7.13e-07       1.08958e+22
         7.14e-07       1.08994e+22
         7.15e-07       1.09038e+22
         7.16e-07       1.09063e+22
         7.17e-07       1.09111e+22
         7.18e-07        1.0916e+22
         7.19e-07       1.09206e+22
          7.2e-07       1.09262e+22
         7.21e-07       1.09296e+22
         7.22e-07       1.09337e+22
         7.23e-07       1.09383e+22
         7.24e-07       1.09418e+22
         7.25e-07       1.09452e+22
         7.26e-07       1.09493e+22
         7.27e-07       1.09534e+22
         7.28e-07       1.09573e+22
         7.29e-07       1.09621e+22
          7.3e-07       1.09662e+22
         7.31e-07        1.0969e+22
         7.32e-07        1.0972e+22
         7.33e-07       1.09779e+22
         7.34e-07        1.0981e+22
         7.35e-07       1.09853e+22
         7.36e-07       1.09902e+22
         7.37e-07       1.09947e+22
         7.38e-07       1.09978e+22
         7.39e-07       1.10003e+22
          7.4e-07       1.10039e+22
         7.41e-07       1.10083e+22
         7.42e-07       1.10113e+22
         7.43e-07       1.10163e+22
         7.44e-07       1.10207e+22
         7.45e-07       1.10227e+22
         7.46e-07       1.10249e+22
         7.47e-07       1.10287e+22
         7.48e-07       1.10335e+22
         7.49e-07       1.10391e+22
          7.5e-07       1.10422e+22
         7.51e-07        1.1046e+22
         7.52e-07       1.10483e+22
         7.53e-07        1.1053e+22
         7.54e-07       1.10554e+22
         7.55e-07       1.10588e+22
         7.56e-07       1.10616e+22
         7.57e-07       1.10648e+22
         7.58e-07       1.10696e+22
         7.59e-07       1.10734e+22
          7.6e-07       1.10766e+22
         7.61e-07       1.10802e+22
         7.62e-07       1.10849e+22
         7.63e-07       1.10899e+22
         7.64e-07       1.10945e+22
         7.65e-07       1.10969e+22
         7.66e-07       1.11008e+22
         7.67e-07       1.11044e+22
         7.68e-07       1.11082e+22
         7.69e-07       1.11118e+22
          7.7e-07       1.11159e+22
         7.71e-07       1.11191e+22
         7.72e-07       1.11224e+22
         7.73e-07       1.11267e+22
         7.74e-07       1.11318e+22
         7.75e-07       1.11355e+22
         7.76e-07       1.11389e+22
         7.77e-07       1.11424e+22
         7.78e-07       1.11445e+22
         7.79e-07       1.11479e+22
          7.8e-07       1.11527e+22
         7.81e-07       1.11562e+22
         7.82e-07       1.11605e+22
         7.83e-07       1.11631e+22
         7.84e-07       1.11686e+22
         7.85e-07       1.11715e+22
         7.86e-07        1.1174e+22
         7.87e-07       1.11771e+22
         7.88e-07       1.11815e+22
         7.89e-07       1.11854e+22
          7.9e-07       1.11891e+22
         7.91e-07       1.11921e+22
         7.92e-07       1.11954e+22
         7.93e-07       1.11984e+22
         7.94e-07       1.12008e+22
         7.95e-07       1.12041e+22
         7.96e-07        1.1208e+22
         7.97e-07        1.1211e+22
         7.98e-07       1.12145e+22
         7.99e-07       1.12174e+22
            8e-07       1.12218e+22
         8.01e-07       1.12257e+22
         8.02e-07       1.12304e+22
         8.03e-07       1.12337e+22
         8.04e-07       1.12366e+22
         8.05e-07       1.12415e+22
         8.06e-07       1.12443e+22
         8.07e-07        1.1248e+22
         8.08e-07       1.12506e+22
         8.09e-07        1.1255e+22
          8.1e-07       1.12581e+22
         8.11e-07       1.12611e+22
         8.12e-07       1.12642e+22
         8.13e-07       1.12689e+22
         8.14e-07       1.12711e+22
         8.15e-07       1.12757e+22
         8.16e-07       1.12792e+22
         8.17e-07       1.12817e+22
         8.18e-07       1.12847e+22
         8.19e-07       1.12873e+22
          8.2e-07       1.12894e+22
         8.21e-07       1.12925e+22
         8.22e-07       1.12961e+22
         8.23e-07       1.12996e+22
         8.24e-07       1.13047e+22
         8.25e-07       1.13071e+22
         8.26e-07       1.13104e+22
         8.27e-07       1.13138e+22
         8.28e-07       1.13166e+22
         8.29e-07       1.13203e+22
          8.3e-07       1.13243e+22
         8.31e-07       1.13282e+22