# Probe 0 (5e-06 5e-06 5e-06)
#           Probe                 0
#            Time
            1e-09       1.21509e+22
            2e-09       1.21237e+22
            3e-09       1.21008e+22
            4e-09       1.20783e+22
            5e-09       1.20566e+22
            6e-09       1.20339e+22
            7e-09       1.20062e+22
            8e-09       1.19833e+22
            9e-09       1.19592e+22
            1e-08       1.19378e+22
          1.1e-08       1.19136e+22
          1.2e-08       1.18929e+22
          1.3e-08       1.18717e+22
          1.4e-08       1.18497e+22
          1.5e-08       1.18275e+22
          1.6e-08       1.18032e+22
          1.7e-08       1.17817e+22
          1.8e-08       1.17605e+22
          1.9e-08       1.17364e+22
            2e-08       1.17127e+22
          2.1e-08       1.16906e+22
          2.2e-08       1.16692e+22
          2.3e-08       1.16471e+22
          2.4e-08        1.1627e+22
          2.5e-08       1.16076e+22
          2.6e-08       1.15853e+22
          2.7e-08       1.15636e+22
          2.8e-08       1.15402e+22
          2.9e-08       1.15174e+22
            3e-08        1.1496e+22
          3.1e-08       1.14733e+22
          3.2e-08       1.14491e+22
          3.3e-08        1.1429e+22
          3.4e-08       1.14088e+22
          3.5e-08       1.13875e+22
          3.6e-08       1.13645e+22
          3.7e-08       1.13419e+22
          3.8e-08       1.13204e+22
          3.9e-08       1.12991e+22
            4e-08       1.12808e+22
          4.1e-08       1.12595e+22
          4.2e-08       1.12393e+22
          4.3e-08       1.12158e+22
          4.4e-08       1.11979e+22
          4.5e-08       1.11775e+22
          4.6e-08       1.11568e+22
          4.7e-08       1.11377e+22
          4.8e-08       1.11167e+22
          4.9e-08       1.10939e+22
            5e-08       1.10739e+22
          5.1e-08       1.10536e+22
          5.2e-08       1.10349e+22
          5.3e-08       1.10129e+22
          5.4e-08       1.09914e+22
          5.5e-08       1.09728e+22
          5.6e-08       1.09523e+22
          5.7e-08       1.09324e+22
          5.8e-08       1.09131e+22
          5.9e-08       1.08929e+22
            6e-08       1.08733e+22
          6.1e-08       1.08533e+22
          6.2e-08       1.08355e+22
          6.3e-08       1.08151e+22
          6.4e-08       1.07959e+22
          6.5e-08       1.07758e+22
          6.6e-08       1.07569e+22
          6.7e-08       1.07373e+22
          6.8e-08       1.07175e+22
          6.9e-08       1.06982e+22
            7e-08       1.06775e+22
          7.1e-08       1.06584e+22
          7.2e-08       1.06412e+22
          7.3e-08       1.06216e+22
          7.4e-08       1.06033e+22
          7.5e-08       1.05845e+22
          7.6e-08       1.05677e+22
          7.7e-08       1.05467e+22
          7.8e-08       1.05286e+22
          7.9e-08       1.05094e+22
            8e-08       1.04924e+22
          8.1e-08       1.04748e+22
          8.2e-08       1.04566e+22
          8.3e-08       1.04368e+22
          8.4e-08       1.04192e+22
          8.5e-08       1.04033e+22
          8.6e-08       1.03856e+22
          8.7e-08       1.03692e+22
          8.8e-08       1.03506e+22
          8.9e-08       1.03342e+22
            9e-08       1.03169e+22
          9.1e-08       1.02994e+22
          9.2e-08       1.02821e+22
          9.3e-08       1.02633e+22
          9.4e-08       1.02467e+22
          9.5e-08       1.02297e+22
          9.6e-08       1.02157e+22
          9.7e-08       1.01981e+22
          9.8e-08       1.01808e+22
          9.9e-08       1.01649e+22
            1e-07       1.01483e+22
         1.01e-07       1.01305e+22
         1.02e-07       1.01107e+22
         1.03e-07       1.00952e+22
         1.04e-07       1.00779e+22
         1.05e-07       1.00604e+22
         1.06e-07       1.00433e+22
         1.07e-07       1.00249e+22
         1.08e-07        1.0008e+22
         1.09e-07         9.991e+21
          1.1e-07        9.9768e+21
         1.11e-07        9.9607e+21
         1.12e-07        9.9462e+21
         1.13e-07        9.9314e+21
         1.14e-07        9.9153e+21
         1.15e-07        9.8985e+21
         1.16e-07        9.8825e+21
         1.17e-07        9.8669e+21
         1.18e-07        9.8527e+21
         1.19e-07        9.8376e+21
          1.2e-07        9.8231e+21
         1.21e-07         9.807e+21
         1.22e-07        9.7939e+21
         1.23e-07        9.7779e+21
         1.24e-07        9.7617e+21
         1.25e-07        9.7464e+21
         1.26e-07        9.7303e+21
         1.27e-07         9.717e+21
         1.28e-07        9.7036e+21
         1.29e-07        9.6896e+21
          1.3e-07         9.676e+21
         1.31e-07        9.6615e+21
         1.32e-07        9.6467e+21
         1.33e-07        9.6322e+21
         1.34e-07         9.618e+21
         1.35e-07        9.6059e+21
         1.36e-07        9.5938e+21
         1.37e-07        9.5811e+21
         1.38e-07        9.5674e+21
         1.39e-07        9.5532e+21
          1.4e-07        9.5402e+21
         1.41e-07        9.5254e+21
         1.42e-07        9.5096e+21
         1.43e-07        9.4975e+21
         1.44e-07        9.4839e+21
         1.45e-07        9.4702e+21
         1.46e-07        9.4572e+21
         1.47e-07        9.4453e+21
         1.48e-07        9.4335e+21
         1.49e-07        9.4198e+21
          1.5e-07        9.4072e+21
         1.51e-07        9.3943e+21
         1.52e-07        9.3827e+21
         1.53e-07        9.3698e+21
         1.54e-07        9.3583e+21
         1.55e-07        9.3475e+21
         1.56e-07        9.3353e+21
         1.57e-07        9.3234e+21
         1.58e-07        9.3111e+21
         1.59e-07        9.2988e+21
          1.6e-07        9.2873e+21
         1.61e-07        9.2741e+21
         1.62e-07        9.2635e+21
         1.63e-07        9.2519e+21
         1.64e-07        9.2392e+21
         1.65e-07        9.2266e+21
         1.66e-07        9.2146e+21
         1.67e-07        9.2048e+21
         1.68e-07        9.1949e+21
         1.69e-07        9.1832e+21
          1.7e-07         9.172e+21
         1.71e-07        9.1604e+21
         1.72e-07        9.1499e+21
         1.73e-07        9.1388e+21
         1.74e-07         9.127e+21
         1.75e-07        9.1158e+21
         1.76e-07        9.1054e+21
         1.77e-07        9.0949e+21
         1.78e-07         9.085e+21
         1.79e-07        9.0736e+21
          1.8e-07        9.0653e+21
         1.81e-07        9.0546e+21
         1.82e-07        9.0435e+21
         1.83e-07         9.034e+21
         1.84e-07        9.0239e+21
         1.85e-07        9.0121e+21
         1.86e-07        9.0024e+21
         1.87e-07        8.9911e+21
         1.88e-07        8.9803e+21
         1.89e-07        8.9721e+21
          1.9e-07        8.9615e+21
         1.91e-07         8.952e+21
         1.92e-07        8.9415e+21
         1.93e-07        8.9307e+21
         1.94e-07        8.9204e+21
         1.95e-07        8.9109e+21
         1.96e-07         8.901e+21
         1.97e-07        8.8909e+21
         1.98e-07         8.881e+21
         1.99e-07        8.8695e+21
            2e-07        8.8603e+21
         2.01e-07        8.8517e+21
         2.02e-07        8.8421e+21
         2.03e-07        8.8335e+21
         2.04e-07        8.8226e+21
         2.05e-07        8.8135e+21
         2.06e-07        8.8058e+21
         2.07e-07        8.7955e+21
         2.08e-07        8.7874e+21
         2.09e-07        8.7772e+21
          2.1e-07        8.7676e+21
         2.11e-07        8.7589e+21
         2.12e-07        8.7489e+21
         2.13e-07          8.74e+21
         2.14e-07         8.731e+21
         2.15e-07        8.7204e+21
         2.16e-07        8.7108e+21
         2.17e-07        8.7017e+21
         2.18e-07        8.6926e+21
         2.19e-07        8.6827e+21
          2.2e-07        8.6743e+21
         2.21e-07        8.6621e+21
         2.22e-07        8.6539e+21
         2.23e-07        8.6456e+21
         2.24e-07        8.6373e+21
         2.25e-07        8.6284e+21
         2.26e-07        8.6195e+21
         2.27e-07         8.612e+21
         2.28e-07        8.6032e+21
         2.29e-07        8.5953e+21
          2.3e-07        8.5871e+21
         2.31e-07        8.5773e+21
         2.32e-07        8.5685e+21
         2.33e-07        8.5603e+21
         2.34e-07        8.5524e+21
         2.35e-07        8.5432e+21
         2.36e-07        8.5343e+21
         2.37e-07         8.526e+21
         2.38e-07        8.5172e+21
         2.39e-07        8.5097e+21
          2.4e-07        8.5017e+21
         2.41e-07        8.4926e+21
         2.42e-07        8.4841e+21
         2.43e-07        8.4774e+21
         2.44e-07        8.4705e+21
         2.45e-07        8.4626e+21
         2.46e-07        8.4546e+21
         2.47e-07         8.446e+21
         2.48e-07        8.4405e+21
         2.49e-07        8.4327e+21
          2.5e-07        8.4254e+21
         2.51e-07        8.4176e+21
         2.52e-07        8.4113e+21
         2.53e-07        8.4035e+21
         2.54e-07        8.3952e+21
         2.55e-07         8.388e+21
         2.56e-07        8.3798e+21
         2.57e-07        8.3722e+21
         2.58e-07        8.3649e+21
         2.59e-07        8.3574e+21
          2.6e-07        8.3498e+21
         2.61e-07        8.3431e+21
         2.62e-07        8.3347e+21
         2.63e-07        8.3271e+21
         2.64e-07        8.3188e+21
         2.65e-07        8.3122e+21
         2.66e-07        8.3057e+21
         2.67e-07        8.2995e+21
         2.68e-07        8.2923e+21
         2.69e-07        8.2851e+21
          2.7e-07        8.2771e+21
         2.71e-07        8.2708e+21
         2.72e-07        8.2629e+21
         2.73e-07        8.2546e+21
         2.74e-07        8.2468e+21
         2.75e-07        8.2393e+21
         2.76e-07        8.2334e+21
         2.77e-07        8.2245e+21
         2.78e-07         8.217e+21
         2.79e-07        8.2105e+21
          2.8e-07         8.205e+21
         2.81e-07        8.1973e+21
         2.82e-07          8.19e+21
         2.83e-07        8.1824e+21
         2.84e-07        8.1749e+21
         2.85e-07        8.1683e+21
         2.86e-07        8.1613e+21
         2.87e-07         8.157e+21
         2.88e-07        8.1508e+21
         2.89e-07        8.1442e+21
          2.9e-07        8.1378e+21
         2.91e-07        8.1305e+21
         2.92e-07         8.123e+21
         2.93e-07        8.1172e+21
         2.94e-07        8.1118e+21
         2.95e-07        8.1043e+21
         2.96e-07        8.0978e+21
         2.97e-07         8.091e+21
         2.98e-07        8.0845e+21
         2.99e-07        8.0781e+21
            3e-07        8.0716e+21
         3.01e-07        8.0649e+21
         3.02e-07        8.0578e+21
         3.03e-07        8.0527e+21
         3.04e-07        8.0464e+21
         3.05e-07        8.0391e+21
         3.06e-07        8.0327e+21
         3.07e-07        8.0257e+21
         3.08e-07        8.0206e+21
         3.09e-07        8.0146e+21
          3.1e-07        8.0094e+21
         3.11e-07        8.0034e+21
         3.12e-07        7.9968e+21
         3.13e-07        7.9912e+21
         3.14e-07        7.9849e+21
         3.15e-07        7.9788e+21
         3.16e-07        7.9739e+21
         3.17e-07        7.9678e+21
         3.18e-07        7.9619e+21
         3.19e-07        7.9573e+21
          3.2e-07        7.9516e+21
         3.21e-07        7.9458e+21
         3.22e-07        7.9401e+21
         3.23e-07        7.9346e+21
         3.24e-07        7.9285e+21
         3.25e-07        7.9218e+21
         3.26e-07        7.9137e+21
         3.27e-07         7.909e+21
         3.28e-07        7.9025e+21
         3.29e-07        7.8975e+21
          3.3e-07        7.8918e+21
         3.31e-07        7.8863e+21
         3.32e-07        7.8812e+21
         3.33e-07        7.8767e+21
         3.34e-07        7.8713e+21
         3.35e-07        7.8649e+21
         3.36e-07        7.8597e+21
         3.37e-07        7.8537e+21
         3.38e-07        7.8474e+21
         3.39e-07        7.8419e+21
          3.4e-07        7.8367e+21
         3.41e-07        7.8315e+21
         3.42e-07        7.8256e+21
         3.43e-07        7.8204e+21
         3.44e-07        7.8152e+21
         3.45e-07         7.809e+21
         3.46e-07        7.8036e+21
         3.47e-07        7.7993e+21
         3.48e-07        7.7947e+21
         3.49e-07        7.7897e+21
          3.5e-07         7.783e+21
         3.51e-07        7.7773e+21
         3.52e-07        7.7727e+21
         3.53e-07        7.7692e+21
         3.54e-07        7.7642e+21
         3.55e-07        7.7594e+21
         3.56e-07        7.7543e+21
         3.57e-07        7.7499e+21
         3.58e-07         7.745e+21
         3.59e-07        7.7404e+21
          3.6e-07        7.7345e+21
         3.61e-07        7.7306e+21
         3.62e-07        7.7244e+21
         3.63e-07        7.7188e+21
         3.64e-07        7.7134e+21
         3.65e-07        7.7092e+21
         3.66e-07        7.7046e+21
         3.67e-07        7.6999e+21
         3.68e-07        7.6951e+21
         3.69e-07        7.6909e+21
          3.7e-07        7.6865e+21
         3.71e-07        7.6832e+21
         3.72e-07        7.6789e+21
         3.73e-07        7.6751e+21
         3.74e-07        7.6695e+21
         3.75e-07        7.6641e+21
         3.76e-07         7.659e+21
         3.77e-07        7.6547e+21
         3.78e-07        7.6508e+21
         3.79e-07        7.6462e+21
          3.8e-07        7.6416e+21
         3.81e-07        7.6366e+21
         3.82e-07        7.6324e+21
         3.83e-07        7.6268e+21
         3.84e-07        7.6239e+21
         3.85e-07        7.6192e+21
         3.86e-07        7.6147e+21
         3.87e-07        7.6108e+21
         3.88e-07        7.6072e+21
         3.89e-07        7.6023e+21
          3.9e-07        7.5971e+21
         3.91e-07        7.5934e+21
         3.92e-07        7.5893e+21
         3.93e-07        7.5846e+21
         3.94e-07        7.5796e+21
         3.95e-07        7.5746e+21
         3.96e-07          7.57e+21
         3.97e-07         7.567e+21
         3.98e-07        7.5627e+21
         3.99e-07        7.5585e+21
            4e-07        7.5533e+21
         4.01e-07        7.5474e+21
         4.02e-07        7.5437e+21
         4.03e-07        7.5382e+21
         4.04e-07        7.5346e+21
         4.05e-07        7.5305e+21
         4.06e-07        7.5255e+21
         4.07e-07        7.5219e+21
         4.08e-07        7.5179e+21
         4.09e-07        7.5129e+21
          4.1e-07        7.5096e+21
         4.11e-07        7.5063e+21
         4.12e-07        7.5028e+21
         4.13e-07        7.4987e+21
         4.14e-07        7.4941e+21
         4.15e-07        7.4905e+21
         4.16e-07        7.4862e+21
         4.17e-07        7.4828e+21
         4.18e-07        7.4784e+21
         4.19e-07        7.4739e+21
          4.2e-07        7.4704e+21
         4.21e-07        7.4673e+21
         4.22e-07        7.4635e+21
         4.23e-07        7.4592e+21
         4.24e-07        7.4545e+21
         4.25e-07        7.4488e+21
         4.26e-07        7.4454e+21
         4.27e-07        7.4413e+21
         4.28e-07        7.4374e+21
         4.29e-07        7.4335e+21
          4.3e-07        7.4293e+21
         4.31e-07        7.4243e+21
         4.32e-07        7.4193e+21
         4.33e-07        7.4158e+21
         4.34e-07        7.4124e+21
         4.35e-07        7.4094e+21
         4.36e-07        7.4049e+21
         4.37e-07        7.4006e+21
         4.38e-07        7.3965e+21
         4.39e-07        7.3927e+21
          4.4e-07        7.3895e+21
         4.41e-07        7.3861e+21
         4.42e-07        7.3827e+21
         4.43e-07        7.3792e+21
         4.44e-07         7.375e+21
         4.45e-07         7.372e+21
         4.46e-07        7.3693e+21
         4.47e-07        7.3661e+21
         4.48e-07        7.3629e+21
         4.49e-07        7.3597e+21
          4.5e-07        7.3561e+21
         4.51e-07        7.3525e+21
         4.52e-07        7.3493e+21
         4.53e-07        7.3454e+21
         4.54e-07        7.3421e+21
         4.55e-07        7.3382e+21
         4.56e-07        7.3342e+21
         4.57e-07         7.331e+21
         4.58e-07        7.3275e+21
         4.59e-07        7.3223e+21
          4.6e-07        7.3192e+21
         4.61e-07        7.3146e+21
         4.62e-07         7.312e+21
         4.63e-07         7.308e+21
         4.64e-07        7.3044e+21
         4.65e-07        7.3015e+21
         4.66e-07        7.2989e+21
         4.67e-07        7.2953e+21
         4.68e-07        7.2933e+21
         4.69e-07          7.29e+21
          4.7e-07        7.2861e+21
         4.71e-07        7.2814e+21
         4.72e-07        7.2781e+21
         4.73e-07        7.2747e+21
         4.74e-07        7.2713e+21
         4.75e-07        7.2684e+21
         4.76e-07         7.265e+21
         4.77e-07         7.261e+21
         4.78e-07        7.2581e+21
         4.79e-07        7.2537e+21
          4.8e-07        7.2507e+21
         4.81e-07        7.2479e+21
         4.82e-07        7.2442e+21
         4.83e-07        7.2402e+21
         4.84e-07         7.236e+21
         4.85e-07        7.2322e+21
         4.86e-07        7.2295e+21
         4.87e-07        7.2266e+21
         4.88e-07        7.2243e+21
         4.89e-07        7.2209e+21
          4.9e-07        7.2172e+21
         4.91e-07        7.2138e+21
         4.92e-07        7.2102e+21
         4.93e-07        7.2055e+21
         4.94e-07         7.202e+21
         4.95e-07         7.199e+21
         4.96e-07        7.1958e+21
         4.97e-07        7.1941e+21
         4.98e-07        7.1906e+21
         4.99e-07        7.1882e+21
            5e-07        7.1856e+21
         5.01e-07        7.1824e+21
         5.02e-07        7.1794e+21
         5.03e-07        7.1761e+21
         5.04e-07        7.1733e+21
         5.05e-07        7.1705e+21
         5.06e-07        7.1668e+21
         5.07e-07        7.1639e+21
         5.08e-07        7.1611e+21
         5.09e-07        7.1587e+21
          5.1e-07        7.1545e+21
         5.11e-07        7.1512e+21
         5.12e-07        7.1479e+21
         5.13e-07         7.145e+21
         5.14e-07        7.1417e+21
         5.15e-07        7.1389e+21
         5.16e-07        7.1363e+21
         5.17e-07        7.1332e+21
         5.18e-07        7.1304e+21
         5.19e-07        7.1276e+21
          5.2e-07        7.1255e+21
         5.21e-07        7.1222e+21
         5.22e-07        7.1183e+21
         5.23e-07        7.1154e+21
         5.24e-07         7.112e+21
         5.25e-07        7.1079e+21
         5.26e-07         7.106e+21
         5.27e-07        7.1032e+21
         5.28e-07        7.0999e+21
         5.29e-07         7.098e+21
          5.3e-07        7.0947e+21
         5.31e-07         7.092e+21
         5.32e-07        7.0906e+21
         5.33e-07        7.0876e+21
         5.34e-07        7.0846e+21
         5.35e-07        7.0818e+21
         5.36e-07        7.0787e+21
         5.37e-07        7.0763e+21
         5.38e-07        7.0734e+21
         5.39e-07        7.0704e+21
          5.4e-07        7.0678e+21
         5.41e-07        7.0655e+21
         5.42e-07        7.0627e+21
         5.43e-07        7.0597e+21
         5.44e-07         7.057e+21
         5.45e-07        7.0538e+21
         5.46e-07        7.0507e+21
         5.47e-07        7.0476e+21
         5.48e-07        7.0433e+21
         5.49e-07        7.0408e+21
          5.5e-07        7.0374e+21
         5.51e-07        7.0341e+21
         5.52e-07        7.0314e+21
         5.53e-07        7.0284e+21
         5.54e-07         7.025e+21
         5.55e-07        7.0215e+21
         5.56e-07        7.0188e+21
         5.57e-07        7.0154e+21
         5.58e-07        7.0118e+21
         5.59e-07        7.0089e+21
          5.6e-07        7.0048e+21
         5.61e-07         7.002e+21
         5.62e-07        6.9992e+21
         5.63e-07        6.9955e+21
         5.64e-07        6.9919e+21
         5.65e-07        6.9891e+21
         5.66e-07        6.9861e+21
         5.67e-07        6.9832e+21
         5.68e-07        6.9802e+21
         5.69e-07        6.9764e+21
          5.7e-07        6.9732e+21
         5.71e-07        6.9703e+21
         5.72e-07        6.9681e+21
         5.73e-07        6.9652e+21
         5.74e-07        6.9621e+21
         5.75e-07        6.9594e+21
         5.76e-07        6.9568e+21
         5.77e-07        6.9549e+21
         5.78e-07        6.9521e+21
         5.79e-07        6.9498e+21
          5.8e-07        6.9476e+21
         5.81e-07        6.9453e+21
         5.82e-07        6.9431e+21
         5.83e-07        6.9407e+21
         5.84e-07        6.9379e+21
         5.85e-07        6.9354e+21
         5.86e-07        6.9327e+21
         5.87e-07        6.9294e+21
         5.88e-07        6.9265e+21
         5.89e-07        6.9243e+21
          5.9e-07        6.9223e+21
         5.91e-07         6.919e+21
         5.92e-07        6.9165e+21
         5.93e-07         6.914e+21
         5.94e-07        6.9111e+21
         5.95e-07        6.9086e+21
         5.96e-07        6.9068e+21
         5.97e-07         6.904e+21
         5.98e-07        6.9012e+21
         5.99e-07        6.8984e+21
            6e-07         6.896e+21
         6.01e-07        6.8938e+21
         6.02e-07        6.8921e+21
         6.03e-07        6.8893e+21
         6.04e-07        6.8868e+21
         6.05e-07        6.8837e+21
         6.06e-07        6.8809e+21
         6.07e-07        6.8786e+21
         6.08e-07        6.8756e+21
         6.09e-07        6.8722e+21
          6.1e-07        6.8704e+21
         6.11e-07        6.8688e+21
         6.12e-07        6.8651e+21
         6.13e-07        6.8628e+21
         6.14e-07        6.8602e+21
         6.15e-07        6.8578e+21
         6.16e-07        6.8557e+21
         6.17e-07         6.853e+21
         6.18e-07        6.8509e+21
         6.19e-07        6.8476e+21
          6.2e-07        6.8451e+21
         6.21e-07        6.8431e+21
         6.22e-07        6.8414e+21
         6.23e-07        6.8385e+21
         6.24e-07        6.8362e+21
         6.25e-07        6.8337e+21
         6.26e-07        6.8299e+21
         6.27e-07        6.8276e+21
         6.28e-07        6.8246e+21
         6.29e-07        6.8227e+21
          6.3e-07        6.8199e+21
         6.31e-07        6.8176e+21
         6.32e-07        6.8154e+21
         6.33e-07         6.813e+21
         6.34e-07        6.8104e+21
         6.35e-07         6.808e+21
         6.36e-07        6.8056e+21
         6.37e-07        6.8027e+21
         6.38e-07         6.801e+21
         6.39e-07        6.7982e+21
          6.4e-07        6.7967e+21
         6.41e-07        6.7947e+21
         6.42e-07        6.7936e+21
         6.43e-07        6.7912e+21
         6.44e-07        6.7888e+21
         6.45e-07        6.7858e+21
         6.46e-07        6.7833e+21
         6.47e-07        6.7812e+21
         6.48e-07         6.779e+21
         6.49e-07        6.7756e+21
          6.5e-07        6.7731e+21
         6.51e-07         6.771e+21
         6.52e-07        6.7682e+21
         6.53e-07        6.7648e+21
         6.54e-07        6.7622e+21
         6.55e-07        6.7597e+21
         6.56e-07        6.7582e+21
         6.57e-07        6.7559e+21
         6.58e-07        6.7525e+21
         6.59e-07        6.7497e+21
          6.6e-07        6.7478e+21
         6.61e-07        6.7448e+21
         6.62e-07        6.7423e+21
         6.63e-07        6.7402e+21
         6.64e-07        6.7375e+21
         6.65e-07         6.735e+21
         6.66e-07        6.7326e+21
         6.67e-07        6.7311e+21
         6.68e-07        6.7291e+21
         6.69e-07        6.7268e+21
          6.7e-07        6.7244e+21
         6.71e-07        6.7219e+21
         6.72e-07        6.7203e+21
         6.73e-07        6.7187e+21
         6.74e-07        6.7168e+21
         6.75e-07        6.7142e+21
         6.76e-07        6.7116e+21
         6.77e-07        6.7092e+21
         6.78e-07        6.7073e+21
         6.79e-07        6.7045e+21
          6.8e-07        6.7018e+21
         6.81e-07        6.6996e+21
         6.82e-07        6.6986e+21
         6.83e-07        6.6969e+21
         6.84e-07        6.6953e+21
         6.85e-07        6.6929e+21
         6.86e-07        6.6908e+21
         6.87e-07        6.6884e+21
         6.88e-07        6.6861e+21
         6.89e-07        6.6842e+21
          6.9e-07        6.6821e+21
         6.91e-07        6.6796e+21
         6.92e-07        6.6778e+21
         6.93e-07        6.6757e+21
         6.94e-07         6.673e+21
         6.95e-07        6.6708e+21
         6.96e-07         6.669e+21
         6.97e-07        6.6663e+21
         6.98e-07        6.6636e+21
         6.99e-07        6.6617e+21
            7e-07        6.6599e+21
         7.01e-07        6.6575e+21
         7.02e-07        6.6557e+21
         7.03e-07        6.6533e+21
         7.04e-07        6.6514e+21
         7.05e-07          6.65e+21
         7.06e-07        6.6478e+21
         7.07e-07        6.6463e+21
         7.08e-07        6.6443e+21
         7.09e-07         6.643e+21
          7.1e-07        6.6416e+21
         7.11e-07        6.6397e+21
         7.12e-07         6.638e+21
         7.13e-07        6.6354e+21
         7.14e-07        6.6337e+21
         7.15e-07        6.6317e+21
         7.16e-07        6.6304e+21
         7.17e-07         6.628e+21
         7.18e-07        6.6256e+21
         7.19e-07        6.6233e+21
          7.2e-07        6.6205e+21
         7.21e-07        6.6188e+21
         7.22e-07        6.6168e+21
         7.23e-07        6.6144e+21
         7.24e-07        6.6125e+21
         7.25e-07         6.611e+21
         7.26e-07        6.6088e+21
         7.27e-07        6.6067e+21
         7.28e-07        6.6048e+21
         7.29e-07        6.6023e+21
          7.3e-07        6.6002e+21
         7.31e-07        6.5989e+21
         7.32e-07        6.5973e+21
         7.33e-07        6.5946e+21
         7.34e-07        6.5932e+21
         7.35e-07        6.5911e+21
         7.36e-07        6.5887e+21
         7.37e-07        6.5863e+21
         7.38e-07        6.5845e+21
         7.39e-07        6.5829e+21
          7.4e-07        6.5812e+21
         7.41e-07        6.5789e+21
         7.42e-07        6.5775e+21
         7.43e-07         6.575e+21
         7.44e-07        6.5727e+21
         7.45e-07        6.5717e+21
         7.46e-07        6.5705e+21
         7.47e-07        6.5688e+21
         7.48e-07        6.5667e+21
         7.49e-07        6.5639e+21
          7.5e-07        6.5624e+21
         7.51e-07        6.5606e+21
         7.52e-07        6.5595e+21
         7.53e-07         6.557e+21
         7.54e-07        6.5559e+21
         7.55e-07        6.5543e+21
         7.56e-07        6.5529e+21
         7.57e-07         6.551e+21
         7.58e-07        6.5487e+21
         7.59e-07        6.5468e+21
          7.6e-07        6.5452e+21
         7.61e-07        6.5434e+21
         7.62e-07         6.541e+21
         7.63e-07        6.5387e+21
         7.64e-07        6.5363e+21
         7.65e-07        6.5353e+21
         7.66e-07        6.5334e+21
         7.67e-07        6.5315e+21
         7.68e-07        6.5295e+21
         7.69e-07        6.5278e+21
          7.7e-07        6.5258e+21
         7.71e-07        6.5244e+21
         7.72e-07        6.5229e+21
         7.73e-07        6.5206e+21
         7.74e-07        6.5182e+21
         7.75e-07        6.5164e+21
         7.76e-07        6.5145e+21
         7.77e-07        6.5127e+21
         7.78e-07        6.5116e+21
         7.79e-07        6.5099e+21
          7.8e-07        6.5074e+21
         7.81e-07        6.5057e+21
         7.82e-07        6.5035e+21
         7.83e-07        6.5022e+21
         7.84e-07        6.4992e+21
         7.85e-07        6.4978e+21
         7.86e-07        6.4966e+21
         7.87e-07         6.495e+21
         7.88e-07        6.4929e+21
         7.89e-07        6.4908e+21
          7.9e-07         6.489e+21
         7.91e-07        6.4874e+21
         7.92e-07        6.4856e+21
         7.93e-07        6.4843e+21
         7.94e-07        6.4831e+21
         7.95e-07        6.4818e+21
         7.96e-07        6.4799e+21
         7.97e-07        6.4783e+21
         7.98e-07        6.4764e+21
         7.99e-07         6.475e+21
            8e-07        6.4729e+21
         8.01e-07        6.4711e+21
         8.02e-07        6.4685e+21
         8.03e-07        6.4669e+21
         8.04e-07        6.4653e+21
         8.05e-07        6.4628e+21
         8.06e-07        6.4613e+21
         8.07e-07        6.4593e+21
         8.08e-07         6.458e+21
         8.09e-07        6.4557e+21
          8.1e-07        6.4542e+21
         8.11e-07        6.4529e+21
         8.12e-07        6.4514e+21
         8.13e-07        6.4491e+21
         8.14e-07         6.448e+21
         8.15e-07        6.4458e+21
         8.16e-07        6.4439e+21
         8.17e-07        6.4426e+21
         8.18e-07        6.4411e+21
         8.19e-07        6.4398e+21
          8.2e-07        6.4387e+21
         8.21e-07        6.4371e+21
         8.22e-07        6.4352e+21
         8.23e-07        6.4336e+21
         8.24e-07        6.4309e+21
         8.25e-07        6.4297e+21
         8.26e-07        6.4282e+21
         8.27e-07        6.4262e+21
         8.28e-07         6.425e+21
         8.29e-07        6.4231e+21
          8.3e-07        6.4211e+21
         8.31e-07        6.4193e+21