# Probe 0 (5e-06 5e-06 5e-06)
#           Probe                 0
#            Time
            1e-09       29992.32215
            2e-09       29920.62144
            3e-09       29857.17477
            4e-09       29796.55638
            5e-09       29735.72983
            6e-09       29671.58446
            7e-09       29601.42288
            8e-09        29538.1552
            9e-09       29475.80114
            1e-08       29416.18141
          1.1e-08       29350.18562
          1.2e-08        29294.5285
          1.3e-08       29237.14486
          1.4e-08       29178.43009
          1.5e-08       29116.89649
          1.6e-08        29052.8421
          1.7e-08       28992.18022
          1.8e-08       28933.06174
          1.9e-08       28868.25205
            2e-08        28803.2542
          2.1e-08       28743.53145
          2.2e-08       28685.32377
          2.3e-08       28624.40497
          2.4e-08        28568.0244
          2.5e-08       28512.95844
          2.6e-08       28451.80735
          2.7e-08       28394.04341
          2.8e-08       28333.93162
          2.9e-08       28272.75351
            3e-08       28215.48142
          3.1e-08       28154.24834
          3.2e-08        28090.3122
          3.3e-08       28034.98894
          3.4e-08       27979.49079
          3.5e-08       27922.63356
          3.6e-08       27862.79256
          3.7e-08        27803.3902
          3.8e-08       27744.59925
          3.9e-08       27686.62435
            4e-08       27634.01789
          4.1e-08       27576.59518
          4.2e-08       27519.81916
          4.3e-08       27457.98498
          4.4e-08       27406.38192
          4.5e-08       27351.35055
          4.6e-08       27295.64618
          4.7e-08       27241.60364
          4.8e-08        27186.5901
          4.9e-08       27125.22154
            5e-08       27070.18506
          5.1e-08       27014.56095
          5.2e-08       26964.03015
          5.3e-08       26905.49002
          5.4e-08       26847.13849
          5.5e-08       26797.57223
          5.6e-08       26742.74947
          5.7e-08       26689.08619
          5.8e-08       26635.83429
          5.9e-08       26581.00547
            6e-08       26530.35589
          6.1e-08        26476.7462
          6.2e-08       26427.10851
          6.3e-08       26371.85014
          6.4e-08       26320.94881
          6.5e-08       26267.50339
          6.6e-08       26215.94406
          6.7e-08       26161.52094
          6.8e-08       26108.56479
          6.9e-08       26058.59528
            7e-08       26004.43766
          7.1e-08       25952.87097
          7.2e-08       25906.75416
          7.3e-08       25857.15621
          7.4e-08       25808.51923
          7.5e-08       25759.86264
          7.6e-08        25713.9147
          7.7e-08       25659.09607
          7.8e-08       25611.83011
          7.9e-08       25559.68124
            8e-08       25512.53012
          8.1e-08       25463.68457
          8.2e-08       25414.65493
          8.3e-08       25363.13936
          8.4e-08       25317.65408
          8.5e-08        25274.5505
          8.6e-08       25228.84286
          8.7e-08       25186.88565
          8.8e-08       25138.98435
          8.9e-08       25094.72659
            9e-08       25048.80474
          9.1e-08       25004.14217
          9.2e-08       24958.19713
          9.3e-08       24909.80114
          9.4e-08       24866.42111
          9.5e-08       24821.68439
          9.6e-08       24781.79111
          9.7e-08       24734.68852
          9.8e-08       24688.49168
          9.9e-08       24645.87404
            1e-07       24603.25571
         1.01e-07       24556.74949
         1.02e-07       24507.55511
         1.03e-07       24466.50443
         1.04e-07       24422.78073
         1.05e-07        24378.8653
         1.06e-07       24332.81505
         1.07e-07       24286.86801
         1.08e-07       24241.92667
         1.09e-07       24198.17104
          1.1e-07       24160.20381
         1.11e-07       24119.50044
         1.12e-07       24079.82677
         1.13e-07       24041.20704
         1.14e-07        23998.3793
         1.15e-07       23954.17173
         1.16e-07       23910.78569
         1.17e-07       23870.74347
         1.18e-07        23834.1783
         1.19e-07       23795.88597
          1.2e-07       23758.37025
         1.21e-07       23717.09785
         1.22e-07       23681.28234
         1.23e-07       23640.25118
         1.24e-07       23597.88149
         1.25e-07       23556.07355
         1.26e-07       23518.23443
         1.27e-07       23484.32886
         1.28e-07       23447.49899
         1.29e-07       23409.74012
          1.3e-07       23375.03029
         1.31e-07       23337.19724
         1.32e-07       23295.99332
         1.33e-07       23259.30432
         1.34e-07       23220.25078
         1.35e-07       23190.49091
         1.36e-07       23155.26297
         1.37e-07       23121.35641
         1.38e-07       23085.61307
         1.39e-07       23050.00401
          1.4e-07       23014.98259
         1.41e-07       22978.25035
         1.42e-07       22934.84741
         1.43e-07       22902.48432
         1.44e-07       22867.30525
         1.45e-07       22833.51707
         1.46e-07       22799.76858
         1.47e-07       22767.73254
         1.48e-07       22739.82996
         1.49e-07       22706.76556
          1.5e-07       22674.49775
         1.51e-07       22643.87404
         1.52e-07       22610.80557
         1.53e-07       22579.02616
         1.54e-07       22549.34461
         1.55e-07        22522.4557
         1.56e-07       22491.96181
         1.57e-07        22462.7689
         1.58e-07       22432.42694
         1.59e-07       22400.23108
          1.6e-07        22373.2703
         1.61e-07         22341.477
         1.62e-07       22313.47591
         1.63e-07       22283.50481
         1.64e-07       22250.18539
         1.65e-07       22221.44813
         1.66e-07       22192.15516
         1.67e-07       22168.93905
         1.68e-07       22144.86125
         1.69e-07       22115.10244
          1.7e-07       22088.28408
         1.71e-07        22058.5673
         1.72e-07       22031.33698
         1.73e-07       22005.90798
         1.74e-07       21978.20858
         1.75e-07       21950.07441
         1.76e-07       21924.00088
         1.77e-07       21900.45468
         1.78e-07       21876.47836
         1.79e-07       21845.42945
          1.8e-07       21824.32636
         1.81e-07       21794.83808
         1.82e-07       21767.73832
         1.83e-07       21742.89849
         1.84e-07        21721.4536
         1.85e-07       21692.93005
         1.86e-07       21666.06194
         1.87e-07        21641.6808
         1.88e-07       21614.81898
         1.89e-07       21592.24669
          1.9e-07       21565.70054
         1.91e-07       21544.44186
         1.92e-07       21520.26931
         1.93e-07       21496.69991
         1.94e-07       21469.26266
         1.95e-07       21446.05404
         1.96e-07       21422.50922
         1.97e-07       21400.50224
         1.98e-07       21376.17614
         1.99e-07         21347.395
            2e-07       21326.28806
         2.01e-07       21305.66241
         2.02e-07       21282.17936
         2.03e-07       21260.36571
         2.04e-07       21233.59372
         2.05e-07       21213.06849
         2.06e-07       21193.84008
         2.07e-07       21168.48444
         2.08e-07       21146.00991
         2.09e-07       21119.76129
          2.1e-07       21092.11595
         2.11e-07        21074.1023
         2.12e-07       21052.62949
         2.13e-07       21030.38857
         2.14e-07       21007.02915
         2.15e-07       20980.91804
         2.16e-07       20954.99737
         2.17e-07       20933.69818
         2.18e-07       20908.53869
         2.19e-07       20884.11439
          2.2e-07       20864.83986
         2.21e-07       20834.82705
         2.22e-07       20812.90579
         2.23e-07       20794.97041
         2.24e-07       20775.22601
         2.25e-07       20753.78355
         2.26e-07       20733.31643
         2.27e-07       20719.88931
         2.28e-07       20698.98517
         2.29e-07       20678.12094
          2.3e-07       20655.44277
         2.31e-07       20632.42561
         2.32e-07       20611.50567
         2.33e-07       20592.69737
         2.34e-07       20573.46706
         2.35e-07       20553.18514
         2.36e-07       20533.26756
         2.37e-07       20514.29907
         2.38e-07       20494.75286
         2.39e-07       20474.11624
          2.4e-07       20454.18718
         2.41e-07       20433.88383
         2.42e-07       20414.01298
         2.43e-07       20396.32724
         2.44e-07       20378.73339
         2.45e-07       20358.21183
         2.46e-07       20339.36528
         2.47e-07        20318.0862
         2.48e-07       20302.62899
         2.49e-07       20284.83839
          2.5e-07        20264.4372
         2.51e-07       20245.55335
         2.52e-07       20230.47046
         2.53e-07       20208.98136
         2.54e-07       20188.01311
         2.55e-07       20171.14611
         2.56e-07       20156.05988
         2.57e-07        20137.1704
         2.58e-07       20115.61933
         2.59e-07       20096.24731
          2.6e-07       20077.99925
         2.61e-07       20059.96957
         2.62e-07       20038.41493
         2.63e-07       20018.21715
         2.64e-07       20002.95815
         2.65e-07       19987.68592
         2.66e-07       19977.41596
         2.67e-07       19963.22148
         2.68e-07       19947.25214
         2.69e-07       19930.04488
          2.7e-07       19909.49032
         2.71e-07       19890.75535
         2.72e-07       19873.43516
         2.73e-07       19854.84539
         2.74e-07       19834.78939
         2.75e-07       19819.19306
         2.76e-07       19804.50199
         2.77e-07        19783.8078
         2.78e-07       19766.29206
         2.79e-07       19748.54321
          2.8e-07       19736.09733
         2.81e-07       19718.85195
         2.82e-07        19701.0209
         2.83e-07       19684.90644
         2.84e-07       19667.25617
         2.85e-07       19652.15082
         2.86e-07       19636.59237
         2.87e-07       19624.45816
         2.88e-07       19608.88073
         2.89e-07       19592.78433
          2.9e-07       19578.04854
         2.91e-07       19562.92095
         2.92e-07       19546.21674
         2.93e-07       19529.14749
         2.94e-07         19517.768
         2.95e-07       19498.76372
         2.96e-07       19482.27917
         2.97e-07       19464.38569
         2.98e-07       19449.62321
         2.99e-07       19433.76522
            3e-07       19420.34233
         3.01e-07       19408.92689
         3.02e-07       19393.38907
         3.03e-07       19377.21393
         3.04e-07       19359.76946
         3.05e-07       19345.22284
         3.06e-07       19333.29318
         3.07e-07       19320.05403
         3.08e-07        19309.7038
         3.09e-07        19293.4528
          3.1e-07       19282.63337
         3.11e-07       19270.30789
         3.12e-07       19257.43677
         3.13e-07       19243.70467
         3.14e-07       19231.47008
         3.15e-07       19216.34833
         3.16e-07        19206.7314
         3.17e-07       19191.29227
         3.18e-07       19176.79886
         3.19e-07        19165.7392
          3.2e-07        19151.1713
         3.21e-07       19135.55101
         3.22e-07       19120.04459
         3.23e-07       19109.65322
         3.24e-07       19094.90675
         3.25e-07       19081.30113
         3.26e-07       19063.20566
         3.27e-07       19054.13557
         3.28e-07       19037.35846
         3.29e-07       19025.39168
          3.3e-07       19008.55673
         3.31e-07       18998.82906
         3.32e-07       18984.01013
         3.33e-07       18973.25733
         3.34e-07       18959.55478
         3.35e-07       18943.05942
         3.36e-07       18932.34228
         3.37e-07       18918.55021
         3.38e-07       18903.43796
         3.39e-07       18889.87875
          3.4e-07       18879.08367
         3.41e-07       18868.54072
         3.42e-07        18855.0044
         3.43e-07       18842.84941
         3.44e-07       18833.73307
         3.45e-07       18819.66418
         3.46e-07       18808.75035
         3.47e-07       18800.66987
         3.48e-07        18787.7351
         3.49e-07       18775.30024
          3.5e-07       18759.74771
         3.51e-07       18749.87445
         3.52e-07       18737.41085
         3.53e-07       18725.62461
         3.54e-07       18711.86872
         3.55e-07       18703.68174
         3.56e-07       18691.54703
         3.57e-07       18683.68311
         3.58e-07       18672.76109
         3.59e-07        18663.4815
          3.6e-07       18646.10701
         3.61e-07       18639.20931
         3.62e-07       18624.62922
         3.63e-07       18613.74504
         3.64e-07       18600.57911
         3.65e-07        18594.8624
         3.66e-07         18584.027
         3.67e-07       18572.30329
         3.68e-07       18560.25129
         3.69e-07        18551.9078
          3.7e-07       18537.68052
         3.71e-07       18527.78215
         3.72e-07       18515.51131
         3.73e-07       18506.63985
         3.74e-07        18496.7159
         3.75e-07       18482.57323
         3.76e-07       18470.13379
         3.77e-07       18461.34187
         3.78e-07       18449.89222
         3.79e-07       18442.13586
          3.8e-07       18430.17164
         3.81e-07       18415.16841
         3.82e-07       18405.65396
         3.83e-07       18389.55875
         3.84e-07       18383.04326
         3.85e-07       18372.58297
         3.86e-07       18362.87491
         3.87e-07       18352.05298
         3.88e-07       18342.66022
         3.89e-07       18328.75661
          3.9e-07       18316.70498
         3.91e-07       18306.83434
         3.92e-07       18298.49725
         3.93e-07       18285.18601
         3.94e-07       18274.74429
         3.95e-07       18261.56518
         3.96e-07       18249.99486
         3.97e-07         18242.055
         3.98e-07       18229.08288
         3.99e-07       18216.59167
            4e-07       18201.31071
         4.01e-07       18188.33749
         4.02e-07       18179.55572
         4.03e-07       18164.87295
         4.04e-07       18158.45495
         4.05e-07       18150.34196
         4.06e-07       18139.68177
         4.07e-07       18131.83672
         4.08e-07       18123.96467
         4.09e-07       18110.61884
          4.1e-07       18104.95527
         4.11e-07       18097.82735
         4.12e-07       18089.24322
         4.13e-07       18077.24701
         4.14e-07        18066.5474
         4.15e-07       18060.18603
         4.16e-07       18048.88871
         4.17e-07       18040.40485
         4.18e-07        18026.9666
         4.19e-07       18017.06516
          4.2e-07       18010.48054
         4.21e-07        18002.9705
         4.22e-07       17996.19424
         4.23e-07        17985.0312
         4.24e-07       17971.17391
         4.25e-07       17957.06472
         4.26e-07       17949.23395
         4.27e-07       17938.24893
         4.28e-07       17928.85925
         4.29e-07       17919.90208
          4.3e-07       17908.19738
         4.31e-07       17900.37266
         4.32e-07       17888.64156
         4.33e-07       17883.23676
         4.34e-07       17875.38146
         4.35e-07       17868.17391
         4.36e-07       17857.18518
         4.37e-07       17849.70256
         4.38e-07       17839.43419
         4.39e-07       17832.21361
          4.4e-07       17824.29038
         4.41e-07       17816.45425
         4.42e-07       17809.65236
         4.43e-07       17802.39214
         4.44e-07       17792.40808
         4.45e-07       17782.94587
         4.46e-07       17771.41611
         4.47e-07       17763.39415
         4.48e-07       17756.70284
         4.49e-07       17748.89189
          4.5e-07       17742.65793
         4.51e-07       17735.05713
         4.52e-07       17727.62918
         4.53e-07        17720.1214
         4.54e-07       17714.29161
         4.55e-07       17705.97157
         4.56e-07       17700.27256
         4.57e-07       17691.70253
         4.58e-07       17683.23172
         4.59e-07       17672.08283
          4.6e-07       17662.96353
         4.61e-07       17653.68676
         4.62e-07       17646.83822
         4.63e-07        17638.2902
         4.64e-07       17628.43615
         4.65e-07       17617.89425
         4.66e-07       17612.75486
         4.67e-07       17603.74783
         4.68e-07       17600.03638
         4.69e-07       17593.01102
          4.7e-07       17582.58783
         4.71e-07       17569.54385
         4.72e-07       17565.04943
         4.73e-07       17555.67362
         4.74e-07       17549.58004
         4.75e-07       17545.41057
         4.76e-07       17539.86611
         4.77e-07        17530.5621
         4.78e-07       17526.74987
         4.79e-07       17516.68674
          4.8e-07       17512.60364
         4.81e-07       17504.65663
         4.82e-07       17493.39053
         4.83e-07        17483.6574
         4.84e-07       17475.49026
         4.85e-07       17465.69659
         4.86e-07       17458.76574
         4.87e-07       17453.65039
         4.88e-07       17447.49969
         4.89e-07        17439.4479
          4.9e-07        17431.1146
         4.91e-07       17426.08321
         4.92e-07       17419.73256
         4.93e-07       17410.34419
         4.94e-07       17400.99775
         4.95e-07       17394.30544
         4.96e-07       17387.25469
         4.97e-07       17387.61643
         4.98e-07       17379.49122
         4.99e-07       17373.22448
            5e-07       17368.09296
         5.01e-07       17356.99342
         5.02e-07       17350.77864
         5.03e-07       17340.00175
         5.04e-07         17332.215
         5.05e-07       17327.84498
         5.06e-07       17318.59485
         5.07e-07       17311.64923
         5.08e-07       17304.52201
         5.09e-07       17300.25577
          5.1e-07       17286.79854
         5.11e-07        17280.4024
         5.12e-07       17272.06369
         5.13e-07       17265.41592
         5.14e-07       17255.59668
         5.15e-07       17250.71737
         5.16e-07       17237.08133
         5.17e-07       17233.88391
         5.18e-07       17224.79258
         5.19e-07       17221.98856
          5.2e-07       17217.19207
         5.21e-07       17215.43592
         5.22e-07       17205.50508
         5.23e-07       17200.37357
         5.24e-07       17194.50112
         5.25e-07       17187.57231
         5.26e-07       17182.56285
         5.27e-07       17178.25132
         5.28e-07       17170.83247
         5.29e-07       17167.36871
          5.3e-07       17157.66916
         5.31e-07       17149.97764
         5.32e-07       17145.18882
         5.33e-07       17139.11494
         5.34e-07       17132.86895
         5.35e-07        17126.4446
         5.36e-07       17118.11922
         5.37e-07       17111.80691
         5.38e-07       17108.89053
         5.39e-07       17100.41238
          5.4e-07       17095.13649
         5.41e-07       17090.98796
         5.42e-07       17085.44812
         5.43e-07       17077.13854
         5.44e-07       17072.43389
         5.45e-07       17063.31287
         5.46e-07       17058.46978
         5.47e-07       17051.03259
         5.48e-07       17040.35418
         5.49e-07       17035.39016
          5.5e-07       17029.41784
         5.51e-07       17025.03495
         5.52e-07         17020.517
         5.53e-07       17014.59258
         5.54e-07       17008.53109
         5.55e-07       17002.90713
         5.56e-07       16998.27979
         5.57e-07       16988.75596
         5.58e-07       16977.59116
         5.59e-07       16970.25211
          5.6e-07       16961.28529
         5.61e-07       16959.71948
         5.62e-07       16954.72448
         5.63e-07       16944.99935
         5.64e-07       16935.77573
         5.65e-07       16924.65805
         5.66e-07       16917.31805
         5.67e-07       16908.97484
         5.68e-07        16904.6088
         5.69e-07       16894.51068
          5.7e-07       16886.49062
         5.71e-07       16879.02793
         5.72e-07       16876.09813
         5.73e-07       16873.80602
         5.74e-07       16869.61171
         5.75e-07       16863.55551
         5.76e-07        16859.2975
         5.77e-07       16855.62019
         5.78e-07       16851.76053
         5.79e-07       16846.72066
          5.8e-07       16840.34389
         5.81e-07       16833.20661
         5.82e-07       16826.24343
         5.83e-07       16824.98664
         5.84e-07         16817.026
         5.85e-07       16814.28501
         5.86e-07       16808.03835
         5.87e-07       16800.88961
         5.88e-07       16794.65377
         5.89e-07       16790.77602
          5.9e-07       16787.89962
         5.91e-07       16779.78352
         5.92e-07        16774.7427
         5.93e-07       16774.35525
         5.94e-07       16767.76242
         5.95e-07       16761.42861
         5.96e-07        16757.9618
         5.97e-07       16752.69887
         5.98e-07       16748.07205
         5.99e-07       16742.99105
            6e-07       16738.18333
         6.01e-07       16733.81091
         6.02e-07       16730.06895
         6.03e-07       16724.93718
         6.04e-07       16720.47617
         6.05e-07       16713.09933
         6.06e-07       16706.56231
         6.07e-07       16701.64636
         6.08e-07       16692.64004
         6.09e-07       16683.03063
          6.1e-07       16681.93853
         6.11e-07       16678.18682
         6.12e-07       16669.39849
         6.13e-07        16666.1649
         6.14e-07       16659.43016
         6.15e-07       16650.32509
         6.16e-07       16643.22625
         6.17e-07       16635.86283
         6.18e-07       16632.65312
         6.19e-07       16625.20221
          6.2e-07       16619.20263
         6.21e-07       16611.37451
         6.22e-07        16608.4422
         6.23e-07       16598.84857
         6.24e-07       16588.44702
         6.25e-07       16584.45254
         6.26e-07       16578.08054
         6.27e-07        16570.4189
         6.28e-07        16558.6828
         6.29e-07       16556.13723
          6.3e-07       16549.53713
         6.31e-07       16543.02227
         6.32e-07       16535.07699
         6.33e-07       16527.13629
         6.34e-07       16521.23337
         6.35e-07       16514.31837
         6.36e-07       16507.74416
         6.37e-07       16494.22378
         6.38e-07        16492.4142
         6.39e-07        16487.0883
          6.4e-07       16486.88881
         6.41e-07       16479.79742
         6.42e-07       16478.76874
         6.43e-07       16476.17276
         6.44e-07        16471.9232
         6.45e-07       16469.21126
         6.46e-07       16461.72798
         6.47e-07       16455.40081
         6.48e-07       16447.42623
         6.49e-07       16443.93847
          6.5e-07       16437.39102
         6.51e-07       16428.69173
         6.52e-07       16424.09006
         6.53e-07       16418.47739
         6.54e-07        16411.8965
         6.55e-07       16408.34615
         6.56e-07       16407.55704
         6.57e-07       16400.99204
         6.58e-07       16395.71636
         6.59e-07       16391.54459
          6.6e-07       16385.09241
         6.61e-07       16381.21953
         6.62e-07       16372.95653
         6.63e-07       16368.51544
         6.64e-07       16361.00561
         6.65e-07       16354.15691
         6.66e-07        16348.0508
         6.67e-07       16341.89394
         6.68e-07       16336.75411
         6.69e-07       16332.91201
          6.7e-07       16329.02216
         6.71e-07       16323.89095
         6.72e-07       16319.68799
         6.73e-07       16318.53045
         6.74e-07       16314.46126
         6.75e-07       16311.25007
         6.76e-07       16309.56452
         6.77e-07       16308.40628
         6.78e-07       16302.37973
         6.79e-07        16295.7689
          6.8e-07       16290.75672
         6.81e-07       16287.39868
         6.82e-07       16287.98959
         6.83e-07        16285.8287
         6.84e-07       16281.63507
         6.85e-07       16276.90963
         6.86e-07       16270.51659
         6.87e-07       16267.15762
         6.88e-07       16258.13749
         6.89e-07       16254.64521
          6.9e-07       16250.52898
         6.91e-07       16240.96482
         6.92e-07        16235.0147
         6.93e-07       16231.54844
         6.94e-07       16226.77701
         6.95e-07       16220.54538
         6.96e-07       16220.78192
         6.97e-07        16213.1127
         6.98e-07       16207.64336
         6.99e-07       16206.27092
            7e-07        16202.2896
         7.01e-07       16196.52256
         7.02e-07       16190.59616
         7.03e-07        16184.8056
         7.04e-07       16182.78082
         7.05e-07       16179.92806
         7.06e-07       16173.90934
         7.07e-07        16169.0728
         7.08e-07       16163.43653
         7.09e-07       16159.06833
          7.1e-07       16154.06957
         7.11e-07       16150.33952
         7.12e-07       16145.48567
         7.13e-07       16136.60677
         7.14e-07       16129.78592
         7.15e-07       16122.47866
         7.16e-07       16117.65066
         7.17e-07       16112.75107
         7.18e-07       16106.41817
         7.19e-07       16097.63047
          7.2e-07       16091.41497
         7.21e-07       16086.26035
         7.22e-07       16080.69991
         7.23e-07       16078.77665
         7.24e-07       16072.91972
         7.25e-07       16070.81365
         7.26e-07       16064.38409
         7.27e-07       16057.56488
         7.28e-07       16053.56468
         7.29e-07       16052.02293
          7.3e-07       16047.62092
         7.31e-07       16041.94319
         7.32e-07       16042.64357
         7.33e-07       16034.66308
         7.34e-07       16034.79811
         7.35e-07       16030.01136
         7.36e-07        16026.9801
         7.37e-07       16020.43538
         7.38e-07       16015.55145
         7.39e-07       16013.79902
          7.4e-07       16010.93823
         7.41e-07        16001.8188
         7.42e-07          15996.84
         7.43e-07       15991.78917
         7.44e-07       15987.71093
         7.45e-07       15988.06813
         7.46e-07       15987.65509
         7.47e-07        15980.6803
         7.48e-07       15975.69671
         7.49e-07       15967.63769
          7.5e-07       15964.07479
         7.51e-07       15959.77922
         7.52e-07       15955.74295
         7.53e-07       15949.57778
         7.54e-07       15945.41615
         7.55e-07       15941.43384
         7.56e-07       15933.65967
         7.57e-07       15929.27668
         7.58e-07        15926.3734
         7.59e-07       15923.76526
          7.6e-07       15922.39389
         7.61e-07       15919.10627
         7.62e-07       15911.43371
         7.63e-07       15901.76494
         7.64e-07       15894.05835
         7.65e-07       15890.76601
         7.66e-07       15887.56661
         7.67e-07       15884.92142
         7.68e-07       15882.94714
         7.69e-07       15877.09769
          7.7e-07       15869.32906
         7.71e-07       15863.13663
         7.72e-07       15858.95757
         7.73e-07       15851.39249
         7.74e-07       15843.40777
         7.75e-07       15840.14192
         7.76e-07       15836.65192
         7.77e-07       15830.05574
         7.78e-07       15829.68305
         7.79e-07       15826.89543
          7.8e-07       15817.01693
         7.81e-07       15812.16247
         7.82e-07       15809.27904
         7.83e-07       15805.95214
         7.84e-07        15800.6934
         7.85e-07       15799.71772
         7.86e-07       15798.94472
         7.87e-07       15798.55274
         7.88e-07        15792.0665
         7.89e-07        15787.6564
          7.9e-07       15783.52893
         7.91e-07       15784.94896
         7.92e-07       15780.15025
         7.93e-07       15779.22912
         7.94e-07       15775.52216
         7.95e-07       15768.01751
         7.96e-07       15763.17741
         7.97e-07       15759.88864
         7.98e-07        15757.3447
         7.99e-07       15751.86663
            8e-07       15747.45737
         8.01e-07       15743.28343
         8.02e-07       15739.65325
         8.03e-07       15734.27399
         8.04e-07        15734.9069
         8.05e-07       15726.35324
         8.06e-07       15723.15937
         8.07e-07       15717.94891
         8.08e-07       15713.58411
         8.09e-07       15708.44762
          8.1e-07       15705.12261
         8.11e-07       15702.55818
         8.12e-07       15699.09618
         8.13e-07       15695.75117
         8.14e-07       15694.46851
         8.15e-07       15689.45871
         8.16e-07       15685.43574
         8.17e-07       15684.41009
         8.18e-07       15680.22084
         8.19e-07       15677.79532
          8.2e-07       15675.65169
         8.21e-07       15677.18658
         8.22e-07       15670.17432
         8.23e-07       15668.10901
         8.24e-07       15665.34255
         8.25e-07       15661.69569
         8.26e-07       15659.37498
         8.27e-07       15653.27322
         8.28e-07       15649.30366
         8.29e-07       15647.56724
          8.3e-07       15646.06597
         8.31e-07       15640.71938