# Probe 0 (5e-06 5e-06 5e-06)
#           Probe                 0
#            Time
            1e-09       29971.18932
            2e-09       29923.88847
            3e-09       29852.28004
            4e-09       29804.11281
            5e-09       29743.61275
            6e-09       29694.14946
            7e-09       29642.26307
            8e-09       29576.60956
            9e-09       29519.17806
            1e-08       29469.45532
          1.1e-08       29411.79919
          1.2e-08       29347.74001
          1.3e-08       29283.77853
          1.4e-08        29233.0379
          1.5e-08       29176.44557
          1.6e-08       29117.99503
          1.7e-08       29055.64569
          1.8e-08       28997.56147
          1.9e-08       28955.71749
            2e-08       28898.30346
          2.1e-08       28851.40952
          2.2e-08       28795.04049
          2.3e-08       28753.86218
          2.4e-08       28701.24904
          2.5e-08       28645.07969
          2.6e-08       28575.91873
          2.7e-08       28522.29865
          2.8e-08       28481.33842
          2.9e-08       28423.27807
            3e-08       28366.30829
          3.1e-08       28294.69829
          3.2e-08       28241.88957
          3.3e-08       28187.71571
          3.4e-08       28124.75821
          3.5e-08       28093.33809
          3.6e-08       28029.95502
          3.7e-08       27973.05737
          3.8e-08       27914.66609
          3.9e-08       27857.26929
            4e-08       27807.77829
          4.1e-08       27756.48218
          4.2e-08       27712.60147
          4.3e-08       27655.42876
          4.4e-08       27594.73654
          4.5e-08       27541.72282
          4.6e-08       27489.20103
          4.7e-08       27447.91177
          4.8e-08       27377.42971
          4.9e-08        27323.2801
            5e-08       27265.98304
          5.1e-08       27194.16361
          5.2e-08       27136.75433
          5.3e-08        27091.7986
          5.4e-08       27039.85211
          5.5e-08       26976.88895
          5.6e-08       26916.01371
          5.7e-08       26863.53582
          5.8e-08       26818.36664
          5.9e-08       26764.38119
            6e-08       26684.08061
          6.1e-08       26617.10934
          6.2e-08       26576.27376
          6.3e-08       26544.47159
          6.4e-08       26476.26047
          6.5e-08       26435.95014
          6.6e-08        26375.6077
          6.7e-08        26328.0336
          6.8e-08       26278.58514
          6.9e-08       26240.79628
            7e-08       26194.56195
          7.1e-08       26157.80937
          7.2e-08       26094.93758
          7.3e-08       26037.38037
          7.4e-08       26001.05747
          7.5e-08        25955.0804
          7.6e-08       25893.76612
          7.7e-08        25839.6672
          7.8e-08       25790.32607
          7.9e-08       25733.28225
            8e-08       25692.49166
          8.1e-08       25633.18127
          8.2e-08       25583.41836
          8.3e-08       25547.09325
          8.4e-08       25488.28024
          8.5e-08       25429.34248
          8.6e-08       25393.53867
          8.7e-08       25336.44595
          8.8e-08       25284.93229
          8.9e-08       25235.97843
            9e-08       25197.23237
          9.1e-08       25146.20627
          9.2e-08       25099.91265
          9.3e-08       25038.91032
          9.4e-08       24994.63863
          9.5e-08       24957.30919
          9.6e-08       24937.27399
          9.7e-08       24884.85295
          9.8e-08       24845.04864
          9.9e-08       24794.61529
            1e-07       24746.53119
         1.01e-07         24730.843
         1.02e-07       24697.80887
         1.03e-07       24658.11888
         1.04e-07       24624.20086
         1.05e-07       24594.04946
         1.06e-07       24547.28121
         1.07e-07       24495.64998
         1.08e-07       24444.45217
         1.09e-07       24390.77655
          1.1e-07       24347.04165
         1.11e-07       24290.22328
         1.12e-07       24251.20414
         1.13e-07       24211.95659
         1.14e-07        24175.0856
         1.15e-07        24125.4668
         1.16e-07       24089.63079
         1.17e-07         24036.173
         1.18e-07       23995.31838
         1.19e-07       23943.96016
          1.2e-07       23895.35005
         1.21e-07        23864.0768
         1.22e-07       23813.66409
         1.23e-07        23760.9922
         1.24e-07       23736.37153
         1.25e-07       23693.28803
         1.26e-07       23634.87247
         1.27e-07       23599.53153
         1.28e-07       23582.28545
         1.29e-07       23550.00585
          1.3e-07        23518.2139
         1.31e-07       23468.73371
         1.32e-07       23440.99228
         1.33e-07       23406.49723
         1.34e-07       23392.97375
         1.35e-07       23348.72199
         1.36e-07       23319.04127
         1.37e-07       23271.74643
         1.38e-07       23236.52031
         1.39e-07       23194.88423
          1.4e-07       23175.42198
         1.41e-07       23137.85085
         1.42e-07       23091.62149
         1.43e-07        23041.8877
         1.44e-07       23018.31291
         1.45e-07       22986.15639
         1.46e-07       22943.82403
         1.47e-07       22913.15382
         1.48e-07       22876.17683
         1.49e-07       22846.00443
          1.5e-07       22816.81749
         1.51e-07       22763.21717
         1.52e-07       22721.65547
         1.53e-07       22693.70142
         1.54e-07        22652.9743
         1.55e-07       22618.55795
         1.56e-07        22580.2675
         1.57e-07       22559.22178
         1.58e-07       22529.84423
         1.59e-07       22499.24708
          1.6e-07       22466.02788
         1.61e-07       22439.98487
         1.62e-07       22408.77104
         1.63e-07       22393.42556
         1.64e-07        22359.7423
         1.65e-07       22330.29224
         1.66e-07       22295.96328
         1.67e-07       22259.35409
         1.68e-07       22227.44386
         1.69e-07        22191.5744
          1.7e-07       22157.48844
         1.71e-07       22124.65682
         1.72e-07       22085.65066
         1.73e-07       22054.11196
         1.74e-07       22013.21206
         1.75e-07       21989.79415
         1.76e-07       21954.27694
         1.77e-07       21923.84009
         1.78e-07       21892.73517
         1.79e-07       21862.45855
          1.8e-07       21836.51314
         1.81e-07       21815.36111
         1.82e-07       21795.34261
         1.83e-07       21757.98667
         1.84e-07       21714.29528
         1.85e-07       21685.18685
         1.86e-07       21661.00655
         1.87e-07       21624.05197
         1.88e-07       21590.67149
         1.89e-07       21568.15709
          1.9e-07       21540.99423
         1.91e-07       21508.13542
         1.92e-07       21476.64804
         1.93e-07       21458.88103
         1.94e-07        21426.3016
         1.95e-07       21412.84457
         1.96e-07       21374.20918
         1.97e-07       21340.97107
         1.98e-07       21326.45828
         1.99e-07       21292.13053
            2e-07       21254.82746
         2.01e-07       21220.99218
         2.02e-07       21196.37908
         2.03e-07       21155.51674
         2.04e-07       21131.15686
         2.05e-07       21103.85512
         2.06e-07       21080.83878
         2.07e-07       21033.61921
         2.08e-07        21009.5587
         2.09e-07       20987.06831
          2.1e-07       20996.89131
         2.11e-07        20966.2803
         2.12e-07       20941.34274
         2.13e-07       20933.51173
         2.14e-07       20918.42117
         2.15e-07       20891.50683
         2.16e-07       20872.57287
         2.17e-07       20860.10038
         2.18e-07       20838.03363
         2.19e-07        20815.8951
          2.2e-07       20771.79656
         2.21e-07       20767.99789
         2.22e-07       20742.15715
         2.23e-07       20707.23861
         2.24e-07       20685.78734
         2.25e-07       20654.01006
         2.26e-07       20632.91228
         2.27e-07       20616.61695
         2.28e-07       20588.35119
         2.29e-07       20558.36814
          2.3e-07       20527.80375
         2.31e-07       20493.04668
         2.32e-07       20471.69169
         2.33e-07       20439.15725
         2.34e-07       20419.85782
         2.35e-07       20398.10163
         2.36e-07       20389.65392
         2.37e-07        20361.1212
         2.38e-07       20343.55282
         2.39e-07       20325.68152
          2.4e-07       20312.38639
         2.41e-07       20283.78854
         2.42e-07       20258.38455
         2.43e-07       20242.80397
         2.44e-07       20216.55609
         2.45e-07       20196.36591
         2.46e-07       20180.50015
         2.47e-07       20177.98823
         2.48e-07       20172.90695
         2.49e-07       20158.16104
          2.5e-07       20148.79421
         2.51e-07       20141.68853
         2.52e-07       20123.73276
         2.53e-07       20108.73984
         2.54e-07       20082.25565
         2.55e-07        20050.5064
         2.56e-07       20043.18067
         2.57e-07       20031.13404
         2.58e-07       20021.80108
         2.59e-07       20026.37833
          2.6e-07       20013.91222
         2.61e-07       19980.64198
         2.62e-07       19961.76566
         2.63e-07       19963.98111
         2.64e-07       19937.29836
         2.65e-07       19900.91868
         2.66e-07       19876.84174
         2.67e-07       19855.00059
         2.68e-07       19848.80285
         2.69e-07       19821.65437
          2.7e-07       19804.88079
         2.71e-07       19779.21238
         2.72e-07       19763.63682
         2.73e-07        19755.3073
         2.74e-07       19740.38018
         2.75e-07        19729.0767
         2.76e-07       19707.56435
         2.77e-07       19677.40607
         2.78e-07       19669.07102
         2.79e-07       19637.08155
          2.8e-07       19614.03896
         2.81e-07        19601.6517
         2.82e-07       19599.45304
         2.83e-07       19575.48304
         2.84e-07       19566.01038
         2.85e-07       19554.65515
         2.86e-07        19526.5357
         2.87e-07       19510.19948
         2.88e-07        19493.1276
         2.89e-07        19446.8329
          2.9e-07       19435.11335
         2.91e-07       19415.94701
         2.92e-07       19402.38016
         2.93e-07       19386.87666
         2.94e-07        19363.8495
         2.95e-07       19353.41329
         2.96e-07       19350.94498
         2.97e-07       19331.98014
         2.98e-07       19314.61548
         2.99e-07       19299.30626
            3e-07       19274.38935
         3.01e-07       19243.53721
         3.02e-07       19223.63741
         3.03e-07        19212.0392
         3.04e-07       19205.21369
         3.05e-07       19210.62335
         3.06e-07       19180.17174
         3.07e-07       19148.15569
         3.08e-07       19131.48876
         3.09e-07       19126.39043
          3.1e-07       19110.96027
         3.11e-07       19091.31261
         3.12e-07       19070.09555
         3.13e-07       19054.14109
         3.14e-07       19043.26471
         3.15e-07       19019.60918
         3.16e-07       19003.84349
         3.17e-07       18998.00608
         3.18e-07        18983.0513
         3.19e-07       18971.82788
          3.2e-07       18954.84061
         3.21e-07       18937.80726
         3.22e-07       18936.15241
         3.23e-07       18931.72196
         3.24e-07       18915.29189
         3.25e-07       18905.68314
         3.26e-07       18900.29143
         3.27e-07       18892.14899
         3.28e-07       18880.23147
         3.29e-07       18874.84151
          3.3e-07       18866.34108
         3.31e-07       18854.23598
         3.32e-07       18838.14196
         3.33e-07       18815.91079
         3.34e-07       18815.53266
         3.35e-07        18816.7794
         3.36e-07       18789.61009
         3.37e-07       18760.18856
         3.38e-07       18749.51379
         3.39e-07       18742.08529
          3.4e-07       18725.49196
         3.41e-07       18717.44565
         3.42e-07       18698.66609
         3.43e-07       18688.70912
         3.44e-07       18678.36718
         3.45e-07       18653.67157
         3.46e-07       18644.82837
         3.47e-07        18623.7221
         3.48e-07       18617.62569
         3.49e-07       18597.54805
          3.5e-07       18582.44224
         3.51e-07       18581.09767
         3.52e-07        18568.4253
         3.53e-07       18549.98428
         3.54e-07        18539.1201
         3.55e-07       18532.33056
         3.56e-07       18516.68022
         3.57e-07       18497.63263
         3.58e-07       18497.99882
         3.59e-07       18481.23452
          3.6e-07       18464.45301
         3.61e-07       18424.76158
         3.62e-07        18416.4625
         3.63e-07       18401.22201
         3.64e-07       18412.20271
         3.65e-07       18378.28568
         3.66e-07       18365.96676
         3.67e-07       18349.52848
         3.68e-07        18330.8374
         3.69e-07       18307.75824
          3.7e-07       18292.49657
         3.71e-07       18282.41478
         3.72e-07       18267.86089
         3.73e-07       18261.74279
         3.74e-07       18235.49826
         3.75e-07       18217.28987
         3.76e-07       18203.30388
         3.77e-07       18200.09885
         3.78e-07        18197.9626
         3.79e-07       18186.42194
          3.8e-07       18175.32623
         3.81e-07       18159.76251
         3.82e-07       18146.67845
         3.83e-07       18140.73011
         3.84e-07       18138.83235
         3.85e-07       18137.30459
         3.86e-07       18124.42714
         3.87e-07       18095.22445
         3.88e-07        18095.1485
         3.89e-07       18078.91447
          3.9e-07       18064.96764
         3.91e-07       18069.94299
         3.92e-07       18046.11065
         3.93e-07       18037.46174
         3.94e-07       18020.39688
         3.95e-07       18003.33978
         3.96e-07        17978.2373
         3.97e-07       17971.78882
         3.98e-07       17955.24272
         3.99e-07       17947.71878
            4e-07       17938.64537
         4.01e-07       17916.39246
         4.02e-07       17924.14865
         4.03e-07       17915.95281
         4.04e-07         17906.927
         4.05e-07        17887.8098
         4.06e-07       17880.64206
         4.07e-07       17867.63668
         4.08e-07       17871.82172
         4.09e-07       17866.44642
          4.1e-07       17852.43107
         4.11e-07        17836.0819
         4.12e-07       17829.53355
         4.13e-07       17822.52468
         4.14e-07       17821.26886
         4.15e-07       17814.57318
         4.16e-07       17792.40266
         4.17e-07       17798.26179
         4.18e-07        17790.2196
         4.19e-07       17774.47481
          4.2e-07       17764.62871
         4.21e-07       17764.38382
         4.22e-07       17755.81755
         4.23e-07       17744.62518
         4.24e-07        17729.6003
         4.25e-07       17716.44045
         4.26e-07       17714.29976
         4.27e-07       17698.21523
         4.28e-07       17691.28993
         4.29e-07       17693.18325
          4.3e-07       17687.62374
         4.31e-07        17674.7142
         4.32e-07       17661.51815
         4.33e-07       17650.71302
         4.34e-07       17637.01094
         4.35e-07       17615.48309
         4.36e-07       17614.63331
         4.37e-07       17610.12833
         4.38e-07       17597.56711
         4.39e-07       17597.18769
          4.4e-07       17578.27042
         4.41e-07       17570.15591
         4.42e-07       17569.13623
         4.43e-07       17546.23149
         4.44e-07        17543.0088
         4.45e-07       17545.52832
         4.46e-07       17546.79332
         4.47e-07       17533.48544
         4.48e-07       17532.04498
         4.49e-07       17523.12125
          4.5e-07       17493.67269
         4.51e-07        17477.8954
         4.52e-07       17460.36308
         4.53e-07       17476.67443
         4.54e-07       17490.04126
         4.55e-07       17478.53953
         4.56e-07       17476.42081
         4.57e-07       17462.44407
         4.58e-07       17451.16039
         4.59e-07        17443.0547
          4.6e-07       17452.73819
         4.61e-07       17457.16623
         4.62e-07       17453.87721
         4.63e-07       17440.00228
         4.64e-07       17433.27032
         4.65e-07       17437.37851
         4.66e-07       17433.43635
         4.67e-07       17437.15285
         4.68e-07       17419.70689
         4.69e-07       17398.49233
          4.7e-07        17385.9847
         4.71e-07       17371.90166
         4.72e-07       17372.67168
         4.73e-07       17370.72175
         4.74e-07       17354.40081
         4.75e-07       17351.70302
         4.76e-07       17344.62015
         4.77e-07       17332.70632
         4.78e-07         17316.821
         4.79e-07       17328.87351
          4.8e-07        17314.4492
         4.81e-07       17297.33829
         4.82e-07        17295.6178
         4.83e-07       17280.95804
         4.84e-07       17272.31973
         4.85e-07       17260.09929
         4.86e-07       17248.02204
         4.87e-07       17250.35264
         4.88e-07       17249.99265
         4.89e-07       17227.86885
          4.9e-07       17216.72245
         4.91e-07       17213.83285
         4.92e-07       17192.56382
         4.93e-07       17183.07106
         4.94e-07       17172.96822
         4.95e-07       17188.47394
         4.96e-07       17188.27052
         4.97e-07       17164.75144
         4.98e-07       17155.65589
         4.99e-07       17143.01331
            5e-07       17134.99588
         5.01e-07       17118.09763
         5.02e-07       17100.00843
         5.03e-07       17110.68941
         5.04e-07       17102.29854
         5.05e-07        17084.8559
         5.06e-07       17098.13513
         5.07e-07       17083.39449
         5.08e-07       17092.32931
         5.09e-07       17084.11405
          5.1e-07       17075.12918
         5.11e-07       17061.95086
         5.12e-07       17045.69159
         5.13e-07       17021.39318
         5.14e-07       17022.78898
         5.15e-07       17015.16681
         5.16e-07       17001.17497
         5.17e-07       16989.84713
         5.18e-07       16968.60449
         5.19e-07       16952.04866
          5.2e-07        16939.3472
         5.21e-07       16915.76196
         5.22e-07        16916.1703
         5.23e-07       16913.12141
         5.24e-07       16902.08068
         5.25e-07       16894.49354
         5.26e-07       16890.04294
         5.27e-07       16887.30796
         5.28e-07       16884.01786
         5.29e-07       16892.60791
          5.3e-07       16890.39787
         5.31e-07       16883.32911
         5.32e-07       16877.34914
         5.33e-07       16869.68775
         5.34e-07       16860.85378
         5.35e-07       16863.15252
         5.36e-07       16870.06522
         5.37e-07       16865.70059
         5.38e-07        16855.3335
         5.39e-07       16844.48722
          5.4e-07       16839.84671
         5.41e-07       16833.61723
         5.42e-07       16837.27326
         5.43e-07       16844.79686
         5.44e-07       16836.76566
         5.45e-07       16858.78136
         5.46e-07       16855.53907
         5.47e-07       16846.90877
         5.48e-07       16857.21339
         5.49e-07       16857.13586
          5.5e-07       16850.21666
         5.51e-07       16831.32292
         5.52e-07       16816.53447
         5.53e-07       16813.67032
         5.54e-07       16807.49245
         5.55e-07       16793.62129
         5.56e-07       16784.38647
         5.57e-07       16786.32433
         5.58e-07       16774.13947
         5.59e-07       16768.74543
          5.6e-07       16762.15323
         5.61e-07       16740.42898
         5.62e-07       16741.84161
         5.63e-07       16739.83681
         5.64e-07        16740.5351
         5.65e-07       16749.10207
         5.66e-07       16739.52073
         5.67e-07       16740.05884
         5.68e-07       16728.68036
         5.69e-07       16722.14279
          5.7e-07       16725.66283
         5.71e-07       16720.27354
         5.72e-07       16710.36093
         5.73e-07       16695.16396
         5.74e-07       16688.76485
         5.75e-07       16691.42279
         5.76e-07       16675.51604
         5.77e-07       16663.07041
         5.78e-07       16667.61897
         5.79e-07       16667.11904
          5.8e-07       16663.36059
         5.81e-07       16670.11649
         5.82e-07       16664.07329
         5.83e-07       16656.00984
         5.84e-07       16650.48961
         5.85e-07       16643.24432
         5.86e-07       16634.52612
         5.87e-07       16622.29072
         5.88e-07       16625.97407
         5.89e-07       16615.08562
          5.9e-07       16596.96687
         5.91e-07       16591.13133
         5.92e-07       16587.42311
         5.93e-07       16560.08959
         5.94e-07       16559.89223
         5.95e-07       16548.65956
         5.96e-07       16538.30488
         5.97e-07       16525.75669
         5.98e-07       16530.71827
         5.99e-07       16515.43337
            6e-07       16509.52434
         6.01e-07       16504.78609
         6.02e-07       16490.59237
         6.03e-07       16488.95927
         6.04e-07       16476.55119
         6.05e-07       16470.62271
         6.06e-07        16476.7594
         6.07e-07       16478.22433
         6.08e-07       16469.19268
         6.09e-07       16469.73848
          6.1e-07       16462.39245
         6.11e-07       16444.30063
         6.12e-07       16449.12889
         6.13e-07       16447.73072
         6.14e-07       16456.95716
         6.15e-07       16456.14221
         6.16e-07       16450.16946
         6.17e-07       16427.51373
         6.18e-07       16426.85941
         6.19e-07       16414.52585
          6.2e-07       16412.23251
         6.21e-07       16407.23879
         6.22e-07       16398.94915
         6.23e-07       16386.41779
         6.24e-07       16389.23817
         6.25e-07       16364.11977
         6.26e-07       16365.88638
         6.27e-07       16361.77583
         6.28e-07       16363.46555
         6.29e-07        16351.9075
          6.3e-07       16340.67141
         6.31e-07       16337.35875
         6.32e-07       16345.20489
         6.33e-07       16338.74737
         6.34e-07       16336.22499
         6.35e-07        16343.8014
         6.36e-07       16338.22235
         6.37e-07       16340.71459
         6.38e-07       16320.41144
         6.39e-07       16299.90185
          6.4e-07       16288.67161
         6.41e-07       16290.11856
         6.42e-07       16281.06952
         6.43e-07       16268.07643
         6.44e-07       16252.63165
         6.45e-07       16235.60886
         6.46e-07       16229.93086
         6.47e-07       16222.26127
         6.48e-07       16236.60675
         6.49e-07       16232.97652
          6.5e-07        16237.5547
         6.51e-07       16223.54614
         6.52e-07       16207.03567
         6.53e-07       16183.77955
         6.54e-07       16176.28669
         6.55e-07       16161.89375
         6.56e-07       16151.23614
         6.57e-07        16155.4321
         6.58e-07       16158.95727
         6.59e-07       16143.59385
          6.6e-07        16138.8776
         6.61e-07       16127.82765
         6.62e-07        16128.8675
         6.63e-07       16121.24838
         6.64e-07       16117.77935
         6.65e-07       16116.14536
         6.66e-07       16116.76064
         6.67e-07       16107.49518
         6.68e-07       16099.00927
         6.69e-07       16090.12494
          6.7e-07       16093.92089
         6.71e-07       16092.92714
         6.72e-07       16096.91937
         6.73e-07       16089.56306
         6.74e-07       16074.09036
         6.75e-07       16062.85995
         6.76e-07       16046.33974
         6.77e-07       16041.23235
         6.78e-07       16025.31576
         6.79e-07       16036.84117
          6.8e-07        16028.7996
         6.81e-07       16035.57562
         6.82e-07       16034.18141
         6.83e-07        16026.1441
         6.84e-07        16025.4551
         6.85e-07       16021.85155
         6.86e-07       16023.96817
         6.87e-07       16013.45768
         6.88e-07       15990.70262
         6.89e-07       15987.03273
          6.9e-07       15983.14246
         6.91e-07       15968.95014
         6.92e-07       15982.75199
         6.93e-07        15959.9326
         6.94e-07       15956.49602
         6.95e-07       15963.31791
         6.96e-07       15955.00442
         6.97e-07       15950.93963
         6.98e-07       15946.94304
         6.99e-07       15939.99483
            7e-07       15934.11133
         7.01e-07        15939.8331
         7.02e-07       15922.84966
         7.03e-07       15939.84384
         7.04e-07       15929.69125
         7.05e-07        15923.7329
         7.06e-07       15903.91126
         7.07e-07       15907.25904
         7.08e-07       15921.71491
         7.09e-07       15922.62152
          7.1e-07       15915.67434
         7.11e-07       15910.49498
         7.12e-07       15884.71133
         7.13e-07        15884.6151
         7.14e-07       15871.71522
         7.15e-07       15859.58325
         7.16e-07       15861.73493
         7.17e-07       15863.60215
         7.18e-07        15868.0372
         7.19e-07       15870.42325
          7.2e-07       15876.65216
         7.21e-07       15876.83314
         7.22e-07       15865.47135
         7.23e-07       15857.98424
         7.24e-07       15869.51866
         7.25e-07       15854.72551
         7.26e-07       15854.37594
         7.27e-07       15857.57007
         7.28e-07       15846.97921
         7.29e-07       15831.56607
          7.3e-07       15821.78024
         7.31e-07        15842.5209
         7.32e-07       15834.08391
         7.33e-07       15824.46413
         7.34e-07       15832.97524
         7.35e-07        15843.7737
         7.36e-07       15847.93186
         7.37e-07       15854.46591
         7.38e-07       15863.95534
         7.39e-07       15855.35621
          7.4e-07       15845.90949
         7.41e-07       15837.25508
         7.42e-07       15828.71014
         7.43e-07       15809.06309
         7.44e-07       15786.81076
         7.45e-07       15775.53622
         7.46e-07       15770.84117
         7.47e-07       15755.85041
         7.48e-07       15738.45444
         7.49e-07       15740.04311
          7.5e-07       15730.86163
         7.51e-07       15732.75251
         7.52e-07       15725.93468
         7.53e-07       15715.35969
         7.54e-07       15703.74962
         7.55e-07       15700.97724
         7.56e-07       15702.49099
         7.57e-07       15715.37527
         7.58e-07       15716.94752
         7.59e-07       15710.66154
          7.6e-07       15718.81628
         7.61e-07       15725.65847
         7.62e-07        15719.5808
         7.63e-07       15717.59717
         7.64e-07       15698.64145
         7.65e-07       15692.49674
         7.66e-07       15693.42343
         7.67e-07       15679.77462
         7.68e-07       15666.92265
         7.69e-07       15663.94073
          7.7e-07       15653.56421
         7.71e-07       15652.36286
         7.72e-07       15647.37356
         7.73e-07       15633.43296
         7.74e-07        15609.6219
         7.75e-07       15619.63407
         7.76e-07       15618.86753
         7.77e-07       15609.67153
         7.78e-07       15614.44257
         7.79e-07       15618.60369
          7.8e-07       15618.01541
         7.81e-07       15624.98426
         7.82e-07       15631.88713
         7.83e-07       15631.44543
         7.84e-07       15614.08936
         7.85e-07       15609.57714
         7.86e-07       15613.95583
         7.87e-07       15610.63527
         7.88e-07       15608.34667
         7.89e-07       15591.25642
          7.9e-07       15607.48211
         7.91e-07       15593.97466
         7.92e-07       15598.47966
         7.93e-07        15604.5774
         7.94e-07       15598.22223
         7.95e-07       15593.60293
         7.96e-07       15601.45232
         7.97e-07       15611.92988
         7.98e-07       15602.66688
         7.99e-07       15601.14482
            8e-07        15583.6237
         8.01e-07       15579.89921
         8.02e-07       15572.84379
         8.03e-07       15574.07769
         8.04e-07        15571.1554
         8.05e-07       15558.61311
         8.06e-07       15545.65384
         8.07e-07       15544.67912
         8.08e-07       15550.10233
         8.09e-07       15550.68007
          8.1e-07       15544.30427
         8.11e-07       15547.33198
         8.12e-07       15549.75279
         8.13e-07       15553.98979
         8.14e-07         15545.999
         8.15e-07       15540.18028
         8.16e-07       15546.14986
         8.17e-07       15556.31383
         8.18e-07       15552.94611
         8.19e-07       15540.64724
          8.2e-07       15537.42223
         8.21e-07       15525.25104
         8.22e-07       15523.59279
         8.23e-07       15532.22491
         8.24e-07       15523.46929
         8.25e-07         15522.631
         8.26e-07       15509.96979
         8.27e-07       15509.78013
         8.28e-07       15505.40424
         8.29e-07       15506.62042
          8.3e-07       15481.70052
         8.31e-07       15480.36766