# Probe 0 (5e-06 5e-06 5e-06)
#           Probe                 0
#            Time
            1e-09       30025.20234
            2e-09       29953.97679
            3e-09       29898.16715
            4e-09       29849.75592
            5e-09       29801.83069
            6e-09       29742.96054
            7e-09       29669.64035
            8e-09       29613.64947
            9e-09       29553.39454
            1e-08       29505.26845
          1.1e-08       29452.82507
          1.2e-08       29414.55085
          1.3e-08       29374.45544
          1.4e-08       29324.34215
          1.5e-08       29268.11941
          1.6e-08       29203.25318
          1.7e-08        29162.9294
          1.8e-08       29119.02798
          1.9e-08       29066.56171
            2e-08        29011.5803
          2.1e-08       28946.87846
          2.2e-08       28895.73614
          2.3e-08       28836.94119
          2.4e-08        28783.2019
          2.5e-08       28742.20281
          2.6e-08       28693.74269
          2.7e-08       28646.70278
          2.8e-08       28582.37009
          2.9e-08       28534.16751
            3e-08       28483.28495
          3.1e-08        28435.8761
          3.2e-08       28380.09616
          3.3e-08       28332.24391
          3.4e-08       28294.66259
          3.5e-08       28239.51996
          3.6e-08       28187.90685
          3.7e-08       28127.73708
          3.8e-08        28086.9121
          3.9e-08       28032.73393
            4e-08       27992.29579
          4.1e-08       27930.95899
          4.2e-08       27880.07529
          4.3e-08       27821.35736
          4.4e-08       27784.47912
          4.5e-08       27739.01892
          4.6e-08        27688.0551
          4.7e-08       27624.10137
          4.8e-08       27584.90971
          4.9e-08       27530.98071
            5e-08       27478.60376
          5.1e-08       27439.82377
          5.2e-08       27392.45926
          5.3e-08       27333.48581
          5.4e-08       27279.96623
          5.5e-08       27233.90923
          5.6e-08       27180.25691
          5.7e-08       27121.63599
          5.8e-08       27082.35769
          5.9e-08       27037.70453
            6e-08       26993.83175
          6.1e-08       26950.94189
          6.2e-08       26908.60253
          6.3e-08       26849.33381
          6.4e-08       26807.99656
          6.5e-08       26755.60015
          6.6e-08       26707.88942
          6.7e-08       26662.37081
          6.8e-08       26614.04795
          6.9e-08       26560.24647
            7e-08       26497.47247
          7.1e-08       26444.77273
          7.2e-08       26418.18899
          7.3e-08       26373.41896
          7.4e-08       26327.85102
          7.5e-08       26276.06055
          7.6e-08       26243.10845
          7.7e-08       26196.25211
          7.8e-08       26149.67198
          7.9e-08       26100.84126
            8e-08       26061.70372
          8.1e-08       26030.00037
          8.2e-08       25990.26061
          8.3e-08         25940.467
          8.4e-08       25899.91687
          8.5e-08       25865.20409
          8.6e-08       25816.71284
          8.7e-08       25774.92027
          8.8e-08        25728.2694
          8.9e-08       25683.55726
            9e-08       25636.84829
          9.1e-08       25589.31341
          9.2e-08       25544.01309
          9.3e-08       25497.48547
          9.4e-08       25458.11414
          9.5e-08       25413.64939
          9.6e-08       25375.49171
          9.7e-08       25340.32789
          9.8e-08       25294.65269
          9.9e-08       25258.29456
            1e-07       25214.83412
         1.01e-07       25162.28396
         1.02e-07       25105.47417
         1.03e-07        25067.4647
         1.04e-07       25018.90017
         1.05e-07       24972.08156
         1.06e-07       24937.20249
         1.07e-07       24891.61164
         1.08e-07       24851.18149
         1.09e-07       24803.84477
          1.1e-07       24771.38645
         1.11e-07       24737.28416
         1.12e-07       24698.14983
         1.13e-07       24662.86573
         1.14e-07       24622.74331
         1.15e-07       24580.37658
         1.16e-07       24538.76187
         1.17e-07       24499.62764
         1.18e-07       24465.72266
         1.19e-07       24437.74717
          1.2e-07        24406.3432
         1.21e-07       24361.31252
         1.22e-07       24330.95858
         1.23e-07       24297.84439
         1.24e-07       24253.44168
         1.25e-07        24212.1573
         1.26e-07        24172.5004
         1.27e-07       24139.79682
         1.28e-07        24103.7393
         1.29e-07       24069.20529
          1.3e-07       24031.07681
         1.31e-07       24000.34109
         1.32e-07       23954.69859
         1.33e-07       23915.81727
         1.34e-07        23874.7846
         1.35e-07       23847.43173
         1.36e-07       23816.77406
         1.37e-07       23784.29407
         1.38e-07       23751.81137
         1.39e-07        23720.0104
          1.4e-07       23686.09996
         1.41e-07       23647.86889
         1.42e-07       23613.67618
         1.43e-07       23583.16638
         1.44e-07       23549.21302
         1.45e-07       23514.29845
         1.46e-07       23485.07404
         1.47e-07         23452.534
         1.48e-07       23413.37242
         1.49e-07       23372.71829
          1.5e-07       23340.42337
         1.51e-07       23310.49327
         1.52e-07       23290.27485
         1.53e-07       23252.05457
         1.54e-07       23226.73333
         1.55e-07       23200.47319
         1.56e-07        23170.6758
         1.57e-07       23140.19556
         1.58e-07       23104.89582
         1.59e-07       23071.85448
          1.6e-07       23039.99999
         1.61e-07       23004.86713
         1.62e-07       22980.45075
         1.63e-07       22946.84161
         1.64e-07       22919.21903
         1.65e-07       22884.74265
         1.66e-07       22854.94349
         1.67e-07       22826.89158
         1.68e-07       22799.02097
         1.69e-07        22772.4732
          1.7e-07         22743.064
         1.71e-07       22715.67501
         1.72e-07       22689.27076
         1.73e-07       22664.72338
         1.74e-07       22640.39581
         1.75e-07       22608.74204
         1.76e-07       22586.17622
         1.77e-07       22560.00946
         1.78e-07       22532.87666
         1.79e-07       22510.32617
          1.8e-07       22485.68719
         1.81e-07       22459.47054
         1.82e-07       22427.10566
         1.83e-07         22405.919
         1.84e-07       22377.77019
         1.85e-07         22350.637
         1.86e-07       22327.97434
         1.87e-07       22295.71086
         1.88e-07       22266.40627
         1.89e-07       22248.53321
          1.9e-07       22222.02784
         1.91e-07       22194.78323
         1.92e-07        22163.7836
         1.93e-07       22128.48786
         1.94e-07       22100.93612
         1.95e-07       22072.20044
         1.96e-07       22043.23628
         1.97e-07        22015.2076
         1.98e-07       21988.12881
         1.99e-07       21959.32738
            2e-07       21939.00882
         2.01e-07       21920.10517
         2.02e-07       21893.79237
         2.03e-07        21876.3445
         2.04e-07       21847.91804
         2.05e-07       21824.83287
         2.06e-07       21804.72109
         2.07e-07       21786.31775
         2.08e-07       21768.71563
         2.09e-07       21742.34466
          2.1e-07       21714.34669
         2.11e-07       21687.03784
         2.12e-07        21659.4011
         2.13e-07       21634.85205
         2.14e-07       21613.96927
         2.15e-07       21587.05156
         2.16e-07       21562.19926
         2.17e-07       21534.29084
         2.18e-07       21514.55454
         2.19e-07       21489.85338
          2.2e-07       21471.77883
         2.21e-07       21437.27949
         2.22e-07       21418.32939
         2.23e-07       21397.22241
         2.24e-07       21374.04193
         2.25e-07       21358.22725
         2.26e-07        21337.5515
         2.27e-07        21308.7097
         2.28e-07       21290.00871
         2.29e-07       21273.14135
          2.3e-07         21258.563
         2.31e-07       21241.23951
         2.32e-07        21216.0434
         2.33e-07       21199.65587
         2.34e-07       21176.45392
         2.35e-07       21148.88488
         2.36e-07       21124.35791
         2.37e-07         21104.391
         2.38e-07       21077.83508
         2.39e-07       21063.55467
          2.4e-07        21042.5607
         2.41e-07       21022.20398
         2.42e-07       21001.41424
         2.43e-07       20980.55225
         2.44e-07       20967.29863
         2.45e-07       20949.95957
         2.46e-07       20923.37085
         2.47e-07       20900.50477
         2.48e-07        20880.1471
         2.49e-07       20858.85939
          2.5e-07       20836.72169
         2.51e-07       20814.20297
         2.52e-07       20799.02524
         2.53e-07       20780.79964
         2.54e-07       20759.51988
         2.55e-07       20743.51113
         2.56e-07       20715.54663
         2.57e-07       20696.51552
         2.58e-07       20683.06125
         2.59e-07       20660.23494
          2.6e-07       20641.03153
         2.61e-07       20629.29047
         2.62e-07       20608.25176
         2.63e-07       20587.32102
         2.64e-07       20563.60056
         2.65e-07       20551.21361
         2.66e-07       20528.66706
         2.67e-07        20508.8008
         2.68e-07       20487.45924
         2.69e-07       20471.08219
          2.7e-07       20452.41377
         2.71e-07       20444.42493
         2.72e-07       20421.42425
         2.73e-07       20397.82637
         2.74e-07       20380.06449
         2.75e-07       20356.78888
         2.76e-07       20341.40908
         2.77e-07       20318.58066
         2.78e-07       20300.41663
         2.79e-07       20288.80694
          2.8e-07       20277.11909
         2.81e-07       20257.58679
         2.82e-07       20236.03248
         2.83e-07       20216.16083
         2.84e-07       20195.69719
         2.85e-07       20175.01198
         2.86e-07       20160.28276
         2.87e-07       20151.47717
         2.88e-07       20135.58446
         2.89e-07       20127.03034
          2.9e-07       20107.91204
         2.91e-07       20087.48455
         2.92e-07        20065.0758
         2.93e-07       20052.29451
         2.94e-07       20038.92665
         2.95e-07       20019.38885
         2.96e-07       19999.75339
         2.97e-07       19986.30254
         2.98e-07       19971.27956
         2.99e-07       19955.58473
            3e-07       19941.46061
         3.01e-07       19922.38518
         3.02e-07       19903.70189
         3.03e-07       19893.17491
         3.04e-07       19876.62858
         3.05e-07       19850.76135
         3.06e-07       19835.59569
         3.07e-07       19818.88281
         3.08e-07       19803.73445
         3.09e-07        19789.1349
          3.1e-07       19775.85817
         3.11e-07       19761.33492
         3.12e-07       19747.05517
         3.13e-07       19734.71883
         3.14e-07       19714.94688
         3.15e-07       19705.30724
         3.16e-07       19692.96173
         3.17e-07       19675.11004
         3.18e-07       19661.32129
         3.19e-07       19646.68916
          3.2e-07       19634.81499
         3.21e-07       19624.24898
         3.22e-07       19609.82096
         3.23e-07       19588.63749
         3.24e-07       19574.57285
         3.25e-07       19554.18514
         3.26e-07       19532.70229
         3.27e-07       19517.06835
         3.28e-07       19501.71405
         3.29e-07        19488.4804
          3.3e-07       19474.82957
         3.31e-07       19458.07125
         3.32e-07        19449.3327
         3.33e-07       19441.28684
         3.34e-07       19428.48801
         3.35e-07       19409.01104
         3.36e-07       19397.93737
         3.37e-07       19389.12089
         3.38e-07       19373.80412
         3.39e-07       19357.95468
          3.4e-07       19344.01915
         3.41e-07       19326.31709
         3.42e-07       19313.18284
         3.43e-07       19298.79043
         3.44e-07       19281.89874
         3.45e-07       19269.11166
         3.46e-07       19251.65036
         3.47e-07       19240.12879
         3.48e-07       19230.01304
         3.49e-07       19220.51066
          3.5e-07        19206.2593
         3.51e-07       19187.95513
         3.52e-07       19178.96789
         3.53e-07       19175.80877
         3.54e-07       19165.50666
         3.55e-07       19146.65235
         3.56e-07       19135.12045
         3.57e-07       19122.92907
         3.58e-07       19106.50974
         3.59e-07       19094.13322
          3.6e-07       19084.25534
         3.61e-07       19076.92289
         3.62e-07       19063.31149
         3.63e-07        19050.5286
         3.64e-07        19034.9952
         3.65e-07       19024.69739
         3.66e-07       19012.72406
         3.67e-07       19004.04061
         3.68e-07       18994.81122
         3.69e-07       18985.98012
          3.7e-07       18980.30922
         3.71e-07       18973.68688
         3.72e-07       18963.06212
         3.73e-07       18953.49586
         3.74e-07       18939.55072
         3.75e-07       18930.78036
         3.76e-07       18918.75618
         3.77e-07       18902.51421
         3.78e-07       18890.35603
         3.79e-07       18874.99056
          3.8e-07       18866.11858
         3.81e-07       18858.99042
         3.82e-07       18852.42388
         3.83e-07       18838.63312
         3.84e-07       18830.10194
         3.85e-07       18816.81523
         3.86e-07       18802.66069
         3.87e-07         18799.933
         3.88e-07       18788.83891
         3.89e-07       18780.19184
          3.9e-07        18767.5856
         3.91e-07       18754.01162
         3.92e-07       18746.26459
         3.93e-07       18733.39542
         3.94e-07       18720.03081
         3.95e-07        18711.0937
         3.96e-07       18702.71969
         3.97e-07       18694.23249
         3.98e-07       18688.24993
         3.99e-07       18678.67698
            4e-07       18670.40831
         4.01e-07       18656.11261
         4.02e-07       18643.74895
         4.03e-07       18634.47803
         4.04e-07       18623.01111
         4.05e-07       18611.48188
         4.06e-07       18598.70464
         4.07e-07       18590.27578
         4.08e-07       18574.35614
         4.09e-07        18564.9839
          4.1e-07       18554.74085
         4.11e-07       18546.81304
         4.12e-07       18537.97624
         4.13e-07        18529.8779
         4.14e-07       18516.35369
         4.15e-07       18503.87589
         4.16e-07       18496.95859
         4.17e-07       18483.46782
         4.18e-07       18476.74203
         4.19e-07       18467.44572
          4.2e-07       18455.76926
         4.21e-07       18445.33329
         4.22e-07       18432.89909
         4.23e-07       18425.15453
         4.24e-07       18417.99861
         4.25e-07       18408.17667
         4.26e-07       18397.05114
         4.27e-07       18388.93652
         4.28e-07       18379.27925
         4.29e-07       18368.84386
          4.3e-07       18359.74013
         4.31e-07       18344.55653
         4.32e-07       18334.02557
         4.33e-07       18324.06339
         4.34e-07        18316.5931
         4.35e-07       18311.26517
         4.36e-07       18300.00638
         4.37e-07       18285.90852
         4.38e-07        18277.3875
         4.39e-07       18263.60309
          4.4e-07       18256.46032
         4.41e-07       18246.10913
         4.42e-07       18235.42126
         4.43e-07       18229.81632
         4.44e-07       18219.67048
         4.45e-07       18210.97487
         4.46e-07       18205.69586
         4.47e-07       18197.52164
         4.48e-07       18187.80655
         4.49e-07       18179.78675
          4.5e-07       18171.54905
         4.51e-07        18163.5387
         4.52e-07       18156.33617
         4.53e-07       18138.95424
         4.54e-07       18124.31121
         4.55e-07       18114.14857
         4.56e-07       18100.97721
         4.57e-07        18095.0247
         4.58e-07       18087.58039
         4.59e-07       18073.87072
          4.6e-07       18066.69358
         4.61e-07       18049.97207
         4.62e-07       18041.21599
         4.63e-07       18030.51881
         4.64e-07       18023.50165
         4.65e-07       18017.11355
         4.66e-07       18009.34034
         4.67e-07       17996.76106
         4.68e-07       17992.32169
         4.69e-07       17986.71537
          4.7e-07       17981.38797
         4.71e-07       17974.36465
         4.72e-07       17960.29666
         4.73e-07       17953.77025
         4.74e-07       17945.02649
         4.75e-07       17934.48474
         4.76e-07       17923.81382
         4.77e-07        17914.5986
         4.78e-07       17906.12751
         4.79e-07       17890.69266
          4.8e-07       17881.53493
         4.81e-07       17879.26733
         4.82e-07       17871.81612
         4.83e-07        17864.9554
         4.84e-07       17853.49435
         4.85e-07       17845.47184
         4.86e-07       17841.34026
         4.87e-07        17831.7295
         4.88e-07       17823.35286
         4.89e-07       17818.80183
          4.9e-07        17809.1663
         4.91e-07       17796.63619
         4.92e-07       17789.50995
         4.93e-07       17778.20201
         4.94e-07       17774.20443
         4.95e-07        17761.1758
         4.96e-07       17752.13316
         4.97e-07       17748.29164
         4.98e-07       17738.42959
         4.99e-07       17732.59468
            5e-07       17726.53348
         5.01e-07        17724.3923
         5.02e-07       17718.46885
         5.03e-07       17707.79365
         5.04e-07       17701.74323
         5.05e-07         17695.301
         5.06e-07       17682.75327
         5.07e-07        17677.0017
         5.08e-07       17665.72608
         5.09e-07       17658.64546
          5.1e-07       17653.45016
         5.11e-07       17644.81925
         5.12e-07       17640.65874
         5.13e-07       17636.48422
         5.14e-07         17626.431
         5.15e-07        17618.7953
         5.16e-07       17620.88349
         5.17e-07       17610.14959
         5.18e-07       17608.89289
         5.19e-07       17603.01334
          5.2e-07       17599.42568
         5.21e-07        17590.4374
         5.22e-07       17579.46441
         5.23e-07       17568.84454
         5.24e-07       17559.88242
         5.25e-07       17547.24502
         5.26e-07       17542.90951
         5.27e-07       17533.61669
         5.28e-07       17524.75994
         5.29e-07       17516.30449
          5.3e-07         17508.053
         5.31e-07       17502.79227
         5.32e-07       17500.31979
         5.33e-07       17493.22763
         5.34e-07       17486.44514
         5.35e-07       17477.60857
         5.36e-07       17467.62483
         5.37e-07         17461.271
         5.38e-07       17451.08672
         5.39e-07       17445.45522
          5.4e-07       17438.18619
         5.41e-07       17432.24303
         5.42e-07       17422.21179
         5.43e-07       17413.47344
         5.44e-07       17406.43545
         5.45e-07        17394.2096
         5.46e-07       17383.49477
         5.47e-07       17376.61272
         5.48e-07       17363.45265
         5.49e-07       17354.17922
          5.5e-07       17344.51603
         5.51e-07       17335.74988
         5.52e-07       17330.17046
         5.53e-07       17320.81295
         5.54e-07       17312.37496
         5.55e-07       17302.44642
         5.56e-07       17295.26647
         5.57e-07       17287.92088
         5.58e-07        17282.5549
         5.59e-07       17275.02574
          5.6e-07       17265.82012
         5.61e-07       17258.38588
         5.62e-07       17248.93309
         5.63e-07       17241.90051
         5.64e-07       17232.43555
         5.65e-07       17227.03744
         5.66e-07       17221.28622
         5.67e-07       17214.46056
         5.68e-07       17205.20253
         5.69e-07       17197.41826
          5.7e-07       17187.15397
         5.71e-07       17181.73824
         5.72e-07       17175.57374
         5.73e-07       17166.76386
         5.74e-07       17154.39023
         5.75e-07       17145.43127
         5.76e-07       17140.11003
         5.77e-07       17134.52734
         5.78e-07       17123.52916
         5.79e-07       17117.06988
          5.8e-07       17113.21482
         5.81e-07       17106.38059
         5.82e-07       17102.56676
         5.83e-07       17092.81836
         5.84e-07       17087.27015
         5.85e-07       17078.92046
         5.86e-07       17073.51699
         5.87e-07       17066.96562
         5.88e-07       17057.08474
         5.89e-07       17051.36105
          5.9e-07       17047.92059
         5.91e-07       17041.42798
         5.92e-07       17034.85575
         5.93e-07       17030.35521
         5.94e-07       17023.90444
         5.95e-07       17022.01982
         5.96e-07        17018.0888
         5.97e-07       17011.98736
         5.98e-07       17001.20066
         5.99e-07       16995.18805
            6e-07       16989.47998
         6.01e-07        16983.3399
         6.02e-07       16981.13802
         6.03e-07       16972.53443
         6.04e-07       16966.87211
         6.05e-07       16959.33168
         6.06e-07       16950.69471
         6.07e-07       16942.99395
         6.08e-07       16939.15234
         6.09e-07       16932.40811
          6.1e-07       16926.02828
         6.11e-07       16924.72193
         6.12e-07       16913.71313
         6.13e-07       16905.02729
         6.14e-07        16896.9023
         6.15e-07       16893.32426
         6.16e-07       16889.78212
         6.17e-07        16888.9003
         6.18e-07       16881.71986
         6.19e-07       16874.30645
          6.2e-07       16867.75697
         6.21e-07       16865.78521
         6.22e-07       16862.93276
         6.23e-07       16859.44155
         6.24e-07       16855.51078
         6.25e-07       16852.08772
         6.26e-07       16840.88913
         6.27e-07       16837.45743
         6.28e-07       16832.58945
         6.29e-07       16827.26454
          6.3e-07       16821.51169
         6.31e-07       16816.88137
         6.32e-07       16810.93314
         6.33e-07       16805.56469
         6.34e-07       16798.92646
         6.35e-07       16791.10797
         6.36e-07       16786.22115
         6.37e-07       16783.88714
         6.38e-07       16781.66438
         6.39e-07       16776.59905
          6.4e-07       16771.25665
         6.41e-07       16767.54371
         6.42e-07       16764.31125
         6.43e-07       16757.49899
         6.44e-07       16752.09445
         6.45e-07       16744.55118
         6.46e-07       16739.71187
         6.47e-07       16736.40278
         6.48e-07       16730.49853
         6.49e-07       16717.93361
          6.5e-07       16710.37788
         6.51e-07       16710.40556
         6.52e-07       16705.40518
         6.53e-07       16700.23481
         6.54e-07       16694.27923
         6.55e-07       16688.92251
         6.56e-07       16682.64862
         6.57e-07       16677.88056
         6.58e-07       16667.15298
         6.59e-07       16660.71645
          6.6e-07       16657.97693
         6.61e-07       16649.63864
         6.62e-07        16644.9104
         6.63e-07        16640.5587
         6.64e-07       16634.29169
         6.65e-07       16628.92447
         6.66e-07       16622.33548
         6.67e-07       16622.01448
         6.68e-07       16617.05201
         6.69e-07       16610.67994
          6.7e-07       16603.04783
         6.71e-07       16595.10181
         6.72e-07       16590.05758
         6.73e-07       16584.98399
         6.74e-07       16583.14167
         6.75e-07       16576.91137
         6.76e-07       16569.50926
         6.77e-07       16559.92387
         6.78e-07       16558.17794
         6.79e-07       16550.14845
          6.8e-07       16543.60069
         6.81e-07       16535.44165
         6.82e-07       16530.73396
         6.83e-07       16526.72694
         6.84e-07       16522.84816
         6.85e-07       16515.80387
         6.86e-07       16510.70159
         6.87e-07       16506.08699
         6.88e-07       16506.73017
         6.89e-07       16501.29615
          6.9e-07       16494.47767
         6.91e-07       16494.31666
         6.92e-07         16487.867
         6.93e-07        16486.0998
         6.94e-07       16478.30561
         6.95e-07       16471.98638
         6.96e-07       16464.12542
         6.97e-07       16457.24564
         6.98e-07       16451.91289
         6.99e-07       16445.06621
            7e-07       16439.67585
         7.01e-07       16431.80946
         7.02e-07       16431.40452
         7.03e-07       16423.16997
         7.04e-07       16418.58066
         7.05e-07        16415.2853
         7.06e-07        16412.8315
         7.07e-07       16407.92614
         7.08e-07       16400.63057
         7.09e-07        16396.8738
          7.1e-07       16395.04929
         7.11e-07       16390.55645
         7.12e-07       16390.41957
         7.13e-07       16386.32748
         7.14e-07       16386.06025
         7.15e-07       16383.95887
         7.16e-07       16382.08267
         7.17e-07       16374.76242
         7.18e-07       16367.66201
         7.19e-07       16363.62037
          7.2e-07       16355.05305
         7.21e-07       16351.54613
         7.22e-07       16348.27807
         7.23e-07       16340.42474
         7.24e-07        16334.4298
         7.25e-07       16330.48639
         7.26e-07       16326.22613
         7.27e-07       16321.76849
         7.28e-07       16318.12447
         7.29e-07       16311.20565
          7.3e-07       16306.89918
         7.31e-07       16300.74262
         7.32e-07       16294.30883
         7.33e-07        16289.3774
         7.34e-07       16280.21526
         7.35e-07       16272.61354
         7.36e-07       16262.85122
         7.37e-07       16257.20499
         7.38e-07       16252.52561
         7.39e-07       16249.75783
          7.4e-07       16245.77813
         7.41e-07       16245.40932
         7.42e-07       16244.22462
         7.43e-07       16240.45761
         7.44e-07       16237.96068
         7.45e-07        16234.6999
         7.46e-07       16230.76428
         7.47e-07       16230.89148
         7.48e-07       16227.25163
         7.49e-07       16221.35341
          7.5e-07       16218.92706
         7.51e-07       16212.33808
         7.52e-07       16211.80665
         7.53e-07       16208.22753
         7.54e-07       16207.86779
         7.55e-07       16203.82883
         7.56e-07       16202.68803
         7.57e-07       16196.00636
         7.58e-07       16186.92378
         7.59e-07       16181.59182
          7.6e-07       16173.02783
         7.61e-07       16166.17028
         7.62e-07       16162.24741
         7.63e-07       16158.48089
         7.64e-07       16157.90423
         7.65e-07       16155.50969
         7.66e-07       16149.04326
         7.67e-07       16145.55791
         7.68e-07       16140.82467
         7.69e-07       16138.21206
          7.7e-07       16136.58081
         7.71e-07       16134.24981
         7.72e-07       16130.99239
         7.73e-07       16130.10747
         7.74e-07       16129.16479
         7.75e-07       16120.40748
         7.76e-07       16115.21054
         7.77e-07       16113.61516
         7.78e-07       16108.10997
         7.79e-07       16101.59852
          7.8e-07       16099.03283
         7.81e-07       16093.52617
         7.82e-07       16084.63175
         7.83e-07       16080.95726
         7.84e-07        16076.1972
         7.85e-07       16070.98936
         7.86e-07       16064.91318
         7.87e-07       16058.79907
         7.88e-07       16054.26299
         7.89e-07       16052.56866
          7.9e-07       16044.35499
         7.91e-07       16038.74477
         7.92e-07       16034.37546
         7.93e-07       16026.35912
         7.94e-07       16025.01007
         7.95e-07        16023.9945
         7.96e-07       16017.33468
         7.97e-07       16011.16442
         7.98e-07       16006.85547
         7.99e-07       16004.07742
            8e-07       16001.31071
         8.01e-07        15996.3833
         8.02e-07       15990.68079
         8.03e-07       15987.34319
         8.04e-07       15981.24802
         8.05e-07       15979.23751
         8.06e-07       15978.14074
         8.07e-07       15974.62933
         8.08e-07       15970.97585
         8.09e-07       15965.43778
          8.1e-07       15962.14416
         8.11e-07       15956.05639
         8.12e-07         15951.562
         8.13e-07       15942.81379
         8.14e-07       15939.65398
         8.15e-07       15934.52344
         8.16e-07       15928.62525
         8.17e-07       15921.30299
         8.18e-07        15918.2806
         8.19e-07       15916.48834
          8.2e-07       15913.69825
         8.21e-07       15907.74315
         8.22e-07       15905.85256
         8.23e-07       15897.66649
         8.24e-07       15890.77109
         8.25e-07       15888.38341
         8.26e-07       15884.90075
         8.27e-07       15882.28177
         8.28e-07       15879.40933
         8.29e-07       15872.84433
          8.3e-07        15869.1958
         8.31e-07       15865.06006