# Probe 0 (5e-06 5e-06 5e-06)
#           Probe                 0
#            Time
            1e-09       29962.47103
            2e-09       29864.46396
            3e-09        29797.3946
            4e-09       29704.61145
            5e-09       29623.06647
            6e-09       29535.67396
            7e-09       29452.16961
            8e-09       29380.00426
            9e-09       29309.60814
            1e-08       29222.17136
          1.1e-08       29126.76212
          1.2e-08       29052.10246
          1.3e-08       28973.99388
          1.4e-08       28894.09801
          1.5e-08       28819.63254
          1.6e-08       28751.77064
          1.7e-08       28660.77438
          1.8e-08       28576.81294
          1.9e-08       28470.99413
            2e-08       28383.39893
          2.1e-08       28320.01533
          2.2e-08       28249.36024
          2.3e-08       28167.30105
          2.4e-08       28103.82515
          2.5e-08       28027.98462
          2.6e-08       27954.56846
          2.7e-08       27876.51061
          2.8e-08       27806.36701
          2.9e-08       27722.40265
            3e-08       27655.31583
          3.1e-08       27581.96767
          3.2e-08       27495.82915
          3.3e-08       27428.19102
          3.4e-08       27351.27465
          3.5e-08       27270.07437
          3.6e-08       27200.87901
          3.7e-08       27141.20692
          3.8e-08        27054.0975
          3.9e-08       26990.23542
            4e-08       26916.17898
          4.1e-08       26860.47923
          4.2e-08       26784.12385
          4.3e-08       26714.17883
          4.4e-08       26647.33034
          4.5e-08       26575.99703
          4.6e-08       26510.76101
          4.7e-08       26462.75096
          4.8e-08       26395.81592
          4.9e-08       26317.39458
            5e-08       26260.62209
          5.1e-08       26191.79113
          5.2e-08       26142.26677
          5.3e-08       26074.14087
          5.4e-08       26003.59895
          5.5e-08       25959.58815
          5.6e-08       25908.22791
          5.7e-08        25862.1062
          5.8e-08       25780.68749
          5.9e-08       25709.46112
            6e-08       25671.43285
          6.1e-08       25611.38296
          6.2e-08       25543.65009
          6.3e-08       25477.31922
          6.4e-08       25424.72173
          6.5e-08       25360.06157
          6.6e-08       25309.41016
          6.7e-08       25235.99743
          6.8e-08        25173.4189
          6.9e-08       25120.93633
            7e-08       25075.23125
          7.1e-08       25015.04387
          7.2e-08       24950.35533
          7.3e-08       24899.28138
          7.4e-08       24837.13674
          7.5e-08       24792.02195
          7.6e-08       24736.75355
          7.7e-08       24669.06665
          7.8e-08       24622.58208
          7.9e-08       24569.03122
            8e-08       24504.83162
          8.1e-08       24436.22587
          8.2e-08        24373.1226
          8.3e-08       24308.49859
          8.4e-08        24264.7693
          8.5e-08       24219.53471
          8.6e-08       24171.68885
          8.7e-08       24140.24238
          8.8e-08       24093.09211
          8.9e-08       24053.03977
            9e-08        24003.6991
          9.1e-08       23968.25629
          9.2e-08       23921.74368
          9.3e-08       23879.12104
          9.4e-08       23830.06638
          9.5e-08       23780.09115
          9.6e-08       23724.26651
          9.7e-08       23661.71825
          9.8e-08       23610.66882
          9.9e-08       23563.36852
            1e-07       23525.93197
         1.01e-07        23469.0947
         1.02e-07       23421.89359
         1.03e-07       23375.33351
         1.04e-07       23333.34255
         1.05e-07       23285.50093
         1.06e-07       23222.23027
         1.07e-07       23179.73677
         1.08e-07       23131.87199
         1.09e-07       23100.58004
          1.1e-07       23057.64602
         1.11e-07        23016.7694
         1.12e-07       22976.03521
         1.13e-07       22932.62192
         1.14e-07       22881.90143
         1.15e-07       22838.36569
         1.16e-07        22787.6254
         1.17e-07       22754.69968
         1.18e-07       22716.66412
         1.19e-07       22669.91957
          1.2e-07       22629.49999
         1.21e-07        22588.2927
         1.22e-07       22552.72241
         1.23e-07       22506.09489
         1.24e-07       22456.29162
         1.25e-07       22414.54047
         1.26e-07       22392.21824
         1.27e-07       22357.29409
         1.28e-07       22307.48927
         1.29e-07       22261.32178
          1.3e-07       22230.51242
         1.31e-07       22188.22898
         1.32e-07        22146.3296
         1.33e-07       22112.00833
         1.34e-07       22061.19951
         1.35e-07       22036.20576
         1.36e-07       21990.42908
         1.37e-07       21962.19289
         1.38e-07       21920.95841
         1.39e-07       21882.78152
          1.4e-07        21837.0011
         1.41e-07       21803.31345
         1.42e-07       21746.71442
         1.43e-07        21721.4592
         1.44e-07       21677.69777
         1.45e-07       21644.89392
         1.46e-07       21608.78239
         1.47e-07       21576.86413
         1.48e-07       21572.50935
         1.49e-07       21550.22352
          1.5e-07       21516.32757
         1.51e-07       21497.59828
         1.52e-07       21448.43048
         1.53e-07       21425.00875
         1.54e-07       21394.43395
         1.55e-07       21370.73014
         1.56e-07       21343.43818
         1.57e-07       21311.80001
         1.58e-07       21288.99564
         1.59e-07       21257.29268
          1.6e-07       21241.75093
         1.61e-07       21212.22784
         1.62e-07       21180.14906
         1.63e-07       21148.09416
         1.64e-07       21105.69962
         1.65e-07        21086.7131
         1.66e-07       21060.98951
         1.67e-07       21052.91806
         1.68e-07       21039.24851
         1.69e-07       21007.52259
          1.7e-07       20988.80858
         1.71e-07       20956.92338
         1.72e-07       20934.61129
         1.73e-07       20910.95758
         1.74e-07       20884.72783
         1.75e-07       20859.73595
         1.76e-07       20832.88364
         1.77e-07       20817.18559
         1.78e-07       20802.03662
         1.79e-07       20756.59835
          1.8e-07       20743.72924
         1.81e-07       20704.39954
         1.82e-07       20682.08201
         1.83e-07       20657.74143
         1.84e-07       20658.75877
         1.85e-07       20628.13392
         1.86e-07       20592.87313
         1.87e-07        20587.7541
         1.88e-07       20568.09909
         1.89e-07        20537.7002
          1.9e-07       20511.25513
         1.91e-07        20505.6034
         1.92e-07       20496.17953
         1.93e-07       20488.62865
         1.94e-07       20463.82602
         1.95e-07       20444.52427
         1.96e-07        20437.3463
         1.97e-07       20430.71951
         1.98e-07       20405.75688
         1.99e-07         20379.623
            2e-07       20365.24658
         2.01e-07       20348.29651
         2.02e-07       20329.81073
         2.03e-07       20310.22621
         2.04e-07       20284.71578
         2.05e-07       20271.56937
         2.06e-07       20255.49634
         2.07e-07       20229.42143
         2.08e-07       20199.54657
         2.09e-07       20171.37713
          2.1e-07       20125.52678
         2.11e-07       20128.75572
         2.12e-07       20118.86984
         2.13e-07       20093.12378
         2.14e-07       20061.46723
         2.15e-07       20036.85523
         2.16e-07       20005.56139
         2.17e-07       19990.60228
         2.18e-07       19954.88448
         2.19e-07       19929.62452
          2.2e-07       19920.27673
         2.21e-07       19884.68423
         2.22e-07       19859.63402
         2.23e-07       19854.94052
         2.24e-07       19841.47817
         2.25e-07       19815.62377
         2.26e-07       19795.63016
         2.27e-07       19808.68404
         2.28e-07       19787.51044
         2.29e-07       19764.26566
          2.3e-07       19731.87575
         2.31e-07       19704.90983
         2.32e-07        19690.9821
         2.33e-07       19674.53267
         2.34e-07       19661.62297
         2.35e-07       19653.74947
         2.36e-07       19635.77063
         2.37e-07       19622.74212
         2.38e-07       19613.54159
         2.39e-07       19580.99294
          2.4e-07       19559.49782
         2.41e-07       19542.96359
         2.42e-07       19526.96922
         2.43e-07       19513.30748
         2.44e-07       19492.44506
         2.45e-07       19466.33621
         2.46e-07        19458.5748
         2.47e-07       19430.98692
         2.48e-07       19418.59892
         2.49e-07       19404.96731
          2.5e-07       19382.12875
         2.51e-07       19363.61863
         2.52e-07       19349.88142
         2.53e-07       19319.87351
         2.54e-07       19301.76212
         2.55e-07       19290.15013
         2.56e-07       19292.51187
         2.57e-07       19270.57462
         2.58e-07       19229.99476
         2.59e-07        19205.2439
          2.6e-07       19185.80659
         2.61e-07       19164.23171
         2.62e-07       19140.45528
         2.63e-07       19111.17692
         2.64e-07       19114.87494
         2.65e-07       19104.27261
         2.66e-07       19120.29424
         2.67e-07       19118.72068
         2.68e-07       19107.05554
         2.69e-07       19092.80205
          2.7e-07        19067.2853
         2.71e-07       19033.83958
         2.72e-07       19024.92084
         2.73e-07       19009.83249
         2.74e-07       18983.56683
         2.75e-07       18978.55822
         2.76e-07       18967.89835
         2.77e-07       18954.73006
         2.78e-07       18934.07902
         2.79e-07       18912.38412
          2.8e-07       18903.25866
         2.81e-07       18887.48159
         2.82e-07       18868.74087
         2.83e-07       18862.11898
         2.84e-07       18845.36216
         2.85e-07        18837.6639
         2.86e-07       18826.10802
         2.87e-07        18810.2285
         2.88e-07       18795.68321
         2.89e-07       18780.19605
          2.9e-07       18771.20278
         2.91e-07       18766.39663
         2.92e-07        18757.5482
         2.93e-07       18732.58191
         2.94e-07       18729.40001
         2.95e-07       18707.38372
         2.96e-07       18689.88107
         2.97e-07       18664.97745
         2.98e-07       18651.63072
         2.99e-07       18635.12109
            3e-07       18627.66089
         3.01e-07       18637.06231
         3.02e-07       18628.40448
         3.03e-07        18600.8095
         3.04e-07       18577.17503
         3.05e-07       18572.61399
         3.06e-07       18573.78806
         3.07e-07       18574.11686
         3.08e-07       18574.22741
         3.09e-07       18550.36754
          3.1e-07       18545.43236
         3.11e-07       18539.69573
         3.12e-07       18532.54258
         3.13e-07       18517.30417
         3.14e-07       18516.76418
         3.15e-07       18496.05559
         3.16e-07       18493.40934
         3.17e-07       18477.72976
         3.18e-07        18462.1117
         3.19e-07       18456.87337
          3.2e-07       18438.72644
         3.21e-07       18415.20445
         3.22e-07       18391.96323
         3.23e-07       18396.73305
         3.24e-07       18381.41174
         3.25e-07       18377.17028
         3.26e-07       18359.19519
         3.27e-07       18360.45907
         3.28e-07       18339.16555
         3.29e-07       18326.44726
          3.3e-07       18300.75954
         3.31e-07       18303.51379
         3.32e-07       18279.06788
         3.33e-07       18268.49325
         3.34e-07       18247.68299
         3.35e-07       18228.64381
         3.36e-07       18225.18898
         3.37e-07       18209.49402
         3.38e-07       18192.75344
         3.39e-07       18180.32599
          3.4e-07       18176.97447
         3.41e-07       18177.11287
         3.42e-07       18164.92807
         3.43e-07       18155.44853
         3.44e-07       18159.56193
         3.45e-07       18147.57703
         3.46e-07       18146.50935
         3.47e-07       18149.31213
         3.48e-07       18128.82882
         3.49e-07       18114.53746
          3.5e-07       18096.50566
         3.51e-07       18096.99666
         3.52e-07       18078.75953
         3.53e-07       18055.30773
         3.54e-07       18034.54938
         3.55e-07       18043.31313
         3.56e-07       18031.47594
         3.57e-07       18035.16778
         3.58e-07       18028.66791
         3.59e-07       18027.40464
          3.6e-07       17997.25402
         3.61e-07       18004.12319
         3.62e-07       17985.28276
         3.63e-07       17979.15488
         3.64e-07       17960.11806
         3.65e-07       17973.14272
         3.66e-07       17964.65396
         3.67e-07         17949.656
         3.68e-07       17935.44831
         3.69e-07       17933.66463
          3.7e-07       17905.56169
         3.71e-07       17890.20529
         3.72e-07        17875.9605
         3.73e-07       17867.03776
         3.74e-07       17870.08327
         3.75e-07       17848.50996
         3.76e-07       17835.83453
         3.77e-07       17837.01372
         3.78e-07       17822.91199
         3.79e-07       17829.10076
          3.8e-07        17811.5426
         3.81e-07       17783.57701
         3.82e-07        17770.4808
         3.83e-07       17746.39628
         3.84e-07       17741.31865
         3.85e-07        17731.9049
         3.86e-07       17730.66263
         3.87e-07       17713.52098
         3.88e-07       17703.17754
         3.89e-07       17681.32887
          3.9e-07       17670.78013
         3.91e-07       17661.11902
         3.92e-07       17657.73603
         3.93e-07       17641.70578
         3.94e-07       17638.53273
         3.95e-07       17619.68878
         3.96e-07       17607.93187
         3.97e-07       17600.21022
         3.98e-07       17576.89944
         3.99e-07       17557.49435
            4e-07       17528.02747
         4.01e-07       17520.65159
         4.02e-07       17511.30182
         4.03e-07       17484.99192
         4.04e-07       17487.84493
         4.05e-07       17489.50719
         4.06e-07       17480.87283
         4.07e-07       17475.87255
         4.08e-07       17476.58715
         4.09e-07       17453.45208
          4.1e-07       17458.49094
         4.11e-07       17456.12107
         4.12e-07       17447.06287
         4.13e-07       17426.55961
         4.14e-07       17416.79553
         4.15e-07       17420.60282
         4.16e-07       17406.06446
         4.17e-07       17400.29284
         4.18e-07       17373.52779
         4.19e-07       17364.73284
          4.2e-07       17367.73038
         4.21e-07       17362.21153
         4.22e-07        17365.3961
         4.23e-07       17348.46006
         4.24e-07       17323.78331
         4.25e-07       17302.05201
         4.26e-07       17297.43059
         4.27e-07       17283.48248
         4.28e-07       17273.48864
         4.29e-07       17262.78352
          4.3e-07        17244.3174
         4.31e-07       17250.51591
         4.32e-07        17237.2153
         4.33e-07       17241.33425
         4.34e-07       17234.94544
         4.35e-07       17229.91142
         4.36e-07       17215.43456
         4.37e-07       17217.70661
         4.38e-07       17205.27961
         4.39e-07       17206.28664
          4.4e-07       17201.08201
         4.41e-07       17197.41666
         4.42e-07       17194.81556
         4.43e-07        17190.5645
         4.44e-07       17178.20631
         4.45e-07       17162.88979
         4.46e-07       17136.09185
         4.47e-07       17130.19097
         4.48e-07        17126.4855
         4.49e-07       17119.34456
          4.5e-07       17124.97391
         4.51e-07       17120.99569
         4.52e-07       17116.84249
         4.53e-07       17116.78669
         4.54e-07       17118.39724
         4.55e-07       17114.21444
         4.56e-07       17119.52086
         4.57e-07       17108.50898
         4.58e-07       17099.27667
         4.59e-07       17091.12673
          4.6e-07       17071.76222
         4.61e-07       17069.69146
         4.62e-07       17064.62286
         4.63e-07       17061.50868
         4.64e-07       17045.70447
         4.65e-07       17022.78539
         4.66e-07       17021.52749
         4.67e-07       17013.69133
         4.68e-07       17016.18625
         4.69e-07       17011.93472
          4.7e-07        16993.7169
         4.71e-07       16970.92961
         4.72e-07       16980.35273
         4.73e-07       16963.44468
         4.74e-07       16965.42463
         4.75e-07       16971.25602
         4.76e-07       16974.72841
         4.77e-07       16966.13075
         4.78e-07       16974.40182
         4.79e-07       16965.11232
          4.8e-07       16973.17068
         4.81e-07       16959.05094
         4.82e-07        16937.8765
         4.83e-07       16925.06959
         4.84e-07        16922.4577
         4.85e-07       16910.50466
         4.86e-07       16900.71847
         4.87e-07       16900.32114
         4.88e-07       16895.70043
         4.89e-07       16886.83996
          4.9e-07        16881.5957
         4.91e-07       16888.19011
         4.92e-07       16888.43829
         4.93e-07       16882.17952
         4.94e-07        16864.1326
         4.95e-07       16859.90196
         4.96e-07        16853.6287
         4.97e-07       16869.55335
         4.98e-07       16864.56735
         4.99e-07       16859.80176
            5e-07       16857.19324
         5.01e-07       16833.17729
         5.02e-07       16830.66032
         5.03e-07       16811.91298
         5.04e-07       16801.37196
         5.05e-07       16805.06898
         5.06e-07       16793.14689
         5.07e-07       16786.92494
         5.08e-07       16780.87756
         5.09e-07       16782.65128
          5.1e-07       16753.73945
         5.11e-07         16753.405
         5.12e-07       16740.85952
         5.13e-07       16736.30363
         5.14e-07       16722.77167
         5.15e-07       16723.39225
         5.16e-07        16683.5977
         5.17e-07       16695.77483
         5.18e-07       16677.86833
         5.19e-07       16685.02068
          5.2e-07       16680.95617
         5.21e-07        16698.9228
         5.22e-07       16686.94038
         5.23e-07       16690.12019
         5.24e-07       16691.13026
         5.25e-07       16693.82896
         5.26e-07       16687.43696
         5.27e-07       16690.79043
         5.28e-07       16684.21569
         5.29e-07       16684.75571
          5.3e-07       16669.89838
         5.31e-07       16657.85922
         5.32e-07       16649.58183
         5.33e-07       16645.68809
         5.34e-07       16641.16898
         5.35e-07       16635.61666
         5.36e-07       16624.60673
         5.37e-07       16617.60878
         5.38e-07       16629.35164
         5.39e-07       16616.87511
          5.4e-07       16614.62854
         5.41e-07        16614.1425
         5.42e-07       16612.79195
         5.43e-07       16599.57384
         5.44e-07       16599.86158
         5.45e-07       16584.94193
         5.46e-07       16589.25826
         5.47e-07       16581.24299
         5.48e-07       16567.28302
         5.49e-07       16567.73908
          5.5e-07         16568.185
         5.51e-07       16576.10098
         5.52e-07       16576.87585
         5.53e-07       16575.54133
         5.54e-07       16573.41944
         5.55e-07        16577.7598
         5.56e-07       16578.93017
         5.57e-07       16561.72961
         5.58e-07       16541.17165
         5.59e-07       16533.40581
          5.6e-07       16523.93716
         5.61e-07       16539.08116
         5.62e-07        16539.2425
         5.63e-07       16522.29044
         5.64e-07       16509.96482
         5.65e-07       16482.44757
         5.66e-07       16473.17421
         5.67e-07        16459.1758
         5.68e-07       16465.33083
         5.69e-07        16450.0741
          5.7e-07       16441.75611
         5.71e-07       16430.11363
         5.72e-07       16434.94294
         5.73e-07       16447.91324
         5.74e-07       16458.05258
         5.75e-07       16453.78939
         5.76e-07       16455.25671
         5.77e-07       16457.71182
         5.78e-07        16462.8226
         5.79e-07       16458.55227
          5.8e-07       16447.03217
         5.81e-07       16434.58759
         5.82e-07       16422.01213
         5.83e-07       16437.20243
         5.84e-07       16424.33203
         5.85e-07        16432.4396
         5.86e-07       16425.58287
         5.87e-07       16419.11682
         5.88e-07       16415.52304
         5.89e-07       16417.07016
          5.9e-07       16420.28916
         5.91e-07        16408.6332
         5.92e-07        16405.6487
         5.93e-07       16421.24635
         5.94e-07       16412.19284
         5.95e-07       16400.06398
         5.96e-07       16399.66794
         5.97e-07       16398.21961
         5.98e-07       16400.55608
         5.99e-07       16400.42815
            6e-07       16397.44864
         6.01e-07       16396.09836
         6.02e-07       16393.28674
         6.03e-07       16392.70089
         6.04e-07       16392.87761
         6.05e-07       16385.21088
         6.06e-07       16377.83653
         6.07e-07       16375.35814
         6.08e-07       16357.68742
         6.09e-07       16339.80837
          6.1e-07       16349.60921
         6.11e-07       16346.57187
         6.12e-07       16336.82437
         6.13e-07        16342.0185
         6.14e-07       16332.18295
         6.15e-07       16311.01935
         6.16e-07       16297.55909
         6.17e-07       16284.46919
         6.18e-07       16286.98642
         6.19e-07       16281.04456
          6.2e-07       16274.66538
         6.21e-07       16256.06559
         6.22e-07       16254.76689
         6.23e-07       16235.90462
         6.24e-07       16210.20582
         6.25e-07       16212.28097
         6.26e-07       16211.17931
         6.27e-07       16195.21515
         6.28e-07        16167.4462
         6.29e-07       16172.51423
          6.3e-07       16165.98787
         6.31e-07       16155.20453
         6.32e-07        16138.5998
         6.33e-07       16125.80233
         6.34e-07       16119.95007
         6.35e-07       16109.66262
         6.36e-07       16099.88821
         6.37e-07        16062.2669
         6.38e-07       16067.27956
         6.39e-07        16066.5175
          6.4e-07       16078.55709
         6.41e-07       16062.93336
         6.42e-07       16068.23194
         6.43e-07       16076.09226
         6.44e-07       16077.43693
         6.45e-07       16087.49647
         6.46e-07       16074.93298
         6.47e-07       16063.95227
         6.48e-07       16045.07217
         6.49e-07       16056.74765
          6.5e-07       16048.14976
         6.51e-07       16026.56163
         6.52e-07       16026.51587
         6.53e-07       16025.93216
         6.54e-07       16018.54232
         6.55e-07       16021.54174
         6.56e-07       16033.13879
         6.57e-07       16019.97391
         6.58e-07       16020.85121
         6.59e-07       16024.09455
          6.6e-07       16010.81477
         6.61e-07       16016.71056
         6.62e-07       15999.41476
         6.63e-07       15995.82324
         6.64e-07       15984.84047
         6.65e-07       15973.74454
         6.66e-07       15966.18222
         6.67e-07       15951.24156
         6.68e-07       15946.84643
         6.69e-07       15948.83778
          6.7e-07       15948.64628
         6.71e-07        15946.8124
         6.72e-07       15941.29634
         6.73e-07       15948.68988
         6.74e-07       15944.58977
         6.75e-07       15949.00592
         6.76e-07       15961.67903
         6.77e-07        15975.8556
         6.78e-07       15965.84414
         6.79e-07       15955.63081
          6.8e-07       15954.11709
         6.81e-07        15955.4424
         6.82e-07        15965.5242
         6.83e-07       15968.33291
         6.84e-07       15962.43414
         6.85e-07       15961.16512
         6.86e-07       15949.79504
         6.87e-07       15950.82239
         6.88e-07       15930.04352
         6.89e-07       15929.81079
          6.9e-07       15930.08509
         6.91e-07       15906.23408
         6.92e-07        15894.6588
         6.93e-07       15894.58883
         6.94e-07       15894.38301
         6.95e-07       15884.01114
         6.96e-07       15900.52832
         6.97e-07       15890.29611
         6.98e-07       15884.07354
         6.99e-07       15893.62241
            7e-07        15892.5617
         7.01e-07       15886.53635
         7.02e-07       15874.89724
         7.03e-07       15865.79048
         7.04e-07       15870.64722
         7.05e-07       15869.50471
         7.06e-07       15861.91492
         7.07e-07        15854.5076
         7.08e-07       15845.12486
         7.09e-07       15837.99407
          7.1e-07       15828.27149
         7.11e-07       15826.24776
         7.12e-07       15820.18877
         7.13e-07       15800.40838
         7.14e-07       15784.52173
         7.15e-07       15769.99005
         7.16e-07       15757.94153
         7.17e-07       15754.87052
         7.18e-07       15746.30554
         7.19e-07       15725.91473
          7.2e-07       15719.58914
         7.21e-07       15709.92401
         7.22e-07       15702.33473
         7.23e-07       15712.09353
         7.24e-07       15700.85002
         7.25e-07       15705.85289
         7.26e-07       15693.79404
         7.27e-07       15679.76364
         7.28e-07       15677.23995
         7.29e-07       15689.11081
          7.3e-07       15686.22466
         7.31e-07       15672.86572
         7.32e-07       15688.42187
         7.33e-07       15675.79305
         7.34e-07       15688.81096
         7.35e-07       15683.73103
         7.36e-07       15689.64735
         7.37e-07        15677.3897
         7.38e-07       15667.55635
         7.39e-07       15669.67096
          7.4e-07       15670.75753
         7.41e-07       15646.77965
         7.42e-07       15636.54585
         7.43e-07       15633.94533
         7.44e-07       15632.95936
         7.45e-07       15643.06441
         7.46e-07       15649.90034
         7.47e-07       15633.52343
         7.48e-07       15630.17848
         7.49e-07       15615.37472
          7.5e-07       15611.65717
         7.51e-07       15609.19615
         7.52e-07       15600.13867
         7.53e-07       15590.98472
         7.54e-07       15582.77376
         7.55e-07         15578.465
         7.56e-07       15556.57187
         7.57e-07       15550.53728
         7.58e-07       15556.53993
         7.59e-07       15559.63314
          7.6e-07       15567.28108
         7.61e-07       15566.74616
         7.62e-07       15552.22682
         7.63e-07       15530.16572
         7.64e-07       15513.99746
         7.65e-07       15510.06903
         7.66e-07       15511.01559
         7.67e-07       15513.22256
         7.68e-07       15519.27675
         7.69e-07       15507.05139
          7.7e-07       15489.74945
         7.71e-07       15475.45828
         7.72e-07       15469.95091
         7.73e-07       15453.12679
         7.74e-07       15438.23376
         7.75e-07       15439.96746
         7.76e-07        15438.4509
         7.77e-07       15424.22337
         7.78e-07       15430.83786
         7.79e-07       15432.08741
          7.8e-07       15406.94604
         7.81e-07       15399.43563
         7.82e-07       15403.54415
         7.83e-07       15399.86717
         7.84e-07        15397.5201
         7.85e-07       15404.74098
         7.86e-07       15411.24405
         7.87e-07       15421.35912
         7.88e-07       15410.23666
         7.89e-07       15405.20059
          7.9e-07       15401.53248
         7.91e-07       15419.41503
         7.92e-07       15410.95448
         7.93e-07       15419.72975
         7.94e-07       15412.86676
         7.95e-07       15393.51705
         7.96e-07       15387.73531
         7.97e-07       15384.96455
         7.98e-07       15387.45843
         7.99e-07       15376.17566
            8e-07       15373.06219
         8.01e-07        15369.9809
         8.02e-07        15370.8688
         8.03e-07       15359.96674
         8.04e-07       15373.00065
         8.05e-07       15354.64486
         8.06e-07       15350.94445
         8.07e-07       15341.52794
         8.08e-07       15332.89529
         8.09e-07       15326.62134
          8.1e-07       15324.16539
         8.11e-07       15325.75833
         8.12e-07       15322.17885
         8.13e-07       15325.52897
         8.14e-07       15329.46589
         8.15e-07       15324.87402
         8.16e-07       15320.87641
         8.17e-07       15326.94799
         8.18e-07       15320.51871
         8.19e-07       15320.06933
          8.2e-07        15319.3305
         8.21e-07       15337.68435
         8.22e-07       15320.37511
         8.23e-07       15325.26228
         8.24e-07       15331.25957
         8.25e-07       15324.60877
         8.26e-07       15327.41357
         8.27e-07       15313.60322
         8.28e-07       15307.88929
         8.29e-07       15313.33643
          8.3e-07        15322.6452
         8.31e-07       15313.99166