/*--------------------------------*- C++ -*----------------------------------*\
| =========                 |                                                 |
| \\      /  F ield         | OpenFOAM: The Open Source CFD Toolbox           |
|  \\    /   O peration     | Version:  v1706                                 |
|   \\  /    A nd           | Web:      www.OpenFOAM.com                      |
|    \\/     M anipulation  |                                                 |
\*---------------------------------------------------------------------------*/
FoamFile
{
    version     2.0;
    format      ascii;
    class       volScalarField;
    location    "0.004";
    object      dsmcNMean_Ar;
}
// * * * * * * * * * * * * * * * * * * * * * * * * * * * * * * * * * * * * * //

dimensions      [0 0 0 0 0 0 0];


internalField   nonuniform List<scalar> 
4000
(
22.5844
22.601675
22.63435
22.655675
22.7411
22.75745
22.83985
22.8533
22.9919
23.073
23.157975
23.2899
23.538525
23.811925
24.00935
24.31365
24.72495
25.373175
26.05495
26.87115
28.20705
29.8
31.765975
34.273575
37.917475
42.169225
47.73915
54.10645
61.366375
69.0153
76.3576
83.235
90.106875
96.985525
105.11155
114.842675
127.393175
144.981875
172.84525
221.8268
30.5069
30.510925
30.51545
30.4901
30.48105
30.549625
30.58705
30.618675
30.609975
30.69975
30.849925
31.03515
31.19095
31.410425
31.77605
32.085975
32.618175
33.213675
34.011875
35.21075
36.687875
38.596025
41.206925
44.63835
49.16625
55.193225
62.366725
71.093525
80.70545
90.78355
100.564975
110.563425
120.04575
129.27625
140.2123
153.747425
170.72405
195.2752
232.800625
298.980825
31.633575
31.605675
31.616675
31.69695
31.745275
31.728025
31.720975
31.7347
31.819025
31.889775
32.0312
32.168525
32.301675
32.531925
32.75905
33.10635
33.56135
34.1943
34.974825
36.194175
37.586925
39.5723
42.207
45.683275
50.431825
56.5403
63.8388
73.028025
82.6171
93.108025
103.586975
113.77695
123.8704
133.691125
144.8098
158.872125
177.128325
202.355925
241.06555
310.004375
32.0711
32.06495
32.07625
32.03965
32.061625
32.14725
32.2211
32.2443
32.283475
32.375475
32.480775
32.638275
32.81375
33.0372
33.278225
33.587925
33.954475
34.531125
35.35965
36.5063
37.9036
39.74275
42.3435
46.009225
50.4426
56.502275
64.016225
72.7526
82.90485
93.8384
104.6163
114.733375
124.64595
134.893625
146.553475
160.4868
179.013625
204.488775
243.544625
313.074275
32.2797
32.350425
32.390225
32.448425
32.48715
32.46665
32.449525
32.502275
32.59975
32.6641
32.7348
32.82715
32.940825
33.174725
33.402625
33.698775
34.182775
34.75665
35.6321
36.63155
37.96875
39.824825
42.5541
46.0301
50.619775
56.35945
63.8818
72.89595
83.106975
93.948525
104.6761
114.675925
124.65515
135.2631
146.736525
160.473175
179.648175
205.706025
244.6037
315.238025
32.363025
32.38405
32.36045
32.396875
32.411775
32.4216
32.45845
32.55435
32.622875
32.708475
32.835325
32.979575
33.134325
33.32195
33.524
33.925825
34.371525
34.906825
35.76405
36.868175
38.118125
40.02275
42.526975
45.98475
50.540975
56.29925
63.5143
72.62165
82.694625
93.656825
104.21215
114.969925
124.759875
135.216575
146.81355
160.2608
178.97245
205.077775
244.4013
313.93655
32.42515
32.398275
32.429575
32.4034
32.3957
32.42365
32.48295
32.531675
32.6162
32.6832
32.7567
32.860375
33.026975
33.163575
33.44365
33.76355
34.238
34.81065
35.58325
36.574925
37.913375
39.80605
42.191325
45.503125
50.177125
55.8333
62.975175
71.8939
81.942725
92.748175
103.505725
114.53055
124.672625
134.51455
145.961025
159.765925
178.250775
204.127275
243.9116
314.596175
32.5608
32.587525
32.638375
32.6179
32.6275
32.652425
32.6441
32.653275
32.677925
32.739375
32.82915
32.911025
33.045025
33.198725
33.5444
33.8183
34.16165
34.77255
35.6218
36.624875
38.040925
39.710675
42.040025
45.196725
49.53775
55.277125
62.5416
71.166475
81.0176
91.54365
102.6134
113.530525
123.571
134.08645
145.651175
159.415675
177.39295
203.2088
242.598875
312.0518
32.532525
32.509975
32.526475
32.5239
32.538525
32.576175
32.646975
32.684375
32.748775
32.81605
32.86925
33.01075
33.165325
33.35655
33.5859
33.881625
34.298175
34.757225
35.46675
36.334675
37.6921
39.548875
41.763525
44.9048
49.085325
54.783825
61.6762
70.03125
79.976925
90.64555
101.2837
112.0288
122.83915
133.193575
144.88425
158.58905
176.718625
202.4999
241.13175
312.265275
32.636175
32.625925
32.6463
32.635375
32.64975
32.666275
32.681975
32.7595
32.8323
32.8574
32.908475
32.99235
33.160175
33.3239
33.516275
33.7741
34.20275
34.67675
35.464625
36.4959
37.705625
39.3679
41.63995
44.696375
48.77395
53.8756
60.41685
68.977275
78.538775
89.21705
99.8749
110.56445
121.170575
131.79065
143.438025
157.17135
175.02135
200.668675
239.735425
310.179725
32.59995
32.64065
32.668925
32.72575
32.749925
32.816425
32.82315
32.844275
32.87305
32.949175
33.01295
33.106175
33.230325
33.3916
33.63255
33.892525
34.254
34.786575
35.424675
36.30225
37.547275
39.129125
41.2605
44.12545
48.094025
53.301975
59.686925
67.53745
77.1229
87.7771
98.388775
109.271875
119.95145
130.08245
141.85495
155.8934
173.609925
199.39425
238.314275
307.728625
32.663175
32.667225
32.70565
32.65305
32.66225
32.648125
32.650525
32.665175
32.7528
32.819375
32.94535
33.065375
33.174875
33.396375
33.6157
33.912775
34.1771
34.667825
35.281025
36.026775
37.181175
38.8415
40.9118
43.6594
47.3823
52.267925
58.36485
66.1828
75.394925
86.0442
97.0208
107.5086
118.440675
128.826675
140.290525
154.0246
171.439825
196.586225
235.2981
304.715175
32.6289
32.6125
32.62075
32.678275
32.7676
32.7738
32.81305
32.855525
32.9055
32.988225
33.0326
33.086125
33.155
33.3575
33.580225
33.7847
34.131975
34.6458
35.315675
36.0822
37.184675
38.7518
40.535275
43.07385
46.700875
51.373125
57.426475
64.805
73.869375
83.910575
94.820875
105.2835
115.9195
126.755175
138.06225
151.522025
169.242875
194.246475
232.892825
301.8823
32.6556
32.68185
32.672175
32.67415
32.64415
32.722625
32.8313
32.914075
32.9388
33.007375
33.1102
33.183925
33.32
33.437575
33.607175
33.89265
34.185825
34.678275
35.309375
36.1042
37.16095
38.51035
40.313825
42.54775
45.986425
50.284025
56.0559
63.15005
71.9543
81.796575
92.4351
103.39265
113.787125
124.633175
135.81095
149.106525
166.284175
190.400125
228.39295
297.740825
32.697125
32.720975
32.72275
32.7801
32.817125
32.804875
32.794775
32.777425
32.773725
32.849225
32.949275
33.045175
33.2102
33.3649
33.53235
33.727375
34.0602
34.446
34.980625
35.718425
36.65575
37.861425
39.620925
41.9551
44.9695
49.1711
54.430175
61.5094
69.963825
79.17935
89.5822
100.687
111.217925
122.011075
133.59885
146.075175
162.862975
187.429625
224.055275
293.37505
32.70555
32.663125
32.71325
32.692175
32.7021
32.763425
32.83045
32.860775
32.9368
32.94
32.9659
33.007425
33.0534
33.1946
33.4208
33.69425
34.071725
34.408275
34.977725
35.59815
36.456375
37.631525
39.264425
41.38975
44.253625
48.047725
53.13965
59.3982
67.52875
76.738225
86.891225
97.6902
108.282325
118.911725
129.777975
142.44175
158.74075
181.97995
218.219525
286.41625
32.719675
32.79615
32.76535
32.795425
32.83615
32.7964
32.766675
32.779025
32.800225
32.84725
32.913475
33.014025
33.085725
33.2755
33.4459
33.619025
33.9348
34.23685
34.7288
35.4289
36.27825
37.4275
38.905175
40.9055
43.5655
47.180425
51.93205
57.926375
65.41765
74.137625
84.2597
94.5213
104.7938
115.255375
126.411075
138.079825
154.380275
175.784675
211.81905
278.31205
32.69685
32.68665
32.68675
32.7116
32.741825
32.8145
32.8309
32.854725
32.932075
33.02555
33.07685
33.11735
33.21625
33.266375
33.440175
33.648975
33.87805
34.290325
34.749325
35.28505
36.0622
37.05995
38.4976
40.2702
42.77355
46.076575
50.387675
56.046275
63.041725
71.33615
80.90715
91.038425
101.327325
111.60755
122.1812
133.463675
148.165675
168.853875
202.11915
266.736225
32.693
32.720275
32.75495
32.779375
32.778325
32.758325
32.8258
32.866725
32.863325
32.893775
32.93395
32.990075
33.119375
33.190725
33.305775
33.52535
33.7816
34.083225
34.487925
35.030725
35.76925
36.801425
38.00485
39.750925
42.06865
44.97095
48.94805
54.169625
60.643675
68.5782
77.134175
87.297125
97.2569
107.3876
117.495025
128.01065
141.084075
159.193275
187.9819
248.97815
32.720775
32.733725
32.701925
32.701775
32.695175
32.726825
32.77405
32.81555
32.826925
32.9183
32.9849
33.023325
33.1275
33.2609
33.344375
33.507825
33.726675
34.031325
34.385125
34.8751
35.530225
36.319475
37.4881
39.070025
41.1133
43.7701
47.7323
52.425675
58.42645
65.630825
73.964225
83.505175
93.170125
102.921575
112.353575
121.756075
132.30395
146.332025
166.67485
212.748075
32.679025
32.6543
32.683575
32.742
32.7715
32.76425
32.77865
32.7624
32.783025
32.75065
32.834425
32.888125
32.961475
33.086275
33.26
33.42565
33.62575
33.835575
34.15255
34.677625
35.3253
36.08685
37.1393
38.533575
40.4253
42.8869
46.350225
50.897575
56.367975
62.7963
70.93015
79.660975
88.507375
97.829675
106.490925
114.664125
123.142875
132.019825
139.012775
131.079225
32.73195
32.726975
32.7378
32.749275
32.7407
32.73755
32.728075
32.74895
32.783075
32.863925
32.920725
32.95155
33.014725
33.111925
33.234525
33.4029
33.59855
33.86985
34.162375
34.58905
35.15865
35.770425
36.811975
37.98065
39.6526
41.943
44.851175
48.834575
53.843675
59.96625
67.49905
75.64605
84.25025
92.4865
100.674275
108.05865
114.306475
118.68865
118.44665
105.09505
32.731025
32.73455
32.7052
32.686975
32.7138
32.731275
32.75295
32.7704
32.787075
32.783625
32.7624
32.840425
32.925425
32.9802
33.045075
33.155
33.28975
33.52185
33.8682
34.2369
34.757625
35.462525
36.361375
37.407625
39.0152
41.1242
43.691
47.2168
51.82655
57.415275
64.1121
71.766025
79.645825
87.95845
94.9957
101.3318
105.974925
108.236425
106.01375
96.059725
32.720225
32.75395
32.7476
32.739125
32.6903
32.70945
32.7396
32.7642
32.827175
32.836025
32.877825
32.925425
32.965525
33.048475
33.142825
33.25585
33.370075
33.607675
33.79905
34.17865
34.620625
35.29175
35.971125
37.00535
38.409425
40.28505
42.754925
45.748675
49.876675
54.884925
60.77145
67.6822
75.2037
82.64015
89.678725
95.343425
99.39545
100.55595
97.969375
90.880725
32.732
32.689225
32.697225
32.759875
32.811675
32.809975
32.775675
32.780225
32.805875
32.858175
32.85845
32.879625
32.9468
33.053675
33.207
33.34485
33.470375
33.666775
33.931575
34.231525
34.7175
35.3138
35.956325
36.899075
38.182075
39.59085
41.622025
44.395225
47.99035
52.244125
57.7928
64.060275
70.775475
77.796225
84.624425
89.92765
93.589225
94.549925
92.60195
87.282325
32.7164
32.726175
32.7559
32.7732
32.8146
32.7961
32.861025
32.869225
32.895325
32.868575
32.926275
33.00305
33.107925
33.17295
33.216
33.32625
33.4756
33.658
33.8461
34.129825
34.532575
34.95605
35.688075
36.455125
37.517775
38.8695
40.759525
43.176625
46.16945
50.02015
54.7516
60.2487
66.595675
73.100225
79.31
84.656
88.328925
89.405625
88.555875
84.6937
32.759075
32.792825
32.75925
32.683925
32.696325
32.7507
32.759
32.7783
32.816025
32.894875
32.959825
32.98025
33.0325
33.090475
33.13265
33.2767
33.41015
33.5742
33.792875
34.092925
34.41555
34.812775
35.3451
36.0524
37.0519
38.34025
39.9206
42.00435
44.596875
47.902325
52.077475
56.933475
62.815775
68.573825
74.471825
79.664925
83.507825
85.37065
84.675775
82.662675
32.71035
32.711225
32.763875
32.833
32.88725
32.890175
32.891675
32.898225
32.893
32.915725
32.914225
32.91255
32.9877
33.063675
33.159725
33.1922
33.30005
33.46055
33.6069
33.824425
34.14705
34.58615
35.03365
35.6248
36.490775
37.679825
39.007325
40.761775
43.07595
45.8787
49.4181
53.7821
58.79555
64.2037
69.792525
75.0767
78.81075
81.20035
81.848025
80.262975
32.742325
32.7763
32.7602
32.7503
32.744675
32.730175
32.7151
32.70435
32.7076
32.7153
32.7657
32.820875
32.88475
32.973275
33.0062
33.1345
33.221875
33.345325
33.53955
33.7482
33.94715
34.26795
34.6951
35.2107
35.954925
36.896075
38.140925
39.67055
41.53435
44.1611
47.255475
50.87845
55.38735
60.448325
65.60295
70.240975
74.252425
77.04295
78.5853
78.225575
32.69785
32.636725
32.6634
32.68005
32.65715
32.7241
32.730225
32.7448
32.765225
32.82955
32.872875
32.882075
32.879275
32.896775
33.0063
33.0395
33.1068
33.174275
33.306525
33.492925
33.7246
34.020075
34.38645
34.919875
35.570975
36.38185
37.4352
38.75075
40.4462
42.493775
45.102875
48.331925
52.32795
56.865875
61.411625
65.8039
70.0335
73.185975
75.289225
76.126
32.74695
32.809225
32.8151
32.84235
32.860425
32.812825
32.827825
32.85695
32.823925
32.808275
32.804075
32.83685
32.8567
32.901575
32.9551
33.0392
33.1402
33.214725
33.2712
33.422175
33.643075
33.872925
34.23855
34.67155
35.2649
36.00935
36.884875
37.979875
39.2825
41.109925
43.3364
46.27325
49.627575
53.218325
57.47855
61.7917
65.787675
69.38255
72.078675
73.284175
32.75325
32.756325
32.732175
32.68095
32.6767
32.6889
32.72555
32.76005
32.79135
32.8517
32.9167
32.927825
32.9369
32.93685
32.954
32.989525
33.124125
33.226975
33.412225
33.563525
33.7235
34.010325
34.2193
34.495725
34.9844
35.559225
36.36035
37.3069
38.5557
40.132175
41.993525
44.3638
47.2089
50.619725
54.19805
58.283125
61.831625
65.50755
68.321675
70.1837
32.7454
32.77865
32.774125
32.800575
32.8073
32.8269
32.83065
32.8076
32.81345
32.8353
32.798325
32.839075
32.885675
32.912175
32.945775
32.9973
33.032075
33.093975
33.18855
33.3053
33.47975
33.7123
34.0309
34.42405
34.84685
35.316425
35.9776
36.7455
37.86595
39.1688
40.798825
42.8356
45.199875
48.105425
51.1579
54.8417
58.287975
61.59465
64.81245
67.147725
32.727425
32.70645
32.66845
32.704425
32.673725
32.643975
32.6226
32.645175
32.682475
32.71515
32.76695
32.802675
32.794775
32.82345
32.8732
32.9374
32.99945
33.087075
33.24995
33.35155
33.454925
33.6269
33.86095
34.1049
34.445575
34.9656
35.506375
36.21405
37.12045
38.257475
39.628875
41.202425
43.299975
45.704175
48.54085
51.478675
54.977775
58.223975
61.238625
64.01615
32.741325
32.73995
32.785125
32.745675
32.7584
32.76485
32.7402
32.74355
32.719825
32.70575
32.706025
32.72595
32.791425
32.855975
32.915575
32.988325
32.993225
33.1064
33.1488
33.188875
33.294525
33.4747
33.709725
33.994475
34.212975
34.577375
35.0888
35.7463
36.400175
37.38175
38.59235
39.9761
41.671875
43.725525
46.099925
48.806725
51.83775
54.9429
57.923375
60.86195
32.767925
32.75985
32.738525
32.71445
32.707225
32.7476
32.790775
32.78845
32.76745
32.77295
32.78635
32.763775
32.7405
32.770575
32.78935
32.8288
32.9172
32.97995
33.09535
33.2457
33.3835
33.481925
33.61725
33.82545
34.08645
34.345175
34.736075
35.2219
35.819225
36.58345
37.513625
38.7986
40.425575
42.157825
44.287425
46.6729
49.130575
51.918525
54.783825
57.6214
32.786875
32.7894
32.770175
32.809275
32.81455
32.783375
32.755275
32.757775
32.82005
32.807725
32.822025
32.8428
32.877175
32.920775
32.96905
32.969775
32.9379
32.99755
33.071775
33.110375
33.1944
33.3358
33.447775
33.582625
33.83345
34.191525
34.561475
35.051
35.548075
36.184825
37.013825
37.8646
39.109825
40.5956
42.2694
44.326
46.70255
49.153775
51.90535
54.578675
32.683825
32.6733
32.70455
32.704075
32.7218
32.746725
32.8161
32.835025
32.8677
32.91185
32.8846
32.886075
32.88155
32.85355
32.8471
32.891475
32.957125
32.954225
32.963575
33.015
33.0837
33.245725
33.413625
33.6074
33.75355
33.95075
34.252075
34.607675
35.05785
35.56525
36.207525
37.124425
38.12085
39.36265
40.8357
42.546925
44.530075
46.71505
49.158825
51.6749
32.732075
32.765225
32.789625
32.819
32.797525
32.765225
32.8136
32.78655
32.786725
32.765025
32.81715
32.8139
32.783125
32.824325
32.8136
32.85775
32.876
32.955925
33.0317
33.098375
33.121
33.207975
33.248225
33.449175
33.61345
33.7565
34.03885
34.377925
34.7748
35.21655
35.7841
36.391825
37.224075
38.234625
39.47685
40.809225
42.5437
44.394175
46.508925
48.89965
32.7908
32.816825
32.790425
32.729625
32.735475
32.71955
32.6949
32.6774
32.67395
32.6531
32.607
32.6562
32.7112
32.71945
32.778625
32.817175
32.869175
32.808875
32.870325
32.906
32.98225
33.0776
33.20925
33.320925
33.46535
33.602525
33.78645
34.014375
34.34555
34.74935
35.222175
35.840175
36.52235
37.441
38.48695
39.652225
41.02595
42.6143
44.38245
46.272475
32.7389
32.7002
32.67025
32.7138
32.6626
32.6293
32.6471
32.653325
32.617575
32.63255
32.67525
32.687675
32.66635
32.6767
32.698075
32.69705
32.731975
32.827225
32.8851
32.966175
33.0556
33.10685
33.158375
33.210125
33.35525
33.551075
33.756375
33.968325
34.233875
34.5396
34.978025
35.555075
36.095925
36.750025
37.516125
38.507625
39.76745
41.1295
42.58105
44.355775
32.714225
32.68285
32.699075
32.711525
32.750175
32.831525
32.784675
32.833575
32.88775
32.937325
32.9487
32.9421
32.9191
32.917075
32.918275
32.892175
32.90565
32.9126
32.8922
32.877875
32.90365
32.947375
33.01595
33.1433
33.216425
33.36185
33.5109
33.692525
33.8972
34.2253
34.5733
35.01925
35.436075
36.066325
36.808775
37.74135
38.675225
39.913525
41.094875
42.558375
32.744175
32.790175
32.810625
32.818
32.850325
32.830325
32.859125
32.8402
32.800075
32.790875
32.8097
32.8398
32.870475
32.8807
32.925525
32.945925
32.9817
33.011875
33.00645
33.017325
33.064575
33.07875
33.13455
33.1985
33.27865
33.3494
33.5111
33.633525
33.867025
34.045125
34.312575
34.695225
35.1644
35.646025
36.13195
36.8572
37.6812
38.662375
39.77965
41.016275
32.773875
32.749775
32.716775
32.706225
32.7157
32.698075
32.69295
32.726325
32.726575
32.75985
32.7624
32.78905
32.8014
32.8419
32.850875
32.915675
32.891175
32.870175
32.9266
32.99375
33.010525
33.07645
33.147125
33.19665
33.317275
33.386475
33.53245
33.641925
33.838425
33.990375
34.1574
34.42375
34.748225
35.19395
35.7319
36.1965
36.883
37.594275
38.4543
39.548975
32.7415
32.75215
32.7695
32.815675
32.792525
32.789875
32.789325
32.84295
32.811325
32.75655
32.748625
32.734
32.721725
32.728475
32.718975
32.712875
32.796725
32.843525
32.857775
32.8899
32.945375
32.9949
33.0746
33.1278
33.19355
33.3002
33.40465
33.545925
33.661075
33.846875
34.009575
34.2272
34.4797
34.785725
35.179275
35.60595
36.124825
36.79415
37.6063
38.434725
32.74255
32.76475
32.8
32.80615
32.7744
32.807775
32.7851
32.755725
32.8339
32.8601
32.893725
32.919275
32.918775
32.88475
32.8757
32.846
32.804775
32.81175
32.8749
32.876275
32.881625
32.89225
32.935225
32.94995
32.9993
33.0023
33.092575
33.22675
33.38905
33.497325
33.75995
34.004525
34.199975
34.49555
34.849625
35.2682
35.788475
36.3643
36.935325
37.583175
32.7523
32.751025
32.716075
32.723975
32.761925
32.74075
32.758
32.75355
32.7136
32.709025
32.656125
32.626575
32.64105
32.667025
32.726625
32.743125
32.788625
32.852075
32.8481
32.88955
32.9128
32.9492
32.96075
32.964025
33.007975
33.15635
33.221525
33.30195
33.340725
33.465725
33.598675
33.75215
33.98345
34.23935
34.52715
34.832625
35.2231
35.693175
36.234825
36.8477
32.7131
32.695575
32.710675
32.6569
32.64225
32.6836
32.668575
32.695175
32.705575
32.7052
32.70245
32.758975
32.76215
32.754475
32.7709
32.8297
32.874225
32.876725
32.830225
32.902475
32.9309
32.988675
32.983475
33.037975
33.12545
33.13595
33.1547
33.24255
33.35455
33.426725
33.503675
33.65335
33.87495
34.0365
34.208725
34.4909
34.783175
35.122125
35.624325
36.20275
32.7686
32.7525
32.78405
32.7736
32.78665
32.74745
32.731675
32.682025
32.723825
32.74715
32.75045
32.745675
32.776775
32.82465
32.79735
32.7549
32.696075
32.669825
32.760625
32.754525
32.7857
32.7944
32.8322
32.88315
32.8861
32.904275
32.9609
32.99575
33.04745
33.193425
33.3485
33.445175
33.53595
33.751575
33.969025
34.190975
34.443875
34.80975
35.1919
35.563825
32.7584
32.733375
32.743225
32.7544
32.751375
32.79675
32.8072
32.85405
32.83835
32.831975
32.8442
32.79895
32.79135
32.74765
32.728475
32.768625
32.771775
32.819675
32.77805
32.797625
32.7614
32.80235
32.804825
32.826475
32.879875
32.943575
33.037775
33.13545
33.207675
33.2396
33.332275
33.439875
33.56845
33.7129
33.8478
34.044875
34.297425
34.5074
34.8007
35.101775
32.785575
32.794975
32.81585
32.816875
32.825025
32.804975
32.79045
32.7614
32.73665
32.70275
32.7686
32.785225
32.819075
32.826475
32.8553
32.850275
32.884
32.919
32.9007
32.89865
32.903
32.85575
32.8819
32.921275
32.95585
33.000925
33.0089
33.0289
33.142875
33.240675
33.2739
33.36585
33.42325
33.55955
33.66355
33.8194
33.98605
34.183325
34.462575
34.79565
32.7213
32.7421
32.72135
32.6943
32.678975
32.65055
32.68325
32.70875
32.73935
32.78025
32.73325
32.7828
32.739275
32.750125
32.76235
32.793225
32.80955
32.760325
32.7567
32.791925
32.812875
32.866025
32.901325
32.865475
32.879125
32.8661
32.910675
32.992675
32.993825
33.037525
33.1463
33.217425
33.349425
33.438625
33.544475
33.67135
33.831325
33.97695
34.1624
34.317675
32.73815
32.69715
32.711825
32.746925
32.754375
32.744275
32.745325
32.731175
32.7131
32.704075
32.733
32.71835
32.7219
32.742575
32.7335
32.690225
32.688575
32.739625
32.7691
32.773775
32.808325
32.8517
32.859825
32.862125
32.90595
32.8999
32.915825
32.9555
32.9559
32.997
33.072825
33.10475
33.163875
33.20705
33.27925
33.399025
33.524625
33.6908
33.899725
34.18205
32.738075
32.7613
32.72465
32.6825
32.728825
32.750525
32.75385
32.804725
32.82715
32.827125
32.800125
32.801725
32.832125
32.835225
32.816775
32.82055
32.82035
32.8415
32.813825
32.84495
32.820375
32.789175
32.78385
32.837975
32.857225
32.936975
33.005125
32.983925
33.0224
33.0446
33.076475
33.1058
33.15635
33.242575
33.322175
33.446575
33.530425
33.68995
33.8021
33.902
32.771375
32.785075
32.785675
32.807275
32.780825
32.763025
32.796925
32.7893
32.7514
32.7397
32.783025
32.83615
32.77155
32.7586
32.754975
32.781875
32.8143
32.8415
32.854675
32.838325
32.874675
32.884
32.926275
32.8938
32.8664
32.83775
32.86815
32.9074
32.954025
32.989225
32.977075
33.077775
33.13625
33.228775
33.35845
33.423
33.445225
33.502925
33.600125
33.73415
32.7279
32.705025
32.702475
32.750975
32.776775
32.795175
32.78275
32.7571
32.7896
32.7579
32.750975
32.703275
32.738875
32.738825
32.774825
32.778725
32.789925
32.76075
32.8005
32.818875
32.83515
32.855675
32.8365
32.83215
32.81105
32.806975
32.82895
32.872725
32.878775
32.905775
32.98865
33.021
33.0572
33.1055
33.131625
33.200775
33.296075
33.37475
33.521825
33.686725
32.78565
32.80735
32.81495
32.77145
32.72205
32.7179
32.678025
32.67815
32.7097
32.7602
32.771125
32.7707
32.78925
32.77775
32.796175
32.79615
32.796025
32.809525
32.760475
32.713
32.715175
32.709675
32.734775
32.811375
32.851225
32.889175
32.852675
32.835675
32.8655
32.90025
32.953125
33.01425
33.02435
33.0321
33.094
33.194125
33.210525
33.311275
33.40315
33.43355
32.7695
32.739425
32.747525
32.7404
32.76005
32.760775
32.791525
32.79065
32.8035
32.765875
32.7772
32.755625
32.7428
32.73375
32.693775
32.638325
32.608175
32.617075
32.655175
32.654925
32.701625
32.712875
32.732525
32.730725
32.733625
32.756725
32.781375
32.86675
32.878025
32.883975
32.855975
32.86635
32.8898
32.892525
32.946975
33.045375
33.128225
33.158525
33.17405
33.3044
32.7393
32.773225
32.82885
32.817975
32.796725
32.826225
32.766925
32.74875
32.7309
32.678625
32.657825
32.6752
32.6899
32.7015
32.73495
32.763725
32.753
32.730325
32.717125
32.7948
32.783775
32.782675
32.811125
32.849125
32.8722
32.835475
32.8332
32.775175
32.740275
32.777375
32.8222
32.8133
32.846425
32.892275
32.950075
33.032275
33.100425
33.156825
33.272725
33.314825
32.7147
32.68415
32.633775
32.664025
32.704375
32.733725
32.7643
32.760375
32.742875
32.780425
32.806225
32.781
32.7845
32.779325
32.813925
32.80285
32.8402
32.8689
32.862675
32.8408
32.80265
32.8366
32.810475
32.780525
32.764475
32.802425
32.838225
32.912525
32.95945
32.94835
32.96425
32.9806
32.983375
33.0096
32.98305
32.96885
32.989775
33.06285
33.07
33.158225
62.722025
42.3583
37.29515
34.979275
33.4467
32.293825
31.467975
30.5358
29.846225
29.1613
28.752475
28.35535
27.64
27.117275
26.707975
26.3781
25.858575
25.5767
25.347625
25.25385
24.7643
24.024925
23.6408
23.43665
23.385375
23.0882
22.81665
22.29065
22.08685
21.7169
21.4595
21.22295
20.939775
20.508125
20.04765
19.545825
19.188225
18.620075
17.543075
15.698975
77.30925
55.66285
44.78035
39.504475
36.425775
34.4436
32.753375
31.61615
30.61895
29.8062
29.0624
28.429525
27.78375
27.334425
26.767325
26.33325
25.90775
25.49735
25.0945
24.752875
24.29245
24.0249
23.7079
23.447075
23.034775
22.775025
22.453325
22.154275
21.830225
21.60115
21.269325
20.856425
20.503575
20.23555
19.8177
19.42755
18.922125
18.1157
17.071075
15.3369
79.8674
63.68475
52.2954
45.1482
40.558875
37.597525
35.3683
33.587575
31.944075
30.994
30.1165
29.106675
28.337575
27.735825
27.195375
26.72295
26.199425
25.8215
25.336775
24.91555
24.591575
24.07315
23.8695
23.624
23.2439
22.84785
22.56695
22.247025
21.99915
21.669
21.273
20.914175
20.499075
20.369425
19.810775
19.414925
18.7563
18.0428
17.09385
15.808825
79.92505
68.05735
57.8294
50.3697
45.05385
41.21465
38.1279
35.7992
34.1174
32.79785
31.636675
30.687975
29.633825
28.701025
28.117775
27.46745
26.8588
26.4725
25.956525
25.48055
25.006825
24.705875
24.274725
23.788
23.663775
23.12845
22.73865
22.42665
22.206975
21.95175
21.597625
21.1743
20.859475
20.7157
20.178875
19.6259
19.082425
18.372475
17.440325
16.4816
79.599825
70.700375
62.26815
55.13545
49.370425
44.896475
41.5618
38.707975
36.5631
34.855825
33.39595
32.06995
31.042425
29.968
29.287625
28.623625
27.929625
27.374725
26.85365
26.27465
25.813525
25.413125
24.860925
24.4233
23.92245
23.59945
23.261575
22.8871
22.595825
22.36785
21.966175
21.542275
21.239425
20.750125
20.5627
19.985725
19.40105
18.7092
17.970425
17.218075
79.0333
72.049
65.216425
58.7291
53.193975
48.6097
44.8549
41.6505
39.26565
37.269625
35.46585
33.822125
32.62485
31.6521
30.747025
29.8364
28.98995
28.1949
27.49165
27.060675
26.40025
25.963925
25.501225
25.11525
24.85955
24.375375
23.9293
23.516325
23.16645
22.8695
22.3947
22.010575
21.617175
21.278725
20.812125
20.40985
19.7816
19.1772
18.747375
18.006625
78.634225
73.1438
67.2063
61.4689
56.22775
51.611875
47.924125
44.623125
41.92535
39.511525
37.481075
35.868875
34.577025
33.289125
32.26265
31.194
30.232775
29.332425
28.78985
28.1292
27.5656
26.911725
26.411175
26.065075
25.637775
25.175625
24.7069
24.2607
23.78925
23.3917
22.8531
22.670275
22.200075
21.801725
21.412975
20.96175
20.57585
19.91415
19.211775
18.605125
77.496875
73.491625
68.79125
63.74345
58.9894
54.3937
50.5015
47.288775
44.3577
42.122275
40.004275
38.1543
36.616125
35.130725
33.882975
32.864025
31.80105
30.817875
30.058125
29.2212
28.5927
27.91825
27.42525
26.843975
26.38845
25.941775
25.424025
24.9738
24.609475
24.11935
23.674025
23.146825
22.851225
22.418575
21.875575
21.517075
21.150825
20.67115
20.139025
19.510775
76.54535
73.49565
69.94645
65.513725
61.45775
57.348375
53.52625
50.197875
47.19655
44.729225
42.338125
40.2317
38.47375
37.02045
35.668325
34.4917
33.37355
32.3275
31.416225
30.693125
30.016
29.27185
28.64
27.901625
27.2957
26.8256
26.2896
25.90895
25.4215
24.90935
24.501675
24.09795
23.75935
23.2084
22.797275
22.38025
21.806675
21.406275
20.8713
20.366975
75.143675
73.0701
70.1014
66.90445
63.18405
59.7572
56.263825
52.893825
49.80305
47.268375
44.782225
42.765975
40.7575
39.105475
37.658675
36.284675
35.1007
33.9475
33.02585
32.008875
31.1999
30.47105
29.82515
29.117225
28.4656
27.87985
27.161225
26.724925
26.219075
25.851975
25.246775
24.798275
24.43155
24.026325
23.5525
23.067
22.658
22.2671
21.7407
21.225625
73.454475
72.2267
70.128925
67.695125
64.664725
61.475
58.215075
55.2882
52.400625
49.61855
47.290125
45.02935
43.05885
41.25075
39.6531
38.192625
36.807575
35.68485
34.557975
33.610575
32.65135
31.803225
31.0623
30.3173
29.71715
29.1012
28.51675
27.8377
27.36485
26.864725
26.3658
25.9056
25.385325
24.908625
24.4256
23.91205
23.447625
23.048025
22.6264
22.0821
71.151675
71.017925
69.770825
68.057625
65.68975
62.9514
59.9719
57.227775
54.70365
52.104675
49.635275
47.415675
45.314
43.498925
41.637825
40.235775
38.89495
37.5254
36.337625
35.1755
34.1634
33.2413
32.335975
31.606
30.913975
30.2786
29.62975
28.969775
28.313625
27.90995
27.4187
26.84785
26.265225
25.69435
25.275725
24.911775
24.449725
23.892
23.2965
22.77245
68.70145
69.5516
69.078775
67.80885
66.345875
64.04735
61.648775
58.9171
56.43675
54.1308
51.642225
49.518475
47.633175
45.568775
43.95845
42.29285
40.6859
39.2913
38.050475
36.866675
35.89285
34.94645
34.102575
33.184475
32.2218
31.548225
30.85695
30.262225
29.527725
28.84545
28.23465
27.7828
27.242175
26.7981
26.341925
25.726525
25.189925
24.680425
24.29935
23.8071
65.926825
67.233375
67.46385
67.303475
66.2841
64.8155
62.826725
60.640925
58.1859
56.111825
53.9519
51.683925
49.48415
47.77595
45.832175
44.15595
42.505975
41.102325
39.844225
38.645175
37.45845
36.4758
35.449425
34.523975
33.787225
32.908
32.20675
31.548375
30.905225
30.121025
29.463
28.806375
28.2562
27.684675
27.248025
26.7105
26.242325
25.742325
25.213725
24.6488
63.19295
64.862625
65.937225
66.227925
66.0233
65.186075
63.690425
61.946575
59.88025
57.774775
55.5869
53.742875
51.77115
49.48775
47.807675
46.1343
44.747225
43.212625
41.74125
40.403375
39.110925
37.8746
36.886275
36.0076
35.060475
34.2184
33.482525
32.713275
32.024175
31.36235
30.730425
30.136175
29.55795
28.8937
28.3436
27.8564
27.354825
26.844525
26.328975
25.789625
60.347425
62.39255
63.923325
64.712275
65.02505
64.53305
63.720925
62.652275
61.08405
59.36665
57.4737
55.43015
53.5659
51.70145
49.794975
48.0688
46.51465
45.073125
43.682575
42.1994
40.9914
39.835625
38.77815
37.72675
36.65895
35.8217
34.9072
34.087525
33.344325
32.673075
31.86785
31.2632
30.6259
29.968375
29.369975
28.8614
28.40245
27.9522
27.494125
26.975075
57.046
59.311175
61.402675
62.810375
63.523525
63.924275
63.800225
62.7705
61.71765
60.318775
58.727525
56.971975
55.1352
53.3369
51.7264
50.112175
48.4599
46.89175
45.522575
44.126875
42.778
41.638575
40.431875
39.274175
38.303075
37.2157
36.312425
35.527875
34.778075
34.02075
33.247
32.49635
31.792075
31.2762
30.5971
29.97895
29.43615
28.93925
28.3577
27.89195
54.058475
56.63785
58.715825
60.446775
61.690025
62.508825
62.833075
62.732575
61.8882
60.93645
59.872175
58.40305
56.963725
55.3195
53.64255
51.986725
50.479075
49.0631
47.493375
46.210725
44.811475
43.4725
42.327775
41.038975
40.00405
38.9876
37.963025
36.95295
36.029475
35.28555
34.634
33.938225
33.1986
32.5097
31.93005
31.39725
30.76915
30.24285
29.680025
29.05855
51.19995
53.6462
55.8949
57.989225
59.635975
60.75685
61.569025
61.747975
61.65145
61.135225
60.31
59.32065
58.03825
56.7014
55.213175
53.692525
52.180375
50.6263
49.237875