/*--------------------------------*- C++ -*----------------------------------*\
| =========                 |                                                 |
| \\      /  F ield         | OpenFOAM: The Open Source CFD Toolbox           |
|  \\    /   O peration     | Version:  v1706                                 |
|   \\  /    A nd           | Web:      www.OpenFOAM.com                      |
|    \\/     M anipulation  |                                                 |
\*---------------------------------------------------------------------------*/
FoamFile
{
    version     2.0;
    format      ascii;
    class       volVectorField;
    location    "0.004";
    object      fD_Ar;
}
// * * * * * * * * * * * * * * * * * * * * * * * * * * * * * * * * * * * * * //

dimensions      [1 -1 -2 0 0 0 0];


internalField   uniform (0 0 0);

boundaryField
{
    flow
    {
        type            calculated;
        value           uniform (0 0 0);
    }
    cylinder
    {
        type            calculated;
        value           nonuniform List<vector> 
60
(
(2.914553641 -4.870557723 -0.04247453592)
(2.86120914 -4.71925672 -0.01389754806)
(2.798861342 -4.59683018 -0.01638504753)
(2.803484392 -4.539173819 -0.01655223841)
(2.80475399 -4.437333303 -0.01380225594)
(2.73497034 -4.376080262 0.03415298161)
(2.733252551 -4.262204606 -0.002090181504)
(2.655144738 -4.182801312 0.01605562638)
(2.670504265 -4.184146761 -0.05039037141)
(2.573046406 -4.071221587 0.009329462965)
(2.594595502 -4.043149119 -0.014989677)
(2.577718985 -3.973646709 -0.02018847586)
(2.549679589 -3.929312033 0.02796842174)
(2.48235537 -3.849356144 0.0007237554531)
(2.442209355 -3.755042053 -0.00063194043)
(2.394491426 -3.789703681 0.006895389631)
(2.379730077 -3.683319367 -0.01024027255)
(2.348173078 -3.632831273 -0.01058796135)
(2.344765141 -3.673515089 -0.001444094384)
(2.404715899 -3.673928321 -0.01327196464)
(2.340131742 -3.56726627 0.009764032328)
(2.270637799 -3.434112866 0.02100568457)
(2.202975405 -3.365706785 0.002762205573)
(2.225524158 -3.403351328 0.00913510383)
(2.211891443 -3.336864049 -0.009724544193)
(2.244619774 -3.357183142 -0.02204908658)
(2.217231864 -3.301028523 -0.01602797717)
(2.14696689 -3.218238492 -0.01048060004)
(2.1757643 -3.192604151 -0.01597257761)
(2.15205415 -3.180771307 0.002966834732)
(2.100198934 -3.086548392 -0.0002926832768)
(2.145330683 -3.098248733 -0.01212550942)
(2.122547829 -3.013899826 -0.0007693815596)
(2.125916582 -3.012179523 0.01357636005)
(2.091863792 -2.942524095 -0.0007533973866)
(2.081869151 -2.826012023 -0.03617200764)
(2.068737461 -2.823414875 0.002446331177)
(2.058578432 -2.732974681 -0.01059170798)
(2.086425533 -2.623628433 0.002441306422)
(2.02522932 -2.458474182 0.004892121836)
(60.66492979 0.1540533439 -0.04832521613)
(60.00462722 0.4283787189 0.1133987277)
(59.97433109 0.5283032703 -0.03459155335)
(59.79057751 0.6113109249 0.07414060984)
(59.91897869 0.8333234337 0.005878760763)
(59.42291156 1.080115123 -0.05282829503)
(59.58737732 1.305608055 -0.02711820686)
(59.24625018 1.373198243 0.1698065745)
(59.29312316 1.87459065 -0.0458165102)
(59.14150413 2.04722683 -0.04377445163)
(58.84506482 2.341327818 0.02781023073)
(58.50143095 2.609589631 -0.06759463353)
(58.38816682 3.011135724 0.06279443929)
(57.93003565 3.470880402 0.01540039489)
(57.64115572 3.857785767 -0.05164433124)
(57.02466571 4.601704376 0.002484539132)
(56.34019997 5.470809299 0.02608438772)
(55.0971924 6.455576314 0.06811252059)
(53.57552699 8.02946416 -0.007015317909)
(51.96750161 10.73871814 0.1283648399)
)
;
    }
    wedgeFront
    {
        type            symmetry;
    }
    wedgeBack
    {
        type            symmetry;
    }
    defaultFaces
    {
        type            empty;
    }
}


// ************************************************************************* //
