/*--------------------------------*- C++ -*----------------------------------*\
| =========                 |                                                 |
| \\      /  F ield         | OpenFOAM: The Open Source CFD Toolbox           |
|  \\    /   O peration     | Version:  v1706                                 |
|   \\  /    A nd           | Web:      www.OpenFOAM.com                      |
|    \\/     M anipulation  |                                                 |
\*---------------------------------------------------------------------------*/
FoamFile
{
    version     2.0;
    format      ascii;
    class       volScalarField;
    location    "0.004";
    object      Ma_Ar;
}
// * * * * * * * * * * * * * * * * * * * * * * * * * * * * * * * * * * * * * //

dimensions      [0 0 0 0 0 0 0];


internalField   nonuniform List<scalar> 
4000
(
5.272905123
5.242681532
5.175022183
5.163557281
5.032444125
4.908301513
4.873087813
4.870756011
4.717786146
4.557692592
4.33847477
4.167621326
3.938411487
3.696008541
3.484225175
3.255625812
2.96126545
2.685427324
2.44723942
2.192858137
1.93251476
1.700569568
1.482427877
1.289265268
1.094322171
0.9276779392
0.7785818535
0.6548559545
0.5451033483
0.4553118362
0.3840935996
0.3216308615
0.2638238993
0.2116105123
0.1671107432
0.1277523909
0.08872679459
0.05416146025
0.02782667147
0.009359649072
5.253422803
5.238431289
5.196540157
5.172287666
5.1256996
5.029858331
4.913235261
4.86587281
4.743527
4.583085619
4.421292304
4.217977091
4.035296322
3.796596802
3.512551535
3.301567503
3.042768176
2.749805054
2.491561578
2.212864555
1.955134054
1.710080241
1.487476955
1.283650838
1.08729823
0.917624008
0.7713716674
0.6433187812
0.5389828394
0.4512734203
0.378170987
0.312953445
0.2621579945
0.2142297416
0.1698628509
0.1276300004
0.08873927162
0.05652029073
0.02832563262
0.01166054371
5.284761336
5.241846462
5.214612522
5.153725659
5.127319174
5.044476439
4.983264838
4.86695748
4.743818928
4.614186483
4.445351516
4.237469524
4.028888232
3.809463729
3.559849311
3.328693131
3.079958104
2.800362795
2.52927296
2.238089869
1.990148468
1.74109812
1.509338377
1.297124277
1.100077882
0.9216579138
0.7744864445
0.6430345146
0.5364786607
0.4476801879
0.3748565154
0.3151514279
0.261602514
0.2146303968
0.1686218241
0.1280548287
0.09281359634
0.05979503192
0.03543031878
0.01568622974
5.289077966
5.250741537
5.221200394
5.187177271
5.122727118
5.056612897
4.983441663
4.902707906
4.80123232
4.655776703
4.483213652
4.301402721
4.069098262
3.84583412
3.65212358
3.383702144
3.122341633
2.856357689
2.57007108
2.278305538
2.024004838
1.775337587
1.530696001
1.305984505
1.11605202
0.9362124781
0.7805864132
0.6498568965
0.5410109625
0.4513847786
0.3803721525
0.3196468715
0.2664648421
0.2194106794
0.1762669558
0.1369277958
0.09970130392
0.06893896951
0.04252456322
0.02019181243
5.296910896
5.26520269
5.222246183
5.166582775
5.149556619
5.099835653
5.016924147
4.941738256
4.843602707
4.654229933
4.503550498
4.31630234
4.132891053
3.934233791
3.705752055
3.440726548
3.150826624
2.878558201
2.560707276
2.295808893
2.045355013
1.796901516
1.550232223
1.32675053
1.123967924
0.9475351405
0.790783995
0.6633213852
0.5536719342
0.4631056906
0.3876401542
0.326298664
0.274778845
0.2260681958
0.1836762591
0.1460108421
0.1099501891
0.08022035063
0.05111916963
0.02566966278
5.304690688
5.261601938
5.232178147
5.201887442
5.155851648
5.118628347
5.053031356
4.945246514
4.810718413
4.69042785
4.568444373
4.376752096
4.19006637
3.954017799
3.738581268
3.485271473
3.200574408
2.928759622
2.626056216
2.33248926
2.074661315
1.813222284
1.567676243
1.342380914
1.142526425
0.9654729391
0.8102719371
0.6734504344
0.5605804689
0.4708726898
0.3995043443
0.3346915187
0.2818846439
0.2366363805
0.1927770643
0.1564274752
0.1214917705
0.09250749645
0.06187689472
0.03143152457
5.306123061
5.275442311
5.237755006
5.207424753
5.161420173
5.117352263
5.042766506
4.960405761
4.8340653
4.71161341
4.545965138
4.388534353
4.205782619
4.007845144
3.749039324
3.49667849
3.214407617
2.94850283
2.661107473
2.387588697
2.107676066
1.839345641
1.601896356
1.377844039
1.166302596
0.9882005101
0.8245817465
0.6869877863
0.5734722325
0.4836414591
0.4106258598
0.3475076396
0.2930125373
0.2494286011
0.2082762402
0.1708257339
0.1353172956
0.1055869408
0.07312558632
0.03764998577
5.302776096
5.259100711
5.20969339
5.196984719
5.185864082
5.140602626
5.063453794
4.975888901
4.869881537
4.724788921
4.596096916
4.402400004
4.22543126
4.03314046
3.756508324
3.532123613
3.273020346
2.96502108
2.667239921
2.39409098
2.12023149
1.87031649
1.629961394
1.402039011
1.190213952
1.006152719
0.8477354325
0.7097052445
0.59518914
0.4990722398
0.4233266943
0.3630492257
0.3097087638
0.2636788582
0.2224191061
0.1853973534
0.1505360371
0.1183511157
0.08576874426
0.0443774426
5.29420763
5.284901218
5.242707536
5.217774467
5.172242057
5.112232648
5.008822158
4.960391297
4.870189468
4.738408207
4.615627483
4.437370976
4.253077525
4.079308917
3.832550135
3.556652207
3.285730854
3.02197944
2.725867197
2.441610987
2.151470235
1.892887753
1.65452354
1.428180988
1.218415378
1.02687532
0.8681597485
0.7319415828
0.6140440909
0.5197750515
0.4445334513
0.3814488307
0.3264548183
0.2799177145
0.2400564317
0.2020522027
0.1672406657
0.134347772
0.09779635543
0.05163065996
5.314037935
5.296071214
5.250949342
5.220609208
5.194074813
5.121191156
5.042699149
4.983052778
4.882428857
4.747194755
4.613823218
4.459845848
4.266595095
4.068468821
3.828584951
3.593483252
3.328288154
3.064612111
2.775877744
2.485679889
2.209063919
1.94353125
1.693496132
1.4618524
1.242926852
1.056090897
0.8954529225
0.7537506769
0.6383768335
0.5402546343
0.4618097451
0.4000374867
0.3479753871
0.300398437
0.2594695074
0.2222180739
0.1860359303
0.1506727429
0.1114902519
0.05964762109
5.312883735
5.286323441
5.26859873
5.237119088
5.194848274
5.121319984
5.060601655
4.983031742
4.870761915
4.764423397
4.633442691
4.494882539
4.322370943
4.10307631
3.891865857
3.672309731
3.407421593
3.125074141
2.838640542
2.555737612
2.267144146
1.993105198
1.733911931
1.499079797
1.280041085
1.087261399
0.9231286253
0.7822108707
0.6623709367
0.5636389097
0.4866048913
0.4213415035
0.3690147157
0.323870039
0.2821718727
0.2435992784
0.2086596925
0.1699111867
0.1265477038
0.0679324806
5.294269763
5.266064911
5.241979285
5.224160257
5.162557385
5.116920383
5.059367828
5.023769683
4.908188772
4.786682073
4.67247795
4.534557878
4.364166717
4.125553118
3.924225289
3.6765737
3.45465587
3.16652071
2.861585565
2.597778358
2.305852776
2.023400644
1.778744359
1.547461843
1.325788191
1.127916401
0.9580852033
0.8097545483
0.6886621435
0.590505444
0.5113227216
0.4470855746
0.3938928155
0.3465329159
0.3068099504
0.2672002323
0.2325372751
0.192140374
0.1426989059
0.07765572514
5.322057095
5.30467213
5.265839204
5.227215302
5.186246765
5.137525428
5.098423134
5.041903269
4.947449057
4.832372893
4.722457942
4.563728827
4.417573943
4.18510007
3.962826719
3.749047759
3.506346317
3.196066224
2.921108119
2.652655372
2.364748255
2.078146224
1.832671208
1.592591266
1.370338534
1.171149091
0.9966092044
0.8501852038
0.7223823006
0.6189810832
0.5397853047
0.4776552126
0.4231299064
0.3767459713
0.3353738392
0.2961333062
0.2587246564
0.2146201286
0.1628143681
0.08926905007
5.317141101
5.30034746
5.275870074
5.23931705
5.195474313
5.159339648
5.107378647
5.026810803
4.963990134
4.848251746
4.73074398
4.604989258
4.42946624
4.233304702
4.028462393
3.797835273
3.565418774
3.268753802
2.981627774
2.690410253
2.416072862
2.140132535
1.884204531
1.654494113
1.419932112
1.21778616
1.03647343
0.8880160227
0.7598160018
0.6555702178
0.5719320641
0.5054703126
0.4516482176
0.4059013331
0.3656617605
0.327429121
0.2883077591
0.243054972
0.1855270132
0.1024262311
5.314090775
5.292650503
5.271874533
5.23554101
5.202502604
5.150993519
5.099165338
5.034769581
4.965818761
4.883586308
4.747689317
4.625110294
4.448286441
4.274808783
4.079597066
3.852487624
3.579880388
3.3168536
3.042085077
2.751843989
2.476048812
2.211066253
1.945808049
1.701368315
1.475078354
1.26783587
1.089826699
0.9262368806
0.7944818959
0.6889567764
0.6042983906
0.535924431
0.4862781682
0.440633218
0.3993428147
0.3630713572
0.3216908905
0.2742640274
0.2120697104
0.1182667101
5.313167798
5.305406431
5.26778632
5.232383761
5.18803507
5.1537215
5.109930321
5.066258748
4.981748182
4.87877142
4.770757984
4.65466636
4.495378385
4.326333738
4.123001886
3.903000053
3.627186728
3.380611084
3.0889115
2.814515116
2.537887728
2.276039595
2.010185124
1.759059606
1.529462215
1.321712279
1.133309572
0.9726968589
0.8356103514
0.7273528093
0.6408374079
0.5725695793
0.5199359001
0.4766362443
0.4393003792
0.4031673749
0.3629415802
0.313616068
0.2454133049
0.1386367591
5.316447852
5.296154486
5.290978156
5.243948858
5.205200704
5.172725325
5.11174186
5.067728371
4.986220446
4.886255401
4.78480554
4.676918267
4.542988275
4.324720098
4.156873819
3.949513446
3.678472878
3.4508621
3.173180692
2.880787362
2.60575071
2.338838009
2.071181798
1.820678741
1.596986429
1.383077899
1.185964764
1.021093169
0.8804427399
0.7682245072
0.6806978483
0.6123388657
0.5597559672
0.5174996601
0.479552229
0.444697434
0.4067782209
0.3581018324
0.287937168
0.1645611697
5.327507407
5.296983469
5.297810175
5.266782372
5.219620686
5.185898056
5.140877561
5.071206015
5.005239874
4.927391122
4.805229506
4.712287218
4.557674258
4.415769725
4.196738548
3.985030363
3.786840936
3.49797778
3.230394985
2.962552155
2.685874109
2.421851754
2.143749072
1.90528792
1.66319115
1.445572677
1.251025386
1.07768324
0.9329440385
0.8170661399
0.7253560529
0.6563662915
0.6030427995
0.5614722874
0.5269401601
0.4964028819
0.4612620582
0.4147730332
0.3418963646
0.2014737285
5.328753387
5.305544516
5.30037775
5.279324973
5.244456784
5.202118124
5.150882169
5.093428817
5.049963478
4.957237137
4.850865755
4.728565695
4.577206224
4.440835677
4.280069258
4.054015458
3.833613253
3.58911361
3.311221363
3.039459679
2.766900441
2.477666492
2.230567502
1.971593884
1.730985449
1.519020149
1.314907536
1.13992369
0.9933036099
0.8692132079
0.7771200855
0.7023338108
0.649268021
0.6086920536
0.5787309729
0.5557724689
0.5265384986
0.4910057633
0.4221993871
0.2595374625
5.32135894
5.316421976
5.296419484
5.281602288
5.249947006
5.206712554
5.14435056
5.08952865
5.054199816
4.976880873
4.863806957
4.80062476
4.662138017
4.483443095
4.330056931
4.125408168
3.893774615
3.655873487
3.407208092
3.139587926
2.849316476
2.59097736
2.319778742
2.056100822
1.820579288
1.602167754
1.385544932
1.20821674
1.054362079
0.932432333
0.8315314319
0.7559021874
0.7041860679
0.6638733499
0.6386263439
0.6213446257
0.6070843631
0.5905837282
0.552278013
0.3952963686
5.331449119
5.313338116
5.298621274
5.274419336
5.242533114
5.218562975
5.170513299
5.128750218
5.074083663
5.008841789
4.915946872
4.824570696
4.712490527
4.540174584
4.355089746
4.174383191
3.952233327
3.736457588
3.501669856
3.221964662
2.946380587
2.696382432
2.42173508
2.165820477
1.917696061
1.691572175
1.472466756
1.281640344
1.124544228
0.9978620584
0.890421183
0.8127644521
0.7607108504
0.722858506
0.7011776072
0.6935196635
0.6932998141
0.7056916242
0.734238953
0.8082943265
5.327007862
5.309134343
5.308299241
5.272111027
5.241659235
5.223758028
5.188037561
5.1547855
5.09202219
5.012889492
4.961757167
4.882151987
4.739745981
4.590656092
4.427030092
4.247141758
4.040722891
3.81829181
3.602821534
3.332751311
3.059013433
2.797674631
2.505676773
2.258884328
2.012960863
1.768023788
1.558996171
1.362152499
1.20356791
1.068930807
0.9578577062
0.8778203859
0.8212871578
0.7854623032
0.767885259
0.7640572083
0.779106765
0.8156170444
0.8824995097
1.003907635
5.329198745
5.32097092
5.302588063
5.280637282
5.271789313
5.235575455
5.195390897
5.139923451
5.094599341
5.049909776
4.982260656
4.878487445
4.757728287
4.616413646
4.458703811
4.28300554
4.122268379
3.895569695
3.668015593
3.439397371
3.165560236
2.884440769
2.618671071
2.371166461
2.102887041
1.865535739
1.651162551
1.457156376
1.285920474
1.144260948
1.031602523
0.9461403996
0.8897354977
0.8528210163
0.8373807402
0.8401289034
0.8623155805
0.9060936954
0.9829202463
1.091765775
5.343672941
5.315368475
5.297339228
5.270106901
5.263824969
5.245057514
5.204029184
5.185845084
5.124705849
5.047801633
5.002840826
4.910098732
4.803213648
4.675052225
4.530085716
4.37044971
4.210527234
3.99320809
3.767770226
3.515129156
3.263637432
2.967897553
2.725825525
2.47478112
2.216330969
1.981185205
1.755510171
1.558536381
1.372688813
1.226836733
1.110426296
1.021369217
0.9581994925
0.9224117953
0.9070910928
0.9097001887
0.9355241618
0.9816984276
1.058191594
1.151428692
5.331057648
5.319527663
5.301119126
5.272393194
5.252048531
5.241820856
5.224461868
5.202124938
5.158727618
5.080653762
5.007194008
4.966897195
4.851501724
4.731942767
4.587423791
4.433426667
4.260297889
4.069495026
3.832227498
3.621323927
3.357661567
3.094642662
2.865802334
2.596000238
2.328875347
2.09731734
1.86942536
1.660994024
1.476437038
1.327730022
1.19864225
1.101532891
1.035839317
0.9926344592
0.9752500744
0.9803353895
1.005045819
1.05080608
1.118137749
1.201818827
5.336665727
5.329303672
5.310810315
5.294109422
5.271932496
5.253944639
5.232312795
5.192064668
5.164652222
5.134703876
5.057441093
4.967326014
4.866261688
4.754734616
4.633035391
4.511266654
4.326602139
4.152003414
3.963937189
3.744986307
3.466014138
3.242727772
2.962916807
2.704743916
2.451068147
2.219001635
1.985018023
1.770109415
1.588382542
1.427364965
1.291599385
1.193756131
1.117300372
1.068343224
1.04821674
1.046670527
1.071233365
1.11254444
1.17023087
1.244135903
5.342737444
5.322265174
5.307167585
5.302059258
5.276520663
5.25972396
5.230704027
5.205174214
5.163142623
5.127656004
5.052840469
5.002392597
4.915465017
4.814641149
4.690560058
4.552423499
4.402885861
4.220886322
4.043282929
3.839502714
3.607034383
3.347236488
3.09781542
2.852039201
2.583967556
2.328962899
2.099971557
1.891692797
1.707744035
1.535796563
1.398125146
1.289318847
1.199471307
1.149781359
1.119833521
1.113808336
1.131922107
1.170342947
1.224156608
1.282683152
5.356805871
5.338420133
5.324981793
5.293430679
5.278458517
5.258700503
5.262584982
5.231274283
5.202612914
5.143141173
5.103922164
5.052676011
4.970069284
4.852061458
4.74126852
4.622554881
4.477330494
4.327212956
4.145344086
3.933538438
3.716732795
3.464228098
3.217882942
2.974971047
2.717726433
2.454925461
2.24072671
2.021927102
1.824562295
1.657620291
1.50957845
1.385953324
1.297000989
1.232657447
1.194116261
1.183179975
1.195093333
1.225047754
1.265960834
1.323470617
5.340335258
5.322388796
5.313482967
5.309846866
5.289801299
5.283473263
5.270000099
5.234688201
5.221792912
5.17581296
5.129627881
5.074175042
5.003699558
4.868509901
4.771636211
4.677092822
4.544795075
4.394612079
4.224037421
4.011788086
3.810343911
3.574809338
3.34154116
3.118354093
2.84452441
2.60118435
2.37307794
2.154051783
1.961594322
1.775759892
1.620040724
1.497612189
1.392556751
1.318218894
1.270384679
1.252505739
1.259715369
1.28014316
1.315919358
1.358134945
5.342364442
5.330948632
5.328834097
5.307085479
5.300412861
5.283830285
5.278441598
5.254820699
5.241912055
5.200789294
5.137865216
5.084884351
5.019994543
4.939141476
4.835930201
4.735302937
4.594245069
4.458846192
4.295462335
4.117574653
3.930986701
3.696034676
3.481610629
3.253173537
2.9913919
2.747413031
2.507247264
2.292915924
2.101447055
1.912648322
1.750389676
1.61460861
1.493465481
1.407421281
1.360770245
1.334820172
1.324853898
1.335101046
1.361856182
1.403011899
5.348911294
5.341294755
5.333764199
5.311513267
5.309918863
5.310591582
5.28626651
5.263162221
5.236362452
5.217689302
5.162148461
5.09987012
5.044527503
4.963579377
4.872578544
4.787241985
4.65748618
4.532689144
4.388263359
4.204957951
4.004544862
3.819384593
3.602211586
3.370236219
3.133014826
2.890370739
2.668309877
2.453297758
2.243556293
2.053645624
1.888556981
1.732203718
1.604526285
1.516683662
1.446865878
1.410019259
1.398647456
1.398816926
1.410752067
1.442746268
5.355379324
5.34449607
5.327463224
5.322511622
5.312246895
5.296209038
5.29000565
5.269702062
5.253369644
5.207183449
5.165348205
5.12364059
5.081700652
5.019209676
4.950045133
4.852622769
4.737305598
4.635453018
4.451095397
4.302985344
4.124868134
3.927978779
3.725617707
3.517459551
3.27031074
3.066638557
2.822114328
2.615879229
2.398667367
2.199619701
2.028337438
1.864544647
1.734477989
1.631159159
1.556994255
1.494439573
1.472492185
1.461048303
1.47235603
1.494530948
5.353094043
5.345477452
5.333566666
5.334725779
5.328523098
5.31876473
5.295003012
5.284531317
5.258557054
5.22559265
5.21163089
5.143855985
5.102061174
5.060223566
4.982493338
4.874673396
4.792704058
4.672029852
4.528268084
4.3967232
4.216958672
4.043360705
3.851784273
3.642305185
3.421934472
3.217096359
2.995052745
2.783843033
2.551682064
2.362603006
2.181325368
2.010155972
1.874644942
1.753628522
1.670313309
1.596536068
1.558220708
1.540976877
1.533178372
1.549433086
5.35017538
5.347416816
5.338186799
5.331753378
5.32737866
5.323743092
5.308977365
5.298483578
5.26900375
5.251131987
5.21401162
5.165420681
5.134945975
5.08389879
4.992826661
4.921271725
4.852755107
4.722026215
4.582989626
4.462946904
4.331203682
4.167499269
3.962046287
3.773322144
3.576014479
3.352350289
3.144445012
2.936374184
2.722425029
2.518438746
2.330586756
2.167257392
2.012633855
1.884420334
1.779578813
1.704668226
1.645616563
1.614788311
1.605464882
1.602018124
5.349336764
5.341104665
5.33294974
5.340357063
5.326498371
5.327159508
5.317610341
5.289442586
5.281315887
5.253579818
5.225399833
5.191238834
5.142294843
5.109121472
5.026748326
4.975119782
4.903431401
4.782126454
4.663856619
4.547962206
4.438383837
4.273350023
4.072533148
3.901778101
3.716230454
3.523969863
3.324213115
3.078658874
2.897586466
2.694619979
2.497340874
2.323949788
2.163407652
2.024468209
1.9074883
1.819648084
1.751700659
1.704837985
1.680721419
1.666181338
5.354796499
5.344710544
5.350559177
5.338485023
5.323473181
5.318633574
5.305268037
5.289888948
5.276412486
5.244248553
5.228570103
5.19924592
5.159953945
5.105945182
5.064158593
4.9940927
4.934730304
4.830216289
4.729831048
4.639575151
4.527186157
4.365338438
4.198690143
4.043692817
3.854973527
3.675512405
3.457536689
3.243814603
3.060546547
2.852758301
2.678901036
2.488448154
2.319273657
2.173761685
2.051293049
1.94610541
1.868236507
1.808645153
1.770402288
1.745121472
5.349487199
5.345581945
5.33828857
5.332765352
5.325994868
5.316769101
5.306578896
5.292365576
5.262856592
5.239059895
5.226875694
5.20915917
5.188302208
5.151384233
5.099838951
5.056202141
4.989104605
4.862255107
4.783079685
4.709905669
4.600238726
4.438859365
4.314396333
4.172788612
3.997853807
3.815154228
3.628291761
3.412677753
3.227942064
3.040031616
2.841006632
2.670801673
2.491405884
2.330631301
2.197966548
2.081278544
1.988837346
1.918693896
1.860699111
1.820329445
5.354789297
5.3473989
5.336153236
5.326429275
5.336049855
5.327864894
5.319696866
5.312700908
5.287085431
5.282522491
5.256218582
5.240516874
5.210896636
5.173307244
5.14789173
5.077180532
5.014718644
4.941643687
4.883407105
4.813401798
4.695083277
4.549075802
4.423630722
4.259105899
4.124683823
3.970954406
3.766475357
3.576351681
3.374687837
3.200613707
3.011211324
2.824527428
2.661070747
2.500223478
2.357261827
2.232493964
2.121000839
2.038882914
1.968760155
1.916872763
5.364750481
5.354199587
5.353571759
5.338189928
5.340643404
5.336622028
5.321764724
5.303730257
5.304013828
5.282299267
5.266249719
5.236875647
5.223343037
5.19385086
5.160151883
5.091716479
5.059925196
4.989865041
4.917457753
4.836571059
4.738000501
4.620299598
4.501812024
4.361435833
4.216106212
4.08150723
3.917558162
3.733283018
3.546536631
3.365835657
3.184878543
3.003815875
2.833662051
2.658772701
2.506422279
2.3875225
2.263244189
2.170827767
2.090756555
2.027959309
5.350035472
5.343610434
5.341697829
5.335795723
5.336967472
5.335374694
5.315117034
5.310172973
5.311933344
5.284652647
5.278352842
5.250124999
5.235079852
5.215660806
5.175546132
5.12318864
5.080612827
5.036732587
4.954309747
4.888840724
4.797406404
4.71868724
4.609296937
4.46987239
4.339018551
4.200627026
4.043550179
3.87100477
3.707297819
3.542726807
3.365120419
3.176252912
3.02228817
2.849876504
2.693037112
2.550441195
2.42453909
2.312860549
2.223406985
2.151916599
5.353429655
5.346905926
5.353107825
5.340388192
5.335112619
5.334653207
5.32143271
5.315307552
5.295431621
5.287010236
5.268798764
5.24965242
5.240326321
5.210108797
5.177529625
5.152344863
5.114611544
5.068464307
5.00537108
4.943254616
4.855752861
4.769063008
4.699766321
4.577733207
4.446723063
4.334573372
4.177463263
4.012290496
3.856319578
3.714623313
3.54141263
3.344250154
3.184482749
3.014214415
2.870415036
2.724466324
2.589623635
2.465217222
2.371834707
2.281608464
5.36306629
5.366155787
5.359875971
5.355139603
5.348007508
5.340141981
5.338167049
5.327529621
5.317062113
5.302573396
5.288076895
5.269876352
5.242273781
5.226947932
5.1840679
5.175286264
5.124591579
5.071676872
5.037967347
4.993211218
4.913132857
4.850599675
4.761122368
4.660613375
4.554996575
4.433050266
4.291792892
4.143186284
4.029457317
3.85776994
3.704113698
3.508483156
3.352322706
3.20319313
3.046495424
2.88930362
2.764148194
2.622768086
2.525511753
2.422271464
5.368039815
5.362254934
5.35303276
5.359587329
5.346368138
5.341478857
5.332091456
5.323132048
5.322689776
5.306483577
5.295696309
5.28921916
5.27562006
5.239129008
5.232341247
5.208126222
5.166665603
5.130285672
5.091330348
5.027659168
4.974247853
4.928054324
4.8373183
4.764636479
4.652531814
4.547480185
4.398962738
4.314968497
4.151813616
4.013311035
3.867731049
3.69189984
3.534031436
3.382918222
3.233273987
3.07155776
2.927508918
2.801508526
2.688833766
2.579056831
5.358062905
5.356601106
5.355475268
5.343682816
5.339463787
5.33963868
5.332040148
5.326553258
5.330695276
5.322833344
5.302318899
5.295463134
5.28196957
5.268207554
5.256188431
5.212263652
5.190210685
5.163062026
5.099124762
5.067084028
5.022789888
4.969868026
4.895976617
4.834421328
4.727853867
4.651531161
4.512742632
4.402523987
4.28156954
4.145780818
4.01287341
3.859368444
3.708658493
3.556659076
3.397400685
3.276597472
3.121184925
2.98459153
2.857043505
2.737922598
5.361774552
5.357654016
5.353249053
5.343051982
5.34269612
5.340777972
5.333042869
5.326405656
5.328297366
5.326709272
5.300402862
5.304400886
5.283216215
5.266397206
5.249878685
5.238640112
5.204668407
5.177502915
5.139566775
5.096253418
5.058679442
5.032290198
4.956569452
4.890864578
4.79398947
4.729031987
4.604791769
4.505182816
4.396924518
4.274912492
4.161104212
4.00411913
3.864743143
3.717799303
3.576382356
3.448125808
3.295225529
3.159043357
3.030247821
2.915895673
5.361647278
5.358681723
5.360767627
5.360654889
5.346902712
5.338783975
5.347153989
5.339831663
5.33204276
5.32150333
5.31693981
5.312486691
5.291694851
5.279754016
5.275081322
5.261180604
5.226535531
5.196522746
5.176035677
5.145761916
5.095460537
5.051758479
4.983544598
4.943588015
4.842611427
4.811730543
4.709540461
4.607887511
4.512325329
4.413591217
4.284047652
4.148043974
4.022117612
3.885509469
3.748118922
3.617585459
3.486300321
3.341984177
3.20981605
3.09679136
5.367304172
5.36442641
5.366795298
5.362023614
5.361024437
5.35432092
5.354554909
5.349793643
5.34419207
5.3330189
5.328805912
5.330363623
5.319523623
5.303243209
5.288516166
5.251279258
5.22568743
5.21614286
5.203777513
5.176555412
5.108353583
5.076519687
5.028392649
4.998955588
4.926131089
4.862174185
4.785287609
4.68842274
4.611788216
4.516415546
4.395198423
4.289627771
4.166929106
4.043523121
3.900180185
3.801677521
3.662551878
3.523774561
3.386230062
3.263516158
5.363857153
5.3610213
5.36395729
5.358417509
5.344977609
5.348786897
5.352661416
5.341490505
5.325247671
5.338857473
5.334625516
5.323925293
5.3082416
5.301187463
5.292594524
5.254471908
5.242191573
5.225513266
5.23170414
5.190813813
5.164785277
5.108617533
5.07372135
5.052576167
4.986482434
4.933584394
4.887214189
4.783343606
4.704039183
4.61662642
4.522507209
4.40951929
4.297273473
4.187299076
4.056526065
3.955519045
3.816338031
3.704358387
3.555530914
3.436970988
5.357245955
5.357544615
5.356892163
5.356753213
5.35631126
5.354278876
5.353454093
5.363549135
5.347173681
5.342711481
5.338999277
5.324152123
5.315148575
5.304073696
5.291877268
5.286905666
5.274404316
5.258898463
5.236643608
5.222545287
5.195379142
5.15085198
5.118183525
5.080851835
5.040883842
4.987070503
4.939611928
4.842452441
4.787161141
4.683596857
4.593445294
4.51206029
4.436265754
4.305645536
4.207137664
4.088053976
3.98090607
3.857119063
3.725462668
3.618277107
5.359380121
5.363230074
5.365770182
5.355693857
5.355293422
5.361771894
5.355263207
5.345266296
5.340232662
5.337800749
5.346489967
5.334477441
5.323810664
5.318959841
5.307548695
5.293635262
5.296047225
5.266333473
5.263352239
5.236018962
5.214179577
5.172814489
5.15660934
5.132586521
5.07830291
5.028867288
5.003844881
4.917721472
4.837220485
4.759699269
4.701585805
4.611134549
4.542266823
4.433616845
4.348044778
4.236719701
4.124234632
4.013052284
3.893485002
3.78516285
5.366941844
5.365197302
5.362193993
5.362396683
5.360265687
5.357100939
5.364930019
5.355720887
5.357886526
5.357314431
5.352424603
5.341855342
5.338200487
5.325401473
5.312345225
5.311485549
5.291162103
5.271517041
5.25461703
5.232519372
5.220854933
5.200303285
5.188699885
5.156747541
5.113560066
5.081506568
5.037465265
4.978156043
4.918574601
4.857438194
4.789291195
4.706002681
4.637502875
4.549251279
4.468212896
4.355219558
4.26776664
4.183558411
4.050900264
3.963354819
5.362647594
5.363940528
5.359194526
5.363482103
5.360276997
5.362642983
5.365835034
5.358562465
5.352595537
5.35270745
5.351128752
5.338185103
5.327279405
5.324443971
5.324587163
5.324753275
5.30672103
5.281276227
5.277928055
5.267265627
5.25391649
5.233727021
5.201470405
5.17177102
5.163081899
5.125478429
5.081609538
5.019164237
4.98627458
4.923652834
4.852184532
4.799459658
4.734811583
4.658430246
4.566639159
4.48315769
4.383360181
4.296624261
4.193347961
4.093412512
5.37472413
5.37167179
5.367642607
5.36231821
5.36108042
5.359686738
5.354940451
5.34937918
5.345089148
5.351170364
5.345466836
5.345615237
5.341210462
5.337974291
5.329742227
5.325093491
5.307508418
5.295409448
5.281027132
5.267662769
5.260645884
5.240193023
5.217925404
5.191861885
5.179011936
5.14839036
5.100601606
5.071181127
5.035168549
4.992482497
4.909683248
4.874490648
4.81726661
4.758485602
4.675238822
4.60439355
4.53215171
4.44125326
4.333577978
4.244426844
5.375029308
5.376833855
5.371848606
5.373659505
5.37135642
5.370900683
5.363002095
5.359803335
5.361998607
5.361208299
5.36029189
5.352553415
5.34516164
5.341149572
5.336533518
5.32929986
5.320267582
5.310096109
5.295111094
5.291686906
5.26887317
5.250754858
5.249442454
5.219758028
5.199217761
5.178340953
5.123457235
5.108239946
5.07893606
5.060705851
4.99745411
4.938838089
4.891143631
4.825714929
4.760591716
4.679305791
4.637099631
4.549911013
4.475978389
4.398552205
5.36894081
5.36299919
5.360353832
5.359521886
5.357442003
5.354540842
5.352789236
5.355172244
5.356907163
5.353422208
5.348250192
5.348238266
5.345390668
5.34091441
5.338782165
5.33828054
5.332330909
5.315656361
5.301050066
5.293908596
5.284277706
5.266843293
5.249426175
5.2313395
5.224552963
5.21662074
5.175989259
5.137149583
5.131642789
5.084978977
5.054640319
4.994696645
4.955133463
4.887156968
4.838494967
4.759568227
4.710511758
4.636979316
4.565813382
4.504987232
5.363050892
5.364705867
5.363301591
5.366806048
5.362228055
5.36009322
5.360580917
5.361271977
5.359790258
5.357290399
5.353414823
5.353297393
5.346281853
5.349947782
5.342404554
5.339392656
5.33410964
5.320764769
5.315366153
5.314019489
5.294742436
5.27815269
5.262331958
5.2545051
5.244664854
5.236070957
5.216706214
5.174610805
5.154556773
5.119890959
5.085554071
5.047598236
5.015045812
4.971605278
4.915357781
4.844005489
4.797992224
4.733789599
4.676771928
4.609184349
5.361346876
5.358670865
5.360623512
5.366452529
5.360782641
5.362174955
5.362652976
5.363292052
5.356847905
5.357084712
5.35973513
5.353197198
5.351776716
5.351487611
5.34798918
5.347580046
5.338479979
5.329423522
5.334105685
5.33206722
5.323358643
5.308767797
5.289667982
5.277357778
5.270267721
5.251045495
5.24062025
5.206573048
5.188464645
5.148424569
5.123430616
5.093858992
5.065417674
5.029546597
4.982642945
4.916287834
4.873548126
4.815948949
4.752412352
4.701905878
5.360851003
5.363285815
5.36150676
5.360883129
5.363923564
5.366904504
5.369898694
5.365019708
5.365575321
5.364091755
5.357906372
5.36345114
5.361195033
5.355357593
5.357441038
5.350748585
5.340958727
5.330683008
5.329776942
5.323598031
5.324633238
5.312544665
5.301669901
5.292787592
5.26953806
5.27322563
5.248355131
5.226356189
5.20109575
5.176598198
5.148570007
5.133335485
5.101594086
5.086657657
5.041712057
4.981825051
4.937761583
4.891702313
4.851537707
4.791855535
5.3663222
5.359222621
5.354281796
5.356166261
5.357989969
5.355364742
5.353730184
5.355817105
5.358425623
5.359850459
5.361816835
5.359585928
5.356603286
5.353629345
5.349710381
5.348124555
5.339565496
5.345189062
5.340723387
5.333332687
5.330558595
5.325518311
5.308308879
5.298242953
5.283521367
5.279429791
5.256117796
5.251147602
5.241401849
5.218702125
5.193220011
5.171353945
5.152788012
5.125770814
5.105549703
5.057797537
5.017218425
4.967254834
4.920847572
4.868520509
5.367790984
5.368510027
5.369982509
5.364708924
5.363369563
5.360604169
5.364255425
5.362697062
5.359194769
5.359530862
5.362040191
5.362032966
5.364523096
5.360199397
5.357035374
5.352255192
5.344591396
5.329552233
5.332419326
5.332304875
5.334983484
5.329593366
5.32925
5.320913762
5.308623977
5.302428696
5.290930958
5.268958968
5.264362463
5.23372382
5.226392995
5.20245183
5.185564581
5.162074541
5.151996446
5.10838182
5.07922752
5.037979566
5.0159883
4.962934102
0.9062001237
0.7841578539
0.7237550188
0.6872830852
0.6639066118
0.6533607387
0.6387009532
0.6327233058
0.6304617258
0.6270559829
0.619003126
0.611922738
0.6093713396
0.6086841518
0.6059041202
0.6066037751
0.6066105004
0.6049278502
0.6055577808
0.5998089299
0.5990050167
0.6044156383
0.6068207471