/*--------------------------------*- C++ -*----------------------------------*\
| =========                 |                                                 |
| \\      /  F ield         | OpenFOAM: The Open Source CFD Toolbox           |
|  \\    /   O peration     | Version:  v1706                                 |
|   \\  /    A nd           | Web:      www.OpenFOAM.com                      |
|    \\/     M anipulation  |                                                 |
\*---------------------------------------------------------------------------*/
FoamFile
{
    version     2.0;
    format      ascii;
    class       volScalarField;
    location    "0.004";
    object      mctTimeStepRatio_Ar;
}
// * * * * * * * * * * * * * * * * * * * * * * * * * * * * * * * * * * * * * //

dimensions      [0 0 0 0 0 0 0];


internalField   nonuniform List<scalar> 
4000
(
51.1122788
50.96687274
50.66869514
50.58739424
49.95307442
49.48922581
49.19236328
49.15795659
48.33090989
47.59231428
46.61704402
45.72800331
44.40106008
42.99292241
41.83200597
40.44206371
38.63075067
36.5823192
34.72954779
32.71822049
30.24234842
27.86690828
25.48796352
23.13522115
20.49906915
18.16164327
15.87416586
13.92373696
12.24859011
10.88670237
9.861250528
9.07322538
8.424469188
7.885241536
7.340868646
6.801892837
6.232642919
5.598006529
4.844517624
3.955341222
50.99932686
50.94132146
50.78924518
50.74520766
50.59392647
50.15732584
49.68660605
49.46787095
49.04870031
48.33509251
47.51176996
46.479471
45.57134025
44.34675842
42.74619181
41.50404261
39.83134709
37.95190548
36.05734821
33.76192083
31.44571008
29.04668231
26.52728609
23.94374202
21.30805278
18.71183269
16.39379255
14.30161418
12.57108221
11.17183937
10.10346326
9.219419046
8.540822497
7.983312619
7.427646477
6.85722903
6.278364038
5.613638315
4.858686404
3.96349777
51.16812495
51.06729745
50.95709216
50.61576405
50.4528782
50.19357002
49.99065292
49.56485987
48.99981882
48.42369749
47.59789385
46.63156779
45.65219173
44.50918823
43.23829575
41.88645345
40.3396658
38.48687382
36.56332048
34.20232408
32.01006825
29.52567539
26.9486152
24.3281144
21.60164594
18.9618199
16.63462855
14.45933261
12.74423955
11.30915443
10.18911542
9.304176483
8.591006223
8.010799284
7.466066789
6.889926802
6.286592257
5.626722082
4.87129709
3.968879934
51.14532595
51.02466908
50.90512209
50.84478317
50.58444204
50.22150833
49.84766527
49.52952529
49.10792043
48.4552607
47.67824178
46.79478282
45.68564458
44.54215044
43.48220683
42.04157917
40.56545448
38.83435347
36.80006335
34.51124333
32.27948735
29.90466104
27.27868421
24.48251308
21.90981537
19.25615141
16.80973149
14.69643403
12.8661995
11.36391187
10.22185512
9.353200541
8.649112365
8.044359749
7.473814466
6.909665363
6.301833321
5.640085253
4.885258702
3.981918821
51.16104382
50.9429656
50.73458817
50.46029901
50.34395645
50.20174677
49.93918356
49.59737058
49.11190946
48.34479874
47.69697101
46.88307243
46.04637293
44.97713542
43.80038728
42.39620513
40.66090366
38.91495753
36.70821163
34.67955256
32.50968384
30.10334623
27.38204996
24.68776613
21.98674146
19.43416443
16.95723402
14.78077374
12.92656916
11.43563591
10.28188387
9.416225199
8.70364991
8.075343341
7.514172304
6.952325192
6.317032946
5.643489106
4.893497722
3.979026004
51.24914764
51.06694278
50.99876526
50.83848417
50.65956035
50.51901742
50.23704481
49.71631713
49.13612295
48.58329982
47.96364031
47.05472074
46.14756792
45.00475384
43.92742543
42.44198808
40.78245749
39.08820911
36.97333902
34.7294376
32.61042759
30.13030133
27.54895163
24.84640435
22.14783349
19.56338909
17.143529
14.89265028
13.03787269
11.51241793
10.36689802
9.428285047
8.726303956
8.10670632
7.53336833
6.984234394
6.362367446
5.679448565
4.915241161
4.008875901
51.28228013
51.22177393
51.04841278
50.98522078
50.83623406
50.63567164
50.28125967
49.91933795
49.34579026
48.81287941
48.10560923
47.38023743
46.46500692
45.53016926
44.17260859
42.77969876
41.08582163
39.36519295
37.38627425
35.30078046
32.9915688
30.45770331
27.94881633
25.26422219
22.42112539
19.82297741
17.36228358
15.09933641
13.19928209
11.66333378
10.46719912
9.491160307
8.757964878
8.167443627
7.594402168
7.023861227
6.400429457
5.718543311
4.934494332
4.009770727
51.15384169
50.95962651
50.70797646
50.69316787
50.64022492
50.45236533
50.19897879
49.87702577
49.46593539
48.86042908
48.26313289
47.43794034
46.60157383
45.67397917
44.16342767
42.94262849
41.49152542
39.55417058
37.43677147
35.34147899
32.99582168
30.70229844
28.19976691
25.55322533
22.79911521
20.08772283
17.54674805
15.2999417
13.38696429
11.83581814
10.57698288
9.591779886
8.85304885
8.209655576
7.624197094
7.048970875
6.43915607
5.748842354
4.965932849
4.045915625
51.2277421
51.23178717
51.06372117
50.9810285
50.80061206
50.53060623
50.06273931
49.84004733
49.42964284
48.86442317
48.3453463
47.49089931
46.59268099
45.68166735
44.44536678
43.00016214
41.42768422
39.84565078
37.88347403
35.85817554
33.4536888
30.94881791
28.49559681
25.82912097
23.10456614
20.32540526
17.83287627
15.57959833
13.5883691
11.97976844
10.73396017
9.729877487
8.913404796
8.274309931
7.675169657
7.093742644
6.471134808
5.774020399
5.00032959
4.047285524
51.18138485
51.13643106
50.94773996
50.86070022
50.74933367
50.47690064
50.17830626
49.8512255
49.39359445
48.8694484
48.3224247
47.6464904
46.70790963
45.74366288
44.57666761
43.33435419
41.76090997
40.14800066
38.12453995
35.91690849
33.70266064
31.30856362
28.75294096
26.0867002
23.33660301
20.74447774
18.25393677
15.85494199
13.86649142
12.19108392
10.89673312
9.871864886
9.044716738
8.368789778
7.756248711
7.15968471
6.534310686
5.828305282
5.031528595
4.076067739
51.26994256
51.1125231
51.00801853
50.82049242
50.64194275
50.29128909
50.07564068
49.77201522
49.33328059
48.84772225
48.28596623
47.6462351
46.83788119
45.8020949
44.68871864
43.50942917
42.02874585
40.29567342
38.44456678
36.41385729
34.09651443
31.70409463
29.17078138
26.55183686
23.77811726
21.05214489
18.53786504
16.23356498
14.14388459
12.40982504
11.07752414
9.998026791
9.148617211
8.48463611
7.8465423
7.222489429
6.589774831
5.866555634
5.063208131
4.109669945
51.15199191
51.0526863
50.90987114
50.92211099
50.69451104
50.55045649
50.34334954
50.19711552
49.65817437
49.12653231
48.53638566
47.87044933
47.0972592
45.91184419
44.85637365
43.52199682
42.33745728
40.6194811
38.7141623
36.87138093
34.59773629
32.0710085
29.58709602
26.98866068
24.25919014
21.5553113
19.01975812
16.60643348
14.49965899
12.68022328
11.24955066
10.17419408
9.273475987
8.572686692
7.938664462
7.311818218
6.671703179
5.947314472
5.124986683
4.149809886
51.31297178
51.27220085
51.12934271
50.90988884
50.63199552
50.45411563
50.26116883
50.00008868
49.60142321
49.07046078
48.6184149
47.96811105
47.33799052
46.20558839
45.07204054
43.98770122
42.60999927
40.77257353
38.92739926
37.0590802
34.85256231
32.37085409
30.07275182
27.52251202
24.75583664
22.04095279
19.40538965
17.02114227
14.83609119
13.0132945
11.52319323
10.39775458
9.478930313
8.71667347
8.065931074
7.43259749
6.759738528
6.018833807
5.17534222
4.188245536
51.27610079
51.17912927
51.11387794
50.98762745
50.88086348
50.63456632
50.29268135
49.88661639
49.6294092
49.12107871
48.55600942
48.00416928
47.17294652
46.2860448
45.29318937
44.04988676
42.78260762
41.04057805
39.1932883
37.19490158
35.08190945
32.81152919
30.42410594
28.06222534
25.28701393
22.62936432
19.95873271
17.52119394
15.26898585
13.38098292
11.83357151
10.60197694
9.661221231
8.871263746
8.205307915
7.554009235
6.876931245
6.13611993
5.274991928
4.242250319
51.22046939
51.10905753
51.03207522
50.82072092
50.65056128
50.4949407
50.32815441
50.13592952
49.89974256
49.5022675
48.86739439
48.2840914
47.41179917
46.56310786
45.61751501
44.50140826
43.02513864
41.52509695
39.81730356
37.8554486
35.81335584
33.65292015
31.18746963
28.63279627
26.02473211
23.28050736
20.66380641
18.04585343
15.74005327
13.84700871
12.23004422
10.89572574
9.896882947
9.065723777
8.343814474
7.711728491
7.021008327
6.230535016
5.370430432
4.301917884
51.22385766
51.2617413
51.05324367
50.96336789
50.79908301
50.58696387
50.32760197
50.13314584
49.72475163
49.36279322
48.94355356
48.47084338
47.83227906
47.01687089
45.94554706
44.74983861
43.20702988
41.83125881
40.0257338
38.25371776
36.27182008
34.14281949
31.73546508
29.23116079
26.62837292
23.96832492
21.26853174
18.75971299
16.35203771
14.32399092
12.63133387
11.24653114
10.1743026
9.310143489
8.59101883
7.906865114
7.198383456
6.410716716
5.50591435
4.399548389
51.22770696
51.03956071
51.07202709
50.86491263
50.67046189
50.62139091
50.45744987
50.28566026
49.96707857
49.54685747
49.09049552
48.55500838
47.9676501
46.90558285
46.04807821
45.04004519
43.59326198
42.33683298
40.65306291
38.70291317
36.72153884
34.57664641
32.26183971
29.80116515
27.27010045
24.59010592
21.88466009
19.33625933
16.9412516
14.86213931
13.05735905
11.64238898
10.52945856
9.616189074
8.827182039
8.15693131
7.39866634
6.629126517
5.667818196
4.521987067
51.30703965
51.22106636
51.22561957
51.08333001
50.87511066
50.64702355
50.46939533
50.19451627
49.84615892
49.43177682
48.92718719
48.54048284
47.84211849
47.25905345
46.21408341
45.14305531
44.09299641
42.45728067
40.8640899
39.19084889
37.26732268
35.24848852
32.88239813
30.58086226
27.99074705
25.35633577
22.71053298
20.08679231
17.65472173
15.5015916
13.62737235
12.10818796
10.90583075
9.942144967
9.140077154
8.443665861
7.70800494
6.895947307
5.929583607
4.709158424
51.32629918
51.20208477
51.13410027
51.02395421
50.90784792
50.7948429
50.51313001
50.25284739
50.11162158
49.74916009
49.31515884
48.79314797
48.06147553
47.46671357
46.709662
45.57467991
44.39796717
43.07064407
41.49025932
39.78890414
37.90432764
35.70929082
33.63858678
31.22097318
28.6992043
26.20232093
23.5393547
20.90798935
18.44007098
16.17987894
14.33210047
12.65278331
11.37343719
10.34246875
9.512902112
8.807521175
8.09441478
7.309092001
6.361964005
5.029486127
51.27608875
51.24116685
51.22224218
51.1696756
51.07169523
50.87540799
50.58969542
50.33804785
50.19923195
49.78527896
49.28443533
49.00864638
48.36426891
47.53266974
46.85547365
45.87275008
44.70555094
43.40356261
42.00085628
40.3691847
38.49921827
36.65502994
34.46627527
32.09287256
29.68035441
27.18358852
24.3373813
21.75327709
19.25180417
16.99104695
14.99913103
13.26431369
11.90522729
10.81506488
9.964330777
9.269471036
8.633213836
7.946993688
7.159244095
5.849458344
51.37699256
51.35092866
51.25835553
51.08365052
50.93193186
50.85698568
50.67033667
50.55311107
50.33464916
50.15596648
49.70467279
49.30464625
48.79805072
47.98859028
47.07021145
46.1701307
45.07057723
43.97526938
42.65584552
40.92518107
39.10707536
37.30405199
35.18493718
32.95138936
30.53045126
28.03837055
25.31414964
22.58662876
20.09592334
17.85681994
15.70986224
13.95343669
12.56568211
11.40222742
10.52920944
9.855856976
9.281571601
8.804873887
8.565829061
9.392241376
51.28504984
51.23060196
51.2085743
51.0702309
50.97665266
50.9229822
50.81720968
50.66960584
50.39823817
50.0011469
49.73960971
49.4166764
48.82040074
48.14698252
47.37672027
46.48207269
45.44204993
44.25240662
43.0523714
41.48668778
39.74277377
38.0369388
35.828799
33.79511263
31.4708421
28.93112775
26.41425234
23.74071878
21.19738879
18.80856446
16.58662759
14.7558784
13.24694442
12.09406739
11.16518498
10.47885962
10.00974964
9.790056453
10.02334461
11.59325536
51.29944691
51.26777321
51.25277176
51.20188808
51.12563577
50.97453669
50.8069902
50.58893119
50.40682432
50.25480029
50.05429569
49.57352253
49.02041334
48.42620742
47.76280799
46.96429246
46.1709849
44.9975438
43.67151498
42.31661784
40.62228357
38.71976458
36.72257599
34.74334861
32.32275436
29.85377173
27.40976
24.81448138
22.2097198
19.78433084
17.56895734
15.62793038
14.06574769
12.76095433
11.86312041
11.20161628
10.81342112
10.73269859
11.15591328
12.57381095
51.36418463
51.21841815
51.16560889
51.0867105
51.14202132
51.04857413
50.86272067
50.76613789
50.45691187
50.17328491
49.95098849
49.55648114
49.11770995
48.54170335
47.88758875
47.14202056
46.39412727
45.25696496
44.15231509
42.6949552
41.1756523
39.24481886
37.55943249
35.5276286
33.25563992
30.87433508
28.34575073
25.9043077
23.30387443
20.87308082
18.66567598
16.66520312
14.96679288
13.6319125
12.60987254
11.93097132
11.54699431
11.5551747
12.04598905
13.21313593
51.32361237
51.34645446
51.27065621
51.07525385
50.92433412
50.88787649
50.87705151
50.79418422
50.60690391
50.25848579
50.00563781
49.83882755
49.33237599
48.75089905
48.0069859
47.250311
46.4389404
45.46900673
44.22398702
43.03921875
41.43061137
39.71842768
38.12497739
36.11049061
33.8948247
31.83749744
29.50080981
27.01347351
24.48438367
22.1503484
19.7883718
17.72026842
15.99800826
14.54748278
13.41200551
12.6911144
12.2888192
12.29483865
12.72079203
13.69880728
51.35619799
51.31864362
51.21378713
51.13095179
50.99279032
50.95970955
50.78634544
50.63352487
50.49462473
50.43497396
50.08181238
49.64942694
49.13982023
48.65103829
48.15616149
47.56032871
46.67514795
45.7829918
44.83171219
43.64350317
42.07106408
40.70603297
38.79539226
36.98705196
34.96277107
32.8856177
30.53618345
28.12710815
25.76721317
23.38174728
21.07310126
18.99713681
17.10443827
15.56207936
14.37176405
13.52141667
13.05749601
13.01414253
13.28973702
14.0743732
51.3324807
51.2062926
51.20254416
51.2994161
51.19011328
51.05019265
50.93906753
50.82374553
50.62454828
50.38102364
50.02077851
49.81571565
49.43299088
48.99628368
48.49234137
47.79664108
47.06692233
46.16749284
45.21783509
44.06417123
42.77142551
41.28926958
39.71655992
37.98448476
35.9306066
33.763797
31.60326358
29.3305003
27.0487622
24.70459799
22.41131928
20.29550236
18.25808219
16.69408927
15.38043684
14.42915949
13.84651239
13.65445616
13.90227481
14.39453271
51.44111358
51.38012016
51.25352625
51.04111665
50.90480604
50.83045564
50.84327681
50.72878035
50.64072444
50.40170026
50.26892321
50.09294463
49.69067144
49.16531295
48.63428401
48.16407481
47.48490001
46.71185368
45.83392264
44.76212591
43.52019458
42.00741119
40.52294664
38.91198414
36.99743562
34.83644656
32.86466583
30.6791998
28.39662053
26.15011897
23.89052117
21.69176456
19.69486697
17.95939579
16.50397761
15.384327
14.72016429
14.38215252
14.3897752
14.81868991
51.34451797
51.23019938
51.22488553
51.22791496
51.16792043
51.17176208
51.15005319
51.04075445
50.98554925
50.81346538
50.5795915
50.30493737
49.96910196
49.36081755
48.96542086
48.44097804
47.84082148
47.12233838
46.23369929
45.16589369
44.14250812
42.83046393
41.41507034
39.93957264
38.05240133
36.14559705
34.12198362
32.00876393
29.90741112
27.54595773
25.30118512
23.2042687
21.11009997
19.22592597
17.67406958
16.52806677
15.69784467
15.20224802
15.01023413
15.20233359
51.42518114
51.4781691
51.42864671
51.32471783
51.33885665
51.18027177
51.15342794
51.04965183
50.98056105
50.742526
50.45894232
50.26149951
50.0350316
49.72190826
49.19840562
48.79643925
48.19609249
47.60653721
46.82221609
45.8938498
44.88305151
43.60381067
42.32296128
40.80674922
39.03634123
37.2357789
35.276516
33.2812666
31.20572547
29.07076597
26.89696203
24.7377659
22.56895156
20.61336845
19.02674092
17.75374027
16.71608509
16.05972525
15.70494844
15.6449676
51.36648685
51.25006468
51.21581845
51.10104774
51.06954183
51.1451042
51.03746603
50.91384904
50.86805022
50.8265839
50.6439005
50.3777803
50.16176275
49.81332467
49.4137224
48.98430816
48.37165396
47.81284076
47.20957822
46.32516974
45.27793427
44.27451536
42.97832915
41.55070545
39.93815998
38.18466297
36.42705145
34.57167016
32.65846556
30.53991293
28.44191884
26.17674022
24.07732449
22.26679478
20.49840869
19.02873296
17.89805804
17.01682947
16.44963426
16.27795019
51.39089311
51.34561754
51.32295494
51.38385407
51.3549975
51.28295334
51.20379817
51.08093642
50.981724
50.7318618
50.48718267
50.32998804
50.16728365
49.94943055
49.68394165
49.28650567
48.67983127
48.16998769
47.2440821
46.49332063
45.61648386
44.50179928
43.47127489
42.33121239
40.78707705
39.34925805
37.55275281
35.8196084
33.85127504
31.81542699
29.82179916
27.72588673
25.67964788
23.6991219
21.98682442
20.34582388
19.16037453
18.11206049
17.42099645
17.04632755
51.39520203
51.31668537
51.28243887
51.24176554
51.20828567
51.14720463
51.06087231
51.0648615
50.96428922
50.81870602
50.82785778
50.52894738
50.31220564
50.1267025
49.80341335
49.3521761
49.01055281
48.49530724
47.83721405
47.19622109
46.29748852
45.33309636
44.19673876
42.90386709
41.54606923
40.21054413
38.61866902
37.0077574
35.03512785
33.19100501
31.2329336
29.1749795
27.24300547
25.27181751
23.56543247
21.83501662
20.49227853
19.38652169
18.45639467
17.88329426
51.40846798
51.43154129
51.45949127
51.38233327
51.4155394
51.44937615
51.43372491
51.36426399
51.20807127
51.09397638
50.88529133
50.66521081
50.56853911
50.35089491
49.96358376
49.6161876
49.28599447
48.68700514
47.958002
47.37804875
46.74597288
45.90870995
44.83160191
43.80113771
42.6185549
41.13496519
39.71547133
38.15676043
36.40772539
34.57322223
32.70461233
30.88926423
28.88977691
26.99108545
25.13317397
23.52415961
21.92200999
20.65623558
19.65241251
18.8306721
51.40099985
51.37128738
51.27665708
51.35972426
51.28971627
51.28376446
51.28746061
51.18884637
51.19918586
51.12628812
51.02749251
50.88111989
50.61512303
50.4010066
50.02258019
49.73487117
49.47096367
48.87735978
48.39256309
47.92047912
47.38221814
46.52242778
45.45831631
44.44419689
43.45789809
42.27529538
40.89721069
39.20442811
37.80714977
36.0528683
34.19593914
32.38449478
30.53165575
28.65275187
26.84066107
25.11546983
23.4991791
22.08498263
20.92315382
19.91809402
51.36781487
51.34751005
51.40138331
51.39932352
51.36110385
51.2817138
51.16820736
51.1169604
51.09980604
50.98151488
50.90501448
50.84380046
50.7448338
50.5114677
50.33565518
50.03297762
49.68925079
49.22766742
48.70320391
48.16731602
47.56507328
46.8424681
46.04328753
45.18916974
44.13908441
43.12605547
41.81539016
40.42384641
39.04415846
37.44204851
35.86544508
33.97700181
32.02250775
30.21051193
28.38102221
26.62731003
25.09802214
23.61948475
22.31909242
21.18301541
51.32813775
51.30814482
51.31023608
51.23293994
51.20344653
51.22162694
51.23082811
51.17710955
50.984006
50.92490754
50.86031871
50.76298308
50.63747675
50.44380383
50.19133897
50.03961101
49.85582527
49.32271282
48.93117772
48.61063566
48.09533397
47.30679513
46.69095749
45.98472077
44.99446347
43.84632273
42.67391829
41.2619224
39.9850149
38.57156444
36.964373
35.49836871
33.7240847
31.92735194
30.22602825
28.46897946
26.75649998
25.24383714
23.77811195
22.53491512
51.50253131
51.49483786
51.40981894
51.3743964
51.37752877
51.30936718
51.17672271
51.12517981
50.98664906
50.90203818
50.85661741
50.79967485
50.70464655
50.6170787
50.54231588
50.23101318
49.91387933
49.66303785
49.44344216
49.11556557
48.59309849
47.83940684
47.14484236
46.28105734
45.5915994
44.75926356
43.5990438
42.43031784
41.12074192
39.87284301
38.44904077
36.80438353
35.24020525
33.54372008
31.83577346
30.15266442
28.47286315
26.91311
25.39709327
24.03564585
51.45812949
51.3730868
51.33283467
51.24117015
51.28476692
51.32278849
51.19445784
51.17598045
51.17748442
51.13368122
50.99511727
50.89878979
50.90367163
50.74334331
50.64137286
50.33190766
50.19403548
49.82571723
49.46420789
49.07695712
48.69480594
48.15319344
47.66680766
46.87376678
46.11297874
45.4190872
44.43373397
43.30295544
42.11088195
40.89860955
39.5615257
38.21549679
36.73045369
35.11599822
33.46614478
31.96239634
30.26338778
28.72231097
27.18610574
25.69994262
51.33053942
51.26262861
51.30067571
51.37546004
51.36549106
51.37900405
51.35159262
51.36118027
51.37303729
51.31744895
51.36953548
51.19426364
51.05712114
50.97775589
50.75082559
50.50995485
50.28263156
50.22210134
49.83782925
49.55955741
49.11935221
48.695374
48.10877441
47.4522937
46.77252837
46.07948544
45.246487
44.29167522
43.24976858
42.13021868
40.89098919
39.47719566
38.15728278
36.57935463
35.01724981
33.48034203
31.93428987
30.39064485
28.90618334
27.51924076
51.41632069
51.45450187
51.51968313
51.40998717
51.47305781
51.52958144
51.45297732
51.42148837
51.40658196
51.35148168
51.22038851
51.13559171
51.1365288
51.01392399
50.86638184
50.78212079
50.6008267
50.2980606
49.99150882
49.65126163
49.21513714
48.83965554
48.51671106
48.00316078
47.31868285
46.63807999
45.78580616
44.89202995
43.95899816
43.03960127
41.85048263
40.43469925
39.23285924
37.90068401
36.59485701
35.12319045
33.54266117
32.00701466
30.61338974
29.12164688
51.48892262
51.54742518
51.50464902
51.4673384
51.37988371
51.222768
51.28835979
51.17941439
51.06024422
50.94023996
50.87255641
50.81969746
50.76145354
50.71197954
50.56498331
50.57683722
50.38683639
50.19251412
50.10666289
49.97129646
49.65150949
49.36387158
48.9444321
48.39485723
47.90406801
47.25737281
46.53239184
45.74296938
45.04972601
43.98921664
42.97609597
41.69626357
40.61118225
39.34074347
37.96373125
36.45209691
35.11793415
33.5386118
32.24163185
30.79691433
51.45791148
51.36851963
51.30249646
51.31715349
51.22628395
51.24465719
51.16927806
51.16766532
51.22901552
51.18571358
51.12508966
51.05576733
50.95809402
50.81923909
50.72434619
50.60757508
50.41094543
50.23961488
50.11308321
49.87268921
49.62100361
49.43669192
49.03996756
48.6872009
48.1760936
47.69891147
46.93123324
46.4487356
45.53622025
44.78107885
43.89820506
42.76383281
41.59859059
40.47898886
39.38014773
38.01207287
36.6598511
35.2756489
33.88991096
32.49462498
51.38131472
51.41528188
51.46516722
51.44144056
51.41275155
51.43895114
51.42207533
51.34932576
51.3598481
51.27976529
51.2032679
51.13886885
51.07377808
50.9688664
50.91701369
50.66924913
50.62929004
50.5684511
50.2661489
50.05737717
49.87224107
49.59354865
49.22959676
48.93897097
48.39094062
48.01950598
47.31394607
46.76201672
46.06116905
45.35398945
44.65001044
43.73369957
42.7738203
41.66815925
40.44405513
39.46941748
38.16410439
36.95438732
35.67038319
34.26665314
51.45448651
51.42040293
51.37919435
51.27021465
51.30370012
51.30219964
51.27551729
51.17334624
51.2311602
51.3139711
51.23698858
51.27226627
51.21683194
51.14588675
51.10364851
51.07819379
50.83289453
50.66626015
50.50848633
50.30764325
50.09204775
49.92665747
49.54301088
49.23913103
48.8000115
48.41709452
47.8270087
47.27243519
46.72634411
46.02472677
45.38699063
44.52027194
43.68209249
42.75466833
41.75705326
40.77575369
39.62006374
38.39502072
37.09815411
35.88584055
51.43944466
51.39577328
51.34999766
51.33854712
51.34159121
51.26155086
51.32727118
51.34704616
51.20073964
51.12222748
51.05509934
51.0051592
50.93533355
50.94461211
50.94177496
50.93664216
50.88132793
50.77026624
50.60379317
50.49808382
50.31676928
50.14772023
49.85124438
49.68249983
49.25245067
49.13623882
48.6375495
48.08679515
47.51305418
47.00213631
46.16818156
45.34455507
44.62297747
43.737716
42.78499104
41.80267143
40.70592483
39.53609569
38.4411723
37.36356982
51.44501366
51.43714236
51.49674901
51.47085226
51.40886246
51.41704972
51.38817057
51.37664376
51.41984328
51.38869422
51.45671178
51.50823945
51.44886998
51.35685708
51.21395491
51.06243738
50.90437824
50.77454285
50.73765563
50.58373229
50.31571009
50.1514823
49.96865609
49.86436931
49.54193278
49.10512682
48.73431709
48.27177522
47.94129481
47.4253057
46.79752165
46.19800015
45.44256992
44.65522226
43.75142797
43.00993479
42.02567176
40.95673432
39.8431379
38.73778581
51.50153073
51.51689678
51.50126079
51.56486002
51.53973581
51.49092715
51.52994452
51.45254669
51.37816432
51.42466115
51.4156522
51.29283659
51.23685398
51.22303476
51.16706889
50.94317643
50.8348355
50.77353507
50.86730253
50.61431534
50.47948793
50.20151446
50.08136457
49.92666699
49.56101747
49.35619613
49.16883063
48.67714813
48.2381996
47.81990534
47.38137844
46.76253596
46.05549668
45.44249167
44.73388509
44.00191335
43.1302036
42.29778992
41.15698056
40.0718715
51.38954532
51.41863956
51.36908788
51.3860072
51.36432565
51.41636074
51.43589429
51.54778617
51.42924457
51.38128592
51.3617133
51.31388016
51.23021027
51.11699237
51.12058605
51.16696487
51.21949655
51.20721748
50.98944597
50.94905877
50.80886732
50.63981327
50.47256313
50.26777962
50.12982282
49.91077221
49.65982547
49.26464581
48.9880713
48.41061527
47.86282799
47.43371576
47.02696954
46.25178855
45.60105575
44.87338809
44.15422492
43.24231733
42.28694331
41.44732233
51.41210179
51.46472665
51.45773079
51.40680681
51.41091842
51.36288506
51.32773808
51.21859253
51.22519667
51.22557874
51.23763758
51.26727693
51.24612427
51.29612944
51.28878606
51.17740099
51.17873763
51.00354763
51.05773294
50.9319426
50.91327078
50.70820047
50.64621214
50.52939591
50.26081248
49.99398326
49.76695073
49.32517791
48.94101205
48.61434551
48.27168453
47.79588485
47.37009813
46.77509971
46.27818739
45.61061557
44.8690236
44.19410036
43.3871526
42.62148262
51.40242256
51.38125514
51.33481284
51.33043642
51.30545853
51.32376496
51.37358536
51.39273448
51.43774545
51.49180453
51.3760603
51.31478945
51.2492149
51.19884614
51.10986694
51.1135865
50.99190211
50.87017262
50.84138792
50.77098715
50.72329122
50.72292284
50.64082244
50.4740521
50.27268062
50.09266369
49.92657975
49.68370387
49.30309075
48.94717788
48.660326
48.23605741
47.91287499
47.40329723
46.96749997
46.34350469
45.79935168
45.23486454
44.38982383
43.64453078
51.48113247
51.45468558
51.47228559
51.52946971
51.54478389
51.59768467
51.55654447
51.48595822
51.41888809
51.35462332
51.42500098
51.30630836
51.34016274
51.31002729
51.28808891
51.24045825
51.15387428
51.14286446
51.13484678
51.04582033
50.96954183
50.81387047
50.6498085
50.60511173
50.54974483
50.44043962
50.22303975
49.89146345
49.77670432
49.49118031
49.07856854
48.78749931
48.36521367
47.96607245
47.49172451
47.01516557
46.43628544
45.92335652
45.30834825
44.73913267
51.50642026
51.56046991
51.52402122
51.45372706
51.44208538
51.45745439
51.44330141
51.4479462
51.46171271
51.493065
51.42043248
51.44027312
51.4167269
51.37068646
51.35348922
51.40603413
51.34575828
51.22575873
51.12978206
51.07254414
50.99422732
50.85999921
50.77158497
50.67994827
50.56829793
50.47219096
50.28497931
50.12298964
49.9933754
49.78760743
49.38460719
49.21296054
48.92783072
48.65753114
48.25534557
47.82908986
47.39658272
46.83501512
46.16054329
45.46320769
51.50033853
51.47078349
51.50864425
51.57898244
51.49573339
51.45802227
51.42424859
51.32972074
51.30496043
51.30475079
51.3467883
51.31860254
51.24391114
51.23008349
51.24586989
51.2157604
51.18712785
51.11645506
51.10490906
51.04729862
51.00779224
50.99600815
50.99857956
50.81114805
50.71189475
50.52150423
50.22784212
50.20381299
50.04912519
49.95369295
49.68675521
49.43991224
49.19914074
48.84085748
48.49994046
48.03640431
47.75959011
47.22636407
46.81034639
46.39188705
51.4327389
51.39094864
51.38449393
51.34801865
51.37902669
51.39484185
51.34021676
51.36222774
51.4239057
51.42850963
51.34407986
51.26231079
51.35998357
51.36335522
51.36025342
51.31408895
51.24309479
51.14714646
51.08102105
51.07776576
50.98790616
50.9122029
50.78799113
50.77958554
50.79794332
50.81292078
50.62461904
50.42653497
50.33926638
50.12128592
50.03530986
49.6804699
49.46188067
49.08121994
48.72041787
48.35194914
48.14350457
47.80339892
47.40853973
47.00655524
51.47835793
51.51709085
51.5191013
51.45211109
51.39536441
51.35967367
51.38164309
51.42448645
51.36720406
51.40874406
51.40431126
51.47825815
51.39874712
51.41129447
51.32929921
51.31712231
51.27840124
51.28021162
51.19768449
51.16676058
51.07815102
50.98898512
50.96809194
50.94449523
50.94197563
50.92209106
50.82165558
50.60901153
50.53125927
50.36986539
50.12226856
49.93991352
49.77347864
49.55107918
49.31392375
48.96363366
48.66634976
48.32234725
47.90931852
47.43931492
51.39597656
51.35114498
51.34496582
51.42977714
51.4891347
51.50117782
51.5624719
51.56358916
51.49424863
51.41212497
51.40134024
51.37985809
51.34311258
51.35945056
51.31831567
51.31362562
51.28043196
51.2282498
51.32520455
51.3899416
51.35542212
51.31525528
51.20754771
51.04832179
50.9623571
50.82929001
50.8545296
50.76658002
50.66115354
50.47314984
50.31170382
50.12119062
50.00252937
49.86634228
49.60623707
49.23025984
49.05371536
48.70545794
48.34572605
48.12341473
51.40496118
51.4614455
51.43914989
51.44885789
51.42924596
51.4340828
51.39501485
51.37912729
51.35827801
51.4160997
51.37613214
51.43021963
51.44624921
51.44050311
51.50950836
51.57373518
51.58887649
51.53975354
51.4728678
51.45105034
51.37967034
51.31890931
51.25148191
51.22815465
51.14536551
51.12773477
51.00543554
50.79552993
50.68682495
50.59355787
50.53471224
50.46536242
50.31703804
50.25992841
50.02683894
49.66916953
49.39363216
49.19105891
49.02556004
48.62840303
51.46371357
51.38602174
51.28479143
51.30558082
51.34564206
51.29170692
51.38218281
51.42071352
51.45679685
51.54542016
51.5901242
51.55402744
51.51825469
51.48990823
51.42891351
51.38164417
51.36876548
51.4217251
51.42978181
51.28679766
51.29350423
51.27600122
51.17447694
51.08076377
50.99588302
51.03468751
50.95535432
51.0286938
51.04738777
50.90909413
50.75466826
50.69394362
50.58045064
50.41409853
50.25752166
49.96726828
49.7242209
49.46644486
49.13278851
48.8895361
51.52523299
51.57420818
51.65821875
51.59983758
51.53198553
51.47874231
51.44335681
51.44170559
51.45522771
51.39881314
51.3637065
51.40149469
51.40717845
51.39614477
51.33138012
51.33038421
51.24858235
51.15398601
51.1744456
51.2067455
51.27706323
51.2025802
51.23811102
51.25086039
51.23290035
51.15373956
51.06224118
50.8698179
50.7843288
50.69722431
50.64728051
50.54006233
50.47714904
50.35532924
50.35838455
50.22795766
50.09904093
49.84388634
49.756751
49.43823787
19.97385915
29.65965476
33.72379092
35.98641802
37.65690661
39.02970394
40.07921941
41.30586676
42.27999664
43.27806354
43.88645854
44.53991714
45.67219272
46.5800161
47.31063609
47.89375716
48.80228564
49.32797785
49.74167509
49.97043472
51.00067599
52.57053449
53.37761418
53.82229554
54.03346668
54.66815213
55.35935738
56.62476827
57.18597492
58.07986224
58.76632858
59.44981235
60.26705312
61.6073111
63.05196642
64.70674409
65.91018298
67.91256265
72.2264187
81.66590984
16.08977958
22.50647126
27.99068194
31.7185827
34.40297692
36.38805675
38.28321186
39.66685589
40.92650875
42.05756389
43.18298174