/*--------------------------------*- C++ -*----------------------------------*\
| =========                 |                                                 |
| \\      /  F ield         | OpenFOAM: The Open Source CFD Toolbox           |
|  \\    /   O peration     | Version:  v1706                                 |
|   \\  /    A nd           | Web:      www.OpenFOAM.com                      |
|    \\/     M anipulation  |                                                 |
\*---------------------------------------------------------------------------*/
FoamFile
{
    version     2.0;
    format      ascii;
    class       volScalarField;
    location    "0.004";
    object      meanCollisionTime_Ar;
}
// * * * * * * * * * * * * * * * * * * * * * * * * * * * * * * * * * * * * * //

dimensions      [0 0 1 0 0 0 0];


internalField   nonuniform List<scalar> 
4000
(
4.088982304e-06
4.077349819e-06
4.053495612e-06
4.04699154e-06
3.996245953e-06
3.959138065e-06
3.935389063e-06
3.932636527e-06
3.866472791e-06
3.807385142e-06
3.729363521e-06
3.658240265e-06
3.552084806e-06
3.439433793e-06
3.346560477e-06
3.235365097e-06
3.090460054e-06
2.926585536e-06
2.778363823e-06
2.61745764e-06
2.419387873e-06
2.229352662e-06
2.039037081e-06
1.850817692e-06
1.639925532e-06
1.452931461e-06
1.269933268e-06
1.113898957e-06
9.798872085e-07
8.709361896e-07
7.889000423e-07
7.258580304e-07
6.739575351e-07
6.308193228e-07
5.872694916e-07
5.441514269e-07
4.986114335e-07
4.478405223e-07
3.875614099e-07
3.164272978e-07
4.079946149e-06
4.075305717e-06
4.063139614e-06
4.059616612e-06
4.047514118e-06
4.012586067e-06
3.974928484e-06
3.957429676e-06
3.923896025e-06
3.866807401e-06
3.800941597e-06
3.71835768e-06
3.64570722e-06
3.547740673e-06
3.419695345e-06
3.320323409e-06
3.186507767e-06
3.036152439e-06
2.884587857e-06
2.700953666e-06
2.515656807e-06
2.323734585e-06
2.122182887e-06
1.915499361e-06
1.704644222e-06
1.496946615e-06
1.311503404e-06
1.144129135e-06
1.005686576e-06
8.937471499e-07
8.082770607e-07
7.375535237e-07
6.832657998e-07
6.386650096e-07
5.942117182e-07
5.485783224e-07
5.022691231e-07
4.490910652e-07
3.886949123e-07
3.170798216e-07
4.093449996e-06
4.085383796e-06
4.076567372e-06
4.049261124e-06
4.036230256e-06
4.015485602e-06
3.999252234e-06
3.965188789e-06
3.919985506e-06
3.873895799e-06
3.807831508e-06
3.730525423e-06
3.652175338e-06
3.560735059e-06
3.45906366e-06
3.350916276e-06
3.227173264e-06
3.078949905e-06
2.925065638e-06
2.736185927e-06
2.56080546e-06
2.362054031e-06
2.155889216e-06
1.946249152e-06
1.728131675e-06
1.516945592e-06
1.330770284e-06
1.156746609e-06
1.019539164e-06
9.047323548e-07
8.151292338e-07
7.443341186e-07
6.872804978e-07
6.408639427e-07
5.972853431e-07
5.511941442e-07
5.029273805e-07
4.501377665e-07
3.897037672e-07
3.175103948e-07
4.091626076e-06
4.081973526e-06
4.072409767e-06
4.067582654e-06
4.046755363e-06
4.017720666e-06
3.987813221e-06
3.962362023e-06
3.928633635e-06
3.876420856e-06
3.814259342e-06
3.743582625e-06
3.654851566e-06
3.563372035e-06
3.478576546e-06
3.363326333e-06
3.245236358e-06
3.106748277e-06
2.944005068e-06
2.760899466e-06
2.582358988e-06
2.392372883e-06
2.182294737e-06
1.958601047e-06
1.752785229e-06
1.540492113e-06
1.344778519e-06
1.175714722e-06
1.02929596e-06
9.091129496e-07
8.177484096e-07
7.482560433e-07
6.919289892e-07
6.435487799e-07
5.979051573e-07
5.52773229e-07
5.041466656e-07
4.512068203e-07
3.908206962e-07
3.185535057e-07
4.092883506e-06
4.075437248e-06
4.058767054e-06
4.036823921e-06
4.027516516e-06
4.016139742e-06
3.995134685e-06
3.967789646e-06
3.928952757e-06
3.867583899e-06
3.815757681e-06
3.750645794e-06
3.683709834e-06
3.598170834e-06
3.504030982e-06
3.39169641e-06
3.252872293e-06
3.113196603e-06
2.93665693e-06
2.774364205e-06
2.600774708e-06
2.408267698e-06
2.190563997e-06
1.97502129e-06
1.758939317e-06
1.554733155e-06
1.356578722e-06
1.182461899e-06
1.034125533e-06
9.148508726e-07
8.225507097e-07
7.532980159e-07
6.962919928e-07
6.460274672e-07
6.011337843e-07
5.561860154e-07
5.053626357e-07
4.514791285e-07
3.914798178e-07
3.183220803e-07
4.099931811e-06
4.085355422e-06
4.079901221e-06
4.067078734e-06
4.052764828e-06
4.041521393e-06
4.018963585e-06
3.977305371e-06
3.930889836e-06
3.886663986e-06
3.837091225e-06
3.76437766e-06
3.691805433e-06
3.600380307e-06
3.514194035e-06
3.395359047e-06
3.262596599e-06
3.127056728e-06
2.957867122e-06
2.778355008e-06
2.608834207e-06
2.410424106e-06
2.20391613e-06
1.987712348e-06
1.771826679e-06
1.565071127e-06
1.37148232e-06
1.191412023e-06
1.043029816e-06
9.209934345e-07
8.293518417e-07
7.542628037e-07
6.981043165e-07
6.485365056e-07
6.026694664e-07
5.587387515e-07
5.089893957e-07
4.543558852e-07
3.932192929e-07
3.207100721e-07
4.10258241e-06
4.097741914e-06
4.083873022e-06
4.078817663e-06
4.066898725e-06
4.050853731e-06
4.022500774e-06
3.993547036e-06
3.947663221e-06
3.905030353e-06
3.848448739e-06
3.790418995e-06
3.717200553e-06
3.642413541e-06
3.533808687e-06
3.422375901e-06
3.28686573e-06
3.149215436e-06
2.99090194e-06
2.824062437e-06
2.639325504e-06
2.436616265e-06
2.235905306e-06
2.021137775e-06
1.793690032e-06
1.585838193e-06
1.388982686e-06
1.207946913e-06
1.055942568e-06
9.330667025e-07
8.373759297e-07
7.592928246e-07
7.006371903e-07
6.533954902e-07
6.075521734e-07
5.619088981e-07
5.120343566e-07
4.574834648e-07
3.947595465e-07
3.207816582e-07
4.092307336e-06
4.076770121e-06
4.056638117e-06
4.05545343e-06
4.051217994e-06
4.036189226e-06
4.015918304e-06
3.990162062e-06
3.957274831e-06
3.908834326e-06
3.861050632e-06
3.795035227e-06
3.728125906e-06
3.653918333e-06
3.533074214e-06
3.435410279e-06
3.319322034e-06
3.164333646e-06
2.994941718e-06
2.827318319e-06
2.639665735e-06
2.456183875e-06
2.255981353e-06
2.044258026e-06
1.823929217e-06
1.607017826e-06
1.403739844e-06
1.223995336e-06
1.070957143e-06
9.468654512e-07
8.461586307e-07
7.673423909e-07
7.08243908e-07
6.567724461e-07
6.099357676e-07
5.6391767e-07
5.151324856e-07
4.599073884e-07
3.972746279e-07
3.2367325e-07
4.098219368e-06
4.098542973e-06
4.085097694e-06
4.07848228e-06
4.064048965e-06
4.042448498e-06
4.005019145e-06
3.987203786e-06
3.954371427e-06
3.909153854e-06
3.867627704e-06
3.799271945e-06
3.727414479e-06
3.654533388e-06
3.555629342e-06
3.440012971e-06
3.314214737e-06
3.187652063e-06
3.030677923e-06
2.868654043e-06
2.676295104e-06
2.475905433e-06
2.279647745e-06
2.066329677e-06
1.848365291e-06
1.626032421e-06
1.426630101e-06
1.246367866e-06
1.087069528e-06
9.583814751e-07
8.587168136e-07
7.78390199e-07
7.130723837e-07
6.619447945e-07
6.140135726e-07
5.674994115e-07
5.176907847e-07
4.619216319e-07
4.000263672e-07
3.237828419e-07
4.094510788e-06
4.090914485e-06
4.075819197e-06
4.068856018e-06
4.059946694e-06
4.038152051e-06
4.014264501e-06
3.98809804e-06
3.951487556e-06
3.909555872e-06
3.865793976e-06
3.811719232e-06
3.736632771e-06
3.65949303e-06
3.566133408e-06
3.466748335e-06
3.340872798e-06
3.211840053e-06
3.049963196e-06
2.873352679e-06
2.696212851e-06
2.50468509e-06
2.300235277e-06
2.086936016e-06
1.86692824e-06
1.659558219e-06
1.460314942e-06
1.268395359e-06
1.109319314e-06
9.75286714e-07
8.717386496e-07
7.897491909e-07
7.23577339e-07
6.695031822e-07
6.204998969e-07
5.727747768e-07
5.227448549e-07
4.662644226e-07
4.025222876e-07
3.260854191e-07
4.101595405e-06
4.089001848e-06
4.080641483e-06
4.065639393e-06
4.05135542e-06
4.023303127e-06
4.006051254e-06
3.981761217e-06
3.946662447e-06
3.90781778e-06
3.862877298e-06
3.811698808e-06
3.747030495e-06
3.664167592e-06
3.575097492e-06
3.480754334e-06
3.362299668e-06
3.223653874e-06
3.075565342e-06
2.913108583e-06
2.727721155e-06
2.53632757e-06
2.33366251e-06
2.124146949e-06
1.902249381e-06
1.684171591e-06
1.483029203e-06
1.298685199e-06
1.131510767e-06
9.927860032e-07
8.862019312e-07
7.998421433e-07
7.318893769e-07
6.787708888e-07
6.27723384e-07
5.777991543e-07
5.271819865e-07
4.693244507e-07
4.050566505e-07
3.287735956e-07
4.092159353e-06
4.084214904e-06
4.072789691e-06
4.073768879e-06
4.055560883e-06
4.044036519e-06
4.027467964e-06
4.015769242e-06
3.97265395e-06
3.930122585e-06
3.882910853e-06
3.829635947e-06
3.767780736e-06
3.672947535e-06
3.588509892e-06
3.481759746e-06
3.386996583e-06
3.249558488e-06
3.097132984e-06
2.949710474e-06
2.767818903e-06
2.56568068e-06
2.366967681e-06
2.159092854e-06
1.940735211e-06
1.724424904e-06
1.52158065e-06
1.328514678e-06
1.15997272e-06
1.014417863e-06
8.999640532e-07
8.139355263e-07
7.41878079e-07
6.858149354e-07
6.350931569e-07
5.849454574e-07
5.337362543e-07
4.757851578e-07
4.099989346e-07
3.319847909e-07
4.105037742e-06
4.101776068e-06
4.090347417e-06
4.072791107e-06
4.050559641e-06
4.036329251e-06
4.020893506e-06
4.000007094e-06
3.968113857e-06
3.925636862e-06
3.889473192e-06
3.837448884e-06
3.787039241e-06
3.696447071e-06
3.605763243e-06
3.519016098e-06
3.408799942e-06
3.261805883e-06
3.114191941e-06
2.964726416e-06
2.788204985e-06
2.589668327e-06
2.405820145e-06
2.201800962e-06
1.980466931e-06
1.763276224e-06
1.552431172e-06
1.361691381e-06
1.186887295e-06
1.04106356e-06
9.218554581e-07
8.318203666e-07
7.58314425e-07
6.973338776e-07
6.452744859e-07
5.946077992e-07
5.407790822e-07
4.815067045e-07
4.140273776e-07
3.350596428e-07
4.102088063e-06
4.094330342e-06
4.089110235e-06
4.079010196e-06
4.070469078e-06
4.050765306e-06
4.023414508e-06
3.990929311e-06
3.970352736e-06
3.929686296e-06
3.884480753e-06
3.840333542e-06
3.773835722e-06
3.702883584e-06
3.623455149e-06
3.523990941e-06
3.42260861e-06
3.283246244e-06
3.135463064e-06
2.975592127e-06
2.806552756e-06
2.624922335e-06
2.433928475e-06
2.244978027e-06
2.022961114e-06
1.810349145e-06
1.596698617e-06
1.401695515e-06
1.221518868e-06
1.070478634e-06
9.466857207e-07
8.481581549e-07
7.728976984e-07
7.097010997e-07
6.564246332e-07
6.043207388e-07
5.501544996e-07
4.908895944e-07
4.219993543e-07
3.393800255e-07
4.097637551e-06
4.088724603e-06
4.082566017e-06
4.065657674e-06
4.052044903e-06
4.039595256e-06
4.026252353e-06
4.010874362e-06
3.991979404e-06
3.9601814e-06
3.909391551e-06
3.862727312e-06
3.792943934e-06
3.725048629e-06
3.649401201e-06
3.560112661e-06
3.442011091e-06
3.322007756e-06
3.185384285e-06
3.028435888e-06
2.865068467e-06
2.692233612e-06
2.494997571e-06
2.290623702e-06
2.081978569e-06
1.862440589e-06
1.653104512e-06
1.443668274e-06
1.259204261e-06
1.107760697e-06
9.784035377e-07
8.716580595e-07
7.917506357e-07
7.252579022e-07
6.675051579e-07
6.169382793e-07
5.616806661e-07
4.984428013e-07
4.296344346e-07
3.441534308e-07
4.097908613e-06
4.100939304e-06
4.084259493e-06
4.077069431e-06
4.063926641e-06
4.04695711e-06
4.026208157e-06
4.010651667e-06
3.97798013e-06
3.949023457e-06
3.915484285e-06
3.87766747e-06
3.826582325e-06
3.761349671e-06
3.675643765e-06
3.579987089e-06
3.45656239e-06
3.346500705e-06
3.202058704e-06
3.06029742e-06
2.901745606e-06
2.731425559e-06
2.538837206e-06
2.338492863e-06
2.130269834e-06
1.917465993e-06
1.70148254e-06
1.500777039e-06
1.308163017e-06
1.145919273e-06
1.01050671e-06
8.997224911e-07
8.139442082e-07
7.448114791e-07
6.872815064e-07
6.325492091e-07
5.758706765e-07
5.128573373e-07
4.40473148e-07
3.519638711e-07
4.098216557e-06
4.083164856e-06
4.085762167e-06
4.069193011e-06
4.053636951e-06
4.049711273e-06
4.03659599e-06
4.022852821e-06
3.997366286e-06
3.963748598e-06
3.927239642e-06
3.88440067e-06
3.837412008e-06
3.752446628e-06
3.683846257e-06
3.603203615e-06
3.487460958e-06
3.386946638e-06
3.252245033e-06
3.096233054e-06
2.937723107e-06
2.766131713e-06
2.580947177e-06
2.384093212e-06
2.181608036e-06
1.967208473e-06
1.750772807e-06
1.546900746e-06
1.355300128e-06
1.188971145e-06
1.044588724e-06
9.313911184e-07
8.423566852e-07
7.692951259e-07
7.061745631e-07
6.525545048e-07
5.918933072e-07
5.303301214e-07
4.534254557e-07
3.617589653e-07
4.104563172e-06
4.097685309e-06
4.098049565e-06
4.086666401e-06
4.070008853e-06
4.051761884e-06
4.037551627e-06
4.015561301e-06
3.987692714e-06
3.954542145e-06
3.914174975e-06
3.883238627e-06
3.827369479e-06
3.780724276e-06
3.697126673e-06
3.611444425e-06
3.527439713e-06
3.396582454e-06
3.269127192e-06
3.135267911e-06
2.981385815e-06
2.819879082e-06
2.63059185e-06
2.446468981e-06
2.239259764e-06
2.028506861e-06
1.816842639e-06
1.606943385e-06
1.412377738e-06
1.240127328e-06
1.090189788e-06
9.686550371e-07
8.7246646e-07
7.953715974e-07
7.312061724e-07
6.754932689e-07
6.166403952e-07
5.516757846e-07
4.743666886e-07
3.767326739e-07
4.106103935e-06
4.096166782e-06
4.090728022e-06
4.081916337e-06
4.072627834e-06
4.063587432e-06
4.041050401e-06
4.020227791e-06
4.008929726e-06
3.979932807e-06
3.945212707e-06
3.903451838e-06
3.844918042e-06
3.797337085e-06
3.73677296e-06
3.645974393e-06
3.551837373e-06
3.445651525e-06
3.319220745e-06
3.183112331e-06
3.032346211e-06
2.856743266e-06
2.691086942e-06
2.497677854e-06
2.295936344e-06
2.096185674e-06
1.883148376e-06
1.672639148e-06
1.475205678e-06
1.294390315e-06
1.146568038e-06
1.012222665e-06
9.098749754e-07
8.273974996e-07
7.610321689e-07
7.04601694e-07
6.475531824e-07
5.847273601e-07
5.089571204e-07
4.023588901e-07
4.1020871e-06
4.099293348e-06
4.097779375e-06
4.093574048e-06
4.085735618e-06
4.070032639e-06
4.047175633e-06
4.027043828e-06
4.015938556e-06
3.982822317e-06
3.942754826e-06
3.92069171e-06
3.869141512e-06
3.802613579e-06
3.748437892e-06
3.669820006e-06
3.576444075e-06
3.472285009e-06
3.360068503e-06
3.229534776e-06
3.079937462e-06
2.932402395e-06
2.757302022e-06
2.567429805e-06
2.374428353e-06
2.174687081e-06
1.946990504e-06
1.740262167e-06
1.540144334e-06
1.359283756e-06
1.199930482e-06
1.061145095e-06
9.524181829e-07
8.652051908e-07
7.971464622e-07
7.415576829e-07
6.906571069e-07
6.35759495e-07
5.727395276e-07
4.679566675e-07
4.110159405e-06
4.108074293e-06
4.100668442e-06
4.086692041e-06
4.074554549e-06
4.068558854e-06
4.053626934e-06
4.044248886e-06
4.026771932e-06
4.012477318e-06
3.976373823e-06
3.9443717e-06
3.903844058e-06
3.839087222e-06
3.765616916e-06
3.693610456e-06
3.605646178e-06
3.51802155e-06
3.412467642e-06
3.274014486e-06
3.128566029e-06
2.984324159e-06
2.814794975e-06
2.636111149e-06
2.442436101e-06
2.243069644e-06
2.025131971e-06
1.806930301e-06
1.607673867e-06
1.428545595e-06
1.256788979e-06
1.116274935e-06
1.005254569e-06
9.121781939e-07
8.423367548e-07
7.884685581e-07
7.425257281e-07
7.043899109e-07
6.852663249e-07
7.5137931e-07
4.102803987e-06
4.098448157e-06
4.096685944e-06
4.085618472e-06
4.078132213e-06
4.073838576e-06
4.065376775e-06
4.053568467e-06
4.031859054e-06
4.000091752e-06
3.979168777e-06
3.953334112e-06
3.90563206e-06
3.851758602e-06
3.790137622e-06
3.718565815e-06
3.635363994e-06
3.54019253e-06
3.444189712e-06
3.318935022e-06
3.179421902e-06
3.042955104e-06
2.86630392e-06
2.70360901e-06
2.517667368e-06
2.31449022e-06
2.113140187e-06
1.899257502e-06
1.695791103e-06
1.504685156e-06
1.326930207e-06
1.180470272e-06
1.059755553e-06
9.67525391e-07
8.932147984e-07
8.383087696e-07
8.007799708e-07
7.832045162e-07
8.018675688e-07
9.274604292e-07
4.103955753e-06
4.101421857e-06
4.100221741e-06
4.096151046e-06
4.090050862e-06
4.077962935e-06
4.064559216e-06
4.047114495e-06
4.032545945e-06
4.020384023e-06
4.004343655e-06
3.965881802e-06
3.921633067e-06
3.874096594e-06
3.821024639e-06
3.757143397e-06
3.693678792e-06
3.599803504e-06
3.493721198e-06
3.385329427e-06
3.249782686e-06
3.097581167e-06
2.93780608e-06
2.779467889e-06
2.585820349e-06
2.388301739e-06
2.1927808e-06
1.985158511e-06
1.776777584e-06
1.582746467e-06
1.405516588e-06
1.250234431e-06
1.125259815e-06
1.020876346e-06
9.49049633e-07
8.961293028e-07
8.650736897e-07
8.586158873e-07
8.924730627e-07
1.005904876e-06
4.10913477e-06
4.097473452e-06
4.093248711e-06
4.08693684e-06
4.091361705e-06
4.083885931e-06
4.069017654e-06
4.061291031e-06
4.03655295e-06
4.013862793e-06
3.996079079e-06
3.964518491e-06
3.929416796e-06
3.883336268e-06
3.8310071e-06
3.771361645e-06
3.711530181e-06
3.620557197e-06
3.532185207e-06
3.415596416e-06
3.294052184e-06
3.139585509e-06
3.004754599e-06
2.842210288e-06
2.660451193e-06
2.469946807e-06
2.267660058e-06
2.072344616e-06
1.864309955e-06
1.669846466e-06
1.493254079e-06
1.33321625e-06
1.19734343e-06
1.090553e-06
1.008789803e-06
9.544777058e-07
9.237595446e-07
9.244139761e-07
9.636791242e-07
1.057050874e-06
4.10588899e-06
4.107716357e-06
4.101652497e-06
4.086020308e-06
4.07394673e-06
4.07103012e-06
4.070164121e-06
4.063534738e-06
4.048552313e-06
4.020678863e-06
4.000451025e-06
3.987106204e-06
3.946590079e-06
3.900071924e-06
3.840558872e-06
3.78002488e-06
3.715115232e-06
3.637520538e-06
3.537918962e-06
3.4431375e-06
3.31444891e-06
3.177474214e-06
3.049998191e-06
2.888839249e-06
2.711585976e-06
2.546999795e-06
2.360064785e-06
2.161077881e-06
1.958750694e-06
1.772027872e-06
1.583069744e-06
1.417621474e-06
1.279840661e-06
1.163798623e-06
1.072960441e-06
1.015289152e-06
9.831055364e-07
9.835870924e-07
1.017663362e-06
1.095904582e-06
4.108495839e-06
4.10549149e-06
4.09710297e-06
4.090476143e-06
4.079423226e-06
4.076776764e-06
4.062907636e-06
4.050681989e-06
4.039569978e-06
4.034797916e-06
4.006544991e-06
3.971954155e-06
3.931185619e-06
3.892083063e-06
3.852492919e-06
3.804826297e-06
3.734011836e-06
3.662639344e-06
3.586536975e-06
3.491480254e-06
3.365685126e-06
3.256482638e-06
3.103631381e-06
2.958964157e-06
2.797021686e-06
2.630849416e-06
2.442894676e-06
2.250168652e-06
2.061377054e-06
1.870539782e-06
1.685848101e-06
1.519770945e-06
1.368355061e-06
1.244966349e-06
1.149741124e-06
1.081713334e-06
1.044599681e-06
1.041131402e-06
1.063178962e-06
1.125949856e-06
4.106598456e-06
4.096503408e-06
4.096203532e-06
4.103953288e-06
4.095209062e-06
4.084015412e-06
4.075125402e-06
4.065899642e-06
4.049963862e-06
4.030481891e-06
4.001662281e-06
3.985257252e-06
3.95463927e-06
3.919702694e-06
3.879387309e-06
3.823731287e-06
3.765353786e-06
3.693399427e-06
3.617426807e-06
3.525133698e-06
3.421714041e-06
3.303141567e-06
3.177324793e-06
3.038758781e-06
2.874448528e-06
2.70110376e-06
2.528261086e-06
2.346440024e-06
2.163900976e-06
1.97636784e-06
1.792905543e-06
1.623640189e-06
1.460646575e-06
1.335527141e-06
1.230434947e-06
1.154332759e-06
1.107720992e-06
1.092356493e-06
1.112181985e-06
1.151562616e-06
4.115289087e-06
4.110409613e-06
4.1002821e-06
4.083289332e-06
4.072384483e-06
4.066436452e-06
4.067462145e-06
4.058302428e-06
4.051257955e-06
4.03213602e-06
4.021513857e-06
4.007435571e-06
3.975253715e-06
3.933225036e-06
3.890742721e-06
3.853125985e-06
3.798792001e-06
3.736948294e-06
3.666713812e-06
3.580970073e-06
3.481615566e-06
3.360592895e-06
3.241835731e-06
3.112958731e-06
2.95979485e-06
2.786915725e-06
2.629173267e-06
2.454335984e-06
2.271729642e-06
2.092009517e-06
1.911241694e-06
1.735341165e-06
1.575589358e-06
1.436751663e-06
1.320318208e-06
1.23074616e-06
1.177613144e-06
1.150572202e-06
1.151182016e-06
1.185495193e-06
4.107561437e-06
4.098415951e-06
4.097990842e-06
4.098233197e-06
4.093433634e-06
4.093740967e-06
4.092004255e-06
4.083260356e-06
4.07884394e-06
4.065077231e-06
4.04636732e-06
4.02439499e-06
3.997528157e-06
3.948865404e-06
3.917233669e-06
3.875278243e-06
3.827265719e-06
3.76978707e-06
3.698695943e-06
3.613271495e-06
3.531400649e-06
3.426437115e-06
3.313205627e-06
3.195165811e-06
3.044192107e-06
2.891647764e-06
2.72975869e-06
2.560701114e-06
2.39259289e-06
2.203676618e-06
2.02409481e-06
1.856341496e-06
1.688807998e-06
1.538074077e-06
1.413925567e-06
1.322245342e-06
1.255827574e-06
1.216179842e-06
1.200818731e-06
1.216186687e-06
4.114014491e-06
4.118253528e-06
4.114291737e-06
4.105977426e-06
4.107108532e-06
4.094421741e-06
4.092274235e-06
4.083972146e-06
4.078444884e-06
4.05940208e-06
4.036715386e-06
4.02091996e-06
4.002802528e-06
3.977752661e-06
3.93587245e-06
3.90371514e-06
3.855687399e-06
3.808522977e-06
3.745777287e-06
3.671507984e-06
3.590644121e-06
3.488304854e-06
3.385836902e-06
3.264539938e-06
3.122907298e-06
2.978862312e-06
2.82212128e-06
2.662501328e-06
2.496458038e-06
2.325661278e-06
2.151756963e-06
1.979021272e-06
1.805516125e-06
1.649069476e-06
1.522139274e-06
1.420299221e-06
1.337286807e-06
1.28477802e-06
1.256395875e-06
1.251597408e-06
4.109318948e-06
4.100005174e-06
4.097265476e-06
4.088083819e-06
4.085563346e-06
4.091608336e-06
4.082997282e-06
4.073107923e-06
4.069444017e-06
4.066126712e-06
4.05151204e-06
4.030222424e-06
4.01294102e-06
3.985065974e-06
3.953097792e-06
3.918744653e-06
3.869732317e-06
3.825027261e-06
3.776766258e-06
3.706013579e-06
3.622234742e-06
3.541961229e-06
3.438266332e-06
3.324056436e-06
3.195052799e-06
3.054773037e-06
2.914164116e-06
2.765733613e-06
2.612677245e-06
2.443193035e-06
2.275353508e-06
2.094139217e-06
1.92618596e-06
1.781343582e-06
1.639872695e-06
1.522298637e-06
1.431844643e-06
1.361346357e-06
1.315970741e-06
1.302236015e-06
4.111271449e-06
4.107649403e-06
4.105836396e-06
4.110708326e-06
4.1083998e-06
4.102636267e-06
4.096303854e-06
4.086474913e-06
4.07853792e-06
4.058548944e-06
4.038974614e-06
4.026399043e-06
4.013382692e-06
3.995954444e-06
3.974715332e-06
3.942920454e-06
3.894386501e-06
3.853599015e-06
3.779526568e-06
3.719465651e-06
3.649318709e-06
3.560143943e-06
3.477701991e-06
3.386496991e-06
3.262966164e-06
3.147940644e-06
3.004220225e-06
2.865568672e-06
2.708102003e-06
2.54523416e-06
2.385743933e-06
2.218070938e-06
2.05437183e-06
1.895929752e-06
1.758945954e-06
1.62766591e-06
1.532829963e-06
1.448964839e-06
1.393679716e-06
1.363706204e-06
4.111616162e-06
4.10533483e-06
4.10259511e-06
4.099341243e-06
4.096662854e-06
4.09177637e-06
4.084869785e-06
4.08518892e-06
4.077143137e-06
4.065496482e-06
4.066228622e-06
4.042315791e-06
4.024976451e-06
4.0101362e-06
3.984273068e-06
3.948174088e-06
3.920844225e-06
3.879624579e-06
3.826977124e-06
3.775697687e-06
3.703799081e-06
3.626647709e-06
3.535739101e-06
3.432309367e-06
3.323685538e-06
3.21684353e-06
3.089493522e-06
2.960620592e-06
2.802810228e-06
2.655280401e-06
2.498634688e-06
2.33399836e-06
2.179440438e-06
2.021745401e-06
1.885234598e-06
1.74680133e-06
1.639382283e-06
1.550921735e-06
1.476511574e-06
1.430663541e-06
4.112677438e-06
4.114523303e-06
4.116759301e-06
4.110586662e-06
4.113243152e-06
4.115950092e-06
4.114697993e-06
4.109141119e-06
4.096645701e-06
4.08751811e-06
4.070823307e-06
4.053216864e-06
4.045483129e-06
4.028071593e-06
3.997086701e-06
3.969295008e-06
3.942879558e-06
3.894960411e-06
3.83664016e-06
3.7902439e-06
3.73967783e-06
3.672696796e-06
3.586528152e-06
3.504091017e-06
3.409484392e-06
3.290797216e-06
3.177237707e-06
3.052540835e-06
2.912618031e-06
2.765857778e-06
2.616368986e-06
2.471141138e-06
2.311182153e-06
2.159286836e-06
2.010653918e-06
1.881932769e-06
1.7537608e-06
1.652498847e-06
1.572193e-06
1.506453768e-06
4.112079988e-06
4.10970299e-06
4.102132566e-06
4.108777941e-06
4.103177301e-06
4.102701157e-06
4.102996849e-06
4.095107709e-06
4.095934869e-06
4.09010305e-06
4.082199401e-06
4.070489592e-06
4.049209842e-06
4.032080528e-06
4.001806415e-06
3.978789694e-06
3.957677094e-06
3.910188782e-06
3.871405047e-06
3.833638329e-06
3.790577451e-06
3.721794223e-06
3.636665305e-06
3.555535751e-06
3.476631847e-06
3.382023631e-06
3.271776855e-06
3.136354249e-06
3.024571982e-06
2.884229464e-06
2.735675131e-06
2.590759582e-06
2.44253246e-06
2.292220149e-06
2.147252886e-06
2.009237586e-06
1.879934328e-06
1.76679861e-06
1.673852306e-06
1.593447522e-06
4.10942519e-06
4.107800804e-06
4.112110665e-06
4.111945882e-06
4.108888308e-06
4.102537104e-06
4.093456589e-06
4.089356832e-06
4.087984483e-06
4.07852119e-06
4.072401158e-06
4.067504037e-06
4.059586704e-06
4.040917416e-06
4.026852415e-06
4.002638209e-06
3.975140063e-06
3.938213394e-06
3.896256313e-06
3.853385281e-06
3.805205863e-06
3.747397448e-06
3.683463002e-06
3.615133579e-06
3.531126752e-06
3.450084437e-06
3.345231213e-06
3.233907713e-06
3.123532677e-06
2.995363881e-06
2.869235606e-06
2.718160145e-06
2.56180062e-06
2.416840954e-06
2.270481777e-06
2.130184802e-06
2.007841771e-06
1.88955878e-06
1.785527394e-06
1.694641233e-06
4.10625102e-06
4.104651586e-06
4.104818886e-06
4.098635195e-06
4.096275722e-06
4.097730155e-06
4.098466248e-06
4.094168764e-06
4.07872048e-06
4.073992603e-06
4.068825497e-06
4.061038647e-06
4.05099814e-06
4.035504307e-06
4.015307117e-06
4.003168881e-06
3.988466022e-06
3.945817026e-06
3.914494218e-06
3.888850853e-06
3.847626718e-06
3.78454361e-06
3.735276599e-06
3.678777662e-06
3.599557078e-06
3.507705818e-06
3.413913463e-06
3.300953792e-06
3.198801192e-06
3.085725155e-06
2.95714984e-06
2.839869497e-06
2.697926776e-06
2.554188155e-06
2.41808226e-06
2.277518356e-06
2.140519998e-06
2.019506972e-06
1.902248956e-06
1.80279321e-06
4.120202505e-06
4.119587029e-06
4.112785515e-06
4.109951712e-06
4.110202302e-06
4.104749374e-06
4.094137816e-06
4.090014385e-06
4.078931925e-06
4.072163055e-06
4.068529393e-06
4.063973988e-06
4.056371724e-06
4.049366296e-06
4.04338527e-06
4.018481055e-06
3.993110346e-06
3.973043028e-06
3.955475372e-06
3.929245246e-06
3.88744788e-06
3.827152547e-06
3.771587389e-06
3.702484587e-06
3.647327952e-06
3.580741085e-06
3.487923504e-06
3.394425427e-06
3.289659354e-06
3.189827441e-06
3.075923262e-06
2.944350682e-06
2.81921642e-06
2.683497607e-06
2.546861877e-06
2.412213154e-06
2.277829052e-06
2.1530488e-06
2.031767461e-06
1.922851668e-06
4.116650359e-06
4.109846944e-06
4.106626773e-06
4.099293612e-06
4.102781354e-06
4.105823079e-06
4.095556627e-06
4.094078436e-06
4.094198754e-06
4.090694498e-06
4.079609382e-06
4.071903183e-06
4.072293731e-06
4.059467465e-06
4.051309828e-06
4.026552613e-06
4.015522839e-06
3.986057379e-06
3.957136631e-06
3.92615657e-06
3.895584475e-06
3.852255475e-06
3.813344613e-06
3.749901343e-06
3.689038299e-06
3.633526976e-06
3.554698718e-06
3.464236435e-06
3.368870556e-06
3.271888764e-06
3.164922056e-06
3.057239744e-06
2.938436295e-06
2.809279858e-06
2.677291583e-06
2.556991707e-06
2.421071022e-06
2.297784877e-06
2.174888459e-06
2.055995409e-06
4.106443154e-06
4.101010289e-06
4.104054057e-06
4.110036803e-06
4.109239285e-06
4.110320324e-06
4.10812741e-06
4.108894421e-06
4.109842983e-06
4.105395916e-06
4.109562838e-06
4.095541091e-06
4.084569691e-06
4.078220471e-06
4.060066047e-06
4.040796388e-06
4.022610525e-06
4.017768108e-06
3.98702634e-06
3.964764592e-06
3.929548177e-06
3.89562992e-06
3.848701953e-06
3.796183496e-06
3.74180227e-06
3.686358835e-06
3.61971896e-06
3.543334018e-06
3.459981487e-06
3.370417495e-06
3.271279135e-06
3.158175653e-06
3.052582623e-06
2.92634837e-06
2.801379985e-06
2.678427362e-06
2.55474319e-06
2.431251588e-06
2.312494667e-06
2.201539261e-06
4.113305655e-06
4.11636015e-06
4.12157465e-06
4.112798974e-06
4.117844625e-06
4.122366515e-06
4.116238186e-06
4.11371907e-06
4.112526557e-06
4.108118534e-06
4.097631081e-06
4.090847337e-06
4.090922304e-06
4.08111392e-06
4.069310547e-06
4.062569663e-06
4.048066136e-06
4.023844848e-06
3.999320706e-06
3.97210093e-06
3.937210971e-06
3.907172443e-06
3.881336885e-06
3.840252862e-06
3.785494628e-06
3.731046399e-06
3.662864493e-06
3.591362396e-06
3.516719853e-06
3.443168102e-06
3.34803861e-06
3.23477594e-06
3.138628739e-06
3.032054721e-06
2.927588561e-06
2.809855236e-06
2.683412893e-06
2.560561173e-06
2.449071179e-06
2.329731751e-06
4.11911381e-06
4.123794014e-06
4.120371921e-06
4.117387072e-06
4.110390697e-06
4.09782144e-06
4.103068783e-06
4.094353151e-06
4.084819538e-06
4.075219197e-06
4.069804513e-06
4.065575797e-06
4.060916284e-06
4.056958363e-06
4.045198665e-06
4.046146978e-06
4.030946911e-06
4.01540113e-06
4.008533031e-06
3.997703717e-06
3.972120759e-06
3.949109727e-06
3.915554568e-06
3.871588579e-06
3.832325441e-06
3.780589825e-06
3.722591347e-06
3.65943755e-06
3.60397808e-06
3.519137331e-06
3.438087678e-06
3.335701086e-06
3.24889458e-06
3.147259478e-06
3.0370985e-06
2.916167752e-06
2.809434732e-06
2.683088944e-06
2.579330548e-06
2.463753147e-06
4.116632918e-06
4.109481571e-06
4.104199717e-06
4.105372279e-06
4.098102716e-06
4.099572575e-06
4.093542245e-06
4.093413225e-06
4.098321242e-06
4.094857087e-06
4.090007173e-06
4.084461386e-06
4.076647521e-06
4.065539127e-06
4.057947695e-06
4.048606006e-06
4.032875634e-06
4.01916919e-06
4.009046657e-06
3.989815137e-06
3.969680289e-06
3.954935353e-06
3.923197404e-06
3.894976072e-06
3.854087488e-06
3.815912917e-06
3.75449866e-06
3.715898848e-06
3.64289762e-06
3.582486308e-06
3.511856405e-06
3.421106625e-06
3.327887247e-06
3.238319109e-06
3.150411818e-06
3.040965829e-06
2.932788088e-06
2.822051912e-06
2.711192877e-06
2.599569998e-06
4.110505177e-06
4.113222551e-06
4.117213378e-06
4.115315245e-06
4.113020124e-06
4.115116091e-06
4.113766026e-06
4.107946061e-06
4.108787848e-06
4.102381224e-06
4.096261432e-06
4.091109508e-06
4.085902246e-06
4.077509312e-06
4.073361095e-06
4.053539931e-06
4.050343203e-06
4.045476088e-06
4.021291912e-06
4.004590173e-06
3.989779286e-06
3.967483892e-06
3.93836774e-06
3.915117678e-06
3.87127525e-06
3.841560478e-06
3.785115686e-06
3.740961338e-06
3.684893524e-06
3.628319156e-06
3.572000836e-06
3.498695965e-06
3.421905624e-06
3.33345274e-06
3.23552441e-06
3.157553399e-06
3.053128351e-06
2.956350986e-06
2.853630656e-06
2.741332252e-06
4.11635892e-06
4.113632234e-06
4.110335548e-06
4.101617172e-06
4.104296009e-06
4.104175971e-06
4.102041383e-06
4.093867699e-06
4.098492816e-06
4.105117688e-06
4.098959086e-06
4.101781302e-06
4.097346556e-06
4.09167094e-06
4.088291881e-06
4.086255503e-06
4.066631563e-06
4.053300812e-06
4.040678907e-06
4.02461146e-06
4.00736382e-06
3.994132598e-06
3.96344087e-06
3.939130482e-06
3.90400092e-06
3.873367561e-06
3.826160696e-06
3.781794815e-06
3.738107529e-06
3.681978141e-06
3.630959251e-06
3.561621755e-06
3.494567399e-06
3.420373467e-06
3.340564261e-06
3.262060295e-06
3.169605099e-06
3.071601657e-06
2.967852329e-06
2.870867244e-06
4.115155573e-06
4.111661862e-06
4.107999813e-06
4.10708377e-06
4.107327296e-06
4.100924069e-06
4.106181694e-06
4.107763693e-06
4.096059171e-06
4.089778199e-06
4.084407948e-06
4.080412736e-06
4.074826684e-06
4.075568969e-06
4.075341997e-06
4.074931373e-06
4.070506234e-06
4.061621299e-06
4.048303454e-06
4.039846706e-06
4.025341542e-06
4.011817618e-06
3.988099551e-06
3.974599987e-06
3.940196053e-06
3.930899106e-06
3.89100396e-06
3.846943612e-06
3.801044334e-06
3.760170905e-06
3.693454525e-06
3.627564405e-06
3.569838198e-06