/*--------------------------------*- C++ -*----------------------------------*\
| =========                 |                                                 |
| \\      /  F ield         | OpenFOAM: The Open Source CFD Toolbox           |
|  \\    /   O peration     | Version:  v1706                                 |
|   \\  /    A nd           | Web:      www.OpenFOAM.com                      |
|    \\/     M anipulation  |                                                 |
\*---------------------------------------------------------------------------*/
FoamFile
{
    version     2.0;
    format      ascii;
    class       volScalarField;
    location    "0.004";
    object      mfpCellRatio_Ar;
}
// * * * * * * * * * * * * * * * * * * * * * * * * * * * * * * * * * * * * * //

dimensions      [0 0 0 0 0 0 0];


internalField   nonuniform List<scalar> 
4000
(
1.914858304
1.919912609
1.931025916
1.931299922
1.952044446
1.978238971
1.978843123
1.978036595
2.001459524
2.03345624
2.083074416
2.117661953
2.160662267
2.209149051
2.260399016
2.310654718
2.382494999
2.432545245
2.469365289
2.509608649
2.511381865
2.483657073
2.42831867
2.328614108
2.174433854
2.002946173
1.799994897
1.603522189
1.419077127
1.262630734
1.137186386
1.038206958
0.9510186092
0.8729391598
0.7938098866
0.7121293042
0.6251089729
0.5299578722
0.4224467467
0.3050076273
1.916721715
1.919617371
1.928251629
1.935210351
1.946180159
1.962257537
1.986269409
1.995186012
2.02459438
2.05767099
2.089164663
2.131555168
2.172476831
2.229681821
2.296484829
2.348909509
2.405547888
2.481910477
2.534725536
2.57601474
2.596221282
2.585987609
2.524103513
2.417119543
2.267339066
2.06741591
1.859902738
1.646482383
1.455516946
1.294635174
1.165270476
1.054340831
0.9618679748
0.8836589973
0.8027796005
0.7176223384
0.6290522237
0.5301831215
0.4225524491
0.3049528015
1.912990883
1.923618706
1.928644145
1.936940664
1.939363336
1.958536291
1.972677086
1.998125684
2.021688695
2.049068814
2.082991684
2.129765905
2.180979661
2.231006387
2.296552982
2.35250971
2.413199466
2.480596338
2.5415121
2.589557374
2.61223068
2.602739626
2.549637151
2.446310497
2.289373698
2.096082102
1.885545059
1.663588039
1.477444875
1.310809744
1.173681508
1.063396971
0.9684188463
0.8880018144
0.8072543793
0.7210992111
0.6289471245
0.5308991004
0.4237560736
0.3053753481
1.910658447
1.919003817
1.924576855
1.934106858
1.946858412
1.956088546
1.968160034
1.985064683
2.006524222
2.035506892
2.072126504
2.109311836
2.162768238
2.214191168
2.259295797
2.329487416
2.399838312
2.465119196
2.528517083
2.581629906
2.608177861
2.608161221
2.564574719
2.458988554
2.313601321
2.118927127
1.904137611
1.693138743
1.491564689
1.318378496
1.177144563
1.06722959
0.9750048883
0.8913965566
0.8080706831
0.7232098261
0.6304511021
0.5323550376
0.4248621777
0.3062676629
1.909126482
1.911438133
1.918047675
1.925967384
1.927176143
1.939309993
1.958691172
1.972314901
1.988491306
2.029668678
2.063067603
2.106150373
2.149307704
2.19209897
2.24813048
2.316443606
2.388564209
2.455883127
2.530133152
2.581137697
2.609865694
2.609536247
2.558257207
2.463776115
2.317804054
2.136816087
1.919504245
1.696941979
1.495619252
1.322879736
1.183876977
1.074856674
0.9811770217
0.8943342512
0.8118684858
0.7282474468
0.6326730401
0.532438921
0.4259649229
0.3062128614
1.909549702
1.917398704
1.925272685
1.92946553
1.938249791
1.94550294
1.957490689
1.975654986
2.002745807
2.026041344
2.047954962
2.088657637
2.129663849
2.185879818
2.238132477
2.2942688
2.365866547
2.43441375
2.500813961
2.556793548
2.595374951
2.597317509
2.562293272
2.468601372
2.322449786
2.140692773
1.933314354
1.709599346
1.509011223
1.33227688
1.193467079
1.075917912
0.9844814099
0.8982726811
0.8153421096
0.7325032485
0.6377948782
0.5364469425
0.4279965198
0.3088286771
1.910121066
1.917984407
1.923728408
1.931720452
1.942180193
1.950316038
1.963331724
1.978788754
2.0027292
2.027547079
2.064171395
2.098457614
2.137676515
2.185879878
2.24628053
2.308276635
2.376659735
2.439629384
2.504859912
2.558820954
2.599570216
2.605262378
2.571897534
2.485691927
2.335035278
2.15522076
1.949126963
1.727501022
1.524729649
1.346753041
1.203763196
1.081994751
0.9867803602
0.9054154522
0.822351993
0.7364018282
0.6424688854
0.5404492895
0.4302709646
0.3089870818
1.905528544
1.913256503
1.920874743
1.924966591
1.926758558
1.934586158
1.951853379
1.970993506
1.993825644
2.024264561
2.050468824
2.095204508
2.133962949
2.178361309
2.239352176
2.294517747
2.363223049
2.438545144
2.503447074
2.556304491
2.58774
2.59940717
2.570244272
2.494929465
2.36076469
2.175111425
1.9597298
1.744366529
1.542103889
1.367018748
1.216164367
1.093262599
0.9969224587
0.9094673638
0.8253930927
0.7396791926
0.6472020392
0.5446448754
0.4338686799
0.3124722216
1.911720283
1.914965101
1.922690124
1.928182743
1.937075045
1.948053953
1.96657807
1.974975326
1.991457126
2.01824934
2.044988914
2.081694043
2.12132867
2.15788986
2.21635362
2.285828276
2.352211755
2.420310159
2.49205639
2.557753485
2.600894424
2.60203203
2.579646898
2.502035578
2.374363512
2.191949324
1.986544867
1.772636703
1.562236794
1.380114511
1.232817288
1.109820235
1.004788712
0.9168606971
0.8306382418
0.7446250055
0.6506106995
0.5475826889
0.4373596424
0.3127727452
1.903420745
1.90772793
1.916118717
1.923164931
1.927820001
1.94223719
1.958651504
1.967357543
1.985551482
2.016355884
2.045353384
2.078934643
2.11904227
2.164172774
2.223437613
2.281891662
2.344705285
2.411394153
2.473068052
2.52780431
2.573730974
2.591014477
2.568507655
2.498524362
2.381463199
2.221158962
2.024157105
1.797387104
1.589399135
1.402115487
1.251258416
1.124938396
1.019640482
0.9278215245
0.8404961128
0.7529189961
0.6585233336
0.5537396385
0.4407304393
0.3154791788
1.907447748
1.91075798
1.912785829
1.915534469
1.922825648
1.93439443
1.946954439
1.963043569
1.98702298
2.007095745
2.03495204
2.064343725
2.101982011
2.152491571
2.198677739
2.250666995
2.315904078
2.38191539
2.451740929
2.511658249
2.558667778
2.584643383
2.575097712
2.516092582
2.40149067
2.234883497
2.042080264
1.831899411
1.617569766
1.424467433
1.269680305
1.138790361
1.029874344
0.9408206019
0.8509257985
0.7599130357
0.6648282229
0.5582458322
0.4440116404
0.3184886301
1.90799885
1.913433538
1.916261761
1.923641114
1.936316125
1.94754281
1.960252718
1.967254863
1.988143812
2.012584486
2.032072877
2.058602584
2.095715348
2.146792074
2.191738518
2.249737031
2.305745111
2.376134022
2.45400025
2.514933052
2.567907857
2.590520054
2.577270812
2.523521608
2.421225883
2.267856753
2.080634381
1.864982099
1.651450546
1.451694434
1.286722028
1.157090907
1.043212165
0.950573414
0.8609995065
0.7700959146
0.6745868097
0.5676162001
0.4508848388
0.3222265316
1.906059194
1.911059454
1.91850169
1.923075965
1.926438326
1.936567614
1.942583688
1.952502544
1.97027549
1.991972519
2.015138363
2.051144457
2.084440146
2.133962981
2.183643026
2.236140463
2.292763759
2.368735144
2.429099999
2.487461488
2.540135115
2.57051485
2.574988527
2.535970698
2.43677654
2.291649199
2.104174622
1.895942857
1.680968023
1.488623992
1.315989973
1.181553294
1.066646653
0.9667062581
0.8762272223
0.7838672421
0.6840284052
0.5752457469
0.4565256466
0.3257528581
1.906347629
1.908205271
1.913671855
1.921103427
1.932350256
1.935441593
1.939953608
1.952800531
1.965452168
1.987836826
2.009206089
2.03508109
2.071485302
2.11692325
2.164152057
2.214844884
2.270827837
2.34042396
2.40611865
2.471489278
2.520170244
2.559018206
2.566235965
2.540502453
2.454049073
2.325199265
2.144163407
1.938048573
1.720645035
1.52298254
1.34906935
1.201916579
1.087010226
0.9831594103
0.8907550202
0.7972941265
0.6974971975
0.5882030061
0.4663810798
0.331198692
1.905185193
1.908300717
1.912726699
1.916868975
1.921669818
1.933240564
1.945280252
1.960191727
1.97593911
1.98980529
2.015957845
2.040181312
2.074405949
2.110479899
2.153761727
2.208626112
2.274073373
2.339252555
2.40565392
2.472754787
2.528542305
2.570234467
2.582078829
2.553326475
2.48589055
2.356983254
2.191351462
1.98134947
1.764575774
1.570439647
1.389730345
1.233766155
1.110902704
1.004566566
0.9059077486
0.814458564
0.7128990768
0.5985448974
0.4768350188
0.3368931274
1.905268899
1.909483488
1.914482056
1.923252637
1.931867341
1.935535352
1.941367593
1.948927765
1.963136973
1.986169922
2.009841794
2.035167435
2.072079687
2.107260296
2.149261147
2.196144548
2.25833802
2.31998234
2.387749516
2.454598349
2.514493226
2.553014121
2.5722748
2.560451586
2.499968672
2.390554181
2.228728345
2.040552276
1.821624664
1.615006312
1.429787986
1.269613123
1.140299551
1.030136572
0.9330788332
0.8361990388
0.7328402686
0.6179865651
0.4911750457
0.3462476187
1.904246886
1.903980017
1.906714279
1.91476932
1.920490476
1.929670098
1.944544633
1.953456906
1.970463489
1.990285683
2.009880996
2.029812978
2.058735066
2.103435085
2.138776365
2.187502936
2.251121072
2.306714735
2.373807083
2.440443546
2.498219049
2.538828341
2.567317374
2.560921002
2.507755698
2.407038729
2.26155502
2.076291805
1.870633646
1.666315747
1.469697674
1.309666512
1.176105113
1.061655812
0.9573219713
0.8631878386
0.7545887397
0.6414153203
0.5070336739
0.3573176105
1.904144106
1.910929848
1.910637344
1.915493578
1.923620221
1.926501235
1.935030223
1.948626049
1.958735582
1.970841447
1.995942612
2.015450873
2.047542447
2.080646659
2.128563635
2.175643376
2.22080541
2.288087621
2.351673208
2.418336011
2.479011706
2.526688063
2.560300256
2.560120275
2.523744975
2.438220645
2.306415877
2.129561082
1.92892378
1.722688744
1.526262771
1.356896431
1.214172525
1.094953295
0.9898013553
0.8928143094
0.7869023647
0.669001466
0.5332027092
0.3742346313
1.904637408
1.90799025
1.906808585
1.909779238
1.917052556
1.927108802
1.934173338
1.944160134
1.953639437
1.972104099
1.99408423
2.019937808
2.04914829
2.079396804
2.115314874
2.164190077
2.213750474
2.272356995
2.341397314
2.406004858
2.465103101
2.521115265
2.553564545
2.562467707
2.532615757
2.465016082
2.349151701
2.183057749
1.990865206
1.783064433
1.594866811
1.41115948
1.263670979
1.136890421
1.028394272
0.9306500143
0.8269456359
0.7108437594
0.5756200201
0.4031769039
1.904375699
1.904509531
1.910538162
1.913764593
1.920778603
1.927969238
1.938396816
1.947735317
1.954747172
1.966894782
1.989004307
2.001158145
2.02796388
2.064224691
2.099230211
2.145315088
2.199447739
2.254132948
2.314393779
2.378718588
2.447263384
2.502382935
2.545578768
2.565102537
2.548121418
2.494127181
2.378204103
2.231508855
2.047871467
1.848960079
1.654507497
1.469272178
1.313813127
1.182556556
1.073157217
0.9773088963
0.8819946116
0.7744226262
0.6519012731
0.4768915829
1.905382083
1.910762331
1.91188199
1.913546908
1.918304274
1.92403873
1.93337887
1.943233102
1.953774277
1.970259728
1.986133061
2.00385609
2.025996333
2.061447054
2.098354959
2.137380687
2.188466276
2.241110246
2.298222963
2.36212849
2.423005795
2.474139079
2.523541066
2.548958403
2.544840419
2.502884198
2.410515039
2.269505802
2.099187765
1.91572091
1.713553446
1.531931092
1.377577016
1.240258469
1.129801989
1.035899996
0.9469497214
0.8592809047
0.7846036235
0.7880386817
1.903348229
1.907412654
1.907091066
1.9137614
1.920819885
1.924611288
1.932623214
1.93856164
1.950268716
1.962837956
1.970729151
1.986885283
2.016442069
2.046765137
2.080999215
2.11838585
2.164536376
2.21294656
2.262680867
2.3264136
2.390284419
2.453691047
2.508387917
2.541454519
2.548810145
2.522213238
2.452768827
2.333592276
2.171297404
1.987728758
1.787304203
1.602648067
1.439323157
1.306407376
1.190576072
1.096005697
1.018652335
0.9566553291
0.9255528649
0.9999605497
1.903079375
1.904458271
1.909870866
1.91577669
1.916299543
1.922871866
1.929863671
1.940732256
1.949573216
1.959747401
1.97593662
1.99477224
2.017852541
2.04942192
2.08525699
2.124763589
2.161456794
2.213336809
2.2620119
2.314473898
2.377691789
2.438921289
2.489524727
2.529030086
2.5470474
2.524492018
2.474569404
2.372945005
2.225386671
2.052609362
1.863673968
1.676621278
1.51355324
1.366221043
1.256759315
1.164431548
1.096231344
1.049733962
1.040851381
1.10992956
1.901235982
1.904901005
1.909083717
1.915200661
1.919345736
1.922117032
1.928907175
1.931077554
1.94059299
1.957134647
1.964776566
1.982797078
2.005344212
2.03083898
2.060775419
2.095359988
2.13143208
2.178448661
2.234435416
2.29185406
2.350592785
2.41694219
2.469323019
2.509510784
2.534285743
2.523557085
2.480587532
2.404512338
2.276427909
2.118138812
1.944095795
1.761787848
1.591055118
1.445817413
1.324095685
1.233476033
1.166118098
1.129728858
1.130526971
1.184648226
1.90226908
1.907441279
1.910813544
1.913093913
1.914376949
1.916876539
1.92282738
1.927244075
1.934907452
1.948655089
1.964713678
1.972107891
1.994506305
2.016209804
2.042408138
2.073316039
2.111760246
2.152357186
2.206141042
2.253288645
2.310452556
2.366680128
2.412934625
2.462819424
2.495960478
2.513037355
2.49478081
2.430678072
2.324811603
2.189341705
2.017688717
1.842470148
1.674627225
1.524658363
1.395105827
1.301032238
1.234528384
1.200831676
1.199889314
1.242427057
1.903035567
1.903810999
1.905616592
1.908003196
1.910088808
1.914952034
1.915633105
1.92381183
1.92842137
1.936284883
1.949592784
1.965288549
1.98203303
2.004249829
2.031020331
2.054703187
2.093876495
2.130177718
2.172324343
2.220330452
2.285656664
2.335892924
2.392389177
2.445407821
2.48539425
2.502319257
2.492307939
2.449013767
2.368593307
2.247885669
2.099632549
1.93323979
1.762717352
1.609301983
1.478559181
1.37563651
1.302273405
1.268269738
1.256832179
1.287046296
1.89826942
1.900750145
1.906108615
1.91178575
1.916536462
1.916714755
1.922259432
1.926392905
1.932915812
1.935917929
1.948576515
1.958485243
1.975040671
1.994617555
2.021760421
2.046496532
2.076530863
2.115495974
2.151394413
2.192452476
2.245252702
2.307489562
2.362183621
2.411377256
2.456975393
2.485482598
2.489459907
2.459450458
2.397597673
2.303004054
2.166799146
2.014642524
1.848371166
1.698280104
1.562373402
1.452060742
1.37198361
1.324438556
1.314096765
1.32272843
1.89945392
1.903000293
1.902605906
1.904946697
1.904982049
1.90908359
1.908069179
1.914097455
1.920333333
1.931700295
1.940264662
1.951659568
1.965670722
1.987984776
2.008134441
2.034970792
2.064970104
2.094349331
2.135529702
2.182220576
2.228368186
2.282723464
2.340205623
2.392625798
2.438801487
2.472723051
2.482505138
2.473824252
2.426850557
2.351794585
2.241308387
2.099906223
1.944337119
1.792946882
1.652188902
1.529072768
1.446186515
1.388503331
1.358600353
1.363419492
1.90066949
1.902395177
1.905178925
1.90651089
1.911023087
1.913017478
1.916664605
1.92502987
1.927927592
1.9373912
1.944136977
1.95281974
1.964203378
1.98972325
2.010716778
2.025569702
2.052916209
2.08379331
2.11693378
2.163598868
2.211562353
2.26636723
2.31731041
2.364996329
2.422277568
2.461051046
2.477540436
2.479605922
2.454858663
2.389035486
2.296439256
2.177371897
2.031935733
1.88029616
1.739152554
1.620946971
1.523396253
1.456734959
1.411671705
1.39947903
1.902855811
1.909038226
1.907931982
1.911674045
1.914343226
1.913689163
1.914384861
1.918489453
1.919580827
1.924336951
1.935285423
1.946270988
1.96110383
1.978521494
1.995455356
2.017001186
2.04716283
2.077526764
2.112373946
2.15071627
2.190209711
2.24390944
2.290284086
2.334248969
2.39035671
2.433120769
2.465160308
2.475297745
2.45648651
2.421529613
2.349949169
2.24558023
2.116201503
1.971208352
1.834824553
1.712826671
1.603956474
1.524948384
1.467920652
1.434768892
1.899128205
1.896665571
1.897840791
1.900644
1.899804743
1.902470981
1.906727113
1.909824052
1.91769858
1.922663327
1.934643644
1.946224476
1.956803329
1.972089119
1.98964676
2.004692493
2.029913889
2.056572377
2.09025674
2.130225746
2.173196533
2.214099804
2.259338961
2.309700215
2.356187625
2.399655216
2.432672599
2.452966956
2.463149596
2.438080903
2.383411841
2.296501347
2.189390745
2.069564669
1.934202117
1.805190293
1.691658213
1.596923686
1.526634548
1.486664901
1.896916794
1.899177386
1.904238159
1.908406744
1.910810519
1.913311809
1.912492084
1.914686616
1.915948688
1.922045878
1.927216308
1.935325084
1.944166166
1.95802789
1.972423758
1.992782104
2.011789144
2.030017449
2.064896814
2.094524295
2.133743081
2.17266555
2.221230444
2.271065272
2.325324251
2.36204098
2.404016253
2.426876098
2.440427675
2.430054177
2.396927432
2.336350734
2.248142648
2.13289486
2.013940886
1.887815933
1.78217393
1.678099605
1.600706112
1.545205708
1.898060184
1.897725586
1.900484064
1.898910406
1.899911178
1.900624905
1.905297998
1.908579428
1.913830199
1.919418393
1.924552447
1.936823516
1.943190553
1.950797614
1.966214197
1.987440536
2.004528888
2.029370769
2.059593395
2.086060974
2.123145083
2.157668176
2.193930861
2.23425356
2.280176282
2.321788181
2.361817015
2.394975555
2.419840107
2.417908885
2.3984334
2.35802921
2.289268319
2.196414283
2.093815862
1.974742678
1.865646628
1.766328522
1.673832848
1.605494212
1.900197853
1.902013395
1.906150685
1.905296678
1.907999113
1.910526587
1.914772883
1.915509236
1.91927481
1.921213597
1.92604982
1.93416466
1.941431309
1.950650454
1.967524739
1.979859519
1.991657784
2.017662099
2.041391715
2.065668161
2.094308042
2.128075752
2.172115417
2.213888143
2.255226106
2.29705307
2.336224196
2.367718925
2.395109587
2.407013856
2.402142802
2.379915903
2.329330696
2.257579885
2.164503525
2.065765233
1.949418001
1.847065773
1.754237709
1.673629257
1.898706965
1.900709121
1.899530469
1.900532681
1.902820536
1.902195081
1.905742126
1.911221235
1.914239389
1.920868311
1.926897293
1.93284942
1.939223241
1.942603355
1.957281129
1.964342701
1.980694429
2.001970123
2.02795405
2.054109883
2.074891854
2.107673631
2.148834873
2.180601062
2.224107524
2.262544336
2.297735844
2.344424403
2.371565223
2.389408048
2.395161198
2.385832769
2.354540999
2.301085931
2.227363709
2.136270386
2.032034747
1.929404904
1.833757801
1.744480819
1.896821408
1.899276805
1.899281827
1.903086637
1.906505583
1.905128452
1.905410603
1.908884481
1.913152969
1.919552921
1.92219286
1.929464342
1.939230929
1.949154868
1.957322509
1.97043402
1.978669776
1.998986329
2.015614228
2.027995648
2.047646991
2.083233098
2.119929777
2.150468578
2.189820471
2.229557473
2.275901383
2.318790187
2.347733169
2.377990643
2.387799331
2.386895266
2.359748164
2.323739914
2.260115698
2.184579132
2.101983439
2.007115032
1.911192283
1.822252327
1.896487518
1.89730885
1.900113044
1.898824676
1.899805598
1.903460675
1.907201872
1.910085567
1.91232149
1.917838414
1.919611096
1.922416401
1.924890219
1.930219336
1.938595754
1.948082825
1.964808239
1.99007788
2.004239035
2.019637843
2.041401295
2.073882387
2.100083308
2.130285809
2.164508369
2.196054653
2.231251011
2.271520881
2.304079645
2.331892807
2.354932198
2.369633614
2.366101151
2.345386403
2.305895836
2.243777449
2.163959565
2.079800391
1.986809226
1.900246444
1.901862093
1.903938754
1.904281975
1.906497569
1.903591696
1.903900572
1.901340055
1.901581332
1.905025431
1.903458762
1.910392918
1.913662136
1.920212473
1.929957339
1.935617244
1.94829356
1.958228517
1.974849052
1.987695233
2.001164341
2.025279656
2.051058099
2.072925838
2.104156794
2.131837693
2.163476519
2.206293079
2.24446531
2.28326718
2.311909144
2.340350823
2.353297062
2.356022995
2.34694822
2.320304106
2.275711163
2.216501987
2.142114175
2.058970398
1.975345705
1.897304485
1.897370592
1.896080627
1.897142009
1.897777556
1.900405446
1.900790084
1.906042045
1.905923884
1.911916694
1.912383513
1.918792147
1.923234953
1.926780534
1.934777796
1.947322133
1.953200633
1.964221501
1.975720658
1.990628542
2.0125582
2.035526088
2.062936925
2.086831007
2.11584199
2.144733498
2.174680381
2.209698582
2.243854153
2.276489984
2.304340232
2.332535732
2.344610547
2.351301202
2.338115582
2.309437401
2.262764472
2.202994305
2.131954899
2.047975425
1.89617577
1.89631278
1.898034196
1.902799062
1.902506635
1.904127002
1.909569158
1.911679131
1.911490333
1.918089108
1.922049683
1.925144161
1.925044504
1.928656472
1.933530966
1.942579803
1.948792505
1.962084474
1.97706835
1.989525307
2.006440406
2.019620618
2.038533223
2.066411301
2.091692696
2.120316371
2.153221544
2.190370612
2.219789308
2.246658763
2.276388123
2.303033083
2.31658265
2.324780002
2.321759305
2.309566789
2.28090509
2.237701045
2.181848593
2.11838121
1.899044832
1.902659177
1.903317275
1.903264108
1.907306091
1.909011249
1.910906166
1.911856302
1.918282818
1.919322517
1.920722836
1.923996377
1.927245799
1.933196491
1.939014159
1.944426652
1.950319063
1.954506945
1.964969925
1.974153452
1.988549629
2.005361492
2.018907083
2.045852927
2.070463024
2.087580558
2.117092593
2.15057858
2.180408581
2.204722183
2.232496619
2.261913396
2.283507561
2.304390023
2.311107773
2.307237787
2.285209394
2.257583449
2.215894311
2.159131219
1.898563123
1.89983993
1.899931927
1.900275077
1.899642959
1.896735435
1.899905562
1.899045547
1.898029889
1.897793169
1.900187093
1.904416585
1.911493188
1.914846703
1.923752832
1.927035415
1.936816723
1.947983099
1.956621487
1.967530838
1.98415241
1.996062592
2.013002878
2.029765764
2.051869965
2.073901017
2.102074576
2.131056062
2.150275356
2.179541915
2.204517648
2.239177575
2.265945657
2.278359141
2.288656509
2.28969248
2.281722956
2.263857802
2.235935158
2.197609601
1.895975403
1.894350283
1.895217501
1.893214332
1.893784083
1.895712104
1.895890792
1.898864936
1.901263196
1.905294191
1.906100753
1.905720872
1.906993095
1.913934674
1.912909745
1.916989301
1.923702148
1.929767738
1.938562205
1.952138076
1.960925701
1.970643869
1.987884426
2.001258025
2.02313605
2.044802748
2.073100201
2.088215409
2.118007395
2.146753903
2.17244461
2.202040304
2.223563999
2.243029859
2.263923481
2.276160737
2.278240804
2.267222561
2.245598366
2.218888073
1.896170519
1.897797323
1.899830499
1.902874749
1.903156264
1.904273494
1.906079345
1.905364332
1.904689178
1.904444831
1.908698235
1.908533348
1.910609123
1.910814889
1.912615075
1.917925944
1.924162986
1.931184515
1.94138771
1.944164433
1.953338968
1.960957707
1.973549802
1.984893946
2.002496122
2.016788051
2.042503425
2.064201455
2.08351373
2.111733611
2.138561429
2.167391503
2.19250497
2.212742653
2.232143646
2.24513602
2.257356365
2.262529225
2.258405114
2.239599721
1.89680492
1.897232264
1.89706988
1.896612528
1.89811496
1.898609273
1.90030539
1.898318775
1.899634664
1.902984064
1.908866365
1.908966573
1.914227255
1.917520294
1.921574279
1.924080798
1.926232643
1.929326193
1.936956494
1.944582052
1.949590562
1.952405855
1.964620717
1.97606623
1.994724915
2.00354367
2.02725615
2.043382611
2.063795114
2.084951536
2.106213824
2.137345345
2.162430133
2.188010127
2.207606225
2.223280035
2.243017921
2.249605017
2.246474492
2.239446805
1.897650398
1.896895523
1.894287467
1.894042157
1.898690816
1.898438569
1.897924156
1.901211233
1.89813859
1.89890705
1.897867419
1.897020134
1.901340994
1.905955877
1.907510219
1.91236691
1.92210209
1.92788817
1.928464199
1.934842137
1.945397447
1.954446309
1.966677407
1.975262765
1.995605157
2.002832432
2.021859121
2.037961434
2.051786894
2.0705843
2.088587726
2.110367105
2.133901488
2.155450885
2.175066176
2.189201078
2.199824121
2.212115597
2.222804943
2.224211275
1.895925233
1.896592911
1.898338861
1.898690698
1.896633879
1.899370031
1.898478548
1.899852648
1.903352387
1.905936471
1.90994574
1.911377475
1.912743485
1.914326488
1.913846797
1.920571915
1.92327014
1.921500148
1.924392623
1.927548607
1.940716921
1.945429459
1.955252223
1.961415629
1.975348206
1.980582849
1.994893681
2.013324155
2.029792315
2.04570293
2.068967316
2.087763423
2.10648582
2.12505144
2.149272774
2.159416649
2.177710196
2.193334086
2.205081162
2.208978194
1.898597464
1.900351505
1.898984126
1.903387581
1.90715231
1.903749893
1.903700736
1.904292135
1.907195446
1.904440159
1.905406224
1.904182055
1.907091368
1.909107606
1.909994265
1.914655447
1.914477273
1.917866117
1.919236513
1.923751765
1.927756461
1.936250507
1.944641897
1.946009351
1.955831759
1.967450128
1.976752336
1.995489359
2.007354213
2.024533125
2.04279565
2.062748552
2.07845594
2.097964198
2.12405639
2.135344121
2.15775657
2.171344832
2.187139571
2.189784954
1.896959745
1.897661402
1.895839299
1.896411275
1.895730425
1.898568886
1.899800027
1.900653974
1.90140062
1.900729748
1.901407398
1.905030951
1.905344172
1.904903655
1.908860191
1.912545404
1.91839928
1.923210511
1.922536795
1.925967505
1.929808158
1.938976208
1.943569441
1.948537149
1.956831848
1.96800012
1.975293876
1.995654084
2.005788664
2.021390593
2.034168687
2.0486137
2.062835941
2.084094287
2.097094153
2.116279529
2.13107504
2.144421684
2.161038013
2.171991026
1.897239847
1.897888602
1.896807187
1.898168579
1.898382243
1.894365222
1.894892852
1.894358255
1.896343623
1.897289672
1.894704051
1.899797266
1.90223659
1.90588871
1.909274532
1.909887227
1.909322805
1.912669094
1.915745785
1.920451946
1.927197713
1.93356357
1.937041688
1.940980658
1.949575278
1.956589922
1.956417957
1.969726014
1.983616827
2.000345565
2.008793066
2.024280896
2.033412791
2.052460342
2.066705636
2.084200791
2.099464397
2.11773934
2.134308866
2.147971991
1.893766537
1.893610542
1.893233496
1.893341236
1.893607591
1.895551114
1.894759732
1.898029835
1.899093902
1.901018055
1.897937146
1.899099407
1.897904613
1.899824439
1.900828248
1.901367738
1.903629066
1.90572457
1.910278609
1.914916294
1.917187857
1.924474745
1.92553229
1.929836108
1.937106054
1.94148111
1.95078882
1.963240211
1.970087865
1.978116323
1.991933768
2.005978262
2.018948784
2.032594029
2.046721774
2.066602929
2.079736998
2.090168953
2.109819696
2.114708934
1.89890289
1.897320058
1.899427791
1.900120712
1.901544405
1.902716817
1.900182516
1.900530151
1.899895584
1.897531668
1.900458805
1.900059011
1.904662667
1.904826479
1.904284862
1.902452146
1.905211919
1.913426544
1.914473491
1.914501676
1.915955713
1.917358016
1.922064044
1.930364934
1.931703793
1.940560678
1.947326889
1.955637956
1.962819532
1.974439621
1.984355316
1.992436967
1.999916821
2.012941326
2.028903045
2.04217525
2.058044057
2.072126446
2.088087931
2.106320199
1.894887495
1.89789614
1.897844822
1.896716497
1.896281389
1.896896272
1.897587684
1.899467422
1.901400364
1.90089161
1.900847042
1.901890189
1.9027681
1.90238648
1.904815029
1.908271163
1.912181491
1.911629055
1.912951769
1.915731601
1.915216555
1.916794381
1.920992936
1.926308515
1.926484337
1.933408414
1.942690915
1.946764047
1.954943306
1.961698388
1.975913322
1.982130917
1.991637592
2.002851756
2.018588822
2.028751738
2.038805439
2.0519671
2.067204963
2.073437165
1.89533547
1.89357433
1.896883167
1.899094723
1.897022212
1.89598112
1.897506207
1.895453431
1.893537944
1.893554363
1.895124812
1.896579881
1.896463503
1.8968274
1.89868037
1.899926722
1.901691505
1.902754749
1.90768374
1.906435294
1.912608607
1.918124523
1.918786655
1.921986808
1.925156843
1.924690071
1.932543444
1.937325843
1.941140484
1.943754004
1.955852184
1.967216855
1.975002765
1.985082038
1.995301213
2.007033414
2.012741995
2.024507184
2.036060691
2.05012739
1.894395421
1.894824242
1.895121335
1.89403273
1.896188449
1.897947395
1.896076095
1.895910265
1.897969231
1.899477192
1.897959433
1.894810383
1.898749129
1.900521478
1.901262359
1.899945025
1.899293919
1.90096114
1.902968186
1.905660698
1.905587393
1.90878747
1.90994175
1.915425116
1.918498457
1.921981746
1.928956592
1.935247319
1.933506661
1.941782357
1.949117752
1.95612453
1.961112386
1.971469717
1.974998869
1.989467337
2.00003871
2.01415042
2.026087533
2.033023276
1.898343284
1.899506973
1.899775811
1.896402908
1.895887577
1.89523652
1.895804111
1.897131504
1.895631124
1.897957463
1.899280922
1.902113241
1.901464536
1.900715069
1.900168003
1.900308591
1.900940637
1.905289065
1.904216317
1.903287243
1.906188727
1.908489418
1.912702209
1.914815358
1.918212297
1.920062043
1.922865625
1.929287869
1.933197273
1.939120648
1.941877089
1.948427332
1.953428146
1.960207351
1.971514438
1.983665067
1.988418583
1.999111355
2.003983807
2.010350105
1.894564201
1.893962984
1.893180547
1.894691844
1.898651834
1.898561076
1.900970986
1.900884647
1.900230954
1.897467024
1.896451866
1.897810509
1.897199671
1.897966326
1.897640749
1.897927551
1.899951449
1.901050103
1.90267072
1.906021795
1.907778749
1.911061166
1.913756891
1.911711072
1.910861912
1.91320893
1.917254178
1.925297097
1.92722837
1.93356983
1.935506923
1.938050192
1.943994314
1.951458662
1.958508077
1.967269352
1.976263887
1.983497278
1.993135107
2.003378158
1.89654285
1.897727595
1.897833946
1.898336425
1.896520828
1.896119419
1.893790281
1.894878886
1.894180101
1.896424565
1.897106208
1.897136521
1.898127301
1.899854819
1.901809758
1.906444249
1.91017143
1.911769328
1.909947525
1.911307623
1.908451161
1.910409224
1.911488643
1.913185851
1.917794046
1.9153142
1.9190103
1.918787085
1.92376855
1.928639492
1.936641559
1.939373643
1.94505566
1.948238161
1.95454437
1.962101824
1.966987205
1.975462231
1.98390899
1.989772834
1.897669537
1.897175238
1.894814086
1.895213231
1.896030301
1.894795961
1.898366684
1.898816724
1.899367906
1.902026344
1.902523074
1.902032813
1.901935607
1.901867761
1.900429486
1.898887126
1.901301338
1.901569896
1.903102997
1.899874411
1.901150596
1.902377504
1.904187276
1.904081752
1.905730507
1.908974161
1.914174769
1.91859815
1.922835386
1.925617493
1.928238721
1.933388036
1.935325521
1.938626219
1.939508457
1.945128413
1.950059471
1.957875615
1.961520229
1.970899509
1.8977816
1.899506526
1.902174422
1.901046269
1.89895264
1.897673221
1.89514155
1.895838408
1.897692101
1.89536622
1.893555884
1.895117413
1.894243284
1.895694173
1.894331621
1.896075184
1.895331213
1.896687992
1.896395928
1.897767153
1.899323622
1.898657976
1.900486752
1.904286429
1.907832938
1.906834683
1.906931008
1.907336395
1.905420394
1.912459157
1.913106634
1.917229468
1.920704476
1.924262655
1.928150639
1.938521862
1.943419589
1.94830011
1.952758502
1.959539926
1.600647438
2.359296544
2.674722888
2.84794681
2.975664534
3.078228294
3.155771833
3.25170592
3.324294097
3.401729837
3.450991823
3.49434967
3.587407426
3.653047955
3.706884743
3.754332247
3.836639357
3.880480627
3.919672929
3.928570392
4.000798209
4.123886228
4.196928926
4.236089591
4.233441819
4.295714619
4.341642301
4.449334896
4.485430514
4.572133164
4.62828274
4.676212398
4.737746083
4.828273478
4.935392204
5.057515209
5.152083442
5.310400377
5.618017393