/*--------------------------------*- C++ -*----------------------------------*\
| =========                 |                                                 |
| \\      /  F ield         | OpenFOAM: The Open Source CFD Toolbox           |
|  \\    /   O peration     | Version:  v1706                                 |
|   \\  /    A nd           | Web:      www.OpenFOAM.com                      |
|    \\/     M anipulation  |                                                 |
\*---------------------------------------------------------------------------*/
FoamFile
{
    version     2.0;
    format      ascii;
    class       volScalarField;
    location    "0.004";
    object      p_Ar;
}
// * * * * * * * * * * * * * * * * * * * * * * * * * * * * * * * * * * * * * //

dimensions      [1 -1 -2 0 0 0 0];


internalField   nonuniform List<scalar> 
4000
(
1.42819898
1.44505687
1.48122883
1.487815907
1.564673731
1.638389471
1.665244353
1.667198405
1.776543752
1.897830601
2.083425871
2.250472857
2.511445205
2.832748213
3.15857072
3.5761112
4.237312434
5.054888303
5.93499053
7.123218612
8.764144225
10.66545321
12.99154012
15.64460168
19.22298801
23.10900565
27.65621659
32.33290546
37.1131342
41.82758188
45.75188096
49.10297678
51.73783254
53.55527289
55.37910161
56.71772579
57.73916515
58.54461724
59.21853692
59.4326189
1.438766564
1.446596211
1.468610725
1.480567313
1.505921223
1.561177084
1.632068024
1.663067044
1.741353892
1.857653113
1.991590546
2.17935345
2.366782375
2.651177824
3.062211838
3.431389611
3.972287771
4.742692909
5.611873936
6.844168432
8.349994256
10.21422472
12.45666851
15.18879649
18.5872662
22.496339
26.80263892
31.46133367
36.12393752
40.70573676
44.66452536
48.28024265
50.83716778
52.88407356
54.68640055
56.22189228
57.22399061
58.15848049
58.79097596
59.09549494
1.421869371
1.442121765
1.456450587
1.492667725
1.508378004
1.553440923
1.588420699
1.658505303
1.741851444
1.836256198
1.972683613
2.157841209
2.370771169
2.628431545
2.971883152
3.358238989
3.862299068
4.567991322
5.434170789
6.672109261
8.049543967
9.888665526
12.14934776
14.85416069
18.21583164
22.21770936
26.37648735
31.08631664
35.70666545
40.22451305
44.19949827
47.79405449
50.61631988
52.82788353
54.44019347
55.96199101
57.01253201
57.9313438
58.66274984
59.01799881
1.420719893
1.439667631
1.455363671
1.47162204
1.507511827
1.548038415
1.59445375
1.64404741
1.710828169
1.813509454
1.947416481
2.105010634
2.334300199
2.591382308
2.851829633
3.273303393
3.772147639
4.416668523
5.298866755
6.484477133
7.854924243
9.595981523
11.87985171
14.73283522
17.85407954
21.71697753
26.07387388
30.65138227
35.36746661
40.09087098
44.03924913
47.41605115
50.27928223
52.57638851
54.38142542
55.80772436
56.8716029
57.82841138
58.4709226
58.79024345
1.417733152
1.436502645
1.46015472
1.490960828
1.501530451
1.528159507
1.574460592
1.6211506
1.685630644
1.815916511
1.9316543
2.089556868
2.263680889
2.485526847
2.775505674
3.173057942
3.720501634
4.366109006
5.339199077
6.400369787
7.718119884
9.438987068
11.71580947
14.45956425
17.74296936
21.49035969
25.81782577
30.30522018
35.09032702
39.6537669
43.77132462
47.12963635
49.96622398
52.32767829
54.02834863
55.53600378
56.83679465
57.75181189
58.45831743
58.88521887
1.411863299
1.434601245
1.449221032
1.466381197
1.490920117
1.510926493
1.548580973
1.615430355
1.703048527
1.787465981
1.881103743
2.041869917
2.217468762
2.470137267
2.734707051
3.115175209
3.634857623
4.254636758
5.14146659
6.279171761
7.587062489
9.345552096
11.56024163
14.2640734
17.4633952
21.1825388
25.38229658
30.07223565
34.80997005
39.41397346
43.40067574
47.0470087
49.89812172
52.16897871
54.04087621
55.39412474
56.51524877
57.49296471
58.23032652
58.54459406
1.410157918
1.423971912
1.443653301
1.458106178
1.482239184
1.507847285
1.552491226
1.602382817
1.68413238
1.76764982
1.890596444
2.020584765
2.191287587
2.396150086
2.711029121
3.081392289
3.591344552
4.191154746
5.007105509
6.024114916
7.378842455
9.129696437
11.19959377
13.80773947
17.05989966
20.68891283
24.87909465
29.49929031
34.27631243
38.76452928
42.91253226
46.65859505
49.61400897
51.81928272
53.64927293
55.05042176
56.30098809
57.15296033
58.13395202
58.55899608
1.413928707
1.437485058
1.465656163
1.471843265
1.478104632
1.502403433
1.544426892
1.595710397
1.661400792
1.75852446
1.854355506
2.009095759
2.168386548
2.363205962
2.698965409
3.021449954
3.468067175
4.135915092
4.98487131
5.996390603
7.322046607
8.907834811
10.92895824
13.48311069
16.62125186
20.28173433
24.41328036
28.94872435
33.64344554
38.21542003
42.4544347
46.15526602
49.03561629
51.49526464
53.42019408
54.93187618
56.08106404
57.07771698
57.95110702
58.24704766
1.416013126
1.419615036
1.441258597
1.454095917
1.478645632
1.51322767
1.574516991
1.604049924
1.661396443
1.749692097
1.838118897
1.982346841
2.148701162
2.326306963
2.610317581
2.992419572
3.455841133
4.00808141
4.796768592
5.777946448
7.12063946
8.737406051
10.69728092
13.16957366
16.20174136
19.9134351
23.92119173
28.33544773
33.03961636
37.60028404
41.75690205
45.55451823
48.78769246
51.11374004
53.03716383
54.61460702
55.8309569
56.92182888
57.65616966
58.28610685
1.409406742
1.417837444
1.441851412
1.456963124
1.471105081
1.510116123
1.554827448
1.593102563
1.656585704
1.746562998
1.840935571
1.961212495
2.131114342
2.328999347
2.603646408
2.924157301
3.366582058
3.906056402
4.659612948
5.644489145
6.865870825
8.418742021
10.37525892
12.80243989
15.85959024
19.28581298
23.19663504
27.67907177
32.21873268
36.84871522
41.11964083
44.82973233
48.08315191
50.58010542
52.59250083
54.27172898
55.50413847
56.55848737
57.43412063
58.01811102
1.407849313
1.423230114
1.43334333
1.450612498
1.473089072
1.514800359
1.548097849
1.594074843
1.663892975
1.735608193
1.829407432
1.938989476
2.088130798
2.300959978
2.540076238
2.829562164
3.245033378
3.79233852
4.495155167
5.388661036
6.596990445
8.11391186
10.03195069
12.36268607
15.30585535
18.74217458
22.5977391
26.83364677
31.47252495
36.08399066
40.32816958
44.23102145
47.42667396
49.9028679
52.05121091
53.8444927
55.13303435
56.33221435
57.1803501
57.66356308
1.417033611
1.430844528
1.444837793
1.452946737
1.485824047
1.511028807
1.543550066
1.564369563
1.637016903
1.717500869
1.800646478
1.906663747
2.048204196
2.276776798
2.502430098
2.825529552
3.160813682
3.699051315
4.420193726
5.226248727
6.386710809
7.901968861
9.679538536
11.90199572
14.71718654
18.04049862
21.77827978
26.02749486
30.49638203
35.16485733
39.57806966
43.35795292
46.73601652
49.38941236
51.45527341
53.27452601
54.65181748
55.83563742
56.78777326
57.28631828
1.403102055
1.412007372
1.431351473
1.453168919
1.478336023
1.504760308
1.527598779
1.561415455
1.618089438
1.694157395
1.768557988
1.885391581
2.00344142
2.217413268
2.456409916
2.720972103
3.079820296
3.64431364
4.285642252
5.066229545
6.155687958
7.61539076
9.262021289
11.39710129
14.10163942
17.30772258
21.04259881
25.05820708
29.55375951
34.22004716
38.54178504
42.3697805
45.74539515
48.58716947
50.77709042
52.52281121
54.00914073
55.2972674
56.47766311
56.91388685
1.40609161
1.415313881
1.426648748
1.444966973
1.466728914
1.489346751
1.521748646
1.571126172
1.609297208
1.683908144
1.766064409
1.857868668
2.001540737
2.178846289
2.390140779
2.669219587
3.000279521
3.513187717
4.145552713
4.965809976
5.97395377
7.29714559
8.934973485
10.86308949
13.49220017
16.53816863
20.15361242
24.06896178
28.46431094
33.00887111
37.42445843
41.39485301
44.87227276
47.68615367
49.85897143
51.74405887
53.28785344
54.50241758
55.61637505
56.53335608
1.408703669
1.42051855
1.431502027
1.452232925
1.470998859
1.497397983
1.525702275
1.5602586
1.60029151
1.65279464
1.746196772
1.837216135
1.979743422
2.134475329
2.327656256
2.587034546
2.963018576
3.404038811
3.976243414
4.745919854
5.690039925
6.877327769
8.457190539
10.38945394
12.77710081
15.6949822
19.06188956
23.09040746
27.38196212
31.71504225
36.02048377
40.20217698
43.63678639
46.6524568
49.04154931
50.73804546
52.28803044
53.8646461
55.00422615
56.02811847
1.408559799
1.410875455
1.432073974
1.449392758
1.472327208
1.493138596
1.520777758
1.545984775
1.59817084
1.66013262
1.730547508
1.811492841
1.930957599
2.075784211
2.276639169
2.526274452
2.897670687
3.294702693
3.875041204
4.562751804
5.454080776
6.55006075
8.030268627
9.885978373
12.14268037
14.87923095
18.16535054
21.87772682
26.08846856
30.36812395
34.658249
38.75631381
42.3420634
45.31973708
47.65781932
49.59453336
51.21804091
52.64465405
54.06212743
55.22565647
1.407058932
1.420366471
1.4213024
1.446359356
1.468024999
1.483169521
1.514552185
1.539508244
1.587494838
1.649545336
1.71706298
1.795597905
1.896755379
2.082573678
2.245521672
2.468035485
2.816248004
3.163089471
3.685196983
4.384040121
5.225552883
6.279981844
7.667519092
9.401003451
11.46585144
14.06934365
17.25984149
20.7861874
24.82264569
29.0039563
33.22246559
37.22490111
40.68950591
43.72092228
46.27257233
48.12313092
49.97723183
51.21694667
52.75619096
54.08151534
1.401243356
1.41554803
1.414867484
1.431089277
1.456440533
1.477265175
1.501633784
1.540650885
1.582228728
1.633439036
1.712701532
1.776453186
1.893030292
2.006291568
2.207268017
2.431796893
2.674004489
3.09866406
3.580787872
4.180388283
4.964950526
5.925009194
7.261902749
8.781465739
10.81930071
13.25608102
16.16988177
19.60052564
23.415229
27.41149091
31.57789818
35.57310444
39.07795364
42.11982146
44.5823227
46.4285613
48.04711064
49.44691966
50.85172667
52.4137565
1.400453738
1.413393969
1.416899921
1.42852569
1.445954393
1.466777332
1.497155187
1.530271269
1.553791321
1.607944885
1.675094152
1.758777489
1.872854264
1.981446868
2.124836002
2.351722881
2.61264651
2.951211589
3.416601081
3.984624902
4.706214213
5.706329751
6.812813397
8.329912589
10.19123342
12.38115978
15.16483504
18.37092452
21.98939718
25.90829874
29.71291548
33.77919309
37.34859374
40.36567252
42.71515591
44.46115731
45.80683439
46.83984465
47.87123984
49.77079443
1.403736997
1.40640497
1.414992915
1.422688147
1.438349482
1.461756213
1.496504552
1.528035737
1.548117533
1.598028237
1.670912595
1.712477561
1.811534141
1.950968252
2.081654916
2.279321269
2.539011121
2.854787851
3.247248382
3.766069421
4.465213653
5.264615141
6.360107982
7.762876029
9.424777207
11.46008499
14.17586606
17.15847001
20.56168505
24.17181914
27.99069459
31.86654769
35.29028564
38.27178243
40.53255763
42.09505916
42.94833797
43.21916747
42.9819461
43.98051722
1.397721111
1.405988449
1.413992213
1.428710434
1.445691564
1.45831471
1.484027866
1.505408521
1.535989848
1.571615541
1.630332909
1.68935575
1.766866092
1.898632442
2.055476398
2.227645357
2.465415337
2.732798581
3.083010346
3.592525001
4.217049752
4.936393978
5.94108196
7.170376737
8.734389385
10.62735683
13.06981644
15.98017367
19.12686148
22.4757883
26.24255227
29.8597621
33.0798656
35.99484037
38.12855773
39.39118769
39.86068229
39.10099701
36.26946603
28.69558501
1.401868308
1.410641522
1.411846178
1.429953866
1.445436493
1.454068851
1.471884099
1.490534235
1.526470039
1.574739753
1.60693727
1.656360121
1.751285295
1.86064149
1.993809776
2.157266174
2.370363118
2.633672293
2.934140501
3.382013696
3.954534787
4.62842402
5.610407608
6.678819068
8.08742587
9.912261794
12.02515862
14.67134874
17.56665157
20.82525035
24.37018486
27.74679631
30.92692868
33.55608002
35.5943743
36.75678463
36.80923317
35.23953635
31.40366346
24.31182649
1.400517213
1.404432251
1.411986382
1.422764281
1.428962224
1.448096301
1.469254916
1.499485906
1.524907514
1.550038445
1.58737459
1.653241303
1.734589484
1.836519434
1.958333332
2.109964269
2.268327609
2.52165565
2.825047639
3.184325946
3.702311427
4.374618781
5.195738856
6.162617103
7.53236876
9.142973394
11.07187572
13.42461675
16.17772732
19.21488254
22.42995018
25.68185022
28.67300292
31.34682828
33.14749403
34.04495037
33.86271076
32.19248295
28.69259236
23.27226896
1.393707426
1.408511055
1.417350332
1.430486736
1.431441593
1.441682886
1.463864677
1.473855239
1.509611421
1.553284457
1.581413072
1.638668434
1.708306186
1.798359284
1.908134546
2.042551612
2.189667838
2.420841499
2.691145786
3.061820866
3.50762216
4.161454413
4.833657416
5.740031661
6.934616166
8.36717835
10.17942892
12.25441657
14.79629948
17.57085446
20.4951714
23.51605915
26.42142521
28.90070911
30.74049467
31.68142119
31.51503194
29.88183522
26.82695277
22.71134601
1.397825464
1.40235187
1.411824474
1.428777783
1.441463122
1.447226368
1.455322725
1.466993972
1.490813868
1.535555546
1.576807251
1.60038143
1.674136794
1.757506252
1.868429723
1.995820046
2.151573242
2.345147762
2.624978311
2.916769332
3.356377572
3.897718101
4.477320244
5.335618651
6.436341682
7.668065408
9.253181055
11.17380854
13.44999224
15.86625307
18.67810807
21.52881208
24.10783409
26.56432841
28.46384267
29.37925527
29.36152715
28.03823892
25.61209705
22.31893855
1.39641395
1.400016523
1.409702246
1.418567083
1.431189918
1.439543199
1.453290507
1.474955476
1.491380096
1.505900828
1.550996911
1.607381008
1.674276568
1.750024651
1.836592208
1.933461506
2.094110888
2.264916684
2.470176058
2.745811212
3.168287231
3.57808985
4.218587623
4.953387896
5.893272841
6.995567814
8.440022257
10.17469892
12.12666509
14.37077173
16.89534594
19.39471572
21.98539845
24.29960104
26.09310763
27.23712897
27.31040071
26.39353578
24.61953098
22.0151631
1.392436873
1.404413243
1.41110342
1.410913823
1.424536625
1.435005201
1.449991121
1.463711608
1.486970033
1.509665871
1.554646376
1.584435228
1.638975426
1.704545825
1.790119127
1.896182828
2.021325669
2.191140293
2.377707187
2.623409664
2.947748365
3.379530887
3.88620727
4.516112051
5.385123721
6.457828686
7.699387062
9.18003149
10.8911801
12.93907119
15.13091083
17.4372005
20.01010942
22.05790399
23.88564737
25.07652414
25.48337284
24.96525982
23.5155327
21.69543572
1.386145901
1.394669296
1.403241414
1.421421372
1.43145834
1.441966001
1.439773283
1.455722749
1.470089782
1.502724945
1.524029485
1.552756983
1.60439314
1.680144245
1.757107729
1.841589825
1.957259093
2.090566894
2.26752761
2.498579996
2.782482139
3.174270574
3.631435553
4.186221434
4.928102084
5.900367831
6.917592766
8.237390793
9.778552423
11.53319115
13.51839029
15.66515677
17.81018542
19.88833436
21.73892244
23.05108807
23.64262609
23.5229034
22.67621596
21.11745524
1.394433162
1.404663991
1.408377998
1.409755008
1.419515573
1.42163662
1.42761618
1.44580406
1.453446513
1.478056608
1.504477439
1.537150483
1.579164985
1.665121347
1.729742635
1.800578842
1.901220434
2.026533136
2.185333043
2.406833416
2.648200286
2.981990627
3.375848164
3.837001041
4.527987377
5.315862627
6.249241767
7.398759103
8.696928618
10.32363102
12.09883271
13.92279631
15.94825185
17.96906175
19.74189095
20.99651283
21.73299078
21.98576109
21.60214839
20.60270201
1.391298604
1.394860217
1.397069537
1.408958851
1.411128486
1.421825771
1.424620073
1.437198171
1.443636291
1.467317352
1.502769956
1.532272481
1.56969799
1.6187521
1.687407083
1.754327051
1.856262423
1.96337185
2.10672597
2.285869269
2.495712224
2.799871361
3.129356274
3.550946135
4.144995268
4.827611086
5.681201177
6.661566439
7.788951076
9.162900775
10.69930957
12.3768847
14.29769539
16.16069025
17.74810203
19.03442643
20.03839314
20.50704006
20.44118219
19.89704717
1.391041844
1.396397797
1.400249894
1.411876375
1.413148122
1.410886463
1.423840964
1.436688449
1.449711285
1.458910119
1.487633542
1.522964536
1.553793204
1.602504295
1.660351149
1.719616451
1.813631199
1.909633653
2.026879764
2.196202726
2.408468545
2.632448919
2.940353794
3.329263588
3.814229236
4.419321011
5.111967711
5.941781842
6.943998892
8.14193851
9.457007383
11.0675829
12.75186351
14.2864488
15.90339018
17.28131861
18.26326641
18.98811207
19.29234288
18.9957938
1.386691842
1.392582063
1.400217216
1.400827097
1.405754042
1.413927308
1.418675995
1.430288301
1.439127715
1.465295022
1.490446077
1.512929077
1.5371266
1.572751304
1.613904488
1.675872452
1.757974352
1.833743569
1.983392207
2.116696383
2.292844531
2.519084439
2.77622672
3.085349899
3.533439283
3.98157935
4.630422555
5.321622118
6.226897832
7.275291933
8.429964556
9.78893077
11.24332615
12.74076469
14.13036597
15.59239724
16.62279975
17.47400419
17.92408749
17.92043455
1.387741291
1.392913357
1.398639004
1.399669965
1.403266053
1.408517687
1.420405192
1.424078825
1.437838688
1.455514362
1.461137078
1.499249524
1.524313286
1.548909881
1.595609351
1.662790313
1.716977879
1.800759491
1.91162591
2.021791192
2.187812467
2.373068833
2.605687129
2.900797492
3.261548944
3.65868849
4.181320779
4.781940872
5.613040709
6.458962009
7.475854391
8.694918263
9.917540947
11.29101614
12.54937966
13.93825119
15.01207237
15.88801248
16.56426926
16.8165597
1.389334362
1.389850506
1.392767517
1.397239045
1.398082539
1.398671095
1.404829991
1.410691278
1.426523877
1.43723383
1.458656861
1.485398767
1.501946687
1.530718615
1.583951356
1.629588315
1.674386476
1.765613921
1.87192372
1.969923725
2.086504828
2.24510904
2.469807122
2.707222587
2.996972777
3.387875116
3.817530774
4.332723904
4.991643207
5.761829286
6.642904272
7.599718229
8.746376876
9.935003985
11.18654348
12.33467387
13.50837098
14.46541293
15.16132617
15.71241879
1.388097143
1.392577222
1.397915179
1.393189269
1.40090474
1.400584628
1.404552768
1.418233893
1.421111701
1.434437488
1.449063105
1.467323383
1.495568012
1.516544172
1.565764861
1.598908611
1.643273474
1.725688963
1.80874623
1.894734789
1.983735822
2.134762344
2.340375055
2.542620287
2.784298676
3.077257023
3.441376535
3.971770748
4.450169972
5.101659692
5.882643165
6.741507557
7.700265479
8.762315483
9.863860869
10.97135708
12.04353216
13.02911951
13.82402048
14.50552863
1.388211616
1.392565679
1.388750895
1.393406935
1.40019072
1.404232348
1.412747227
1.420646973
1.427051235
1.443531531
1.452452342
1.465978053
1.485582342
1.516117327
1.54043071
1.581984172
1.621737879
1.689612667
1.761176072
1.831051907
1.922213988
2.057513272
2.214157526
2.380000743
2.606682803
2.852066415
3.197064131
3.600778845
4.023810824
4.584814516
5.166164933
5.949064891
6.820447531
7.749489508
8.726131189
9.760718535
10.70699161
11.64828707
12.48084782
13.24833497
1.390628254
1.3930252
1.396212993
1.400199354
1.403487185
1.406555275
1.410372686
1.417720425
1.434548376
1.445645159
1.452632587
1.463399466
1.475993255
1.497579133
1.528077729
1.552476483
1.589375414
1.668975616
1.723880913
1.775703948
1.857966021
1.990463124
2.10231012
2.239161113
2.432588956
2.664774535
2.935527469
3.300327405
3.667233807
4.108953213
4.667412193
5.242048644
5.981280992
6.806189449
7.643026182
8.554534139
9.490789329
10.3660073
11.25879177
12.05738293
1.38465841
1.387651579
1.394079106
1.399232207
1.395555919
1.400786543
1.407247533
1.411257753
1.425498633
1.429808159
1.441623646
1.449871729
1.465089686
1.483858351
1.496699448
1.537294733
1.575949465
1.618904489
1.655104345
1.702736282
1.785433856
1.89858059
2.006927223
2.158208724
2.292804098
2.464318039
2.725010866
3.008531232
3.358039025
3.714683884
4.167720864
4.71544867
5.293630736
5.986565935
6.739192884
7.529392635
8.383710454
9.19439487
10.03789267
10.84334193
1.382407315
1.38848941
1.389811711
1.3976015
1.395247721
1.395666351
1.405311852
1.412943315
1.412692642
1.42308462
1.433804913
1.448755882
1.453828669
1.470274951
1.487995226
1.527998925
1.546553213
1.591122873
1.637179506
1.691719207
1.757646236
1.843494986
1.93465994
2.059665396
2.19851589
2.338426302
2.53300788
2.781038926
3.067337942
3.389671556
3.77166967
4.211897917
4.712042159
5.325492041
5.986313853
6.618940575
7.38882336
8.113540132
8.885763174
9.646890194
1.390087531
1.395080819
1.394419817
1.394761804
1.395123727
1.396086697
1.404518838
1.406345762
1.405270639
1.417152102
1.418121339
1.434611029
1.444607895
1.454919392
1.478057667
1.50795915
1.53379958
1.555684725
1.60699208
1.647417961
1.709669462
1.767595053
1.852382524
1.963002137
2.079189357
2.210256166
2.377031134
2.58427125
2.810677495
3.069856628
3.391081016
3.789330565
4.182000092
4.698115512
5.256158133
5.861833089
6.50194296
7.177352297
7.855314782
8.518098773
1.387413581
1.388989833
1.385166195
1.392860212
1.393172908
1.391185096
1.398864751
1.402238971
1.410954148
1.416166722
1.427368131
1.437538132
1.441404095
1.457760371
1.476032318
1.48916715
1.510573049
1.539853988
1.578308541
1.618986444
1.676462827
1.733929491
1.783678638
1.873928753
1.983842901
2.08826214
2.242059799
2.421696364
2.616433298
2.815541821
3.092070419
3.456356445
3.798713827
4.220354475
4.648273522
5.161987425
5.734005811
6.356588993
6.930507283
7.574427216
1.381725892
1.379122285
1.382233683
1.385265773
1.390702201
1.398431737
1.397526581
1.404303883
1.41168327
1.42012606
1.427994959
1.437056446
1.450067271
1.457910686
1.480125918
1.483308331
1.51034489
1.539988394
1.558039223
1.583318874
1.632270037
1.673452884
1.734877397
1.811139718
1.893086915
1.995950714
2.124390568
2.271628922
2.39900117
2.610045299
2.826030596
3.137273786
3.427015857
3.757715703
4.155636997
4.625828216
5.071816581
5.649252607
6.139525831
6.731851101
1.38085419
1.385233198
1.390939703
1.387519973
1.394657519
1.39564655
1.401253572
1.404932384
1.403395184
1.411341951
1.41670192
1.421288205
1.429981939
1.448743973
1.454592803
1.468461991
1.491941156
1.513004969
1.534294522
1.571411976
1.604009061
1.632748379
1.691280625
1.74239936
1.823078614
1.903823185
2.031224942
2.111678842
2.275991926
2.430429532
2.61041702
2.857719986
3.121029899
3.399966115
3.709478764
4.105232617
4.520591522
4.961117329
5.425464824
5.940960055
1.386485118
1.38601076
1.384893847
1.390169151
1.392536168
1.392001443
1.395339615
1.399673933
1.398119806
1.403555867
1.414158076
1.418630095
1.425880629
1.43383317
1.439856816
1.46494244
1.475714995
1.48913242
1.525679383
1.545982418
1.573015332
1.606379082
1.654750626
1.696298475
1.772261394
1.829358304
1.941134355
2.036299228
2.150681136
2.289002651
2.434042738
2.626295213
2.835964443
3.082934241
3.380913548
3.63809072
4.008292484
4.377449664
4.788242334
5.247781317
1.382074034
1.384980837
1.387700645
1.394897186
1.394300566
1.394995739
1.398920627
1.403869406
1.401294623
1.399365313
1.411922393
1.409498425
1.419814661
1.428953775
1.436958173
1.441876819
1.462824322
1.479303496
1.501008233
1.526444617
1.550163863
1.567313714
1.615552754
1.657328987
1.722716349
1.771254298
1.864282136
1.946960344
2.039724127
2.157555451
2.274978226
2.450411674
2.624669817
2.829870285
3.054248124
3.2880682
3.596456375
3.923515778
4.283441947
4.64935739
1.384132034
1.386321708
1.386468193
1.386987516
1.392290154
1.397692209
1.392396811
1.394897131
1.401686823
1.408256968
1.411860208
1.41446133
1.42478893
1.429712983
1.431811218
1.438101227
1.454113286
1.469600667
1.48301864
1.49916361
1.526755911
1.551900361
1.59220886
1.617792382
1.682764823
1.703157339
1.776291039
1.853758992
1.934050548
2.019230589
2.146084662
2.287850237
2.42930801
2.602269593
2.79759807
3.004496345
3.246601697
3.536131939
3.835981796
4.136889941
1.381702173
1.383044883
1.380911492
1.383147757
1.38508756
1.387746935
1.388734583
1.391180728
1.392265436
1.397545874
1.397460194
1.395493439
1.401337359
1.409813041
1.419566452
1.438781977
1.453818885
1.461397649
1.467755194
1.483418414
1.520893491
1.540015531
1.567559813
1.584220523
1.629960622
1.6753898
1.729044226
1.799398396
1.856416954
1.934113213
2.039860654
2.141087706
2.268169863
2.408444778
2.588070721
2.727333988
2.937752565
3.179515256
3.447347433
3.721692205
1.380880287
1.381867106
1.381354871
1.382071601
1.38827428
1.387704694
1.38489551
1.391060034
1.399793056
1.393212634
1.394997924
1.402305434
1.409805805
1.413219622
1.418339596
1.440406081
1.448244603
1.45699858
1.451651103
1.476347891
1.491718459
1.524274323
1.54465747
1.559002917
1.602334405
1.635431426
1.664480359
1.73520872
1.794030175
1.860951217
1.934352966
2.033918676
2.142921085
2.253334043
2.39554618
2.522934419
2.704082332
2.874827838
3.124794341
3.35794868
1.386837998
1.385612863
1.386957342
1.38643855
1.387165214
1.386847489
1.38692375
1.380054392
1.389287729
1.391891814
1.394086726
1.401811035
1.408192351
1.41584827
1.420353724
1.421417441
1.424636877
1.431328329
1.446578744
1.453777865
1.469044244
1.493350064
1.512134962
1.534661347
1.556425065
1.588968014
1.619769752
1.681740454
1.720793602
1.797514941
1.870917723
1.937673012
2.004228216
2.128496171
2.231363433
2.362005968
2.492103782
2.658915473
2.854671284
3.033421262
1.385575777
1.382632381
1.381848424
1.387048975
1.387011246
1.385649076
1.388762792
1.395891641
1.397790139
1.398892653
1.394945061
1.398903639
1.403331105
1.404105902
1.408677351
1.417460798
1.416685303
1.433530804
1.43327544
1.448313725
1.457964142
1.481355569
1.49044366
1.504431075
1.536544029
1.567215481
1.585790644
1.641198217
1.69434556
1.747957226
1.792851386
1.863026486
1.921178267
2.016090673
2.096664087
2.207968295
2.332271735
2.46106166
2.615616456
2.769000559
1.382150478
1.383458173
1.386292498
1.386730024
1.388816004
1.389826274
1.385360302
1.387879917
1.385958051
1.384418377
1.388950488
1.394682283
1.397936638
1.403840167
1.411459798
1.411839609
1.423422056
1.434918714
1.442615484
1.453561036
1.459946052
1.468973959
1.47653531
1.494748
1.519714649
1.539681961
1.56521773
1.601768999
1.643614264
1.686184121
1.731770306
1.792246962
1.843238957
1.916404313
1.985498059
2.088762459
2.176635403
2.266821497
2.418011643
2.53719191
1.382674522
1.38266813
1.383916752
1.380712207
1.381312706
1.378981596
1.378885969
1.384254547
1.388239
1.389988843
1.38847324
1.39642872
1.399493219
1.401843052
1.402768244
1.403995401
1.413545764
1.424235401
1.426083725
1.432643464
1.44003763
1.453346402
1.471545061
1.485285909
1.491225992
1.510862645
1.53669828
1.574425235
1.593386798
1.633125952
1.682946243
1.720672082
1.771030656
1.829036653
1.901462615
1.97310724
2.063922958
2.148472188
2.253562274
2.362498846
1.376169321
1.375924688
1.378415932
1.382023104
1.382328821
1.381973011
1.383786086
1.385679597
1.386992099
1.384180428
1.38925611
1.389086693
1.391794114
1.394611385
1.398723142
1.399083055
1.408051947
1.416047296
1.424617528
1.432169503
1.437313198
1.44920498
1.460995746
1.474513042
1.48327726
1.499377825
1.525840801
1.544024606
1.565129233
1.590999438
1.644362168
1.667898477
1.706662278
1.747436412
1.808639495
1.866297944
1.926615489
2.008558072
2.111519236
2.208174171
1.377122405
1.377119649
1.378362119
1.376037836
1.37943151
1.380853146
1.385033407
1.389287819
1.388768579
1.388802955
1.3876884
1.391415094
1.396596097
1.398018409
1.399101663
1.40274813
1.406919372
1.413300623
1.420076583
1.422769698
1.433144857
1.440718435
1.441333777
1.459239407
1.470655101
1.484636618
1.517463537
1.525462948
1.542755056
1.553872185
1.591759309
1.627873188
1.659412997
1.705502688
1.751601285
1.813373506
1.849530443
1.922814467
1.986135175
2.056223557
1.380759494
1.384210647
1.385017983
1.386306138
1.386668133
1.387633179
1.389282817
1.387526879
1.38560517
1.387063656
1.391244734
1.39331333
1.391053437
1.392917948
1.394018267
1.395738386
1.400032787
1.408925575
1.416127966
1.419612371
1.426087792
1.435547018
1.446179442
1.45354174
1.455942404
1.459099804
1.482033571
1.505253597
1.509897464
1.537765853
1.55416279
1.592646184
1.617813597
1.665042267
1.702468027
1.757326637
1.792655882
1.84718495
1.905923885
1.959742583
1.382209639
1.380858751
1.381034159
1.381766659
1.385157412
1.386908859
1.386027908
1.384573578
1.386843875
1.386662153
1.388542586
1.386666249
1.391524296
1.389746837
1.394920193
1.395954872
1.399472047
1.404531927
1.409185082
1.410302146
1.420221589
1.429528502
1.436185295
1.44050327
1.444832661
1.448571385
1.459529558
1.483644024
1.494525678
1.514592677
1.537808398
1.561056864
1.581323068
1.608990913
1.64459585
1.692362058
1.726262234
1.773991756
1.821510721
1.878802008
1.38354824
1.386002333
1.385511626
1.38131791
1.381815572
1.380862203
1.379397448
1.379217656
1.383317864
1.385842924
1.385403282
1.388531417
1.39041126
1.390162295
1.392696556
1.393371172
1.398147416
1.40319533
1.398189966
1.39755835
1.402112154
1.408907612
1.419923796
1.429078554
1.434370228
1.447104155
1.450176754
1.466681266
1.477088627
1.499505983
1.514600559
1.532988219
1.550209561
1.571049859
1.602055387
1.646170142
1.674063379
1.715731444
1.763172595
1.79947405
1.385255275
1.382673315
1.384369709
1.384278954
1.383516126
1.382701041
1.382700562
1.385109928
1.385755355
1.384329285
1.387960417
1.384175161
1.3842158
1.386662994
1.384105367
1.385044285
1.388365437
1.393721714
1.396313397
1.399478189
1.4011788
1.40786639
1.414017705
1.417742217
1.429322437
1.427618537
1.441098302
1.456478552
1.470841711
1.484023328
1.498573367
1.507413537
1.526300033
1.534907908
1.561871283
1.601491802
1.631563797
1.660753101
1.687103042
1.731702737
1.382445149
1.38734244
1.39171812
1.390715554
1.388843906
1.391204996
1.389026029
1.386833159
1.384937681
1.381835203
1.37928358
1.381238445
1.383638114
1.385554655
1.388161812
1.389681154
1.393459419
1.390020515
1.391265276
1.397600985
1.398642919
1.401357955
1.410825186
1.417489378
1.42567686
1.426763773
1.438918928
1.438877258
1.442643684
1.456340967
1.471217526
1.482229314
1.49338009
1.510489306
1.523972799
1.554545423
1.581003743
1.613100121
1.646913226
1.68141244
1.378256617
1.376855129
1.374117105
1.376870242
1.379161034
1.381392332
1.380893581
1.381832458
1.383069202
1.384297008
1.384632149
1.383813476
1.382379075
1.384873416
1.387838484
1.389979086
1.394912351
1.40330673
1.40148759
1.400811954
1.39763958
1.402176149
1.401814668
1.405441385
1.410979237
1.415506506
1.422278025
1.436911555
1.44090965
1.456076705
1.460642396
1.473906066
1.483068337
1.496968611
1.501632863
1.525066479
1.541658888
1.568782776
1.581837441
1.617737868
12.52599142
8.334816425
7.295613305
6.812742079
6.494662187
6.246766346
6.066889926
5.884817281
5.737768661
5.602676099
5.528746265
5.427421649
5.302984479
5.186592891
5.098779008
5.040524603
4.969936677
4.92213545
4.894640017
4.853947298
4.739059076
4.597431241
4.5449773
4.514670001
4.464064928
4.433194314
4.364178617
4.279811937
4.225592626
4.185130983
4.13929979
4.083361874
4.024206864
3.917146429
3.819743308
3.713247888
3.646029521
3.540465421
3.300687081
2.776346119
16.03727279
11.12229818
8.923104297
7.885265746
7.266801171
6.866156032
6.513647028
6.281978172
6.109089969
5.9357171