/*--------------------------------*- C++ -*----------------------------------*\
| =========                 |                                                 |
| \\      /  F ield         | OpenFOAM: The Open Source CFD Toolbox           |
|  \\    /   O peration     | Version:  v1706                                 |
|   \\  /    A nd           | Web:      www.OpenFOAM.com                      |
|    \\/     M anipulation  |                                                 |
\*---------------------------------------------------------------------------*/
FoamFile
{
    version     2.0;
    format      ascii;
    class       volScalarField;
    location    "0.004";
    object      rhoM_Ar;
}
// * * * * * * * * * * * * * * * * * * * * * * * * * * * * * * * * * * * * * //

dimensions      [1 -3 0 0 0 0 0];


internalField   nonuniform List<scalar> 
4000
(
6.633549917e-05
6.638623976e-05
6.648221364e-05
6.654485e-05
6.679576257e-05
6.684378623e-05
6.708581369e-05
6.712531939e-05
6.753241899e-05
6.777062806e-05
6.802021889e-05
6.84077125e-05
6.913798045e-05
6.994101819e-05
7.052090014e-05
7.141469818e-05
7.262277945e-05
7.452676313e-05
7.652929076e-05
7.892665506e-05
8.285049601e-05
8.752935103e-05
9.330386499e-05
0.0001006692543
0.0001113722141
0.000123860567
0.0001402206986
0.0001589229012
0.0001802469456
0.0002027135711
0.0002242795696
0.0002444800514
0.0002646643051
0.0002848684585
0.0003087364348
0.0003373189534
0.0003741826152
0.0004258446117
0.0005076856564
0.0006515555653
6.640200268e-05
6.641076358e-05
6.64206128e-05
6.636543542e-05
6.634573699e-05
6.649499887e-05
6.657645896e-05
6.664529465e-05
6.662635803e-05
6.682176431e-05
6.714863858e-05
6.755180347e-05
6.789092125e-05
6.836863545e-05
6.916446303e-05
6.983905273e-05
7.099745119e-05
7.229362984e-05
7.403100986e-05
7.664050807e-05
7.985565148e-05
8.400897356e-05
8.969191705e-05
9.716083365e-05
0.0001070163623
0.0001201348113
0.0001357488122
0.0001547437608
0.0001756652923
0.0001976015108
0.0002188919798
0.0002406548303
0.0002612942715
0.0002813855848
0.0003051892365
0.0003346500931
0.0003716017958
0.0004250403795
0.000506719061
0.0006507683685
6.631518466e-05
6.625669637e-05
6.627975627e-05
6.644804112e-05
6.654934745e-05
6.651318533e-05
6.649840604e-05
6.65271785e-05
6.670395359e-05
6.685227066e-05
6.714874758e-05
6.743662945e-05
6.771575905e-05
6.819844465e-05
6.867457915e-05
6.940264304e-05
7.035648429e-05
7.168337182e-05
7.331962885e-05
7.587581861e-05
7.879551622e-05
8.295756587e-05
8.848083086e-05
9.57683353e-05
0.0001057229791
0.0001185285076
0.0001338287503
0.0001530926227
0.0001731947225
0.0001951874194
0.0002171550126
0.0002385168117
0.0002596762601
0.0002802639804
0.0003035726638
0.0003330522809
0.0003713237465
0.0004242097371
0.0005053588304
0.0006498790406
6.636427057e-05
6.635154446e-05
6.637492739e-05
6.629919153e-05
6.634466409e-05
6.652184668e-05
6.667466343e-05
6.672267086e-05
6.680373513e-05
6.699410942e-05
6.721200521e-05
6.753791772e-05
6.790102564e-05
6.836340754e-05
6.886215714e-05
6.950301494e-05
7.026151164e-05
7.145476527e-05
7.316922026e-05
7.554196678e-05
7.843337977e-05
8.223910668e-05
8.762080162e-05
9.520623417e-05
0.0001043801539
0.0001169193531
0.0001324678629
0.0001505459193
0.0001715538256
0.000194178465
0.00021648102
0.0002374161392
0.0002579280895
0.0002791334575
0.000303261019
0.0003320930501
0.0003704303452
0.0004231457104
0.0005039634247
0.0006478401394
6.637185632e-05
6.651727742e-05
6.659911213e-05
6.671877997e-05
6.679840432e-05
6.675625328e-05
6.672104174e-05
6.682950357e-05
6.702992664e-05
6.71622398e-05
6.73076095e-05
6.749749481e-05
6.773122749e-05
6.821216062e-05
6.868075686e-05
6.928968523e-05
7.02848611e-05
7.146483331e-05
7.326488851e-05
7.531990611e-05
7.806938787e-05
8.188575367e-05
8.749754833e-05
9.464472047e-05
0.0001040817738
0.0001158833978
0.0001313504664
0.0001498848973
0.0001708802809
0.0001931721176
0.0002152296047
0.0002357907297
0.0002563094981
0.0002781210184
0.0003017120839
0.000329956676
0.0003693833232
0.000422962132
0.0005029415276
0.0006481761881
6.629550584e-05
6.633857546e-05
6.629023097e-05
6.636484741e-05
6.639536999e-05
6.641549646e-05
6.649098351e-05
6.668743422e-05
6.682780736e-05
6.700315856e-05
6.726301019e-05
6.755850565e-05
6.78755103e-05
6.825985924e-05
6.867375772e-05
6.949689436e-05
7.040990873e-05
7.150646829e-05
7.32624897e-05
7.552428462e-05
7.808480137e-05
8.19864168e-05
8.711631004e-05
9.419954601e-05
0.0001035329517
0.0001153287512
0.0001301087475
0.0001487651115
0.0001693995538
0.0001918555694
0.0002134781035
0.0002355153554
0.0002555700223
0.0002769905235
0.0003007468728
0.0003282935017
0.0003666242295
0.0004201008661
0.0005006549237
0.0006430975592
6.626141328e-05
6.62064937e-05
6.627045585e-05
6.621696674e-05
6.620123164e-05
6.6258348e-05
6.637952868e-05
6.647909915e-05
6.66518276e-05
6.678874338e-05
6.693894204e-05
6.715080388e-05
6.749125416e-05
6.777039887e-05
6.834273748e-05
6.899645924e-05
6.996600688e-05
7.113622809e-05
7.271505094e-05
7.474155775e-05
7.747670588e-05
8.134442339e-05
8.621877841e-05
9.298650496e-05
0.0001025379132
0.0001140964149
0.0001286909728
0.0001469165577
0.0001674515235
0.0001895326669
0.0002115159258
0.0002340453662
0.0002547708902
0.0002748830519
0.0002982741422
0.000326484719
0.000364258863
0.0004171379849
0.0004984380128
0.0006428832917
6.6425248e-05
6.6479768e-05
6.65835039e-05
6.654173413e-05
6.656131849e-05
6.661216642e-05
6.659518311e-05
6.661390045e-05
6.666418737e-05
6.678954767e-05
6.697269202e-05
6.713972008e-05
6.741308508e-05
6.772663882e-05
6.843182873e-05
6.899059496e-05
6.969104178e-05
7.09373006e-05
7.266980231e-05
7.471611278e-05
7.760490766e-05
8.101126002e-05
8.576322101e-05
9.22030069e-05
0.00010105886
0.0001127673994
0.0001275871996
0.0001451822667
0.0001652789296
0.0001867524647
0.0002093351682
0.0002316065109
0.0002520894548
0.0002735413655
0.0002971338364
0.0003252139305
0.0003618882429
0.000414553541
0.0004949107651
0.000636597326
6.628405847e-05
6.623811351e-05
6.627173177e-05
6.626648529e-05
6.629628329e-05
6.637299406e-05
6.651724696e-05
6.659344836e-05
6.672466146e-05
6.686173228e-05
6.697012571e-05
6.725842778e-05
6.757336977e-05
6.796298506e-05
6.843027891e-05
6.903280986e-05
6.988151818e-05
7.081681899e-05
7.226245521e-05
7.403082676e-05
7.679654009e-05
8.057966429e-05
8.509194823e-05
9.149220323e-05
0.0001000098994
0.0001116204248
0.0001256634352
0.0001426866027
0.0001629506217
0.0001846876299
0.0002063625462
0.00022825537
0.0002502811387
0.0002713779737
0.0002951973786
0.0003231205037
0.0003600589771
0.0004125875632
0.0004912988162
0.0006362312716
6.643101581e-05
6.641015191e-05
6.645162527e-05
6.642938741e-05
6.645864776e-05
6.649228444e-05
6.652424183e-05
6.668204416e-05
6.683022874e-05
6.688131985e-05
6.698528314e-05
6.715601091e-05
6.749761912e-05
6.783088177e-05
6.822246156e-05
6.874726499e-05
6.961978314e-05
7.058461132e-05
7.218833286e-05
7.42874957e-05
7.674989396e-05
8.013345888e-05
8.475822233e-05
9.097958306e-05
9.927949717e-05
0.0001096639185
0.0001229786492
0.0001404034157
0.0001598658729
0.0001816015283
0.0002032956087
0.0002250542144
0.0002466430084
0.0002682601976
0.0002919684585
0.0003199226759
0.0003562563955
0.0004084615897
0.000487982057
0.0006313716057
6.630657796e-05
6.638935962e-05
6.644686947e-05
6.656244852e-05
6.66116192e-05
6.674687669e-05
6.676055498e-05
6.680352212e-05
6.686204895e-05
6.701688318e-05
6.714659817e-05
6.73362129e-05
6.758872745e-05
6.791675229e-05
6.840683187e-05
6.89356073e-05
6.967082838e-05
7.075405782e-05
7.205191955e-05
7.383686079e-05
7.636917594e-05
7.958657536e-05
8.392167964e-05
8.974883675e-05
9.782070887e-05
0.0001084134043
0.0001214000557
0.0001373676093
0.0001568639087
0.0001785339893
0.0002001175763
0.0002222532273
0.0002439749193
0.0002645808387
0.0002885254824
0.0003170789489
0.0003531134258
0.0004055573821
0.0004847186591
0.0006259037839
6.639404288e-05
6.640227527e-05
6.64803813e-05
6.637346192e-05
6.639216265e-05
6.636345093e-05
6.636832938e-05
6.639810826e-05
6.657622254e-05
6.671154874e-05
6.696761661e-05
6.721158998e-05
6.743416932e-05
6.78844097e-05
6.833022899e-05
6.893408977e-05
6.947138002e-05
7.046887082e-05
7.171531509e-05
7.323119214e-05
7.557772713e-05
7.895264979e-05
8.316092369e-05
8.874593716e-05
9.63134312e-05
0.0001062443824
0.0001186375285
0.0001345289814
0.000153254357
0.0001749010102
0.000197213013
0.0002185314379
0.0002407529352
0.0002618644325
0.0002851668625
0.0003130839515
0.0003484836699
0.0003995984546
0.0004782876172
0.0006193908705
6.629044086e-05
6.625712183e-05
6.627388293e-05
6.639075348e-05
6.657223044e-05
6.658482666e-05
6.666456885e-05
6.67508631e-05
6.685239471e-05
6.702046279e-05
6.711061718e-05
6.721936114e-05
6.73592909e-05
6.777069962e-05
6.822319844e-05
6.863861967e-05
6.934416024e-05
7.03880718e-05
7.174902203e-05
7.330633105e-05
7.554617223e-05
7.873001867e-05
8.235341216e-05
8.75109031e-05
9.487974134e-05
0.0001043721089
0.0001166703856
0.0001316609515
0.0001500765712
0.0001704767556
0.0001926426452
0.0002138990168
0.0002355076254
0.0002575219033
0.0002804939002
0.0003078394257
0.0003438419559
0.000394640471
0.0004731562524
0.0006133185843
6.631617732e-05
6.636948516e-05
6.634983741e-05
6.63538482e-05
6.629292494e-05
6.645229002e-05
6.667298449e-05
6.68410819e-05
6.689129281e-05
6.703055321e-05
6.723936765e-05
6.738908654e-05
6.766542425e-05
6.790419263e-05
6.824861208e-05
6.882834758e-05
6.942372005e-05
7.042377522e-05
7.170539734e-05
7.331950811e-05
7.546552963e-05
7.820585747e-05
8.186830948e-05
8.640490861e-05
9.338808396e-05
0.0001021155428
0.0001138369224
0.0001282435452
0.0001461229963
0.0001661104427
0.0001877148937
0.0002099672127
0.0002310760531
0.0002531019407
0.0002758014871
0.000302801809
0.0003376857518
0.0003866598211
0.0004638147017
0.0006046446352
6.637620806e-05
6.642462433e-05
6.642822763e-05
6.654464996e-05
6.66198119e-05
6.659494401e-05
6.657444068e-05
6.653921963e-05
6.653170851e-05
6.668497592e-05
6.688808062e-05
6.708276068e-05
6.74177667e-05
6.773181264e-05
6.807174149e-05
6.846764847e-05
6.914329385e-05
6.992648017e-05
7.1011786e-05
7.250954356e-05
7.441234325e-05
7.685990201e-05
8.04317432e-05
8.5170193e-05
9.128952128e-05
9.981890348e-05
0.0001104949937
0.0001248660466
0.0001420287993
0.0001607366094
0.0001818547272
0.0002043978258
0.0002257759399
0.0002476863792
0.0002712099325
0.0002965372707
0.000330617041
0.0003804881251
0.0004548393645
0.0005955607218
6.637237777e-05
6.628628082e-05
6.638800409e-05
6.634523465e-05
6.636537637e-05
6.648982883e-05
6.662584882e-05
6.668739013e-05
6.684167464e-05
6.68481687e-05
6.690072995e-05
6.698500045e-05
6.707830174e-05
6.736485187e-05
6.782390032e-05
6.837883753e-05
6.914488223e-05
6.982787407e-05
7.098351128e-05
7.224259674e-05
7.398427159e-05
7.636911146e-05
7.968290547e-05
8.399602278e-05
8.980794747e-05
9.750766322e-05
0.0001078411745
0.0001205422251
0.0001370422973
0.0001557319311
0.0001763363469
0.0001982516991
0.0002197472716
0.0002413184897
0.0002633703693
0.0002890701315
0.0003221471898
0.0003693086337
0.0004428529331
0.0005812508134
6.638281917e-05
6.653797432e-05
6.64754862e-05
6.653650341e-05
6.661912772e-05
6.653848153e-05
6.647817441e-05
6.650323052e-05
6.654624182e-05
6.664164778e-05
6.677600738e-05
6.698000673e-05
6.712547419e-05
6.751049634e-05
6.785620981e-05
6.820745185e-05
6.88481072e-05
6.946091679e-05
7.045900213e-05
7.187938945e-05
7.360258039e-05
7.593421892e-05
7.893217756e-05
8.299050677e-05
8.838720765e-05
9.572129372e-05
0.0001053615564
0.0001175230523
0.0001327216126
0.0001504130024
0.0001709490216
0.000191768114
0.0002126093207
0.0002338341294
0.0002564672031
0.0002801411705
0.0003132120927
0.0003566380868
0.000429745885
0.0005646492053
6.632052183e-05
6.62998327e-05
6.630003553e-05
6.635043993e-05
6.641174668e-05
6.655915672e-05
6.65924216e-05
6.664074694e-05
6.679763949e-05
6.698723913e-05
6.709129327e-05
6.717344128e-05
6.737404469e-05
6.747571553e-05
6.782824205e-05
6.825176067e-05
6.871640401e-05
6.955264032e-05
7.048365109e-05
7.15702867e-05
7.314661572e-05
7.517039785e-05
7.808644934e-05
8.168189529e-05
8.675955501e-05
9.345923225e-05
0.0001022036343
0.0001136812324
0.0001278704248
0.0001446943878
0.0001641076864
0.0001846574166
0.0002055268648
0.0002263787171
0.0002478257367
0.0002707104987
0.0003005312402
0.000342494066
0.0004099675503
0.0005410333298
6.629856517e-05
6.635387651e-05
6.642419439e-05
6.647372617e-05
6.647159686e-05
6.64310386e-05
6.656787204e-05
6.665086439e-05
6.664396948e-05
6.670571944e-05
6.678719085e-05
6.690100748e-05
6.716321665e-05
6.730790825e-05
6.754121966e-05
6.79864987e-05
6.850615145e-05
6.911782076e-05
6.993851722e-05
7.103926848e-05
7.253693305e-05
7.463009433e-05
7.707053573e-05
8.061142422e-05
8.531156926e-05
9.119718165e-05
9.92623951e-05
0.0001098512958
0.000122980107
0.0001390706348
0.0001564214091
0.0001770309892
0.0001972285481
0.000217772728
0.0002382697083
0.0002595944827
0.0002861062534
0.0003228301385
0.0003812109702
0.0005049060688
6.63422727e-05
6.636852918e-05
6.63040538e-05
6.630374967e-05
6.629036799e-05
6.635453924e-05
6.645028923e-05
6.653443162e-05
6.655749475e-05
6.674276008e-05
6.687779341e-05
6.695570116e-05
6.716691884e-05
6.743739101e-05
6.760663887e-05
6.793803825e-05
6.838176266e-05
6.899944892e-05
6.971678817e-05
7.071022598e-05
7.203850997e-05
7.363873608e-05
7.600815546e-05
7.921555198e-05
8.335834833e-05
8.874508352e-05
9.677855317e-05
0.0001062945003
0.0001184612369
0.0001330683057
0.0001499645037
0.0001693090427
0.000188904995
0.0002086763285
0.0002277999684
0.0002468637961
0.0002682499033
0.0002966922118
0.0003379378498
0.0004313525827
6.624815794e-05
6.619803448e-05
6.625738187e-05
6.637582325e-05
6.643562676e-05
6.642092929e-05
6.645012151e-05
6.64171789e-05
6.645899068e-05
6.639335885e-05
6.656319071e-05
6.667205338e-05
6.682075128e-05
6.707375057e-05
6.742593248e-05
6.776174443e-05
6.816739474e-05
6.859275993e-05
6.923534366e-05
7.02997956e-05
7.161278691e-05
7.315662993e-05
7.529019645e-05
7.811672357e-05
8.195170019e-05
8.6941949e-05
9.396293269e-05
0.0001031814929
0.0001142712951
0.0001273030392
0.0001437922882
0.0001614917475
0.0001794255048
0.0001983240247
0.0002158824389
0.0002324514597
0.000249639903
0.0002676355925
0.0002818119658
0.0002657287725
6.634869058e-05
6.63386061e-05
6.636054871e-05
6.63838089e-05
6.63664271e-05
6.636004196e-05
6.634083583e-05
6.638315011e-05
6.645232256e-05
6.661620805e-05
6.673134343e-05
6.679382668e-05
6.692188439e-05
6.711891184e-05
6.736742589e-05
6.77087273e-05
6.8105316e-05
6.865524962e-05
6.924820698e-05
7.01130906e-05
7.126768769e-05
7.250777483e-05
7.461902939e-05
7.698797031e-05
8.037706547e-05
8.50197782e-05
9.091474025e-05
9.898921715e-05
0.0001091428202
0.000121553472
0.0001368226941
0.000153336919
0.0001707779026
0.00018747304
0.000204069917
0.0002190382771
0.0002317028146
0.0002405856209
0.0002400950793
0.0002130309668
6.634070626e-05
6.634785089e-05
6.628836299e-05
6.625142375e-05
6.630579386e-05
6.634121297e-05
6.638514483e-05
6.642051327e-05
6.645431091e-05
6.644731829e-05
6.640429851e-05
6.656244307e-05
6.673472488e-05
6.68457453e-05
6.697723685e-05
6.720003776e-05
6.747315509e-05
6.794358576e-05
6.864558344e-05
6.93928811e-05
7.044830983e-05
7.18770327e-05
7.369886211e-05
7.581944843e-05
7.907775338e-05
8.335236896e-05
8.855487407e-05
9.57011233e-05
0.0001050443709
0.0001163718488
0.0001299452734
0.0001454585912
0.0001614297224
0.0001782781228
0.000192541536
0.0002053838271
0.0002147947206
0.00021937843
0.0002148734129
0.0001946981495
6.631326945e-05
6.638161907e-05
6.636874969e-05
6.635157361e-05
6.62526212e-05
6.629143203e-05
6.635253628e-05
6.64023925e-05
6.653002237e-05
6.654795844e-05
6.663267347e-05
6.672914321e-05
6.681041289e-05
6.69785256e-05
6.71697424e-05
6.739880737e-05
6.763030435e-05
6.811184238e-05
6.849969735e-05
6.926902327e-05
7.016476306e-05
7.152491547e-05
7.290178795e-05
7.499782614e-05
7.784343016e-05
8.164471288e-05
8.665034736e-05
9.271770632e-05
0.0001010838217
0.0001112339179
0.0001231639923
0.0001371698381
0.0001524134758
0.0001674847448
0.0001817496504
0.0001932301576
0.0002014422963
0.0002037942529
0.0001985521054
0.000184185714
6.633207183e-05
6.624538742e-05
6.626159958e-05
6.638856109e-05
6.649353486e-05
6.649008978e-05
6.642058012e-05
6.642980079e-05
6.648178104e-05
6.658776807e-05
6.658832536e-05
6.663123693e-05
6.676736846e-05
6.698395284e-05
6.729466911e-05
6.757402497e-05
6.782840397e-05
6.822641261e-05
6.876303527e-05
6.937089012e-05
7.035572846e-05
7.156414268e-05
7.286623282e-05
7.477673511e-05
7.737676102e-05
8.023167256e-05
8.434789051e-05
8.99678374e-05
9.725343222e-05
0.0001058737948
0.0001171182989
0.0001298194661
0.0001434279571
0.0001576556515
0.0001714931394
0.000182240234
0.0001896604911
0.0001916073694
0.000187659758
0.0001768794284
6.629582463e-05
6.631563249e-05
6.63758666e-05
6.641092296e-05
6.649481505e-05
6.645732704e-05
6.658888969e-05
6.6605506e-05
6.665839449e-05
6.660418885e-05
6.672111092e-05
6.687668616e-05
6.708920266e-05
6.722096795e-05
6.730820356e-05
6.753161184e-05
6.783425154e-05
6.820386306e-05
6.858502495e-05
6.915995932e-05
6.997608344e-05
7.083420427e-05
7.231756433e-05
7.387189831e-05
7.602522992e-05
7.876433702e-05
8.259424391e-05
8.74922045e-05
9.355680211e-05
0.0001013597796
0.0001109474903
0.0001220866981
0.0001349480747
0.000148128758
0.0001607121154
0.0001715451373
0.0001789878753
0.0001811696775
0.000179447762
0.0001716215318
6.637803578e-05
6.644642168e-05
6.637839037e-05
6.622576318e-05
6.625088867e-05
6.636106595e-05
6.637788381e-05
6.641699041e-05
6.649343065e-05
6.665320036e-05
6.678480522e-05
6.682619135e-05
6.693206285e-05
6.704953463e-05
6.713499167e-05
6.742687281e-05
6.769727571e-05
6.802968182e-05
6.847277177e-05
6.908074772e-05
6.973446623e-05
7.05393429e-05
7.161796578e-05
7.305113155e-05
7.50763672e-05
7.768688482e-05
8.088906708e-05
8.511126298e-05
9.03643636e-05
9.706202763e-05
0.0001055219202
0.0001153613843
0.0001272803875
0.0001389476293
0.0001508984446
0.0001614209571
0.0001692076286
0.0001729821755
0.0001715741858
0.0001674951444
6.627537949e-05
6.627715235e-05
6.638382803e-05
6.652388418e-05
6.663380166e-05
6.663972809e-05
6.664276728e-05
6.665603842e-05
6.66454519e-05
6.669149568e-05
6.668845648e-05
6.668506272e-05
6.683732629e-05
6.699126142e-05
6.718587108e-05
6.725166961e-05
6.74701876e-05
6.779538126e-05
6.809190519e-05
6.853263884e-05
6.918631862e-05
7.007599174e-05
7.098268434e-05
7.218043033e-05
7.393500715e-05
7.63441755e-05
7.903386137e-05
8.25886029e-05
8.727741932e-05
9.295615159e-05
0.0001001274316
0.0001089694573
0.0001191273523
0.0001300849603
0.0001414086392
0.0001521150579
0.0001596807238
0.000164522361
0.0001658346339
0.0001626231186
6.633652806e-05
6.640536201e-05
6.637274312e-05
6.635268555e-05
6.63412892e-05
6.631191194e-05
6.628136973e-05
6.625959004e-05
6.62661746e-05
6.628177493e-05
6.638388622e-05
6.649567174e-05
6.662508362e-05
6.680443683e-05
6.687114346e-05
6.713108153e-05
6.730810482e-05
6.75582167e-05
6.795171997e-05
6.837444855e-05
6.877752476e-05
6.942747122e-05
7.029288466e-05
7.133749935e-05
7.284531233e-05
7.475209884e-05
7.72741869e-05
8.037323413e-05
8.414932581e-05
8.947116765e-05
9.574042599e-05
0.0001030806372
0.0001122157482
0.0001224693728
0.000132912734
0.0001423094545
0.0001504367229
0.0001560903758
0.0001592152041
0.0001584863949
6.624305112e-05
6.611921709e-05
6.617325836e-05
6.620698984e-05
6.61605964e-05
6.629623138e-05
6.63086401e-05
6.633816781e-05
6.637954711e-05
6.650986407e-05
6.659763682e-05
6.661627523e-05
6.661060267e-05
6.664605618e-05
6.686794447e-05
6.693520484e-05
6.707154889e-05
6.720824747e-05
6.747617468e-05
6.785380516e-05
6.832315892e-05
6.892176603e-05
6.966401048e-05
7.074468397e-05
7.206375695e-05
7.370652044e-05
7.584051756e-05
7.850570949e-05
8.194054637e-05
8.608875842e-05
9.137457216e-05
9.791635164e-05
0.000106011957
0.0001152054054
0.0001244147066
0.0001333130806
0.0001418818889
0.000148268534
0.0001525295388
0.0001542247735
6.633938388e-05
6.646554174e-05
6.647744342e-05
6.653264698e-05
6.656926366e-05
6.647283469e-05
6.650322197e-05
6.656222394e-05
6.649532127e-05
6.646361721e-05
6.645510877e-05
6.652150498e-05
6.656171748e-05
6.66526261e-05
6.676105804e-05
6.69314294e-05
6.713603709e-05
6.728701122e-05
6.740141934e-05
6.770726732e-05
6.815477067e-05
6.86204051e-05
6.936109506e-05
7.023827456e-05
7.144029409e-05
7.294841483e-05
7.472206975e-05
7.694034123e-05
7.957922333e-05
8.328125507e-05
8.779168978e-05
9.374121545e-05
0.0001005364698
0.0001078106783
0.0001164411218
0.0001251787817
0.0001332739027
0.0001405564677
0.0001460183281
0.0001484604526
6.634921784e-05
6.635544696e-05
6.63065256e-05
6.620275762e-05
6.619414827e-05
6.621886216e-05
6.629310514e-05
6.63629928e-05
6.642639813e-05
6.654865089e-05
6.66803233e-05
6.670285953e-05
6.672124303e-05
6.672114174e-05
6.6755883e-05
6.682784703e-05
6.710051019e-05
6.730885645e-05
6.76841228e-05
6.799061564e-05
6.831468169e-05
6.889571149e-05
6.931903827e-05
6.987900049e-05
7.086892375e-05
7.203336359e-05
7.365622596e-05
7.557368002e-05
7.810341076e-05
8.129692234e-05
8.506751355e-05
8.986904904e-05
9.563245144e-05
0.0001025418595
0.0001097905773
0.0001180658334
0.0001252541338
0.0001327005627
0.0001384012181
0.0001421731767
6.633057878e-05
6.63979315e-05
6.638876546e-05
6.644234379e-05
6.645596625e-05
6.649566891e-05
6.650326508e-05
6.645657395e-05
6.646842397e-05
6.651268433e-05
6.643778608e-05
6.652033115e-05
6.661472623e-05
6.666840585e-05
6.673646754e-05
6.684083894e-05
6.691128077e-05
6.703666823e-05
6.722824368e-05
6.746473781e-05
6.781811171e-05
6.828917561e-05
6.893454633e-05
6.973092894e-05
7.058737195e-05
7.153856453e-05
7.287787082e-05
7.443336416e-05
7.670299889e-05
7.934211139e-05
8.264396453e-05
8.676974905e-05
9.155893255e-05
9.744454742e-05
0.0001036277803
0.0001110898539
0.0001180707861
0.0001247689381
0.0001312870608
0.0001360175006
6.629160502e-05
6.624911874e-05
6.617214718e-05
6.624501696e-05
6.618283205e-05
6.612257142e-05
6.607927491e-05
6.61250021e-05
6.620055576e-05
6.626674118e-05
6.637166557e-05
6.644402896e-05
6.642802698e-05
6.648611012e-05
6.65868821e-05
6.671692353e-05
6.684260999e-05
6.702010033e-05
6.735001462e-05
6.755581227e-05
6.77652053e-05
6.811355225e-05
6.85876363e-05
6.908177346e-05
6.977183364e-05
7.082517932e-05
7.192055553e-05
7.335399894e-05
7.518997322e-05
7.749309399e-05
8.027095712e-05
8.345828869e-05
8.770701758e-05
9.257688671e-05
9.832276311e-05
0.0001042735256
0.0001113611885
0.0001179365854
0.0001240429621
0.0001296690262
6.631735355e-05
6.631456849e-05
6.640607018e-05
6.632616445e-05
6.635193886e-05
6.636500329e-05
6.631507487e-05
6.632186027e-05
6.627380543e-05
6.62452966e-05
6.624585361e-05
6.628621158e-05
6.641883079e-05
6.654957642e-05
6.667029586e-05
6.681765054e-05
6.682757546e-05
6.705681073e-05
6.714269167e-05
6.722386333e-05
6.743785676e-05
6.780280012e-05
6.827884182e-05
6.885560121e-05
6.929817162e-05
7.003626159e-05
7.10721498e-05
7.240391203e-05
7.372833185e-05
7.571650601e-05
7.81685689e-05
8.097134606e-05
8.440612796e-05
8.856578347e-05
9.337511615e-05
9.8857723e-05
0.0001049970456
0.0001112865079
0.0001173234418
0.0001232755075
6.636896606e-05
6.635261076e-05
6.630941858e-05
6.626065648e-05
6.624602278e-05
6.632779931e-05
6.641524702e-05
6.641053791e-05
6.636800399e-05
6.637914382e-05
6.640628452e-05
6.636056055e-05
6.631341879e-05
6.637433344e-05
6.641236079e-05
6.64922638e-05
6.667131134e-05
6.679840675e-05
6.703214076e-05
6.733666337e-05
6.76157669e-05
6.781511933e-05
6.808920993e-05
6.851090337e-05
6.903953922e-05
6.956356724e-05
7.035530577e-05
7.133930775e-05
7.254914458e-05
7.40970248e-05
7.598102426e-05
7.858364442e-05
8.187895984e-05
8.538750185e-05
8.970084639e-05
9.453244647e-05
9.951028223e-05
0.0001051570651
0.0001109605147
0.0001167078093
6.640521183e-05
6.641032586e-05
6.637138833e-05
6.645057989e-05
6.646126366e-05
6.639812307e-05
6.634121047e-05
6.634627387e-05
6.647240314e-05
6.644744058e-05
6.647640322e-05
6.651848007e-05
6.65881018e-05
6.667640748e-05
6.677418172e-05
6.67756501e-05
6.671109176e-05
6.683190446e-05
6.698223678e-05
6.706041566e-05
6.72305965e-05
6.751698235e-05
6.774377199e-05
6.801689173e-05
6.852490255e-05
6.925013318e-05
6.999941497e-05
7.099087912e-05
7.199763474e-05
7.328728246e-05
7.496630557e-05
7.668943088e-05
7.921145928e-05
8.222068793e-05
8.561073481e-05
8.977608936e-05
9.45894577e-05
9.955406977e-05
0.0001051269986
0.000110541443
6.619448873e-05
6.617317246e-05
6.623646303e-05
6.623550101e-05
6.627139942e-05
6.632187998e-05
6.646238503e-05
6.65007138e-05
6.656689041e-05
6.665630733e-05
6.660111795e-05
6.660410527e-05
6.659494079e-05
6.653823245e-05
6.652516927e-05
6.661504188e-05
6.67480027e-05
6.674212933e-05
6.676106587e-05
6.686521683e-05
6.70043548e-05
6.733250373e-05
6.767255128e-05
6.806500342e-05
6.836100074e-05
6.876038952e-05
6.937066247e-05
7.009085848e-05
7.100259705e-05
7.203023331e-05
7.333103165e-05
7.518802748e-05
7.720608514e-05
7.972110032e-05
8.270446569e-05
8.617020643e-05
9.018667636e-05
9.461190208e-05
9.956127495e-05
0.0001046570769
6.629030652e-05
6.635744322e-05
6.640685908e-05
6.64663505e-05
6.642285847e-05
6.635744322e-05
6.64554142e-05
6.640063146e-05
6.640098588e-05
6.635703817e-05
6.646260381e-05
6.645602178e-05
6.639369502e-05
6.64771349e-05
6.64554142e-05
6.654482855e-05
6.658178918e-05
6.674365648e-05
6.689711904e-05
6.703215192e-05
6.707797297e-05
6.725411822e-05
6.733563413e-05
6.77426061e-05
6.807530239e-05
6.836501297e-05
6.893683947e-05
6.962354772e-05
7.042731483e-05
7.132196458e-05
7.247138953e-05
7.370217849e-05
7.538768445e-05
7.74342907e-05
7.995009442e-05
8.264847352e-05
8.616120161e-05
8.990885754e-05
9.419173376e-05
9.903352559e-05
6.640743385e-05
6.646013928e-05
6.64066744e-05
6.628354316e-05
6.629539049e-05
6.626313942e-05
6.621321861e-05
6.617777787e-05
6.617079099e-05
6.612856588e-05
6.603520486e-05
6.613484395e-05
6.624622913e-05
6.62629369e-05
6.638277722e-05
6.64608481e-05
6.656615771e-05
6.644403906e-05
6.656848668e-05
6.664073515e-05
6.67951555e-05
6.698825688e-05
6.725487248e-05
6.7481035e-05
6.777352234e-05
6.805132708e-05
6.842380922e-05
6.888539949e-05
6.955609011e-05
7.037385978e-05
7.133141784e-05
7.258298213e-05
7.396451265e-05
7.582494878e-05
7.794319096e-05
8.030308832e-05
8.308513548e-05
8.630183796e-05
8.988266868e-05
9.371031882e-05
6.630061807e-05
6.622224543e-05
6.616159271e-05
6.624978724e-05
6.614610044e-05
6.607866352e-05
6.611471089e-05
6.612731734e-05
6.605491884e-05
6.60852452e-05
6.617171837e-05
6.619688065e-05
6.615369469e-05
6.617465481e-05
6.621794203e-05
6.621586627e-05
6.628659403e-05
6.647948792e-05
6.659669248e-05
6.676088011e-05
6.694197761e-05
6.704576566e-05
6.715011062e-05
6.725491124e-05
6.754880863e-05
6.794538025e-05
6.836114e-05
6.879036688e-05
6.932814088e-05
6.994727458e-05
7.08351434e-05
7.200374625e-05
7.309903929e-05
7.442367861e-05
7.59751328e-05
7.79830519e-05
8.053436475e-05
8.329269679e-05
8.623227821e-05
8.98263319e-05
6.624902676e-05
6.618548978e-05
6.621834675e-05
6.624355904e-05
6.63218285e-05
6.648656902e-05
6.639169387e-05
6.649072044e-05
6.660042932e-05
6.670082282e-05
6.672385814e-05
6.671049259e-05
6.666391568e-05
6.665981488e-05
6.666224498e-05
6.660939031e-05
6.663667831e-05
6.665075264e-05
6.660944094e-05
6.658043162e-05
6.663262814e-05
6.67211749e-05
6.686004498e-05
6.711793933e-05
6.726602353e-05
6.756052126e-05
6.78623599e-05
6.823016564e-05
6.864464954e-05
6.930907933e-05
7.001380827e-05
7.091689412e-05
7.176099941e-05
7.303730809e-05
7.454083109e-05
7.642937304e-05
7.832054759e-05
8.082820809e-05
8.322054011e-05
8.618424934e-05
6.630813531e-05
6.640128697e-05
6.644269895e-05
6.64576336e-05
6.652309289e-05
6.648259216e-05
6.65409132e-05
6.65025894e-05
6.642133482e-05
6.640270449e-05
6.64408258e-05
6.650177938e-05
6.656389736e-05
6.658460336e-05
6.66753756e-05
6.671668633e-05
6.6789132e-05
6.685023746e-05
6.683925164e-05
6.686127391e-05
6.695695686e-05
6.698566175e-05
6.709865876e-05
6.722815982e-05
6.739046646e-05
6.753373776e-05
6.786118609e-05
6.810910113e-05
6.858194705e-05
6.894260598e-05
6.948420187e-05
7.025908192e-05
7.120917822e-05
7.218448621e-05
7.316850186e-05
7.463715927e-05
7.630578899e-05
7.829270375e-05
8.055522592e-05
8.305943615e-05
6.636680904e-05
6.631800676e-05
6.625118205e-05
6.622981839e-05
6.624900518e-05
6.621331471e-05
6.620293663e-05
6.627052071e-05
6.627102696e-05
6.633840854e-05
6.634357227e-05
6.639753829e-05
6.642254693e-05
6.650455907e-05
6.652273337e-05
6.66539528e-05
6.660434051e-05
6.65618157e-05
6.667607583e-05
6.681205399e-05
6.684602322e-05
6.697952076e-05
6.712263702e-05
6.722292471e-05
6.746718927e-05
6.760731866e-05
6.790291676e-05
6.812460267e-05
6.852251345e-05
6.883021086e-05
6.916843502e-05
6.970779143e-05
7.036485046e-05
7.126743967e-05
7.235678369e-05
7.329759461e-05
7.468775108e-05
7.612807671e-05
7.786961978e-05
8.008632704e-05
6.629985053e-05
6.632141623e-05
6.635654909e-05
6.645005108e-05
6.640317353e-05
6.639780741e-05
6.639669369e-05
6.650528155e-05
6.644124256e-05
6.633032601e-05
6.631427829e-05
6.628466342e-05
6.625980717e-05
6.627347558e-05
6.625423857e-05
6.624188638e-05
6.641167831e-05
6.65064459e-05
6.653530141e-05
6.660035288e-05
6.67126869e-05
6.681297247e-05
6.697436087e-05
6.708208813e-05
6.721522849e-05
6.743118924e-05
6.764269511e-05
6.792876971e-05
6.816194253e-05
6.853817795e-05
6.886763707e-05
6.930831648e-05
6.981961597e-05
7.043930083e-05
7.12362193e-05
7.210021419e-05
7.315090933e-05
7.450625797e-05
7.615081988e-05
7.782833782e-05
6.630064151e-05
6.634559446e-05
6.641697246e-05
6.642942564e-05
6.636513482e-05
6.643271611e-05
6.638680133e-05
6.632731967e-05
6.648561683e-05
6.653866941e-05
6.660675693e-05
6.665849332e-05
6.665748087e-05
6.658858338e-05
6.657025797e-05
6.651011821e-05
6.642664139e-05
6.644076512e-05
6.656863804e-05
6.657142229e-05
6.658225555e-05
6.660377019e-05
6.66907906e-05
6.672060737e-05
6.682053656e-05
6.682661128e-05
6.700940983e-05
6.728110182e-05
6.760974433e-05
6.782899122e-05
6.83607826e-05
6.88560244e-05
6.925179261e-05
6.98503047e-05