/*--------------------------------*- C++ -*----------------------------------*\
| =========                 |                                                 |
| \\      /  F ield         | OpenFOAM: The Open Source CFD Toolbox           |
|  \\    /   O peration     | Version:  v1706                                 |
|   \\  /    A nd           | Web:      www.OpenFOAM.com                      |
|    \\/     M anipulation  |                                                 |
\*---------------------------------------------------------------------------*/
FoamFile
{
    version     2.0;
    format      ascii;
    class       volScalarField;
    location    "0.004";
    object      rhoN_Ar;
}
// * * * * * * * * * * * * * * * * * * * * * * * * * * * * * * * * * * * * * //

dimensions      [0 -3 0 0 0 0 0];


internalField   nonuniform List<scalar> 
4000
(
1.000535432e+21
1.001300751e+21
1.00274832e+21
1.003693062e+21
1.007477565e+21
1.008201904e+21
1.011852394e+21
1.012448256e+21
1.018588522e+21
1.022181419e+21
1.025945986e+21
1.031790535e+21
1.042805135e+21
1.054917318e+21
1.063663652e+21
1.077144769e+21
1.095366206e+21
1.124083908e+21
1.154287945e+21
1.190447286e+21
1.249630407e+21
1.320201373e+21
1.407298114e+21
1.518389959e+21
1.679822233e+21
1.868183515e+21
2.114942664e+21
2.397027167e+21
2.718656796e+21
3.057519927e+21
3.382798938e+21
3.687481922e+21
3.991920137e+21
4.296658499e+21
4.656658142e+21
5.087767021e+21
5.643780018e+21
6.422995652e+21
7.657400549e+21
9.827384092e+21
1.001538502e+21
1.001670642e+21
1.001819198e+21
1.00098696e+21
1.000689849e+21
1.002941159e+21
1.004169818e+21
1.005208064e+21
1.004922444e+21
1.007869748e+21
1.012799979e+21
1.018880897e+21
1.023995796e+21
1.031201138e+21
1.043204571e+21
1.053379378e+21
1.070851451e+21
1.090401657e+21
1.116606484e+21
1.155965431e+21
1.204459298e+21
1.267103674e+21
1.352819262e+21
1.465472604e+21
1.614123112e+21
1.811988104e+21
2.047493397e+21
2.333993376e+21
2.649551921e+21
2.980414944e+21
3.301538157e+21
3.629786279e+21
3.941090069e+21
4.244126468e+21
4.603155905e+21
5.047512717e+21
5.604853632e+21
6.410865452e+21
7.642821434e+21
9.815510838e+21
1.00022903e+21
9.993468533e+20
9.996946647e+20
1.002232898e+21
1.003760897e+21
1.003215465e+21
1.00299255e+21
1.003426523e+21
1.006092814e+21
1.008329874e+21
1.012801623e+21
1.017143732e+21
1.021353832e+21
1.028634158e+21
1.035815673e+21
1.046797029e+21
1.061183775e+21
1.081197162e+21
1.105876755e+21
1.144431653e+21
1.188469325e+21
1.251245337e+21
1.334552502e+21
1.444469612e+21
1.594615069e+21
1.787760296e+21
2.018533187e+21
2.309089332e+21
2.612288423e+21
2.944003309e+21
3.275339556e+21
3.597538637e+21
3.916685673e+21
4.227209357e+21
4.578773209e+21
5.023412985e+21
5.600659825e+21
6.398336909e+21
7.622305134e+21
9.802097144e+21
1.00096939e+21
1.000777443e+21
1.001130127e+21
9.999878059e+20
1.000673666e+21
1.003346104e+21
1.005651032e+21
1.006375126e+21
1.007597815e+21
1.010469222e+21
1.013755735e+21
1.018671459e+21
1.0241482e+21
1.031122286e+21
1.038644904e+21
1.048310934e+21
1.059751307e+21
1.077749099e+21
1.103608149e+21
1.139396181e+21
1.183007236e+21
1.240408849e+21
1.321580718e+21
1.435991466e+21
1.574361296e+21
1.763489489e+21
1.998006981e+21
2.270677515e+21
2.587538848e+21
2.928785294e+21
3.265173755e+21
3.580937243e+21
3.890318092e+21
4.210157729e+21
4.574072685e+21
5.008944948e+21
5.587184693e+21
6.38228824e+21
7.601258291e+21
9.771344486e+21
1.001083806e+21
1.003277186e+21
1.004511495e+21
1.00631644e+21
1.007517411e+21
1.006881648e+21
1.006350554e+21
1.007986479e+21
1.011009452e+21
1.013005125e+21
1.01519773e+21
1.018061762e+21
1.021587142e+21
1.028841035e+21
1.035908852e+21
1.045093292e+21
1.060103486e+21
1.077900955e+21
1.105051109e+21
1.136046849e+21
1.177517162e+21
1.235079241e+21
1.319721694e+21
1.427522179e+21
1.569860841e+21
1.747864221e+21
1.98115334e+21
2.26070735e+21
2.577379803e+21
2.913606599e+21
3.246298713e+21
3.556421263e+21
3.865904949e+21
4.194887156e+21
4.550710165e+21
4.976722112e+21
5.571392507e+21
6.379519337e+21
7.585845062e+21
9.776413094e+21
9.999322148e+20
1.000581832e+21
9.998526541e+20
1.000978091e+21
1.001438461e+21
1.001742028e+21
1.002880596e+21
1.005843653e+21
1.007960895e+21
1.01060571e+21
1.014525041e+21
1.018981986e+21
1.023763353e+21
1.029560471e+21
1.035803284e+21
1.048218618e+21
1.061989574e+21
1.078528933e+21
1.105014928e+21
1.139129481e+21
1.177749644e+21
1.236597538e+21
1.313971494e+21
1.420807632e+21
1.561582982e+21
1.739498509e+21
1.962424547e+21
2.243817669e+21
2.555046061e+21
2.893749162e+21
3.219880897e+21
3.552267804e+21
3.854751469e+21
4.177835951e+21
4.536151927e+21
4.951636527e+21
5.529777217e+21
6.336362987e+21
7.551356315e+21
9.699812357e+21
9.994179982e+20
9.985896487e+20
9.995543869e+20
9.98747613e+20
9.985102812e+20
9.993717647e+20
1.001199528e+21
1.002701345e+21
1.0053066e+21
1.007371695e+21
1.009637135e+21
1.012832638e+21
1.017967634e+21
1.022177962e+21
1.03081052e+21
1.040670577e+21
1.055294221e+21
1.072944617e+21
1.096757933e+21
1.127323646e+21
1.168577766e+21
1.22691438e+21
1.300434063e+21
1.402511387e+21
1.54657486e+21
1.720911235e+21
1.941040314e+21
2.215936013e+21
2.525664004e+21
2.858712925e+21
3.190285457e+21
3.530096022e+21
3.842698193e+21
4.146049048e+21
4.498855839e+21
4.924354735e+21
5.494100497e+21
6.29167398e+21
7.517918747e+21
9.696580573e+21
1.00188911e+21
1.002711433e+21
1.004276077e+21
1.003646065e+21
1.003941455e+21
1.004708392e+21
1.004452234e+21
1.004734547e+21
1.005493022e+21
1.007383826e+21
1.010146184e+21
1.012665461e+21
1.016788614e+21
1.021517931e+21
1.03215428e+21
1.040582126e+21
1.051146935e+21
1.069944202e+21
1.09607545e+21
1.126939861e+21
1.170511428e+21
1.221889291e+21
1.293562911e+21
1.39069392e+21
1.524266365e+21
1.700865752e+21
1.924392152e+21
2.189777779e+21
2.492894866e+21
2.816779257e+21
3.157393185e+21
3.493310873e+21
3.802254221e+21
4.125812451e+21
4.481656658e+21
4.905187488e+21
5.458344537e+21
6.252692925e+21
7.464717421e+21
9.601769619e+21
9.997595546e+20
9.990665688e+20
9.995736316e+20
9.994944991e+20
9.999439411e+20
1.001100966e+21
1.003276726e+21
1.004426069e+21
1.00640515e+21
1.008472583e+21
1.010107477e+21
1.014455924e+21
1.019206181e+21
1.025082731e+21
1.032130904e+21
1.041218852e+21
1.054019882e+21
1.068126983e+21
1.089931451e+21
1.116603722e+21
1.158318855e+21
1.215379552e+21
1.283438133e+21
1.379972899e+21
1.508444938e+21
1.683565985e+21
1.895376096e+21
2.152135788e+21
2.457777099e+21
2.785635443e+21
3.112557258e+21
3.442765761e+21
3.774979467e+21
4.093182107e+21
4.452449149e+21
4.873612423e+21
5.430753801e+21
6.223040167e+21
7.410238551e+21
9.596248436e+21
1.001976106e+21
1.001661416e+21
1.002286957e+21
1.001951545e+21
1.002392877e+21
1.002900218e+21
1.00338223e+21
1.005762355e+21
1.007997417e+21
1.008768022e+21
1.010336096e+21
1.012911175e+21
1.018063637e+21
1.023090223e+21
1.028996404e+21
1.036911991e+21
1.050072144e+21
1.064624605e+21
1.088813467e+21
1.120475048e+21
1.157615294e+21
1.208649455e+21
1.27840456e+21
1.372241072e+21
1.497428313e+21
1.654056086e+21
1.854881587e+21
2.117698578e+21
2.411249968e+21
2.739087909e+21
3.066298773e+21
3.394482872e+21
3.720105707e+21
4.046156826e+21
4.403747489e+21
4.825379727e+21
5.373399631e+21
6.160808291e+21
7.360212021e+21
9.522950314e+21
1.000099215e+21
1.001347807e+21
1.002215226e+21
1.0039585e+21
1.004700139e+21
1.006740222e+21
1.006946531e+21
1.007594602e+21
1.00847736e+21
1.010812718e+21
1.012769203e+21
1.015629154e+21
1.01943782e+21
1.024385404e+21
1.031777253e+21
1.03975275e+21
1.050842057e+21
1.067180359e+21
1.086755951e+21
1.113678142e+21
1.15187294e+21
1.200400835e+21
1.265787023e+21
1.353677779e+21
1.475425473e+21
1.635194636e+21
1.83107173e+21
2.071909642e+21
2.365971474e+21
2.692820351e+21
3.018364649e+21
3.352235707e+21
3.679863036e+21
3.990661217e+21
4.351817231e+21
4.782487917e+21
5.325994356e+21
6.117004256e+21
7.310990333e+21
9.440479394e+21
1.001418445e+21
1.001542613e+21
1.002720683e+21
1.001108023e+21
1.001390085e+21
1.000957028e+21
1.001030609e+21
1.001479763e+21
1.004166252e+21
1.006207372e+21
1.010069632e+21
1.013749472e+21
1.017106626e+21
1.023897582e+21
1.030621855e+21
1.039729861e+21
1.047833786e+21
1.062878896e+21
1.081678961e+21
1.104542868e+21
1.139935552e+21
1.190839363e+21
1.254312574e+21
1.338551088e+21
1.45269127e+21
1.602479372e+21
1.789404652e+21
2.029094742e+21
2.311528764e+21
2.638024287e+21
2.974555249e+21
3.296100119e+21
3.631265991e+21
3.949689781e+21
4.301159313e+21
4.722231546e+21
5.256163949e+21
6.027126012e+21
7.21399121e+21
9.342245404e+21
9.998558199e+20
9.993532705e+20
9.996060774e+20
1.001368831e+21
1.00410604e+21
1.004296028e+21
1.005498776e+21
1.006800348e+21
1.008331745e+21
1.010866709e+21
1.012226503e+21
1.013866684e+21
1.015977238e+21
1.022182498e+21
1.029007518e+21
1.035273298e+21
1.045914936e+21
1.061660208e+21
1.082187361e+21
1.105676185e+21
1.139459611e+21
1.187481428e+21
1.242132913e+21
1.319923124e+21
1.431066989e+21
1.574239954e+21
1.759734323e+21
1.985836372e+21
2.263598359e+21
2.571293447e+21
2.905620592e+21
3.226229515e+21
3.552151213e+21
3.884191604e+21
4.230677227e+21
4.643128593e+21
5.186153182e+21
5.952344962e+21
7.136595058e+21
9.25065738e+21
1.000244002e+21
1.001048042e+21
1.000751696e+21
1.00081219e+21
9.998932873e+20
1.002296984e+21
1.005625709e+21
1.008161115e+21
1.008918444e+21
1.011018902e+21
1.014168441e+21
1.016426645e+21
1.020594634e+21
1.024195967e+21
1.029390831e+21
1.038134956e+21
1.047114933e+21
1.062198721e+21
1.081529372e+21
1.105874934e+21
1.138243283e+21
1.179575527e+21
1.234816131e+21
1.303241457e+21
1.408568386e+21
1.540204265e+21
1.716997322e+21
1.934291782e+21
2.203966762e+21
2.505436541e+21
2.831295531e+21
3.166926285e+21
3.485310001e+21
3.8175255e+21
4.159901766e+21
4.567146439e+21
5.093299423e+21
5.831973168e+21
6.995696856e+21
9.119828581e+21
1.001149443e+21
1.001879703e+21
1.001934052e+21
1.003690045e+21
1.004823709e+21
1.004448628e+21
1.004139377e+21
1.003608139e+21
1.003494849e+21
1.005806575e+21
1.008869994e+21
1.011806345e+21
1.016859226e+21
1.021595967e+21
1.026723099e+21
1.032694547e+21
1.042885277e+21
1.054698042e+21
1.071067662e+21
1.093658274e+21
1.122358118e+21
1.15927454e+21
1.213148465e+21
1.284618296e+21
1.376915856e+21
1.505564155e+21
1.666591157e+21
1.883349118e+21
2.142214168e+21
2.424383249e+21
2.742906895e+21
3.082923467e+21
3.405368626e+21
3.735842823e+21
4.090647549e+21
4.472658683e+21
4.986682366e+21
5.738885746e+21
6.860322236e+21
8.982816311e+21
1.001091671e+21
9.997930742e+20
1.001327362e+21
1.000682272e+21
1.000986069e+21
1.00286318e+21
1.004914763e+21
1.005842988e+21
1.008170055e+21
1.008268004e+21
1.009060784e+21
1.010331832e+21
1.011739091e+21
1.016061114e+21
1.022984922e+21
1.031355015e+21
1.042909234e+21
1.05321077e+21
1.070641196e+21
1.089631927e+21
1.115901532e+21
1.151871968e+21
1.201853778e+21
1.266908338e+21
1.354569343e+21
1.470703819e+21
1.626563718e+21
1.818133108e+21
2.067002975e+21
2.348897905e+21
2.659673407e+21
2.990221706e+21
3.314438486e+21
3.639796225e+21
3.97240376e+21
4.360032149e+21
4.858931973e+21
5.570265969e+21
6.679531419e+21
8.766980594e+21
1.001249158e+21
1.003589356e+21
1.002646851e+21
1.003567171e+21
1.004813389e+21
1.003597006e+21
1.002687397e+21
1.003065317e+21
1.003714055e+21
1.005153059e+21
1.007179598e+21
1.010256512e+21
1.012450591e+21
1.018257863e+21
1.023472244e+21
1.028770013e+21
1.038432989e+21
1.04767597e+21
1.062730047e+21
1.084153687e+21
1.110144501e+21
1.145312503e+21
1.190530582e+21
1.251742184e+21
1.333140387e+21
1.443760086e+21
1.589163747e+21
1.772595058e+21
2.001834278e+21
2.268672736e+21
2.578416615e+21
2.892430075e+21
3.206777084e+21
3.526909945e+21
3.868283605e+21
4.225357021e+21
4.724164293e+21
5.379156663e+21
6.481838386e+21
8.516579264e+21
1.00030953e+21
9.999974766e+20
1.000000536e+21
1.000760783e+21
1.00168547e+21
1.003908849e+21
1.004410582e+21
1.005139471e+21
1.007505875e+21
1.010365598e+21
1.011935042e+21
1.013174077e+21
1.016199769e+21
1.017733266e+21
1.023050408e+21
1.029438321e+21
1.036446516e+21
1.049059432e+21
1.063101826e+21
1.079491504e+21
1.103267205e+21
1.133791823e+21
1.1777745e+21
1.232004454e+21
1.308590573e+21
1.409641512e+21
1.541532945e+21
1.714649056e+21
1.928664024e+21
2.182419122e+21
2.475229056e+21
2.785179738e+21
3.099952712e+21
3.414460287e+21
3.737944747e+21
4.083114611e+21
4.53289955e+21
5.165823016e+21
6.183522629e+21
8.160382047e+21
9.999783586e+20
1.000812617e+21
1.001873219e+21
1.002620304e+21
1.002588188e+21
1.00197645e+21
1.004040302e+21
1.005292072e+21
1.005188077e+21
1.006119449e+21
1.007348278e+21
1.00906497e+21
1.013019859e+21
1.015202236e+21
1.018721262e+21
1.025437386e+21
1.033275286e+21
1.042501067e+21
1.054879596e+21
1.071482179e+21
1.094071388e+21
1.125642448e+21
1.162451519e+21
1.215858585e+21
1.286750668e+21
1.375523102e+21
1.497170364e+21
1.65688229e+21
1.854903575e+21
2.097596301e+21
2.359297272e+21
2.670150667e+21
2.974789564e+21
3.284656531e+21
3.593811588e+21
3.915452227e+21
4.315328105e+21
4.869232858e+21
5.749788389e+21
7.61547615e+21
1.000637597e+21
1.001033623e+21
1.000061143e+21
1.000056556e+21
9.998547208e+20
1.000822613e+21
1.002266806e+21
1.003535922e+21
1.003883782e+21
1.006678131e+21
1.008714833e+21
1.009889912e+21
1.013075699e+21
1.017155219e+21
1.019707977e+21
1.024706459e+21
1.031399135e+21
1.04071567e+21
1.051535266e+21
1.066519246e+21
1.086553695e+21
1.110689835e+21
1.146427684e+21
1.194804706e+21
1.257290322e+21
1.338538213e+21
1.459706684e+21
1.603235298e+21
1.786745654e+21
2.007063434e+21
2.26190805e+21
2.553680885e+21
2.849245778e+21
3.147455936e+21
3.435896959e+21
3.72343584e+21
4.046001558e+21
4.474995653e+21
5.097101808e+21
6.506072137e+21
9.992180684e+20
9.984620585e+20
9.993571926e+20
1.001143639e+21
1.002045653e+21
1.001823971e+21
1.002264276e+21
1.001767404e+21
1.002398049e+21
1.001408127e+21
1.003969694e+21
1.005611665e+21
1.007854469e+21
1.011670446e+21
1.01698239e+21
1.022047427e+21
1.028165833e+21
1.034581598e+21
1.04427366e+21
1.060328742e+21
1.080132533e+21
1.103418249e+21
1.13559874e+21
1.178231125e+21
1.236073909e+21
1.311341614e+21
1.417238804e+21
1.556281945e+21
1.723548946e+21
1.920106172e+21
2.168812793e+21
2.435772964e+21
2.706267041e+21
2.991312589e+21
3.256145383e+21
3.506055199e+21
3.765307738e+21
4.036735935e+21
4.250557552e+21
4.007975453e+21
1.000734398e+21
1.000582294e+21
1.000913254e+21
1.001264086e+21
1.001001917e+21
1.00090561e+21
1.000615925e+21
1.00125415e+21
1.002297475e+21
1.004769352e+21
1.006505934e+21
1.007448366e+21
1.009379855e+21
1.012351611e+21
1.016099938e+21
1.021247772e+21
1.027229502e+21
1.035524127e+21
1.044467677e+21
1.057512679e+21
1.074927416e+21
1.093631596e+21
1.125475556e+21
1.161206189e+21
1.212323763e+21
1.282349596e+21
1.371263051e+21
1.493050032e+21
1.646196382e+21
1.833385701e+21
2.063690711e+21
2.312774042e+21
2.575835635e+21
2.827647662e+21
3.077977633e+21
3.303744752e+21
3.494763417e+21
3.628742397e+21
3.621343579e+21
3.213136754e+21
1.000613971e+21
1.000721733e+21
9.998244795e+20
9.992673265e+20
1.000087388e+21
1.000621613e+21
1.001284236e+21
1.001817696e+21
1.002327465e+21
1.002221995e+21
1.00157313e+21
1.003958417e+21
1.006556936e+21
1.008231452e+21
1.010214734e+21
1.01357523e+21
1.017694647e+21
1.024790132e+21
1.035378332e+21
1.04664979e+21
1.062568776e+21
1.08411814e+21
1.111596713e+21
1.143581424e+21
1.192726295e+21
1.257200135e+21
1.335669292e+21
1.443455857e+21
1.584379652e+21
1.755231506e+21
1.959958875e+21
2.193945568e+21
2.434837443e+21
2.688961128e+21
2.904095566e+21
3.09779528e+21
3.239739376e+21
3.308875265e+21
3.240926288e+21
2.936623673e+21
1.000200143e+21
1.001231057e+21
1.001036949e+21
1.000777883e+21
9.992853876e+20
9.998707697e+20
1.000792403e+21
1.001544382e+21
1.003469417e+21
1.003739946e+21
1.005017699e+21
1.006472748e+21
1.007698535e+21
1.010234172e+21
1.013118287e+21
1.016573264e+21
1.020064922e+21
1.027327939e+21
1.033177939e+21
1.044781648e+21
1.058292052e+21
1.078807171e+21
1.099574479e+21
1.131188931e+21
1.174109052e+21
1.231443633e+21
1.306943399e+21
1.398457109e+21
1.524642861e+21
1.677736318e+21
1.857677108e+21
2.068926668e+21
2.298845789e+21
2.52616508e+21
2.741322028e+21
2.914482015e+21
3.038345344e+21
3.073819802e+21
2.994752721e+21
2.778065069e+21
1.000483738e+21
9.991762808e+20
9.994208082e+20
1.001335763e+21
1.002919078e+21
1.002867116e+21
1.001818705e+21
1.00195778e+21
1.002741796e+21
1.004340393e+21
1.004348799e+21
1.004996032e+21
1.007049298e+21
1.010316031e+21
1.015002551e+21
1.019216063e+21
1.02305285e+21
1.029055997e+21
1.037149853e+21
1.046318101e+21
1.061172375e+21
1.079398834e+21
1.099038202e+21
1.127854225e+21
1.167070302e+21
1.210130808e+21
1.272215543e+21
1.356980956e+21
1.466869264e+21
1.596889816e+21
1.76649018e+21
1.958061328e+21
2.163317603e+21
2.377913296e+21
2.58662352e+21
2.748721478e+21
2.860640892e+21
2.890005572e+21
2.830463922e+21
2.667864682e+21
9.999370232e+20
1.000235784e+21
1.001144293e+21
1.001673046e+21
1.002938387e+21
1.002372957e+21
1.004357311e+21
1.004607934e+21
1.005405648e+21
1.004588067e+21
1.006351598e+21
1.008698132e+21
1.011903509e+21
1.013890919e+21
1.01520669e+21
1.018576348e+21
1.023141049e+21
1.028715883e+21
1.034464931e+21
1.043136641e+21
1.055446206e+21
1.068389205e+21
1.09076266e+21
1.114206611e+21
1.146685217e+21
1.18799905e+21
1.245765368e+21
1.319641094e+21
1.411113154e+21
1.528805122e+21
1.673416143e+21
1.841428327e+21
2.035415908e+21
2.234219577e+21
2.424013807e+21
2.587407802e+21
2.699666293e+21
2.732574321e+21
2.706602744e+21
2.588560057e+21
1.00117701e+21
1.002208472e+21
1.001182359e+21
9.988802893e+20
9.992592559e+20
1.000921055e+21
1.001174718e+21
1.001764561e+21
1.002917506e+21
1.005327306e+21
1.007312296e+21
1.007936521e+21
1.009533376e+21
1.011305198e+21
1.012594143e+21
1.016996573e+21
1.021075048e+21
1.026088715e+21
1.032771822e+21
1.041941896e+21
1.051801904e+21
1.063941824e+21
1.080210645e+21
1.101827022e+21
1.132373563e+21
1.171747886e+21
1.220046261e+21
1.283729457e+21
1.362961744e+21
1.463982317e+21
1.591582507e+21
1.739990713e+21
1.919764517e+21
2.095741015e+21
2.27599464e+21
2.434705236e+21
2.552151261e+21
2.609082586e+21
2.58784594e+21
2.526321937e+21
9.9962865e+20
9.9965539e+20
1.001264375e+21
1.003376835e+21
1.005034716e+21
1.005124104e+21
1.005169944e+21
1.005370112e+21
1.005210436e+21
1.005904912e+21
1.005859072e+21
1.005807884e+21
1.008104469e+21
1.010426266e+21
1.013361555e+21
1.014353991e+21
1.017649888e+21
1.02255477e+21
1.027027228e+21
1.033674794e+21
1.043534218e+21
1.056953118e+21
1.070628723e+21
1.088694273e+21
1.115158479e+21
1.15149586e+21
1.192064274e+21
1.245680285e+21
1.316401498e+21
1.402053568e+21
1.510217671e+21
1.643581558e+21
1.796792644e+21
1.962065767e+21
2.132860319e+21
2.294344764e+21
2.408457373e+21
2.481483574e+21
2.501276529e+21
2.452837384e+21
1.000550951e+21
1.001589171e+21
1.001097181e+21
1.000794654e+21
1.000622763e+21
1.000179667e+21
9.997190005e+20
9.993904984e+20
9.994898129e+20
9.997251121e+20
1.001265252e+21
1.002951308e+21
1.004903222e+21
1.007608399e+21
1.008614532e+21
1.012535166e+21
1.015205201e+21
1.018977627e+21
1.02491282e+21
1.031288817e+21
1.037368398e+21
1.047171512e+21
1.060224505e+21
1.075980382e+21
1.09872266e+21
1.127482637e+21
1.165523181e+21
1.212265975e+21
1.2692206e+21
1.349489708e+21
1.444048657e+21
1.554760743e+21
1.692545222e+21
1.847200194e+21
2.004716953e+21
2.146447277e+21
2.269030512e+21
2.354304311e+21
2.40143596e+21
2.390443363e+21
9.991410426e+20
9.972732593e+20
9.980883614e+20
9.985971319e+20
9.978973816e+20
9.999431581e+20
1.000130318e+21
1.000575683e+21
1.001199806e+21
1.003165371e+21
1.004489243e+21
1.004770366e+21
1.004684807e+21
1.00521955e+21
1.008566282e+21
1.009580767e+21
1.011637238e+21
1.013699057e+21
1.017740191e+21
1.023435975e+21
1.030515217e+21
1.039543982e+21
1.050739223e+21
1.067038974e+21
1.086934494e+21
1.111712224e+21
1.143899209e+21
1.184098182e+21
1.235905677e+21
1.298472978e+21
1.378198675e+21
1.476868049e+21
1.59897371e+21
1.73763809e+21
1.876541578e+21
2.010755363e+21
2.139998324e+21
2.236327812e+21
2.300596362e+21
2.326165513e+21
1.000594025e+21
1.002496859e+21
1.002676371e+21
1.003509004e+21
1.004061292e+21
1.002606858e+21
1.003065188e+21
1.003955112e+21
1.002946022e+21
1.002467831e+21
1.002339499e+21
1.00334095e+21
1.003947473e+21
1.005318644e+21
1.006954118e+21
1.009523822e+21
1.012609911e+21
1.014887047e+21
1.01661266e+21
1.021225751e+21
1.027975425e+21
1.034998569e+21
1.046170363e+21
1.059400823e+21
1.077530831e+21
1.10027775e+21
1.12702971e+21
1.160487801e+21
1.200289945e+21
1.256127527e+21
1.324158217e+21
1.413894652e+21
1.516387176e+21
1.626103745e+21
1.756276347e+21
1.88806609e+21
2.010164444e+21
2.120007054e+21
2.202388056e+21
2.239222512e+21
1.000742351e+21
1.000836304e+21
1.000098425e+21
9.985332974e+20
9.984034429e+20
9.987762015e+20
9.998960051e+20
1.000950118e+21
1.001906457e+21
1.003750391e+21
1.0057364e+21
1.006076313e+21
1.00635359e+21
1.006352062e+21
1.006876063e+21
1.007961494e+21
1.01207406e+21
1.015216538e+21
1.020876664e+21
1.025499482e+21
1.030387356e+21
1.039151003e+21
1.045536022e+21
1.053981908e+21
1.068912877e+21
1.086476072e+21
1.110953634e+21
1.13987451e+21
1.178030328e+21
1.226197924e+21
1.283069586e+21
1.355490936e+21
1.442420082e+21
1.546634382e+21
1.655966475e+21
1.780781801e+21
1.889202621e+21
2.001516783e+21
2.087499519e+21
2.144391806e+21
1.000461218e+21
1.001477097e+21
1.001338846e+21
1.002146965e+21
1.002352432e+21
1.002951266e+21
1.003065838e+21
1.002361598e+21
1.002540331e+21
1.003207908e+21
1.002078221e+21
1.003323245e+21
1.004747002e+21
1.005556649e+21
1.006583221e+21
1.00815745e+21
1.009219921e+21
1.011111135e+21
1.014000659e+21
1.017567689e+21
1.022897612e+21
1.030002649e+21
1.039736747e+21
1.051748551e+21
1.064666244e+21
1.07901304e+21
1.099213738e+21
1.122675176e+21
1.156907977e+21
1.196713596e+21
1.246515302e+21
1.30874433e+21
1.380979375e+21
1.469751846e+21
1.563013277e+21
1.675563408e+21
1.780856502e+21
1.881884435e+21
1.980196996e+21
2.051546012e+21
9.998733788e+20
9.992325601e+20
9.980716015e+20
9.991706933e+20
9.982327609e+20
9.973238524e+20
9.966708131e+20
9.973605143e+20
9.985000869e+20
9.994983586e+20
1.001080929e+21
1.002172383e+21
1.001931025e+21
1.002807091e+21
1.00432703e+21
1.006288439e+21
1.008184163e+21
1.010861242e+21
1.015837325e+21
1.018941361e+21
1.022099627e+21
1.027353729e+21
1.034504318e+21
1.041957367e+21
1.052365515e+21
1.068253082e+21
1.084774593e+21
1.106395157e+21
1.134087077e+21
1.168824947e+21
1.210723335e+21
1.258797718e+21
1.32288111e+21
1.396333133e+21
1.482997935e+21
1.572753026e+21
1.679655935e+21
1.778832359e+21
1.870934572e+21
1.955792251e+21
1.000261743e+21
1.000219736e+21
1.001599852e+21
1.000394637e+21
1.000783392e+21
1.000980442e+21
1.000227374e+21
1.000329718e+21
9.996049084e+20
9.991749111e+20
9.991833124e+20
9.997920299e+20
1.00179232e+21
1.00376435e+21
1.005585156e+21
1.0078077e+21
1.007957398e+21
1.011414943e+21
1.012710282e+21
1.01393459e+21
1.017162244e+21
1.022666669e+21
1.029846785e+21
1.038546021e+21
1.045221291e+21
1.05635387e+21
1.071978127e+21
1.092065038e+21
1.112041204e+21
1.142028748e+21
1.179013106e+21
1.221287271e+21
1.273093936e+21
1.335833838e+21
1.408372793e+21
1.491066712e+21
1.583665846e+21
1.678529531e+21
1.769584341e+21
1.859359088e+21
1.001040212e+21
1.000793526e+21
1.00014206e+21
9.994065834e+20
9.99185864e+20
1.000419296e+21
1.001738266e+21
1.001667238e+21
1.001025701e+21
1.001193723e+21
1.001603085e+21
1.000913432e+21
1.000202395e+21
1.001121168e+21
1.001694733e+21
1.002899906e+21
1.005600473e+21
1.007517447e+21
1.011042847e+21
1.015635948e+21
1.019845655e+21
1.022852479e+21
1.026986575e+21
1.033346959e+21
1.04132035e+21
1.049224242e+21
1.061166e+21
1.076007658e+21
1.094255574e+21
1.117602184e+21
1.146018466e+21
1.185273672e+21
1.23497677e+21
1.287895956e+21
1.352953942e+21
1.425828755e+21
1.500909234e+21
1.586079414e+21
1.673612589e+21
1.760298782e+21
1.001586905e+21
1.00166404e+21
1.001076747e+21
1.00227119e+21
1.002432333e+21
1.001479986e+21
1.000621576e+21
1.000697947e+21
1.002600349e+21
1.00222384e+21
1.002660682e+21
1.003295325e+21
1.004345427e+21
1.005677338e+21
1.007152062e+21
1.00717421e+21
1.006200479e+21
1.008022692e+21
1.010290148e+21
1.011469316e+21
1.014036146e+21
1.018355692e+21
1.02177635e+21
1.025895803e+21
1.033558108e+21
1.04449673e+21
1.055798114e+21
1.070752325e+21
1.085937176e+21
1.105388876e+21
1.130713508e+21
1.156703331e+21
1.194742976e+21
1.24013104e+21
1.291262969e+21
1.354088829e+21
1.426688653e+21
1.50156968e+21
1.585625922e+21
1.66729175e+21
9.984085781e+20
9.980870658e+20
9.990416746e+20
9.990271646e+20
9.995686187e+20
1.000330015e+21
1.002449246e+21
1.003027357e+21
1.004025496e+21
1.005374168e+21
1.004541749e+21
1.004586806e+21
1.004448579e+21
1.00359325e+21
1.003396218e+21
1.004751763e+21
1.006757205e+21
1.006668617e+21
1.006954236e+21
1.008525141e+21
1.010623753e+21
1.015573209e+21
1.020702131e+21
1.026621469e+21
1.031085984e+21
1.037109948e+21
1.046314668e+21
1.057177353e+21
1.070929066e+21
1.086428858e+21
1.106048743e+21
1.13405773e+21
1.164496005e+21
1.202429869e+21
1.247427838e+21
1.299701454e+21
1.360281695e+21
1.427027181e+21
1.501678355e+21
1.578538113e+21
9.998537936e+20
1.000866414e+21
1.001611751e+21
1.002509057e+21
1.001853069e+21
1.000866414e+21
1.002344106e+21
1.00151782e+21
1.001523166e+21
1.000860304e+21
1.002452546e+21
1.00235327e+21
1.001413198e+21
1.002671718e+21
1.002344106e+21
1.003692738e+21
1.004250214e+21
1.006691651e+21
1.00900632e+21
1.011043015e+21
1.011734132e+21
1.014390923e+21
1.015620424e+21
1.021758765e+21
1.026776808e+21
1.0311465e+21
1.039771334e+21
1.050128925e+21
1.062252109e+21
1.075746072e+21
1.093082798e+21
1.111646734e+21
1.137069147e+21
1.16793802e+21
1.205883777e+21
1.246583311e+21
1.299565635e+21
1.356091366e+21
1.4206898e+21
1.493718335e+21
1.00162042e+21
1.002415374e+21
1.001608965e+21
9.997517822e+20
9.999304749e+20
9.994440335e+20
9.986910801e+20
9.98156529e+20
9.980511461e+20
9.974142667e+20
9.960061064e+20
9.975089586e+20
9.991889762e+20
9.994409789e+20
1.001248525e+21
1.002426065e+21
1.004014445e+21
1.002172535e+21
1.004049573e+21
1.005139293e+21
1.007468409e+21
1.010380948e+21
1.0144023e+21
1.017813499e+21
1.022225073e+21
1.02641519e+21
1.032033321e+21
1.038995467e+21
1.049111465e+21
1.061445849e+21
1.075888655e+21
1.094765945e+21
1.115603509e+21
1.143664386e+21
1.17561374e+21
1.211207969e+21
1.253169464e+21
1.301686847e+21
1.35569636e+21
1.41342864e+21
1.000009322e+21
9.988272313e+20
9.979124089e+20
9.992426431e+20
9.976787397e+20
9.966615916e+20
9.972052924e+20
9.973954349e+20
9.963034516e+20
9.967608628e+20
9.980651338e+20
9.984446553e+20
9.977932834e+20
9.98109424e+20
9.987623232e+20
9.987310145e+20
9.997977983e+20
1.002707208e+21
1.004475e+21
1.006951435e+21
1.00968292e+21
1.011248351e+21
1.012822181e+21
1.014402884e+21
1.018835726e+21
1.024817198e+21
1.031088084e+21
1.037562095e+21
1.045673316e+21
1.055011683e+21
1.06840337e+21
1.086029355e+21
1.102549612e+21
1.122529089e+21
1.145929605e+21
1.176214961e+21
1.214696301e+21
1.256300102e+21
1.30063768e+21
1.354846635e+21
9.992311728e+20
9.982728473e+20
9.987684276e+20
9.991487034e+20
1.000329238e+21
1.002814012e+21
1.001383015e+21
1.002876628e+21
1.004531362e+21
1.006045593e+21
1.006393034e+21
1.006191442e+21
1.005488924e+21
1.005427072e+21
1.005463725e+21
1.004666521e+21
1.005078104e+21
1.005290387e+21
1.004667284e+21
1.004229738e+21
1.005017016e+21
1.006352563e+21
1.008447134e+21
1.012336943e+21
1.014570491e+21
1.019012387e+21
1.023565006e+21
1.029112604e+21
1.035364246e+21
1.045385812e+21
1.056015208e+21
1.069636412e+21
1.082368015e+21
1.101618523e+21
1.124296095e+21
1.15278089e+21
1.181305393e+21
1.219128327e+21
1.255211766e+21
1.299913263e+21
1.000122704e+21
1.001527707e+21
1.002152322e+21
1.002377581e+21
1.0033649e+21
1.00275403e+21
1.003633683e+21
1.003055647e+21
1.001830088e+21
1.001549087e+21
1.002124069e+21
1.00304343e+21
1.003980352e+21
1.00429266e+21
1.005661774e+21
1.006284862e+21
1.007377557e+21
1.008299208e+21
1.008133509e+21
1.00846567e+21
1.009908852e+21
1.010341806e+21
1.012046135e+21
1.013999394e+21
1.016447458e+21
1.018608413e+21
1.023547302e+21
1.027286593e+21
1.034418508e+21
1.03985831e+21
1.048027178e+21
1.059714659e+21
1.07404492e+21
1.088755448e+21
1.103597313e+21
1.125749009e+21
1.150916878e+21
1.180885426e+21
1.215010949e+21
1.252781842e+21
1.001007678e+21
1.000271595e+21
9.992636809e+20
9.989414538e+20
9.992308473e+20
9.986925295e+20
9.985359974e+20
9.995553652e+20
9.995630009e+20
1.000579314e+21
1.000657199e+21
1.001471166e+21
1.00184837e+21
1.003085356e+21
1.003359478e+21
1.005338655e+21
1.004590355e+21
1.003948955e+21
1.005672335e+21
1.007723288e+21
1.008235644e+21
1.010249182e+21
1.012407798e+21
1.013920433e+21
1.017604665e+21
1.01971823e+21
1.024176723e+21
1.027520402e+21
1.033522073e+21
1.03816306e+21
1.04326448e+21
1.051399569e+21
1.061309962e+21
1.074923675e+21
1.091354203e+21
1.105544413e+21
1.126512083e+21
1.148236451e+21
1.174504069e+21
1.207938568e+21
9.999977456e+20
1.00032302e+21
1.000852927e+21
1.002263214e+21
1.001556162e+21
1.001475225e+21
1.001458427e+21
1.003096253e+21
1.002130355e+21
1.000457406e+21
1.000215359e+21
9.99768679e+20
9.993937734e+20
9.995999333e+20
9.993097823e+20
9.991234748e+20
1.001684439e+21
1.003113814e+21
1.003549041e+21
1.004530209e+21
1.006224538e+21
1.007737141e+21
1.010171355e+21
1.011796201e+21
1.013804351e+21
1.017061678e+21
1.020251812e+21
1.024566662e+21
1.028083598e+21
1.03375834e+21
1.038727558e+21
1.045374306e+21
1.053086214e+21
1.062432893e+21
1.07445278e+21
1.087484377e+21
1.103331966e+21
1.12377463e+21
1.148579485e+21
1.173881415e+21
1.000009676e+21
1.000687699e+21
1.00176429e+21
1.001952121e+21
1.000982426e+21
1.002001751e+21
1.001309221e+21
1.000412061e+21
1.00279965e+21
1.00359984e+21
1.004626801e+21
1.005407139e+21
1.005391868e+21
1.004352691e+21
1.004076289e+21
1.003169204e+21
1.001910127e+21
1.002123154e+21
1.004051856e+21
1.004093851e+21
1.004257248e+21
1.004581753e+21
1.005894278e+21
1.006344002e+21
1.00785123e+21
1.007942855e+21
1.010699997e+21
1.014797916e+21
1.019754817e+21
1.023061708e+21
1.031082694e+21
1.038552404e+21