/*--------------------------------*- C++ -*----------------------------------*\
| =========                 |                                                 |
| \\      /  F ield         | OpenFOAM: The Open Source CFD Toolbox           |
|  \\    /   O peration     | Version:  v1706                                 |
|   \\  /    A nd           | Web:      www.OpenFOAM.com                      |
|    \\/     M anipulation  |                                                 |
\*---------------------------------------------------------------------------*/
FoamFile
{
    version     2.0;
    format      ascii;
    class       volVectorField;
    location    "0.004";
    object      UMean_Ar;
}
// * * * * * * * * * * * * * * * * * * * * * * * * * * * * * * * * * * * * * //

dimensions      [0 1 -1 0 0 0 0];


internalField   nonuniform List<vector> 
4000
(
(998.8393825 0.3860316482 0.04377954773)
(998.5763689 0.01718064046 -0.09481577289)
(997.2290387 -0.08429657134 0.2617747837)
(996.7602395 -0.4227225693 -0.1116638796)
(994.3528345 -1.087377464 -0.0295189503)
(992.049849 -0.8649046303 0.07025863824)
(991.1783737 -1.399194086 0.05998154655)
(990.9936652 -1.207101199 -0.21207514)
(987.8565625 -1.552458677 -0.04906658952)
(984.6396747 -0.4240473408 -0.02556781338)
(980.2376962 0.5247076886 -0.1108600971)
(975.8811319 -0.5157298102 -0.01739273934)
(969.0559376 -0.7361170146 0.06282244989)
(960.2743841 -0.1881445641 0.0492223022)
(951.9562 -0.03763366972 -0.07102644872)
(940.5252059 0.6909139583 0.1621257979)
(923.4438609 -0.2896717139 -0.1423905595)
(902.8936654 -1.756486799 -0.09728894857)
(879.8264319 0.01014302172 0.0335542138)
(850.4741666 0.4869963423 -0.07510499071)
(811.4347119 -1.528316309 -0.3626731781)
(766.3572307 0.9327445518 -0.006262079785)
(714.129999 1.659729342 -0.03252519976)
(656.1380206 3.231749778 0.1754695619)
(586.9299631 2.893732442 -0.2338046396)
(517.2800383 4.961589035 -0.07884508641)
(446.385329 2.873482002 0.2389726506)
(381.2852201 5.741003077 -0.2374837663)
(319.2610716 6.393200124 0.1647259264)
(266.9508677 5.479713532 0.3916721583)
(223.8470427 7.119409081 0.1926352906)
(185.9613957 6.815218124 0.06898658959)
(150.3736379 8.05858827 0.2270147447)
(118.2395099 7.082822889 -0.0936068571)
(91.17629566 5.959752451 0.01401293081)
(67.41389069 5.386125504 -0.1662509753)
(44.68794642 5.252210177 0.1722899874)
(25.54511668 4.426677018 -0.01171124647)
(11.96007918 2.733000322 -0.1449975186)
(3.031912318 2.027569351 -0.1205824629)
(998.3235287 0.1015912377 -0.00145204507)
(998.1137704 -0.1325402832 -0.0264793354)
(997.5635338 -0.1677420254 0.01988038773)
(997.355818 -0.3257407896 -0.0871652137)
(996.9471541 0.05208610071 0.09215406107)
(994.9739527 0.0611410163 0.1895140298)
(993.1176726 0.04596724815 -0.1638031989)
(992.3279965 0.2594778474 -0.06255632957)
(990.0251255 0.2700593871 -0.1031971181)
(986.5193593 0.5756339803 -0.004996709216)
(983.003391 0.171194324 -0.1067686829)
(978.0785118 -1.016943142 0.0246277832)
(972.6868866 -0.4064481028 -0.294699204)
(965.1832767 -0.3967341447 0.04319539254)
(954.1641412 -0.6092771947 0.2110781994)
(944.7792269 -0.5213438502 0.001945187745)
(929.1634966 0.5380047766 -0.04366395862)
(909.2609809 0.8812159391 -0.1844206156)
(885.6097431 1.619116767 0.1308313268)
(853.7091003 1.233244477 0.01421961197)
(816.1877374 1.838510171 -0.1516348143)
(769.7935536 4.197842448 -0.06732397491)
(715.6344168 4.260751682 0.1098860268)
(655.1908484 6.210318177 -0.1871570201)
(584.9445068 8.038732397 0.2780402261)
(512.5846225 7.38384975 0.05784822843)
(442.3931038 9.516893406 -0.01553159603)
(374.2771471 12.42633279 0.1902808054)
(315.2783214 12.83556856 0.2613938628)
(264.0237992 14.49696522 -0.1241379553)
(219.9627085 15.88655558 0.2126978981)
(180.2347522 16.22670024 -0.01657849402)
(148.4100509 16.12913396 -0.1226320066)
(118.8840646 15.56707807 -0.1498555849)
(91.8525115 13.41767552 -0.2723746697)
(66.14199774 13.6493039 0.155860326)
(43.07495708 12.86873709 -0.1054424276)
(24.98872569 10.20200657 -0.02853132673)
(10.42178312 6.821642284 0.03876188916)
(1.818314618 4.155215143 -0.08028913327)
(999.017522 -0.02598523518 -0.1667684283)
(998.3773884 -0.2164000607 -0.06667328615)
(997.9385721 0.1785469802 -0.358147261)
(997.2088712 0.2690608415 0.1015566509)
(996.5472974 -0.1711539253 0.03660709921)
(995.2539962 0.4163770916 0.09774278528)
(994.295223 0.7935249244 0.122980979)
(992.0663009 0.7008202465 -0.06232070491)
(989.6512875 0.4853712557 -0.06074733321)
(987.252087 0.1516760456 0.1862359814)
(983.6491853 0.04134924028 0.1691816118)
(978.5719391 0.1308567358 -0.2496271555)
(973.2166449 -0.01664808288 0.2018520602)
(965.4933827 0.2296376728 -0.1329176337)
(956.0349816 0.5323197811 -0.02859425832)
(945.2916523 0.6305829665 0.2032686006)
(931.6211472 1.687608238 -0.26637108)
(912.6197521 2.924257536 0.1021588636)
(888.9409345 3.658126835 -0.1512745483)
(856.7975641 3.465027508 0.07294535136)
(821.1799406 4.458197915 0.1255359671)
(776.0173129 6.859539585 0.4944417586)
(722.0008393 7.771332064 0.1999772644)
(659.430355 10.01848102 -0.06538523958)
(589.3837028 11.95906091 0.4118680922)
(514.9647715 13.7536787 -0.06958467969)
(443.5352397 17.65514818 0.1897212674)
(373.5368047 20.17802375 -0.1615288839)
(313.7382499 21.49265493 0.02672026929)
(261.3325168 23.29289868 -0.01789499794)
(216.8153264 25.67099 -0.2272696075)
(180.3490903 25.37626428 0.001755922447)
(147.0577675 24.62977425 0.141422311)
(117.4989912 25.80541229 0.1428287931)
(89.1683282 23.39449875 -0.1767754367)
(63.84819034 22.70715779 -0.0112226355)
(42.37397066 20.21979161 -0.0484563395)
(23.86099533 15.63443088 0.08170800259)
(10.17810325 11.80098968 -0.0767920798)
(1.744204016 5.84801188 0.03041225023)
(999.0595883 0.2515599259 0.1650858874)
(998.5058085 0.3089329553 0.08170357109)
(998.1100912 0.2628082968 0.2228769136)
(997.6988572 0.2257740726 -0.1450771309)
(996.902948 0.564731207 0.2260142124)
(995.8473625 0.2868744701 -0.1607774222)
(994.8996357 0.3579081106 -0.0529065933)
(993.5296027 0.4257461693 -0.03707946456)
(991.9274438 0.2431023158 -0.0179830507)
(988.9130493 0.05222349411 -0.2336579953)
(985.1895282 0.2242509638 0.1771177698)
(980.3648286 0.5601899173 0.06582728199)
(974.0081811 0.7616187892 -0.06962403677)
(966.6485669 0.9269213558 0.1556743121)
(959.4896728 2.068199382 -0.1145653149)
(947.9964166 2.147035964 0.02312440491)
(933.9815791 2.855398153 -0.4527434757)
(916.7776455 4.289349288 0.09351477536)
(892.8754051 4.664255657 0.18841759)
(861.7303512 5.30318473 -0.4710047452)
(826.8725199 7.506187009 0.1151989104)
(782.8489485 9.628840403 0.1776122542)
(727.5453617 11.59478726 -0.009414861324)
(663.1049255 13.54734367 -0.04375161042)
(595.6374389 17.4639894 0.002834410193)
(520.4526517 21.61044549 -0.007367716945)
(446.3983018 24.82067663 -0.2125130765)
(377.4824937 28.51776973 -0.07848348386)
(315.6819236 30.23196908 -0.1382156417)
(262.8049993 32.32130766 -0.01960665348)
(218.8543845 34.03076493 0.04251071699)
(181.190798 34.3471053 0.1686174831)
(147.9435146 34.36817049 0.1639440637)
(117.9744839 34.56479606 -0.1822728574)
(90.35961127 33.48207912 0.05326969183)
(65.16318533 31.70253909 -0.06660149576)
(42.37635428 27.34572188 -0.02413707486)
(23.62192301 22.90216092 0.01057872843)
(9.819530326 15.91380627 -0.08045405198)
(1.741504563 7.656845584 0.06780317648)
(999.4298146 0.1493858219 -0.08756535872)
(998.9078485 0.06987516406 0.3414099839)
(998.2674723 0.2564873743 0.01311416102)
(997.0955222 0.1726767344 -0.5356983345)
(996.7314879 0.1093708871 0.5207628836)
(996.1366109 0.174396623 0.2515433358)
(994.9387699 0.09914489899 0.433965372)
(993.6458644 0.383113061 -0.2628344442)
(991.6069571 0.7295667584 -0.4381106208)
(988.0011565 0.6624946151 0.2360458265)
(984.9450544 0.3383168957 0.08420195532)
(980.4360138 0.9903313206 0.3384130284)
(975.4182636 1.590653637 -0.03674990303)
(969.5302294 2.54277277 0.271083872)
(961.7291235 2.518029636 -0.0260651411)
(950.5522983 3.660874439 -0.1167501367)
(935.8670729 4.288174967 0.1925330651)
(918.5318886 4.92534033 -0.09513489401)
(892.4107409 5.941894296 -0.1452723229)
(863.9565521 7.378343252 -0.2434759961)
(830.193583 9.604592522 -0.2055829768)
(787.4948548 13.02945476 0.158644988)
(732.1862421 14.72238384 0.0620076956)
(669.2409757 18.19850933 0.1914621432)
(598.6420584 23.58435609 -0.4215606702)
(526.0458378 27.83980713 0.06007449074)
(451.4688118 32.15158599 -0.0565735602)
(383.43989 35.28227447 0.2145318217)
(321.5733581 38.83715499 0.2552446691)
(267.7661309 40.94435149 0.08826383891)
(221.3718211 43.89640052 -0.00506066486)
(183.0918802 44.11551164 0.04492368471)
(150.1751741 44.48650531 -0.2023432888)
(118.5055853 44.52447898 0.06714505541)
(90.87182226 42.55879189 0.04479265158)
(65.86164866 40.53060902 -0.03959501619)
(43.02445981 35.34258291 -0.145585194)
(23.99486299 29.81023218 -0.267763837)
(9.638031523 20.33059037 0.04751372641)
(1.87014863 9.811496161 0.08730050693)
(999.3984596 -0.3971530132 -0.2208598946)
(998.9063516 -0.7364781439 -0.0952954019)
(998.7330015 -0.4295012479 -0.1439148456)
(998.2509132 -0.05235755783 -0.03609276476)
(997.431489 0.04385909356 -0.09425172378)
(996.7008999 0.1711549077 0.5741927238)
(995.5473825 0.236204826 0.093567147)
(993.6522038 0.2358208296 -0.3258526111)
(991.446135 0.6362378886 -0.1303958101)
(989.026465 0.8391313566 0.3000833111)
(986.3041028 0.6362428964 -0.2128367274)
(982.3124872 1.730035588 0.1116700778)
(977.7242189 2.200172152 -0.1589533711)
(971.0445561 2.704482289 -0.1016699537)
(963.1385319 3.229569432 -0.0337031014)
(952.6094568 4.401658551 0.09202758699)
(938.7979292 5.320648983 -0.2607895223)
(922.2655665 6.462346522 -0.3268707424)
(898.0774226 8.01198173 0.1459476455)
(868.2148167 9.257400878 0.2610859421)
(834.8056723 11.29769637 0.05478345806)
(790.1915699 14.64135498 0.244656271)
(736.9993958 19.20032667 -0.1614635275)
(673.9659181 23.30808773 -0.2482138882)
(605.1252232 28.17972556 0.1660393771)
(533.0727883 34.3193245 -0.07033538282)
(460.3793635 38.98468939 0.1005491578)
(388.4178766 43.95327088 0.3441585353)
(324.716936 46.73840079 -0.3891501967)
(270.7603381 51.03402433 0.2471962605)
(226.1317699 54.26048654 -0.04922598936)
(185.2809337 54.46095247 0.09738231207)
(151.1726728 54.80048004 0.01652296811)
(120.6379416 54.99151946 0.06795310776)
(91.70259768 52.15592922 -0.1512187225)
(66.58419724 49.47640312 0.1458616617)
(43.93367459 43.15037824 -0.1992662901)
(24.7295261 36.61095709 0.1268224291)
(10.43450894 25.16571852 0.006103451416)
(2.072082378 12.06654002 -0.03044293908)
(999.321456 0.1181477064 -0.1601802325)
(998.8116751 0.4991790002 0.1657312592)
(998.0238951 0.6423204551 0.0732122451)
(997.6019106 0.3913529897 0.1665404405)
(997.0562908 0.03585376005 0.3148458067)
(996.6164672 -0.1028053898 -0.1454797359)
(995.6133762 0.04117489406 0.1679452532)
(994.2191007 0.424310206 -0.2408036046)
(992.0164564 0.6477263589 0.01684438632)
(989.5560391 0.4987950834 0.5014324885)
(986.3028607 0.8937221124 0.06684088545)
(982.7800683 1.424836414 -0.2077837269)
(978.3543061 1.999248601 -0.551545656)
(972.9053255 2.73248537 -0.08973434355)
(963.9689067 3.078120967 -0.3968453161)
(953.973421 4.04051183 -0.02662042999)
(940.160439 5.826812533 0.09797793801)
(923.9193772 7.211932634 0.4385745985)
(901.4635256 8.614746578 0.2386343391)
(875.0086658 11.43482644 0.1360079969)
(839.5947605 14.75398078 -0.2496535046)
(795.3304033 17.44159087 -0.1466351724)
(745.0173342 22.19361674 -0.03223436537)
(684.883882 27.85164436 -0.1594566358)
(613.2555777 33.32019825 0.1421227002)
(541.6501799 41.70224589 -0.1805590889)
(465.6621275 47.31530953 -0.1175823292)
(393.9670665 52.2319685 -0.3538397332)
(330.3663006 55.26666992 -0.0273159678)
(276.0458906 59.44036564 -0.04493957668)
(229.8283832 64.75339224 0.1753713149)
(189.2882399 65.53173905 -0.04038943203)
(153.9799502 64.46890159 -0.04840889276)
(123.5177229 65.50244113 0.09015317324)
(95.27164453 62.66815943 -0.006499745032)
(68.97918712 58.67345291 -0.1983495845)
(45.24003814 51.6747686 -0.08412027964)
(25.64525082 43.45222642 0.2187104031)
(10.46575754 30.49447537 -0.1049722932)
(1.875376535 14.54925028 0.03300728978)
(998.7913049 0.4506109109 -0.3791013071)
(998.3728545 0.2177073713 -0.2117155448)
(997.8591887 0.01562936814 0.1447248454)
(997.8368362 0.141095119 -0.1179523079)
(997.6704283 0.4023748979 -0.05843498439)
(996.6779858 0.4495668484 -0.115611194)
(995.4820241 0.5756190866 0.02409610252)
(994.2362627 0.5009701807 0.07277558205)
(992.5067561 0.9370146336 -0.287442165)
(989.752119 1.145208546 -0.2196971725)
(987.3261716 1.522212178 0.1932885276)
(983.1577013 2.342108017 0.2360125403)
(978.3397865 2.932153732 0.05389142769)
(972.6043996 3.309274052 -0.1288623372)
(963.1100934 3.180864323 0.2421675098)
(954.2642319 4.277347632 -0.2730606461)
(942.5832119 5.946641779 -0.1907330818)
(924.2465091 7.099972861 -0.1474146313)
(901.8071298 9.235866901 -0.122609946)
(875.5045089 12.51226778 0.6345160513)
(840.6211269 16.03517578 0.1469992366)
(800.434507 19.35539943 0.6049704577)
(750.7542754 25.10600648 -0.2256072612)
(691.4532211 31.28208482 -0.6360160355)
(621.9854988 38.11256439 -0.2028476841)
(548.9675416 45.74036354 0.3215471462)
(475.6626396 54.14087869 -0.1152640513)
(404.578365 60.85117244 0.2483901269)
(340.4130574 65.58607945 0.2268881758)
(283.026514 69.58863604 -0.6164606869)
(234.8867911 73.49454911 0.06126415708)
(194.7797927 76.408212 -0.2206033338)
(159.2295539 75.77917082 0.2268094497)
(126.8914972 75.58416851 0.0220631624)
(97.93952166 72.32690691 0.1260440785)
(70.78130594 68.31065892 0.01452889556)
(46.25324796 60.93883854 -0.007888068076)
(25.84664642 50.45986639 -0.0329207927)
(11.44130779 36.12094964 -0.02663819398)
(2.398612966 17.16284919 0.04449716323)
(998.9745716 -0.1017716796 -0.1042364608)
(998.8322034 0.3626375141 -0.0972556419)
(998.1290627 0.5490170921 -0.4006847993)
(997.836026 0.461160827 -0.2260478628)
(997.219126 0.5906530069 0.09827655797)
(996.5321307 0.7109705601 -0.03471967175)
(994.8698422 1.058480079 -0.2830689016)
(993.8781832 1.202693666 -0.3352695348)
(992.1183146 0.9815573872 0.07650474761)
(989.5744255 1.269982424 0.3619557277)
(987.1901196 1.596434246 0.04235484366)
(983.4801758 2.013489868 -0.5120624265)
(979.0973294 2.981360363 -0.260306136)
(974.3287022 3.472699044 -0.09782680139)
(966.3436163 3.684262602 -0.03239165204)
(955.9674096 5.085039053 -0.2150214266)
(943.2808636 6.715687944 0.4503711892)
(928.1087169 8.233354744 -0.009322587846)
(906.5952673 11.28314259 0.2439653473)
(880.5008953 13.55595322 0.3584549681)
(845.570472 18.0183574 -0.008658426919)
(804.4057119 21.32767393 -0.2922210203)
(756.8651561 26.75977755 -0.1079205479)
(698.6426781 35.06377099 0.3210503223)
(631.6807686 42.51490374 0.1547690841)
(557.6853642 50.2235492 -0.3322812286)
(485.3532686 59.6280678 -0.1235139505)
(415.5341738 68.17301943 0.1152162657)
(349.074029 74.59234087 -0.3832972213)
(292.0423433 79.88999348 0.2469752963)
(244.1545386 83.85484536 -0.05171427737)
(202.0232809 87.09212672 -0.2045626871)
(163.9798058 87.9462099 0.2720932211)
(131.2751427 85.80963625 0.04226438216)
(101.2354942 83.7106458 -0.1609400437)
(73.2745221 78.303491 0.02112737113)
(48.63263679 69.7361365 0.03188775942)
(27.94187828 58.04723313 0.04902145815)
(11.75208241 41.62308183 -0.2541699099)
(2.144831863 20.0598161 0.1482051645)
(999.2669064 0.9431613861 -0.4918207204)
(999.0193586 1.024100308 -0.4443474551)
(998.5490276 0.994768015 -0.4526760395)
(998.1357228 0.7284575461 0.07749689625)
(997.6507077 0.8422449172 0.1238003273)
(996.3562932 1.014513297 0.2482262721)
(995.2638315 1.216695719 0.2996232878)
(994.3444589 1.359222025 0.2518664762)
(992.3852149 1.48832311 0.1597349383)
(990.3774174 1.347584226 0.1149695787)
(987.4481226 1.643778245 0.371908402)
(983.9282476 1.729013646 0.122979374)
(978.732535 2.011319623 -0.2207884903)
(973.2499753 2.868330177 -0.3704429678)
(965.5742861 4.285671067 0.1044742466)
(956.7649478 5.58221924 -0.1462456251)
(944.8440144 7.428864331 0.3117664678)
(930.6669455 8.875153402 0.6105696298)
(910.3944683 11.80610497 0.004552771802)
(884.4277708 14.90503321 -0.03390307419)
(852.7799558 18.71654932 0.2610001479)
(812.9345956 23.21012614 -0.2137609504)
(764.3620141 29.26043701 0.4015497546)
(706.9742464 37.14689951 -0.2614494379)
(639.6672983 46.24423023 0.2735264792)
(569.0595196 55.48893316 0.4841868771)
(497.8121386 65.25210417 -0.3146620139)
(425.6147465 74.3206755 0.1717559124)
(360.4231116 83.54652048 -0.3186378097)
(301.2364067 89.23917762 0.3797000859)
(250.8317949 94.7522273 -0.1504501606)
(208.7701164 97.69157776 -0.293831688)
(171.3853966 99.85011478 -0.4714967223)
(137.2315683 97.5947475 -0.4880377514)
(105.6027176 95.18312489 0.4886567504)
(77.48078442 89.20958361 -0.09368414324)
(51.30265208 79.71708276 -0.1588274116)
(29.20431921 66.22918051 0.007328551283)
(12.2115213 47.84515069 0.1699340975)
(2.487406786 23.20993268 -0.08795209371)
(999.4347149 0.3856694506 -0.1243124233)
(999.2321367 0.4035594497 -0.04415609442)
(998.9811094 0.3612263432 0.4594667416)
(998.1085567 0.6516571213 0.2691976894)
(997.32476 0.796728061 0.2272757716)
(996.0205031 1.031271373 -0.05787360141)
(994.8680846 1.045813415 -0.3280906433)
(993.7391346 1.185034096 -0.03108717757)
(991.9592076 1.178802201 0.2148976257)
(989.846468 1.637018271 0.33371512)
(987.3487834 1.879931003 0.0006437101048)
(984.7011142 2.727621332 -0.1980787739)
(980.8116841 3.310103827 -0.300154942)
(974.9786088 4.655579898 0.1843511674)
(968.1671037 4.89213164 -0.1901992458)
(960.4931663 5.525030237 -0.3614477343)
(949.3448363 6.551400055 0.1981788457)
(933.9936951 8.64349111 -0.3575326335)
(915.2760204 11.15587539 -0.05158332361)
(891.2060994 15.57463608 0.07859096523)
(860.0068132 19.83363564 -0.3182375433)
(821.1934357 25.198165 -0.06209276209)
(773.2746659 32.07213485 0.2011256579)
(717.1073539 40.94949744 0.2538532557)
(651.7109261 50.63087368 -0.1058781035)
(580.6933685 58.32702379 -0.5114806675)
(509.4110628 69.81900372 -0.09816942136)
(438.953087 80.75467597 -0.04546550188)
(371.8532592 91.84318075 -0.159324588)
(311.732897 99.18385932 0.2894471651)
(261.7194947 105.032243 0.179815593)
(216.7509397 109.0999677 0.2591711495)
(178.3236206 110.9864543 0.6846481048)
(144.1613022 110.40979 0.3428159553)
(111.7832597 106.9786359 0.05464137675)
(81.99680519 100.3559406 -0.03036689747)
(55.10749815 91.06589342 -0.02346091654)
(30.74828195 75.74904433 -0.1471217166)
(13.40214844 54.48815569 -0.02469486871)
(2.357650944 26.51478587 0.04258129795)
(998.5181314 0.1420985099 0.0101465881)
(997.9650138 0.1716967908 -0.1234296529)
(997.6597145 0.4015764474 -0.003276807574)
(997.8572322 0.421737058 0.3677308444)
(997.0441105 0.6521791481 0.6247175917)
(996.7926764 0.6155154722 0.1414598136)
(996.0942206 0.7109875669 -0.2712756248)
(995.5102986 0.8602070823 -0.09576748412)
(993.6012163 1.495389908 -0.3863047954)
(991.5306668 1.842475174 -0.3569756348)
(989.1278429 2.138550153 -0.01953074546)
(985.9908465 2.512766302 0.05538870524)
(981.9077912 2.682133833 -0.07126481761)
(975.3914907 3.491643403 -0.2840011986)
(969.5016901 4.269207657 -0.5314263696)
(960.9299519 6.125746572 -0.04708344104)
(951.2852084 7.875417943 0.3316852294)
(936.5457326 9.890084189 -0.3227335263)
(917.0755724 12.5503842 0.2603671796)
(895.7820516 16.20933346 0.1719028084)
(865.1152843 20.64569101 0.380990521)
(825.9849223 26.2028808 -0.2645848528)
(782.7214906 33.53891083 -0.02913186626)
(730.3618513 42.72387531 -0.5299507475)
(666.9347791 53.33140986 0.2077933447)
(596.5557294 64.47044607 -0.4065962839)
(524.459595 76.03811915 0.1893515966)
(451.4831342 87.15087306 0.5973967071)
(384.2015503 98.37348066 -0.4625897076)
(324.279904 108.1119792 0.37800943)
(272.4657604 114.9428482 0.4248945179)
(227.425127 119.8955495 -0.5916933303)
(187.0828692 123.2793931 -0.1563911795)
(151.4796057 121.6635825 0.01594301915)
(118.2441791 119.6951035 -0.03130552121)
(87.08798368 112.5318367 0.4747315186)
(58.37584865 103.5662455 0.0116817295)
(34.04677345 86.24560036 -0.2084865638)
(14.66040382 61.76077814 0.4704494601)
(2.85767013 30.3545871 0.04654324709)
(999.5926034 0.4531471184 0.1043915441)
(999.735281 0.6271161661 0.2685413231)
(999.0648037 0.6744612161 0.8205576695)
(998.3868874 0.49177751 0.6553970618)
(997.7402125 0.6641005146 0.1532613002)
(997.0664606 1.100343001 -0.2516207407)
(996.361931 1.001019642 -0.3022093819)
(995.518746 1.006404213 -0.2516161406)
(993.6840653 0.8437684336 0.06413412498)
(991.8769412 0.9192501401 0.04372134868)
(989.7063096 0.8745281254 0.05647880729)
(986.7266556 2.047163601 -0.09975449046)
(983.5496499 2.571209755 -0.07008913241)
(977.3012042 4.240111868 0.4022476469)
(970.7490028 5.465244012 0.1391773932)
(963.6326335 7.049531483 0.08808724598)
(953.9393135 8.232453327 -0.1614941309)
(938.8012958 10.03241153 0.1616058843)
(921.5667741 13.29070138 -0.1100637194)
(900.1358358 16.02396754 -0.387080356)
(871.1955942 20.96102829 0.2424748997)
(833.9639702 27.09068136 -0.5359973314)
(792.6823032 34.9493448 0.6575299835)
(740.6625179 44.2719811 0.08036009675)
(679.7082407 56.16782297 0.01105145856)
(611.9224228 68.03541423 0.3697689761)
(540.5123925 80.06313771 -0.369726645)
(469.5855269 93.65120357 -0.5407851064)
(400.1441949 105.618187 -0.07768084691)
(338.7250352 115.9520851 -0.2671552645)
(285.4899997 125.1063542 0.03105426109)
(240.812331 131.6509744 0.1660652496)
(199.1628915 135.2595369 0.6042894062)
(162.1235406 135.4572559 0.1226761882)
(127.2868574 133.166529 0.1296644639)
(93.91099773 126.9559393 -0.271073113)
(63.79369905 115.9928647 -0.02860848938)
(37.63410995 96.64718607 0.09153548287)
(16.45844768 70.72941419 -0.2433286206)
(3.406531549 34.94083646 -0.1465808775)
(999.5385351 0.5059470434 0.3639150483)
(999.242066 0.4128970038 0.7674126266)
(998.7497943 0.3029890095 1.253636907)
(998.1477491 0.2768921266 0.7079939258)
(997.6791185 0.2432354209 -0.283692376)
(997.1521233 0.2230391062 0.01027902885)
(996.1366812 0.0002499294062 -0.240255007)
(994.9487179 0.2372779036 -0.08905366102)
(994.0048719 0.6544394285 0.2273826961)
(992.0462302 1.384129581 -0.03566508577)
(989.7935447 1.724402867 -0.1154527809)
(987.108258 2.031546789 0.2305659254)
(983.4969239 2.64317478 0.198416141)
(978.9626223 3.505644594 0.214649675)
(973.2502763 4.167469543 -0.03052294427)
(965.5225118 5.304257371 -0.2990826539)
(956.8644141 6.942956561 -0.1322883007)
(942.4879993 9.437220931 -0.2312842594)
(925.4370819 13.47657699 0.784407727)
(903.7559273 16.99486233 0.9284768261)
(877.2998289 22.51486975 -0.05521611589)
(843.4882997 28.21420044 0.2775305607)
(802.7338005 37.34604141 -0.535877243)
(755.8982468 46.87346418 -0.9537782113)
(694.393366 57.46421555 -0.2313046425)
(628.7750604 70.30392334 0.1138642047)
(556.7043582 84.03664463 -0.532361174)
(486.7579899 98.6617499 0.409799019)
(418.0736764 112.4637471 0.1661019757)
(356.2292047 124.2502678 0.8022724825)
(301.1712873 134.115788 0.1524418814)
(252.1070659 142.8096005 -0.4402185013)
(210.3466898 147.5594934 0.05820218011)
(171.538798 149.3642776 -0.003800795175)
(136.4119067 147.2337358 -0.2371428852)
(102.3742223 141.6101795 0.4402058999)
(70.17536206 130.1412782 0.1114035105)
(41.47341265 110.2656004 0.1266938234)
(18.13436048 80.93241208 0.1579072821)
(3.569478785 40.27528491 -0.04380309212)
(999.44047 0.002937505194 0.2714112473)
(999.2093546 -0.02971585367 -0.07340005947)
(999.1002073 0.06680585889 -0.4374674537)
(998.498493 -0.1263912 -0.6441158367)
(998.0242741 -0.2947748781 -0.3354488289)
(997.1565473 -0.3433252242 -0.03652788409)
(996.5626325 0.1003710335 0.08558301049)
(995.3214566 0.4509472382 -0.1397083909)
(994.2607983 0.7846989614 -0.0489594391)
(992.5639883 0.867987052 0.2178403688)
(990.3267341 1.266050013 0.3797598047)
(988.1443637 1.812730195 0.09281387123)
(984.0861546 2.378993129 -0.111956279)
(979.6879861 3.308477545 0.3614698538)
(973.8984665 4.144735237 0.3134376392)
(966.7495423 6.578714925 0.1396244205)
(956.6867122 8.031539423 0.018223209)
(944.716437 10.25730892 0.3292703725)
(929.2285002 13.29573584 -0.287108197)
(908.7280441 17.08602924 -0.6599121848)
(883.6580152 21.99655097 0.1938726234)
(853.3657768 29.01251177 -0.2109044091)
(813.6777988 37.92327063 -0.340043987)
(765.5958363 48.66240237 -0.693014815)
(709.9377446 59.59378469 0.6378171822)
(644.9302703 72.786818 -0.6900736976)
(577.788793 87.50532507 0.00827266852)
(503.8454225 102.7173176 -0.5580751861)
(434.5752487 118.1583469 0.4664449904)
(372.1976888 132.5208829 -0.1084021108)
(315.4614572 145.0401998 -0.08193847175)
(266.0400998 152.8874359 -0.1127596984)
(224.6209663 160.3654144 0.1040904095)
(185.5430417 162.8617206 0.3266721687)
(147.6234409 162.0771888 0.01899799273)
(112.2542403 158.0822615 -0.5189834905)
(77.90626748 145.6297767 -0.06092725194)
(46.13049934 124.9798621 -0.01103138684)
(21.02369178 92.85709842 0.2603652582)
(4.211391585 46.64029946 0.151998603)
(999.2444612 -0.316717966 0.6491605211)
(999.2531315 -0.1762639989 0.3218015915)
(998.8273941 -0.01637841077 0.0007053512279)
(998.4172511 -0.03306980807 -0.5403649844)
(997.6047439 0.2048279195 -0.8323732479)
(997.0518036 0.01241373177 -0.4829602768)
(996.6685824 0.1950448912 -0.5850242617)
(995.8465477 -0.08398043945 -0.5384459392)
(994.47546 0.261730439 0.005435411926)
(992.5706584 0.3721626995 0.2775877856)
(990.575676 1.393788521 0.1663155756)
(988.1922319 2.140172995 -0.1661882244)
(984.65541 2.751334612 0.04231848044)
(980.4276094 3.805385806 -0.2270821295)
(975.1891771 4.564226722 0.01650882016)
(968.4867527 6.083586855 0.6158309492)
(958.5723922 7.650522648 0.3748447843)
(947.9600563 9.801810088 0.3990719266)
(931.6271548 13.72238541 -0.2693732996)
(912.9894778 17.40057601 -0.5329376767)
(889.2898946 22.93334327 -0.7173224386)
(860.018824 29.76533993 -0.4868859571)
(822.9661609 37.93484884 -0.1600533479)
(777.5628116 48.69349592 -0.06679941851)
(723.4938928 60.80030658 -0.00400280363)
(662.4123863 74.14407296 0.4825133703)
(593.5450561 91.03313223 -0.2456344299)
(524.2501092 106.5822079 0.4124709889)
(453.9868615 124.2376374 0.09442348275)
(390.3380088 139.9179335 -0.3823321228)
(333.3086106 153.0748608 -0.6238199323)
(283.1895855 163.1503459 -0.5260027015)
(239.4188975 171.7380484 -0.239656801)
(199.9070432 176.4782327 -0.8962992576)
(162.1422665 178.6382668 0.650159746)
(125.4425177 175.3350475 0.2852806685)
(89.36836496 164.0684151 -0.3250138162)
(55.49801821 142.4334224 0.2801731776)
(25.30461868 107.7664077 -0.3115355146)
(5.099001894 54.93223117 0.1307598174)
(999.2501087 -0.3486508865 0.02504904663)
(998.9651606 -0.2887841282 -0.5972433896)
(998.7866171 -0.370869156 -0.6148060955)
(998.1386826 0.002862683065 -0.4928723158)
(997.5372173 0.04126737445 0.07407044578)
(997.0173507 0.35362716 0.1012510988)
(996.0835062 0.7289464244 -0.1060924889)
(995.4217478 0.9860573969 0.1321636042)
(994.2366993 1.432052637 0.1314223566)
(992.4511735 1.675817669 0.3937889587)
(990.5375402 1.657828299 0.1843071958)
(988.5873336 2.183395635 0.1625510231)
(985.8863278 2.24404365 0.05519566073)
(980.6067208 3.000270711 -0.2837892129)
(976.2268813 4.328034332 -0.2367226477)
(969.8837957 5.901989228 -0.2502979859)
(960.4300759 8.147677191 -0.04650983172)
(950.6274892 10.6183322 0.1146249658)
(936.7752956 13.59897631 0.6415677422)
(918.3123656 17.6490765 -0.2964160301)
(896.0517414 23.05843369 0.1502038893)
(867.8350872 29.31591892 -0.563204201)
(832.5216506 37.8087132 0.3840808461)
(789.6003147 48.66489326 -0.04751290607)
(739.9693714 62.02389384 -0.2484882697)
(680.4348962 74.92454731 0.2961343342)
(612.6959411 92.82884392 0.6256657539)
(543.3142778 110.2640269 -0.2443616481)
(474.5394819 128.2390728 0.8143942413)
(410.4834477 145.5070956 -0.523569274)
(352.842959 159.9431046 -0.1537371626)
(301.6518753 174.1091517 0.4255579465)
(256.968869 184.1428961 -0.03969124448)
(216.2802428 191.5135341 -0.1650223929)
(176.8756826 194.5974823 -0.1710204207)
(139.2385301 192.9518525 -0.5173446975)
(100.8279928 183.9517794 -0.1781370335)
(64.22604726 162.9985254 0.3057027528)
(30.67424479 126.5788696 0.08611641849)
(6.412601773 65.43484671 -0.2089742313)
(999.7264636 -0.5340746062 -0.1053574281)
(999.2152486 -0.2284961922 -0.2761265019)
(999.1293033 0.1548008469 -0.5611126134)
(998.5761657 0.1737890382 -0.1657340932)
(997.9003472 0.4579126242 0.3451129423)
(997.4098503 0.3027384867 0.0822823376)
(996.623603 0.5799618283 0.1472676053)
(995.4460986 0.5479638248 0.147549029)
(994.4964886 0.5687687983 -0.305217198)
(993.3371809 0.6811700226 -0.4444730824)
(991.1652245 0.9862957742 0.01951598764)
(989.3124522 1.793711124 0.3256493825)
(986.2750927 3.030732577 0.2394594303)
(982.9935258 3.861115006 0.5137708567)
(977.3566564 4.883803463 0.4510862959)
(971.0776277 6.17509028 -0.03824623397)
(964.3567108 7.903425482 -0.03182637527)
(953.1183265 10.22606121 -0.4240386581)
(939.8991071 13.35929502 0.06662660641)
(924.1656966 18.00705292 -0.4112992832)
(903.0913324 22.82664716 -0.1962709437)
(877.3125972 29.08983066 -0.3976666875)
(843.118958 38.26575343 -0.1608009123)
(805.0575402 48.25070787 0.3595929102)
(755.7567955 61.33224997 0.03707133667)
(698.6481072 76.71009033 0.4959016241)
(635.4178274 94.50242635 -1.073536786)
(566.4336265 113.5524018 -0.3133254004)
(497.9022705 133.1544743 -0.1203624639)
(434.014789 149.7272575 0.2618974145)
(374.8330808 168.033512 -0.1906503836)
(323.7012189 183.1422019 0.245155628)
(277.3498181 195.7507927 -0.1710239431)
(235.6236349 205.5247097 0.03685146936)
(196.8954753 210.9092905 -0.3048957804)
(158.8443874 212.6134149 -0.6688349983)
(119.1408539 206.1490896 -0.1462542983)
(78.19947119 187.8310162 0.3494072909)
(38.66041956 150.5679475 0.249569153)
(8.192910966 80.54086423 -0.227669618)
(999.8441286 -0.2488063292 0.07632088976)
(999.6611252 -0.01030376733 0.06586883664)
(999.3960421 0.002586090125 -0.2345107897)
(999.1294623 0.06989671092 -0.3031312267)
(998.5828797 -0.04795484057 -0.2229074915)
(997.932468 0.09182478703 -0.1248260107)
(997.2566672 -0.1014579489 -0.7155669778)
(996.35908 0.2298009178 -0.4305100799)
(995.4703951 0.8850177734 -0.2010373406)