/*--------------------------------*- C++ -*----------------------------------*\
| =========                 |                                                 |
| \\      /  F ield         | OpenFOAM: The Open Source CFD Toolbox           |
|  \\    /   O peration     | Version:  v1706                                 |
|   \\  /    A nd           | Web:      www.OpenFOAM.com                      |
|    \\/     M anipulation  |                                                 |
\*---------------------------------------------------------------------------*/
FoamFile
{
    version     2.0;
    format      ascii;
    class       volScalarField;
    location    "0.004";
    object      variableHardSphereMeanFreePath_Ar;
}
// * * * * * * * * * * * * * * * * * * * * * * * * * * * * * * * * * * * * * //

dimensions      [0 1 0 0 0 0 0];


internalField   nonuniform List<scalar> 
4000
(
0.0009574291518
0.0009599563046
0.0009655129578
0.0009656499608
0.0009760222229
0.0009891194855
0.0009894215617
0.0009890182973
0.001000729762
0.00101672812
0.001041537208
0.001058830976
0.001080331134
0.001104574526
0.001130199508
0.001155327359
0.0011912475
0.001216272622
0.001234682645
0.001254804324
0.001255690933
0.001241828537
0.001214159335
0.001164307054
0.001087216927
0.001001473086
0.0008999974487
0.0008017610944
0.0007095385637
0.0006313153672
0.0005685931931
0.0005191034791
0.0004755093046
0.0004364695799
0.0003969049433
0.0003560646521
0.0003125544864
0.0002649789361
0.0002112233734
0.0001525038137
0.0009583608574
0.0009598086855
0.0009641258146
0.0009676051756
0.0009730900793
0.0009811287687
0.0009931347046
0.0009975930062
0.00101229719
0.001028835495
0.001044582332
0.001065777584
0.001086238415
0.001114840911
0.001148242415
0.001174454754
0.001202773944
0.001240955239
0.001267362768
0.00128800737
0.001298110641
0.001292993804
0.001262051757
0.001208559772
0.001133669533
0.001033707955
0.0009299513689
0.0008232411916
0.0007277584728
0.000647317587
0.0005826352382
0.0005271704155
0.0004809339874
0.0004418294987
0.0004013898003
0.0003588111692
0.0003145261118
0.0002650915608
0.0002112762245
0.0001524764008
0.0009564954415
0.0009618093528
0.0009643220725
0.0009684703319
0.0009696816681
0.0009792681455
0.000986338543
0.0009990628421
0.001010844348
0.001024534407
0.001041495842
0.001064882953
0.00109048983
0.001115503194
0.001148276491
0.001176254855
0.001206599733
0.001240298169
0.00127075605
0.001294778687
0.00130611534
0.001301369813
0.001274818576
0.001223155249
0.001144686849
0.001048041051
0.0009427725295
0.0008317940197
0.0007387224377
0.0006554048719
0.0005868407542
0.0005316984855
0.0004842094231
0.0004440009072
0.0004036271897
0.0003605496055
0.0003144735622
0.0002654495502
0.0002118780368
0.000152687674
0.0009553292235
0.0009595019084
0.0009622884275
0.0009670534292
0.0009734292059
0.0009780442731
0.0009840800172
0.0009925323417
0.001003262111
0.001017753446
0.001036063252
0.001054655918
0.001081384119
0.001107095584
0.001129647899
0.001164743708
0.001199919156
0.001232559598
0.001264258541
0.001290814953
0.001304088931
0.00130408061
0.001282287359
0.001229494277
0.001156800661
0.001059463564
0.0009520688055
0.0008465693715
0.0007457823445
0.0006591892482
0.0005885722816
0.0005336147952
0.0004875024441
0.0004456982783
0.0004040353416
0.0003616049131
0.000315225551
0.0002661775188
0.0002124310889
0.0001531338315
0.0009545632409
0.0009557190663
0.0009590238377
0.0009629836918
0.0009635880716
0.0009696549967
0.000979345586
0.0009861574504
0.000994245653
0.001014834339
0.001031533802
0.001053075186
0.001074653852
0.001096049485
0.00112406524
0.001158221803
0.001194282105
0.001227941563
0.001265066576
0.001290568848
0.001304932847
0.001304768123
0.001279128604
0.001231888058
0.001158902027
0.001068408044
0.0009597521223
0.0008484709895
0.0007478096261
0.0006614398678
0.0005919384887
0.0005374283371
0.0004905885108
0.0004471671256
0.0004059342429
0.0003641237234
0.0003163365201
0.0002662194605
0.0002129824615
0.0001531064307
0.0009547748509
0.0009586993522
0.0009626363424
0.0009647327649
0.0009691248957
0.0009727514698
0.0009787453445
0.0009878274931
0.001001372903
0.001013020672
0.001023977481
0.001044328818
0.001064831925
0.001092939909
0.001119066239
0.0011471344
0.001182933273
0.001217206875
0.001250406981
0.001278396774
0.001297687475
0.001298658754
0.001281146636
0.001234300686
0.001161224893
0.001070346387
0.0009666571769
0.000854799673
0.0007545056113
0.0006661384402
0.0005967335397
0.000537958956
0.000492240705
0.0004491363406
0.0004076710548
0.0003662516242
0.0003188974391
0.0002682234712
0.0002139982599
0.0001544143385
0.0009550605329
0.0009589922037
0.0009618642039
0.0009658602258
0.0009710900963
0.000975158019
0.000981665862
0.0009893943769
0.0010013646
0.00101377354
0.001032085697
0.001049228807
0.001068838257
0.001092939939
0.001123140265
0.001154138317
0.001188329868
0.001219814692
0.001252429956
0.001279410477
0.001299785108
0.001302631189
0.001285948767
0.001242845963
0.001167517639
0.00107761038
0.0009745634814
0.000863750511
0.0007623648244
0.0006733765204
0.0006018815979
0.0005409973753
0.0004933901801
0.0004527077261
0.0004111759965
0.0003682009141
0.0003212344427
0.0002702246447
0.0002151354823
0.0001544935409
0.0009527642718
0.0009566282514
0.0009604373717
0.0009624832955
0.0009633792789
0.0009672930788
0.0009759266897
0.0009854967529
0.0009969128221
0.00101213228
0.001025234412
0.001047602254
0.001066981474
0.001089180655
0.001119676088
0.001147258873
0.001181611524
0.001219272572
0.001251723537
0.001278152245
0.00129387
0.001299703585
0.001285122136
0.001247464733
0.001180382345
0.001087555712
0.0009798648998
0.0008721832646
0.0007710519444
0.0006835093741
0.0006080821836
0.0005466312995
0.0004984612293
0.0004547336819
0.0004126965464
0.0003698395963
0.0003236010196
0.0002723224377
0.00021693434
0.0001562361108
0.0009558601417
0.0009574825503
0.0009613450621
0.0009640913717
0.0009685375224
0.0009740269765
0.0009832890351
0.0009874876631
0.0009957285628
0.00100912467
0.001022494457
0.001040847022
0.001060664335
0.00107894493
0.00110817681
0.001142914138
0.001176105878
0.00121015508
0.001246028195
0.001278876743
0.001300447212
0.001301016015
0.001289823449
0.001251017789
0.001187181756
0.001095974662
0.0009932724334
0.0008863183514
0.0007811183968
0.0006900572554
0.0006164086438
0.0005549101176
0.0005023943562
0.0004584303485
0.0004153191209
0.0003723125027
0.0003253053498
0.0002737913445
0.0002186798212
0.0001563863726
0.0009517103723
0.0009538639651
0.0009580593586
0.0009615824653
0.0009639100005
0.0009711185949
0.0009793257518
0.0009836787713
0.0009927757412
0.001008177942
0.001022676692
0.001039467322
0.001059521135
0.001082086387
0.001111718806
0.001140945831
0.001172352643
0.001205697077
0.001236534026
0.001263902155
0.001286865487
0.001295507238
0.001284253827
0.001249262181
0.0011907316
0.001110579481
0.001012078552
0.0008986935518
0.0007946995675
0.0007010577435
0.0006256292081
0.0005624691981
0.0005098202412
0.0004639107622
0.0004202480564
0.000376459498
0.0003292616668
0.0002768698193
0.0002203652196
0.0001577395894
0.0009537238742
0.0009553789901
0.0009563929143
0.0009577672347
0.0009614128239
0.0009671972151
0.0009734772196
0.0009815217846
0.0009935114898
0.001003547872
0.00101747602
0.001032171862
0.001050991006
0.001076245785
0.00109933887
0.001125333497
0.001157952039
0.001190957695
0.001225870465
0.001255829125
0.001279333889
0.001292321692
0.001287548856
0.001258046291
0.001200745335
0.001117441749
0.001021040132
0.0009159497054
0.0008087848828
0.0007122337165
0.0006348401527
0.0005693951803
0.0005149371719
0.000470410301
0.0004254628993
0.0003799565179
0.0003324141114
0.0002791229161
0.0002220058202
0.000159244315
0.0009539994249
0.0009567167688
0.0009581308805
0.0009618205572
0.0009681580624
0.0009737714048
0.0009801263591
0.0009836274315
0.0009940719058
0.001006292243
0.001016036439
0.001029301292
0.001047857674
0.001073396037
0.001095869259
0.001124868516
0.001152872556
0.001188067011
0.001227000125
0.001257466526
0.001283953929
0.001295260027
0.001288635406
0.001261760804
0.001210612942
0.001133928377
0.00104031719
0.0009324910496
0.0008257252729
0.000725847217
0.000643361014
0.0005785454535
0.0005216060825
0.000475286707
0.0004304997532
0.0003850479573
0.0003372934049
0.0002838081001
0.0002254424194
0.0001611132658
0.0009530295972
0.0009555297271
0.0009592508449
0.0009615379824
0.000963219163
0.0009682838071
0.0009712918441
0.000976251272
0.0009851377451
0.0009959862593
0.001007569182
0.001025572229
0.001042220073
0.00106698149
0.001091821513
0.001118070232
0.001146381879
0.001184367572
0.00121455
0.001243730744
0.001270067557
0.001285257425
0.001287494264
0.001267985349
0.00121838827
0.0011458246
0.001052087311
0.0009479714286
0.0008404840116
0.000744311996
0.0006579949864
0.000590776647
0.0005333233267
0.000483353129
0.0004381136112
0.0003919336211
0.0003420142026
0.0002876228734
0.0002282628233
0.0001628764291
0.0009531738147
0.0009541026357
0.0009568359275
0.0009605517133
0.0009661751278
0.0009677207963
0.0009699768041
0.0009764002656
0.000982726084
0.0009939184132
0.001004603045
0.001017540545
0.001035742651
0.001058461625
0.001082076028
0.001107422442
0.001135413918
0.00117021198
0.001203059325
0.001235744639
0.001260085122
0.001279509103
0.001283117982
0.001270251227
0.001227024536
0.001162599633
0.001072081704
0.0009690242867
0.0008603225174
0.0007614912698
0.0006745346751
0.0006009582895
0.0005435051132
0.0004915797051
0.0004453775101
0.0003986470633
0.0003487485988
0.000294101503
0.0002331905399
0.000165599346
0.0009525925964
0.0009541503587
0.0009563633497
0.0009584344875
0.0009608349088
0.0009666202822
0.0009726401262
0.0009800958634
0.0009879695549
0.0009949026449
0.001007978922
0.001020090656
0.001037202975
0.001055239949
0.001076880864
0.001104313056
0.001137036686
0.001169626277
0.00120282696
0.001236377393
0.001264271152
0.001285117233
0.001291039415
0.001276663238
0.001242945275
0.001178491627
0.001095675731
0.000990674735
0.0008822878869
0.0007852198236
0.0006948651724
0.0006168830776
0.0005554513521
0.0005022832829
0.0004529538743
0.000407229282
0.0003564495384
0.0002992724487
0.0002384175094
0.0001684465637
0.0009526344497
0.0009547417442
0.0009572410278
0.0009616263183
0.0009659336704
0.0009677676759
0.0009706837967
0.0009744638827
0.0009815684864
0.000993084961
0.001004920897
0.001017583718
0.001036039844
0.001053630148
0.001074630574
0.001098072274
0.00112916901
0.00115999117
0.001193874758
0.001227299174
0.001257246613
0.001276507061
0.0012861374
0.001280225793
0.001249984336
0.00119527709
0.001114364173
0.001020276138
0.000910812332
0.000807503156
0.0007148939929
0.0006348065614
0.0005701497754
0.0005150682859
0.0004665394166
0.0004180995194
0.0003664201343
0.0003089932826
0.0002455875228
0.0001731238093
0.0009521234428
0.0009519900086
0.0009533571395
0.0009573846598
0.0009602452378
0.0009648350489
0.0009722723164
0.0009767284528
0.0009852317444
0.0009951428413
0.001004940498
0.001014906489
0.001029367533
0.001051717543
0.001069388182
0.001093751468
0.001125560536
0.001153357368
0.001186903541
0.001220221773
0.001249109525
0.00126941417
0.001283658687
0.001280460501
0.001253877849
0.001203519365
0.00113077751
0.001038145902
0.0009353168231
0.0008331578736
0.0007348488369
0.0006548332561
0.0005880525563
0.0005308279058
0.0004786609857
0.0004315939193
0.0003772943699
0.0003207076601
0.000253516837
0.0001786588052
0.000952072053
0.0009554649242
0.0009553186721
0.0009577467892
0.0009618101106
0.0009632506177
0.0009675151116
0.0009743130243
0.0009793677909
0.0009854207233
0.0009979713061
0.001007725436
0.001023771224
0.001040323329
0.001064281817
0.001087821688
0.001110402705
0.00114404381
0.001175836604
0.001209168005
0.001239505853
0.001263344032
0.001280150128
0.001280060137
0.001261872488
0.001219110323
0.001153207939
0.001064780541
0.0009644618902
0.000861344372
0.0007631313854
0.0006784482153
0.0006070862627
0.0005474766474
0.0004949006776
0.0004464071547
0.0003934511823
0.000334500733
0.0002666013546
0.0001871173156
0.0009523187039
0.0009539951248
0.0009534042926
0.000954889619
0.0009585262782
0.0009635544009
0.0009670866692
0.000972080067
0.0009768197185
0.0009860520495
0.0009970421149
0.001009968904
0.001024574145
0.001039698402
0.001057657437
0.001082095039
0.001106875237
0.001136178497
0.001170698657
0.001203002429
0.001232551551
0.001260557633
0.001276782272
0.001281233853
0.001266307879
0.001232508041
0.001174575851
0.001091528874
0.0009954326031
0.0008915322164
0.0007974334057
0.00070557974
0.0006318354894
0.0005684452107
0.000514197136
0.0004653250072
0.0004134728179
0.0003554218797
0.00028781001
0.0002015884519
0.0009521878494
0.0009522547654
0.0009552690808
0.0009568822964
0.0009603893014
0.0009639846191
0.000969198408
0.0009738676587
0.0009773735861
0.0009834473908
0.0009945021533
0.001000579072
0.00101398194
0.001032112346
0.001049615106
0.001072657544
0.001099723869
0.001127066474
0.00115719689
0.001189359294
0.001223631692
0.001251191468
0.001272789384
0.001282551269
0.001274060709
0.001247063591
0.001189102052
0.001115754427
0.001023935734
0.0009244800394
0.0008272537484
0.0007346360888
0.0006569065634
0.000591278278
0.0005365786084
0.0004886544482
0.0004409973058
0.0003872113131
0.0003259506365
0.0002384457914
0.0009526910416
0.0009553811654
0.0009559409952
0.0009567734541
0.0009591521368
0.0009620193651
0.0009666894352
0.000971616551
0.0009768871387
0.0009851298641
0.0009930665304
0.001001928045
0.001012998166
0.001030723527
0.00104917748
0.001068690344
0.001094233138
0.001120555123
0.001149111482
0.001181064245
0.001211502898
0.001237069539
0.001261770533
0.001274479202
0.001272420209
0.001251442099
0.00120525752
0.001134752901
0.001049593883
0.000957860455
0.0008567767229
0.0007659655458
0.0006887885081
0.0006201292343
0.0005649009946
0.0005179499978
0.0004734748607
0.0004296404523
0.0003923018117
0.0003940193408
0.0009516741146
0.0009537063268
0.0009535455329
0.0009568806998
0.0009604099425
0.0009623056442
0.0009663116072
0.0009692808199
0.0009751343582
0.000981418978
0.0009853645755
0.0009934426415
0.001008221035
0.001023382568
0.001040499608
0.001059192925
0.001082268188
0.00110647328
0.001131340434
0.0011632068
0.001195142209
0.001226845524
0.001254193958
0.001270727259
0.001274405073
0.001261106619
0.001226384414
0.001166796138
0.001085648702
0.0009938643788
0.0008936521014
0.0008013240337
0.0007196615783
0.000653203688
0.0005952880361
0.0005480028486
0.0005093261677
0.0004783276645
0.0004627764324
0.0004999802748
0.0009515396877
0.0009522291357
0.000954935433
0.0009578883449
0.0009581497713
0.0009614359329
0.0009649318354
0.000970366128
0.0009747866081
0.0009798737003
0.0009879683098
0.0009973861201
0.001008926271
0.00102471096
0.001042628495
0.001062381795
0.001080728397
0.001106668405
0.00113100595
0.001157236949
0.001188845894
0.001219460644
0.001244762363
0.001264515043
0.0012735237
0.001262246009
0.001237284702
0.001186472502
0.001112693335
0.001026304681
0.0009318369842
0.0008383106392
0.0007567766199
0.0006831105217
0.0006283796575
0.0005822157738
0.0005481156721
0.0005248669809
0.0005204256905
0.0005549647801
0.0009506179909
0.0009524505023
0.0009545418584
0.0009576003305
0.0009596728679
0.000961058516
0.0009644535875
0.0009655387772
0.0009702964951
0.0009785673237
0.000982388283
0.000991398539
0.001002672106
0.00101541949
0.00103038771
0.001047679994
0.00106571604
0.00108922433
0.001117217708
0.00114592703
0.001175296393
0.001208471095
0.001234661509
0.001254755392
0.001267142871
0.001261778542
0.001240293766
0.001202256169
0.001138213954
0.001059069406
0.0009720478975
0.0008808939241
0.000795527559
0.0007229087066
0.0006620478427
0.0006167380163
0.000583059049
0.0005648644292
0.0005652634857
0.000592324113
0.0009511345399
0.0009537206396
0.000955406772
0.0009565469566
0.0009571884743
0.0009584382694
0.00096141369
0.0009636220374
0.0009674537262
0.0009743275446
0.0009823568389
0.0009860539453
0.0009972531527
0.001008104902
0.001021204069
0.001036658019
0.001055880123
0.001076178593
0.001103070521
0.001126644322
0.001155226278
0.001183340064
0.001206467312
0.001231409712
0.001247980239
0.001256518678
0.001247390405
0.001215339036
0.001162405801
0.001094670853
0.001008844358
0.0009212350741
0.0008373136123
0.0007623291814
0.0006975529136
0.000650516119
0.0006172641918
0.0006004158381
0.0005999446571
0.0006212135284
0.0009515177836
0.0009519054995
0.000952808296
0.0009540015982
0.000955044404
0.0009574760168
0.0009578165526
0.0009619059152
0.0009642106849
0.0009681424417
0.0009747963921
0.0009826442747
0.000991016515
0.001002124915
0.001015510166
0.001027351594
0.001046938248
0.001065088859
0.001086162172
0.001110165226
0.001142828332
0.001167946462
0.001196194588
0.00122270391
0.001242697125
0.001251159629
0.001246153969
0.001224506884
0.001184296653
0.001123942835
0.001049816275
0.000966619895
0.000881358676
0.0008046509916
0.0007392795907
0.0006878182549
0.0006511367027
0.000634134869
0.0006284160893
0.0006435231481
0.0009491347099
0.0009503750727
0.0009530543077
0.0009558928748
0.0009582682309
0.0009583573774
0.000961129716
0.0009631964526
0.0009664579059
0.0009679589646
0.0009742882577
0.0009792426215
0.0009875203356
0.0009973087774
0.00101088021
0.001023248266
0.001038265432
0.001057747987
0.001075697207
0.001096226238
0.001122626351
0.001153744781
0.00118109181
0.001205688628
0.001228487696
0.001242741299
0.001244729953
0.001229725229
0.001198798836
0.001151502027
0.001083399573
0.001007321262
0.0009241855829
0.0008491400518
0.000781186701
0.0007260303709
0.000685991805
0.0006622192781
0.0006570483823
0.0006613642149
0.0009497269602
0.0009515001466
0.000951302953
0.0009524733485
0.0009524910243
0.0009545417951
0.0009540345895
0.0009570487275
0.0009601666666
0.0009658501476
0.0009701323312
0.0009758297842
0.0009828353609
0.000993992388
0.001004067221
0.001017485396
0.001032485052
0.001047174665
0.001067764851
0.001091110288
0.001114184093
0.001141361732
0.001170102812
0.001196312899
0.001219400743
0.001236361526
0.001241252569
0.001236912126
0.001213425279
0.001175897293
0.001120654193
0.001049953111
0.0009721685594
0.0008964734408
0.0008260944509
0.000764536384
0.0007230932577
0.0006942516654
0.0006793001767
0.0006817097461
0.0009503347448
0.0009511975886
0.0009525894624
0.0009532554448
0.0009555115433
0.0009565087389
0.0009583323026
0.0009625149352
0.000963963796
0.0009686955998
0.0009720684885
0.0009764098701
0.0009821016889
0.000994861625
0.001005358389
0.001012784851
0.001026458104
0.001041896655
0.00105846689
0.001081799434
0.001105781177
0.001133183615
0.001158655205
0.001182498165
0.001211138784
0.001230525523
0.001238770218
0.001239802961
0.001227429331
0.001194517743
0.001148219628
0.001088685948
0.001015967866
0.0009401480801
0.0008695762769
0.0008104734856
0.0007616981264
0.0007283674794
0.0007058358523
0.0006997395148
0.0009514279054
0.0009545191128
0.0009539659908
0.0009558370224
0.000957171613
0.0009568445817
0.0009571924306
0.0009592447263
0.0009597904136
0.0009621684756
0.0009676427113
0.0009731354942
0.0009805519148
0.000989260747
0.000997727678
0.001008500593
0.001023581415
0.001038763382
0.001056186973
0.001075358135
0.001095104855
0.00112195472
0.001145142043
0.001167124484
0.001195178355
0.001216560385
0.001232580154
0.001237648873
0.001228243255
0.001210764806
0.001174974584
0.001122790115
0.001058100752
0.000985604176
0.0009174122763
0.0008564133357
0.0008019782369
0.0007624741919
0.0007339603261
0.0007173844462
0.0009495641023
0.0009483327853
0.0009489203954
0.0009503220001
0.0009499023716
0.0009512354907
0.0009533635564
0.0009549120258
0.0009588492898
0.0009613316634
0.0009673218222
0.0009731122382
0.0009784016647
0.0009860445597
0.0009948233801
0.001002346246
0.001014956945
0.001028286188
0.00104512837
0.001065112873
0.001086598266
0.001107049902
0.001129669481
0.001154850107
0.001178093812
0.001199827608
0.0012163363
0.001226483478
0.001231574798
0.001219040452
0.00119170592
0.001148250673
0.001094695372
0.001034782334
0.0009671010585
0.0009025951467
0.0008458291063
0.000798461843
0.0007633172739
0.0007433324504
0.0009484583971
0.0009495886932
0.0009521190793
0.0009542033718
0.0009554052597
0.0009566559043
0.0009562460419
0.0009573433078
0.0009579743439
0.000961022939
0.0009636081541
0.0009676625421
0.0009720830831
0.0009790139449
0.0009862118791
0.0009963910521
0.001005894572
0.001015008725
0.001032448407
0.001047262147
0.00106687154
0.001086332775
0.001110615222
0.001135532636
0.001162662125
0.00118102049
0.001202008127
0.001213438049
0.001220213837
0.001215027088
0.001198463716
0.001168175367
0.001124071324
0.00106644743
0.001006970443
0.0009439079667
0.0008910869651
0.0008390498027
0.0008003530561
0.0007726028539
0.0009490300922
0.0009488627932
0.0009502420318
0.0009494552031
0.0009499555888
0.0009503124525
0.0009526489992
0.0009542897142
0.0009569150995
0.0009597091967
0.0009622762234
0.0009684117579
0.0009715952763
0.0009753988072
0.0009831070983
0.000993720268
0.001002264444
0.001014685384
0.001029796697
0.001043030487
0.001061572541
0.001078834088
0.00109696543
0.00111712678
0.001140088141
0.001160894091
0.001180908508
0.001197487778
0.001209920053
0.001208954442
0.0011992167
0.001179014605
0.00114463416
0.001098207142
0.001046907931
0.0009873713392
0.000932823314
0.0008831642612
0.0008369164239
0.0008027471059
0.0009500989264
0.0009510066975
0.0009530753423
0.000952648339
0.0009539995566
0.0009552632933
0.0009573864414
0.0009577546182
0.000959637405
0.0009606067983
0.0009630249101
0.0009670823301
0.0009707156546
0.0009753252271
0.0009837623693
0.0009899297593
0.0009958288918
0.001008831049
0.001020695858
0.001032834081
0.001047154021
0.001064037876
0.001086057709
0.001106944071
0.001127613053
0.001148526535
0.001168112098
0.001183859462
0.001197554793
0.001203506928
0.001201071401
0.001189957952
0.001164665348
0.001128789943
0.001082251763
0.001032882616
0.0009747090006
0.0009235328867
0.0008771188546
0.0008368146284
0.0009493534823
0.0009503545605
0.0009497652346
0.0009502663403
0.0009514102678
0.0009510975406
0.0009528710629
0.0009556106177
0.0009571196945
0.0009604341553
0.0009634486463
0.0009664247099
0.0009696116203
0.0009713016773
0.0009786405644
0.0009821713506
0.0009903472146
0.001000985062
0.001013977025
0.001027054942
0.001037445927
0.001053836815
0.001074417436
0.001090300531
0.001112053762
0.001131272168
0.001148867922
0.001172212201
0.001185782611
0.001194704024
0.001197580599
0.001192916385
0.0011772705
0.001150542965
0.001113681854
0.001068135193
0.001016017373
0.0009647024522
0.0009168789005
0.0008722404093
0.0009484107039
0.0009496384023
0.0009496409134
0.0009515433184
0.0009532527917
0.0009525642261
0.0009527053013
0.0009544422405
0.0009565764844
0.0009597764605
0.0009610964302
0.000964732171
0.0009696154646
0.0009745774339
0.0009786612545
0.00098521701
0.0009893348882
0.0009994931647
0.001007807114
0.001013997824
0.001023823496
0.001041616549
0.001059964889
0.001075234289
0.001094910235
0.001114778736
0.001137950691
0.001159395093
0.001173866584
0.001188995322
0.001193899665
0.001193447633
0.001179874082
0.001161869957
0.001130057849
0.001092289566
0.001050991719
0.001003557516
0.0009555961416
0.0009111261636
0.0009482437592
0.0009486544251
0.0009500565218
0.0009494123378
0.0009499027988
0.0009517303377
0.0009536009361
0.0009550427834
0.0009561607449
0.0009589192072
0.000959805548
0.0009612082003
0.0009624451093
0.0009651096681
0.000969297877
0.0009740414126
0.0009824041197
0.0009950389399
0.001002119517
0.001009818921
0.001020700648
0.001036941193
0.001050041654
0.001065142905
0.001082254185
0.001098027327
0.001115625505
0.001135760441
0.001152039822
0.001165946403
0.001177466099
0.001184816807
0.001183050575
0.001172693201
0.001152947918
0.001121888725
0.001081979782
0.001039900195
0.0009934046129
0.0009501232219
0.0009509310467
0.000951969377
0.0009521409874
0.0009532487845
0.0009517958481
0.0009519502862
0.0009506700277
0.0009507906662
0.0009525127155
0.0009517293809
0.0009551964592
0.000956831068
0.0009601062367
0.0009649786697
0.0009678086222
0.00097414678
0.0009791142583
0.0009874245262
0.0009938476166
0.001000582171
0.001012639828
0.001025529049
0.001036462919
0.001052078397
0.001065918846
0.00108173826
0.00110314654
0.001122232655
0.00114163359
0.001155954572
0.001170175412
0.001176648531
0.001178011498
0.00117347411
0.001160152053
0.001137855582
0.001108250993
0.001071057088
0.001029485199
0.0009876728526
0.0009486522424
0.0009486852962
0.0009480403134
0.0009485710045
0.0009488887779
0.000950202723
0.0009503950422
0.0009530210223
0.0009529619418
0.0009559583472
0.0009561917564
0.0009593960734
0.0009616174763
0.0009633902672
0.000967388898
0.0009736610665
0.0009766003164
0.0009821107505
0.0009878603289
0.0009953142709
0.0010062791
0.001017763044
0.001031468463
0.001043415503
0.001057920995
0.001072366749
0.001087340191
0.001104849291
0.001121927077
0.001138244992
0.001152170116
0.001166267866
0.001172305273
0.001175650601
0.001169057791
0.001154718701
0.001131382236
0.001101497152
0.00106597745
0.001023987712
0.000948087885
0.0009481563899
0.0009490170978
0.0009513995309
0.0009512533177
0.0009520635008
0.0009547845792
0.0009558395657
0.0009557451664
0.0009590445541
0.0009610248416
0.0009625720805
0.0009625222518
0.0009643282359
0.0009667654829
0.0009712899015
0.0009743962527
0.000981042237
0.0009885341751
0.0009947626533
0.001003220203
0.001009810309
0.001019266612
0.00103320565
0.001045846348
0.001060158185
0.001076610772
0.001095185306
0.001109894654
0.001123329382
0.001138194061
0.001151516541
0.001158291325
0.001162390001
0.001160879653
0.001154783395
0.001140452545
0.001118850522
0.001090924297
0.001059190605
0.0009495224162
0.0009513295883
0.0009516586374
0.000951632054
0.0009536530456
0.0009545056245
0.0009554530832
0.000955928151
0.0009591414092
0.0009596612586
0.0009603614179
0.0009619981884
0.0009636228995
0.0009665982457
0.0009695070796
0.0009722133258
0.0009751595316
0.0009772534725
0.0009824849623
0.000987076726
0.0009942748147
0.001002680746
0.001009453541
0.001022926464
0.001035231512
0.001043790279
0.001058546297
0.00107528929
0.001090204291
0.001102361091
0.001116248309
0.001130956698
0.001141753781
0.001152195012
0.001155553887
0.001153618893
0.001142604697
0.001128791725
0.001107947155
0.001079565609
0.0009492815614
0.0009499199652
0.0009499659635
0.0009501375387
0.0009498214793
0.0009483677176
0.0009499527812
0.0009495227734
0.0009490149444
0.0009488965843
0.0009500935463
0.0009522082923
0.0009557465942
0.0009574233515
0.0009618764159
0.0009635177076
0.0009684083616
0.0009739915497
0.0009783107435
0.0009837654191
0.0009920762048
0.0009980312961
0.001006501439
0.001014882882
0.001025934983
0.001036950509
0.001051037288
0.001065528031
0.001075137678
0.001089770958
0.001102258824
0.001119588787
0.001132972829
0.001139179571
0.001144328255
0.00114484624
0.001140861478
0.001131928901
0.001117967579
0.001098804801
0.0009479877015
0.0009471751413
0.0009476087503
0.0009466071661
0.0009468920417
0.000947856052
0.0009479453962
0.0009494324679
0.0009506315979
0.0009526470956
0.0009530503764
0.0009528604361
0.0009534965474
0.0009569673371
0.0009564548724
0.0009584946506
0.0009618510738
0.0009648838688
0.0009692811023
0.0009760690381
0.0009804628506
0.0009853219344
0.000993942213
0.001000629012
0.001011568025
0.001022401374
0.001036550101
0.001044107705
0.001059003697
0.001073376952
0.001086222305
0.001101020152
0.001111782
0.00112151493
0.001131961741
0.001138080368
0.001139120402
0.001133611281
0.001122799183
0.001109444037
0.0009480852595
0.0009488986613
0.0009499152493
0.0009514373747
0.0009515781318
0.0009521367468
0.0009530396724
0.0009526821659
0.0009523445888
0.0009522224154
0.0009543491177
0.000954266674
0.0009553045617
0.0009554074447
0.0009563075374
0.0009589629721
0.000962081493
0.0009655922577
0.0009706938552
0.0009720822164
0.000976669484
0.0009804788537
0.0009867749012
0.0009924469731
0.001001248061
0.001008394025
0.001021251713
0.001032100727
0.001041756865
0.001055866806
0.001069280714
0.001083695752
0.001096252485
0.001106371326
0.001116071823
0.00112256801
0.001128678182
0.001131264612
0.001129202557
0.001119799861
0.0009484024599
0.0009486161321
0.0009485349402
0.0009483062641
0.0009490574802
0.0009493046363
0.0009501526951
0.0009491593874
0.0009498173318
0.000951492032
0.0009544331826
0.0009544832863
0.0009571136274
0.0009587601472
0.0009607871396
0.000962040399
0.0009631163215
0.0009646630967
0.0009684782472
0.000972291026
0.0009747952809
0.0009762029274
0.0009823103583
0.0009880331151
0.0009973624573
0.001001771835
0.001013628075
0.001021691306
0.001031897557
0.001042475768
0.001053106912
0.001068672673
0.001081215066
0.001094005063
0.001103803113
0.001111640017
0.00112150896
0.001124802509
0.001123237246
0.001119723403
0.0009488251989
0.0009484477614
0.0009471437337
0.0009470210785
0.0009493454079
0.0009492192847
0.0009489620782
0.0009506056164
0.0009490692952
0.0009494535249
0.0009489337094
0.0009485100668
0.0009506704971
0.0009529779383
0.0009537551095
0.0009561834552
0.000961051045
0.0009639440849
0.0009642320997
0.0009674210683
0.0009726987233
0.0009772231546
0.0009833387033
0.0009876313824
0.0009978025784
0.001001416216
0.001010929561
0.001018980717
0.001025893447
0.00103529215
0.001044293863
0.001055183553
0.001066950744
0.001077725442
0.001087533088
0.001094600539
0.00109991206
0.001106057798
0.001111402472
0.001112105637
0.0009479626163
0.0009482964556
0.0009491694307
0.0009493453492
0.0009483169394
0.0009496850153
0.000949239274
0.0009499263242
0.0009516761934
0.0009529682354
0.0009549728701
0.0009556887375
0.0009563717424
0.0009571632438
0.0009569233983
0.0009602859576
0.0009616350701
0.0009607500742
0.0009621963117
0.0009637743037
0.0009703584606
0.0009727147297
0.0009776261115
0.0009807078147
0.000987674103
0.0009902914247
0.0009974468404
0.001006662077
0.001014896157
0.001022851465
0.001034483658
0.001043881712
0.00105324291
0.00106252572
0.001074636387
0.001079708324
0.001088855098
0.001096667043
0.001102540581
0.001104489097
0.0009492987319
0.0009501757525
0.0009494920632
0.0009516937904
0.0009535761552