/*--------------------------------*- C++ -*----------------------------------*\
| =========                 |                                                 |
| \\      /  F ield         | OpenFOAM: The Open Source CFD Toolbox           |
|  \\    /   O peration     | Version:  v1706                                 |
|   \\  /    A nd           | Web:      www.OpenFOAM.com                      |
|    \\/     M anipulation  |                                                 |
\*---------------------------------------------------------------------------*/
FoamFile
{
    version     2.0;
    format      ascii;
    class       volScalarField;
    location    "1e-06";
    object      translationalT_Ar;
}
// * * * * * * * * * * * * * * * * * * * * * * * * * * * * * * * * * * * * * //

dimensions      [0 0 0 1 0 0 0];


internalField   uniform 1986.034567;

boundaryField
{
    stickingWall
    {
        type            calculated;
        value           uniform 1986.034567;
    }
    defaultFaces
    {
        type            calculated;
        value           nonuniform List<scalar> 5(2658.66117 2649.013516 2652.159259 2650.945985 2647.875538);
    }
}


// ************************************************************************* //
