/*--------------------------------*- C++ -*----------------------------------*\
| =========                 |                                                 |
| \\      /  F ield         | OpenFOAM: The Open Source CFD Toolbox           |
|  \\    /   O peration     | Version:  v1706                                 |
|   \\  /    A nd           | Web:      www.OpenFOAM.com                      |
|    \\/     M anipulation  |                                                 |
\*---------------------------------------------------------------------------*/
FoamFile
{
    version     2.0;
    format      ascii;
    class       volVectorField;
    location    "0.003";
    object      F;
}
// * * * * * * * * * * * * * * * * * * * * * * * * * * * * * * * * * * * * * //

dimensions      [1 -2 -2 0 0 0 0];


internalField   nonuniform List<vector> 
80000
(
(-10.46342804 -3468.775085 80.25067707)
(-10.3854252 -3439.040078 79.81536199)
(-10.32225752 -3414.202181 79.75763465)
(-10.26155037 -3390.267123 80.15570318)
(-10.20456469 -3367.581306 80.98758014)
(-10.15166555 -3346.280292 82.21666015)
(-10.10270055 -3326.287823 83.80379496)
(-10.05750727 -3307.565369 85.71186361)
(-10.00898241 -3289.935388 87.96536027)
(-9.970508233 -3273.444964 90.40977588)
(-9.935066931 -3257.960544 93.06513239)
(-9.902477655 -3243.425111 95.89755867)
(-9.872521287 -3229.748971 98.87326682)
(-9.838140407 -3216.791173 102.0592698)
(-9.813022046 -3204.703495 105.2374126)
(-9.790147526 -3193.35032 108.4704784)
(-9.769366544 -3182.665316 111.7307432)
(-9.743375831 -3172.527724 114.9946588)
(-9.726787026 -3163.123984 118.3700827)
(-9.711835391 -3154.321348 121.5777849)
(-9.698673736 -3146.082314 124.7225607)
(-9.679855934 -3138.25972 127.7865791)
(-9.670128407 -3131.120187 130.751987)
(-9.654824819 -3124.334694 133.7690471)
(-9.648341603 -3118.214326 136.4976797)
(-9.643468337 -3112.599829 139.084789)
(-9.632489339 -3107.279297 141.5178472)
(-9.630661506 -3102.608157 143.7858727)
(-9.622910078 -3098.209972 146.0802354)
(-9.624072977 -3094.468479 147.9996379)
(-9.626722904 -3091.181451 149.7303737)
(-9.622879904 -3088.106067 151.2653501)
(-9.628383635 -3085.69435 152.6008999)
(-9.627595965 -3083.476663 153.9655762)
(-9.635847196 -3081.89017 154.8953359)
(-9.637335257 -3080.493526 155.6172502)
(-9.648274129 -3079.722092 156.1273468)
(-9.652246448 -3079.092478 156.4267088)
(-9.66613977 -3079.108107 156.7827225)
(-9.672495629 -3079.215826 156.6684746)
(-9.679967492 -3079.678323 156.3466076)
(-9.697084868 -3080.755766 155.8187387)
(-9.706742967 -3081.895516 155.0892011)
(-9.726495271 -3083.651537 154.4623238)
(-9.738155165 -3085.399276 153.3460733)
(-9.759635146 -3087.762232 152.0412147)
(-9.773160955 -3090.087556 150.5517429)
(-9.787872085 -3092.682091 149.2132694)
(-9.812119045 -3095.850602 147.3806516)
(-9.82804497 -3098.927214 145.3831028)
(-9.853925977 -3102.558288 143.2260121)
(-9.871213024 -3106.049455 140.9172332)
(-9.889399812 -3109.725571 138.8278264)
(-9.917318354 -3113.940132 136.2453024)
(-9.936191708 -3117.925044 133.533083)
(-9.965225856 -3122.442643 130.7004509)
(-9.984942085 -3126.695936 127.7542166)
(-10.00526093 -3131.060311 125.10339)
(-10.03548247 -3135.892374 121.9624239)
(-10.05594825 -3140.398534 118.7334488)
(-10.07652737 -3144.960082 115.4240231)
(-10.10744843 -3149.970781 112.0415204)
(-10.1284036 -3154.577013 109.0309717)
(-10.15952111 -3159.625323 105.5343303)
(-10.18005237 -3164.198707 101.9879546)
(-10.20039628 -3168.747424 98.4002416)
(-10.2312598 -3173.684872 94.77749692)
(-10.25130014 -3178.098443 91.60274205)
(-10.2706902 -3182.409994 87.94130604)
(-10.30072904 -3187.088917 84.26640168)
(-10.31919758 -3191.159043 80.58505164)
(-10.34856864 -3195.570476 77.40877012)
(-10.36579069 -3199.297599 73.74037289)
(-10.38225634 -3202.834903 70.08380401)
(-10.40956759 -3206.69058 66.44448636)
(-10.42437519 -3209.773361 62.8268144)
(-10.45025638 -3213.166167 59.78336355)
(-10.46311948 -3215.726416 56.23416488)
(-10.47484757 -3217.98895 52.72217793)
(-10.4976192 -3220.521732 49.25147333)
(-10.50695798 -3222.132727 45.82539217)
(-10.5274913 -3223.98869 43.03574565)
(-10.53415602 -3224.882686 39.71973565)
(-10.55197996 -3225.97773 36.45913438)
(-10.55568472 -3226.072205 33.25733181)
(-10.55772843 -3225.721634 30.11636358)
(-10.5710891 -3225.554391 27.66968654)
(-10.56970672 -3224.278189 24.66794364)
(-10.57967824 -3223.160334 21.73513035)
(-10.57459684 -3220.892016 18.87274711)
(-10.58091752 -3218.75333 16.08269847)
(-10.571771 -3215.397516 14.03999589)
(-10.57402601 -3212.114323 11.40710448)
(-10.57418708 -3208.2482 8.850918069)
(-10.55824262 -3203.041966 6.371906881)
(-10.55363993 -3197.84476 3.97116312)
(-10.53233264 -3191.195139 2.367710198)
(-10.52222895 -3184.458176 0.1353341323)
(-10.50908065 -3176.867077 -2.016119663)
(-10.47817547 -3167.554595 -4.086003383)
(-10.45765504 -3157.886717 -6.074333022)
(-10.41794855 -3146.140193 -7.216634368)
(-10.38710953 -3133.523174 -9.030354629)
(-10.34852387 -3118.643771 -10.76009018)
(-10.29798083 -3100.253948 -12.40579609)
(-10.21139438 -3074.754419 -13.9667428)
(-10.09687688 -3037.370627 -14.63383107)
(-9.891400435 -2972.726857 -16.01506908)
(-9.470876494 -2847.137966 -17.34331172)
(-8.633396237 -2592.979645 -19.18795965)
(-7.128780425 -2138.918501 -25.91828693)
(-5.419772437 -1624.211745 -39.11383705)
(-0.008425273056 -2.522305123 -0.07862362248)
(-0.007593725004 -2.271545903 -0.07133763278)
(-0.007460800004 -2.232887332 -0.07074612869)
(-0.007347899903 -2.1974847 -0.0701582717)
(-0.007235273985 -2.16245721 -0.0667896049)
(-0.007124095721 -2.127784251 -0.0662304199)
(-0.007013778398 -2.093482423 -0.06567408798)
(-0.006904322052 -2.059540496 -0.06512032234)
(-0.0067957267 -2.02596555 -0.06456941094)
(-0.006687429591 -1.9927465 -0.06135279823)
(-0.00658055631 -1.959890284 -0.06083006069)
(-0.006474544107 -1.927385957 -0.06030978369)
(-0.006369393 -1.895240314 -0.05979224319)
(-0.006265103014 -1.863451209 -0.05927743958)
(-0.006161674178 -1.832007911 -0.05876509819)
(-0.006075607423 -1.803441916 -0.05572179268)
(-0.005973757284 -1.77267926 -0.05523698406)
(-0.005872768365 -1.742256437 -0.05475453107)
(-0.00577264068 -1.712179822 -0.0542746974)
(-0.005673374253 -1.682447267 -0.05379748364)
(-0.005590799521 -1.655480891 -0.05089862338)
(-0.005493112014 -1.626400438 -0.05044786914)
(-0.005396285829 -1.597657864 -0.04999961613)
(-0.00530032098 -1.569258982 -0.04955411606)
(-0.005221012043 -1.5435247 -0.04911086669)
(-0.005126626275 -1.515761798 -0.04867011968)
(-0.005048142088 -1.490625456 -0.04593472006)
(-0.004955335472 -1.46349845 -0.04551974249)
(-0.004863390294 -1.436696671 -0.04510714851)
(-0.004787430612 -1.41245318 -0.04469693858)
(-0.004697064695 -1.386275001 -0.04428911296)
(-0.004622420894 -1.362610234 -0.04388367211)
(-0.004533167297 -1.337047535 -0.04130626981)
(-0.004459839442 -1.313953852 -0.04092564419)
(-0.004387109721 -1.291140125 -0.04054751189)
(-0.004300620413 -1.266475446 -0.04017141818)
(-0.004229206732 -1.244221269 -0.03979781843)
(-0.004143853848 -1.220151815 -0.03735093307)
(-0.004073756265 -1.198449543 -0.0370013012)
(-0.004004256891 -1.177010669 -0.03665381679)
(-0.003935355739 -1.155833403 -0.03630848004)
(-0.00385346139 -1.13291766 -0.03596529131)
(-0.003785876445 -1.112283918 -0.03562446633)
(-0.003718889763 -1.0918995 -0.03528557424)
(-0.003652082234 -1.071776013 -0.03300724525)
(-0.003586292107 -1.051904934 -0.03269145046)
(-0.003521100276 -1.032284472 -0.0323776851)
(-0.003456506753 -1.012912835 -0.03206594934)
(-0.003392511549 -0.9937882294 -0.03175624335)
(-0.003329114674 -0.9749088639 -0.03144856743)
(-0.003265920965 -0.9562791955 -0.02931103709)
(-0.003203720778 -0.9378910618 -0.029025479)
(-0.00314211895 -0.91974267 -0.02874183176)
(-0.003081115491 -0.9018322269 -0.0284600955)
(-0.003020710411 -0.8841579397 -0.02818027036)
(-0.002960903719 -0.8667180152 -0.0279023566)
(-0.002913119564 -0.8512374079 -0.02589960639)
(-0.002854389938 -0.8342495367 -0.02564283074)
(-0.002796258727 -0.8174848648 -0.02538766756)
(-0.002738725936 -0.8009532254 -0.02513447619)
(-0.002693131928 -0.7863059346 -0.02488307723)
(-0.00263667627 -0.7702010325 -0.02463329119)
(-0.002580819054 -0.754323734 -0.02438547741)
(-0.002536218094 -0.740275931 -0.02253009497)
(-0.002481438051 -0.7248208214 -0.02230215208)
(-0.00243804602 -0.7111592851 -0.02207588245)
(-0.002384343177 -0.6961143267 -0.02185111862)
(-0.002341812824 -0.6828328865 -0.02162819598)
(-0.002289187204 -0.6682021226 -0.02140694696)
(-0.002247518551 -0.6552893269 -0.02118720411)
(-0.002205909533 -0.6425585631 -0.01947145817)
(-0.002154839921 -0.6285156899 -0.01927052204)
(-0.002114415962 -0.6161495939 -0.01907129593)
(-0.002074374982 -0.60395089 -0.01887346857)
(-0.002024861426 -0.5904815649 -0.01867704002)
(-0.001985682205 -0.5786385215 -0.01848232177)
(-0.001946885976 -0.5669635215 -0.01828915823)
(-0.001908472743 -0.5554503514 -0.01809739379)
(-0.001870143129 -0.5441024496 -0.01652969304)
(-0.0018324959 -0.5329136981 -0.01635540761)
(-0.00178597484 -0.5205388807 -0.01618255741)
(-0.001749189422 -0.5096879645 -0.0160111425)
(-0.001712787019 -0.4989920234 -0.01584101929)
(-0.001676767637 -0.4884542441 -0.01567233153)
(-0.001641131278 -0.4780731907 -0.01550507927)
(-0.001614655801 -0.4691213082 -0.01533911891)
(-0.001579414277 -0.459027055 -0.01390991084)
(-0.001544831219 -0.4490855321 -0.01376028102)
(-40.10747971 -5697.647747 80.3350926)
(-39.83634943 -5652.732153 79.68288594)
(-39.64733008 -5619.512603 79.15620288)
(-39.47145989 -5588.15723 79.12844768)
(-39.30920543 -5558.779528 79.52383548)
(-39.16123382 -5531.411086 80.36413699)
(-39.02703175 -5506.025927 81.53542284)
(-38.89438139 -5482.449022 83.03238057)
(-38.78609291 -5460.713746 84.88028241)
(-38.68931107 -5440.60975 86.92282292)
(-38.59181647 -5421.968901 89.25686148)
(-38.51623436 -5404.832813 91.7007369)
(-38.45046951 -5389.034951 94.38202156)
(-38.3815622 -5374.411862 97.09440521)
(-38.33340089 -5361.051863 99.99629551)
(-38.28085332 -5348.681566 102.8560832)
(-38.23606643 -5337.35853 105.8640492)
(-38.2106518 -5327.130847 108.7638758)
(-38.17982072 -5317.749329 111.6446138)
(-38.15564354 -5309.223068 114.6217984)
(-38.15041093 -5301.727026 117.4047412)
(-38.13889608 -5294.920266 120.2594002)
(-38.1330991 -5288.913023 122.8692165)
(-38.13332787 -5283.679565 125.5305212)
(-38.13895998 -5279.197136 127.902542)
(-38.150364 -5275.44541 130.3116194)
(-38.1670821 -5272.451669 132.3937814)
(-38.18930035 -5270.131641 134.5027513)
(-38.21655936 -5268.515388 136.2501434)
(-38.24930987 -5267.588791 138.021314)
(-38.28693274 -5267.338487 139.4020535)
(-38.32982187 -5267.728021 140.8058978)
(-38.37749793 -5268.790108 141.7950164)
(-38.43008285 -5270.488468 142.5779507)
(-38.48778102 -5272.809154 143.3919943)
(-38.54993541 -5275.738088 143.7607656)
(-38.60239594 -5279.005911 144.1703106)
(-38.67368624 -5283.121351 144.119764)
(-38.74978522 -5287.820519 144.1240222)
(-38.82991888 -5293.062119 143.6552983)
(-38.89942747 -5298.570507 143.2573781)
(-38.98777007 -5304.856855 142.3766311)
(-39.08049424 -5311.674671 141.5864874)
(-39.17679906 -5318.978416 140.3073998)
(-39.26128997 -5326.437054 139.1398226)
(-39.3647013 -5334.63686 137.4783165)
(-39.45563747 -5342.929545 135.9517325)
(-39.56546699 -5351.927362 133.9285446)
(-39.67875308 -5361.339924 132.0678641)
(-39.77788905 -5370.721805 129.7085883)
(-39.89655102 -5380.8016 127.5385161)
(-40.00041788 -5390.807102 124.8700011)
(-40.12355935 -5401.416797 122.4177349)
(-40.2486514 -5412.304439 119.4695705)
(-40.358364 -5423.036937 116.7680378)
(-40.48685892 -5434.335176 113.5707625)
(-40.59915535 -5445.405199 110.6500493)
(-40.73017072 -5456.995884 107.2355936)
(-40.84422983 -5468.310496 104.1295503)
(-40.97693989 -5480.099554 100.531256)
(-41.09182764 -5491.537159 97.27184931)
(-41.22529532 -5503.401938 93.52173158)
(-41.3398955 -5514.838171 89.70401643)
(-41.47339728 -5526.680928 86.27112061)
(-41.58688546 -5537.987531 82.34801757)
(-41.71924344 -5549.679675 78.84049488)
(-41.83078286 -5560.783605 74.8434606)
(-41.96086232 -5572.164047 71.29119678)
(-42.08955932 -5583.385612 67.24930982)
(-42.19621092 -5593.893598 63.68175047)
(-42.32121905 -5604.657139 59.62195639)
(-42.42317487 -5614.62157 56.0652022)
(-42.54336734 -5624.786904 52.0132857)
(-42.6394766 -5634.065539 48.49243076)
(-42.7536902 -5643.488749 44.47146429)
(-42.86453674 -5652.475029 41.00835034)
(-42.94982065 -5660.471545 37.03988383)
(-43.05307998 -5668.558983 33.65684726)
(-43.12965687 -5675.535524 29.7611039)
(-43.22390913 -5682.514098 26.47535053)
(-43.31352986 -5688.935708 22.66951263)
(-43.37490369 -5694.143073 19.49832458)
(-43.4538119 -5699.2673 15.79771269)
(-43.52691624 -5703.691831 12.75522244)
(-43.5942086 -5707.413062 9.172648528)
(-43.6310708 -5709.737627 6.271363137)
(-43.68524816 -5711.896177 2.818670827)
(-43.73227791 -5713.201803 0.06998527378)
(-43.77233083 -5713.681675 -3.242704615)
(-43.80449181 -5713.223471 -5.829764)
(-43.82870264 -5711.77889 -8.994117594)
(-43.81930561 -5708.690058 -12.08620587)
(-43.82581393 -5705.202422 -14.42165582)
(-43.82289603 -5700.54484 -17.35674839)
(-43.80965957 -5694.70491 -19.51434654)
(-43.78563055 -5687.544747 -22.2868084)
(-43.7492825 -5678.935332 -24.26211701)
(-43.69991448 -5668.744984 -26.86809343)
(-43.6618099 -5657.450387 -28.65647019)
(-43.5798434 -5643.27522 -31.09153596)
(-43.47655903 -5626.535665 -32.68924336)
(-43.34717253 -5606.520258 -34.95021403)
(-43.18290251 -5582.203329 -36.35357213)
(-42.99820948 -5552.582717 -38.43490889)
(-42.71432485 -5513.146002 -39.63716514)
(-42.31816496 -5459.368462 -41.53096213)
(-41.7625463 -5382.477097 -43.33054803)
(-40.85598558 -5263.398622 -44.21787996)
(-39.38439859 -5071.720286 -45.8900615)
(-37.01435629 -4762.169703 -47.99238933)
(-33.88143602 -4357.073271 -62.14437148)
(-30.33855078 -3897.057264 -93.26529306)
(-0.04587236028 -5.886232286 -0.1856082437)
(-0.04128714847 -5.29666683 -0.1655203408)
(-0.04066671168 -5.213085834 -0.1641471152)
(-0.04005021326 -5.130443733 -0.159975301)
(-0.03939634943 -5.045872132 -0.1586402345)
(-0.03879094358 -4.964978651 -0.1573119721)
(-0.03818887477 -4.884929828 -0.1532527212)
(-0.03759284939 -4.805721147 -0.1519598025)
(-0.03700018514 -4.72736913 -0.1479825487)
(-0.03641354051 -4.649868761 -0.1467258615)
(-0.03583028118 -4.573173622 -0.1428290376)
(-0.03525301764 -4.497341298 -0.1416074584)
(-0.03467916348 -4.42232554 -0.1377914611)
(-0.03415169654 -4.350699631 -0.1366039024)
(-0.03358817 -4.277301192 -0.1354226733)
(-0.03302807698 -4.204725419 -0.1317144592)
(-0.03251336554 -4.135478548 -0.1305679475)
(-0.03196234322 -4.064491564 -0.1269377254)
(-0.03141724539 -3.994312646 -0.1258248433)
(-0.03091408065 -3.927382525 -0.122272303)
(-0.03041617003 -3.861207246 -0.1211931956)
(-0.02988447542 -3.793360563 -0.1201194629)
(-0.02939378009 -3.728683746 -0.1166704015)
(-0.02890831511 -3.664766575 -0.115630446)
(-0.02838886269 -3.599228107 -0.1122568181)
(-0.0279117989 -3.536781313 -0.1112489888)
(-0.02743878013 -3.47506147 -0.1102468953)
(-0.02696866882 -3.414063915 -0.1069742599)
(-0.02650374027 -3.353783988 -0.1060042827)
(-0.02604174324 -3.294217026 -0.1028048205)
(-0.02558490513 -3.23537586 -0.1018670327)
(-0.02516680379 -3.179415105 -0.1009341923)
(-0.02471665532 -3.121938746 -0.09783260084)
(-0.02427164198 -3.065156823 -0.09693080219)
(-0.02386338971 -3.01121584 -0.09390063786)
(-0.02342615603 -2.95578884 -0.09302940332)
(-0.02302615058 -2.903153788 -0.09216395561)
(-0.02259565493 -2.849063538 -0.08922801319)
(-0.0222028307 -2.797716723 -0.08839252045)
(-0.02178013902 -2.744961188 -0.08552569609)
(-0.0213944962 -2.69488477 -0.08471968049)
(-0.02101230046 -2.64544323 -0.08391918959)
(-0.02063255792 -2.596600412 -0.08114396764)
(-0.02025725648 -2.548383575 -0.08037234466)
(-0.01988443227 -2.500757139 -0.07766342854)
(-0.01951602527 -2.453747786 -0.0769201953)
(-0.01915106557 -2.407335645 -0.0761817455)
(-0.01878860715 -2.36151641 -0.07356177586)
(-0.01846025222 -2.318168713 -0.07285158548)
(-0.01810534721 -2.273504125 -0.07214559243)
(-0.01775296755 -2.22943422 -0.06961272663)
(-0.01743382932 -2.187753978 -0.0689343835)
(-0.01708897933 -2.144813063 -0.06826058558)
(-0.01677499979 -2.104217967 -0.06581253775)
(-0.01646481514 -2.064150596 -0.06516532517)
(-0.01615665308 -2.024607004 -0.06277861698)
(-0.01582473127 -1.983856577 -0.06215751135)
(-0.01552350045 -1.945379461 -0.06154114332)
(-0.01522431628 -1.907413897 -0.05923654869)
(-0.01492887922 -1.869942574 -0.05864525888)
(-0.01463633909 -1.832988404 -0.05805857538)
(-0.01434586962 -1.796533943 -0.0558338561)
(-0.01408507351 -1.762200939 -0.05527207204)
(-0.01380096086 -1.726717648 -0.05471435586)
(-0.0135189429 -1.691709624 -0.05256730945)
(-0.01326580805 -1.658775309 -0.05203389484)
(-0.01299012311 -1.624728212 -0.05150442879)
(-0.01274123767 -1.592702225 -0.04943406227)
(-0.01249552481 -1.561116934 -0.04892829981)
(-0.01222800436 -1.528443303 -0.04842598327)
(-0.011986565 -1.497744324 -0.04643010603)
(-0.01174827433 -1.467463299 -0.04595090698)
(-0.01151237793 -1.437620469 -0.04547578887)
(-0.01127814535 -1.408188653 -0.04355224613)
(-0.01104703757 -1.379176116 -0.04309927621)
(-0.01081832412 -1.350567894 -0.04264953727)
(-0.01059200503 -1.322383267 -0.04220374793)
(-0.01036737378 -1.294596014 -0.04036913622)
(-0.01016788983 -1.268591341 -0.03994480128)
(-0.009948514437 -1.241596305 -0.03952393716)
(-0.009752442214 -1.216337079 -0.03775769777)
(-0.009537616213 -1.190109817 -0.03735771381)
(-0.009346320966 -1.165583306 -0.03696074589)
(-0.009156306533 -1.141416607 -0.03526115499)
(-0.008948185013 -1.116314453 -0.0348848282)
(-0.008762923712 -1.092861263 -0.03451140987)
(-0.008579601916 -1.069748158 -0.03414090009)
(-0.008397584951 -1.046982252 -0.03252274637)
(-101.3184485 -8835.00614 80.4635206)
(-100.6421508 -8766.397359 79.56317457)
(-100.1885485 -8717.226467 78.56185597)
(-99.77008055 -8671.164195 78.02900046)
(-99.38536382 -8628.018673 77.98256226)
(-99.03510282 -8587.905195 78.36418845)
(-98.71785494 -8550.647318 79.08388904)
(-98.43316037 -8516.221473 80.19213074)
(-98.17885316 -8484.406812 81.60773695)
(-97.9350219 -8455.007202 83.29293159)
(-97.73661299 -8428.031406 85.13421552)
(-97.54502354 -8403.112713 87.24214627)
(-97.39587611 -8380.306056 89.51325681)
(-97.25059148 -8359.341071 91.91571718)
(-97.12614888 -8340.150355 94.31343345)
(-97.04087824 -8322.740313 96.88028644)
(-96.95561472 -8306.833395 99.49129025)
(-96.88827448 -8292.416229 102.1204631)
(-96.83806861 -8279.448525 104.61158)
(-96.8046489 -8267.864365 107.2002893)
(-96.78722813 -8257.605832 109.7401357)
(-96.78527248 -8248.621908 112.2120839)
(-96.79812302 -8240.867826 114.4385465)
(-96.82576488 -8234.303992 116.715806)
(-96.84705165 -8228.721755 118.8759404)
(-96.90289384 -8224.465315 120.9061314)
(-96.97218975 -8221.305039 122.606719)
(-97.03396732 -8219.021631 124.3333526)
(-97.13009614 -8218.007646 125.8969044)
(-97.23941185 -8218.054363 127.2889555)
(-97.33999577 -8218.927037 128.5023042)
(-97.45275829 -8220.805487 129.310088)
(-97.59986808 -8223.860392 130.1403093)
(-97.73724525 -8227.695087 130.7761804)
(-97.9089482 -8232.713653 131.21388)
(-98.06964992 -8238.419097 131.2036481)
(-98.24209382 -8245.058953 131.2326204)
(-98.42559303 -8252.571535 131.0588915)
(-98.61987142 -8260.93069 130.6827309)
(-98.84848671 -8270.458307 129.8321473)
(-99.06407272 -8280.509099 129.0488807)
(-99.28950236 -8291.319789 128.0676443)
(-99.52482954 -8302.933856 126.8930164)
(-99.76947686 -8315.280416 125.5280916)
(-100.0228518 -8328.324562 123.6683156)
(-100.2849386 -8342.029605 121.9283446)
(-100.5551032 -8356.357852 120.0115755)
(-100.8331092 -8371.309659 117.925029)
(-101.1182808 -8386.805984 115.674139)
(-101.4101877 -8402.845531 112.9227142)
(-101.7084608 -8419.346471 110.3558434)
(-101.985895 -8435.948258 107.6450371)
(-102.295165 -8453.315273 104.7978006)
(-102.609282 -8471.053049 101.8219535)
(-102.9275886 -8489.117229 98.34626809)
(-103.2497919 -8507.462533 95.12863655)
(-103.5752043 -8526.043279 91.80542856)
(-103.8747708 -8544.412036 88.3855502)
(-104.204724 -8563.358119 84.46989371)
(-104.5362363 -8582.39831 80.87385499)
(-104.8688549 -8601.527828 77.2055649)
(-105.2019785 -8620.698817 73.47339591)
(-105.504726 -8639.381109 69.68473937)
(-105.8361911 -8658.391716 65.4023541)
(-106.1665435 -8677.338754 61.51711264)
(-106.4948712 -8696.127597 57.59859206)
(-106.8205171 -8714.706897 53.65472982)
(-107.1425635 -8732.978499 49.69281161)
(-107.4288702 -8750.49677 45.23766098)
(-107.7423 -8768.167568 41.25419334)
(-108.0500285 -8785.367857 37.27284878)
(-108.3518336 -8802.135607 33.30108716)
(-108.6469846 -8818.415459 29.34538616)
(-108.9346115 -8834.103591 24.88837467)
(-109.2139792 -8849.190583 20.97310657)
(-109.4500544 -8863.080283 17.09036585)
(-109.7102184 -8876.735437 13.24571667)
(-109.9603646 -8889.664832 8.889826759)
(-110.1988236 -8901.711235 5.128378546)
(-110.4255076 -8912.915508 1.419249092)
(-110.639083 -8923.118084 -2.233532266)
(-110.8392727 -8932.359718 -5.825425411)
(-111.0620953 -8941.126643 -9.949669118)
(-111.2331565 -8948.224278 -13.41822375)
(-111.3880732 -8954.127572 -16.81616371)
(-111.5259694 -8958.772032 -20.1403514)
(-111.6462131 -8962.143279 -23.38744803)
(-111.7865212 -8964.759067 -27.19477513)
(-111.8689292 -8965.380695 -30.28970258)
(-111.9303573 -8964.451986 -33.30050462)
(-112.0095176 -8962.602496 -36.22470691)
(-112.0265273 -8958.408176 -39.73539431)
(-112.0180302 -8952.353098 -42.4912075)
(-112.0237974 -8945.098938 -45.15601826)
(-111.9603273 -8935.043792 -47.72808954)
(-111.906934 -8923.36774 -50.91607905)
(-111.8187922 -8909.16023 -53.3082025)
(-111.6491765 -8891.2206 -55.60366929)
(-111.4760157 -8870.622752 -57.80122697)
(-111.2491139 -8845.977453 -59.89920091)
(-110.9562825 -8816.219646 -62.6510101)
(-110.5797527 -8780.13552 -64.5552097)
(-110.0499906 -8734.774545 -66.35511052)
(-109.4134739 -8678.531814 -68.04764238)
(-108.6098839 -8606.623977 -70.41967411)
(-107.4543149 -8509.847231 -71.89592735)
(-105.8384237 -8376.964771 -73.2525369)
(-103.5239562 -8189.182245 -74.48970574)
(-100.1550558 -7918.352203 -76.55179206)
(-95.41445712 -7537.189391 -79.89139837)
(-90.31449643 -7130.151197 -101.2603413)
(-83.2241759 -6563.530678 -152.0424009)
(-0.1216140231 -9.584652771 -0.3020563304)
(-0.1095338537 -8.626465769 -0.2710980465)
(-0.1078713927 -8.489773085 -0.2660179826)
(-0.1061542349 -8.351812801 -0.2638057966)
(-0.1045193358 -8.218118722 -0.258821423)
(-0.1028971209 -8.085817104 -0.2538937927)
(-0.1012875904 -7.95490053 -0.2490225826)
(-0.099692912 -7.82536158 -0.2469212513)
(-0.0981087269 -7.697227089 -0.2421399995)
(-0.09660520864 -7.573156743 -0.2374153486)
(-0.09504584282 -7.447749979 -0.2327458861)
(-0.09350125797 -7.323690169 -0.2307538128)
(-0.09203359237 -7.20360305 -0.2261722642)
(-0.09051170823 -7.082257983 -0.2216460486)
(-0.08906983334 -6.964791897 -0.2197290718)
(-0.08763749508 -6.848630079 -0.2152892755)
(-0.08615254337 -6.731253603 -0.2109038795)
(-0.08474594891 -6.61766676 -0.2090606143)
(-0.08334893945 -6.505360926 -0.2047601428)
(-0.08196353893 -6.394328214 -0.2005131385)
(-0.08059169944 -6.284560734 -0.1987431819)
(-0.07929108079 -6.178453062 -0.1945805653)
(-0.07793995726 -6.071140495 -0.1904695011)
(-0.07660044322 -5.965100406 -0.1864115579)
(-0.07533444977 -5.862602839 -0.1847432078)
(-0.07401760447 -5.758971961 -0.1807665771)
(-0.07277137009 -5.65885658 -0.1768411646)
(-0.07153754817 -5.559939684 -0.1752436045)
(-0.0703124506 -5.462154988 -0.1713988952)
(-0.06909793359 -5.365524461 -0.1676044468)
(-0.06789578157 -5.27004057 -0.166074399)
(-0.0667024021 -5.175724029 -0.1623599969)
(-0.0655196036 -5.082510562 -0.1586940005)
(-0.06440462691 -4.992575137 -0.1572309532)
(-0.06324246376 -4.901609789 -0.1536434238)
(-0.06214711678 -4.813867318 -0.1522185071)
(-0.06100558949 -4.725064922 -0.1487067397)
(-0.05992818421 -4.639458471 -0.1452435586)
(-0.05886204318 -4.554899251 -0.1438833479)
(-0.0578038135 -4.471380086 -0.1404952233)
(-0.05675518375 -4.388893801 -0.1371538656)
(-0.05571777064 -4.307459036 -0.1358577407)
(-0.05468831709 -4.227016742 -0.1325898721)
(-0.05372074699 -4.149571375 -0.1313288408)
(-0.05270999105 -4.071150761 -0.1281342945)
(-0.05175859204 -3.995649729 -0.1249849352)
(-0.05081740432 -3.921101227 -0.1237848803)
(-0.049834468 -3.845612308 -0.1207064733)
(-0.04890949979 -3.772990825 -0.1176730504)
(-0.04799469524 -3.701276882 -0.1165325368)
(-0.047134518 -3.632343638 -0.1135684865)
(-0.04623654428 -3.562478575 -0.1124616571)
(-0.04534574065 -3.493524677 -0.1095660101)
(-0.04451119325 -3.427253745 -0.1084916323)
(-0.04363724487 -3.360107072 -0.1056641496)
(-0.04281721774 -3.295571909 -0.1028779878)
(-0.04200637288 -3.231908658 -0.1018607248)
(-0.04120188424 -3.16906581 -0.09914044104)
(-0.04040655405 -3.107081522 -0.09815430227)
(-0.03961760415 -3.045926917 -0.09549962154)
(-0.0388377889 -2.985595535 -0.09454412873)
(-0.03806437803 -2.926080915 -0.09195338716)
(-0.03734100908 -2.868981003 -0.08940185978)
(-0.03658403565 -2.811064333 -0.08849964144)
(-0.03587493678 -2.755537999 -0.08601116768)
(-0.0351740628 -2.700770368 -0.08513827959)
(-0.03447882712 -2.646755339 -0.08271123127)
(-0.0337917925 -2.59348681 -0.08186719497)
(-0.03311042025 -2.540958677 -0.07950061452)
(-0.0324372252 -2.489164838 -0.07868495158)
(-0.03180871978 -2.439596823 -0.07637788142)
(-0.03114895741 -2.389218514 -0.07558950257)
(-0.03053311837 -2.34104266 -0.07334099705)
(-0.02988678886 -2.292075851 -0.07258004655)
(-0.02928361639 -2.245249989 -0.07038856124)
(-0.02868775927 -2.199092488 -0.06965456049)
(-0.0280968704 -2.153579271 -0.06751917367)
(-0.027513273 -2.108741453 -0.06681164411)
(-0.02697058159 -2.065914103 -0.06473199679)
(-0.02639886092 -2.022322949 -0.06404933414)
(-0.02583215657 -1.979389901 -0.0620244926)
(-0.02530748403 -1.938407946 -0.06136736784)
(-0.02478710943 -1.898009475 -0.0593952966)
(-0.02427321227 -1.858206684 -0.05876269222)
(-0.02376363707 -1.818994186 -0.05684357115)
(-0.02326051546 -1.780349915 -0.05623503244)
(-0.02276173982 -1.742285525 -0.05436740086)
(-0.02226939389 -1.704779309 -0.05378247307)
(-193.3954252 -12122.82663 80.77721256)
(-192.1352277 -12029.14227 79.62740948)
(-191.287042 -11962.78211 78.1297204)
(-190.5086972 -11900.81117 77.13777877)
(-189.795094 -11842.91991 76.62700234)
(-189.1450952 -11788.99848 76.5549613)
(-188.557366 -11738.97279 76.87953627)
(-188.0045104 -11692.6188 77.55899912)
(-187.5329928 -11649.80132 78.55246941)
(-187.0901184 -11610.2462 79.82092713)
(-186.7231824 -11573.88564 81.32651113)
(-186.378959 -11540.4256 83.03327049)
(-186.079193 -11509.66025 84.90576661)
(-185.8220593 -11481.51493 86.91179523)
(-185.6048507 -11455.78817 89.01976747)
(-185.4254529 -11432.33994 91.20002977)
(-185.2823354 -11411.09128 93.42520751)
(-185.1734428 -11391.88226 95.66886175)
(-185.0976485 -11374.65974 97.90697363)
(-185.0536378 -11359.33483 100.1166116)
(-185.0130001 -11345.68237 102.4230996)
(-185.0290256 -11333.91955 104.5213217)
(-185.0459266 -11323.68511 106.5326869)
(-185.0903352 -11315.07161 108.4405787)
(-185.1899224 -11308.20487 110.2298528)
(-185.2880002 -11302.74936 111.8872985)
(-185.4117781 -11298.78565 113.4000535)
(-185.5611492 -11296.32706 114.757418)
(-185.7353028 -11295.29259 115.9488633)
(-185.934207 -11295.70056 116.9664721)
(-186.1574737 -11297.52193 117.8027305)
(-186.4047206 -11300.72808 118.4513327)
(-186.675189 -11305.24098 118.9059598)
(-186.9384864 -11310.89643 119.1634017)
(-187.2550537 -11318.07726 119.2196941)
(-187.5945374 -11326.57546 119.3205915)
(-187.9237516 -11336.00375 118.974823)
(-188.3061298 -11346.93091 118.4241382)
(-188.6775315 -11358.80561 117.6684504)
(-189.1012578 -11372.06892 116.7080147)
(-189.5122271 -11386.18941 115.544748)
(-189.9420703 -11401.39329 114.1808645)
(-190.423696 -11417.93219 112.6194615)
(-190.8895484 -11435.17621 110.8640052)
(-191.3721255 -11453.366 108.9187605)
(-191.8706261 -11472.45108 106.7879608)
(-192.4193123 -11492.70271 104.7993688)
(-192.9479114 -11513.48248 102.321685)
(-193.4902745 -11535.05213 99.67662417)
(-194.0446666 -11557.24643 96.86918832)
(-194.611369 -11580.17141 93.90779204)
(-195.1885881 -11603.65857 90.79804147)
(-195.7757383 -11627.70288 87.5481492)
(-196.371809 -11652.24388 84.16555236)
(-196.9757685 -11677.22014 80.65808214)
(-197.5865681 -11702.56946 77.03313477)
(-198.2035573 -11728.28613 73.69273712)
(-198.8247893 -11754.19115 69.86503667)
(-199.4500194 -11780.33507 65.9455298)
(-200.0776883 -11806.59436 61.94160744)
(-200.7070901 -11832.96175 57.86177704)
(-201.3370661 -11859.37101 53.71430831)
(-201.965989 -11885.69465 49.50649981)
(-202.593095 -11911.92366 45.24659135)
(-203.2171606 -11937.98889 40.94221947)
(-203.8369409 -11963.82017 36.60087128)
(-204.4505459 -11989.28377 32.69796303)
(-205.0578947 -12014.4313 28.31396495)
(-205.6570637 -12039.12694 23.91571319)
(-206.247175 -12063.35939 19.51035243)
(-206.8263955 -12086.98999 15.10408673)
(-207.3933283 -12109.9415 10.70359099)
(-207.9470326 -12132.20075 6.315326986)
(-208.485583 -12153.62367 1.944798762)
(-209.0079996 -12174.19602 -2.402026865)
(-209.5128036 -12193.83787 -6.71977187)
(-209.9981563 -12212.46783 -10.45567807)
(-210.4626681 -12229.93573 -14.69024277)
(-210.9543457 -12246.85803 -18.87959992)
(-211.3733867 -12261.89548 -23.01999925)
(-211.7675858 -12275.65579 -27.10689451)
(-212.1348161 -12287.98392 -31.13622147)
(-212.5242204 -12299.38864 -35.10424038)
(-212.8335202 -12308.66548 -39.00740144)
(-213.1625308 -12316.85363 -42.84255242)
(-213.4069015 -12322.70847 -46.60670587)
(-213.6682211 -12327.29355 -50.29663771)
(-213.8394541 -12329.24583 -53.90997705)
(-214.0248823 -12329.86527 -56.79639755)
(-214.115173 -12327.58718 -60.23991752)
(-214.2154875 -12323.64446 -63.59911957)
(-214.2690429 -12317.22168 -66.87209714)
(-214.2722247 -12308.12198 -70.05751398)
(-214.2207229 -12296.10908 -73.15358111)
(-214.1092959 -12280.89374 -76.15831769)
(-213.9319903 -12262.19104 -79.07041488)
(-213.6794257 -12239.38705 -81.88826493)
(-213.3420283 -12212.03596 -84.61023104)