/*--------------------------------*- C++ -*----------------------------------*\
| =========                 |                                                 |
| \\      /  F ield         | OpenFOAM: The Open Source CFD Toolbox           |
|  \\    /   O peration     | Version:  v1706                                 |
|   \\  /    A nd           | Web:      www.OpenFOAM.com                      |
|    \\/     M anipulation  |                                                 |
\*---------------------------------------------------------------------------*/
FoamFile
{
    version     2.0;
    format      ascii;
    class       volScalarField;
    location    "0.003";
    object      pressureCoefficient;
}
// * * * * * * * * * * * * * * * * * * * * * * * * * * * * * * * * * * * * * //

dimensions      [0 0 0 0 0 0 0];


internalField   uniform 0;

boundaryField
{
    inlet
    {
        type            calculated;
        value           uniform 0;
    }
    object
    {
        type            calculated;
        value           nonuniform List<scalar> 
400
(
1.871452134
1.873476028
1.874269053
1.874730747
1.875025497
1.875211701
1.87531708
1.875357012
1.875340912
1.875274952
1.875163395
1.875009302
1.874814948
1.874582072
1.874312032
1.874005917
1.873664615
1.873288865
1.872879295
1.872436442
1.871960778
1.871452725
1.87091266
1.870340926
1.869737844
1.86910371
1.868438801
1.867743383
1.867017706
1.866262013
1.865476536
1.864661497
1.863817115
1.8629436
1.862041156
1.861109984
1.860150277
1.859162225
1.858146013
1.857101819
1.856029821
1.854930191
1.853803097
1.852648704
1.851467171
1.850258656
1.849023313
1.84776129
1.846472737
1.845157799
1.843816618
1.842449331
1.841056079
1.839636992
1.83819221
1.83672186
1.835226074
1.833704979
1.832158707
1.830587383
1.828991134
1.827370088
1.82572437
1.824054106
1.822359425
1.820640455
1.818897321
1.817130156
1.815339088
1.813524249
1.811685774
1.809823797
1.807938454
1.806029888
1.804098236
1.802143644
1.800166258
1.798166227
1.796143704
1.794098845
1.792031806
1.789942751
1.78783184
1.785699248
1.783545144
1.781369703
1.779173106
1.776955542
1.774717193
1.772458253
1.770178918
1.767879388
1.765559868
1.76322057
1.760861709
1.758483504
1.756086176
1.753669957
1.751235078
1.748781778
1.746310304
1.743820897
1.741313815
1.738789319
1.736247668
1.733689135
1.731113988
1.728522513
1.725914991
1.723291715
1.720652973
1.717999072
1.715330318
1.712647016
1.70994949
1.707238063
1.704513055
1.701774802
1.699023643
1.69625992
1.693483986
1.690696189
1.687896893
1.685086462
1.682265266
1.679433679
1.676592084
1.673740866
1.670880418
1.668011131
1.665133412
1.662247665
1.659354297
1.656453732
1.653546387
1.650632694
1.647713075
1.644787971
1.64185782
1.638923071
1.635984166
1.633041566
1.630095728
1.627147107
1.624196182
1.621243407
1.618289279
1.615334264
1.612378845
1.609423514
1.606468759
1.603515078
1.600562966
1.59761293
1.594665476
1.591721108
1.588780349
1.585843705
1.582911708
1.579984873
1.577063734
1.574148821
1.571240675
1.568339827
1.565446815
1.562562197
1.559686511
1.556820324
1.553964182
1.551118651
1.548284301
1.545461695
1.542651425
1.539854057
1.53707018
1.534300399
1.531545296
1.528805497
1.526081608
1.523374256
1.520684081
1.518011726
1.515357863
1.512723153
1.510108309
1.507514046
1.504941098
1.502390246
1.499862294
1.497358097
1.494878533
1.492424562
1.489997182
1.487597447
1.485226411
1.48288502
1.480573716
1.478291567
1.476034848
1.473798781
1.471802065
1.469882837
1.467876493
1.465820584
1.463742229
1.461657413
1.459575266
1.457501129
1.455438227
1.45338863
1.451353661
1.449334235
1.447330946
1.445344189
1.443374171
1.44142097
1.439484578
1.437564878
1.435661678
1.433774722
1.431903699
1.430048217
1.428207855
1.426382127
1.424570523
1.422772451
1.420987302
1.41921442
1.41745311
1.415702616
1.413962154
1.412230916
1.410508022
1.408792565
1.407083595
1.405380136
1.403681131
1.401985519
1.400292166
1.398599928
1.396907567
1.395213828
1.393517423
1.391816965
1.390111055
1.388398219
1.386676934
1.384945639
1.383202633
1.381446269
1.379674732
1.377886154
1.376078659
1.374250184
1.372398682
1.370521905
1.368617633
1.366683424
1.364716823
1.362715163
1.360675694
1.358595593
1.35647172
1.354300954
1.35207983
1.349804868
1.347472192
1.345077791
1.342617471
1.340086573
1.337480324
1.334793439
1.33202044
1.329155219
1.326191397
1.323121905
1.319939184
1.316635006
1.313200256
1.309625153
1.305898686
1.302008903
1.297942321
1.293684095
1.289217317
1.28452301
1.27957959
1.274362142
1.268841965
1.26298532
1.256752467
1.250095584
1.24295647
1.235263021
1.226923678
1.217819618
1.207791843
1.196621683
1.183994814
1.169370408
1.146997992
1.125334493
1.105204886
1.086419942
1.068694896
1.051768821
1.035431851
1.019525483
1.003934317
0.9885758029
0.9733915366
0.9583406269
0.9433945132
0.9285333385
0.9137435866
0.8990161493
0.8843454105
0.8697277624
0.8551619148
0.8406475168
0.8261854883
0.8117778003
0.7974265412
0.7831347924
0.7689056991
0.7547429603
0.7406500768
0.7266304984
0.7126857793
0.6988023818
0.6845785138
0.6702153203
0.6563234551
0.6425902187
0.6289862446
0.6155098464
0.6021648198
0.5889558532
0.5758872141
0.5629629188
0.5501864786
0.53756119
0.5250903597
0.5127770754
0.5006240551
0.4886337086
0.4768082577
0.4651496807
0.4536597923
0.4423401345
0.4311921749
0.4202171492
0.4094157546
0.3987885629
0.3883362616
0.3780591477
0.3679575312
0.3580315454
0.3482812147
0.3387064101
0.3293069391
0.3200825511
0.3110327907
0.3021571784
0.2934551474
0.2849260509
0.2765691577
0.2683836257
0.2603686138
0.2525230968
0.2448460567
0.2373363786
0.2299928486
0.2228142235
0.2157991493
0.2089462525
0.2022540315
0.1957209387
0.1893453893
0.1831257317
0.1770602089
0.1711470602
0.1653844466
0.1597704774
0.1543032305
0.1489807226
0.1438009125
0.138761741
0.1338611193
0.1290969049
0.1244669225
0.1199689925
0.1156008847
0.1113603699
0.1072451701
0.1032530253
0.09938163766
0.09562870743
0.09199211075
0.08847278465
)
;
    }
    outlet
    {
        type            calculated;
        value           uniform 0;
    }
    front
    {
        type            wedge;
    }
    back
    {
        type            wedge;
    }
}


// ************************************************************************* //
