/*--------------------------------*- C++ -*----------------------------------*\
| =========                 |                                                 |
| \\      /  F ield         | OpenFOAM: The Open Source CFD Toolbox           |
|  \\    /   O peration     | Version:  v1706                                 |
|   \\  /    A nd           | Web:      www.OpenFOAM.com                      |
|    \\/     M anipulation  |                                                 |
\*---------------------------------------------------------------------------*/
FoamFile
{
    version     2.0;
    format      ascii;
    class       volScalarField;
    location    "0.003";
    object      Q;
}
// * * * * * * * * * * * * * * * * * * * * * * * * * * * * * * * * * * * * * //

dimensions      [1 -1 -3 0 0 0 0];


internalField   nonuniform List<scalar> 
80000
(
9338.411623
9271.981885
9228.218419
9189.438755
9157.686632
9133.653351
9117.109635
9107.813473
9104.954279
9108.820301
9118.764767
9134.514966
9155.725787
9181.655483
9213.173716
9249.604322
9290.721023
9335.771375
9386.032845
9440.71055
9499.726395
9562.180102
9629.80796
9700.722505
9776.841163
9857.270451
9940.794085
10029.76229
10121.86958
10219.58629
10321.77089
10426.9479
10538.16324
10652.48171
10772.91582
10896.45685
11026.44765
11159.48714
11299.43605
11442.27465
11590.0904
11745.07403
11903.09129
12068.72339
12237.11732
12413.33511
12592.40717
12776.99751
12969.63658
13165.03162
13368.87023
13575.32915
13787.47634
14008.37744
14231.57468
14463.98988
14698.55672
14938.93634
15188.61352
15440.11954
15697.24349
15964.22288
16232.70279
16511.1653
16790.50515
17075.30022
17370.41324
17666.01987
17966.57044
18277.71353
18588.34653
18909.80427
19229.84736
19554.33799
19889.64858
20222.53299
20566.45812
20906.94455
21250.74737
21605.35632
21955.17589
22315.79406
22670.52578
23035.66505
23393.97209
23753.31353
24122.90777
24483.45623
24853.85441
25213.92157
25583.3843
25940.8476
26306.83375
26670.3749
27018.63795
27373.90748
27710.99
28052.98955
28386.09893
28694.30363
29001.30387
29275.02439
29536.59935
29759.01612
29916.27975
29935.7731
29719.83872
28964.92928
27042.15097
22969.06028
16986.99951
14247.98997
45.53849425
41.07101388
40.35240633
39.7419802
39.13302774
38.53189686
37.93541407
37.34357982
36.75639435
36.17081386
35.59292704
35.01969009
34.45110327
33.88716689
33.32788133
32.862508
32.31174802
31.76563978
31.22418348
30.68737943
30.2408629
29.71258734
29.18896486
28.66999567
28.24112174
27.73068316
27.30625986
26.80435281
26.30710038
25.89631804
25.40759858
25.003925
24.52121307
24.12464908
23.73131645
23.26354475
22.87732294
22.41569037
22.03658014
21.66070225
21.28805685
20.8451182
20.47958582
20.11728647
19.75595294
19.40012005
19.04752063
18.69815482
18.35202279
18.00912466
17.66732275
17.33089281
16.99769717
16.66773596
16.34100931
16.01751733
15.75906295
15.44139302
15.12695812
14.81575832
14.56914359
14.2637667
13.96162523
13.72037681
13.4240588
13.18934686
12.89885266
12.66879881
12.38412873
12.15873327
11.93365885
11.6574017
11.43873525
11.22213924
10.95429564
10.74235881
10.53249259
10.32469703
10.11735255
9.913698477
9.66203596
9.463041763
9.266118497
9.071266214
8.878484966
8.735262927
8.544615624
8.357529588
25175.38977
25030.87852
24980.13884
24946.72867
24931.90562
24936.31957
24959.90204
25001.46058
25061.39609
25138.27277
25230.74258
25339.45721
25463.17817
25600.50127
25752.67891
25917.32821
26095.18532
26287.06372
26490.57231
26706.41795
26936.2266
27176.9994
27430.03867
27695.42511
27973.11961
28263.27963
28566.14546
28881.60011
29209.91802
29551.38306
29906.06811
30274.17706
30656.03609
31051.81386
31461.81842
31886.13749
32322.05861
32775.87809
33245.02649
33729.42988
34226.02288
34741.81539
35274.0276
35822.53483
36383.54931
36965.31976
37559.67361
38175.45456
38809.0322
39454.80448
40123.5627
40804.59433
41508.8809
42231.42703
42966.4209
43725.47754
44496.71256
45292.53813
46100.37004
46933.27215
47777.71923
48647.65775
49528.42506
50435.50668
51352.32737
52295.95826
53248.68023
54227.88852
55224.92459
56229.61248
57261.07339
58298.81671
59363.18267
60432.23207
61527.59011
62637.73547
63749.84168
64887.97308
66025.59179
67188.17749
68362.41022
69532.82873
70726.67176
71929.09154
73139.30634
74339.64973
75561.11808
76786.28529
78014.46399
79243.2295
80470.76765
81676.53299
82895.72304
84106.42076
85306.04534
86490.1743
87653.49848
88790.03497
89913.75558
90966.61974
91954.54407
92851.81708
93618.94934
94217.60277
94485.54119
94256.39122
93214.35844
90694.40138
85716.91626
77400.93109
70417.91927
81819.45859
247.9828912
223.3216834
219.9671829
216.6333032
213.097258
209.8233119
206.5673836
203.3441142
200.1389941
196.9664055
193.8120987
190.6901959
187.5867064
184.7341246
181.6864461
178.6573136
175.8736515
172.8935345
169.9454407
167.224165
164.5312881
161.6556272
159.0017356
156.3761158
153.5666123
150.9863965
148.4280421
145.8853957
143.3707667
140.8719769
138.4010763
136.1397134
133.7049659
131.2979805
129.0898467
126.7249139
124.5613611
122.2328474
120.1081128
117.8217865
115.7358726
113.6685928
111.6145708
109.5845611
107.5679401
105.5752029
103.6011027
101.6405223
99.86442499
97.94468487
96.03859552
94.31232718
92.44695155
90.74857115
89.07071116
87.40378399
85.60831021
83.97886245
82.36047831
80.76235758
79.17990088
77.6086385
76.19789897
74.6610118
73.13544962
71.76613605
70.27482156
68.92848415
67.5993041
66.15214028
64.84606781
63.55702406
62.28092782
61.01382751
59.76362718
58.52637522
57.30207188
56.08689509
55.00776007
53.82100868
52.76032281
51.59817546
50.56332527
49.53540067
48.40951344
47.40729636
46.41556879
45.43089728
60521.06487
60188.2033
60098.53859
60053.50903
60051.8541
60095.09188
60182.16119
60312.71078
60484.82995
60696.19386
60947.38631
61234.36036
61558.34822
61915.8266
62306.70813
62731.81094
63187.34965
63674.02676
64191.57848
64739.69184
65318.09776
65926.65671
66565.29351
67234.12637
67930.38759
68660.14239
69420.62807
70208.96132
71032.23365
71887.73619
72772.17101
73689.44707
74644.0442
75628.98763
76652.99157
77707.79061
78798.74888
79926.06614
81090.33236
82298.18889
83539.01557
84818.54059
86138.01759
87497.64657
88897.8507
90339.31522
91822.41821
93348.00112
94916.10378
96527.42189
98182.12742
99872.39815
101615.1706
103402.553
105234.688
107111.9996
109034.5476
110992.0352
113005.3733
115064.2531
117169.0517
119319.7044
121503.2288
123743.4813
126029.57
128360.4965
130735.8204
133154.3937
135601.7143
138106.7079
140652.6793
143239.9571
145867.4975
148533.3937
151237.1269
153958.4949
156732.0422
159539.3837
162377.2188
165245.0955
168139.2904
171059.1057
174024.5237
176987.9616
179968.2539
182962.2605
185967.4744
189006.3097
192023.2332
195037.9456
198075.5407
201072.05
204047.5632
207027.7342
209937.8152
212829.9432
215656.1762
218356.901
220975.8526
223438.3438
225686.0191
227640.6592
229139.0965
230079.2707
230185.2703
228938.1109
225707.7394
219480.0694
208885.1684
193837.0093
188461.3266
231468.2154
657.4762153
592.4750591
583.4863572
574.1999762
565.358486
556.585525
547.881096
539.2569274
530.6894412
522.5582507
514.1248699
505.7713721
497.833904
489.6030612
481.8049688
474.0583974
466.0271378
458.4196984
450.8640465
443.3711325
435.9515184
428.9171277
421.6094633
414.3645457
407.5172984
400.3949031
393.654441
386.9810761
380.3548584
373.7858306
367.2836472
360.8288751
354.4312989
348.40058
342.1145506
336.1899411
330.015466
324.1878385
318.4211109
312.6971454
307.0250781
301.4136559
295.8452598
290.6116097
285.1442998
279.9980703
274.9070527
269.5901521
264.586822
259.6384486
254.9855751
250.1282019
245.3095929
240.7952991
236.0678269
231.6320399
227.2459059
222.8941372
218.591894
214.3241475
210.1057991
205.9220789
202.0090632
197.9142322
194.078382
190.2870114
186.5261279
182.8095961
179.1236825
175.4819928
172.0820577
168.5130107
165.181574
161.6851727
158.4222372
155.1988659
152.0023615
148.8452931
145.9095146
142.8166787
139.7509713
136.9126459
134.0975636
131.3175158
128.5608416
125.8390734
123.1408094
120.4773229
113945.9106
113327.5135
113179.8168
113119.1143
113140.8383
113244.5871
113429.755
113693.3336
114034.5054
114448.7949
114936.217
115491.8129
116113.7445
116800.8355
117550.7826
118361.991
119233.5853
120163.9982
121152.8405
122199.476
123300.3217
124461.2828
125675.7704
126947.074
128279.3922
129665.9492
131110.5073
132614.2292
134177.3237
135801.1583
137486.6466
139234.7615
141045.9602
142916.5251
144858.587
146868.2597
148938.6692
151085.3227
153295.7164
155584.5569
157938.8271
160366.8389
162878.0727
165457.0089
168112.7443
170846.1962
173668.1026
176560.7051
179534.3238
182588.181
185725.2541
188944.6207
192247.623
195634.776
199106.5222
202663.2329
206306.1693
210033.5781
213847.4504
217746.8863
221732.7503
225804.8764
229961.9524
234204.5158
238531.9915
242943.6519
247437.529
252014.6438
256672.678
261411.3462
266227.8293
271120.2188
276087.6486
281126.4951
286235.4553
291411.7178
296652.1528
301951.9694
307338.6336
312749.5605
318210.8284
323716.2789
329292.7978
334873.5794
340515.9939
346148.2947
351830.5575
357483.7164
363175.3756
368816.7396
374475.2553
380099.0978
385672.0431
391174.4999
396582.4323
401867.925
406988.636
411899.3842
416532.9219
420855.9293
424645.2561
427786.8234
430108.2604
431231.2023
430636.3046
427793.297
421738.9136
411265.3397
395021.9921
374581.7363
378132.7391
471420.413
1272.508382
1145.850331
1128.464398
1111.225211
1094.118572
1076.616456
1059.779067
1043.593973
1027.017567
1010.573733
994.7699045
978.5870844
963.0361199
947.1143343
931.8162531
916.6426126
901.5934175
887.1478617
872.3435569
858.1349983
843.5756004
829.6040551
815.74908
802.0249969
788.4030446
774.8976752
761.5088908
748.6768937
735.5174067
722.907071
710.4056924
698.0132759
685.7298234
673.9729951
661.9037256
650.3665939
638.5113905
627.1680548
615.926319
604.7861858
594.1397921
583.1992459
572.7453194
562.0163558
551.7547776
541.5876934
531.5151057
521.904536
512.0174511
502.5855225
492.8951569
483.641749
474.4759853
465.7450472
456.7512104
448.1962853
439.3742535
430.9738411
422.6544776
414.4161652
406.2690769
398.5138807
390.8333929
382.9126953
375.3945206
367.9411468
360.868079
353.5610267
346.3380858
339.4767331
332.6840118
325.959923
319.3134734
313.0111269
306.4898345
300.3246982
294.2134951
288.1651019
282.1880066
276.265107
270.4050205
264.8777756
259.3994175
253.9783045
248.6224061
243.3156563
238.0661543
233.1272146
185412.0293
184410.0889
184186.0856
184107.599
184163.7914
184352.204
184669.8654
185115.6965
185682.5774
186370.2551
187171.4528
188084.713
189105.0678
190230.8516
191458.4846
192782.5699
194207.5673
195725.6021
197337.5603
199047.0999
200846.0585
202737.7275
204722.0717
206799.2264
208965.4513
211229.6078
213589.3657
216039.9997
218594.1608
221240.3118
223986.702
226833.8781
229792.621
232849.5887
236013.3971
239286.8838
242661.4419
246158.4864
249768.7768
253497.0529
257333.1435
261299.5103
265377.3445
269589.5916
273915.7296
278380.1162
282961.8139
287672.4686
292526.861
297500.9234
302608.7854
307850.2128
313228.5471
318742.0785
324409.183
330197.9979
336126.4138
342191.6679
348396.9334
354742.1098
361225.5594
367848.3449
374608.3011
381506.2574
388541.0936
395711.5903
403016.1119
410452.8015
418021.3499
425742.6329
433564.0978
441508.9788
449571.6285
457747.8911
466069.587
474464.6922
482958.7473
491550.3064
500267.0477
509030.9151
517907.6376
526813.6488
535817.7697
544832.8739
553928.378
563054.3512
572198.3201
581342.7533
590422.1088
599520.0161
608612.4913
617576.0553
626430.3903
635142.0707
643718.6883
651998.0435
660021.233
667588.7548
674711.163
681175.9864
686802.8371
691328.2194
694430.1142
695657.3581
694424.4269
690052.1396
681413.0844
667481.3127
647053.6189
624265.4704
645187.3292
806106.0358
2092.871053
1884.295626
1855.041947
1826.727641
1798.630867
1770.05329
1742.397046
1715.62477
1688.377546
1661.36882
1635.228282
1608.649418
1582.908115
1557.394203
1532.087411
1506.987748
1482.695233
1458.004794
1434.130783
1410.453695
1386.954684
1363.671589
1340.585436
1318.280378
1296.144094
1273.638829
1251.89978
1230.912182
1209.54221
1188.359247
1167.895816
1147.627116
1127.535725
1107.621648
1087.88489
1068.851434
1049.969461
1031.271884
1012.742188
994.380378
976.6892465
958.6585578
941.2893588
924.0788635
907.0270781
890.5990272
873.8602669
857.7514042
841.7923271
825.983039
810.3235436
795.2675307
780.3526367
765.5788659
750.9462206
736.4547042
722.5367587
708.3232342
694.6748651
681.1592157
668.1921435
654.937796
642.223869
629.63451
617.1697219
604.8295069
593.005624
581.298416
569.7078849
558.2340328
546.8768621
536.0088267
524.881138
514.2464112
503.709133
493.6383242
483.3153845
473.4515327
463.689348
454.0288321
444.8092702
435.3484689
426.331929
417.399378
408.5613772
399.817928
391.4873258
383.2444109
275001.6551
273516.7845
273197.553
273098.6115
273200.5583
273497.7663
273985.0706
274659.8252
275512.1043
276539.8084
277735.1882
279094.0283
280612.5333
282280.9508
284104.6749
286070.4648
288180.7912
290433.2845
292824.9787
295355.6373
298019.3688
300825.4209
303763.4369
306845.824
310059.386
313413.0673
316906.9649
320543.839
324325.4467
328252.5555
332320.4411
336547.3279
340918.9607
345446.0699
350140.8149
354988.3664
359997.8572
365176.2742
370523.3321
376041.7584
381737.2057
387609.0785
393648.4101
399883.3333
406289.361
412898.1148
419696.5355
426670.7683
433837.1864
441218.2174
448776.5435
456535.5367
464511.3592
472672.2066
481033.1028
489596.6949
498365.7192
507360.672
516537.7246
525920.4978
535506.3276
545296.7683
555290.8634
565484.7476
575907.3253
586503.7224
597293.4793
608276.1672
619451.1178
630811.6277
642387.4309
654109.0438
666000.997
678097.7811
690315.1022
702684.9968
715243.8597
727894.6965
740714.5736
753606.21
766647.2273
779780.4262
792995.7609
806222.9309
819549.8265
832903.563
846263.3044
859614.2953
872980.0295
886213.4886
899346.3262
912392.2523
925185.4827
937790.2146
950081.4079
961970.3454
973353.8241
984102.1325
994060.3259
1003021.967
1010736.325
1016960.088
1021208.081
1022893.252
1021545.466
1016310.128
1006285.055
990542.7426
968295.8302
946635.219
993132.3578
1238019.181
3117.432899
2806.3597
2763.831129
2720.848429
2679.008863
2636.666895
2595.50734
2554.645731
2514.940267
2474.719811
2435.642303
2396.063043
2357.613537
2319.450387
2282.367066
2244.843841
2208.363733
2172.205786
2136.322713
2100.761428
2065.475428
2031.235968
1997.259892
1963.592557
1930.189009
1897.09383
1864.979486
1833.117424
1801.55119
1770.237643
1739.890648
1709.119688
1679.303116
1649.748785
1620.436298
1592.048552
1563.89152
1536.005376
1508.369977
1480.965831
1454.445647
1428.145845
1402.104783
1376.303225
1351.314006
1325.986033
1301.477989
1277.75548
1253.699158
1230.435702
1207.390023
1184.544696
1161.934712
1140.085742
1118.44407
1096.992924
1075.765996
1055.269003
1034.969092
1014.850134
994.9445269
975.7385527
956.7196992
937.8879693
919.2280124
901.2536462
882.9785143
865.363778
848.3950592
831.130378
814.4878145
798.0278013
781.7357643
766.0569786
750.5369754
735.1757572
719.9733262
705.3569478
690.4675641
676.1421456
662.3939117
648.3770842
634.9154832
621.5950639
608.4158281
595.7704461
583.2578295
570.8779801
382818.5962
380750.102
380315.5983
380192.5833
380350.8245
380781.8762
381474.5907
382422.0349
383621.3411
385054.6615
386722.7452
388617.7057
390726.5384
393049.2509
395579.0746
398313.0588
401245.8236
404375.8417
407693.848
411211.4134
414913.3844
418805.9989
422889.2156
427163.4981
431624.2318
436285.2901
441133.4907
446188.3697
451435.9775
456885.2434
462542.7814
468408.0617
474475.7816
480769.8989
487283.9357
494011.6948
500965.7706
508164.6803
515584.9045
523244.4855
531144.8471
539293.8384
547690.4617
556340.1913
565231.8119
574396.4424
583825.5606
593503.3217
603466.357
613678.9588
624185.081
634945.9398
645980.4143
657318.3724
668913.1057
680784.7459
692965.1171
705401.5253
718121.6432
731121.9369
744401.5053
757992.4792
771834.1172
785953.4786
800347.9456
815010.6891
829980.6786
845176.2885
860634.2956
876345.0704
892346.4018
908547.5275
925022.141
941680.7335
958554.9611
975680.9744
992997.7474
1010446.399
1028116.282
1045933.183
1063834.724
1081905.439
1100071.215
1118309.273
1136600.026
1154974.099
1173280.418
1191546.505
1209796.921
1227855.77
1245813.397
1263541.227
1280970.484
1298020.136
1314594.124
1330577.617
1345832.575
1360288.281
1373651.058
1385581.444
1395972.364
1404370.305
1410331.047
1413435.629
1412885.433
1408169.099
1398305.933
1382716.037
1361178.172
1344011.667
1423890.887
1767872.42
4346.873949
3912.477079
3853.231698
3793.494965
3734.25542
3676.426587
3619.048645
3562.121605
3505.645486
3450.565438
3394.983557
3340.81184
3287.046458
3233.716914
3181.730776
3130.1656
3079.049446
3028.325969
2978.023483
2929.012781
2879.544943
2831.381154
2784.445631
2737.060261
2690.915943
2645.189657
2599.829203
2555.6742
2511.116113
2467.723789
2425.501833
2382.883176
2341.396101
2300.273178
2259.538449
2219.143593
2179.864101
2140.958576
2102.379993
2064.88311
2027.746229
1990.923615
1954.46063
1919.017117
1883.199488
1849.124416
1814.653278
1781.206697
1748.049947
1715.225535
1682.691355
1651.142887
1619.872484
1589.562539
1558.883399
1529.15203
1499.687219
1471.145442
1442.858572
1414.865224
1387.127182
1360.275656
1333.686506
1307.341403
1281.277148
1256.027516
1231.046822
1206.8759
1182.373812
1158.68779
1135.783565
1112.554275
1090.112816
1067.899958
1045.899314
1024.658782
1003.636108
982.8154212
962.7277759
942.8475014
923.1746005
904.1776085
884.9144093
866.3321129
848.415562
830.2079332
812.6707842
795.7746397
508970.1677
506215.5936
505644.8227
505495.2151
505719.4684
506302.4806
507235.427
508506.6534
510102.8799
512017.3906
514232.7947
516750.0895
519551.876
522631.7888
525984.709
529607.5624
533492.1843
537638.5866
542039.0595
546692.4202
551594.7725
556754.2483
562159.0382
567818.8506
573741.1711
579911.3739
586330.5219
593021.818
599979.7238
607197.1727
614685.3097
622450.7119
630500.2181
638833.3151
647459.7899
656381.8804
665590.0382
675119.7311
684944.0235
695100.5633
705562.714
716347.5296
727465.2081
738914.099
750704.3895
762836.8539
775294.4341
788124.5497
801307.085
814825.3246
828723.8584
842961.4387
857588.8282
872557.4264
887920.7493
903625.85
919699.7737
936172.9949
952989.5914
970174.056
987729.2818
1005688.229
1023975.753
1042626.806
1061632.794
1081038.116
1100755.056
1120815.537
1141256.134
1161988.12
1183039.237
1204447.331
1226112.005
1248112.351
1270339.943
1292883.24
1315674.357
1338695.633
1361867.321
1385278.058
1408859.908
1432580.017
1456416.554
1480401.316
1504362.96
1528337.994
1552351.794
1576294.478
1600032.864
1623656.361
1647028.151
1670078.508
1692700.327
1714891.225
1736348.156
1757124.956
1776953.645
1795639.712
1812951.42
1828626.453
1842335.148
1853829.262
1862456.087
1867942.75
1869638.279
1866938.715
1859354.985
1846084.512
1827693.609
1817945.025
1938304.553
2395692.407
5781.789593
5203.194139
5123.268517
5044.061192
4965.470468
4888.621369
4812.371148
4736.719829
4661.632899
4587.179692
4514.40652
4442.214828
4370.604634
4300.631114
4230.175273
4161.338915
4093.06688
4026.380149
3960.240798
3893.644724
3829.604303
3765.076154
3702.105714
3639.666015
3577.757071
3517.333121
3457.423493
3398.028199
3339.176471
3281.731334
3224.784374
3168.335598
3113.282758
3057.822353
3003.741969
2951.017905
2898.760467
2846.969664
2795.645504
2745.631059
2696.094099
2646.981893
2598.320948
2550.923889
2503.96295
2458.23585
2412.954801
2368.069922
2323.606295
2280.332225
2237.488689
2195.781535
2153.719849
2112.804342
2073.036643
2033.623839
1994.589196
1955.95507
1918.381185
1881.171615
1844.348069
1808.551091
1773.10484
1738.030375
1703.949456
1670.205931
1636.820215
1604.395665
1572.315456
1540.539298
1509.732222
1479.216765
1449.032063
1419.74558
1390.776901
1362.681961
1334.30433
1306.788523
1280.153074
1253.773899
1227.687024
1201.85682
1176.870446
1152.129346
1127.667988
1104.00363
1080.573539
1057.934427
653560.6976
650015.8575
649286.2323
649099.8921
649398.2046
650159.8667
651366.7975
653005.6343
655058.7807
657513.9753
660355.714
663577.3101
667165.4821
671110.6911
675399.3616
680031.4579
684998.3148
690297.7418
695926.0257
701873.1461
708141.0495
714731.6564
721647.9468
728887.9753
736443.8921
744336.6458
752552.5931
761101.8831
769991.5668
779214.1928
788795.0628
798734.2805
809017.2408
819668.6984
830691.3525
842091.1059
853874.0306
866049.627
878606.5613
891581.5725
904948.4593
918730.377
932953.275
947582.5595
962642.9615
978139.2603
994052.4132
1010437.03
1027270.184
1044559.78
1062282.124
1080488.77
1099136.122
1118274.058
1137849.604
1157924.98
1178442.458
1199428.112
1220916.809
1242837.094
1265226.776
1288122.651
1311443.974
1335218.609
1359490.473
1384167.899
1409292.038
1434889.812
1460870.16
1487306.495
1514106.331
1541339.238
1568904.62
1596881.583
1625197.524
1653778.541
1682731.306
1711956.803
1741437.018
1771142.753
1801043.061
1831113.145
1861382.447
1891661.305
1922067.799
1952385.062
1982732.469
2012958.496
2043006.48
2072802.049
2102259.599
2131383.177
2159858.132
2187782.735
2214907.319
2241068.217
2266080.947
2289742.212
2311903.149
2332085.718
2350188.327
2365736.892
2378345.085
2387701.063
2393102.539
2394312.608
2390721.287
2381978.722
2368985.489
2369317.642
2536732.97
3121021.771
7421.298553
6676.305547
6573.970656
6472.548874
6371.915048
6273.30355
6174.235851
6077.171085
5982.158495
5886.62058
5793.114414
5700.35644
5608.308767
5518.242746
5428.905398
5340.259755
5252.38008
5166.38565
5081.064575
4996.489299
4913.751378
4831.668714
4750.311943
4669.645644
4590.725729
4512.51206
4436.04176
4360.224664
4285.027687
4210.51731
4137.695154
4065.507992
3993.955829
3924.014898
3854.722919
3786.047972
3718.971261
3652.493848
3587.579451
3522.291856
3458.549803
3396.297783
3334.640123
3273.547095
3213.018711
3153.958562
3095.4461
3038.3682
2981.821286
2925.805372
2871.182578
2817.074342
2763.48067
2711.239327
2659.496366
2609.073614
2559.13332
2509.675492
2460.725208
2413.022403
2366.569091
2320.567171
2275.01665
2229.917534
2186.022063
2142.586235
2100.300355
2058.43584
2016.992694
1976.708709
1936.808722
1898.0164
1859.616441
1821.630423
1784.694618
1748.137063
1711.957765
1676.836206
1642.058118
1608.309918
1574.891981
1541.824848
1509.753275
1477.999276
1447.19478
1416.733649
1386.577662
1357.357387
816679.5919
812239.6444
811327.8463
811101.5365
811480.6575
812438.8597
813951.871
816001.963
818566.3303
821626.4189
825172.325
829186.0003
833645.8566
838559.6916
843896.9255
849654.1503
855832.9593
862421.1326
869410.2646
876807.3496
884606.9597
892804.6785
901398.1002
910393.5101
919793.0225
929599.5399
939808.7113
950448.0433
961494.6421
972969.6709
984879.2009
997229.7323
1010008.594
1023261.063
1036958.892
1051129.048
1065770.401
1080903.324
1096526.622
1112647.507
1129256.543
1146406.911
1164053.04
1182227.168
1200935.472
1220183.767
1239982.647
1260332.158
1281242.291
1302712.006
1324750.566
1347330.052
1370514.953
1394237.754
1418577.998
1443456.235
1468955.825
1494997.032
1521660.952
1548860.901
1576639.199
1605029.079
1633946.365
1663420.404
1693507.34
1724096.523
1755269.073
1786928.065
1819158.39
1851837.554
1885070.424
1918715.568
1952881.828
1987480.448
2022430.85
2057838.67
2093601.894
2129710.306
2166120.612
2202786.669
2239770.134
2276860.88
2314174.661
2351505.529
2388959.065
2426402.162
2463756.825
2500962.406
2537938.717
2574687.36
2610917.644
2646743.361
2681909.309
2716291.009
2749732.956
2782074.921
2813231.688
2842865.229
2870599.2
2896572.31
2920074.074
2940926.809
2958925.595
2973548.567
2984433.206
2991342.533
2993648.889
2991401.888
2985636.102
2998575.27
3219219.903
3944455.098
9263.964857
8332.883896
8205.417169
8077.543869
7953.544236
7829.079341
7707.052539
7585.939631
7465.78544
7346.633314
7229.76436
7113.832014
7000.22486
6887.489755
6775.669408
6664.805111
6556.116806
6448.321673
6341.459965
6236.721552
6132.894574
6029.899473
5929.015215
5829.020274
5729.837179
5632.750384
5536.45525
5441.027334
5347.568383
5254.955431
5163.114883
5073.265753
4985.341124
4897.023327
4810.645674
4725.001617
4641.257163
4558.227145
4477.05671
4396.615318
4316.869736
4237.886711
4160.670595
4085.160298
4010.373326
3936.277094
3863.871743
3792.1072
3721.046061
3651.629179
3582.865764
3515.679822
3449.15935
3383.274096
3318.950982
3255.245091
3193.06559
3131.457262
3071.36866
3011.862063
2952.937476
2895.460654
2838.548622
2783.050157
2728.099518
2673.696707
2620.66537
2568.980628
2517.003251
2467.155169
2417.014462
2368.171389
2320.601854
2273.51488
2226.91047
2181.540089
2136.636602
2092.959181
2049.709853
2006.91201
1965.278889
1924.0821
1884.019978
1844.400995
1805.865179
1767.736162
1730.013949
1693.381387
998416.237
992973.3462
991854.3169
991579.5086
992043.2828
993216.4853
995066.1661
997566.2471
1000698.46
1004433.407
1008745.539
1013633.48
1019067.312
1025041.528
1031529.201
1038540.552
1046053.369
1054063.062
1062559.866
1071556.541
1081033.146
1090997.255
1101444.772
1112379.059
1123811.499
1135731.46
1148150.254
1161064.12
1174501.241
1188444.999
1202932.012
1217939.511
1233490.647
1249576.126
1266244.53
1283458.198
1301254.063
1319661.998
1338644.797
1358214.143
1378422.829
1399251.901
1420689.916
1442800.004
1465532.54
1488913.391
1512961.245
1537682.365
1563075.933
1589153.456
1615912.657
1643329.395
1671474.988
1700318.461
1729823.197
1760065.626
1790967.56
1822616.784
1854920.324
1887961.648
1921655.641
1956041.61
1991154.72
2026897.396
2063362.6
2100435.014
2138220.939
2176575.088
2215607.679
2255191.594
2295420.962
2336156.936
2377497.28
2419361.876
2461711.002
2504536.174
2547781.004
2591419.913
2635412.475
2679801.531
2724371.338
2769257.728
2814213.237
2859362.829
2904564.343
2949733.056
2994806.345
3039792.437
3084418.474
3128771.269
3172514.3
3215787.992
3258454.03
3300119.373
3340872.113
3380274.858
3418393.964
3454903.375
3489694.437
3522227.488
3552542.877
3580209.513
3604909.795
3626500.363
3644398.515
3658602.853
3668884.43
3674779.535
3678171.546
3705862.718
3985392.905
4864904.357
11309.3312
10173.01883
10015.94806
9861.823198
9708.892892
9557.157174
9408.176849
9258.817919
9113.725828
8968.255173
8825.466118
8683.822515
8544.811818
8406.922374
8270.154204
8135.958729
8002.860586
7870.859794
7739.95638
7611.554172
7485.661553
7360.775052
7236.93881
7114.15285
6993.762807
6874.44179
6757.428285
6641.418969
6527.713881
6413.742085
6303.288445
6192.527629
6084.003438
5977.721514
5872.337161
5767.889838
5665.628702
5564.244301
5463.775063
5365.436581
5269.12221
5173.716361
5079.145953
4986.619637
4894.90831
4804.048068
4715.178421
4628.198567
4542.062364
4456.735163
4373.247495
4290.582252
4209.716773
4129.652997
4051.349734
3973.827714
3897.054488
3821.993455
3748.678309
3676.073096
3604.147439
3533.918831
3464.381126
3396.44252
3329.205773
3263.560293
3198.568414
3135.131008
3072.300888
3011.01728
2950.351006
2890.302074
2831.726645
2774.59829
2718.025671
2662.061789
2607.501579
2554.31939
2501.685108
2449.59874
2398.848286
2348.629034
2299.71253
2251.310777
2204.179122
2157.546026
2111.411492
2066.506894
1198837.484
1192285.252
1190932.451
1190598.084
1191152.061
1192557.263
1194772.619
1197766.036
1201510.048
1205977.352
1211138.248
1216974.909
1223467.902
1230598.429
1238359.838
1246725.837
1255689.482
1265253.573
1275399.7
1286131.71
1297446.919
1309333.136
1321800.715
1334856.787
1348493.869
1362726.963
1377547.265
1392968.718
1408998.389
1425655.594
1442920.532
1460823.782
1479380.95
1498590.192
1518473.766
1539036.142
1560265.798
1582222.715
1604872.74
1628241.63
1652346.046
1677162.419
1702766.12
1729105.263
1756244.701
1784134.23
1812817.476
1842293.999
1872569.947
1903658.828
1935565.779
1968295.228
2001842.255
2036176.97
2071390.049
2107425.185
2144255.122
2181958.077
2220439.623
2259800.564
2299938.189
2340884.163
2382695.729
2425244.548
2468652.934
2512770.653
2557724.518
2603364.026
2649796.699
2696939.468
2744709.913
2793209.522
2842354.362
2892099.632
2942425.278
2993293.804
3044651.174
3096482.883
3148817.572
3201426.983
3254423.559
3307606.634
3361059.28
3414650.041
3468287.226
3521908.408
3575525.057
3628852.207
3681968.379
3734702.445
3786899.983
3838599.709
3889365.175
3939348.75
3988216.138
4035828.27
4081975.497
4126604.489
4169217.146
4209871.301
4248363.7
4284095.085
4317148.581
4347158.379
4373833.582
4397161.875
4416553.288
4432590.645
4446575.592
4490964.136
4835229.693
5881951.364
13558.87475
12193.1018
12006.95061
11820.57804
11637.45338
11455.75796
11277.14691
11099.99216
10924.2396
10749.88926
10578.54417
10410.26876
10241.7136
10076.14914
9913.535748
9752.194991
9592.227194
9433.582039
9277.809446
9124.870534
8973.202466
8822.805227
8673.631739
8527.262509
8383.611936
8241.181438
8099.971043
7961.416481
7824.057023
7687.892675
7554.321987
7423.308024
7293.439949
7164.717787
7038.491457
6913.386822
6790.771486
6669.211831
6550.05214
6431.96648
6314.954858
6200.284254
6087.919688
5976.62159
5866.311448
5758.249694
5652.402109
5547.573982
5443.689644
5341.963122
5241.232622
5142.578374
5046.004332
4949.249168
4855.637534
4762.919632
4671.130004
4581.288232
4492.352708
4405.32319
4320.202466
4235.944978
4152.484649
4070.913488
3991.167935
3911.173157
3834.011836
3757.588207
3681.964605
3608.045789
3535.863247
3464.41005
3394.594133
3325.517997
3257.151907
3190.376065
3125.219494
3060.735138
2997.803906
2935.498957
2874.737999
2814.612462
2755.966971
2697.938893
2641.3551
2585.34525
2530.77042
2476.777763
1418000.965
1410229.352
1408618.357
1408212.254
1408859.251
1410512.003
1413122.509
1416647.342
1421055.59
1426314.393
1432388.749
1439250.865
1446895.173
1455277.327
1464397.671
1474233.308
1484782.727
1496018.822
1507944.353
1520562.176
1533854.055
1547829.049
1562481.126
1577825.071
1593850.757
1610569.82
1627995.063
1646111.153
1664947.953
1684514.874
1704822.127
1725873.561
1747673.958
1770246.805
1793604.013
1817757.671
1842727.463
1868493.4
1895098.186
1922572.876
1950892.335
1980049.043
2010118.629
2041083.777
2072930.791
2105715.309
2139397.567
2174018.157
2209566.011
2246075.151
2283532.636
2321952.539
2361338.768