/*--------------------------------*- C++ -*----------------------------------*\
| =========                 |                                                 |
| \\      /  F ield         | OpenFOAM: The Open Source CFD Toolbox           |
|  \\    /   O peration     | Version:  v1706                                 |
|   \\  /    A nd           | Web:      www.OpenFOAM.com                      |
|    \\/     M anipulation  |                                                 |
\*---------------------------------------------------------------------------*/
FoamFile
{
    version     2.0;
    format      ascii;
    class       volScalarField;
    location    "0.003";
    object      StantonNo;
}
// * * * * * * * * * * * * * * * * * * * * * * * * * * * * * * * * * * * * * //

dimensions      [0 0 0 0 0 0 0];


internalField   uniform 0;

boundaryField
{
    inlet
    {
        type            calculated;
        value           uniform 0;
    }
    object
    {
        type            calculated;
        value           nonuniform List<scalar> 
400
(
168480685.3
168521467.1
168539038.9
168550419.8
168559008
168566002.1
168571969.5
168577224.3
168581959.1
168586299.1
168590331.2
168594116.9
168597702.5
168601122.5
168604403.8
168607567.5
168610631.4
168613608.5
168616511.2
168619348.7
168622129.5
168624860.6
168627547.7
168630196.7
168632811.9
168635397.4
168637956.7
168640493.6
168643010.3
168645509.7
168647994.3
168650465.7
168652926.2
168655376.9
168657819.6
168660255.2
168662685.1
168665109.5
168667530.1
168669946.6
168672359.6
168674769.6
168677176.8
168679580.6
168681981.7
168684379.1
168686773
168689162.4
168691547.1
168693926.3
168696298.7
168698664.7
168701022.5
168703368.1
168705707.5
168708030.8
168710342.7
168712638
168714920.4
168717179.8
168719425.4
168721646
168723843.4
168726015.2
168728159
168730275
168732358
168734410.6
168736424.8
168738396.8
168740333.7
168742224
168744068.5
168745866.6
168747612.3
168749303.2
168750938.8
168752510.5
168754023.1
168755470.1
168756846.2
168758153.5
168759382.7
168760535.7
168761605.3
168762589.6
168763483.6
168764286.6
168764994.2
168765599
168766103.8
168766496.6
168766782.8
168766949.1
168766995.2
168766919.6
168766716.8
168766377.7
168765906
168765286.6
168764524.5
168763612.1
168762543.1
168761309.4
168759913.2
168758347.4
168756601.3
168754676.7
168752562.8
168750261
168747758.7
168745050.6
168742140.4
168739010.6
168735656.5
168732079.3
168728270.3
168724221.2
168719927.9
168715381
168710577.6
168705509.8
168700170.6
168694549.5
168688647.1
168682452.9
168675961.6
168669161.2
168662052
168654618
168646861.1
168638768.1
168630332.8
168621547.7
168612405.6
168602899.9
168593023.7
168582765.8
168572118.3
168561081
168549635.4
168537778.9
168525504.4
168512802.5
168499669.7
168486085.2
168472054.9
168457566.1
168442608.7
168427176.7
168411259.6
168394852.5
168377945.7
168360529.1
168342600.2
168324146.7
168305162.2
168285634.1
168265564.1
168244938.2
168223751.8
168201990
168179653.6
168156734.1
168133219.7
168109109.7
168084392.4
168059059.3
168033112.3
168006538
167979329.8
167951476.8
167922988.6
167893849.5
167864054.4
167833601.7
167802481.9
167770692.5
167738233.2
167705096.7
167671278.3
167636771.4
167601586.8
167565712.8
167529152.3
167491901.5
167453963.1
167415338.8
167376026.7
167336040.3
167295378.1
167254054.3
167212081
167169487.5
167126299.6
167082563.1
167038349
166993736
166948818.2
166903876.8
166905316.4
166934597.5
166962516.8
166989887.7
167017381.9
167045410.2
167074194.1
167103873.8
167134525
167166210.7
167198960.9
167232803.9
167267751.6
167303826.5
167341032.7
167379378.6
167418873.7
167459519.9
167501315.9
167544264.8
167588373.4
167633634
167680052.8
167727617.4
167776339.6
167826210.7
167877226.9
167929382.5
167982683.8
168037115.7
168092675.9
168149365.5
168207170.6
168266090.4
168326109.2
168387229.5
168449436.8
168512724.2
168577072.6
168642482.5
168708941.1
168776425.1
168844928.9
168914433.5
168984926.2
169056383.6
169128781
169202112.6
169276346.3
169351458.6
169427430.4
169504218.8
169581795.6
169660127.9
169739188.7
169818927.5
169899313.3
169980294.6
170061824.6
170143856.3
170226313.9
170309162.7
170392307.6
170475695.7
170559246
170642881.1
170726503.1
170809999.9
170893286
170976237.7
171058730.3
171140608.8
171221751.2
171301966.2
171381089.2
171458918.6
171535223.2
171609785.1
171682303.3
171752511.5
171820057.7
171884593.8
171945672.5
172002860.2
172055611.1
172103297.7
172145236.7
172180620.4
172208523.9
172227832.5
172237218.3
172235119.7
172219585.5
172188208.5
172137949.5
172064850.4
171963619.8
171826998.8
171644483.3
171396482.7
170268295.7
168944894.8
167644777.6
166366243.6
165101950.5
163844600.1
162588239
161328381.1
160061895.9
158786715
157501550.2
156205687.6
154898836.2
153580973.1
152252314.6
150913208.6
149564130.5
148205605.6
146838251.6
145462711.3
144079628.6
142689737.6
141293717.4
139892294.2
138486179.5
137076101.3
135662780.9
134246880.1
132829023.3
131409193.3
129972374.5
128524801.3
127091351
125663479.8
124239394
122819158.8
121403272.1
119992330.7
118586924.5
117187622.7
115794968.2
114409476.4
113031644.8
111661959.1
110300882.3
108948854.9
107606282.4
106273553.1
104951044.9
103639114.1
102338085.9
101048289
99770008.91
98503493.88
97249021.03
96006814.52
94777104.14
93560102.87
92356004.15
91164991.12
89987238.18
88822908.29
87672150.59
86535104.51
85411897.39
84302653.33
83207488.43
82126504.86
81059806.85
80007480.95
78969608.9
77946273.37
76937538.07
75943471.43
74964127.92
73999564.87
73049828.78
72114959.49
71194986.77
70289949.48
69399867.72
68524760.96
67664646.29
66819532.17
65989424.27
65174325.26
64374224.2
63589108.36
62818965.42
62063772.58
61323503.07
60598123.07
59887591.74
59191868.47
58510899.96
57844630.3
57192996.46
56555928.48
55933358.13
55326676.85
)
;
    }
    outlet
    {
        type            calculated;
        value           uniform 0;
    }
    front
    {
        type            wedge;
    }
    back
    {
        type            wedge;
    }
}


// ************************************************************************* //
