/*--------------------------------*- C++ -*----------------------------------*\
| =========                 |                                                 |
| \\      /  F ield         | OpenFOAM: The Open Source CFD Toolbox           |
|  \\    /   O peration     | Version:  v1706                                 |
|   \\  /    A nd           | Web:      www.OpenFOAM.com                      |
|    \\/     M anipulation  |                                                 |
\*---------------------------------------------------------------------------*/
FoamFile
{
    version     2.0;
    format      ascii;
    class       volScalarField;
    location    "0.003";
    object      Tt;
}
// * * * * * * * * * * * * * * * * * * * * * * * * * * * * * * * * * * * * * //

dimensions      [0 0 0 1 0 0 0];


internalField   nonuniform List<scalar> 
80000
(
11958.22463
11958.71571
11961.38865
11963.83094
11966.0074
11967.91414
11969.55059
11970.91811
11972.01986
11972.86066
11973.44697
11973.78668
11973.88908
11973.76466
11973.42496
11972.88248
11972.15043
11971.24263
11970.17333
11968.95701
11967.60827
11966.14164
11964.57142
11962.91158
11961.17562
11959.37643
11957.52623
11955.63643
11953.71764
11951.77952
11949.83081
11947.87929
11945.93174
11943.99398
11942.07087
11940.16632
11938.28337
11936.42418
11934.59014
11932.78188
11930.99938
11929.24197
11927.50848
11925.79723
11924.10615
11922.43283
11920.77455
11919.12838
11917.49122
11915.85982
11914.23087
11912.601
11910.96681
11909.32492
11907.67197
11906.00466
11904.31971
11902.61394
11900.8842
11899.12741
11897.34055
11895.52066
11893.6648
11891.7701
11889.83369
11887.85271
11885.82433
11883.7457
11881.61394
11879.42616
11877.17944
11874.8708
11872.49721
11870.0556
11867.54281
11864.95563
11862.29075
11859.54481
11856.71435
11853.79582
11850.78558
11847.67991
11844.475
11841.16693
11837.7517
11834.22522
11830.58332
11826.82173
11822.93615
11818.92218
11814.77542
11810.49144
11806.06585
11801.49436
11796.77281
11791.89731
11786.86437
11781.67112
11776.31557
11770.79704
11765.11686
11759.27932
11753.29326
11747.1746
11740.95046
11734.66535
11728.38557
11722.11516
11714.14131
11670.84676
11287.36259
9438.249825
261.4601719
250.0092948
250.0068634
250.0066858
250.0065116
250.0063402
250.0061714
250.0060053
250.0058418
250.005681
250.0055228
250.0053671
250.0052141
250.0050637
250.0049158
250.0047704
250.0046276
250.0044873
250.0043495
250.0042142
250.0040813
250.003951
250.003823
250.0036975
250.0035744
250.0034537
250.0033353
250.0032194
250.0031057
250.0029944
250.0028855
250.0027788
250.0026744
250.0025723
250.0024724
250.0023748
250.0022794
250.0021862
250.0020952
250.0020064
250.0019198
250.0018353
250.0017529
250.0016726
250.0015945
250.0015184
250.0014444
250.0013725
250.0013026
250.0012347
250.0011688
250.001105
250.0010431
250.0009832
250.0009252
250.0008692
250.0008151
250.0007629
250.0007126
250.0006642
250.0006177
250.000573
250.0005301
250.0004891
250.0004498
250.0004123
250.0003766
250.0003427
250.0003105
250.00028
250.0002512
250.0002241
250.0001987
250.0001749
250.0001527
250.0001322
250.0001132
250.0000958
250.0000799
250.0000656
250.0000527
250.0000413
250.0000314
250.0000228
250.0000156
250.0000098
250.0000053
250.000002
11961.19122
11961.68224
11964.35512
11966.79744
11968.97461
11970.88304
11972.52228
11973.89373
11975.00055
11975.84755
11976.44114
11976.78922
11976.90103
11976.78702
11976.45874
11975.92864
11975.20993
11974.31642
11973.26234
11972.06217
11970.73049
11969.28184
11967.73052
11966.0905
11964.37528
11962.59775
11960.77014
11958.90388
11957.00957
11955.09689
11953.17459
11951.25045
11949.33129
11947.42291
11945.5302
11943.65708
11941.80659
11939.98093
11938.18148
11936.4089
11934.66316
11932.94362
11931.24912
11929.57799
11927.92817
11926.29725
11924.68254
11923.08111
11921.48987
11919.90558
11918.32494
11916.74457
11915.1611
11913.57114
11911.97135
11910.35843
11908.7291
11907.08018
11905.40853
11903.71108
11901.9848
11900.22673
11898.43395
11896.60355
11894.73269
11892.81849
11890.85813
11888.84873
11886.78742
11884.6713
11882.49743
11880.26282
11877.96443
11875.59917
11873.16386
11870.65527
11868.07008
11865.40488
11862.65621
11859.82047
11856.89402
11853.87308
11850.75382
11847.53228
11844.20442
11840.7661
11837.21312
11833.54115
11829.74583
11825.8227
11821.76727
11817.57505
11813.24152
11808.76226
11804.13294
11799.34946
11794.40803
11789.30535
11784.03884
11778.60695
11773.00957
11767.24868
11761.32916
11755.25996
11749.05562
11742.73796
11736.33251
11729.77276
11721.23942
11677.13227
11293.79514
9450.40614
261.484997
250.009018
250.0065894
250.0064195
250.006253
250.0060891
250.0059277
250.005769
250.0056127
250.0054591
250.0053079
250.0051593
250.0050132
250.0048696
250.0047284
250.0045897
250.0044535
250.0043197
250.0041882
250.0040592
250.0039326
250.0038084
250.0036865
250.0035669
250.0034497
250.0033348
250.0032221
250.0031118
250.0030037
250.0028978
250.0027942
250.0026928
250.0025936
250.0024966
250.0024018
250.0023091
250.0022185
250.00213
250.0020437
250.0019594
250.0018772
250.0017971
250.0017189
250.0016428
250.0015687
250.0014966
250.0014264
250.0013582
250.0012919
250.0012275
250.001165
250.0011044
250.0010457
250.0009887
250.0009336
250.0008803
250.0008288
250.000779
250.000731
250.0006847
250.0006401
250.0005972
250.000556
250.0005164
250.0004784
250.0004421
250.0004073
250.0003741
250.0003424
250.0003122
250.0002836
250.0002564
250.0002307
250.0002064
250.0001836
250.0001621
250.000142
250.0001233
250.0001058
250.0000897
250.0000749
250.0000613
250.000049
250.0000379
250.000028
250.0000193
250.0000117
250.0000053
11962.45452
11962.94308
11965.61605
11968.05877
11970.23662
11972.14605
11973.78665
11975.15983
11976.26877
11977.11829
11977.71479
11978.06618
11978.18168
11978.07176
11977.74794
11977.22269
11976.50921
11975.62131
11974.57321
11973.37939
11972.05444
11970.61289
11969.06904
11967.43688
11965.72989
11963.96097
11962.14236
11960.28548
11958.40093
11956.49841
11954.58667
11952.67349
11950.76568
11948.86906
11946.98851
11945.12797
11943.29048
11941.47822
11939.69261
11937.93428
11936.20322
11934.49879
11932.81983
11931.16468
11929.53129
11927.91723
11926.31983
11924.73616
11923.16312
11921.5975
11920.03596
11918.47516
11916.91172
11915.34225
11913.76341
11912.17189
11910.56444
11908.93786
11907.28902
11905.61484
11903.9123
11902.17843
11900.41031
11898.60505
11896.75978
11894.87165
11892.9378
11890.95538
11888.9215
11886.83327
11884.68773
11882.4819
11880.21273
11877.87712
11875.4719
11872.99381
11870.43953
11867.80566
11865.0887
11862.28507
11859.3911
11856.40301
11853.31695
11850.12895
11846.83495
11843.43081
11839.91227
11836.27502
11832.51464
11828.62666
11824.60654
11820.44973
11816.15165
11811.70777
11807.11366
11802.36502
11797.45783
11792.38842
11787.1537
11781.75132
11776.18001
11770.43995
11764.53329
11758.46483
11752.24285
11745.87986
11739.3881
11732.68362
11723.93782
11679.78536
11298.29678
9463.757802
261.5136154
250.00978
250.0073347
250.0071536
250.006976
250.0068011
250.0066289
250.0064593
250.0062923
250.006128
250.0059663
250.0058071
250.0056506
250.0054966
250.0053452
250.0051963
250.00505
250.0049062
250.0047648
250.0046259
250.0044895
250.0043556
250.004224
250.0040949
250.0039682
250.0038438
250.0037218
250.0036022
250.0034849
250.0033699
250.0032572
250.0031467
250.0030386
250.0029326
250.0028289
250.0027274
250.0026281
250.002531
250.002436
250.0023431
250.0022524
250.0021637
250.0020771
250.0019926
250.0019101
250.0018297
250.0017512
250.0016748
250.0016003
250.0015277
250.0014571
250.0013883
250.0013214
250.0012565
250.0011933
250.001132
250.0010724
250.0010147
250.0009587
250.0009045
250.000852
250.0008011
250.000752
250.0007046
250.0006587
250.0006145
250.0005719
250.0005309
250.0004914
250.0004535
250.0004171
250.0003822
250.0003488
250.0003169
250.0002863
250.0002573
250.0002296
250.0002033
250.0001783
250.0001547
250.0001325
250.0001115
250.0000919
250.0000735
250.0000563
250.0000404
250.0000257
250.0000123
11963.31629
11963.80218
11966.47533
11968.91848
11971.09695
11973.00718
11974.64876
11976.02312
11977.13344
11977.98455
11978.58285
11978.93625
11979.05398
11978.94651
11978.62537
11978.10301
11977.39265
11976.50809
11975.46356
11974.27355
11972.95264
11971.51536
11969.97602
11968.3486
11966.6466
11964.88292
11963.06978
11961.21862
11959.34004
11957.44373
11955.53845
11953.63197
11951.73112
11949.8417
11947.96861
11946.11578
11944.28624
11942.4822
11940.70503
11938.95541
11937.23331
11935.5381
11933.8686
11932.22316
11930.59972
11928.99588
11927.40895
11925.83599
11924.27392
11922.71951
11921.16945
11919.62038
11918.06891
11916.51166
11914.9453
11913.36652
11911.77205
11910.1587
11908.52335
11906.8629
11905.17435
11903.45472
11901.70109
11899.91056
11898.08028
11896.20738
11894.28901
11892.32232
11890.30441
11888.2324
11886.10332
11883.91419
11881.66195
11879.34352
11876.9557
11874.49525
11871.95884
11869.34306
11866.64441
11863.85931
11860.98408
11858.01494
11854.94802
11851.77936
11848.50488
11845.12043
11841.62175
11838.00449
11834.26422
11830.39644
11826.39659
11822.26006
11817.98222
11813.55846
11808.98421
11804.25505
11799.36671
11794.31523
11789.09706
11783.70923
11778.14956
11772.41693
11766.51166
11760.43592
11754.19427
11747.79409
11741.24047
11734.44024
11725.56568
11681.52549
11302.25876
9477.328389
261.5434893
250.0111553
250.0086823
250.0084792
250.0082798
250.0080832
250.0078895
250.0076987
250.0075106
250.0073254
250.007143
250.0069633
250.0067863
250.0066121
250.0064407
250.006272
250.0061059
250.0059426
250.0057818
250.0056237
250.0054683
250.0053154
250.0051652
250.0050175
250.0048723
250.0047297
250.0045896
250.0044521
250.004317
250.0041843
250.0040541
250.0039264
250.003801
250.0036781
250.0035574
250.0034392
250.0033232
250.0032096
250.0030983
250.0029892
250.0028824
250.0027778
250.0026754
250.0025752
250.0024772
250.0023814
250.0022876
250.002196
250.0021064
250.0020189
250.0019335
250.0018501
250.0017687
250.0016893
250.0016118
250.0015363
250.0014627
250.001391
250.0013212
250.0012532
250.0011871
250.0011228
250.0010603
250.0009995
250.0009405
250.0008833
250.0008278
250.0007739
250.0007218
250.0006713
250.0006224
250.0005751
250.0005295
250.0004854
250.0004429
250.0004019
250.0003624
250.0003244
250.0002879
250.0002528
250.0002192
250.000187
250.0001563
250.0001269
250.0000988
250.0000721
250.0000468
250.0000227
11964.009
11964.49204
11967.16548
11969.6091
11971.78816
11973.69909
11975.34149
11976.71677
11977.82813
11978.68039
11979.27998
11979.63478
11979.75405
11979.64825
11979.32893
11978.80853
11978.10028
11977.21798
11976.17586
11974.98843
11973.67026
11972.23589
11970.69963
11969.07546
11967.37688
11965.6168
11963.80743
11961.96023
11960.08578
11958.19378
11956.29298
11954.39117
11952.49515
11950.61075
11948.74284
11946.89536
11945.07134
11943.27299
11941.50168
11939.75808
11938.04216
11936.35329
11934.69028
11933.0515
11931.43488
11929.838
11928.25818
11926.6925
11925.13784
11923.591
11922.04865
11920.50743
11918.96396
11917.41487
11915.8568
11914.28644
11912.70054
11911.09591
11909.4694
11907.81794
11906.13851
11904.42815
11902.68392
11900.90293
11899.08231
11897.21922
11895.31079
11893.35416
11891.34647
11889.28479
11887.16618
11884.98765
11882.74616
11880.43859
11878.06177
11875.61245
11873.08731
11870.48292
11867.79579
11865.02234
11862.15888
11859.20164
11856.14673
11852.99018
11849.72794
11846.35581
11842.86955
11839.26478
11835.53707
11831.68188
11827.69462
11823.57064
11819.30526
11814.89379
11810.33156
11805.61399
11800.73664
11795.69526
11790.48593
11785.10514
11779.54998
11773.81831
11767.90902
11761.82227
11755.55983
11749.12508
11742.51741
11735.63618
11726.65701
11682.77705
11305.82552
9490.595241
261.5733715
250.0130713
250.0105611
250.0103266
250.010096
250.0098685
250.0096442
250.009423
250.0092048
250.0089896
250.0087776
250.0085685
250.0083625
250.0081594
250.0079594
250.0077623
250.0075681
250.0073768
250.0071885
250.0070031
250.0068205
250.0066407
250.0064638
250.0062897
250.0061184
250.0059499
250.0057841
250.0056211
250.0054607
250.0053031
250.0051481
250.0049958
250.0048461
250.004699
250.0045546
250.0044127
250.0042733
250.0041365
250.0040021
250.0038703
250.0037409
250.0036139
250.0034894
250.0033673
250.0032475
250.0031302
250.0030151
250.0029023
250.0027919
250.0026837
250.0025778
250.002474
250.0023725
250.0022732
250.002176
250.0020809
250.001988
250.0018971
250.0018084
250.0017217
250.001637
250.0015543
250.0014736
250.0013948
250.001318
250.0012431
250.0011701
250.0010989
250.0010297
250.0009622
250.0008965
250.0008327
250.0007706
250.0007102
250.0006516
250.0005947
250.0005394
250.0004859
250.0004339
250.0003836
250.0003349
250.0002877
250.0002421
250.000198
250.0001555
250.0001144
250.0000748
250.0000367
11964.6154
11965.09548
11967.76932
11970.21345
11972.39311
11974.30469
11975.9478
11977.32387
11978.43606
11979.28923
11979.88979
11980.24564
11980.36603
11980.26144
11979.94341
11979.42441
11978.71765
11977.83696
11976.79656
11975.61095
11974.29473
11972.86244
11971.32838
11969.70655
11968.01043
11966.25295
11964.44632
11962.60198
11960.73053
11958.84167
11956.94415
11955.04574
11953.15324
11951.2725
11949.40837
11947.56479
11945.74479
11943.95057
11942.18351
11940.44426
11938.73279
11937.04848
11935.39013
11933.7561
11932.14431
11930.55237
11928.97757
11927.41698
11925.86751
11924.32593
11922.78893
11921.25312
11919.71515
11918.17161
11916.61917
11915.05451
11913.47438
11911.87557
11910.25496
11908.60945
11906.93604
11905.23175
11903.49365
11901.71886
11899.90449
11898.04771
11896.14564
11894.19544
11892.19423
11890.13909
11888.02708
11885.85521
11883.62044
11881.31965
11878.94967
11876.50725
11873.98907
11871.39171
11868.71168
11865.94538
11863.08914
11860.13918
11857.09161
11853.94246
11850.68766
11847.32303
11843.84429
11840.24707
11836.52691
11832.67925
11828.69948
11824.5829
11820.32477
11815.92032
11811.36479
11806.65346
11801.78168
11796.74496
11791.539
11786.15981
11780.60381
11774.86792
11768.94971
11762.84755
11756.56065
11750.08883
11743.4265
11736.46681
11727.39141
11683.69031
11309.04605
9503.333333
261.6027329
250.0155012
250.012945
250.0126701
250.0123995
250.0121323
250.0118686
250.0116083
250.0113514
250.011098
250.0108479
250.0106011
250.0103577
250.0101177
250.0098809
250.0096475
250.0094173
250.0091903
250.0089666
250.008746
250.0085287
250.0083146
250.0081036
250.0078957
250.0076909
250.0074892
250.0072906
250.007095
250.0069025
250.0067129
250.0065264
250.0063427
250.006162
250.0059843
250.0058094
250.0056374
250.0054682
250.0053018
250.0051382
250.0049775
250.0048194
250.0046641
250.0045115
250.0043616
250.0042143
250.0040696
250.0039276
250.0037882
250.0036513
250.003517
250.0033851
250.0032558
250.0031289
250.0030045
250.0028824
250.0027628
250.0026456
250.0025307
250.0024181
250.0023078
250.0021997
250.002094
250.0019904
250.0018891
250.0017899
250.0016928
250.0015979
250.0015051
250.0014144
250.0013258
250.0012392
250.0011545
250.0010719
250.0009913
250.0009125
250.0008357
250.0007607
250.0006876
250.0006164
250.000547
250.0004794
250.0004135
250.0003494
250.000287
250.0002263
250.0001673
250.0001099
250.0000541
11965.1748
11965.6519
11968.32623
11970.77093
11972.95119
11974.86341
11976.50718
11977.88393
11978.99684
11979.85074
11980.45207
11980.80873
11980.92997
11980.82628
11980.5092
11979.9912
11979.28553
11978.40598
11977.36681
11976.18252
11974.86771
11973.43691
11971.90446
11970.28432
11968.59001
11966.83443
11965.02981
11963.18758
11961.31836
11959.43182
11957.53671
11955.64082
11953.75095
11951.87291
11950.01158
11948.17087
11946.35383
11944.56264
11942.79868
11941.0626
11939.35436
11937.67333
11936.01833
11934.38769
11932.77934
11931.19088
11929.61959
11928.06256
11926.51667
11924.9787
11923.44533
11921.91318
11920.37888
11918.83904
11917.2903
11915.72936
11914.15295
11912.55788
11910.94101
11909.29925
11907.62958
11905.92904
11904.19469
11902.42364
11900.61302
11898.75998
11896.86166
11894.9152
11892.91772
11890.86632
11888.75805
11886.58992
11884.35889
11882.06185
11879.69562
11877.25697
11874.74256
11872.14898
11869.47274
11866.71024
11863.85781
11860.91167
11857.86793
11854.72262
11851.47166
11848.11085
11844.63592
11841.04248
11837.32605
11833.48204
11829.5058
11825.39259
11821.13761
11816.73601
11812.1829
11807.47342
11802.60272
11797.56602
11792.35867
11786.97615
11781.41421
11775.66883
11769.73632
11763.61331
11757.29668
11750.78308
11744.06275
11737.02427
11727.85806
11684.34482
11311.95627
9515.460102
261.6313708
250.018432
250.0158212
250.0154972
250.015178
250.0148626
250.0145511
250.0142434
250.0139396
250.0136396
250.0133433
250.0130509
250.0127622
250.0124772
250.012196
250.0119184
250.0116445
250.0113742
250.0111076
250.0108446
250.0105852
250.0103294
250.0100771
250.0098283
250.009583
250.0093412
250.0091029
250.008868
250.0086364
250.0084083
250.0081835
250.007962
250.0077439
250.007529
250.0073174
250.007109
250.0069039
250.0067019
250.0065031
250.0063074
250.0061148
250.0059253
250.0057388
250.0055554
250.005375
250.0051976
250.005023
250.0048515
250.0046828
250.004517
250.004354
250.0041939
250.0040365
250.0038819
250.00373
250.0035809
250.0034344
250.0032906
250.0031494
250.0030108
250.0028748
250.0027413
250.0026104
250.0024819
250.0023559
250.0022323
250.0021112
250.0019924
250.001876
250.0017619
250.0016501
250.0015405
250.0014333
250.0013282
250.0012253
250.0011246
250.0010261
250.0009296
250.0008352
250.0007429
250.0006526
250.0005643
250.000478
250.0003936
250.0003112
250.0002306
250.0001519
250.0000751
11965.70898
11966.18317
11968.85807
11971.30341
11973.48431
11975.39717
11977.04157
11978.41894
11979.53247
11980.387
11980.98895
11981.34625
11981.46814
11981.36512
11981.04874
11980.53148
11979.82657
11978.94785
11977.90956
11976.72621
11975.4124
11973.98267
11972.45136
11970.83245
11969.13944
11967.38525
11965.58209
11963.74142
11961.87382
11959.98898
11958.09566
11956.20162
11954.31366
11952.4376
11950.57831
11948.7397
11946.9248
11945.1358
11943.37406
11941.64024
11939.93429
11938.25557
11936.60289
11934.97459
11933.36859
11931.78248
11930.21354
11928.65885
11927.11529
11925.57964
11924.04857
11922.51871
11920.98666
11919.44904
11917.9025
11916.34372
11914.76943
11913.17645
11911.56161
11909.92185
11908.25413
11906.55549
11904.82299
11903.05375
11901.24488
11899.39354
11897.49687
11895.55201
11893.55608
11891.50618
11889.39936
11887.23263
11885.00296
11882.70723
11880.34227
11877.90484
11875.39161
11872.79918
11870.12405
11867.36263
11864.51124
11861.56609
11858.52331
11855.3789
11852.12879
11848.76878
11845.29456
11841.70173
11837.9858
11834.14213
11830.16604
11826.05273
11821.79732
11817.39486
11812.84035
11808.12872
11803.25492
11798.21387
11793.00049
11787.60978
11782.03674
11776.27645
11770.32398
11764.17438
11757.82246
11751.26224
11744.48079
11737.36368
11728.11231
11684.79134
11314.58673
9526.95675
261.6592286
250.0218568
250.0191831
250.0188016
250.0184253
250.0180533
250.0176858
250.0173225
250.0169636
250.016609
250.0162587
250.0159126
250.0155708
250.0152332
250.0148998
250.0145706
250.0142456
250.0139246
250.0136078
250.013295
250.0129864
250.0126817
250.0123811
250.0120844
250.0117917
250.011503
250.0112181
250.0109371
250.01066
250.0103867
250.0101173
250.0098515
250.0095896
250.0093314
250.0090769
250.008826
250.0085788
250.0083352
250.0080952
250.0078587
250.0076258
250.0073963
250.0071703
250.0069478
250.0067287
250.006513
250.0063006
250.0060915
250.0058857
250.0056832
250.0054839
250.0052879
250.0050949
250.0049052
250.0047185
250.0045349
250.0043543
250.0041768
250.0040022
250.0038306
250.0036619
250.0034962
250.0033332
250.0031732
250.0030159
250.0028614
250.0027096
250.0025605
250.0024141
250.0022704
250.0021292
250.0019907
250.0018547
250.0017212
250.0015902
250.0014617
250.0013355
250.0012118
250.0010905
250.0009715
250.0008547
250.0007402
250.000628
250.000518
250.0004102
250.0003045
250.0002009
250.0000994
11966.23126
11966.70269
11969.37826
11971.8243
11974.00587
11975.91938
11977.5644
11978.94237
11980.05646
11980.91153
11981.51401
11981.87182
11981.99421
11981.89169
11981.57582
11981.05908
11980.35472
11979.47657
11978.43888
11977.25618
11975.94306
11974.51407
11972.98356
11971.3655
11969.6734
11967.92019
11966.11806
11964.27848
11962.41204
11960.52841
11958.63635
11956.74362
11954.85702
11952.98236
11951.1245
11949.28735
11947.47393
11945.68643
11943.92621
11942.1939
11940.48946
11938.81225
11937.16107
11935.53425
11933.9297
11932.345
11930.77745
11929.22411
11927.68186
11926.14746
11924.61758
11923.08886
11921.55789
11920.02128
11918.47568
11916.91776
11915.34427
11913.75199
11912.13778
11910.49855
11908.83129
11907.133
11905.40078
11903.63171
11901.82292
11899.97156
11898.07478
11896.12972
11894.13349
11892.08319
11889.97588
11887.80857
11885.57822
11883.28173
11880.91592
11878.47755
11875.9633
11873.36976
11870.69344
11867.93074
11865.07798
11862.13137
11859.08703
11855.94097
11852.68909
11849.32718
11845.85092
11842.25588
11838.53753
11834.69122
11830.71218
11826.59556
11822.33637
11817.92957
11813.36999
11808.65238
11803.77142
11798.7217
11793.49775
11788.09399
11782.50475
11776.72421
11770.74633
11764.56476
11758.17261
11751.56188
11744.71735
11737.52294
11728.19243
11685.0649
11316.96276
9537.830897
261.6863112
250.0257717
250.0230269
250.0225794
250.0221377
250.021701
250.0212692
250.0208424
250.0204204
250.0200033
250.0195911
250.0191836
250.018781
250.0183831
250.01799
250.0176016
250.017218
250.016839
250.0164647
250.016095
250.0157299
250.0153694
250.0150134
250.014662
250.0143151
250.0139727
250.0136346
250.013301
250.0129717
250.0126468
250.0123263
250.01201
250.011698
250.0113902
250.0110866
250.0107872
250.0104919
250.0102007
250.0099137
250.0096306
250.0093515
250.0090765
250.0088053
250.0085381
250.0082747
250.0080152
250.0077596
250.0075077
250.0072595
250.007015
250.0067743
250.0065371
250.0063036
250.0060736
250.0058472
250.0056242
250.0054048
250.0051887
250.004976
250.0047668
250.0045608
250.0043582
250.0041587
250.0039625
250.0037695
250.0035797
250.0033929
250.0032093
250.0030286
250.002851
250.0026764
250.0025047
250.0023359
250.0021699
250.0020068
250.0018464
250.0016889
250.001534
250.0013818
250.0012323
250.0010854
250.0009411
250.0007993
250.0006601
250.0005233
250.0003889
250.0002569
250.0001273
11966.75037
11967.21923
11969.89557
11972.34238
11974.52467
11976.43885
11978.0845
11979.46304
11980.57767
11981.43323
11982.03616
11982.39439
11982.51718
11982.41503
11982.09952
11981.58314
11980.87914
11980.00136
11978.96406
11977.78176
11976.46909
11975.04058
11973.51057
11971.89306
11970.20156
11968.44898
11966.64754
11964.80868
11962.94299
11961.06016
11959.16893
11957.27707
11955.39135
11953.5176
11951.66065
11949.82442
11948.01193
11946.22535
11944.46603
11942.7346
11941.03103
11939.35464
11937.70424
11936.07816
11934.47429
11932.89023
11931.32324
11929.77039
11928.22855
11926.69449
11925.16486
11923.6363
11922.10539
11920.56874
11919.02299
11917.46483
11915.89097
11914.2982
11912.68339
11911.04344
11909.37532
11907.67606
11905.94272
11904.1724
11902.36224
11900.50937
11898.61094
11896.66409
11894.66593
11892.61358
11890.50407
11888.33443
11886.10162
11883.80253
11881.43399
11878.99277
11876.47552
11873.87886
11871.19927
11868.43317
11865.57688
11862.62659
11859.57841
11856.42835
11853.17229
11849.806
11846.32514
11842.72526
11839.00176
11835.14996
11831.16502
11827.042
11822.77582
11818.36128
11813.79306
11809.06569
11804.17359
11799.11099
11793.872
11788.45052
11782.84021
11777.03446
11771.02625
11764.80809
11758.37175
11751.70777
11744.79943
11737.52993
11728.12613
11685.19047
11319.10469
9548.09942
261.7126469
250.0301742
250.0273501
250.0268284
250.0263132
250.0258035
250.0252994
250.0248009
250.0243079
250.0238204
250.0233385
250.022862
250.022391
250.0219253
250.021465
250.0210101
250.0205605
250.0201162
250.0196772
250.0192434
250.0188149
250.0183915
250.0179733
250.0175602
250.0171523
250.0167494
250.0163515
250.0159586
250.0155707
250.0151878
250.0148097
250.0144366
250.0140683
250.0137047
250.013346
250.012992
250.0126426
250.012298
250.011958
250.0116225
250.0112915
250.0109651
250.0106433
250.0103258
250.0100128
250.009704
250.0093997
250.0090996
250.0088037
250.0085121
250.0082246
250.0079413
250.0076621
250.0073869
250.0071158
250.0068487
250.0065855
250.0063262
250.0060707
250.0058191
250.0055712
250.0053271
250.0050866
250.0048499
250.0046167
250.0043871
250.0041611
250.0039385
250.0037194
250.0035038
250.0032914
250.0030825
250.0028768
250.0026743
250.0024751
250.002279
250.0020861
250.0018962
250.0017094
250.0015255
250.0013447
250.0011668
250.0009918
250.0008196
250.0006503
250.0004836
250.0003197
250.0001585
11967.27232
11967.73886
11970.41606
11972.86371
11975.04678
11976.96167
11978.60795
11979.98708
11981.10222
11981.95823
11982.56156
11982.92014
11983.04324
11982.94137
11982.62611
11982.10996
11981.40617
11980.5286
11979.49151
11978.30944
11976.99699
11975.56874
11974.03901
11972.4218
11970.73062
11968.97839
11967.17732
11965.33887
11963.47361
11961.59122
11959.70045
11957.80906
11955.92382
11954.05054
11952.19406
11950.35829
11948.54624
11946.76006
11945.00111
11943.27002
11941.56672
11939.89056
11938.24032
11936.61432
11935.01047
11933.42633
11931.85917
11930.30605
11928.76385
11927.22931
11925.6991
11924.16982
11922.63807
11921.10045
11919.5536
11917.99418
11916.41893
11914.82462
11913.20811
11911.56631
11909.89617
11908.19473
11906.45904
11904.68621
11902.87336
11901.01763
11899.11617
11897.16611
11895.16457
11893.10865
11890.99541
11888.82186
11886.58496
11884.2816
11881.90862
11879.46277
11876.94072
11874.33908
11871.65432
11868.88287
11866.02101
11863.06496
11860.01081
11856.85454
11853.59202
11850.21899
11846.7311
11843.12382
11839.39254
11835.5325
11831.53878
11827.40635
11823.13002
11818.70443
11814.12407
11809.38326
11804.47612
11799.39658
11794.1383
11788.69471
11783.05887
11777.22347
11771.18071
11764.92217
11758.43868
11751.71974
11744.74771
11737.40571
11727.93387
11685.18608
11321.02839
9557.780812
261.7382678
250.0350625
250.0321509
250.0315468
250.0309497
250.030359
250.0297746
250.0291964
250.0286246
250.0280589
250.0274995
250.0269463
250.0263992
250.0258582
250.0253232
250.0247944
250.0242715
250.0237547
250.0232438
250.0227389
250.02224
250.0217468
250.0212595
250.020778
250.0203023
250.0198323
250.019368
250.0189094
250.0184564
250.018009
250.0175671
250.0171308
250.0166999
250.0162745
250.0158545
250.0154398
250.0150304
250.0146263
250.0142274
250.0138338
250.0134454
250.013062
250.0126837
250.0123104
250.0119421
250.0115787
250.0112203
250.0108668
250.0105181
250.0101741
250.0098348
250.0095003
250.0091704
250.008845
250.0085243
250.008208
250.0078962
250.0075888
250.0072858
250.0069871
250.0066927
250.0064026
250.0061166
250.0058348
250.005557
250.0052834
250.0050137
250.004748
250.0044862
250.0042282
250.0039741
250.0037237
250.0034771
250.0032342
250.0029949
250.0027591
250.002527
250.0022983
250.002073
250.0018511
250.0016327
250.0014174
250.0012055
250.0009968
250.0007913
250.0005888
250.0003895
250.0001932
11967.80139
11968.26591
11970.94407
11973.39264
11975.57654
11977.49218
11979.13914
11980.51884
11981.63449
11982.49094
11983.09464
11983.45352
11983.57687
11983.4752
11983.16009
11982.64407
11981.94038
11981.06289
11980.02587
11978.84386
11977.53148
11976.10328
11974.57363
11972.9565
11971.26541
11969.51329
11967.71234
11965.87401
11964.00888
11962.12663
11960.236
11958.34473
11956.4596
11954.58642
11952.73001
11950.89428
11949.08222
11947.29599
11945.53694
11943.80567
11942.10214
11940.42565
11938.77501
11937.14851
11935.54405
11933.9592
11932.39122
11930.83716
11929.29388
11927.75813
11926.22656
11924.69578
11923.16237
11921.62294
11920.07411
11918.51254
11916.93496
11915.33814
11913.71894
11912.07425
11910.40104
11908.69633
11906.95717
11905.18066
11903.36392
11901.5041
11899.59833
11897.64375
11895.63748
11893.57662
11891.45821
11889.27928
11887.03677
11884.72759
11882.34857
11879.89645
11877.36791
11874.75953
11872.0678
11869.28913
11866.4198
11863.45601
11860.39383
11857.22923
11853.95804
11850.576
11847.07868
11843.46154
11839.7199
11835.84892
11831.8436
11827.69881
11823.40922
11818.96932
11814.37341
11809.61559
11804.6897
11799.58935
11794.30782
11788.8381
11783.17274
11777.30386
11771.22302
11764.92114
11758.38835
11751.61348
11744.57835
11737.16643
11727.63086
11685.06489
11322.74617
9566.892324
261.763206
250.040435
250.0374281
250.0367332
250.0360462
250.0353664
250.0346937
250.034028
250.0333694
250.0327178
250.0320732
250.0314356
250.0308049
250.0301811
250.0295642
250.028954
250.0283507
250.0277541
250.0271643
250.0265812
250.0260047
250.0254348
250.0248715
250.0243148
250.0237646
250.0232209
250.0226835
250.0221526
250.0216279
250.0211096
250.0205976
250.0200919
250.0195923
250.0190987
250.0186114
250.01813
250.0176547
250.0171853
250.0167218
250.0162642
250.0158124
250.0153664
250.0149262
250.0144916
250.0140626
250.0136393
250.0132215
250.0128091
250.0124021
250.0120006
250.0116044
250.0112136
250.0108279
250.0104475
250.0100722
250.0097019
250.0093367
250.0089765
250.0086213
250.0082709
250.0079254
250.0075846
250.0072485
250.0069172
250.0065904
250.0062682
250.0059506
250.0056374
250.0053287
250.0050243
250.0047242
250.0044284
250.0041368
250.0038493
250.0035659
250.0032866
250.0030113
250.0027399
250.0024724
250.0022088
250.0019489
250.0016927
250.0014403
250.0011915
250.0009462
250.0007045
250.0004662
250.0002314
11968.34076
11968.8036
11971.48282
11973.93238
11976.11718
11978.03362
11979.68128
11981.06159
11982.17775
11983.03463
11983.63867
11983.99782
11984.12137
11984.01984
11983.70483
11983.18885
11982.48517
11981.60765
11980.57058
11979.38849
11978.07603
11976.64774
11975.11798
11973.50075
11971.80955
11970.05731
11968.25625
11966.4178
11964.55254
11962.67015
11960.77935
11958.88789
11957.00255
11955.12912
11953.27242
11951.43634
11949.62388
11947.83718
11946.07758
11944.34569
11942.64143
11940.96413
11939.31256
11937.68502
11936.0794
11934.49326
11932.92385
11931.36821
11929.8232
11928.28556