/*--------------------------------*- C++ -*----------------------------------*\
| =========                 |                                                 |
| \\      /  F ield         | OpenFOAM: The Open Source CFD Toolbox           |
|  \\    /   O peration     | Version:  v1706                                 |
|   \\  /    A nd           | Web:      www.OpenFOAM.com                      |
|    \\/     M anipulation  |                                                 |
\*---------------------------------------------------------------------------*/
FoamFile
{
    version     2.0;
    format      ascii;
    class       volVectorField;
    location    "0.003";
    object      U;
}
// * * * * * * * * * * * * * * * * * * * * * * * * * * * * * * * * * * * * * //

dimensions      [0 1 -1 0 0 0 0];


internalField   nonuniform List<vector> 
80000
(
(3.299311163 2.6807356 -0.06256222225)
(4.74426272 2.680306952 -0.06299128164)
(7.659248241 2.678244166 -0.06382605615)
(10.61358815 2.676872439 -0.06505169227)
(13.57979026 2.676613302 -0.06665054939)
(16.55794059 2.677576763 -0.06860317407)
(19.54940176 2.679764229 -0.07088893486)
(22.55557075 2.683140322 -0.07348630231)
(25.57781398 2.687660135 -0.07637321864)
(28.61746349 2.693278688 -0.07952777073)
(31.67581929 2.699954648 -0.08292758943)
(34.75415288 2.707650852 -0.08655047515)
(37.85371133 2.716334517 -0.09037433091)
(40.97572123 2.725976921 -0.09437738906)
(44.12139239 2.736552565 -0.09853860206)
(47.2919216 2.748040078 -0.1028369285)
(50.48849631 2.760421285 -0.10725172)
(53.71229789 2.773681081 -0.1117629502)
(56.96450491 2.787806873 -0.1163507952)
(60.24629639 2.802789241 -0.1209966104)
(63.55885469 2.818621241 -0.1256818645)
(66.90336856 2.83529855 -0.1303884793)
(70.28103578 2.852818261 -0.1350990864)
(73.69306573 2.871180364 -0.139796483)
(77.14068176 2.89038578 -0.1444652139)
(80.62512349 2.910437921 -0.1490892734)
(84.14764911 2.93134191 -0.1536535695)
(87.70953744 2.953103386 -0.1581432658)
(91.31208971 2.97573022 -0.1625443477)
(94.95663128 2.999230372 -0.166844278)
(98.64451349 3.023613856 -0.1710303114)
(102.3771151 3.048891441 -0.1750901021)
(106.1558433 3.075073407 -0.1790121472)
(109.9821353 3.102172183 -0.1827851241)
(113.8574591 3.130199248 -0.186399738)
(117.7833148 3.159167873 -0.1898463902)
(121.7612354 3.18909009 -0.193115866)
(125.7927871 3.219979038 -0.1962000599)
(129.8795697 3.251846836 -0.1990909438)
(134.0232178 3.284707273 -0.201783045)
(138.2254013 3.318572625 -0.2042694188)
(142.4878253 3.3534544 -0.206544577)
(146.8122302 3.38936558 -0.2086032963)
(151.2003921 3.42631718 -0.2104412868)
(155.6541236 3.464321593 -0.2120561336)
(160.1752728 3.503388439 -0.2134446072)
(164.765724 3.543529437 -0.2146039974)
(169.4273978 3.58475367 -0.2155326982)
(174.1622508 3.627070232 -0.2162311022)
(178.9722762 3.670489476 -0.216698592)
(183.8595038 3.715018552 -0.2169346774)
(188.8259995 3.760666736 -0.2169402406)
(193.8738656 3.80744014 -0.2167159435)
(199.0052403 3.855345125 -0.2162658399)
(204.222299 3.90438962 -0.2155914283)
(209.5272541 3.954577898 -0.2146955697)
(214.9223547 4.00591673 -0.213581194)
(220.4098871 4.05840935 -0.2122522069)
(225.9921736 4.112058779 -0.210714549)
(231.6715739 4.166869274 -0.2089724193)
(237.4504844 4.222842447 -0.2070302123)
(243.3313385 4.279978542 -0.2048935016)
(249.3166064 4.33827973 -0.2025668546)
(255.4087945 4.397743359 -0.2000578996)
(261.6104455 4.458369659 -0.1973723469)
(267.9241378 4.52015434 -0.1945160253)
(274.3524853 4.583092765 -0.1914959988)
(280.8981372 4.64718087 -0.1883182067)
(287.5637767 4.712410885 -0.1849925035)
(294.3521208 4.778773386 -0.1815242929)
(301.265919 4.84625994 -0.1779207941)
(308.3079538 4.914857823 -0.1741881734)
(315.481039 4.984555433 -0.1703370335)
(322.7880193 5.055337055 -0.1663732333)
(330.2317689 5.127184563 -0.1623041599)
(337.8151914 5.200082249 -0.1581365898)
(345.5412193 5.274008115 -0.1538781575)
(353.4128116 5.348942247 -0.1495388609)
(361.4329546 5.424860436 -0.1451254034)
(369.6046604 5.501736016 -0.1406442363)
(377.9309664 5.579544872 -0.1361031387)
(386.4149344 5.658256403 -0.1315081035)
(395.0596485 5.737841762 -0.1268702177)
(403.8682146 5.818267269 -0.122194456)
(412.8437585 5.899500995 -0.117488324)
(421.9894225 5.981504339 -0.1127580803)
(431.3083604 6.064235064 -0.1080108509)
(440.8037334 6.147652827 -0.1032565449)
(450.4787036 6.231707905 -0.09850135444)
(460.3364237 6.316349643 -0.09375136896)
(470.3800229 6.401515859 -0.08901400735)
(480.6125903 6.487141252 -0.08429398222)
(491.0371473 6.57314281 -0.07960090979)
(501.6566146 6.659428878 -0.07494124337)
(512.4737684 6.745889599 -0.07032072675)
(523.491174 6.832385771 -0.06574659199)
(534.7111004 6.918752662 -0.06122354657)
(546.1353974 7.004777248 -0.05676410306)
(557.7653245 7.090193952 -0.05237302254)
(569.6013068 7.17465694 -0.04805798291)
(581.6425724 7.257686784 -0.04382466735)
(593.8865981 7.338589291 -0.03968007234)
(606.3282238 7.416228378 -0.03563594329)
(618.9581586 7.488528876 -0.03169958159)
(631.7603205 7.551242677 -0.02787735283)
(644.7070335 7.594997782 -0.02417721429)
(657.7533954 7.598310522 -0.02060454773)
(670.88812 7.511346418 -0.01717092853)
(685.2652224 7.218592728 -0.01388062162)
(722.7624979 6.45179428 -0.01073544387)
(976.9367153 4.685934838 -0.007737550909)
(2091.16481 1.794429175 -0.004611372231)
(5406.743159 -0.005858851438 -0.0001958539108)
(5409.975294 -0.004770898203 -0.0001887179858)
(5409.998822 -0.004702355609 -0.0001847380679)
(5409.998875 -0.004613151719 -0.0001807938226)
(5409.998905 -0.004524843375 -0.0001768854812)
(5409.998934 -0.004437449421 -0.0001730696738)
(5409.998962 -0.004350964191 -0.000169290645)
(5409.99899 -0.004265384264 -0.0001655490396)
(5409.999018 -0.00418070629 -0.0001618428754)
(5409.999045 -0.004096926568 -0.0001581727553)
(5409.999071 -0.004014041453 -0.0001545944541)
(5409.999097 -0.003932047026 -0.0001510531419)
(5409.999123 -0.003850939136 -0.0001475468201)
(5409.999148 -0.003770713348 -0.00014407608)
(5409.999173 -0.00369136504 -0.0001406387942)
(5409.999198 -0.003612892725 -0.0001372354172)
(5409.999222 -0.003535235094 -0.000133923305)
(5409.999245 -0.003458440849 -0.0001306460467)
(5409.999268 -0.003382508064 -0.0001274042269)
(5409.999291 -0.003307431523 -0.0001241957949)
(5409.999313 -0.003233205675 -0.0001210211977)
(5409.999335 -0.003159772006 -0.0001179341179)
(5409.999357 -0.00308718127 -0.0001148816175)
(5409.999378 -0.003015427685 -0.000111864255)
(5409.999398 -0.002944508022 -0.0001088799564)
(5409.999419 -0.002874364403 -0.0001059292299)
(5409.999439 -0.002805042904 -0.0001030099486)
(5409.999458 -0.002736485363 -0.0001001771988)
(5409.999477 -0.002668740326 -9.737924567e-05)
(5409.999496 -0.002601804271 -9.461409855e-05)
(5409.999514 -0.002535619423 -9.188225661e-05)
(5409.999532 -0.002470233371 -8.918160269e-05)
(5409.999549 -0.00240558849 -8.651257438e-05)
(5409.999566 -0.002341735017 -8.392917191e-05)
(5409.999583 -0.002278615902 -8.137822148e-05)
(5409.9996 -0.00221622462 -7.886029223e-05)
(5409.999616 -0.002154610933 -7.637328945e-05)
(5409.999631 -0.002093718222 -7.391764697e-05)
(5409.999646 -0.002033595968 -7.154636228e-05)
(5409.999661 -0.001974188108 -6.920726337e-05)
(5409.999676 -0.001915491617 -6.690092901e-05)
(5409.99969 -0.001857500383 -6.462527748e-05)
(5409.999704 -0.001800263088 -6.238075293e-05)
(5409.999717 -0.001743727837 -6.016789752e-05)
(5409.99973 -0.001687892318 -5.798460753e-05)
(5409.999743 -0.001632754199 -5.588237498e-05)
(5409.999755 -0.001578311462 -5.381033546e-05)
(5409.999768 -0.001524562448 -5.176891537e-05)
(5409.999779 -0.001471505703 -4.975864654e-05)
(5409.999791 -0.001419139952 -4.777742226e-05)
(5409.999802 -0.001367467645 -4.582562967e-05)
(5409.999812 -0.001316488561 -4.395357641e-05)
(5409.999823 -0.001266203008 -4.211175213e-05)
(5409.999833 -0.001216614686 -4.030068646e-05)
(5409.999843 -0.001167724872 -3.852093934e-05)
(5409.999852 -0.00111953851 -3.677054689e-05)
(5409.999861 -0.001072061241 -3.504993861e-05)
(5409.99987 -0.001025251117 -3.340555714e-05)
(5409.999878 -0.000979158103 -3.179164276e-05)
(5409.999887 -0.0009337902186 -3.020876614e-05)
(5409.999895 -0.000889156022 -2.865499255e-05)
(5409.999902 -0.0008452174571 -2.713076144e-05)
(5409.999909 -0.0008020303601 -2.563662155e-05)
(5409.999916 -0.0007596062028 -2.417053656e-05)
(5409.999923 -0.0007179138759 -2.27799276e-05)
(5409.999929 -0.0006770118803 -2.142066451e-05)
(5409.999935 -0.0006368689202 -2.00908843e-05)
(5409.999941 -0.0005975486254 -1.879116208e-05)
(5409.999947 -0.0005590225348 -1.752209437e-05)
(5409.999952 -0.0005213562824 -1.62818355e-05)
(5409.999957 -0.0004845279795 -1.507087097e-05)
(5409.999961 -0.0004485572578 -1.393526887e-05)
(5409.999966 -0.0004135136801 -1.282996579e-05)
(5409.99997 -0.0003793799345 -1.175560795e-05)
(5409.999974 -0.0003461834515 -1.071288941e-05)
(5409.999977 -0.0003139976764 -9.700097153e-06)
(5409.99998 -0.000282810839 -8.717807656e-06)
(5409.999983 -0.0002526547532 -7.766716105e-06)
(5409.999986 -0.0002235628857 -6.847562217e-06)
(5409.999989 -0.0001955698602 -6.002422439e-06)
(5409.999991 -0.0001687148258 -5.190518042e-06)
(5409.999993 -0.0001430784335 -4.412801937e-06)
(5409.999995 -0.0001186614269 -3.667805601e-06)
(5409.999996 -9.550382068e-05 -2.956425244e-06)
(5409.999997 -7.364910355e-05 -2.279608094e-06)
(5409.999998 -5.314153854e-05 -1.635983957e-06)
(5409.999999 -3.398099474e-05 -1.026447627e-06)
(5410 -1.625199505e-05 -4.939778275e-07)
(3.310072689 4.394369409 -0.06301277666)
(4.755348606 4.393696056 -0.06344925258)
(7.671611213 4.390218881 -0.06429822129)
(10.62768615 4.388217979 -0.06554350022)
(13.59598781 4.38803458 -0.067166617)
(16.57648379 4.389767216 -0.06914740266)
(19.57043755 4.393422654 -0.07146480286)
(22.57917542 4.398965679 -0.07409679756)
(25.60401685 4.406343177 -0.0770209538)
(28.64626389 4.415497003 -0.08021497814)
(31.70719772 4.42636942 -0.08365614044)
(34.78807841 4.438905837 -0.08732213969)
(37.89014637 4.453056573 -0.09119052102)
(41.01462463 4.468777103 -0.09523964391)
(44.16272154 4.486027707 -0.09944774032)
(47.33563391 4.504774424 -0.1037938763)
(50.53455002 4.524987827 -0.1082570657)
(53.76065271 4.54664328 -0.1128175207)
(57.01512255 4.56972121 -0.1174552994)
(60.29914069 4.594205962 -0.1221508987)
(63.61389179 4.620085742 -0.1268861953)
(66.96056689 4.647353458 -0.1316427993)
(70.34036597 4.676004806 -0.1364036985)
(73.75450054 4.706038937 -0.1411513364)
(77.20419601 4.737458005 -0.1458699793)
(80.69069391 4.77026692 -0.1505433824)
(84.21525403 4.804473274 -0.1551569128)
(87.77915668 4.840087084 -0.1596952021)
(91.38370428 4.877120138 -0.1641449047)
(95.03022321 4.91558626 -0.1684922412)
(98.72006561 4.95550104 -0.1727252003)
(102.4546106 4.996881223 -0.1768310179)
(106.2352657 5.039744515 -0.1807986875)
(110.0634679 5.084110048 -0.1846168512)
(113.940685 5.129997384 -0.1882749946)
(117.8684164 5.177427117 -0.1917644721)
(121.8481944 5.22642004 -0.1950754298)
(125.881584 5.276995689 -0.1982005491)
(129.9701838 5.329175187 -0.2011315305)
(134.115627 5.382979528 -0.2038625362)
(138.3195817 5.438429852 -0.2063860848)
(142.583751 5.495544937 -0.2086975534)
(146.9098734 5.554344682 -0.210791183)
(151.2997227 5.614848444 -0.2126638581)
(155.755109 5.677075178 -0.2143112323)
(160.2778777 5.74104132 -0.2157310741)
(164.8699104 5.806764858 -0.2169201699)
(169.5331246 5.874260815 -0.2178783239)
(174.269474 5.943545212 -0.2186038068)
(179.0809487 6.014633549 -0.2190973977)
(183.9695747 6.087538078 -0.2193576132)
(188.9374146 6.162272806 -0.2193865025)
(193.9865664 6.238847807 -0.2191843518)
(199.1191648 6.317274838 -0.2187547245)
(204.337381 6.397565045 -0.2180987436)
(209.6434226 6.479726197 -0.2172201778)
(215.039534 6.563767797 -0.2161212475)
(220.527996 6.649695354 -0.2148076687)
(226.1111261 6.737515406 -0.2132826922)
(231.7912776 6.827231322 -0.2115519541)
(237.5708409 6.918847683 -0.2096190601)
(243.4522427 7.012364833 -0.2074911759)
(249.437946 7.107784561 -0.2051728514)
(255.5304494 7.205103181 -0.202669194)
(261.7322874 7.304319105 -0.1999876004)
(268.0460293 7.405425366 -0.1971330164)
(274.4742799 7.508416263 -0.1941141839)
(281.0196778 7.613280595 -0.1909366021)
(287.6848954 7.72000727 -0.1876094483)
(294.4726379 7.828582363 -0.1841372383)
(301.3856423 7.938987346 -0.1805291473)
(308.4266774 8.051204425 -0.1767907934)
(315.5985425 8.165209449 -0.1729320515)
(322.9040663 8.280979014 -0.1689582713)
(330.3461063 8.398482704 -0.1648782262)
(337.927548 8.517691362 -0.1606976375)
(345.6513033 8.638571147 -0.1564267243)
(353.5203093 8.761083166 -0.1520715949)
(361.5375279 8.88518944 -0.1476411208)
(369.7059448 9.010844627 -0.1431405388)
(378.0285677 9.13800396 -0.1385797709)
(386.5084246 9.266618397 -0.1339640708)
(395.1485615 9.396632054 -0.1293036137)
(403.9520412 9.527989442 -0.124602187)
(412.9219394 9.660629266 -0.1198696559)
(422.0613402 9.794485012 -0.1151108721)
(431.3733302 9.929479518 -0.1103359097)
(440.8609918 10.06553321 -0.1055497271)
(450.5273932 10.20255589 -0.1007612123)
(460.3755748 10.34044462 -0.09597530524)
(470.4085299 10.47908077 -0.09120223412)
(480.6291825 10.61832752 -0.08644649522)
(491.0403523 10.7580159 -0.08171251806)
(501.6447096 10.89794664 -0.07701070715)
(512.444715 11.03787283 -0.07234521184)
(523.4425331 11.17748082 -0.06772597768)
(534.6399142 11.31636731 -0.06315574626)
(546.038027 11.45399833 -0.05864593899)
(557.6372161 11.58964802 -0.05420062684)
(569.43665 11.72230778 -0.04983043579)
(581.4337949 11.85050553 -0.04553897745)
(593.6236058 11.97201719 -0.04133603126)
(605.9972649 12.08332586 -0.03722703487)
(618.5401702 12.17861369 -0.03322383604)
(631.2286992 12.24785196 -0.02933095163)
(644.0251784 12.27312086 -0.0255589379)
(656.8736767 12.22162016 -0.02191321652)
(669.7572376 12.03245802 -0.01840065075)
(683.8443005 11.5907042 -0.0150331443)
(720.9950547 10.64941686 -0.01181596989)
(974.1973372 8.58632774 -0.008762944365)
(2085.145416 4.762486674 -0.005519566829)
(5406.734986 -0.006244568621 -0.0002530166242)
(5409.975241 -0.007689210726 -0.0002442453333)
(5409.998813 -0.007603892868 -0.0002393933207)
(5409.998867 -0.007458919513 -0.0002345716483)
(5409.998896 -0.007315379626 -0.0002298374201)
(5409.998925 -0.007173387194 -0.0002251344827)
(5409.998954 -0.007032882067 -0.0002204605148)
(5409.998982 -0.006893860163 -0.0002158724221)
(5409.99901 -0.006756317333 -0.0002113127484)
(5409.999037 -0.006620248866 -0.0002068397171)
(5409.999064 -0.006485649745 -0.0002023963185)
(5409.99909 -0.006352518066 -0.0001980378413)
(5409.999116 -0.006220848328 -0.0001937074841)
(5409.999142 -0.006090635645 -0.0001894627671)
(5409.999167 -0.005961820161 -0.0001852473878)
(5409.999191 -0.005834450857 -0.0001810599057)
(5409.999215 -0.005708524303 -0.0001769572954)
(5409.999239 -0.005583981365 -0.0001728827798)
(5409.999262 -0.005460870721 -0.0001688912817)
(5409.999285 -0.005339188708 -0.0001649289931)
(5409.999308 -0.005218875429 -0.000161050579)
(5409.99933 -0.005099924553 -0.0001572010125)
(5409.999351 -0.004982386517 -0.0001533796069)
(5409.999372 -0.004866204086 -0.0001496404024)
(5409.999393 -0.004751370325 -0.0001459288491)
(5409.999414 -0.004637934063 -0.0001422985867)
(5409.999434 -0.004525839177 -0.0001386971027)
(5409.999453 -0.004415078951 -0.0001351229971)
(5409.999472 -0.0043056497 -0.0001316282833)
(5409.999491 -0.004197547023 -0.0001281609279)
(5409.999509 -0.004090766387 -0.0001247735734)
(5409.999527 -0.003985303782 -0.0001214129666)
(5409.999545 -0.003881101463 -0.000118079299)
(5409.999562 -0.00377820695 -0.0001148246306)
(5409.999579 -0.00367661572 -0.0001115953166)
(5409.999595 -0.003576272852 -0.0001084445702)
(5409.999611 -0.003477225769 -0.0001053201812)
(5409.999627 -0.003379419254 -0.0001022223502)
(5409.999642 -0.003282900381 -9.920214117e-05)
(5409.999657 -0.00318761441 -9.620689542e-05)
(5409.999672 -0.003093610028 -9.328881362e-05)
(5409.999686 -0.003000834464 -9.03966719e-05)
(5409.9997 -0.002909284277 -8.7528964e-05)
(5409.999713 -0.002818956005 -8.473728601e-05)
(5409.999727 -0.002729846283 -8.197101542e-05)
(5409.999739 -0.002641954921 -7.928146156e-05)
(5409.999752 -0.002555279064 -7.661752988e-05)
(5409.999764 -0.00246981859 -7.397774666e-05)
(5409.999776 -0.002385573758 -7.14126582e-05)
(5409.999787 -0.002302492218 -6.887268906e-05)
(5409.999798 -0.002220622576 -6.635639181e-05)
(5409.999809 -0.002139965243 -6.391367169e-05)
(5409.999819 -0.002060473942 -6.149462673e-05)
(5409.999829 -0.001982197374 -5.909933423e-05)
(5409.999839 -0.001905088188 -5.677542829e-05)
(5409.999848 -0.001829148426 -5.447612945e-05)
(5409.999858 -0.001754378164 -5.224877235e-05)
(5409.999866 -0.001680828397 -5.004547934e-05)
(5409.999875 -0.001608456383 -4.786544091e-05)
(5409.999883 -0.001537265531 -4.575522517e-05)
(5409.999891 -0.001467259937 -4.366911277e-05)
(5409.999898 -0.001398443233 -4.160568429e-05)
(5409.999906 -0.001330820579 -3.961251376e-05)
(5409.999913 -0.001264349425 -3.764300371e-05)
(5409.999919 -0.001199081509 -3.569572821e-05)
(5409.999926 -0.001135023109 -3.381663262e-05)
(5409.999932 -0.001072134848 -3.19596633e-05)
(5409.999937 -0.001010469569 -3.012488307e-05)
(5409.999943 -0.0009499892859 -2.835691449e-05)
(5409.999948 -0.0008907008571 -2.661192708e-05)
(5409.999953 -0.0008326565026 -2.488854272e-05)
(5409.999958 -0.0007758197001 -2.323229137e-05)
(5409.999962 -0.0007202001758 -2.159757636e-05)
(5409.999966 -0.0006658040117 -1.998446973e-05)
(5409.99997 -0.0006126407191 -1.843633016e-05)
(5409.999974 -0.0005607172674 -1.691059309e-05)
(5409.999977 -0.0005100418209 -1.54058798e-05)
(5409.99998 -0.0004606223333 -1.392226015e-05)
(5409.999983 -0.0004124669444 -1.250216976e-05)
(5409.999986 -0.0003655391924 -1.110389294e-05)
(5409.999988 -0.0003198889836 -9.725122316e-06)
(5409.999991 -0.0002754790865 -8.409054951e-06)
(5409.999993 -0.0002323541797 -7.113053055e-06)
(5409.999994 -0.0001904770694 -5.83714215e-06)
(5409.999996 -0.0001498495281 -4.622369382e-06)
(5409.999997 -0.0001105140919 -3.428227377e-06)
(5409.999998 -7.242934637e-05 -2.253275654e-06)
(5409.999999 -3.559270389e-05 -1.097443854e-06)
(3.330844693 6.811367724 -0.0635466213)
(4.77731949 6.810358868 -0.06399434698)
(7.696054956 6.805190428 -0.06486477561)
(10.65482377 6.802467841 -0.06613988294)
(13.62603918 6.802527935 -0.06779962638)
(16.60964148 6.805464358 -0.06982282561)
(19.60685009 6.811286207 -0.07218748421)
(22.61894621 6.819955605 -0.07487078347)
(25.64721008 6.831410187 -0.07784983477)
(28.69291217 6.84557639 -0.0811016643)
(31.75730931 6.862377349 -0.08460335408)
(34.84164351 6.881738606 -0.08833180965)
(37.94714197 6.903589654 -0.09226453999)
(41.07501841 6.927866382 -0.09637942637)
(44.22647475 6.954511056 -0.1006547822)
(47.40270354 6.983472952 -0.1050688434)
(50.60489056 7.014708769 -0.1096008227)
(53.83421733 7.04818179 -0.1142304871)
(57.09186398 7.083861946 -0.1189380958)
(60.37901186 7.12172565 -0.1237037488)
(63.6968464 7.161755499 -0.1285089486)
(67.04655958 7.203939755 -0.1333357539)
(70.4293525 7.248272152 -0.1381668169)
(73.84643781 7.294751331 -0.1429844067)
(77.29904207 7.343380721 -0.1477723525)
(80.78840784 7.394167227 -0.1525149057)
(84.31579592 7.447122688 -0.1571971277)
(87.88248734 7.502262449 -0.1618034976)
(91.48978496 7.559603922 -0.1663202861)
(95.13901551 7.619168593 -0.1707342069)
(98.83153112 7.680980474 -0.1750326976)
(102.5687105 7.745064708 -0.17920384)
(106.3519605 7.81144834 -0.1832351608)
(110.1827174 7.880161013 -0.1871159554)
(114.0624475 7.951232086 -0.190836145)
(117.9926488 8.024693553 -0.1943865839)
(121.9748514 8.100576629 -0.197757445)
(126.0106181 8.178912589 -0.2009409922)
(130.1015451 8.259733335 -0.2039297996)
(134.2492628 8.343070152 -0.2067174395)
(138.4554362 8.428955984 -0.2092962717)
(142.7217648 8.517420921 -0.2116611844)
(147.0499836 8.608494734 -0.2138074158)
(151.4418624 8.702206932 -0.2157310654)
(155.8992068 8.798585817 -0.2174289365)
(160.4238579 8.897658278 -0.218896722)
(165.0176922 8.999450481 -0.220132561)
(169.6826224 9.103987358 -0.2211356838)
(174.4205969 9.211292633 -0.2219052841)
(179.2335998 9.321388796 -0.2224415372)
(184.1236513 9.434296778 -0.2227427861)
(189.0928073 9.550036588 -0.2228104674)
(194.1431594 9.668624507 -0.2226461569)
(199.2768352 9.790077977 -0.2222521864)
(204.4959984 9.914412666 -0.2216313854)
(209.8028487 10.04164236 -0.2207848808)
(215.1996216 10.17177943 -0.2197166715)
(220.6885891 10.30483455 -0.2184318615)
(226.2720585 10.44081424 -0.2169352753)
(231.9523733 10.57972554 -0.2152297255)
(237.7319126 10.72157303 -0.2133207334)
(243.6130911 10.86635882 -0.2112141773)
(249.598359 11.0140834 -0.2089157392)
(255.6902012 11.16474126 -0.2064317441)
(261.8911374 11.31832707 -0.2037663108)
(268.2037215 11.47483193 -0.2009265272)
(274.630541 11.6342438 -0.197919812)
(281.1742167 11.79654679 -0.1947538055)
(287.8374013 11.96172172 -0.1914363423)
(294.6227788 12.1297428 -0.187971786)
(301.5330638 12.30058354 -0.1843684277)
(308.5710011 12.47421228 -0.180633834)
(315.7393637 12.65059247 -0.1767759624)
(323.0409522 12.82968341 -0.1728026928)
(330.4785932 13.0114393 -0.1687189763)
(338.0551391 13.1958107 -0.1645332762)
(345.7734651 13.38273941 -0.1602543252)
(353.6364688 13.57216556 -0.155891141)
(361.6470679 13.76402328 -0.1514483245)
(369.8081999 13.95824168 -0.1469339702)
(378.1228182 14.15474336 -0.1423561223)
(386.5938899 14.35344371 -0.1377224403)
(395.2243925 14.55425065 -0.1330414112)
(404.017311 14.75706894 -0.1283167004)
(412.9756313 14.96178949 -0.1235569336)
(422.1023347 15.16829316 -0.1187694083)
(431.4003892 15.37644686 -0.1139621202)
(440.8727388 15.58610187 -0.1091426777)
(450.522289 15.79709235 -0.104314781)
(460.3518876 16.0092226 -0.09948778917)
(470.3642989 16.22226266 -0.0946694429)
(480.5621721 16.43594562 -0.08986697244)
(490.9479963 16.64994101 -0.08508273785)
(501.52404 16.86384186 -0.08032551317)
(512.292271 17.07714219 -0.07560264897)
(523.2542465 17.28918726 -0.07092224036)
(534.4109621 17.49912645 -0.06628647145)
(545.7626429 17.70582347 -0.06170467382)
(557.3084494 17.90772045 -0.0571840594)
(569.0460636 18.10264982 -0.05273258214)
(580.9710992 18.28750437 -0.04835764708)
(593.0762519 18.45771947 -0.04406210372)
(605.3500768 18.60642997 -0.03985523416)
(617.7752361 18.72307113 -0.03574591583)
(630.3260307 18.79109266 -0.03174371584)
(642.9652399 18.78420606 -0.02785156023)
(655.6439772 18.66035998 -0.02407867528)
(668.3666173 18.35221522 -0.02043408764)
(682.3434463 17.74944013 -0.01692883861)
(719.3686473 16.61095642 -0.01357036442)
(971.4776707 14.12646895 -0.01036485715)
(2078.087973 8.916252381 -0.006838000274)
(5406.725558 -0.005981423026 -0.0003365665726)
(5409.975106 -0.01162400854 -0.0003254471496)
(5409.99873 -0.01150268914 -0.0003192379862)
(5409.998785 -0.01128172358 -0.0003131125887)
(5409.998816 -0.01106302324 -0.0003070126218)
(5409.998847 -0.01084662901 -0.0003009942836)
(5409.998877 -0.01063253651 -0.0002950585042)
(5409.998906 -0.01042073916 -0.0002892063107)
(5409.998935 -0.0102112324 -0.0002833793576)
(5409.998963 -0.01000401298 -0.0002776344103)
(5409.998991 -0.009799017521 -0.0002719712015)
(5409.999019 -0.009596296351 -0.0002663907542)
(5409.999046 -0.00939584652 -0.0002608354126)
(5409.999073 -0.00919760476 -0.0002553612313)
(5409.999099 -0.009001621936 -0.0002499679306)
(5409.999125 -0.008807836584 -0.0002445995356)
(5409.99915 -0.008616242103 -0.0002393115504)
(5409.999175 -0.008426888412 -0.0002341036808)
(5409.999199 -0.00823971631 -0.0002289204745)
(5409.999223 -0.008054721075 -0.0002238156295)
(5409.999247 -0.007871895861 -0.0002187900003)
(5409.99927 -0.007691236756 -0.0002137873805)
(5409.999293 -0.007512682048 -0.0002088619948)
(5409.999315 -0.007336280516 -0.0002040146962)
(5409.999337 -0.007162027321 -0.0001992451097)
(5409.999358 -0.006989863994 -0.000194500485)
(5409.999379 -0.006819838015 -0.0001898332463)
(5409.9994 -0.006651890279 -0.0001852443109)
(5409.99942 -0.006486013451 -0.0001806801361)
(5409.99944 -0.00632220355 -0.0001761926186)
(5409.999459 -0.00616045372 -0.0001717826683)
(5409.999478 -0.006000759108 -0.0001673960882)
(5409.999497 -0.005843114279 -0.0001630852551)
(5409.999515 -0.005687516035 -0.0001588510874)
(5409.999533 -0.005533906317 -0.0001546399799)
(5409.99955 -0.005382332566 -0.0001505037324)
(5409.999567 -0.005232738068 -0.0001463890327)
(5409.999584 -0.005085171337 -0.0001423486285)
(5409.9996 -0.004939575442 -0.0001383833665)
(5409.999616 -0.004795945418 -0.0001344406633)
(5409.999631 -0.004654277226 -0.0001305713532)
(5409.999646 -0.004514565897 -0.00012677508)
(5409.999661 -0.004376808831 -0.0001230009722)
(5409.999675 -0.00424100271 -0.000119299237)
(5409.999689 -0.004107093841 -0.0001156181622)
(5409.999703 -0.003975127258 -0.000112008814)
(5409.999716 -0.003845050271 -0.000108470785)
(5409.999729 -0.00371685885 -0.0001049542259)
(5409.999742 -0.00359059933 -0.0001015082947)
(5409.999754 -0.003466221117 -9.813257775e-05)
(5409.999766 -0.003343721834 -9.477786822e-05)
(5409.999778 -0.003223049188 -9.149263818e-05)
(5409.999789 -0.003104246588 -8.822826178e-05)
(5409.9998 -0.002987312877 -8.503283904e-05)
(5409.99981 -0.0028721968 -8.185800735e-05)
(5409.999821 -0.002758945327 -7.875019722e-05)
(5409.999831 -0.002647509167 -7.571010211e-05)
(5409.99984 -0.00253788639 -7.269011708e-05)
(5409.999849 -0.002430073287 -6.973726342e-05)
(5409.999858 -0.002324067526 -6.680420407e-05)
(5409.999867 -0.002219867362 -6.393631619e-05)
(5409.999875 -0.002117470914 -6.108657056e-05)
(5409.999884 -0.002016876161 -5.830236967e-05)
(5409.999891 -0.001918036221 -5.558328019e-05)
(5409.999899 -0.001820995933 -5.288298286e-05)
(5409.999906 -0.001725705969 -5.024693224e-05)
(5409.999913 -0.001632163235 -4.762945535e-05)
(5409.99992 -0.001540365205 -4.507560518e-05)
(5409.999926 -0.001450310188 -4.253996428e-05)
(5409.999932 -0.001361995018 -4.006595442e-05)
(5409.999938 -0.001275416046 -3.760982302e-05)
(5409.999943 -0.001190524758 -3.52157441e-05)
(5409.999949 -0.001107362215 -3.283799448e-05)
(5409.999954 -0.001025879627 -3.052018025e-05)
(5409.999958 -0.000946116528 -2.821942789e-05)
(5409.999963 -0.0008680259988 -2.597787574e-05)
(5409.999967 -0.0007916011085 -2.375167549e-05)
(5409.999971 -0.0007168367645 -2.158488041e-05)
(5409.999975 -0.0006437259817 -1.943417151e-05)
(5409.999978 -0.0005722184901 -1.734077751e-05)
(5409.999982 -0.0005023492485 -1.526304561e-05)
(5409.999985 -0.0004341089101 -1.324291039e-05)
(5409.999988 -0.0003674462532 -1.123681588e-05)
(5409.99999 -0.0003023512738 -9.287487861e-06)
(5409.999993 -0.0002388135288 -7.352943951e-06)
(5409.999995 -0.0001768217864 -5.473081253e-06)
(5409.999997 -0.0001163637229 -3.607513965e-06)
(5409.999998 -5.742648856e-05 -1.796837804e-06)
(3.361432695 9.345232818 -0.06422164615)
(4.809574556 9.343831141 -0.06468398868)
(7.731535991 9.336937608 -0.06558237489)
(10.69367484 9.333541596 -0.06689646569)
(13.66840118 9.333963813 -0.06860444281)
(16.65565382 9.338269138 -0.07068363144)
(19.656635 9.34645074 -0.07311074259)
(22.67260112 9.358459424 -0.07586210358)
(25.70480562 9.374220593 -0.07891395652)
(28.75449376 9.393646502 -0.08224252384)
(31.8229002 9.416644284 -0.08582416161)
(34.91124836 9.443122107 -0.0896355081)
(38.02075022 9.472992242 -0.09365352035)
(41.1526074 9.506173104 -0.09785555351)
(44.30801242 9.542590994 -0.1022194877)
(47.4881507 9.582180594 -0.1067235285)
(50.69420255 9.624885108 -0.111346479)
(53.92734559 9.670656651 -0.1160677961)
(57.18875712 9.719455769 -0.1208673196)
(60.47961661 9.771251346 -0.1257253459)
(63.80110824 9.826020585 -0.130622876)
(67.15442314 9.883747434 -0.1355421496)
(70.54076201 9.944423963 -0.1404652132)
(73.96133715 10.00804809 -0.1453748173)
(77.41737487 10.07462399 -0.1502543507)
(80.91011771 10.14416221 -0.1550878258)
(84.44082619 10.21667805 -0.1598599881)
(88.01078086 10.29219169 -0.1645558932)
(91.62128406 10.37072761 -0.1691613772)
(95.27366176 10.45231433 -0.1736630812)
(98.969265 10.53698364 -0.1780481505)
(102.7094712 10.62477004 -0.1823044897)
(106.4956854 10.71571068 -0.1864202279)
(110.329342 10.80984508 -0.1903842336)
(114.2119049 10.90721303 -0.1941862727)
(118.1448694 11.00785709 -0.1978163393)
(122.1297626 11.11182063 -0.2012663)
(126.1681437 11.21914532 -0.2045277506)
(130.2616054 11.3298753 -0.207592934)
(134.4117739 11.44405302 -0.2104549897)
(138.6203097 11.56172231 -0.2131072584)
(142.8889075 11.68292415 -0.2155440339)
(147.2192971 11.80769895 -0.217760567)
(151.6132429 11.93608741 -0.2197525816)
(156.0725445 12.0681276 -0.2215166489)
(160.5990368 12.20385587 -0.2230493034)
(165.1945897 12.34330734 -0.2243477266)
(169.861109 12.48651696 -0.225412191)
(174.6005357 12.63351614 -0.2262412021)
(179.4148459 12.78433532 -0.2268343659)
(184.3060517 12.93900244 -0.227191336)
(189.2762 13.09754384 -0.2273128046)
(194.3273734 13.25998338 -0.2272004227)
(199.4616897 13.42634357 -0.2268559478)
(204.6813023 13.59664475 -0.2262819473)
(209.9883998 13.77090532 -0.2254806217)
(215.385206 13.9491408 -0.2244547109)
(220.8739801 14.13136462 -0.2232105593)
(226.4570161 14.31758686 -0.2217517831)
(232.1366435 14.50781537 -0.2200828133)
(237.9152259 14.70205477 -0.2182083729)
(243.7951618 14.90030661 -0.2161341527)
(249.7788836 15.10256916 -0.2138655431)
(255.8688576 15.30883606 -0.2114081428)
(262.0675834 15.51909754 -0.2087678926)
(268.3775935 15.73333966 -0.2059509249)
(274.8014522 15.95154384 -0.2029638171)
(281.3417556 16.1736859 -0.1998156131)
(288.0011296 16.39973667 -0.1965123349)
(294.7822299 16.62966101 -0.1930607855)
(301.6877406 16.86341924 -0.1894679936)
(308.7203736 17.10096493 -0.185741563)
(315.8828666 17.34224479 -0.181888619)
(323.1779818 17.58719909 -0.1779162321)
(330.6085045 17.835761 -0.1738316214)
(338.1772419 18.087857 -0.1696419943)
(345.8870205 18.34340514 -0.1653548946)
(353.7406848 18.60231574 -0.1609806296)
(361.7410941 18.86449017 -0.1565253346)
(369.8911211 19.12982546 -0.1519957589)
(378.1936475 19.39820343 -0.1473990515)
(386.6515604 19.66949723 -0.1427429538)
(395.2677482 19.94356634 -0.1380345231)