/*--------------------------------*- C++ -*----------------------------------*\
| =========                 |                                                 |
| \\      /  F ield         | OpenFOAM: The Open Source CFD Toolbox           |
|  \\    /   O peration     | Version:  v1706                                 |
|   \\  /    A nd           | Web:      www.OpenFOAM.com                      |
|    \\/     M anipulation  |                                                 |
\*---------------------------------------------------------------------------*/
FoamFile
{
    version     2.0;
    format      ascii;
    class       volScalarField;
    location    "0.003";
    object      wallHeatFlux;
}
// * * * * * * * * * * * * * * * * * * * * * * * * * * * * * * * * * * * * * //

dimensions      [1 0 -3 0 0 0 0];


internalField   uniform 0;

boundaryField
{
    inlet
    {
        type            calculated;
        value           uniform 0;
    }
    object
    {
        type            calculated;
        value           nonuniform List<scalar> 
400
(
2.427642044e+17
2.42822967e+17
2.428482862e+17
2.42864685e+17
2.428770597e+17
2.428871376e+17
2.42895736e+17
2.429033077e+17
2.429101301e+17
2.429163835e+17
2.429221934e+17
2.429276483e+17
2.429328148e+17
2.429377426e+17
2.429424707e+17
2.429470292e+17
2.42951444e+17
2.429557337e+17
2.429599163e+17
2.429640048e+17
2.429680117e+17
2.429719469e+17
2.429758188e+17
2.429796357e+17
2.42983404e+17
2.429871294e+17
2.429908171e+17
2.429944726e+17
2.429980988e+17
2.430017003e+17
2.430052803e+17
2.430088414e+17
2.430123867e+17
2.430159179e+17
2.430194376e+17
2.430229471e+17
2.430264483e+17
2.430299417e+17
2.430334295e+17
2.430369115e+17
2.430403883e+17
2.430438609e+17
2.430473294e+17
2.430507931e+17
2.430542529e+17
2.430577073e+17
2.430611567e+17
2.430645995e+17
2.430680357e+17
2.430714639e+17
2.430748822e+17
2.430782914e+17
2.430816888e+17
2.430850685e+17
2.430884394e+17
2.43091787e+17
2.430951182e+17
2.430984256e+17
2.431017143e+17
2.431049699e+17
2.431082055e+17
2.431114052e+17
2.431145715e+17
2.431177008e+17
2.431207898e+17
2.431238387e+17
2.431268401e+17
2.431297978e+17
2.431327001e+17
2.431355415e+17
2.431383324e+17
2.431410561e+17
2.431437138e+17
2.431463047e+17
2.431488201e+17
2.431512565e+17
2.431536133e+17
2.431558779e+17
2.431580575e+17
2.431601425e+17
2.431621253e+17
2.43164009e+17
2.431657801e+17
2.431674415e+17
2.431689827e+17
2.431704009e+17
2.431716891e+17
2.431728461e+17
2.431738658e+17
2.431747372e+17
2.431754646e+17
2.431760305e+17
2.43176443e+17
2.431766826e+17
2.43176749e+17
2.4317664e+17
2.431763478e+17
2.431758593e+17
2.431751796e+17
2.431742871e+17
2.431731889e+17
2.431718742e+17
2.431703339e+17
2.431685563e+17
2.431665445e+17
2.431642883e+17
2.431617724e+17
2.431589993e+17
2.431559533e+17
2.431526367e+17
2.431490311e+17
2.431451289e+17
2.431409357e+17
2.431364259e+17
2.43131593e+17
2.431264386e+17
2.431209502e+17
2.431151158e+17
2.431089296e+17
2.431023779e+17
2.430954568e+17
2.430881545e+17
2.430804612e+17
2.430723618e+17
2.43063857e+17
2.430549318e+17
2.430455785e+17
2.430357797e+17
2.430255361e+17
2.430148244e+17
2.430036475e+17
2.429919863e+17
2.429798318e+17
2.429671733e+17
2.429540005e+17
2.429403037e+17
2.429260731e+17
2.429112924e+17
2.428959504e+17
2.428800467e+17
2.428635548e+17
2.428464707e+17
2.428287843e+17
2.428104822e+17
2.427915591e+17
2.427719851e+17
2.427517688e+17
2.427308919e+17
2.427093398e+17
2.426871038e+17
2.426641688e+17
2.426405277e+17
2.426161667e+17
2.42591071e+17
2.425652373e+17
2.425386476e+17
2.425112927e+17
2.424831547e+17
2.424542357e+17
2.424245159e+17
2.423939883e+17
2.423626317e+17
2.423304472e+17
2.422974224e+17
2.422635404e+17
2.422288003e+17
2.421931851e+17
2.421566826e+17
2.421192954e+17
2.420810044e+17
2.420418001e+17
2.420016666e+17
2.419606179e+17
2.419186314e+17
2.418756995e+17
2.418318202e+17
2.417869795e+17
2.417411742e+17
2.416944034e+17
2.41646657e+17
2.41597928e+17
2.41548207e+17
2.414975094e+17
2.414458185e+17
2.413931383e+17
2.413394635e+17
2.41284798e+17
2.412291442e+17
2.411724993e+17
2.411148828e+17
2.410562925e+17
2.40996749e+17
2.409362696e+17
2.408748965e+17
2.40812667e+17
2.407496469e+17
2.406859387e+17
2.406216557e+17
2.405569336e+17
2.404921775e+17
2.404942518e+17
2.405364429e+17
2.40576672e+17
2.406161108e+17
2.406557272e+17
2.406961133e+17
2.40737588e+17
2.407803536e+17
2.408245189e+17
2.40870175e+17
2.409173648e+17
2.409661292e+17
2.410164855e+17
2.410684658e+17
2.411220763e+17
2.41177329e+17
2.412342376e+17
2.412928049e+17
2.413530288e+17
2.41414914e+17
2.414784702e+17
2.415436863e+17
2.416105712e+17
2.416791072e+17
2.417493111e+17
2.418211704e+17
2.418946798e+17
2.41969831e+17
2.420466329e+17
2.42125064e+17
2.422051208e+17
2.42286805e+17
2.423700964e+17
2.424549941e+17
2.425414753e+17
2.426295437e+17
2.427191783e+17
2.428103693e+17
2.429030891e+17
2.429973383e+17
2.430930987e+17
2.431903365e+17
2.432890439e+17
2.433891931e+17
2.434907663e+17
2.435937294e+17
2.43698047e+17
2.438037106e+17
2.439106741e+17
2.440189036e+17
2.441283716e+17
2.442390162e+17
2.443507968e+17
2.44463666e+17
2.445775848e+17
2.446924806e+17
2.448083087e+17
2.449249948e+17
2.450424716e+17
2.451606713e+17
2.452794846e+17
2.453988616e+17
2.455186654e+17
2.456388194e+17
2.457592073e+17
2.458797173e+17
2.460002084e+17
2.461205192e+17
2.462405262e+17
2.463600515e+17
2.464789154e+17
2.465968943e+17
2.467138125e+17
2.468293945e+17
2.46943403e+17
2.470555476e+17
2.471654951e+17
2.472729315e+17
2.473774231e+17
2.474785863e+17
2.475759137e+17
2.47668904e+17
2.477569124e+17
2.478393143e+17
2.479153232e+17
2.479840349e+17
2.480444649e+17
2.480954494e+17
2.481356556e+17
2.481634774e+17
2.481770014e+17
2.481739775e+17
2.481515942e+17
2.481063831e+17
2.480339648e+17
2.479286361e+17
2.477827727e+17
2.475859152e+17
2.473229282e+17
2.469655836e+17
2.453399763e+17
2.43433085e+17
2.415597431e+17
2.397175005e+17
2.378957777e+17
2.360840587e+17
2.34273765e+17
2.324584329e+17
2.306335515e+17
2.287961405e+17
2.269443435e+17
2.250771322e+17
2.23194087e+17
2.212951751e+17
2.19380708e+17
2.174511871e+17
2.155072974e+17
2.135497958e+17
2.115795723e+17
2.09597553e+17
2.076046661e+17
2.056019689e+17
2.035904403e+17
2.015711263e+17
1.995450524e+17
1.975132676e+17
1.95476811e+17
1.934366362e+17
1.913936432e+17
1.893478069e+17
1.872774914e+17
1.851916799e+17
1.831262181e+17
1.810687951e+17
1.790168267e+17
1.769704065e+17
1.749302522e+17
1.728972235e+17
1.708721704e+17
1.688559133e+17
1.668492342e+17
1.64852876e+17
1.628675552e+17
1.60893972e+17
1.589327933e+17
1.56984654e+17
1.550501382e+17
1.531298055e+17
1.512242004e+17
1.493338363e+17
1.474591818e+17
1.456007105e+17
1.437588338e+17
1.419339094e+17
1.401263366e+17
1.383364384e+17
1.365645459e+17
1.34810966e+17
1.330759774e+17
1.31359844e+17
1.296628171e+17
1.279851315e+17
1.263270021e+17
1.246886298e+17
1.230701981e+17
1.214718858e+17
1.198938602e+17
1.183362685e+17
1.167992609e+17
1.152829621e+17
1.137874899e+17
1.123129634e+17
1.108594744e+17
1.094271215e+17
1.080159832e+17
1.066261421e+17
1.052576652e+17
1.039106099e+17
1.025850191e+17
1.012809488e+17
9.999842797e+16
9.873748464e+16
9.749814344e+16
9.628041658e+16
9.508431221e+16
9.390983418e+16
9.275696674e+16
9.162569152e+16
9.05159908e+16
8.942783172e+16
8.836117569e+16
8.731597399e+16
8.629216777e+16
8.528969852e+16
8.430848944e+16
8.334845996e+16
8.240951928e+16
8.149156657e+16
8.059450353e+16
7.972033509e+16
)
;
    }
    outlet
    {
        type            calculated;
        value           uniform 0;
    }
    front
    {
        type            wedge;
    }
    back
    {
        type            wedge;
    }
}


// ************************************************************************* //
