/*--------------------------------*- C++ -*----------------------------------*\
| =========                 |                                                 |
| \\      /  F ield         | OpenFOAM: The Open Source CFD Toolbox           |
|  \\    /   O peration     | Version:  v1612+-hyStrath                       |
|   \\  /    A nd           | Web:      www.OpenFOAM.com                      |
|    \\/     M anipulation  |                                                 |
\*---------------------------------------------------------------------------*/
FoamFile
{
    version     2.0;
    format      ascii;
    class       volScalarField;
    location    "0.00127";
    object      k;
}
// * * * * * * * * * * * * * * * * * * * * * * * * * * * * * * * * * * * * * //

dimensions      [0 2 -2 0 0 0 0];

internalField   nonuniform List<scalar> 
322080
(
4702.539235
4702.539147
4512.761274
4702.5392
4512.761252
4337.160053
4702.539203
4512.761187
4337.160097
4174.2351
4702.539029
4512.76125
4337.160087
4174.235142
4022.689247
4702.539085
4512.761537
4337.160093
4174.235133
4022.689236
3881.396542
4702.539465
4512.761136
4337.159948
4174.235136
4022.689272
3881.396532
3749.371209
4702.539303
4512.761116
4337.159986
4174.234996
4022.688918
3881.396529
3749.3712
3625.750741
4702.539024
4512.76133
4337.160309
4174.235386
4022.689511
3881.396648
3749.371159
3625.750737
3509.775461
4702.539217
4512.761054
4337.159861
4174.235021
4022.689205
3881.396465
3749.371344
3625.750775
3509.775458
3400.773466
4702.539181
4512.761238
4337.160197
4174.235192
4022.689474
3881.396503
3749.371125
3625.750624
3509.775496
3400.773462
3298.149072
4702.539165
4512.761212
4337.160094
4174.234973
4022.689077
3881.396485
3749.371157
3625.751013
3509.775656
3400.773399
3298.149072
3201.372539
4702.539374
4512.761452
4337.160296
4174.235137
4022.689375
3881.396629
3749.371145
3625.750749
3509.775157
3400.773444
3298.149106
3201.372507
3109.968539
4702.539294
4512.761218
4337.159872
4174.235136
4022.689287
3881.396441
3749.371301
3625.750728
3509.775458
3400.773432
3298.149086
3201.372513
3109.968542
3023.51435
4702.539118
4512.761132
4337.160057
4174.235113
4022.689063
3881.396586
3749.37133
3625.750652
3509.775444
3400.773462
3298.149078
3201.372374
3109.96855
3023.514385
2941.633128
4702.539194
4512.761318
4337.160156
4174.235091
4022.689252
3881.396556
3749.37105
3625.750706
3509.775579
3400.77345
3298.149105
3201.372786
3109.968684
3023.514367
2941.633134
2863.975561
4702.539285
4512.761221
4337.16002
4174.235042
4022.689407
3881.396558
3749.371214
3625.750818
3509.775419
3400.773385
3298.149094
3201.372366
3109.968362
3023.514337
2941.633119
2863.975569
2790.232073
4702.539782
4512.761257
4337.16008
4174.235194
4022.689178
3881.396554
3749.371218
3625.7508
3509.775364
3400.773604
3298.149029
3201.37256
3109.968602
3023.514424
2941.633157
2863.975579
2790.232056
2720.122054
4702.538497
4512.760433
4337.160316
4174.235112
4022.689357
3881.396632
3749.371078
3625.750806
3509.775518
3400.773368
3298.149076
3201.3725
3109.968594
3023.514449
2941.632998
2863.975448
2790.232046
2720.122041
2653.395522
4702.539264
4512.761676
4337.160491
4174.235257
4022.68927
3881.396395
3749.37116
3625.750642
3509.775374
3400.773375
3298.14917
3201.372544
3109.968535
3023.514266
2941.633219
2863.975654
2790.232025
2720.122055
2653.395535
2589.820145
4702.539763
4512.76148
4337.160491
4174.234444
4022.689546
3881.396579
3749.371296
3625.750862
3509.775621
3400.773516
3298.149012
3201.372493
3109.968427
3023.514379
2941.63304
2863.975507
2790.232164
2720.122075
2653.395529
2589.82016
2529.17719
4702.538452
4512.760648
4337.159255
4174.235659
4022.689551
3881.395873
3749.371127
3625.750661
3509.775467
3400.773388
3298.14903
3201.372619
3109.968669
3023.514412
2941.633151
2863.975666
2790.232019
2720.121997
2653.395604
2589.820137
2529.177163
2471.281995
4702.539842
4512.762353
4337.16054
4174.235233
4022.687937
3881.396953
3749.37169
3625.750811
3509.775473
3400.773473
3298.149148
3201.372501
3109.968406
3023.514246
2941.633191
2863.975619
2790.232026
2720.122032
2653.395489
2589.820143
2529.177182
2471.282012
2415.957648
4702.538905
4512.760281
4337.159569
4174.234586
4022.689334
3881.396833
3749.370661
3625.750378
3509.775432
3400.773488
3298.149011
3201.372506
3109.968645
3023.514483
2941.633151
2863.975526
2790.23213
2720.122182
2653.395521
2589.820139
2529.17722
2471.282012
2415.957667
2363.03917
4702.539177
4512.761682
4337.160547
4174.235408
4022.690368
3881.396657
3749.371592
3625.751123
3509.776082
3400.773431
3298.149034
3201.372577
3109.968546
3023.514388
2941.633042
2863.975493
2790.231914
2720.121879
2653.395394
2589.820171
2529.177182
2471.281956
2415.957653
2363.039151
2312.381279
4702.539177
4512.76131
4337.159831
4174.234941
4022.688785
3881.396234
3749.371327
3625.750375
3509.775018
3400.773426
3298.149166
3201.372506
3109.968521
3023.514292
2941.633164
2863.975605
2790.232227
2720.122157
2653.395618
2589.820176
2529.177075
2471.282032
2415.957692
2363.039157
2312.381283
2263.844185
4702.539333
4512.76113
4337.160076
4174.23553
4022.689106
3881.396818
3749.370964
3625.750945
3509.775844
3400.773794
3298.149172
3201.372481
3109.968539
3023.514363
2941.633156
2863.975528
2790.232025
2720.12203
2653.395544
2589.820149
2529.177217
2471.282061
2415.957566
2363.03911
2312.381306
2263.844172
2217.302186
4702.539123
4512.761345
4337.160066
4174.235198
4022.689082
3881.396351
3749.370778
3625.750431
3509.775005
3400.773151
3298.148734
3201.37233
3109.968587
3023.514384
2941.633137
2863.975625
2790.232042
2720.122031
2653.395419
2589.820081
2529.177192
2471.28195
2415.957732
2363.039224
2312.381302
2263.844166
2217.302193
2172.64216
4702.538758
4512.761285
4337.160227
4174.234531
4022.689292
3881.396918
3749.371591
3625.751521
3509.775786
3400.77359
3298.149448
3201.372661
3109.968567
3023.514363
2941.63309
2863.975529
2790.232052
2720.122047
2653.395617
2589.820258
2529.177229
2471.282043
2415.957624
2363.039134
2312.381243
2263.844127
2217.302189
2172.642169
2129.756474
4702.539958
4512.761202
4337.159566
4174.235254
4022.689617
3881.396182
3749.371112
3625.750176
3509.775214
3400.773202
3298.148691
3201.372318
3109.968568
3023.514335
2941.633134
2863.975615
2790.232031
2720.122063
2653.395546
2589.820089
2529.177123
2471.281983
2415.957611
2363.039257
2312.381281
2263.844274
2217.302218
2172.642166
2129.75647
2088.542936
4702.538644
4512.761171
4337.160475
4174.235489
4022.688994
3881.396515
3749.37119
3625.750689
3509.775812
3400.773213
3298.149401
3201.372645
3109.968366
3023.514657
2941.633176
2863.975601
2790.232139
2720.122123
2653.395479
2589.820113
2529.177219
2471.281967
2415.957655
2363.039135
2312.3813
2263.84419
2217.30219
2172.64212
2129.75647
2088.542933
2048.909566
4702.539585
4512.761406
4337.160038
4174.234798
4022.689239
3881.396648
3749.371151
3625.75126
3509.77535
3400.773417
3298.149267
3201.372343
3109.96873
3023.514171
2941.632953
2863.975529
2790.231993
2720.121951
2653.395475
2589.820198
2529.177156
2471.281984
2415.957731
2363.039178
2312.381285
2263.844104
2217.302118
2172.64218
2129.756512
2088.542935
2048.90958
2010.770927
4702.539185
4512.760944
4337.159953
4174.235053
4022.689259
3881.396558
3749.371344
3625.750399
3509.775189
3400.773808
3298.149014
3201.372809
3109.968869
3023.514528
2941.633466
2863.97559
2790.232085
2720.122112
2653.395627
2589.82019
2529.177174
2471.28208
2415.957664
2363.03909
2312.381239
2263.84419
2217.302239
2172.642214
2129.756401
2088.542907
2048.909571
2010.770929
1974.047651
4702.539292
4512.761213
4337.160084
4174.235259
4022.689497
3881.396588
3749.370882
3625.750905
3509.775416
3400.773546
3298.14867
3201.372547
3109.967977
3023.51387
2941.632944
2863.975471
2790.23228
2720.122052
2653.395501
2589.820104
2529.177174
2471.281961
2415.957618
2363.039181
2312.381315
2263.844231
2217.302229
2172.642137
2129.756544
2088.542986
2048.909625
2010.770923
1974.047641
1938.665778
4702.538991
4512.76134
4337.160049
4174.235136
4022.689197
3881.396546
3749.371232
3625.750752
3509.775625
3400.773466
3298.149211
3201.372487
3109.968527
3023.514612
2941.633392
2863.975298
2790.231976
2720.121945
2653.395491
2589.820144
2529.177146
2471.282022
2415.957696
2363.039138
2312.381334
2263.84415
2217.302108
2172.642134
2129.756469
2088.54283
2048.909544
2010.770946
1974.04766
1938.665757
1904.556476
4702.53912
4512.761262
4337.160181
4174.2351
4022.689281
3881.396414
3749.371153
3625.750835
3509.7755
3400.773333
3298.149079
3201.372646
3109.968844
3023.5144
2941.632992
2863.975931
2790.232303
2720.121991
2653.395629
2589.820186
2529.17719
2471.281994
2415.95764
2363.039162
2312.381289
2263.844103
2217.302255
2172.642177
2129.756466
2088.542946
2048.909583
2010.770921
1974.047608
1938.665767
1904.556482
1871.657614
4702.539513
4512.761216
4337.160156
4174.235234
4022.689235
3881.396582
3749.371163
3625.750785
3509.775274
3400.773492
3298.148955
3201.372604
3109.968422
3023.514419
2941.63316
2863.975497
2790.231656
2720.121854
2653.395471
2589.819965
2529.177189
2471.282037
2415.95767
2363.039163
2312.381248
2263.844194
2217.302205
2172.642181
2129.756509
2088.542944
2048.909523
2010.77096
1974.047658
1938.665771
1904.55647
1871.657623
1839.904749
4702.539063
4512.761315
4337.159994
4174.23494
4022.689155
3881.396555
3749.371243
3625.750644
3509.77544
3400.773527
3298.149152
3201.372426
3109.968324
3023.514212
2941.632856
2863.975643
2790.2323
2720.122392
2653.395781
2589.82051
2529.177165
2471.281991
2415.957671
2363.039191
2312.381309
2263.844214
2217.302173
2172.642137
2129.756377
2088.542915
2048.909605
2010.7709
1974.04761
1938.665745
1904.556467
1871.657624
1839.904747
1809.242096
4702.539285
4512.761289
4337.159957
4174.235327
4022.689311
3881.39643
3749.371204
3625.750829
3509.775693
3400.77349
3298.148948
3201.372612
3109.968695
3023.514707
2941.633291
2863.975617
2790.231837
2720.122053
2653.395201
2589.819685
2529.177211
2471.282175
2415.957666
2363.0391
2312.381298
2263.844171
2217.302196
2172.642164
2129.756525
2088.542983
2048.909577
2010.770907
1974.047715
1938.665837
1904.556532
1871.657622
1839.904751
1809.242108
1779.621086
4702.53857
4512.761229
4337.160179
4174.234959
4022.689022
3881.396611
3749.371298
3625.750802
3509.775332
3400.773189
3298.149089
3201.372398
3109.968438
3023.514331
2941.633002
2863.975465
2790.23212
2720.122143
2653.395495
2589.820494
2529.177418
2471.281683
2415.95764
2363.039191
2312.381293
2263.844155
2217.302157
2172.642191
2129.756497
2088.542947
2048.909584
2010.770954
1974.047646
1938.665709
1904.5564
1871.657575
1839.904751
1809.242093
1779.621077
1750.988512
4702.540132
4512.760656
4337.159964
4174.235184
4022.689503
3881.396722
3749.371275
3625.750692
3509.775509
3400.773534
3298.149302
3201.372592
3109.96866
3023.514247
2941.633082
2863.975456
2790.232008
2720.121877
2653.39563
2589.820175
2529.176919
2471.281948
2415.95771
2363.038968
2312.381301
2263.844198
2217.302238
2172.64215
2129.756421
2088.542923
2048.909553
2010.770902
1974.047627
1938.665788
1904.556504
1871.657643
1839.904781
1809.242104
1779.621095
1750.988495
1723.298405
4702.537419
4512.759972
4337.161597
4174.235243
4022.689197
3881.396448
3749.371034
3625.750702
3509.775403
3400.773341
3298.148989
3201.372343
3109.968588
3023.514294
2941.633257
2863.97577
2790.232181
2720.122209
2653.395593
2589.820032
2529.177202
2471.282074
2415.957613
2363.039211
2312.381254
2263.844172
2217.3022
2172.642144
2129.756523
2088.542947
2048.909584
2010.770928
1974.047638
1938.665769
1904.556446
1871.657671
1839.904715
1809.242056
1779.62108
1750.988504
1723.298422
1696.507521
4702.54126
4512.763124
4337.158983
4174.23493
4022.689185
3881.396456
3749.371278
3625.750766
3509.775386
3400.773576
3298.149136
3201.372637
3109.968599
3023.514479
2941.63326
2863.9755
2790.232081
2720.122001
2653.395536
2589.820277
2529.177052
2471.282054
2415.957725
2363.039433
2312.381376
2263.844318
2217.302167
2172.642152
2129.756478
2088.54292
2048.909563
2010.770911
1974.047666
1938.66578
1904.556494
1871.657613
1839.904748
1809.24216
1779.621113
1750.988501
1723.298404
1696.507519
1670.575281
4702.537437
4512.759829
4337.160441
4174.235363
4022.689226
3881.396675
3749.371145
3625.750698
3509.775497
3400.773568
3298.149065
3201.372463
3109.968504
3023.514234
2941.632862
2863.97557
2790.232042
2720.121898
2653.395474
2589.819909
2529.177071
2471.282161
2415.95748
2363.039019
2312.381045
2263.843983
2217.302222
2172.6422
2129.756484
2088.542916
2048.909537
2010.77094
1974.047649
1938.665758
1904.556506
1871.657602
1839.90476
1809.242055
1779.621091
1750.98846
1723.298419
1696.507522
1670.57529
1645.463409
4702.540718
4512.762564
4337.16016
4174.233859
4022.689883
3881.396663
3749.37116
3625.750842
3509.775555
3400.773343
3298.14906
3201.372532
3109.968482
3023.514352
2941.633212
2863.975677
2790.231876
2720.122022
2653.395556
2589.820333
2529.177406
2471.281932
2415.9576
2363.03923
2312.381377
2263.844179
2217.302295
2172.642032
2129.756427
2088.542927
2048.909614
2010.770954
1974.047634
1938.665791
1904.556435
1871.657619
1839.904749
1809.242132
1779.621057
1750.988528
1723.298439
1696.507523
1670.575286
1645.463391
1621.135977
4702.539848
4512.761946
4337.160177
4174.235271
4022.689381
3881.395479
3749.370144
3625.75081
3509.775462
3400.773437
3298.149137
3201.372531
3109.968563
3023.514477
2941.633109
2863.975475
2790.232173
2720.122231
2653.395536
2589.820046
2529.176997
2471.282029
2415.957799
2363.039117
2312.381384
2263.84433
2217.302254
2172.642304
2129.756564
2088.542972
2048.909554
2010.770919
1974.047654
1938.665778
1904.556473
1871.657647
1839.904716
1809.242121
1779.621075
1750.988558
1723.298388
1696.507551
1670.575273
1645.463407
1621.13598
1597.55899
4702.53879
4512.760134
4337.15869
4174.235035
4022.689293
3881.396772
3749.37296
3625.751033
3509.775316
3400.773432
3298.148931
3201.372474
3109.968565
3023.514408
2941.633116
2863.975597
2790.232186
2720.12205
2653.395409
2589.820166
2529.177238
2471.282029
2415.957735
2363.039145
2312.381274
2263.844075
2217.301861
2172.641971
2129.75636
2088.542849
2048.909569
2010.770963
1974.047656
1938.665759
1904.556463
1871.657594
1839.904749
1809.242087
1779.621071
1750.988457
1723.298424
1696.507516
1670.575255
1645.46341
1621.135963
1597.559004
1574.697463
4702.53749
4512.760396
4337.160559
4174.236892
4022.689331
3881.396737
3749.370113
3625.750078
3509.776149
3400.773491
3298.149228
3201.372643
3109.968505
3023.514288
2941.633191
2863.975578
2790.231944
2720.12188
2653.395531
2589.820201
2529.177223
2471.282105
2415.957527
2363.039055
2312.381271
2263.844173
2217.302318
2172.642321
2129.756561
2088.543097
2048.909721
2010.770918
1974.04764
1938.665766
1904.556519
1871.657627
1839.904784
1809.24212
1779.62109
1750.988507
1723.298385
1696.507492
1670.575296
1645.463373
1621.135977
1597.559005
1574.697461
1552.522941
4702.540201
4512.762812
4337.160865
4174.234059
4022.688228
3881.396521
3749.37126
3625.750948
3509.774792
3400.77307
3298.148982
3201.372445
3109.968573
3023.514464
2941.63305
2863.975532
2790.232095
2720.12224
2653.39566
2589.82018
2529.177112
2471.281918
2415.957615
2363.039216
2312.381388
2263.844199
2217.302213
2172.642106
2129.756415
2088.542789
2048.909271
2010.770956
1974.047653
1938.66575
1904.556457
1871.657618
1839.904738
1809.242075
1779.621081
1750.988527
1723.298435
1696.507565
1670.575273
1645.463433
1621.13602
1597.55899
1574.697464
1552.522924
1531.008413
4702.538656
4512.761258
4337.158751
4174.235838
4022.689652
3881.396864
3749.371318
3625.750908
3509.775545
3400.773807
3298.148953
3201.372604
3109.968609
3023.514299
2941.633141
2863.975636
2790.232038
2720.121975
2653.395344
2589.820047
2529.177226
2471.281949
2415.95774
2363.039283
2312.381202
2263.844121
2217.302214
2172.642209
2129.756637
2088.543123
2048.909909
2010.770859
1974.047606
1938.6658
1904.556505
1871.657624
1839.904729
1809.24211
1779.621117
1750.988476
1723.298412
1696.507467
1670.575294
1645.463411
1621.135904
1597.558991
1574.697466
1552.52293
1531.008422
1510.124056
4512.761752
4702.541047
4337.159605
4174.235242
4022.688871
3881.396686
3749.371301
3625.750757
3509.775571
3400.773684
3298.149528
3201.372555
3109.968485
3023.514333
2941.633185
2863.975484
2790.232037
2720.122053
2653.395597
2589.820238
2529.177212
2471.281946
2415.957763
2363.039121
2312.381303
2263.844267
2217.30216
2172.642233
2129.756356
2088.542742
2048.909371
2010.770859
1974.04785
1938.665627
1904.556443
1871.657614
1839.904739
1809.242103
1779.621078
1750.988516
1723.298405
1696.507537
1670.575295
1645.463382
1621.135999
1597.559003
1574.697461
1552.522934
1531.008414
1510.124059
1489.844613
4337.161074
4512.762071
4702.541329
4174.234977
4022.689258
3881.396092
3749.371727
3625.751111
3509.775639
3400.77364
3298.148275
3201.372043
3109.968882
3023.514467
2941.633118
2863.975547
2790.232111
2720.122048
2653.395533
2589.820115
2529.177157
2471.282066
2415.957614
2363.039038
2312.381279
2263.844051
2217.30216
2172.642147
2129.756378
2088.543012
2048.90957
2010.770956
1974.04759
1938.665757
1904.556536
1871.657636
1839.90476
1809.242112
1779.621071
1750.988516
1723.298409
1696.507531
1670.575277
1645.463432
1621.135972
1597.558989
1574.697486
1552.522949
1531.008412
1510.12406
1489.844618
1470.1474
4174.234378
4337.161825
4512.763877
4702.541039
4022.688771
3881.396732
3749.370787
3625.749971
3509.774645
3400.772573
3298.149266
3201.373608
3109.967993
3023.513945
2941.633039
2863.975573
2790.232056
2720.122013
2653.39554
2589.820197
2529.177188
2471.282024
2415.957628
2363.039256
2312.381291
2263.844174
2217.302238
2172.642147
2129.756484
2088.542871
2048.909664
2010.770948
1974.047673
1938.665742
1904.556496
1871.657588
1839.904754
1809.242106
1779.621086
1750.988511
1723.298411
1696.507499
1670.575313
1645.463374
1621.135978
1597.559013
1574.697421
1552.522919
1531.008377
1510.12406
1489.844613
1470.147384
1451.006955
4022.690063
4174.237103
4337.162357
4512.763317
4702.540831
3881.397452
3749.371163
3625.751305
3509.776833
3400.774541
3298.149111
3201.371842
3109.968857
3023.514732
2941.633077
2863.975607
2790.23209
2720.12207
2653.395517
2589.820097
2529.177128
2471.281908
2415.957585
2363.039151
2312.381287
2263.844217
2217.302215
2172.642082
2129.756484
2088.542951
2048.909517
2010.770898
1974.047519
1938.665838
1904.556452
1871.657648
1839.904914
1809.242106
1779.621083
1750.988496
1723.298407
1696.507537
1670.575281
1645.463414
1621.136003
1597.558976
1574.697495
1552.522958
1531.008418
1510.124089
1489.844615
1470.147402
1451.006962
1432.403172
3881.394782
4022.691025
4174.236995
4337.162159
4512.763433
4702.541691
3749.370986
3625.750992
3509.775166
3400.77201
3298.149374
3201.372591
3109.968714
3023.513809
2941.633512
2863.975661
2790.232015
2720.122013
2653.395558
2589.820151
2529.177223
2471.282081
2415.957794
2363.039206
2312.381303
2263.8442
2217.302126
2172.642208
2129.75655
2088.542954
2048.909621
2010.771055
1974.047611
1938.665815
1904.556364
1871.657636
1839.90461
1809.241972
1779.621083
1750.988495
1723.298424
1696.507536
1670.575257
1645.463385
1621.135931
1597.559005
1574.69746
1552.522894
1531.008457
1510.124027
1489.844607
1470.147393
1451.006948
1432.403174
1414.315531
3749.371677
3881.399435
4022.691458
4174.237418
4337.160806
4512.762073
4702.539472
3625.750644
3509.774612
3400.77405
3298.149375
3201.371977
3109.968597
3023.514562
2941.632621
2863.975264
2790.232474
2720.12211
2653.395504
2589.820132
2529.177209
2471.281996
2415.957567
2363.039031
2312.381265
2263.84411
2217.302132
2172.642242
2129.756423
2088.542901
2048.909627
2010.770853
1974.047643
1938.665922
1904.556554
1871.657716
1839.90476
1809.242157
1779.621147
1750.988499
1723.298423
1696.507499
1670.575287
1645.463423
1621.136006
1597.559007
1574.697451
1552.522947
1531.008394
1510.12407
1489.844651
1470.147398
1451.00696
1432.403175
1414.315535
1396.72221
3625.750103
3749.372221
3881.398614
4022.691369
4174.238232
4337.163576
4512.763503
4702.54285
3509.775296
3400.773587
3298.148833
3201.372832
3109.96875
3023.514493
2941.633316
2863.975737
2790.23168
2720.121943
2653.395528
2589.820152
2529.177166
2471.28197
2415.957668
2363.039271
2312.381357
2263.844164
2217.302238
2172.642117
2129.756459
2088.543013
2048.909568
2010.770875
1974.047732
1938.665656
1904.55635
1871.657555
1839.904686
1809.242152
1779.621177
1750.988515
1723.298402
1696.507526
1670.575305
1645.4634
1621.135957
1597.558986
1574.697457
1552.522938
1531.008407
1510.124054
1489.844553
1470.147397
1451.006923
1432.403175
1414.31553
1396.722209
1379.606126
3509.775829
3625.752767
3749.373361
3881.398996
4022.69035
4174.236431
4337.16188
4512.762817
4702.541376
3400.773286
3298.149176
3201.372339
3109.968144
3023.514642
2941.633233
2863.975788
2790.232341
2720.122467
2653.395649
2589.820169
2529.177194
2471.282025
2415.957652
2363.039109
2312.381164
2263.844184
2217.302206
2172.642142
2129.756549
2088.542845
2048.909468
2010.770941
1974.047614
1938.66574
1904.556635
1871.657654
1839.904862
1809.242068
1779.620968
1750.988422
1723.298398
1696.507534
1670.575262
1645.463395
1621.135961
1597.558996
1574.697468
1552.522944
1531.008438
1510.124067
1489.844668
1470.147393
1451.006976
1432.403203
1414.315528
1396.722213
1379.606119
1362.948599
3400.7737
3509.777123
3625.753671
3749.373319
3881.398687
4022.691573
4174.23773
4337.160927
4512.763994
4702.539093
3298.148925
3201.37272
3109.968329
3023.514654
2941.632678
2863.975102
2790.231659
2720.121617
2653.39526
2589.819907
2529.177095
2471.28198
2415.957619
2363.039167
2312.381339
2263.844232
2217.302215
2172.642196
2129.756466
2088.542932
2048.909594
2010.770934
1974.04768
1938.665868
1904.556467
1871.657557
1839.904665
1809.242083
1779.621059
1750.988588
1723.298357
1696.507452
1670.575289
1645.46342
1621.135982
1597.559029
1574.69748
1552.522927
1531.008412
1510.124029
1489.844605
1470.147384
1451.006973
1432.403162
1414.315532
1396.722211
1379.606125
1362.948608
1346.733161
3298.148747
3400.774843
3509.776971
3625.752543
3749.373199
3881.398953
4022.691118
4174.238093
4337.162062
4512.763974
4702.540701
3201.373157
3109.968655
3023.514171
2941.633521
2863.975783
2790.232122
2720.122237
2653.3958
2589.820554
2529.177154
2471.282049
2415.957711
2363.039214
2312.381318
2263.844164
2217.30219
2172.642137
2129.756451
2088.542954
2048.90959
2010.770977
1974.047682
1938.665716
1904.556382
1871.657639
1839.90469
1809.242169
1779.621089
1750.988502
1723.298492
1696.507639
1670.57539
1645.463411
1621.135989
1597.558979
1574.697437
1552.522914
1531.008397
1510.124071
1489.844603
1470.1474
1451.006963
1432.403163
1414.315537
1396.722221
1379.606125
1362.948608
1346.733157
1330.943974
3201.371193
3298.150536
3400.77632
3509.777486
3625.753037
3749.372702
3881.398443
4022.690116
4174.237121
4337.161208
4512.764077
4702.541433
3109.968615
3023.513934
2941.632972
2863.97524
2790.232317
2720.122266
2653.395177
2589.819811
2529.177017
2471.282246
2415.957683
2363.039117
2312.381232
2263.844162
2217.302213
2172.642187
2129.756459
2088.542922
2048.909525
2010.770888
1974.047623
1938.665722
1904.556545
1871.657637
1839.904775
1809.242188
1779.621044
1750.988521
1723.298429
1696.507493
1670.575277
1645.463291
1621.13596
1597.558989
1574.697483
1552.522949
1531.008439
1510.124056
1489.844616
1470.147399
1451.006944
1432.403157
1414.315538
1396.722187
1379.606108
1362.948599
1346.733149
1330.943972
1315.56501
3109.96878
3201.375117
3298.150546
3400.775947
3509.777463
3625.753087
3749.373829
3881.399637
4022.691795
4174.238726
4337.161492
4512.762128
4702.539608
3023.5143
2941.633179
2863.976066
2790.231821
2720.121738
2653.395656
2589.820316
2529.177451
2471.281811
2415.957531
2363.039131
2312.381314
2263.844197
2217.302129
2172.642127
2129.756445
2088.542946
2048.909591
2010.770986
1974.047615
1938.665768
1904.556451
1871.657512
1839.904804
1809.242048
1779.621075
1750.988481
1723.298324
1696.507562
1670.575094
1645.463395
1621.136037
1597.559
1574.697451
1552.522929
1531.008401
1510.124073
1489.844632
1470.147381
1451.006978
1432.403177
1414.315532
1396.722192
1379.606117
1362.948603
1346.733163
1330.943982
1315.56501
1300.581996
3023.513876
3109.96885
3201.374767
3298.15115
3400.77574
3509.777831
3625.752931
3749.371983
3881.3994
4022.688744
4174.23731
4337.161815
4512.763108
4702.543391
2941.633213
2863.975837
2790.23199
2720.122331
2653.395751
2589.819844
2529.176915
2471.281758
2415.95755
2363.039086
2312.381292
2263.844174
2217.302238
2172.642184
2129.756532
2088.542922
2048.909528
2010.770888
1974.047645
1938.665843
1904.556486
1871.657702
1839.90475
1809.242059
1779.621041
1750.988511
1723.298526
1696.507436
1670.575337
1645.463546
1621.135999
1597.559044
1574.697483
1552.522939
1531.008427
1510.124062
1489.8446
1470.1474
1451.006961
1432.40318
1414.315518
1396.722226
1379.606161
1362.948612
1346.733171
1330.943971
1315.56501
1300.581992
1285.981384
2941.632665
3023.51677
3109.970508
3201.375007
3298.151178
3400.775101
3509.77722
3625.754032
3749.372136
3881.401697
4022.691157
4174.238323
4337.161833
4512.764896
4702.538289
2863.974933
2790.231645
2720.121991
2653.395368
2589.820475
2529.177282
2471.28216
2415.95792
2363.039246
2312.381239
2263.844188
2217.302141
2172.642112
2129.756456
2088.54294
2048.909646
2010.770976
1974.047631
1938.665717
1904.556414
1871.657579
1839.904766
1809.242126
1779.621172
1750.988584
1723.298328
1696.507545
1670.575354
1645.463344
1621.135834
1597.558876
1574.697483
1552.522919
1531.008419
1510.124046
1489.844614
1470.147394
1451.006955
1432.403166
1414.315524
1396.722245
1379.606122
1362.948618
1346.733139
1330.943965
1315.565007
1300.581993
1285.981386
1271.749168
2863.975688
2941.634449
3023.516613
3109.970644
3201.374155
3298.151482
3400.775599
3509.776992
3625.754923
3749.370634
3881.399747
4022.689018
4174.238127
4337.159834
4512.765026
4702.54012
2790.232687
2720.122273
2653.395494
2589.819912
2529.176925
2471.282299
2415.957976
2363.038988
2312.381149
2263.8442
2217.302236
2172.642251
2129.756495
2088.542934
2048.90955
2010.770904
1974.047646
1938.665766
1904.556509
1871.657649
1839.904719
1809.242055
1779.621038
1750.988411
1723.298415
1696.507563
1670.575202
1645.463483
1621.136058
1597.559164
1574.697511
1552.522806
1531.008418
1510.124061
1489.844619
1470.147387
1451.006951
1432.403161
1414.315541
1396.722189
1379.606112
1362.948582
1346.733149
1330.944013
1315.565019
1300.581996
1285.981384
1271.749166
1257.872082
2790.231653
2863.976993
2941.634536
3023.516314
3109.970625
3201.37477
3298.150901
3400.776148
3509.775389
3625.755038
3749.371494
3881.400262
4022.690487
4174.239507
4337.160904
4512.764115
4702.5387
2720.121529
2653.395211
2589.82013
2529.177586
2471.281815
2415.956848
2363.038923
2312.381567
2263.844109
2217.302177
2172.642062
2129.756422
2088.542924
2048.90954
2010.770919
1974.047637
1938.665792
1904.556495
1871.657675
1839.904725
1809.242098
1779.621136
1750.988562
1723.298438
1696.507439
1670.575345
1645.463349
1621.135969
1597.558851
1574.697371
1552.522997
1531.008412
1510.12406
1489.844616
1470.147416
1451.006966
1432.403182
1414.315537
1396.722207
1379.60612
1362.948606
1346.733151
1330.943947
1315.564984
1300.581975
1285.981388
1271.749171
1257.872093
1244.339399
2720.121739
2790.232796
2863.97824
2941.635109
3023.517082
3109.970481
3201.374521
3298.150484
3400.777633
3509.775862
3625.754084
3749.373154
3881.399122
4022.688123
4174.238032
4337.160801
4512.76481
4702.542527
2653.396123
2589.820336
2529.177156
2471.281817
2415.957921
2363.039878
2312.381575
2263.844073
2217.302547
2172.642223
2129.7565
2088.54295
2048.909578
2010.770967
1974.04766
1938.665781
1904.556453
1871.657597
1839.90476
1809.242163
1779.621088
1750.988418
1723.298408
1696.507555
1670.575316
1645.463381
1621.135928
1597.559
1574.697577
1552.522993
1531.008496
1510.124055
1489.844619
1470.147378
1451.006937
1432.403179
1414.315536
1396.722206
1379.606138
1362.948614
1346.733175
1330.943984
1315.565031
1300.582021
1285.981386
1271.749167
1257.872079
1244.33939
1231.138902
2653.395068
2720.123807
2790.233444
2863.977514
2941.634836
3023.515816
3109.971219
3201.375264
3298.149034
3400.777708
3509.775608
3625.753966
3749.370358
3881.401572
4022.690422
4174.239393
4337.159038
4512.761396
4702.545284
2589.820243
2529.177426
2471.282062
2415.958075
2363.038998
2312.38062
2263.844051
2217.30203
2172.641754
2129.756417
2088.542922
2048.909563
2010.77091
1974.047658
1938.665744
1904.55645
1871.657622
1839.904745
1809.242063
1779.621038
1750.988543
1723.298417
1696.507535
1670.575259
1645.463365
1621.135969
1597.55908
1574.697374
1552.52295
1531.008365
1510.124025
1489.84462
1470.147397
1451.006973
1432.40317
1414.315534
1396.722208
1379.606137
1362.948582
1346.733156
1330.943949
1315.565002
1300.581996
1285.98139
1271.749186
1257.872086
1244.339397
1231.138911
1218.259939
2589.819991
2653.396212
2720.124193
2790.234051
2863.977615
2941.635734
3023.515752
3109.969329
3201.376506
3298.149546
3400.777878
3509.775837
3625.756229
3749.370493
3881.402649
4022.688314
4174.241789
4337.163489
4512.758551
4702.545091
2529.176855
2471.281792
2415.957682
2363.039062
2312.381595
2263.844401
2217.302038
2172.642555
2129.756907
2088.542967
2048.909591
2010.770938
1974.047642
1938.665746
1904.556525
1871.657611
1839.904706
1809.242117
1779.62107
1750.988531
1723.298382
1696.507547
1670.575239
1645.463389
1621.136038
1597.559007
1574.697457
1552.522968
1531.008333
1510.124028
1489.844591
1470.147397
1451.006945
1432.403173
1414.315527
1396.722208
1379.606118
1362.948609
1346.733151
1330.943989
1315.565027
1300.582001
1285.981368
1271.74915
1257.872087
1244.339396
1231.138909
1218.259932
1205.69132
2529.176728
2589.821392
2653.397267
2720.124373
2790.234336
2863.976916
2941.635084
3023.518155
3109.969454
3201.376616
3298.148389
3400.777866
3509.774619
3625.755331
3749.368221
3881.402781
4022.685864
4174.235562
4337.16482
4512.757462
4702.548872
2471.282103
2415.957468
2363.038859
2312.381302
2263.844047
2217.302034
2172.642068
2129.755944
2088.542627
2048.909568
2010.770914
1974.04763
1938.665791
1904.556473
1871.657586