/*--------------------------------*- C++ -*----------------------------------*\
| =========                 |                                                 |
| \\      /  F ield         | OpenFOAM: The Open Source CFD Toolbox           |
|  \\    /   O peration     | Version:  v1612+-hyStrath                       |
|   \\  /    A nd           | Web:      www.OpenFOAM.com                      |
|    \\/     M anipulation  |                                                 |
\*---------------------------------------------------------------------------*/
FoamFile
{
    version     2.0;
    format      ascii;
    class       volScalarField;
    location    "0.00127";
    object      omega;
}
// * * * * * * * * * * * * * * * * * * * * * * * * * * * * * * * * * * * * * //

dimensions      [0 0 -1 0 0 0 0];

internalField   nonuniform List<scalar> 
322080
(
1676244.245
1676244.217
1613904.443
1676244.234
1613904.436
1556034.913
1676244.235
1613904.414
1556034.927
1502175.374
1676244.177
1613904.435
1556034.924
1502175.388
1451926.666
1676244.196
1613904.529
1556034.926
1502175.385
1451926.663
1404941.302
1676244.321
1613904.397
1556034.878
1502175.386
1451926.675
1404941.299
1360914.098
1676244.268
1613904.391
1556034.89
1502175.34
1451926.557
1404941.298
1360914.094
1319577.317
1676244.176
1613904.462
1556034.998
1502175.469
1451926.754
1404941.337
1360914.081
1319577.316
1280694.491
1676244.24
1613904.37
1556034.85
1502175.348
1451926.652
1404941.276
1360914.143
1319577.328
1280694.491
1244055.903
1676244.228
1613904.431
1556034.961
1502175.405
1451926.742
1404941.289
1360914.069
1319577.278
1280694.503
1244055.902
1209475.15
1676244.222
1613904.422
1556034.926
1502175.332
1451926.61
1404941.283
1360914.08
1319577.408
1280694.557
1244055.881
1209475.15
1176786.059
1676244.291
1613904.501
1556034.993
1502175.386
1451926.709
1404941.331
1360914.076
1319577.32
1280694.39
1244055.896
1209475.162
1176786.048
1145839.104
1676244.265
1613904.424
1556034.853
1502175.386
1451926.679
1404941.268
1360914.128
1319577.313
1280694.491
1244055.892
1209475.155
1176786.05
1145839.105
1116501.057
1676244.207
1613904.397
1556034.914
1502175.379
1451926.605
1404941.317
1360914.138
1319577.287
1280694.486
1244055.902
1209475.152
1176786.003
1145839.108
1116501.069
1088652.951
1676244.231
1613904.457
1556034.947
1502175.371
1451926.668
1404941.307
1360914.045
1319577.305
1280694.531
1244055.898
1209475.162
1176786.142
1145839.154
1116501.063
1088652.953
1062184.02
1676244.262
1613904.426
1556034.902
1502175.355
1451926.719
1404941.307
1360914.099
1319577.343
1280694.477
1244055.876
1209475.158
1176786
1145839.044
1116501.053
1088652.948
1062184.023
1036996.011
1676244.424
1613904.436
1556034.921
1502175.405
1451926.643
1404941.306
1360914.1
1319577.337
1280694.459
1244055.95
1209475.136
1176786.066
1145839.125
1116501.082
1088652.961
1062184.027
1036996.005
1012999.664
1676244.004
1613904.168
1556035.001
1502175.379
1451926.702
1404941.332
1360914.054
1319577.339
1280694.511
1244055.87
1209475.152
1176786.045
1145839.123
1116501.091
1088652.906
1062183.982
1036996.002
1012999.659
990115.4028
1676244.254
1613904.575
1556035.057
1502175.425
1451926.673
1404941.253
1360914.081
1319577.284
1280694.463
1244055.873
1209475.184
1176786.061
1145839.103
1116501.028
1088652.982
1062184.052
1036995.994
1012999.664
990115.4071
968269.0114
1676244.419
1613904.51
1556035.058
1502175.159
1451926.766
1404941.314
1360914.126
1319577.358
1280694.546
1244055.92
1209475.13
1176786.043
1145839.066
1116501.067
1088652.921
1062184.002
1036996.042
1012999.671
990115.4052
968269.0164
947390.294
1676243.989
1613904.236
1556034.65
1502175.557
1451926.767
1404941.079
1360914.07
1319577.29
1280694.494
1244055.877
1209475.136
1176786.086
1145839.149
1116501.078
1088652.959
1062184.056
1036995.992
1012999.644
990115.4309
968269.0086
947390.2846
927420.2182
1676244.443
1613904.797
1556035.074
1502175.419
1451926.233
1404941.439
1360914.259
1319577.34
1280694.495
1244055.906
1209475.176
1176786.046
1145839.059
1116501.022
1088652.972
1062184.04
1036995.995
1012999.656
990115.3915
968269.0108
947390.2911
927420.2242
908301.9369
1676244.138
1613904.117
1556034.752
1502175.204
1451926.695
1404941.399
1360913.914
1319577.196
1280694.482
1244055.91
1209475.13
1176786.048
1145839.14
1116501.102
1088652.959
1062184.009
1036996.031
1012999.708
990115.4025
968269.0092
947390.3045
927420.2244
908301.9435
889982.2584
1676244.226
1613904.577
1556035.076
1502175.476
1451927.038
1404941.34
1360914.225
1319577.445
1280694.7
1244055.891
1209475.137
1176786.071
1145839.106
1116501.07
1088652.921
1062183.997
1036995.957
1012999.604
990115.3589
968269.0205
947390.2911
927420.2049
908301.9384
889982.2521
872414.4071
1676244.226
1613904.455
1556034.84
1502175.322
1451926.513
1404941.198
1360914.137
1319577.195
1280694.343
1244055.89
1209475.182
1176786.047
1145839.098
1116501.038
1088652.963
1062184.035
1036996.064
1012999.699
990115.4357
968269.0219
947390.2543
927420.2312
908301.9521
889982.254
872414.4084
855553.1417
1676244.278
1613904.396
1556034.92
1502175.516
1451926.619
1404941.394
1360914.016
1319577.384
1280694.62
1244056.013
1209475.184
1176786.039
1145839.104
1116501.062
1088652.96
1062184.009
1036995.994
1012999.656
990115.4103
968269.0127
947390.3033
927420.241
908301.9083
889982.2376
872414.4163
855553.1371
839357.7772
1676244.209
1613904.466
1556034.917
1502175.406
1451926.611
1404941.239
1360913.954
1319577.214
1280694.339
1244055.797
1209475.036
1176785.988
1145839.12
1116501.068
1088652.954
1062184.042
1036996
1012999.656
990115.3673
968268.9892
947390.2946
927420.2029
908301.966
889982.2772
872414.415
855553.1349
839357.7796
823791.7094
1676244.089
1613904.446
1556034.97
1502175.187
1451926.681
1404941.427
1360914.224
1319577.578
1280694.601
1244055.944
1209475.277
1176786.1
1145839.114
1116501.061
1088652.938
1062184.01
1036996.004
1012999.661
990115.4353
968269.0501
947390.3074
927420.2351
908301.9285
889982.246
872414.3943
855553.1212
839357.7781
823791.7124
808819.978
1676244.481
1613904.42
1556034.754
1502175.425
1451926.79
1404941.182
1360914.065
1319577.129
1280694.408
1244055.815
1209475.023
1176785.984
1145839.114
1116501.052
1088652.953
1062184.038
1036995.996
1012999.667
990115.4111
968268.992
947390.2709
927420.2142
908301.924
889982.2887
872414.4078
855553.1724
839357.7882
823791.7114
808819.9763
794409.2706
1676244.053
1613904.408
1556035.052
1502175.503
1451926.582
1404941.293
1360914.092
1319577.3
1280694.609
1244055.818
1209475.261
1176786.094
1145839.046
1116501.161
1088652.967
1062184.034
1036996.033
1012999.687
990115.3881
968269.0003
947390.3041
927420.2088
908301.9391
889982.2465
872414.4144
855553.1433
839357.7786
823791.6954
808819.9764
794409.2695
780529.6162
1676244.36
1613904.486
1556034.907
1502175.275
1451926.664
1404941.337
1360914.079
1319577.49
1280694.454
1244055.887
1209475.217
1176785.993
1145839.17
1116500.997
1088652.891
1062184.01
1036995.984
1012999.629
990115.3866
968269.0297
947390.2823
927420.2144
908301.9653
889982.2615
872414.4092
855553.1134
839357.7536
823791.7165
808819.9912
794409.27
780529.621
767153.1309
1676244.229
1613904.334
1556034.881
1502175.359
1451926.671
1404941.307
1360914.142
1319577.203
1280694.401
1244056.018
1209475.131
1176786.149
1145839.216
1116501.116
1088653.065
1062184.03
1036996.015
1012999.683
990115.4388
968269.0267
947390.2886
927420.2476
908301.9424
889982.2307
872414.393
855553.1433
839357.7955
823791.7282
808819.9525
794409.2605
780529.6178
767153.1315
754253.8696
1676244.264
1613904.423
1556034.924
1502175.427
1451926.748
1404941.317
1360913.989
1319577.372
1280694.477
1244055.93
1209475.014
1176786.061
1145838.914
1116500.894
1088652.889
1062183.99
1036996.082
1012999.663
990115.3957
968268.9971
947390.2884
927420.2066
908301.9263
889982.2623
872414.4193
855553.1574
839357.7923
823791.7012
808820.0025
794409.2881
780529.6368
767153.1293
754253.866
741807.6177
1676244.165
1613904.464
1556034.912
1502175.386
1451926.65
1404941.303
1360914.106
1319577.321
1280694.546
1244055.903
1209475.198
1176786.042
1145839.1
1116501.146
1088653.041
1062183.93
1036995.978
1012999.626
990115.3921
968269.0109
947390.2788
927420.2278
908301.9532
889982.2474
872414.4262
855553.1293
839357.7502
823791.7004
808819.9762
794409.2334
780529.6084
767153.1374
754253.8729
741807.6103
729791.8045
1676244.208
1613904.44
1556034.955
1502175.375
1451926.678
1404941.26
1360914.078
1319577.348
1280694.506
1244055.858
1209475.154
1176786.094
1145839.207
1116501.074
1088652.905
1062184.146
1036996.09
1012999.642
990115.4395
968269.0258
947390.294
927420.2182
908301.934
889982.2557
872414.4105
855553.1131
839357.8012
823791.7151
808819.975
794409.2742
780529.622
767153.1288
754253.8548
741807.6138
729791.8067
718186.0795
1676244.336
1613904.424
1556034.947
1502175.418
1451926.663
1404941.315
1360914.082
1319577.332
1280694.429
1244055.912
1209475.111
1176786.08
1145839.065
1116501.081
1088652.962
1062183.999
1036995.869
1012999.595
990115.3854
968268.9496
947390.2938
927420.2328
908301.9443
889982.2563
872414.3964
855553.1447
839357.784
823791.7168
808819.9901
794409.2735
780529.6011
767153.1424
754253.872
741807.6151
729791.8025
718186.0827
706969.1441
1676244.189
1613904.456
1556034.894
1502175.322
1451926.636
1404941.307
1360914.109
1319577.285
1280694.484
1244055.924
1209475.178
1176786.021
1145839.032
1116501.01
1088652.858
1062184.048
1036996.088
1012999.779
990115.4917
968269.1367
947390.2857
927420.2175
908301.9447
889982.2657
872414.4175
855553.1516
839357.7729
823791.7012
808819.944
794409.2633
780529.6298
767153.1214
754253.8553
741807.6059
729791.8013
718186.0831
706969.1436
696122.6281
1676244.262
1613904.448
1556034.881
1502175.449
1451926.688
1404941.265
1360914.096
1319577.347
1280694.57
1244055.911
1209475.109
1176786.083
1145839.157
1116501.178
1088653.007
1062184.04
1036995.931
1012999.664
990115.2927
968268.8531
947390.3011
927420.2804
908301.943
889982.2345
872414.4135
855553.1366
839357.7806
823791.7105
808819.9956
794409.2869
780529.62
767153.1239
754253.8923
741807.6384
729791.8244
718186.0821
706969.1449
696122.6324
685630.6084
1676244.027
1613904.428
1556034.955
1502175.328
1451926.592
1404941.325
1360914.127
1319577.338
1280694.449
1244055.811
1209475.156
1176786.011
1145839.07
1116501.051
1088652.908
1062183.988
1036996.027
1012999.695
990115.3936
968269.1317
947390.373
927420.1107
908301.9341
889982.266
872414.412
855553.1312
839357.767
823791.7201
808819.986
794409.2746
780529.6224
767153.1402
754253.8678
741807.5934
729791.7777
718186.0657
706969.1448
696122.627
685630.6055
675475.4161
1676244.538
1613904.243
1556034.884
1502175.402
1451926.751
1404941.362
1360914.12
1319577.301
1280694.508
1244055.926
1209475.228
1176786.077
1145839.145
1116501.022
1088652.935
1062183.985
1036995.989
1012999.604
990115.4401
968269.0218
947390.2007
927420.2016
908301.9584
889982.1887
872414.4145
855553.146
839357.7952
823791.706
808819.9595
794409.2659
780529.6116
767153.1219
754253.8613
741807.6211
729791.8145
718186.0897
706969.1556
696122.631
685630.6116
675475.41
665641.8481
1676243.654
1613904.015
1556035.422
1502175.422
1451926.65
1404941.271
1360914.04
1319577.304
1280694.473
1244055.861
1209475.123
1176785.993
1145839.121
1116501.038
1088652.995
1062184.092
1036996.048
1012999.717
990115.4271
968268.9723
947390.2985
927420.2461
908301.9249
889982.2729
872414.3992
855553.1374
839357.7822
823791.7038
808819.995
794409.2744
780529.6225
767153.1313
754253.8652
741807.6146
729791.7941
718186.0994
706969.1323
696122.6139
685630.6064
675475.4133
665641.8539
656115.5831
1676244.905
1613905.052
1556034.562
1502175.318
1451926.646
1404941.274
1360914.121
1319577.326
1280694.467
1244055.94
1209475.173
1176786.092
1145839.125
1116501.101
1088652.996
1062184
1036996.014
1012999.646
990115.4077
968269.057
947390.2471
927420.2388
908301.9634
889982.3492
872414.4405
855553.1876
839357.7705
823791.7067
808819.9792
794409.2651
780529.6151
767153.1253
754253.8749
741807.6184
729791.8109
718186.079
706969.1439
696122.6509
685630.6182
675475.4121
665641.8475
656115.5823
646883.1645
1676243.661
1613903.967
1556035.04
1502175.466
1451926.659
1404941.346
1360914.077
1319577.303
1280694.504
1244055.938
1209475.148
1176786.034
1145839.093
1116501.018
1088652.861
1062184.023
1036996.001
1012999.611
990115.3869
968268.9308
947390.2529
927420.2756
908301.8788
889982.2069
872414.3258
855553.0714
839357.7901
823791.7236
808819.9815
794409.2635
780529.6059
767153.1354
754253.8689
741807.6107
729791.8152
718186.0752
706969.1479
696122.6136
685630.6102
675475.3976
665641.8531
656115.5834
646883.1678
637931.8826
1676244.729
1613904.868
1556034.948
1502174.963
1451926.878
1404941.342
1360914.082
1319577.351
1280694.524
1244055.863
1209475.147
1176786.057
1145839.086
1116501.058
1088652.98
1062184.06
1036995.944
1012999.653
990115.4149
968269.0758
947390.3688
927420.1971
908301.9203
889982.2799
872414.4412
855553.1394
839357.8155
823791.6646
808819.9615
794409.2676
780529.633
767153.1403
754253.8638
741807.6223
729791.79
718186.0813
706969.1441
696122.6408
685630.5981
675475.4218
665641.8599
656115.5837
646883.1662
637931.8764
629249.7919
1676244.444
1613904.66
1556034.955
1502175.432
1451926.713
1404940.952
1360913.743
1319577.341
1280694.493
1244055.894
1209475.173
1176786.056
1145839.113
1116501.101
1088652.945
1062183.992
1036996.045
1012999.725
990115.4081
968268.9779
947390.228
927420.2303
908301.989
889982.2403
872414.4436
855553.1919
839357.8008
823791.7594
808820.0096
794409.2834
780529.6121
767153.1282
754253.8706
741807.6175
729791.8034
718186.0911
706969.1324
696122.6371
685630.6047
675475.4323
665641.8421
656115.5939
646883.1616
637931.8819
629249.7928
620825.5737
1676244.103
1613904.07
1556034.463
1502175.353
1451926.682
1404941.378
1360914.683
1319577.418
1280694.444
1244055.893
1209475.104
1176786.037
1145839.114
1116501.077
1088652.947
1062184.033
1036996.05
1012999.663
990115.3641
968269.0189
947390.311
927420.2301
908301.9672
889982.2502
872414.4056
855553.1036
839357.6643
823791.6437
808819.9385
794409.2401
780529.6171
767153.1436
754253.8715
741807.6111
729791.8
718186.0722
706969.1441
696122.625
685630.6034
675475.3968
665641.8547
656115.5812
646883.1553
637931.8832
629249.7869
620825.5788
612647.4916
1676243.673
1613904.154
1556035.081
1502175.966
1451926.695
1404941.368
1360913.735
1319577.096
1280694.723
1244055.912
1209475.204
1176786.095
1145839.094
1116501.037
1088652.973
1062184.027
1036995.968
1012999.605
990115.4062
968269.0313
947390.306
927420.2568
908301.8956
889982.219
872414.4042
855553.1377
839357.8233
823791.7658
808820.0082
794409.3267
780529.6708
767153.1279
754253.8658
741807.6136
729791.8198
718186.0841
706969.1565
696122.6367
685630.6101
675475.4144
665641.8409
656115.5727
646883.1698
637931.8698
629249.7919
620825.5791
612647.4909
604706.0872
1676244.558
1613904.953
1556035.187
1502175.033
1451926.326
1404941.296
1360914.115
1319577.389
1280694.27
1244055.771
1209475.121
1176786.028
1145839.116
1116501.097
1088652.925
1062184.011
1036996.019
1012999.728
990115.4506
968269.0237
947390.2673
927420.1922
908301.926
889982.2747
872414.4453
855553.1468
839357.7872
823791.6907
808819.9574
794409.2194
780529.5133
767153.1411
754253.8703
741807.6079
729791.798
718186.0809
706969.1405
696122.6208
685630.6067
675475.4215
665641.8588
656115.5985
646883.1616
637931.8914
629249.8074
620825.574
612647.4921
604706.081
596992.3699
1676244.053
1613904.44
1556034.482
1502175.617
1451926.803
1404941.409
1360914.135
1319577.374
1280694.523
1244056.02
1209475.111
1176786.081
1145839.129
1116501.04
1088652.956
1062184.047
1036996
1012999.638
990115.3426
968268.9783
947390.3067
927420.2031
908301.9693
889982.2982
872414.381
855553.1199
839357.7872
823791.7265
808820.0352
794409.3361
780529.7362
767153.107
754253.8541
741807.6259
729791.8146
718186.083
706969.1371
696122.6332
685630.6195
675475.4035
665641.8505
656115.5637
646883.1693
637931.8836
629249.7658
620825.5744
612647.4927
604706.083
596992.3732
589496.2926
1613904.604
1676244.874
1556034.763
1502175.429
1451926.546
1404941.353
1360914.128
1319577.324
1280694.529
1244055.978
1209475.306
1176786.066
1145839.088
1116501.052
1088652.971
1062183.995
1036995.999
1012999.664
990115.429
968269.0441
947390.3023
927420.2018
908301.9767
889982.2419
872414.4156
855553.1703
839357.7686
823791.735
808819.9371
794409.2029
780529.548
767153.107
754253.9401
741807.5647
729791.7929
718186.0795
706969.1409
696122.6306
685630.6056
675475.4176
665641.8479
656115.5886
646883.1694
637931.8731
629249.7998
620825.5786
612647.4912
604706.0846
596992.3701
589496.2938
582209.3978
1556035.247
1613904.66
1676244.997
1502175.338
1451926.669
1404941.152
1360914.271
1319577.441
1280694.552
1244055.963
1209474.885
1176785.892
1145839.221
1116501.098
1088652.948
1062184.017
1036996.025
1012999.663
990115.4074
968269.002
947390.2833
927420.2435
908301.9258
889982.2135
872414.4077
855553.0955
839357.7687
823791.7052
808819.9445
794409.2973
780529.6181
767153.1412
754253.848
741807.6101
729791.8261
718186.0875
706969.1483
696122.6338
685630.6033
675475.4176
665641.8494
656115.5866
646883.1631
637931.891
629249.79
620825.5733
612647.4999
604706.0902
596992.3697
589496.294
582209.3996
575124.1128
1502175.138
1556035.537
1613905.221
1676244.892
1451926.51
1404941.373
1360913.964
1319577.063
1280694.219
1244055.605
1209475.216
1176786.422
1145838.922
1116500.922
1088652.922
1062184.026
1036996.006
1012999.651
990115.4097
968269.0298
947390.2937
927420.229
908301.9304
889982.2888
872414.4116
855553.1384
839357.7959
823791.7052
808819.9817
794409.2484
780529.6507
767153.1383
754253.8777
741807.6052
729791.8119
718186.0705
706969.1459
696122.6317
685630.6086
675475.4159
665641.8501
656115.5751
646883.1759
637931.8701
629249.7923
620825.582
612647.4768
604706.0794
596992.357
589496.2942
582209.3979
575124.1069
568231.8241
1451926.938
1502175.983
1556035.74
1613905.049
1676244.77
1404941.61
1360914.082
1319577.507
1280694.954
1244056.267
1209475.166
1176785.825
1145839.213
1116501.189
1088652.935
1062184.037
1036996.018
1012999.67
990115.4022
968268.9961
947390.2738
927420.1895
908301.9159
889982.2526
872414.4106
855553.1531
839357.7881
823791.6828
808819.9819
794409.2764
780529.5993
767153.1207
754253.8239
741807.6392
729791.7959
718186.0913
706969.2025
696122.6319
685630.6076
675475.4105
665641.8487
656115.5889
646883.1648
637931.8844
629249.8012
620825.569
612647.5033
604706.0932
596992.3716
589496.3045
582209.3988
575124.1135
568231.8269
561525.8083
1404940.719
1451927.299
1502175.911
1556035.67
1613905.146
1676244.984
1360914.024
1319577.411
1280694.399
1244055.415
1209475.252
1176786.079
1145839.166
1116500.875
1088653.084
1062184.057
1036995.993
1012999.651
990115.4164
968269.0145
947390.3066
927420.2488
908301.9881
889982.2718
872414.4159
855553.1473
839357.7567
823791.7265
808820.0051
794409.2774
780529.6358
767153.1761
754253.856
741807.6309
729791.7651
718186.0874
706969.0957
696122.5844
685630.6075
675475.4102
665641.8547
656115.5885
646883.1562
637931.8743
629249.7755
620825.5793
612647.4909
604706.0702
596992.3856
589496.2822
582209.3958
575124.1103
568231.8217
561525.8091
554999.1606
1360914.262
1404942.2
1451927.475
1502176.07
1556035.171
1613904.765
1676244.255
1319577.291
1280694.206
1244056.101
1209475.258
1176785.871
1145839.127
1116501.131
1088652.781
1062183.921
1036996.149
1012999.684
990115.3981
968269.008
947390.3019
927420.2198
908301.9099
889982.2115
872414.403
855553.1163
839357.759
823791.7385
808819.9609
794409.2588
780529.6379
767153.1053
754253.867
741807.6683
729791.8323
718186.1156
706969.1481
696122.6498
685630.6305
675475.4119
665641.8544
656115.5751
646883.1669
637931.8878
629249.8025
620825.5799
612647.4877
604706.0894
596992.3629
589496.2976
582209.4116
575124.1119
568231.8259
561525.8093
554999.1619
548644.4708
1319577.105
1360914.482
1404941.891
1451927.437
1502176.395
1556036.035
1613905.231
1676245.451
1280694.439
1244055.956
1209475.076
1176786.16
1145839.177
1116501.108
1088653.017
1062184.084
1036995.88
1012999.628
990115.4067
968269.0153
947390.2871
927420.2109
908301.9448
889982.2944
872414.435
855553.1353
839357.7963
823791.6951
808819.9731
794409.2979
780529.6175
767153.113
754253.8986
741807.5753
729791.7604
718186.059
706969.1221
696122.6482
685630.6412
675475.4175
665641.847
656115.5849
646883.1731
637931.8798
629249.7848
620825.5723
612647.4895
604706.0862
596992.3678
589496.2919
582209.3765
575124.1119
568231.8128
561525.8096
554999.1604
548644.4703
542456.0095
1280694.629
1319577.921
1360914.904
1404942.04
1451927.056
1502175.851
1556035.5
1613904.889
1676245.073
1244055.85
1209475.184
1176785.993
1145838.975
1116501.159
1088652.989
1062184.099
1036996.105
1012999.807
990115.4475
968269.0213
947390.2968
927420.2302
908301.9396
889982.2386
872414.3682
855553.1422
839357.7851
823791.7038
808820.0047
794409.2395
780529.5824
767153.1364
754253.8572
741807.6048
729791.861
718186.0938
706969.1847
696122.6186
685630.5666
675475.3843
665641.8457
656115.5878
646883.1579
637931.8777
629249.7862
620825.5759
612647.4938
604706.0881
596992.3789
589496.2966
582209.4178
575124.1102
568231.8317
561525.8195
554999.1594
548644.4717
542456.0071
536427.443
1244055.98
1280695.107
1319578.185
1360914.878
1404941.987
1451927.44
1502176.239
1556035.329
1613905.152
1676244.377
1209475.105
1176786.134
1145839.041
1116501.163
1088652.799
1062183.867
1036995.872
1012999.518
990115.3162
968268.9316
947390.2633
927420.2148
908301.9283
889982.2589
872414.4292
855553.159
839357.7884
823791.7227
808819.9761
794409.27
780529.6265
767153.1338
754253.8805
741807.6497
729791.8017
718186.0597
706969.115
696122.6237
685630.5993
675475.4436
665641.8313
656115.5588
646883.1676
637931.8869
629249.7938
620825.5879
612647.4981
604706.082
596992.3697
589496.2831
582209.3952
575124.1069
568231.8306
561525.8048
554999.1609
548644.4712
542456.0092
536427.446
530553.2087
1209475.055
1244056.282
1280695.098
1319577.831
1360914.799
1404942.109
1451927.34
1502176.205
1556035.85
1613905.112
1676244.912
1176786.276
1145839.141
1116501
1088653.089
1062184.1
1036996.032
1012999.729
990115.501
968269.1544
947390.2836
927420.239
908301.9602
889982.2752
872414.4222
855553.1355
839357.7798
823791.7025
808819.9709
794409.2776
780529.6255
767153.1489
754253.8812
741807.5965
729791.772
718186.0887
706969.1238
696122.6544
685630.6101
675475.4129
665641.879
656115.625
646883.2037
637931.8835
629249.7964
620825.5701
612647.4827
604706.0775
596992.3643
589496.2981
582209.3944
575124.1129
568231.8272
561525.8052
554999.1627
548644.4748
542456.0093
536427.4462
530553.2074
524827.9496
1176785.601
1209475.721
1244056.733
1280695.259
1319578.043
1360914.631
1404941.866
1451927.218
1502175.712
1556035.664
1613905.156
1676245.128
1145839.135
1116500.931
1088652.906
1062183.914
1036996.096
1012999.739
990115.2875
968268.9003
947390.2373
927420.3072
908301.9508
889982.2418
872414.3923
855553.1351
839357.7881
823791.7198
808819.9736
794409.2668
780529.6029
767153.1176
754253.8604
741807.5987
729791.8294
718186.0881
706969.154
696122.6611
685630.5938
675475.4196
665641.8567
656115.5731
646883.1635
637931.8409
629249.7861
620825.5736
612647.499
604706.0901
596992.3793
589496.2928
582209.399
575124.1124
568231.8203
561525.8031
554999.1632
548644.4624
542456.003
536427.443
530553.2042
524827.949
519246.214
1145839.209
1176786.831
1209475.765
1244056.641
1280695.205
1319578.088
1360915.093
1404942.058
1451927.984
1502176.157
1556035.778
1613904.565
1676244.438
1116501.049
1088652.967
1062184.197
1036995.931
1012999.56
990115.4532
968269.0741
947390.3876
927420.1579
908301.8982
889982.2472
872414.421
855553.1474
839357.7588
823791.6994
808819.9689
794409.2751
780529.6258
767153.1522
754253.8581
741807.6149
729791.7964
718186.0439
706969.1643
696122.6118
685630.605
675475.4058
665641.8198
656115.5981
646883.0983
637931.8777
629249.8136
620825.5778
612647.4877
604706.0829
596992.3657
589496.299
582209.4049
575124.106
568231.8324
561525.8101
554999.1612
548644.4642
542456.0062
536427.4443
530553.2093
524827.9525
519246.2139
513803.1648
1116500.892
1145839.298
1176786.665
1209475.94
1244056.631
1280695.332
1319577.934
1360914.742
1404941.749
1451927.126
1502175.697
1556035.894
1613905.047
1676245.642
1088652.986
1062184.131
1036995.99
1012999.763
990115.4842
968268.9107
947390.2022
927420.1403
908301.906
889982.232
872414.4139
855553.1395
839357.7971
823791.7192
808819.9994
794409.267
780529.6039
767153.1182
754253.8684
741807.6414
729791.8087
718186.1114
706969.1453
696122.6155
685630.5931
675475.4163
665641.8913
656115.5532
646883.1848
637931.9318
629249.7999
620825.5933
612647.499
604706.0865
596992.3748
589496.2948
582209.3932
575124.1128
568231.8265
561525.8113
554999.1559
548644.4765
542456.0221
536427.4476
530553.2124
524827.9486
519246.2139
513803.1631
508494.2066
1088652.825
1116501.767
1145839.909
1176786.792
1209475.887
1244056.441
1280695.243
1319578.049
1360915.048
1404942.396
1451927.977
1502176.071
1556035.807
1613905.68
1676244.124
1062183.814
1036995.863
1012999.647
990115.3557
968269.1292
947390.3312
927420.2801
908302.0349
889982.2884
872414.3955
855553.1449
839357.7637
823791.6944
808819.9731
794409.2736
780529.6456
767153.1493
754253.8637
741807.5969
729791.7835
718186.0679
706969.1511
696122.6391
685630.6394
675475.4424
665641.8213
656115.5918
646883.1912
637931.8599
629249.741
620825.5334
612647.4993
604706.0794
596992.3722
589496.2894
582209.3983
575124.1108
568231.8242
561525.8061
554999.1581
548644.4833
542456.0081
536427.4498
530553.2009
524827.9462
519246.2126
513803.1637
508494.2077
503314.5594
1062184.055
1088653.5
1116501.665
1145839.906
1176786.595
1209475.982
1244056.497
1280695.475
1319578.105
1360914.724
1404941.744
1451927.317
1502176.215
1556035.2
1613905.64
1676244.649
1036996.231
1012999.756
990115.4008
968268.9363
947390.2053
927420.3259
908302.0529
889982.1987
872414.3651
855553.1497
839357.7971
823791.7432
808819.987
794409.2718
780529.6119
767153.1239
754253.869
741807.6147
729791.8173
718186.0928
706969.1343
696122.6144
685630.5923
675475.3809
665641.852
656115.5985
646883.1367
637931.9095
629249.8212
620825.6362
612647.5094
604706.0389
596992.372
589496.2945
582209.4002
575124.1082
568231.8228
561525.8044
554999.1642
548644.4633
542456.0046
536427.4369
530553.2042
524827.9638
519246.217
513803.1646
508494.2068
503314.5589
498259.6902
1036995.906
1062184.385
1088653.581
1116501.623
1145839.813
1176786.834
1209475.92
1244056.387
1280695.207
1319578.029
1360915.075
1404941.968
1451927.684
1502176.7
1556035.799
1613905.604
1676243.975
1012999.49
990115.2951
968269.012
947390.437
927420.1613
908301.6659
889982.1776
872414.5116
855553.119
839357.7768
823791.6775
808819.962
794409.2682
780529.6088
767153.1295
754253.8661
741807.6237
729791.8121
718186.1019
706969.1367
696122.6298
685630.627
675475.4344
665641.8602
656115.5545
646883.1878
637931.8617
629249.7896
620825.5246
612647.4592
604706.1077
596992.37
589496.2944
582209.3993
575124.1187
568231.8285
561525.8121
554999.1627
548644.4699
542456.0073
536427.4454
530553.205
524827.9397
519246.2044
513803.157
508494.2083
503314.5604
498259.6942
493325.9744
1012999.545
1036996.372
1062184.77
1088653.71
1116502.006
1145839.73
1176786.647
1209476.123
1244056.635
1280695.549
1319577.72
1360915.689
1404941.799
1451927.143
1502176.146
1556035.743
1613906.49
1676244.394
990115.623
968269.0961
947390.29
927420.1619
908302.0345
889982.5077
872414.513
855553.1057
839357.9059
823791.7341
808819.9897
794409.2776
780529.6224
767153.1466
754253.8743
741807.6202
729791.7976
718186.0745
706969.1491
696122.6528
685630.6102
675475.3837
665641.8498
656115.5957
646883.1776
637931.8732
629249.7748
620825.5778
612647.5331
604706.106
596992.3997
589496.2927
582209.4002
575124.1049
568231.818
561525.8108
554999.1625
548644.4693
542456.014
536427.4484
530553.2138
524827.9533
519246.2214
513803.1737
508494.2073
503314.559
498259.6889
493325.971
488509.2285
990115.2953
1013000.128
1036996.641
1062184.598
1088653.507
1116501.62
1145840.116
1176786.578
1209475.899
1244056.583
1280695.524
1319577.761
1360914.683
1404942.592
1451928.206
1502177.035
1556034.696
1613906.707
1676244.76
968269.0482
947390.3744
927420.2479
908302.0916
889982.2043
872414.184
855553.0996
839357.7279
823791.5717
808819.9606
794409.2682
780529.6175
767153.1269
754253.8741
741807.6075
729791.7969
718186.0835
706969.1439
696122.6175
685630.5926
675475.4282
665641.8532
656115.5884
646883.1575
637931.8676
629249.7898
620825.6067
612647.4604
604706.0904
596992.3528
589496.2817
582209.4006
575124.112
568231.8308
561525.808
554999.1618
548644.47
542456.0136
536427.437
530553.207
524827.9406
519246.2109
513803.1646
508494.2089
503314.5661
498259.6916
493325.9736
488509.2315
483805.8228
968268.9443
990115.7662
1013000.234
1036996.747
1062184.772
1088653.777
1116501.484
1145839.839
1176786.753
1209476.27
1244056.645
1280695.64
1319578.762
1360915.083
1404942.861
1451927.378
1502179.027
1556035.507
1613906.871
1676244.01
947390.1959
927420.1683
908301.9559
889982.2262
872414.5207
855553.2214
839357.7294
823791.85
808820.1323
794409.2846
780529.6276
767153.1367
754253.8687
741807.6083
729791.8233
718186.0799
706969.1305
696122.6368
685630.6042
675475.4239
665641.8406
656115.5933
646883.1506
637931.8762
629249.8142
620825.5804
612647.4902
604706.0973
596992.3416
589496.2829
582209.3904
575124.1118
568231.821
561525.8089
554999.1592
548644.4701
542456.0067
536427.4465
530553.2052
524827.955
519246.2202
513803.1666
508494.2011
503314.5528
498259.6918
493325.9733
488509.2309
483805.8205
479211.9183
947390.1904
968269.2909
990116.1621
1013000.394
1036996.729
1062184.583
1088653.711
1116502.008
1145840.111
1176786.743
1209475.935
1244056.746
1280695.234
1319578.259
1360914.772
1404943.724
1451925.894
1502178.571
1556035.275
1613908.341
1676244.446
927420.2594
908301.8741
889982.1579
872414.4225
855553.0991
839357.7303
823791.6829
808819.7979
794409.1664
780529.6197
767153.129
754253.8649
741807.6242
729791.8053
718186.0713
706969.1688