/*--------------------------------*- C++ -*----------------------------------*\
| =========                 |                                                 |
| \\      /  F ield         | OpenFOAM: The Open Source CFD Toolbox           |
|  \\    /   O peration     | Version:  v1612+-hyStrath                       |
|   \\  /    A nd           | Web:      www.OpenFOAM.com                      |
|    \\/     M anipulation  |                                                 |
\*---------------------------------------------------------------------------*/
FoamFile
{
    version     2.0;
    format      ascii;
    class       volScalarField;
    location    "0.00127";
    object      wallHeatFlux;
}
// * * * * * * * * * * * * * * * * * * * * * * * * * * * * * * * * * * * * * //

dimensions      [1 0 -3 0 0 0 0];

internalField   uniform 0;

boundaryField
{
    frontAndBack
    {
        type            empty;
    }
    inlet
    {
        type            calculated;
        value           uniform 0;
    }
    outlet
    {
        type            calculated;
        value           uniform 0;
    }
    wall
    {
        type            calculated;
        value           nonuniform List<scalar> 
2928
(
9070774.635
4661142.529
3497970.494
2907713.207
2608427.644
2404836.689
2300792.089
2228574.075
2166615.099
2135566.388
2111270.538
2078082.919
2046848.423
2021690.807
1994855.895
1955205.128
1921142.654
1901882.062
1903027.017
1901552.482
1897323.648
1880113.188
1862882.023
1844216.093
1834959.961
1830841.459
1818252.804
1796935.951
1776715.34
1757862.512
1756260.908
1759121.838
1762290.716
1759519.605
1746712.783
1728332.875
1704836.767
1682159.135
1675298.598
1674782.962
1681130.592
1683023.973
1683351.037
1678351.028
1668001.763
1656719.188
1641105.728
1630233.387
1624652.674
1622616.612
1620527.835
1623161.186
1623170.605
1622444.014
1616544.174
1609991.179
1601799.982
1590041.609
1582335.219
1571821.105
1563054.698
1561436.774
1564605.124
1564432.418
1568736.58
1570547.28
1570851.621
1568853.383
1564116.774
1558535.568
1552998.746
1545400.15
1541059.823
1532254.839
1531149.031
1525747.97
1517917.976
1517018.568
1513162
1509290.776
1505528.14
1508798.108
1509246.829
1513427.142
1514936.189
1517383.661
1518842.799
1515858.072
1511527.974
1504248.492
1496088.273
1491482.731
1486410.671
1480765.321
1476587.238
1475010.988
1474177.914
1470035.609
1469180.927
1465516.424
1465956.683
1465131.327
1468191.21
1468961.768
1469857.256
1472500.552
1469390.363
1469911.752
1468192.57
1468361.189
1461401.105
1461613.696
1459146.314
1456324.427
1454315.047
1451661.933
1445628.903
1444153.49
1441228.244
1437535.234
1433727.713
1433928.977
1431462.75
1431342.673
1430068.834
1429415.502
1429281.579
1426824.138
1429354.764
1427442.871
1427963.815
1428350.688
1428484.515
1427975.953
1428868.045
1427484.171
1428368.17
1427295.433
1426005.804
1426394.674
1422467.342
1423246.383
1422133.181
1420276.42
1418101.854
1418587.974
1413233.985
1414397.604
1410726.369
1409975.636
1408492.641
1404227.01
1403175.17
1402502.437
1404045.231
1398290.762
1398948.415
1398524.204
1397234.393
1397814.894
1396669.22
1393760.521
1392921.841
1396956.845
1393039.103
1392646.379
1393995.099
1391806.308
1388533.169
1391308.238
1389318.42
1390029.656
1390995.886
1388739.314
1389793.495
1389541.173
1392097.183
1389141.82
1389652.782
1389259.104
1390207.451
1389523.693
1392065.881
1388077.177
1386169.093
1390904.631
1384759.203
1387954.498
1383978.332
1382421.206
1383382.578
1381988.825
1382874.8
1381863.125
1379316.797
1378319.664
1382113.414
1378549.877
1378751.734
1376086.498
1379235.256
1374742.453
1377795.213
1373137.792
1374020.629
1375640.912
1372890.49
1369005.3
1372677.634
1369609.3
1367626.545
1369047.391
1365474.091
1365935.036
1367160.796
1364760.548
1366334.768
1366734.77
1361513.563
1364498.843
1368258.872
1363985.82
1364371.351
1363843.084
1369647.807
1362238.515
1363067.614
1369413.472
1367538.863
1363040.263
1365792.68
1367165.107
1365613.583
1361931.963
1365957.469
1365041.168
1359086.718
1362074.767
1365365.83
1358889.082
1361372.144
1360924.506
1358182.678
1355645.469
1358390.356
1360115.164
1356123.908
1357627.454
1361513.671
1355718.67
1360024.138
1355999.7
1352943.519
1361714.219
1356301.306
1356068.831
1359555.345
1360802.489
1355139.746
1360784.779
1354121.249
1361007.442
1360933.354
1354003.089
1356902.219
1361788.233
1350554.471
1364180.379
1356655.965
1358040.22
1350385.422
1359847.738
1351259.479
1356589.914
1353929.248
1356273.688
1352878.693
1354932.597
1350107.582
1353328.628
1354700.342
1348175.189
1350496.557
1356930.178
1349149.753
1349099.736
1351474.37
1352857.012
1347143.479
1344450.883
1357050.597
1348180.629
1349195.879
1345428.545
1355098.536
1347916.303
1348006.999
1351227.591
1345940.038
1353818.177
1347747.21
1348134.18
1350701.796
1352349.925
1342938.856
1353309.738
1347785.689
1348752.602
1350323.235
1347283.25
1350575.169
1348229.441
1353274.619
1340067.492
1349962.633
1344969.421
1352905.098
1349131.053
1345828.697
1346246.394
1340080.121
1351351.266
1342023.713
1351041.333
1350905.039
1336612.701
1352345.323
1348069.747
1336517.048
1350622.155
1341188.532
1339695.129
1351799.358
1336938.269
1338718.054
1351833.12
1341390.921
1341486.976
1342042.123
1344064.02
1344748.628
1337553.737
1345839.399
1341393.165
1341011.433
1337797.491
1339802.091
1341619.484
1346017.755
1332594.561
1350805.093
1330677.044
1343266.437
1341551.937
1340488.786
1336114.2
1344613.28
1336219.72
1343239.084
1337364.051
1343935.643
1338042.415
1339601.847
1341351.633
1345900.401
1336545.311
1339817.298
1334592.257
1344138.162
1335362.391
1342431.792
1342364.831
1327216.603
1350424.354
1339902.966
1339079.757
1333318.146
1340641.669
1333118.843
1343378.392
1340299.131
1342429.68
1342008.877
1337483.39
1339182.162
1336472.288
1346855.854
1327069.979
1351907.565
1322494.539
1352607.114
1336328.762
1344477.936
1333158.467
1350816.115
1322325.835
1353453.53
1329165.909
1343184.608
1328364.228
1341803.261
1352768.499
1336686.003
1339083.032
1336073.095
1331335.734
1345808.564
1345047.085
1339187.621
1327022.78
1343008.689
1337014.774
1347832.002
1331761.975
1351230.562
1320697.854
1344901.698
1337608.606
1339356.263
1334023.031
1348266.784
1336390.213
1340185.062
1334764.78
1334626.847
1353226.435
1337034.506
1343677.553
1322741.216
1336288.331
1341775.616
1355958.226
1323104.163
1345230.801
1323663.301
1358909.599
1322798.063
1340482.07
1341733.513
1335951.936
1349076.987
1332439.846
1344106.788
1344003.816
1324297.797
1343486.305
1320032.052
1335279.097
1327963.405
1340145.935
1316481.011
1326342.835
1292220.423
1305957.156
1297804.785
1216695.156
1334292.895
1325797.931
1376977.82
1369470.925
1402609.485
1413800.409
1405073.278
1421154.517
1448795.151
1411563.216
1473161.049
1461212.653
1473453.069
1466593.178
1504165.136
1481921.259
1498768.05
1485097.138
1504660.517
1527704.188
1520680.95
1525106.126
1529751.88
1538526.057
1541635.713
1545747.507
1553424.842
1563003.145
1568696.683
1577648.829
1570523.219
1574887.523
1592015.77
1596893.366
1596682.122
1604556.047
1606509.923
1610076.71
1630008.377
1629669.98
1624170.618
1647663.413
1643942.36
1649388.447
1658875.441
1663037.588
1667856.445
1676798.265
1679917.494
1687064.62
1690798.354
1699849.595
1703618.067
1711215.404
1710488.465
1722266.593
1726610.998
1733554.703
1738643.947
1743870.199
1751145.877
1755997.064
1762665.496
1766786.562
1777126.171
1781495.539
1788861.435
1798309.31
1799658.923
1806781.293
1817208.443
1820513.88
1831910.515
1834204.973
1846261.868
1848490.16
1847665.682
1859946.534
1858391.125
1860952.143
1862846.767
1857956.666
1862322.285
1870120.565
1864223.185
1871415.365
1871742.285
1873671.88
1876032.425
1878132.72
1878987.746
1883478.556
1886801.957
1886696.27
1891635.427
1885756.25
1889226.826
1890683.292
1887232.837
1888513.692
1893885.445
1883181.204
1888870.06
1895286.831
1888472.891
1895140.254
1897773.723
1886542.34
1903983.036
1889542.732
1896757.096
1903627.775
1901886.877
1891962.177
1893080.808
1902081.557
1896957.912
1904520.524
1901926.353
1896240.799
1894792.901
1898904.508
1890425.944
1907796.985
1908040.842
1899313.61
1891180.655
1892805.475
1915182.938
1893183.357
1908884.45
1898626.316
1895674.283
1913670.813
1875609.088
1924997.895
1883329.209
1909509.597
1898246.715
1934012.223
1868754.444
1902183.396
1886973.91
1891428.207
1902943.621
1893402.745
1886334.129
1936120.488
1911493.867
1881981.433
1867285.496
1919871.354
1907659.908
1920616.032
1880217.731
1895641.754
1902661.302
1910736.383
1892445.81
1893888.363
1899845.19
1901566.41
1906014.682
1901602.745
1890293.233
1905435.476
1894397.68
1888001.882
1901515.814
1899982.776
1896329.628
1896752.148
1908645.623
1891196.617
1893149.128
1901408.64
1897769.498
1891637.359
1897598.256
1900654.444
1889755.989
1895511.845
1906886.248
1895266.96
1903541.815
1892632.909
1910663.672
1897505.768
1905817.334
1899892.073
1898191.609
1907601.845
1900684.273
1896234.287
1895141.026
1899904.335
1889881.593
1894301.482
1889592.789
1896320.337
1894269.024
1900121.823
1892771.312
1895951.822
1902284.491
1891023.025
1900605.654
1893882.82
1897532.547
1893757.482
1891214.001
1897936.066
1888517.934
1889497.703
1895007.294
1894810.967
1895314.734
1888859.176
1888884.897
1898416.313
1893066.923
1888976.38
1893197.383
1886555.825
1891732.839
1891764.016
1886758.617
1889633.386
1887312.079
1885746.919
1892759.673
1892668.006
1884591.762
1892539
1888538.891
1891846.733
1892985.436
1879058.229
1887801.093
1880667.537
1885160.658
1882277.414
1876326.019
1881530.315
1875353.099
1882533.964
1885086.243
1875732.029
1888102.248
1876837.972
1882392.663
1884788.103
1879798.617
1879835.107
1878154.996
1874481.966
1875577.395
1869722.449
1883438.457
1873045.904
1870800.705
1883208.405
1867951.954
1881829.421
1870786.978
1878563.479
1874343.781
1876108.343
1877231.613
1874626.858
1878564.932
1881253.698
1871714.798
1872374.157
1873902.781
1875887.63
1865670.216
1888611.736
1873972.527
1871532.548
1870776.585
1875217.84
1882949.943
1867385.265
1875631.403
1873507.1
1873763.06
1872599.47
1867827.879
1859285.371
1880320.838
1871573.241
1865014.324
1871319.915
1887682.574
1865225.015
1887303.542
1869916.87
2039026.601
2338302.507
1624048.793
1456047.71
1341964.101
1281961.591
1236322.696
1197582.796
1164063.806
1133829.177
1106551.98
1081598.203
1058789.434
1037801.074
1018279.962
1000291.698
983305.846
967115.3502
951882.0716
937284.0272
923184.4296
909669.5022
896559.28
883807.4435
871448.0514
859483.4182
847794.2579
836327.0699
825162.8646
814320.3695
803798.9267
793528.1311
783488.7848
773704.6437
764179.5682
754944.2283
745983.7014
737251.3087
728725.6775
720373.5869
712118.5148
703946.3403
695880.8128
687943.7517
680212.4873
672736.5794
665456.4096
658241.1413
651003.9942
643741.3879
636561.848
629634.9628
622996.6012
616567.903
610186.4172
603667.3079
597006.6439
590384.0933
584013.6084
577914.361
571906.5924
565798.575
559606.2824
553501.2696
547582.5462
541800.5433
536049.9508
530292.8731
524574.1163
518977.8711
513535.3189
508204.1613
502899.6521
497635.4554
492459.7953
487391.0828
482438.2565
477636.4659
473049.1354
468758.5846
464789.106
461064.9244
457467.2423
453893.9862
450311.0471
446755.2718
443287.5601
439961.6789
436792.2909
433792.7632
430956.701
428280.9146
425754.6365
423370.7092
421108.1337
418944.0509
416850.7471
414814.0489
412822.0003
410872.7702
408979.5101
407158.1322
405419.4142
403768.0666
402209.492
400743.0438
399369.2588
398083.9888
396877.2111
395743.9744
394677.2034
393673.1258
392729.2347
391838.6433
390996.6777
390204.0147
389457.5869
388749.1146
388074.7367
387434.0773
386825.1974
386246.9619
385696.5361
385171.2713
384670.3391
384193.1571
383737.896
383302.8177
382886.3048
382488.2335
382110.0588
381748.7736
381402.9694
381072.6371
380757.9189
380457.2956
380169.4711
379895.8604
379635.2171
379387.2937
379150.8317
378923.6473
378707.4453
378498.9672
378296.4944
378098.1792
377900.5964
377687.9492
377435.4277
377192.9121
376917.1713
376571.056
376142.7961
375593.2942
374898.6323
374017.5819
373072.5787
371927.7686
370259.3002
367939.9818
364761.8822
360316.3393
354120.0986
345734.6285
334797.1749
321174.8768
304823.4253
286091.0151
265998.1526
245332.1101
224951.2135
205702.2393
188353.3742
174307.4632
164918.5482
160474.3567
159556.1519
161332.9639
166097.0607
173846.4358
183974.9236
195963.0763
210303.2882
228543.7006
253718.7451
292334.0273
351416.1362
434897.3953
527025.6304
626294.7274
731361.036
839540.437
942005.0304
1038037.357
1127933.603
1216725.212
1304246.809
1390159.921
1482068.744
1557757.302
1625286.358
1687639.547
1747831.471
1808300.728
1862599.437
1909127.716
1947430.799
1979883.564
2009550.42
2037345.094
2062381.087
2084225.532
2103309.666
2120180.959
2135463.881
2149641.057
2163020.194
2175745.839
2187925.517
2199698.435
2210955.836
2221504.983
2231391.551
2240548.113
2248930.419
2256594.497
2263481.825
2269678.217
2275274.115
2280305.324
2284812.02
2288838.395
2292472.115
2295798.422
2298800.1
2301516.757
2304978.225
2309364.187
2313758.5
2318124.459
2322521.165
2326962.439
2331455.195
2335968.909
2340557.131
2345276.874
2350098.002
2354987.286
2359982.43
2365104.613
2370279.073
2375463.562
2380620.607
2385726.918
2390812.488
2395852.492
2400866.544
2405926.611
2411042.599
2416264.983
2421674.293
2427295.555
2433081.716
2438980.202
2444930.084
2450786.657
2456402.824
2461655.54
2466482.761
2470989.187
2475349.794
2479832.955
2484739.619
2490309.574
2496671.97
2503814.587
2511600.25
2519807.709
2528208.315
2536530.816
2544695.468
2552768.531
2561012.138
2569717.633
2579177.634
2589696.37
2601400.81
2614428.546
2628807.451
2644292.642
2660726.77
2678143.097
2696509.167
2715978.054
2737092.757
2760668.225
2787464.189
2818343.398
2854164.846
2895344.935
2942261.864
2995350.301
3054456.287
3119611.965
3191425.439
3269695.724
3353994.677
3443857.996
3538809.719
3638166.317
3740155.091
3842835.05
3944703.483
4044505.11
4140456.886
4231557.541
4317664.831
4397818.032
4472363.126
4540783.094
4602348.193
4658089.71
4708333.856
4754848.252
4799811.52
4845211.257
4892429.867
4942833.883
4998026.337
5057356.884
5120538.124
5187785.306
5254924.87
5318915.324
5382914.985
5443931.594
5492060.982
5535207.08
5577319.112
5604530.441
5621611.731
5643476.584
5660108.938
5663398.051
5658736.271
5649901.217
5639173.537
5626988.687
5612999.407
5598860.782
5587002.917
5578748.161
5575159.81
5578842.262
5591140.999
5616975.879
5655643.033
5703042.644
5748155.891
5790555.709
5813820.472
5817794.501
5815906.125
5781013.06
5727743.619
5663152.11
5595491.009
5529145.92
5466366.066
5403604.817
5346519.29
5291999.788
5242063.926
5209405.774
5186360.441
5173876.733
5173582.876
5181995.974
5198775.707
5191789.972
5170424.388
5132267.733
5075006.312
4997278.599
4903833.968
4802663.577
4701697.815
4606947.419
4521621.277
4445956.47
4379175.96
4322059.718
4277070.4
4244990.2
4221712.123
4201000.442
4177187.317
4144945.237
4101695.401
4047654.68
3985143.839
3917945.919
3849623.33
3782582.62
3718203.761
3656940.083
3598963.046
3544802.467
3495441.921
3451228.287
3411345.771
3373757.566
3335908.023
3295712.422
3252327.406
3206376.686
3159512.6
3113586.035
3069604.009
3027670.649
2987332.444
2948126.345
2909937.587
2873095.261
2838086.093
2804940.914
2773042.524
2741406.467
2709091.66
2675628.973
2641282.464
2606728.509
2572723.95
2539829.299
2508260.85
2477987.557
2448931.499
2420970.791
2393936.554
2367690.331
2342066.824
2317031.797
2292612.277
2268782.172
2245416.499
2222345.626
2199404.061
2176474.506
2153490.239
2130348.563
2107019.09
2083608.112
2060252.534
2037200.427
2014761.211
1993163.126
1972526.844
1952789.264
1933709.031
1914955.865
1896291.393
1877652.572
1859187.363
1841189.548
1823981.889
1807711.252
1792284.481
1777413.832
1762735.511
1747938.238
1732863.257
1717541.821
1702082.798
1686666.532
1671465.116
1656594.998
1642108.889
1627973.108
1614100.819
1600437.888
1586951.445
1573657.057
1560610.044
1547880.046
1535543.075
1523616.251
1512146.888
1501139.215
1490567.063
1480414.099
1470628.182
1461122.32
1451772.056
1442469.149
1433103.703
1423604.827
1413959.088
1404217.064
1394492.417
1384898.232
1375537.419
1366507.826
1357832.786
1349464.58
1341365.922
1333455.726
1325668.42
1317969.176
1310332.242
1302781.827
1295344.269
1288077.333
1281018.201
1274201.319
1267650.544
1261349.346
1255283.832
1249412.627
1243700.717
1238115.651
1232637.878
1227245.566
1221904.98
1216613.56
1211373.573
1206176.487
1201029.052
1195949.096
1190943.208
1186033.488
1181244.37
1176597.861
1172111.591
1167796.529
1163656.755
1159681.393
1155866.864
1152196.232
1148648.387
1145200.849
1141824.413
1138504.959
1135224.837
1131963.286
1128710.362
1125460.428
1122218.48
1118985.172
1115755.751
1112533.583
1109322.436
1106124.962
1102943.618
1099780.993
1096631.489
1093503.906
1090407.241
1087335.105
1084284.375
1081260.839
1078275.118
1075329.121
1072419.408
1069552.821
1066744.126
1063991.111
1061298.168
1058676.384
1056120.53
1053624.74
1051197.256
1048845.02
1046559.522
1044331.983
1042160.632
1040050.358
1038005.496
1036009.934
1034061.334
1032164.19
1030309.709
1028496.066
1026728.054
1024997.767
1023303.995
1021652.251
1020035.432
1018446.884
1016892.743
1015379.231
1013893.961
1012437.168
1011021.239
1009640.038
1008287.404
1006969.136
1005678.911
1004416.246
1003186.382
1001988.474
1000815.864
999667.6647
998548.6208
997452.0379
996376.9043
995322.2503
994287.0867
993270.4744
992271.5093
991289.3508
990323.2343
989372.4567
988430.7654
987503.292
986589.5351
985689.0567
984801.4252
983920.6151
983046.4774
982184.8489
981335.8215
980493.6229
979658.295
978835.9342
978020.7063
977212.8245
976418.5473
975632.0932
974853.7206
974083.7209
973322.3856
972576.2999
971839.5497
971106.2301
970382.8862
969676.2084
968980.1711
968288.8085
967608.7584
966940.3593
966283.9399
965633.397
964995.5396
964364.0472
963720.362
963051.8025
962359.4659
961650.0241
960918.2697
960158.964
959380.7025
958589.3509
957779.0819
956948.9288
956107.983
955266.9509
954418.2407
953570.666
952761.7542
951943.5762
951227.6193
950480.649
949891.8007
949500.5964
949506.2096
949883.4571
950629.7811
952059.6886
954407.6518
958074.6402
963655.4396
971999.8428
983494.9588
996791.5729
1012202.573
1039898.755
1109648.767
1242550.808
1424331.464
1648322.805
1841869.741
2032340.729
2195353.73
2341706.824
2436981.642
2528653.758
2615011.473
2683400.312
2748873.256
2785971.599
2830492.412
2861426.002
2893364.66
2920701.477
2937560.51
2955766.568
2966406.63
2975730.471
2986749.998
2995942.028
3000895.109
3004690.539
3010640.723
3014958.037
3014249.289
3012844.463
3014342.586
3016837.097
3020098.605
3023532.688
3025751.364
3026535.799
3026887.821
3027632.752
3028667.389
3029463.625
3029452.777
3028227.408
3025568.994
3021546.573
3016781.44
3012001.737
3007819.778
3004313.51
3001256.007
2998128.053
2994151.792
2987779.851
2978436.552
2968207.073
2958367.469
2950499.568
2945733.698
2944088.709
2943903.592
2936207.379
2926673.096
2915741.793
2903838.858
2893251.266
2883725.85
2874409.103
2864894.7
2854742.752
2843742.691
2832265.102
2820952.76
2810372.12
2800760.346
2791824.104
2782807.429
2772743.576
2760964.508
2747551.703
2733412.173
2719885.496
2707960.858
2697750.855
2688601.675
2679509.348
2669449.789
2657795.603
2644618.208
2630637.641
2616896.782
2604275.408
2593146.212
2583302.764
2574157.717
2565051.94
2555480.766
2545220.546
2534327.204
2523044.062
2511748.744
2500853.891
2490685.005
2481424.934
2473095.218
2465547.759
2458546.648
2451831.966
2445137.563
2438265.469
2431060.288
2423457.241
2415497.626
2407245.857
2398852.423
2390520.835
2382423.056
2374723.732
2367556.752
2360994.181
2355037.296
2349652.656
2344755.461
2340216.963
2335930.49
2331765.871
2327605.886
2323374.832
2318996.794
2314424.303
2309643.525
2304654.411
2299506.986
2294236.019
2288896.962
2283548.116
2278237.584
2273042.666
2268005.953
2263164.659
2258579.95
2254285.983
2250274.829
2246567.2
2243162.357
2240051.072
2237210.738
2234623.623
2232270.851
2230129.95
2228170.691
2226369.567
2224712.248
2223163.475
2221713.789
2220341.937
2219033.652
2217781.55
2216567.742
2215384.714
2214219.774
2213068.593
2211936.073
2210813.462
2209698.988
2208591.452
2207483.042
2206382.564
2205291.012
2204191.522
2203093.775
2202008.41
2200928.554
2199846.581
2198775.883
2197719.886
2196649.762
2195533.318
2194346.703
2193086.95
2191751.134
2190324.054
2188801.914
2187193.302
2185495.452
2183693.473
2181773.347
2179749.345
2177623.527
2175384.583
2173036.73
2170572.014
2168012.649
2165368.568
2162637.953
2159850.789
2156997.425
2154098.12
2151201.566
2148303.964
2145416.363
2142575.601
2139795.852
2137100.938
2134511.496
2132040.076
2129692.405
2127455.255
2125308.402
2123236.296
2121202.571
2119142.885
2116996.08
2114671.123
2112069.629
2109093.72
2105628.439
2101556.205
2096774.242
2091266.74
2085047.422
2078182.495
2070862.919
2063287.24
2055704.135
2048419.131
2041677.943
2035644.873
2030380.404
2025795.812
2021647.184
2017612.039
2013349.631
2008513.923
2002840.725
1996203.401
1988653.559
1980438.769
1971974.618
1963721.849
1956037.408
1949097.827
1942797.576
1936772.495
1930530.319
1923542.11
1915407.367
1906063.695
1895872.367
1885491.085
1875650.416
1866837.861
1859050.688
1851864.038
1844700.669
1837054.154
1828657.991
1819580.008
1810149.932
1800772.255
1791735.39
1783114.347
1774766.922
1766446.483
1757931.93
1749116.578
1740030.844
1730789.426
1721566.26
1712527.857
1703771.967
1695317.331
1687076.347
1678912.616
1670690.391
1662310.926
1653767.002
1645114.891
1636437.207
1627812.707
1619296.515
1610912.082
1602645
1594491.11
1586486.725
1578697.42
1571188.624
1564010.853
1557169.646
1550606.84
1544242.413
1537991.715
1531762.92
1525493.418
1519179.899
1512847.022
1506526.5
1500265.991
1494117.585
1488106.892
1482260.778
1476592.38
1471081.829
1465726.82
1460523.946
1455456.624
1450511.717
1445694.23
1441011.577
1436450.593
1432021.123
1427725.641
1423551.876
1419509.217
1415606.556
1411838.189
1408198.384
1404695.744
1401324.679
1398079.564
1394975.108
1391997.989
1389141.146
1386416.568
1383815.27
1381327.443
1378942.899
1376663.293
1374483.53
1372392.119
1370389.842
1368459.538
1366596.536
1364802.632
1363068.133
1361383.925
1359747.517
1358156.96
1356610.963
1355108.726
1353643.735
1352222.366
1350838.775
1349480.865
1348162.295
1346884.171
1345634.659
1344421.536
1343239.35
1342089.348
1340979.416
1339904.023
1338864.267
1337854.326
1336875.123
1335934.366
1335025.938
1334143.633
1333288.036
1332466.584
1331679.692
1330920.841
1330190.341
1329488.43
1328801.499
1328102.39
1327377.94
1326635.582
1325869.2
1325072.939
1324254.63
1323415.459
1322556.723
1321673.461
1320767.591
1319841.498
1318897.892
1317939.031
1316964.053
1315981.321
1314988.642
1313999.89
1313002.589
1312021.969
1311068.068
1310103.153
1309239.734
1308403.327
1307525.417
1306956.422
1306354.952
1305669.214
1305649.779
1305827.806
1305839.701
1306516.565
1307799.856
1309646.738
1312087.829
1315197.291
1319463.72
1325308.298
1333182.245
1343374.863
1356631.38
1373765.71
1395844.446
1423869.261
1459357.395
1503257.868
1556547.894
1619245.488
1690918.438
1769529.171
1851730.958
1934262.51
2013680.321
2088514.197
2155858.597
2213275.241
2269077.585
2306064.144
2348902.765
2376763.267
2401915.094
2422278.767
2433800.439
2452026.96
2462762.841
2466353.663
2468077.979
2470427.886
2474057.476
2477162.986
2478031.094
2475100.289
2470415.923
2468186.909
2469870.321
2473193.352
2475279.499
2475080.765
2473653.555
2472658.338
2473131.837
2475174.981
2478217.137
2481352.472
2483877.484
2485687.055
2487061.795
2487957.74
2487791.262
2486592.077
2484855.438
2482212.945
2479017.818
2475979.277
2473277.146
2470739.174
2468433.464
2466518.361
2464933.123
2463462.697
2462079.066
2460796.949
2459131.601
2456824.859
2454183.251
2451496.984
2448683.493
2445721.931
2442709.931
2439649.97
2436495.35
2433240.129
2429869.601
2426336.713
2422582.525
2418595.641
2414418.226
2410148.946
2405901.461
2401746.176
2397706.53
2393744.04
2389795.957
2385804.057
2381735.756
2377602.516
2373456.461
2369365.715
2365385.83
2361548.454
2357855.713
2354277.602
2350769.713
2347291.375
2343799.746
2340271.43
2336701.78
2333104.143
2329502.85
2325925.605
2322401.917
2318936.539
2315543.028
2312222.38
2308965.558
2305772.743
2302626.653
2299529.06
2296484.254
2293481.025
2290521.878
2287616.736
2284763.607
2281966.895
2279224.545
2276540.925
2273926.786
2271373.474
2268884.733
2266470.241
2264132.701
2261861.326
2259657.777
2257529.773
2255478.227
2253497.376
2251574.899
2249723.685
2247937.409
2246215.742
2244558.289
2242958.151
2241420.84
2239939.307
2238506.552
2237121.714
2235790.04
2234510.636
2233276.594
2232081.096
2230923.497
2229809.264
2228731.82
2227690.737
2226685.648
2225710.212
2224770.276
2223859.601
2222978.095
2222125.679
2221302.354
2220508.128
2219736.933
2218988.819
2218263.861
2217568.317
2216896.115
2216241.186
2215609.891
2215089.552
2214655.137
2214201.421
2213728.356
2213235.944
2212730.36
2212205.291
2211654.427
2211083.971
2210493.84
2209877.701
2209235.487
2208573.461
2207885.256
2207164.538
2206417.61
2205644.479
2204845.186
2204013.44
2203149.333
2202252.983
2201318.192
2200351.525
2199353.219
2198317.195
2197243.765
2196133.263
2194986.032
2193796.065
2192563.667
2191295.36
2189984.916
2188625.927
2187218.061
2185766.934
2184265.164
2182704.913
2181084.017
2179399.748
2177655.138
2175833.422
2173930.092
2171946.772
2169865.32
2167680.801
2165395.909
2163000.954
2160495.144
2157872.814
2155138.668
2152300.703
2149363.251
2146348.033
2143264.075
2140120.811
2136939.443
2133722.713
2130466.398
2127170.957
2123814.571
2120374.488
2116824.233
2113139.355
2109296.917
2105288.611
2101145.224
2096894.548
2092567.321
2088217.136
2083859.565
2079481.247
2075059.947
2070539.959
2065872.868
2061052.32
2056105.634
2051083.646
2046039.63
2040985.481
2035854.078
2030519.994
2024851.072
2018772.253
2012348.414
2005748.246
1999173.391
1992764.943
1986487.285
1980182.581
1973686.253
1966914.186
1959918.917
1952834.857
1945766.158
1938693.236
1931487.918
1924007.496
1916205.731
1908212.51
1900226.43
1892386.903
1884738.524
1877196.994
1869621.223
1861918.736
1854057.388
1846061.81
1837967.951
1829809.065
1821604.041
1813346.901
1805024.209
1796633.951
1788163.422
1779602.742
1770970.987
1762311.815
1753679.976
1745096.099
1736569.18
1728107.719
1719680.359
1711301.284
1703018.656
1694867.63
1686884.63
1679104.608
1671534.986
1664165.694
1656965.092
1649903.86
1642963.774
1636149.721
1629462.555
1622894.778
1616459.578
1610142.373
1603935.109
1597840.266
1591849.94
1585961.935
1580189.649
1574542.177
1569048.033
1563716.813
1558560.08
1553579.02
1548790.431
1544180.962
1539743.346
1535479.665
1531377.896
1527430.797
1523640.826
1520005.302
1516532.453
1513246.782
1510175.402
1507287.985
1504655.57
1502534.786
1500838.161
1498824.919
1497139.999
1497215.897
1498308.831
1499557.663
1500573.383
1501920.351
1503685.09
1506202.396
1509700.681
1514062.368
1519008.197
1524344.087
1530059.115
1536226.347
1542985.75
1550527.079
1558887.902
1568036.152
1577935.707
1588404.24
1599290.223
1610457.799
1621849.469
1633440.326
1645122.505
1656854.717
1668656.021
1680559.82
1692466.769
1704341.479
1716202.844
1728014.858
1739717.019
1751250.436
1762627.157
1773819.84
1784707.327
1795345.694
1805677.018
1815678.08
1825372.019
1834760.378
1843798.269
1852424.6
1860685.161
1868696.514
1876338.224
1883668.554
1890703.119
1897670.706
1904841.681
1914308.814
1925841.04
1951842.378
2055226.528
2460650.303
1669676.917
1632938.059
1567432.985
1511694.936
1492813.887
1445747.73
1428679.878
1428232.969
1394480.59
1394027.45
1375846
1371044.878
1372859.072
1363678.604
1341361.08
1335779.656
1350697.658
1325731.744
1326187.74
1334923.749
1326843.444
1306159.385
1313543.966
1315143.27
1313380.346
1303650.663
1301612.439
1306632.057
1303187.25
1303735.787
1289669.861
1296019.297
1298949.446
1292423.603
1288105.059
1302936.831
1279586.273
1290196.651
1291896.077
1278970.625
1288924.108
1295030.821
1290870.441
1273557.886
1285230.716
1285272.664
1284980.485
1298499.272
1272656.895
1282681.17
1293602.229
1280217.847
1283145.623
1290434
1281466.33
1277931.326
1288040.501
1280770.858
1280708.589
1286187.305
1288490.999
1288267.735
1272337.829
1292298.704
1292403.663
1277537.392
1276264.762
1287911.028
1282869.768
1283443.689
1288580.746
1278976.815
1296636.938
1275967.155
1284311.368
1295816.445
1272751.983
1286704.474
1287582.987
1284070.974
1290081.325
1275479.129
1284636.283
1288852.506
1283801.367
1292218.652
1286642.722
1279835.351
1279956.94
1287034.048
1281608.092
1291043.168
1281138.852
1288611.232
1283163.612
1280750.214
1282884.225
1286110.476
1273173.75
1289680.067
1286455.243
1283388.848
1278973.314
1283260.249
1284106.763
1285657.637
1264780.586
1286392.757
1280479.138
1280691.191
1268999.404
1285233.631
1283788.972
1269792.196
1278398.461
1277334.456
1272103.626
1280202.081
1276045.846
1271343.264
1276604.166
1269433.567
1266734.885
1270631.026
1272005.179
1277927.866
1270527.885
1255622.207
1267358.089
1267665.611
1272592.692
1266364.012
1254273.441
1267670.948
1263902.908
1257904.426
1259525.851
1263693.82
1266993.565
1255657.437
1257443.601
1255812.965
1251579.316
1255616.258
1268174.94
1247364.666
1245029.466
1256826.447
1256282.07
1244896.927
1246016.793
1247544.437
1250438.092
1246753.825
1247591.395
1243789.512
1242043.38
1243840.061
1236384.978
1243640.561
1238814.427
1239186.643
1233520.096
1236182.305
1239854.185
1235025.748
1228957.808
1239203.96
1225272.439
1230500.166
1231930.529
1228616.973
1228768.307
1224336.236
1228651.188
1224356.708
1222285.987
1223837.064
1227175.453
1216670.263
1219999.974
1217117.541
1221351.894
1215052.812
1218870.243
1215026.18
1215028.037
1210472.793
1213333.978
1214650.796
1204702.516
1210092.522
1211413.886
1206602.436
1203854.688
1207993.522
1207084.113
1199999.83
1207861.902
1199202.844
1197026.33
1203020.439
1204421.776
1190881.352
1198995.776
1195814.583
1196247.394
1194337.461
1190518.363
1194178.749
1194355.598
1188059.826