/*--------------------------------*- C++ -*----------------------------------*\
| =========                 |                                                 |
| \\      /  F ield         | OpenFOAM: The Open Source CFD Toolbox           |
|  \\    /   O peration     | Version:  v1612+-hyStrath                       |
|   \\  /    A nd           | Web:      www.OpenFOAM.com                      |
|    \\/     M anipulation  |                                                 |
\*---------------------------------------------------------------------------*/
FoamFile
{
    version     2.0;
    format      ascii;
    class       volVectorField;
    location    "0.00127";
    object      wallShearStress;
}
// * * * * * * * * * * * * * * * * * * * * * * * * * * * * * * * * * * * * * //

dimensions      [1 -1 -2 0 0 0 0];

internalField   uniform (0 0 0);

boundaryField
{
    frontAndBack
    {
        type            empty;
    }
    inlet
    {
        type            calculated;
        value           uniform (0 0 0);
    }
    outlet
    {
        type            calculated;
        value           uniform (0 0 0);
    }
    wall
    {
        type            calculated;
        value           nonuniform List<vector> 
2928
(
(-5073.312371 -1232.552891 0)
(-2594.209857 -687.4763034 2.424535119e-16)
(-2002.915758 -530.8795114 0)
(-1692.17009 -468.2329168 0)
(-1531.050173 -418.3669726 0)
(-1424.151053 -364.1633611 -2.490870909e-17)
(-1359.231297 -337.6774871 9.899727399e-17)
(-1318.387993 -324.3017744 0)
(-1283.581536 -314.507406 1.140532558e-16)
(-1260.484929 -317.7793017 1.212357502e-16)
(-1245.535353 -312.2990475 0)
(-1228.044258 -305.1717776 -2.547668467e-17)
(-1212.308002 -292.9780924 0)
(-1198.913731 -281.9183001 -9.478443982e-17)
(-1183.827382 -278.3581356 9.357474115e-17)
(-1161.648707 -285.5314054 0)
(-1142.277738 -286.267273 -2.972986289e-17)
(-1127.977923 -275.2902353 -9.990067792e-17)
(-1124.434158 -267.5423878 0)
(-1122.249276 -268.1517497 9.36161626e-17)
(-1120.185407 -275.4878823 0)
(-1113.049892 -271.8706735 0)
(-1103.986289 -267.4014119 9.63929508e-17)
(-1091.564795 -264.1708982 0)
(-1082.964386 -268.2168325 0)
(-1082.400746 -259.5716188 0)
(-1076.199981 -258.1480701 0)
(-1065.334635 -262.4339396 0)
(-1057.491691 -252.5827278 -8.949120711e-17)
(-1044.957138 -248.0522162 8.689941289e-17)
(-1041.277579 -246.2422445 -5.969404125e-17)
(-1038.577697 -253.3437559 9.390315091e-17)
(-1039.598718 -252.4289693 -9.301096961e-17)
(-1039.099374 -245.7092122 6.108349264e-17)
(-1033.79579 -243.8341733 -6.016045048e-17)
(-1025.491667 -246.28457 0)
(-1013.562553 -249.5754864 0)
(-1002.702096 -240.0531493 0)
(-998.429759 -232.574346 8.005030871e-17)
(-995.407741 -232.7941303 0)
(-996.4882448 -232.3893252 0)
(-996.9752609 -231.4505459 7.962712664e-17)
(-997.2150992 -231.8652471 5.258552902e-17)
(-995.0557288 -231.199483 5.232741263e-17)
(-990.799093 -228.1330747 0)
(-985.9972944 -225.1241873 0)
(-977.4866677 -229.5090465 0)
(-970.4894132 -232.6755725 0)
(-967.4547369 -226.2641711 2.985139869e-17)
(-964.4867019 -225.3885227 -5.091771464e-17)
(-959.7386695 -229.4934967 0)
(-960.2994386 -228.5808184 0)
(-961.7329759 -221.3592646 2.294768683e-17)
(-963.6402679 -215.5129087 0)
(-960.8738301 -215.2235309 7.117846434e-17)
(-958.219787 -214.722538 0)
(-955.022644 -213.6100348 0)
(-948.5491114 -218.2935766 0)
(-946.9301371 -211.6829566 0)
(-941.3407306 -208.4775315 2.533957907e-17)
(-933.6394352 -217.7216875 0)
(-932.9824635 -212.391361 0)
(-934.283903 -207.0853966 0)
(-932.0665376 -206.7585852 0)
(-933.2420171 -207.1212572 2.978425583e-17)
(-933.1066167 -206.1448245 0)
(-933.6398317 -204.900884 0)
(-932.8985289 -204.5327012 6.75209783e-17)
(-930.3425543 -210.3514995 0)
(-927.6364351 -214.3486947 0)
(-925.5277076 -212.0628082 0)
(-924.6474447 -200.0343094 -2.466494987e-17)
(-922.8173263 -199.8408267 4.029016077e-17)
(-914.908399 -214.7045173 0)
(-916.4820571 -208.954437 -7.810856011e-17)
(-913.5977206 -202.2493648 0)
(-906.1074866 -211.205001 0)
(-906.6343731 -205.3510086 -3.078800794e-17)
(-905.6459638 -193.6329198 -6.273358763e-17)
(-900.3981478 -202.8198422 1.743277554e-17)
(-897.5131261 -206.7742382 -3.05996744e-17)
(-900.7399821 -201.5221086 0)
(-900.654791 -196.339655 0)
(-902.9507186 -197.6928976 0)
(-902.3486504 -203.8890918 0)
(-905.2671415 -199.3083227 3.852106019e-17)
(-907.8465083 -194.016103 -3.059376666e-17)
(-906.1381917 -192.0550525 6.352982472e-17)
(-902.5497913 -201.1347306 0)
(-896.7757648 -211.4839595 0)
(-893.0419798 -209.233344 0)
(-893.1107144 -201.8935802 2.428790576e-17)
(-892.1657346 -195.6949134 -3.66876741e-17)
(-889.3944776 -191.1382111 1.584974383e-17)
(-887.0341944 -186.6515762 0)
(-885.4608781 -190.3152907 -1.831141291e-17)
(-884.2304473 -193.9304168 -2.033537416e-17)
(-881.4016484 -192.1980597 0)
(-880.6278474 -192.2516415 -3.686122473e-17)
(-877.7998463 -191.9794795 3.715931547e-17)
(-877.9970817 -190.9929304 0)
(-876.3513837 -194.9462714 0)
(-876.9932253 -199.8709467 0)
(-878.9022788 -190.6567306 1.648510034e-17)
(-881.2979648 -180.2275747 -2.946017845e-17)
(-882.4087515 -180.9070772 3.003314058e-17)
(-880.3974667 -180.3825309 3.002233919e-17)
(-881.0259732 -178.9901401 2.915395671e-17)
(-879.5397606 -184.4762234 0)
(-879.6208085 -190.2194438 3.805493776e-17)
(-874.4549859 -193.485537 -1.727602294e-17)
(-874.7922686 -193.56861 -2.415309519e-17)
(-875.2688417 -188.2820465 0)
(-874.0899353 -186.1565542 0)
(-874.2704435 -180.9581964 0)
(-873.0470576 -180.7784121 0)
(-867.9839407 -185.1646594 0)
(-867.630986 -185.2772121 0)
(-865.5545319 -188.8635496 -2.309708417e-17)
(-863.8544193 -186.946978 0)
(-861.3460676 -186.8249458 0)
(-860.7948224 -192.3849421 0)
(-860.5072146 -186.9722552 0)
(-861.5006477 -181.5655641 0)
(-860.3582595 -181.1591206 3.728216958e-17)
(-859.5117283 -180.1961635 -3.677605926e-17)
(-859.3583687 -180.0936847 -3.705073006e-17)
(-857.3413544 -179.6648168 0)
(-858.955005 -178.9926071 0)
(-857.2613018 -179.1080972 0)
(-857.6247885 -179.4322568 0)
(-857.0637048 -183.4886947 0)
(-857.3127166 -182.0875669 0)
(-856.7973944 -182.1366629 2.317418448e-17)
(-857.3834145 -182.0104976 1.791605691e-17)
(-856.2164864 -182.3974906 -1.856788084e-17)
(-858.2987528 -177.3487515 0)
(-859.8558473 -166.7915791 -1.139476064e-17)
(-858.1768842 -171.943992 -3.31137737e-17)
(-858.6279433 -172.1484849 0)
(-856.92136 -166.8112018 0)
(-856.986792 -171.0364656 -1.659666867e-17)
(-856.1967696 -176.1086516 0)
(-854.8540362 -175.851645 7.876888113e-18)
(-853.9163769 -174.3729879 1.885352948e-17)
(-854.7577567 -174.1768692 -1.890278197e-17)
(-849.4238234 -182.8812714 0)
(-850.3647729 -182.8548366 -2.117347357e-18)
(-850.2144128 -173.6766689 0)
(-849.2486312 -177.6703695 0)
(-848.741956 -177.1898125 -1.017978234e-17)
(-846.6086075 -172.867362 0)
(-845.6716455 -172.7278558 0)
(-847.1730687 -166.6634982 0)
(-848.4224805 -165.7383282 -9.268533198e-18)
(-842.9779068 -170.2401854 0)
(-842.9434922 -175.290739 0)
(-842.0227381 -179.3246317 -2.468873149e-17)
(-843.1693982 -169.0757499 -1.715581237e-18)
(-844.8647495 -165.489768 0)
(-841.7926979 -173.9855234 0)
(-838.3477127 -177.4416091 1.090765527e-17)
(-839.4334755 -172.3431539 0)
(-842.4572571 -168.0747962 0)
(-840.9970172 -167.1723417 0)
(-839.6339707 -167.3438651 0)
(-838.4168488 -176.9389613 1.289305681e-17)
(-838.0913953 -176.1793648 0)
(-835.4687669 -176.2278247 0)
(-836.2269405 -176.713698 0)
(-837.7726456 -171.2984433 -2.324179555e-17)
(-837.1666978 -175.364515 -2.59757577e-17)
(-837.7446658 -170.8356998 0)
(-837.0354073 -170.4497256 0)
(-837.4676142 -170.3563242 0)
(-836.7324251 -170.9607472 0)
(-838.1455483 -176.5671111 1.609019804e-17)
(-837.5944695 -170.4069037 -1.355122298e-17)
(-837.3268659 -165.7680041 0)
(-837.1798918 -170.7935552 2.485784843e-17)
(-836.9655349 -175.9722694 0)
(-836.3421683 -174.896207 -6.543385825e-18)
(-838.1791342 -175.2812249 0)
(-836.2631485 -175.6644725 0)
(-834.2320323 -174.5747592 1.446661588e-17)
(-839.1659875 -169.3690534 -5.10827047e-18)
(-837.7466839 -159.0977693 1.86935292e-18)
(-838.3914621 -160.3182671 1.892235715e-18)
(-836.3677125 -168.05482 0)
(-832.1582292 -172.5269754 0)
(-834.0567692 -172.3421106 0)
(-834.141009 -168.4387841 0)
(-836.7538928 -163.1429796 0)
(-835.6166763 -163.1644392 0)
(-834.4390991 -162.6083344 -8.325548234e-18)
(-832.7274533 -162.9234039 0)
(-835.0197753 -164.0526549 0)
(-833.7614519 -163.422702 -1.207329284e-17)
(-834.052408 -163.0850555 3.000168923e-18)
(-829.2301695 -172.0903424 -6.912866406e-18)
(-831.9957118 -171.6249929 8.177448702e-18)
(-832.4092015 -160.0162389 1.14927472e-17)
(-831.3631874 -161.0859372 0)
(-831.2776834 -160.3079505 0)
(-830.2469871 -160.7005445 -7.640061713e-18)
(-830.2637459 -165.1292817 -1.376768477e-17)
(-831.2222385 -163.852205 0)
(-827.26494 -160.0313172 0)
(-828.3572992 -164.9826335 0)
(-829.0063645 -163.6545151 0)
(-827.6759433 -155.3835179 8.65268508e-18)
(-829.4389773 -159.2193262 -1.247956838e-17)
(-824.9535135 -167.1565793 0)
(-823.4636613 -167.6559112 0)
(-825.9696572 -167.745686 0)
(-824.2895088 -167.1908736 0)
(-826.9862799 -162.9085518 -4.452266468e-18)
(-827.2411977 -162.6325466 0)
(-824.1537333 -157.1148272 0)
(-824.3191491 -157.4268521 -2.701523496e-18)
(-827.6173217 -162.2524647 4.629503199e-18)
(-825.9488993 -161.2312381 4.610134521e-18)
(-823.0454387 -165.5816961 0)
(-822.5580417 -165.6885913 0)
(-828.7396027 -162.4273649 0)
(-824.5028859 -160.9651042 3.173997677e-18)
(-821.9289747 -161.6173602 0)
(-828.7459879 -158.4358403 0)
(-824.9835107 -167.4198742 6.104526283e-18)
(-822.5989189 -175.1259638 -5.595209359e-18)
(-820.8142925 -175.8830481 0)
(-822.8319674 -176.4833259 0)
(-825.1789142 -166.3612927 6.448110778e-18)
(-823.7889982 -157.2583613 0)
(-824.1842784 -158.128564 0)
(-824.967252 -166.9161645 1.022211885e-17)
(-820.2097151 -174.2484107 0)
(-819.8398087 -165.3150428 -6.11354004e-18)
(-823.9264798 -165.2793664 -5.356355086e-18)
(-821.2148076 -163.6227915 4.272880534e-18)
(-823.3438777 -155.8547613 1.904808814e-18)
(-823.6199318 -155.8231584 0)
(-823.4942061 -154.9897826 -7.540397816e-18)
(-819.7473073 -154.9410588 0)
(-821.3308224 -159.0370811 0)
(-821.854121 -159.1458138 8.955347472e-18)
(-820.76881 -159.0922828 -9.116725184e-18)
(-820.4980987 -162.9942669 0)
(-822.5918417 -163.7006621 1.067691205e-17)
(-820.3196687 -162.8326513 -1.065212668e-17)
(-822.5768371 -163.4612131 -1.084734211e-17)
(-821.2153976 -158.3097893 -4.778260436e-18)
(-817.2311502 -158.8993357 0)
(-823.558421 -158.8128153 -2.895660559e-18)
(-820.8784503 -154.624441 0)
(-818.8363999 -159.7000839 0)
(-824.2175168 -154.7693693 3.754965732e-18)
(-824.9362723 -150.4490913 0)
(-819.3577838 -158.1586498 0)
(-821.6540462 -163.4957066 -5.981801223e-18)
(-818.4461551 -162.5012689 0)
(-823.0853735 -154.0364442 -3.431962513e-18)
(-825.4184042 -154.531507 0)
(-819.0568883 -162.4970084 6.221173021e-18)
(-820.6346491 -153.2653869 0)
(-823.8114018 -154.9944403 0)
(-819.4133883 -157.2161476 4.410387589e-18)
(-822.6015086 -154.2800546 -4.588172268e-18)
(-825.4086113 -152.8711015 4.424973535e-18)
(-821.4452956 -158.2759773 0)
(-815.5355443 -161.2211771 -6.433172253e-18)
(-820.3037232 -162.4134223 6.488742263e-18)
(-820.8287925 -161.1905545 -6.654145292e-18)
(-814.0137427 -167.7902535 0)
(-820.9852713 -165.4060178 3.448793054e-18)
(-819.1611156 -157.5394047 0)
(-819.6279292 -157.4923897 4.353965048e-18)
(-821.396743 -157.2839395 -4.467618416e-18)
(-818.5030768 -156.5379603 0)
(-817.956892 -156.1730339 0)
(-820.6672125 -156.3940137 1.79691721e-18)
(-814.3557747 -165.5551574 4.539365929e-18)
(-818.3721958 -159.7776127 0)
(-820.6463187 -151.9913047 0)
(-821.6236501 -149.9420365 0)
(-814.7104793 -160.6256774 -1.14471265e-18)
(-818.5599296 -160.7698943 2.548689832e-18)
(-820.567922 -156.4018617 0)
(-814.5476507 -165.1725425 -4.425047682e-18)
(-812.1006602 -164.0819988 2.021272021e-18)
(-819.5676456 -157.6754113 0)
(-819.1141024 -155.4035558 1.209897402e-18)
(-814.7713931 -161.4922597 2.063800097e-18)
(-817.7317597 -155.1803417 0)
(-817.685862 -161.3519632 0)
(-814.3910851 -170.0228414 -5.38338204e-18)
(-818.4693029 -159.0175527 0)
(-816.4658887 -160.1891455 -1.738772597e-18)
(-810.9379274 -169.3603726 5.568847225e-18)
(-820.2286396 -162.1897423 0)
(-820.4114314 -150.1278009 0)
(-813.4019258 -159.9870234 -4.493550003e-18)
(-816.8124696 -159.661551 0)
(-818.4607042 -161.0026026 -2.703823556e-18)
(-813.1134943 -167.1755422 5.677682774e-18)
(-815.8999694 -164.6623803 0)
(-817.6648141 -162.9908433 0)
(-813.0286133 -160.398123 0)
(-821.5817118 -155.3831996 -3.108611251e-18)
(-815.6476011 -153.3399529 0)
(-814.1230366 -151.7197827 0)
(-819.7568161 -151.7689296 3.39512288e-18)
(-822.495478 -151.9133421 0)
(-815.6855757 -149.4353486 0)
(-813.7221553 -155.5221187 7.582334286e-19)
(-817.4680632 -157.3590003 0)
(-814.3452927 -159.4193 -2.442121508e-18)
(-822.414579 -154.4621884 2.086286673e-18)
(-812.5598041 -159.3595845 2.674310165e-18)
(-813.3140869 -168.6415088 0)
(-813.7412889 -156.4402805 -1.420709765e-18)
(-811.4742026 -159.6615413 0)
(-812.9377851 -162.7712811 0)
(-818.4505105 -159.0206262 2.651154384e-18)
(-819.6585376 -154.928617 0)
(-811.6775369 -153.4833497 1.84302214e-18)
(-814.0346988 -159.0095157 -6.935421495e-19)
(-821.5178543 -154.2400219 0)
(-814.123279 -151.8314915 -2.294384142e-18)
(-811.8299494 -158.6079371 0)
(-814.1850009 -162.3853495 0)
(-808.1573422 -162.2731 -1.210701061e-18)
(-819.3469668 -154.1882835 2.410154613e-18)
(-810.7170786 -157.6705016 1.678477054e-18)
(-806.2967198 -162.3793314 0)
(-819.2876629 -159.9066907 0)
(-816.7756385 -157.7562487 0)
(-812.0784115 -156.7608594 2.96728205e-18)
(-811.9364964 -151.2628942 0)
(-810.7560165 -154.3645104 2.636988811e-18)
(-819.0259339 -158.8311003 0)
(-813.1129325 -156.7554125 0)
(-811.3792164 -152.9467895 0)
(-815.8873032 -154.3113394 0)
(-815.5036582 -157.3210209 0)
(-810.8299292 -156.2471119 2.134925487e-18)
(-810.4901713 -150.7989177 8.71726329e-19)
(-809.0697381 -154.4263702 0)
(-819.4610911 -159.1477949 1.285922741e-18)
(-809.5209561 -155.7512375 -1.731619005e-18)
(-811.8768796 -159.9628148 0)
(-814.3650673 -155.9520942 1.771644303e-18)
(-804.6733548 -152.8933327 -1.183948755e-18)
(-816.8442399 -154.5878641 5.367215527e-19)
(-817.0552313 -155.7716487 1.21392032e-18)
(-806.4239325 -156.3936118 0)
(-813.4140197 -157.1823109 0)
(-809.4346051 -157.1785661 0)
(-810.9449522 -158.6150733 -1.955433722e-18)
(-811.667131 -157.0117204 0)
(-809.8876753 -158.7846561 0)
(-816.4594882 -156.2962918 0)
(-807.8796871 -158.1432895 0)
(-818.1467851 -146.8829917 0)
(-815.1034726 -149.9781683 0)
(-815.88543 -155.0064525 0)
(-809.5918382 -156.1223524 -2.07033735e-18)
(-808.2338556 -155.7735278 2.047602814e-18)
(-811.3933481 -156.6960964 2.040141469e-18)
(-811.5228133 -155.7061106 0)
(-808.9830366 -158.605815 0)
(-820.6105099 -156.7365566 -2.211628188e-18)
(-802.4539594 -154.0576081 -2.240410935e-18)
(-805.9274071 -160.67596 0)
(-827.043312 -156.6337157 0)
(-807.3272655 -156.5423987 7.90270096e-19)
(-811.3308379 -153.9278066 0)
(-806.9992287 -156.9782261 1.136793304e-18)
(-811.3252957 -154.5111158 -7.797799988e-19)
(-807.0657975 -153.9749577 0)
(-813.9094301 -151.8619374 8.646208187e-19)
(-808.3017461 -157.8500894 -1.17671381e-18)
(-822.100791 -157.9352141 -7.001628618e-19)
(-813.3582761 -155.0576083 0)
(-805.0961091 -156.801397 -4.238399938e-19)
(-810.4440768 -155.5439185 -3.916818376e-19)
(-813.6487851 -159.9129762 -8.96074978e-19)
(-813.8891595 -153.4660685 -5.760587543e-19)
(-809.0996565 -157.1064803 1.305109679e-18)
(-806.4408678 -153.2718755 0)
(-804.8307223 -158.3318803 1.339428983e-18)
(-819.6246157 -156.9736047 1.317699278e-18)
(-813.6404294 -157.3760271 -5.287527881e-19)
(-810.6089099 -154.4052013 1.366321293e-18)
(-815.0231938 -159.1220019 5.127712948e-19)
(-811.6851928 -152.2659904 0)
(-803.6900936 -158.5978884 1.423385486e-18)
(-819.2068147 -154.6271996 0)
(-803.4840749 -156.1397052 -9.403112544e-19)
(-807.1763694 -154.2773482 0)
(-809.667001 -153.1057669 1.018579433e-18)
(-827.3921525 -149.0640775 -1.588234337e-19)
(-809.7517531 -149.1667553 0)
(-805.4764786 -156.7790952 0)
(-814.4550738 -155.6435469 -9.167234864e-19)
(-802.7374547 -153.6320771 -6.281184016e-19)
(-805.277827 -163.8863792 0)
(-823.7172781 -168.1936049 0)
(-817.6122209 -159.3823586 0)
(-804.4027098 -152.8265761 0)
(-803.0307792 -162.0342736 6.666604113e-19)
(-810.1582554 -164.9251747 -1.114102538e-18)
(-815.7910101 -162.7199512 -4.100877394e-19)
(-818.3164569 -151.0829461 -4.388926238e-19)
(-817.3887737 -150.6690075 -1.702154587e-19)
(-798.3813778 -152.2635601 0)
(-801.1407594 -157.3496845 8.710057753e-19)
(-816.8439697 -157.1328376 -9.00696164e-19)
(-811.1500555 -155.8315575 0)
(-806.7199787 -160.4716059 0)
(-809.8070429 -167.0945423 0)
(-814.6004158 -159.5887555 0)
(-816.2368055 -152.8815772 0)
(-812.8080625 -148.9722542 0)
(-801.6096601 -151.7252849 -5.554681111e-20)
(-827.3315489 -149.1739324 0)
(-806.9966994 -148.4987591 6.340966745e-19)
(-807.9448572 -157.7953558 0)
(-810.9704322 -153.503348 -5.311202711e-19)
(-807.7725642 -152.3183173 0)
(-812.3328732 -145.216204 0)
(-817.758416 -154.6959728 7.490536038e-19)
(-817.8126001 -150.419511 0)
(-809.636342 -149.3184348 2.720650734e-19)
(-791.2521422 -158.8976357 0)
(-817.2502165 -163.2518789 -2.877180618e-19)
(-815.7374733 -160.9937816 0)
(-796.7278413 -157.5156221 2.350686554e-19)
(-817.0557744 -154.0146416 -3.176866489e-20)
(-811.5856101 -149.4239034 -3.308169311e-19)
(-813.2945858 -154.6197738 -1.5806053e-19)
(-822.2350281 -155.7369749 3.839189493e-19)
(-806.8783881 -153.1826452 0)
(-818.3046539 -157.1058102 2.35783348e-19)
(-795.5286716 -154.5826942 0)
(-802.8982306 -164.8636855 7.426706014e-19)
(-804.9129576 -153.2741262 3.840721976e-19)
(-784.5962941 -150.2044433 5.01041922e-19)
(-788.9982127 -145.8396984 0)
(-778.6941721 -163.3131797 -1.656546898e-19)
(-782.423024 -153.0202915 0)
(-752.9098168 -151.9330328 0)
(-734.1732775 -134.6283619 4.535199005e-19)
(-664.815114 -131.1028954 0)
(-660.8622747 -138.0010577 0)
(-592.5631016 -128.9667271 0)
(-559.9078679 -140.9812007 0)
(-634.5493229 -152.0313397 -2.518067364e-19)
(-652.0248057 -174.6992127 0)
(-682.7428728 -186.5866553 0)
(-706.9828369 -179.24142 0)
(-722.6173192 -178.1157424 6.507323183e-19)
(-723.4975346 -186.5259967 0)
(-732.0599262 -197.2005965 9.646387039e-19)
(-757.3972831 -197.1483646 4.328047442e-19)
(-744.5020451 -195.2644912 0)
(-753.007487 -197.9477742 0)
(-784.4410502 -200.9916005 0)
(-780.1146933 -206.62949 0)
(-789.4269251 -196.6759784 0)
(-802.7447459 -211.2887619 0)
(-822.4737035 -203.5523248 -1.276023842e-18)
(-799.4274487 -201.0615707 -5.937323654e-19)
(-801.4512815 -208.5407412 1.871713085e-18)
(-814.2261493 -206.1517881 -2.735515899e-19)
(-838.3631792 -205.519989 2.283384576e-18)
(-839.6931022 -202.0924843 0)
(-834.7394738 -211.5229501 1.762598357e-18)
(-846.0496457 -212.8241032 -1.245378438e-18)
(-850.6720949 -218.8910444 0)
(-851.6767238 -217.6250961 1.331935193e-18)
(-851.58369 -214.6268658 -1.381737656e-18)
(-852.8298463 -229.5106629 -5.165858114e-18)
(-865.1781641 -236.494607 -2.618857254e-18)
(-875.4431867 -225.3959808 0)
(-880.5330703 -228.1998698 0)
(-881.6258293 -225.4135559 2.223697056e-18)
(-874.9220731 -227.0189781 0)
(-885.7976301 -229.6828418 0)
(-899.6325953 -218.5671394 0)
(-894.3386718 -232.2860756 0)
(-900.4611287 -232.7185857 6.694362561e-18)
(-901.6130196 -234.5909142 4.367863485e-18)
(-902.1394567 -239.9313365 6.303208567e-18)
(-916.593573 -236.7474754 -8.897507731e-18)
(-917.2515698 -244.6074474 -5.652521436e-18)
(-911.6476969 -249.9293696 -1.085328171e-17)
(-925.4004064 -240.8924676 7.011096771e-18)
(-929.4384757 -240.6668633 0)
(-931.0021194 -241.3733072 0)
(-935.8087274 -242.3782878 0)
(-940.5817604 -242.5081319 0)
(-942.0254909 -244.5919554 5.690809051e-18)
(-947.7462632 -245.7395656 -1.201582032e-17)
(-950.2604685 -246.5550096 0)
(-950.1115975 -261.6623509 0)
(-957.9131477 -254.8769695 0)
(-963.809843 -248.8512467 0)
(-964.4090179 -257.6231038 0)
(-969.7888981 -259.8708773 0)
(-970.2155747 -252.6308578 -1.087687948e-17)
(-975.7606718 -252.8880824 3.334394695e-17)
(-981.7374871 -246.5616568 -1.851214358e-17)
(-989.1071577 -239.8210274 -2.01909487e-17)
(-987.3537704 -255.0427849 1.841592338e-17)
(-991.8228264 -256.0823634 8.772309448e-18)
(-995.0520438 -258.5124628 0)
(-997.8056286 -258.9623404 0)
(-1007.070169 -244.1569056 0)
(-1006.915691 -251.2509752 -2.095317234e-17)
(-1011.502271 -261.4818752 0)
(-1016.046855 -253.8603719 0)
(-1018.544438 -256.3257372 0)
(-1023.961278 -266.3043402 0)
(-1026.192082 -264.5373405 3.183191595e-17)
(-1029.716679 -264.4548742 0)
(-1035.139398 -266.345565 0)
(-1036.705664 -267.0248167 0)
(-1043.232058 -269.1410906 0)
(-1043.257405 -267.9335201 4.489246431e-17)
(-1053.724325 -261.4949907 1.684548633e-17)
(-1055.191707 -261.9558165 -2.613223797e-17)
(-1050.663644 -278.4969215 5.356295174e-17)
(-1060.74156 -280.5444041 1.817148252e-17)
(-1060.605657 -278.4789776 -7.97168412e-18)
(-1064.36931 -271.0954144 1.896253495e-17)
(-1069.591076 -264.8490391 0)
(-1063.279781 -279.957735 0)
(-1065.004406 -279.4781284 0)
(-1073.719667 -271.0295817 0)
(-1070.419121 -270.196829 -2.2933986e-17)
(-1073.241976 -272.0657043 -2.401541906e-17)
(-1073.319245 -279.4530952 -2.88777467e-17)
(-1073.674608 -286.9688472 0)
(-1075.811938 -278.0210617 0)
(-1076.584139 -279.7502792 0)
(-1078.305727 -279.3721602 0)
(-1079.64979 -278.711096 0)
(-1082.329596 -286.5566438 -3.845288787e-17)
(-1081.480246 -286.531529 0)
(-1083.7932 -289.6832225 0)
(-1081.411591 -289.0736428 0)
(-1088.050344 -271.2479081 0)
(-1087.28577 -272.1207429 5.647932402e-18)
(-1086.042815 -278.8888551 0)
(-1090.870924 -268.5305851 1.699913774e-17)
(-1091.744223 -269.5114748 0)
(-1084.936367 -277.6972436 0)
(-1086.686708 -279.3156986 -9.733672322e-18)
(-1095.058876 -270.9554126 1.067320978e-17)
(-1089.847821 -269.7226478 1.114446688e-17)
(-1092.684776 -269.748743 0)
(-1099.437061 -269.6373583 0)
(-1083.794807 -286.1478449 0)
(-1092.488632 -290.3736167 -2.446263619e-18)
(-1094.477043 -270.2851151 -7.415252165e-18)
(-1091.603145 -269.980767 -7.564560875e-18)
(-1098.695955 -269.5436532 -7.615210471e-18)
(-1102.195968 -270.8907978 0)
(-1088.68427 -288.5633077 0)
(-1088.256433 -285.3666466 7.107015995e-18)
(-1096.134329 -279.3588979 0)
(-1095.482788 -276.6220479 0)
(-1096.327517 -269.8612206 0)
(-1100.66945 -279.85584 0)
(-1102.352684 -275.8314796 7.696510902e-18)
(-1087.383501 -277.5434762 8.394376194e-18)
(-1097.794489 -276.4466998 0)
(-1084.796743 -267.4268087 3.747088375e-18)
(-1096.566437 -271.9193153 -4.093646476e-18)
(-1105.430318 -282.2193191 0)
(-1102.404223 -276.549057 0)
(-1089.240278 -277.5763623 0)
(-1089.228252 -285.6598178 -3.997396013e-18)
(-1104.503478 -271.5483 2.486926959e-18)
(-1099.815964 -266.168285 -7.88225431e-19)
(-1091.279332 -287.520987 4.67155888e-18)
(-1100.981981 -278.6624367 0)
(-1091.601519 -279.2061879 0)
(-1112.048132 -292.0164864 0)
(-1102.816452 -259.0437976 -1.495795932e-18)
(-1092.894444 -251.7455159 -9.263590198e-19)
(-1099.158318 -257.0521405 -1.496767025e-18)
(-1099.434153 -262.3589 3.960199768e-19)
(-1103.520307 -267.3469463 0)
(-1114.666437 -282.5642226 0)
(-1110.573243 -275.3148733 0)
(-1074.545752 -271.2314097 2.02321995e-18)
(-1087.549475 -267.9263838 8.790839149e-19)
(-1087.634404 -278.153231 0)
(-1094.528973 -287.3938153 0)
(-1089.888405 -269.1707238 -1.31521729e-18)
(-1066.045371 -268.4856032 0)
(-1122.651647 -275.3680751 0)
(-1142.534862 -262.0097383 0)
(-1085.430421 -263.1246426 7.049464893e-19)
(-1075.451024 -260.6980457 0)
(-1075.833099 -282.6116276 0)
(-1119.997298 -289.3987206 0)
(-1114.027598 -278.7567072 -2.592066034e-18)
(-1097.164811 -276.1297849 0)
(-1084.844089 -270.590217 0)
(-1087.266364 -279.3818007 -2.224770482e-18)
(-1115.304306 -288.0260505 0)
(-1098.547466 -272.4121905 -3.97507695e-18)
(-1079.408015 -277.4289526 0)
(-1094.947073 -287.0348458 -4.471333624e-18)
(-1103.618764 -267.3429639 0)
(-1111.001219 -252.9680386 0)
(-1109.737782 -251.1491342 1.146546349e-18)
(-1091.290761 -267.513843 0)
(-1099.731844 -270.1864121 0)
(-1107.168764 -267.8057874 0)
(-1084.965273 -280.148849 0)
(-1087.269157 -285.2953835 0)
(-1097.203551 -286.5878725 0)
(-1102.514112 -270.3041152 0)
(-1103.434197 -249.1773678 0)
(-1098.247096 -269.8119866 8.175487814e-19)
(-1100.536815 -282.9105414 0)
(-1089.530206 -282.8500094 8.826213015e-18)
(-1094.066747 -286.1507169 0)
(-1104.06666 -268.5793397 -4.37879807e-18)
(-1104.994646 -249.7878552 2.559724469e-18)
(-1099.332996 -250.8036975 0)
(-1107.67695 -251.7827111 0)
(-1094.942047 -266.5688558 0)
(-1095.826416 -265.3798872 0)
(-1103.499439 -268.7607068 2.848375351e-18)
(-1101.996708 -265.5741892 0)
(-1100.90899 -267.9409327 -2.482971168e-18)
(-1093.463567 -283.649119 0)
(-1101.499457 -278.0400286 -6.268266647e-18)
(-1102.142589 -275.1748865 0)
(-1099.305551 -276.739637 -7.783829933e-18)
(-1101.562059 -274.1302222 0)
(-1097.996481 -273.9114149 0)
(-1105.125182 -268.1730939 -1.187646464e-17)
(-1105.465619 -265.7502838 1.022834881e-17)
(-1096.179592 -273.6329947 8.020098341e-18)
(-1098.716383 -272.043889 1.108937573e-18)
(-1106.072376 -264.7237043 0)
(-1098.965762 -262.8686014 0)
(-1097.333136 -271.6345863 0)
(-1094.910119 -271.3378791 4.752798848e-18)
(-1103.257639 -262.985583 -1.476968398e-17)
(-1101.91184 -262.1409427 0)
(-1101.994444 -264.3749356 -1.428278697e-17)
(-1102.591953 -262.6456052 1.36705915e-17)
(-1098.678992 -272.3098594 1.760222139e-17)
(-1105.193842 -272.7503434 -1.710393624e-17)
(-1099.31416 -262.1574774 0)
(-1102.280822 -272.1279428 0)
(-1099.672829 -278.132316 -1.862565752e-17)
(-1100.954477 -278.5752974 -1.823782981e-17)
(-1098.893218 -278.2023508 0)
(-1098.049727 -277.7920233 1.752828606e-17)
(-1103.536352 -262.909232 -1.156616436e-17)
(-1104.034197 -252.239399 -8.759757478e-18)
(-1096.907618 -269.0784073 0)
(-1103.289712 -260.5354156 8.512212422e-19)
(-1107.22821 -250.8946512 0)
(-1106.632499 -250.7449086 0)
(-1102.019985 -259.5966935 1.090669777e-18)
(-1097.721559 -268.8491966 2.283690429e-17)
(-1107.343475 -260.7513297 0)
(-1100.905396 -268.6372344 -5.018504275e-18)
(-1099.787025 -267.5641604 -4.115940563e-18)
(-1104.665984 -259.7789156 0)
(-1101.170259 -256.960274 0)
(-1103.266098 -256.6265846 0)
(-1102.755483 -265.8135979 0)
(-1096.900526 -282.3538238 0)
(-1098.002381 -281.8952365 0)
(-1102.143141 -263.7151681 0)
(-1098.90559 -264.07891 0)
(-1102.842121 -272.4542563 2.026818079e-17)
(-1103.529734 -272.3177004 2.654900032e-17)
(-1098.595481 -271.1183355 2.683856084e-17)
(-1101.961247 -273.1770988 0)
(-1100.19285 -272.3380213 -2.790977383e-17)
(-1101.370517 -272.8677088 2.271523709e-17)
(-1103.242264 -273.3596112 0)
(-1097.341276 -268.4285918 9.293241791e-18)
(-1098.859845 -270.5081789 0)
(-1100.472811 -253.0113571 0)
(-1106.31755 -244.1691579 0)
(-1100.561408 -260.6104415 4.995889784e-19)
(-1094.544687 -276.723141 1.844877311e-17)
(-1096.214156 -277.6525497 -1.145944572e-17)
(-1093.289457 -276.8762045 0)
(-1099.599707 -267.9720065 0)
(-1101.936626 -260.41905 1.034660133e-17)
(-1098.577618 -258.2585945 0)
(-1100.700962 -269.9523997 -1.205473768e-17)
(-1096.331529 -267.4076754 0)
(-1103.573677 -250.3076822 -8.200922143e-18)
(-1104.556373 -250.1911372 4.155779619e-18)
(-1101.92934 -249.9698911 -4.261849853e-18)
(-1102.490103 -256.5907037 0)
(-1101.070206 -256.0058011 0)
(-1098.414669 -248.8769036 0)
(-1094.554794 -266.7541627 7.981710536e-18)
(-1093.851724 -263.19566 -6.279607652e-18)
(-1102.803941 -256.5160901 0)
(-1094.154683 -273.3766079 0)
(-1093.026198 -273.1460854 0)
(-1101.031869 -256.7027834 0)
(-1097.992722 -254.3757928 0)
(-1098.22138 -256.0544504 0)
(-1101.012903 -246.310714 0)
(-1098.912134 -256.5799663 0)
(-1102.824913 -254.9224312 -3.186462633e-19)
(-1093.875324 -256.3084213 0)
(-1100.333375 -264.3345948 0)
(-1097.745074 -262.7174308 0)
(-1100.39909 -261.167041 0)
(-1102.636846 -262.8099125 -4.049867281e-18)
(-1102.060836 -260.6838128 -4.228726353e-18)
(-1094.669689 -260.982424 0)
(-1092.463311 -263.7632208 0)
(-1099.868488 -264.3353133 5.258149241e-18)
(-1091.779626 -261.1846792 1.13781261e-19)
(-1095.565281 -265.8081165 0)
(-1108.150856 -262.2342257 2.778007036e-18)
(-1094.800969 -261.6950979 2.769044661e-18)
(-1090.248018 -262.3648807 0)
(-1091.22623 -265.572136 0)
(-1112.63134 -248.4756479 0)
(-1102.916096 -243.9835706 0)
(-1092.177462 -260.5223305 0)
(-1096.584837 -262.1976304 0)
(-1103.029489 -261.7063451 0)
(-1098.936829 -261.5335282 0)
(-1094.787468 -259.4460684 0)
(-1081.295308 -259.7746702 0)
(-1099.448155 -265.0100057 0)
(-1109.05772 -252.3484866 2.797921481e-18)
(-1086.876763 -249.581153 0)
(-1088.065441 -266.0207874 1.289083023e-18)
(-1126.389138 -258.1808426 8.749921231e-19)
(-1107.792715 -249.9289392 -1.600879819e-18)
(-1114.314609 -266.8747216 0)
(-1175.780354 -282.6607127 1.831070091e-18)
(-1323.115111 -325.2427155 0)
(-1769.020391 -396.9857364 0)
(-1908.472367 -37.65657668 0)
(-1343.827613 -14.33476382 0)
(-1202.045303 -12.70775724 0)
(-1110.070199 -9.436533399 0)
(-1047.416812 -8.198577775 0)
(-998.5051061 -7.343329274 0)
(-958.8344951 -6.668805299 0)
(-924.7770241 -6.152813785 0)
(-894.5817533 -5.673079505 0)
(-867.7567983 -5.276140265 0)
(-843.6592849 -4.933935637 0)
(-821.7167918 -4.626009502 0)
(-801.5838535 -4.351275346 0)
(-783.3412718 -4.098134273 0)
(-766.4979437 -3.877037185 0)
(-750.5302808 -3.667089767 0)
(-735.5988273 -3.461456594 0)
(-721.578961 -3.274589122 0)
(-708.1618905 -3.093760756 0)
(-695.4096205 -2.913999737 0)
(-683.2861957 -2.742627953 0)
(-671.6461182 -2.581326376 0)
(-660.3875909 -2.424497182 0)
(-649.6288818 -2.275642348 0)
(-639.3609753 -2.142827948 0)
(-629.3775638 -2.023972099 0)
(-619.62869 -1.915421402 0)
(-610.2217221 -1.817557376 0)
(-601.2581672 -1.731828503 0)
(-592.6188153 -1.654308466 0)
(-584.1745393 -1.579189589 0)
(-575.9258123 -1.505245289 0)
(-567.9040928 -1.433352212 0)
(-560.156638 -1.363452453 0)
(-552.6988912 -1.296295287 0)
(-545.4817831 -1.230115366 0)
(-538.4706364 -1.160686853 0)
(-531.6579303 -1.086494455 0)
(-524.9869627 -1.010530939 0)
(-518.4236116 -0.9406161143 0)