/*--------------------------------*- C++ -*----------------------------------*\
| =========                 |                                                 |
| \\      /  F ield         | OpenFOAM: The Open Source CFD Toolbox           |
|  \\    /   O peration     | Version:  v1706                                 |
|   \\  /    A nd           | Web:      www.OpenFOAM.com                      |
|    \\/     M anipulation  |                                                 |
\*---------------------------------------------------------------------------*/
FoamFile
{
    version     2.0;
    format      ascii;
    class       volScalarField;
    location    "0.0014";
    object      nD_N2;
}
// * * * * * * * * * * * * * * * * * * * * * * * * * * * * * * * * * * * * * //

dimensions      [0 -3 0 0 0 0 0];


internalField   nonuniform List<scalar> 
80000
(
2.207323458e+24
2.203395395e+24
2.202669173e+24
2.202001215e+24
2.201326131e+24
2.200643123e+24
2.199954408e+24
2.199262252e+24
2.198568758e+24
2.197875785e+24
2.197184903e+24
2.196497359e+24
2.195814058e+24
2.195135552e+24
2.194462043e+24
2.193793387e+24
2.193129117e+24
2.192468458e+24
2.191810359e+24
2.191153524e+24
2.190496446e+24
2.189837442e+24
2.18917469e+24
2.188506266e+24
2.187830178e+24
2.187144396e+24
2.186446883e+24
2.185735623e+24
2.185008638e+24
2.184264007e+24
2.183499884e+24
2.182714504e+24
2.181906191e+24
2.181073362e+24
2.180214527e+24
2.179328287e+24
2.178413328e+24
2.177468419e+24
2.176492404e+24
2.175484193e+24
2.174442756e+24
2.173367111e+24
2.172256325e+24
2.171109494e+24
2.169925749e+24
2.168704239e+24
2.167444131e+24
2.166144604e+24
2.164804845e+24
2.163424045e+24
2.162001397e+24
2.160536094e+24
2.159027329e+24
2.157474293e+24
2.155876176e+24
2.154232169e+24
2.152541466e+24
2.150803263e+24
2.149016766e+24
2.147181193e+24
2.145295776e+24
2.143359775e+24
2.141372477e+24
2.13933321e+24
2.137241354e+24
2.135096353e+24
2.132897736e+24
2.130645138e+24
2.128338325e+24
2.125977236e+24
2.123562029e+24
2.121093141e+24
2.118571374e+24
2.115998008e+24
2.113374952e+24
2.11070496e+24
2.107991943e+24
2.105241409e+24
2.10246114e+24
2.099662216e+24
2.096860614e+24
2.094079748e+24
2.091354456e+24
2.088736244e+24
2.086283937e+24
2.083772802e+24
2.075607287e+24
1.986784549e+24
1.512628283e+24
5.964374814e+23
2.739750741e+23
2.738780253e+23
2.738772317e+23
2.738772309e+23
2.738772309e+23
2.738772309e+23
2.738772309e+23
2.738772309e+23
2.738772309e+23
2.738772309e+23
2.738772309e+23
2.738772309e+23
2.738772309e+23
2.738772309e+23
2.738772309e+23
2.738772309e+23
2.738772309e+23
2.738772309e+23
2.738772309e+23
2.738772309e+23
2.738772309e+23
2.738772309e+23
2.738772309e+23
2.738772309e+23
2.738772309e+23
2.738772309e+23
2.738772309e+23
2.738772309e+23
2.738772309e+23
2.738772309e+23
2.738772309e+23
2.738772309e+23
2.738772309e+23
2.738772309e+23
2.738772309e+23
2.738772309e+23
2.738772309e+23
2.738772309e+23
2.738772309e+23
2.738772309e+23
2.73877231e+23
2.73877231e+23
2.73877231e+23
2.73877231e+23
2.73877231e+23
2.73877231e+23
2.73877231e+23
2.73877231e+23
2.73877231e+23
2.73877231e+23
2.73877231e+23
2.73877231e+23
2.73877231e+23
2.73877231e+23
2.73877231e+23
2.73877231e+23
2.73877231e+23
2.73877231e+23
2.73877231e+23
2.73877231e+23
2.73877231e+23
2.73877231e+23
2.73877231e+23
2.73877231e+23
2.73877231e+23
2.73877231e+23
2.73877231e+23
2.73877231e+23
2.73877231e+23
2.73877231e+23
2.73877231e+23
2.73877231e+23
2.73877231e+23
2.73877231e+23
2.73877231e+23
2.73877231e+23
2.73877231e+23
2.73877231e+23
2.738772309e+23
2.738772309e+23
2.738772309e+23
2.738772309e+23
2.738772309e+23
2.738772308e+23
2.738772308e+23
2.738772308e+23
2.738772308e+23
2.738772307e+23
2.738772307e+23
2.738772306e+23
2.738772306e+23
2.738772306e+23
2.738772305e+23
2.738772304e+23
2.738772304e+23
2.738772303e+23
2.738772303e+23
2.738772302e+23
2.738772301e+23
2.7387723e+23
2.738772299e+23
2.738772298e+23
2.738772297e+23
2.738772296e+23
2.738772295e+23
2.738772294e+23
2.738772293e+23
2.738772291e+23
2.73877229e+23
2.738772289e+23
2.211258963e+24
2.207322928e+24
2.206591136e+24
2.205917196e+24
2.205236376e+24
2.204548298e+24
2.203855392e+24
2.203160025e+24
2.202464331e+24
2.201770164e+24
2.201079068e+24
2.200392248e+24
2.199710559e+24
2.199034501e+24
2.198364217e+24
2.197699506e+24
2.197039841e+24
2.196384388e+24
2.195732041e+24
2.195081448e+24
2.194431051e+24
2.19377912e+24
2.193123787e+24
2.192463089e+24
2.191794995e+24
2.191117445e+24
2.190428373e+24
2.189725736e+24
2.189007536e+24
2.188271835e+24
2.187516771e+24
2.186740568e+24
2.18594154e+24
2.185118097e+24
2.184268742e+24
2.183392071e+24
2.182486769e+24
2.181551603e+24
2.180585414e+24
2.17958711e+24
2.178555661e+24
2.177490086e+24
2.176389447e+24
2.175252842e+24
2.174079398e+24
2.172868262e+24
2.171618598e+24
2.170329583e+24
2.169000399e+24
2.167630232e+24
2.166218268e+24
2.164763696e+24
2.1632657e+24
2.161723462e+24
2.160136164e+24
2.158502984e+24
2.156823105e+24
2.155095708e+24
2.153319984e+24
2.151495132e+24
2.149620365e+24
2.147694915e+24
2.145718045e+24
2.143689048e+24
2.141607266e+24
2.139472099e+24
2.137283021e+24
2.1350396e+24
2.132741524e+24
2.130388633e+24
2.12798096e+24
2.125518785e+24
2.123002705e+24
2.120433724e+24
2.117813381e+24
2.115143905e+24
2.112428442e+24
2.10967135e+24
2.106878611e+24
2.104058385e+24
2.101221771e+24
2.098383829e+24
2.095564863e+24
2.092790936e+24
2.090076581e+24
2.087122644e+24
2.07823822e+24
1.988614569e+24
1.514512683e+24
5.98550596e+23
2.739754566e+23
2.738780292e+23
2.738772317e+23
2.738772309e+23
2.738772309e+23
2.738772309e+23
2.738772309e+23
2.738772309e+23
2.738772309e+23
2.738772309e+23
2.738772309e+23
2.738772309e+23
2.738772309e+23
2.738772309e+23
2.738772309e+23
2.738772309e+23
2.738772309e+23
2.738772309e+23
2.738772309e+23
2.738772309e+23
2.738772309e+23
2.738772309e+23
2.738772309e+23
2.738772309e+23
2.738772309e+23
2.738772309e+23
2.738772309e+23
2.738772309e+23
2.738772309e+23
2.738772309e+23
2.738772309e+23
2.738772309e+23
2.738772309e+23
2.738772309e+23
2.738772309e+23
2.738772308e+23
2.738772308e+23
2.738772308e+23
2.738772308e+23
2.738772308e+23
2.738772308e+23
2.738772308e+23
2.738772308e+23
2.738772308e+23
2.738772308e+23
2.738772308e+23
2.738772308e+23
2.738772308e+23
2.738772308e+23
2.738772308e+23
2.738772308e+23
2.738772308e+23
2.738772308e+23
2.738772308e+23
2.738772307e+23
2.738772307e+23
2.738772307e+23
2.738772307e+23
2.738772307e+23
2.738772307e+23
2.738772307e+23
2.738772307e+23
2.738772306e+23
2.738772306e+23
2.738772306e+23
2.738772306e+23
2.738772306e+23
2.738772306e+23
2.738772305e+23
2.738772305e+23
2.738772305e+23
2.738772305e+23
2.738772304e+23
2.738772304e+23
2.738772304e+23
2.738772304e+23
2.738772303e+23
2.738772303e+23
2.738772303e+23
2.738772302e+23
2.738772302e+23
2.738772302e+23
2.738772301e+23
2.738772301e+23
2.738772301e+23
2.7387723e+23
2.7387723e+23
2.738772299e+23
2.738772299e+23
2.738772298e+23
2.738772298e+23
2.738772297e+23
2.738772297e+23
2.738772296e+23
2.738772296e+23
2.738772295e+23
2.738772295e+23
2.738772294e+23
2.738772294e+23
2.738772293e+23
2.738772293e+23
2.738772292e+23
2.738772292e+23
2.738772291e+23
2.73877229e+23
2.73877229e+23
2.738772289e+23
2.738772289e+23
2.738772288e+23
2.738772288e+23
2.212859718e+24
2.208921735e+24
2.208188572e+24
2.207513099e+24
2.206830729e+24
2.206141212e+24
2.20544707e+24
2.204750733e+24
2.204054374e+24
2.20335987e+24
2.20266877e+24
2.20198228e+24
2.201301249e+24
2.200626161e+24
2.199957147e+24
2.199293987e+24
2.198636134e+24
2.197982737e+24
2.197332668e+24
2.196684558e+24
2.196036829e+24
2.195387732e+24
2.194735385e+24
2.194077805e+24
2.193412951e+24
2.192738747e+24
2.192053116e+24
2.191354005e+24
2.190639407e+24
2.189907374e+24
2.18915604e+24
2.18838362e+24
2.187588425e+24
2.18676886e+24
2.185923425e+24
2.185050714e+24
2.184149407e+24
2.18321827e+24
2.182256142e+24
2.18126193e+24
2.1802346e+24
2.179173171e+24
2.178076702e+24
2.17694429e+24
2.175775058e+24
2.174568152e+24
2.173322732e+24
2.172037971e+24
2.170713047e+24
2.169347142e+24
2.167939437e+24
2.166489113e+24
2.164995348e+24
2.163457317e+24
2.161874191e+24
2.160245141e+24
2.158569335e+24
2.156845943e+24
2.155074138e+24
2.153253101e+24
2.151382024e+24
2.149460116e+24
2.147486606e+24
2.145460756e+24
2.143381863e+24
2.141249278e+24
2.139062409e+24
2.136820751e+24
2.134523894e+24
2.132171557e+24
2.129763621e+24
2.127300166e+24
2.124781527e+24
2.122208363e+24
2.119581738e+24
2.116903235e+24
2.114175091e+24
2.111400374e+24
2.108583209e+24
2.105729042e+24
2.102844983e+24
2.099940184e+24
2.09702619e+24
2.094116132e+24
2.091205784e+24
2.087971739e+24
2.078736931e+24
1.989240949e+24
1.516862449e+24
6.017194535e+23
2.739761994e+23
2.738780345e+23
2.738772316e+23
2.738772308e+23
2.738772308e+23
2.738772308e+23
2.738772308e+23
2.738772308e+23
2.738772308e+23
2.738772308e+23
2.738772308e+23
2.738772308e+23
2.738772308e+23
2.738772308e+23
2.738772308e+23
2.738772308e+23
2.738772308e+23
2.738772308e+23
2.738772308e+23
2.738772308e+23
2.738772308e+23
2.738772308e+23
2.738772308e+23
2.738772308e+23
2.738772307e+23
2.738772307e+23
2.738772307e+23
2.738772307e+23
2.738772307e+23
2.738772307e+23
2.738772307e+23
2.738772307e+23
2.738772307e+23
2.738772307e+23
2.738772307e+23
2.738772307e+23
2.738772307e+23
2.738772307e+23
2.738772306e+23
2.738772306e+23
2.738772306e+23
2.738772306e+23
2.738772306e+23
2.738772306e+23
2.738772306e+23
2.738772306e+23
2.738772306e+23
2.738772305e+23
2.738772305e+23
2.738772305e+23
2.738772305e+23
2.738772305e+23
2.738772305e+23
2.738772304e+23
2.738772304e+23
2.738772304e+23
2.738772304e+23
2.738772304e+23
2.738772304e+23
2.738772303e+23
2.738772303e+23
2.738772303e+23
2.738772303e+23
2.738772302e+23
2.738772302e+23
2.738772302e+23
2.738772302e+23
2.738772301e+23
2.738772301e+23
2.738772301e+23
2.738772301e+23
2.7387723e+23
2.7387723e+23
2.7387723e+23
2.738772299e+23
2.738772299e+23
2.738772299e+23
2.738772299e+23
2.738772298e+23
2.738772298e+23
2.738772298e+23
2.738772297e+23
2.738772297e+23
2.738772297e+23
2.738772296e+23
2.738772296e+23
2.738772295e+23
2.738772295e+23
2.738772295e+23
2.738772294e+23
2.738772294e+23
2.738772294e+23
2.738772293e+23
2.738772293e+23
2.738772293e+23
2.738772292e+23
2.738772292e+23
2.738772291e+23
2.738772291e+23
2.738772291e+23
2.73877229e+23
2.73877229e+23
2.73877229e+23
2.738772289e+23
2.738772289e+23
2.738772289e+23
2.738772288e+23
2.738772288e+23
2.738772288e+23
2.738772287e+23
2.213856235e+24
2.209917892e+24
2.209184277e+24
2.208508266e+24
2.20782533e+24
2.207135275e+24
2.206440671e+24
2.205743985e+24
2.205047416e+24
2.20435286e+24
2.203661878e+24
2.202975682e+24
2.202295121e+24
2.201620679e+24
2.20095248e+24
2.200290299e+24
2.19963358e+24
2.198981463e+24
2.198332811e+24
2.197686245e+24
2.197040177e+24
2.196392848e+24
2.195742367e+24
2.195086743e+24
2.194423925e+24
2.19375183e+24
2.193068374e+24
2.192371496e+24
2.191659184e+24
2.190929486e+24
2.190180529e+24
2.189410524e+24
2.188617779e+24
2.187800695e+24
2.186957769e+24
2.186087591e+24
2.185188841e+24
2.18426028e+24
2.183300745e+24
2.182309141e+24
2.181284433e+24
2.180225634e+24
2.179131804e+24
2.178002035e+24
2.176835447e+24
2.175631183e+24
2.174388398e+24
2.173106262e+24
2.171783947e+24
2.170420629e+24
2.169015483e+24
2.167567684e+24
2.166076401e+24
2.1645408e+24
2.162960041e+24
2.161333282e+24
2.159659679e+24
2.157938383e+24
2.156168551e+24
2.154349341e+24
2.15247992e+24
2.150559465e+24
2.148587173e+24
2.14656226e+24
2.144483975e+24
2.142351605e+24
2.140164486e+24
2.137922019e+24
2.135623683e+24
2.133269056e+24
2.130857838e+24
2.128389884e+24
2.125865237e+24
2.123284175e+24
2.120647266e+24
2.117955429e+24
2.115210018e+24
2.112412907e+24
2.109566597e+24
2.106674324e+24
2.10374017e+24
2.100769155e+24
2.097767201e+24
2.094739875e+24
2.09167311e+24
2.088234027e+24
2.078791802e+24
1.989769433e+24
1.519698514e+24
6.054540445e+23
2.73977098e+23
2.738780406e+23
2.738772316e+23
2.738772307e+23
2.738772307e+23
2.738772307e+23
2.738772307e+23
2.738772307e+23
2.738772307e+23
2.738772307e+23
2.738772307e+23
2.738772307e+23
2.738772307e+23
2.738772307e+23
2.738772307e+23
2.738772306e+23
2.738772306e+23
2.738772306e+23
2.738772306e+23
2.738772306e+23
2.738772306e+23
2.738772306e+23
2.738772306e+23
2.738772306e+23
2.738772306e+23
2.738772306e+23
2.738772305e+23
2.738772305e+23
2.738772305e+23
2.738772305e+23
2.738772305e+23
2.738772305e+23
2.738772305e+23
2.738772305e+23
2.738772305e+23
2.738772304e+23
2.738772304e+23
2.738772304e+23
2.738772304e+23
2.738772304e+23
2.738772304e+23
2.738772304e+23
2.738772303e+23
2.738772303e+23
2.738772303e+23
2.738772303e+23
2.738772303e+23
2.738772303e+23
2.738772302e+23
2.738772302e+23
2.738772302e+23
2.738772302e+23
2.738772302e+23
2.738772301e+23
2.738772301e+23
2.738772301e+23
2.738772301e+23
2.738772301e+23
2.7387723e+23
2.7387723e+23
2.7387723e+23
2.7387723e+23
2.738772299e+23
2.738772299e+23
2.738772299e+23
2.738772299e+23
2.738772298e+23
2.738772298e+23
2.738772298e+23
2.738772298e+23
2.738772297e+23
2.738772297e+23
2.738772297e+23
2.738772297e+23
2.738772296e+23
2.738772296e+23
2.738772296e+23
2.738772295e+23
2.738772295e+23
2.738772295e+23
2.738772295e+23
2.738772294e+23
2.738772294e+23
2.738772294e+23
2.738772294e+23
2.738772293e+23
2.738772293e+23
2.738772293e+23
2.738772292e+23
2.738772292e+23
2.738772292e+23
2.738772292e+23
2.738772291e+23
2.738772291e+23
2.738772291e+23
2.738772291e+23
2.73877229e+23
2.73877229e+23
2.73877229e+23
2.73877229e+23
2.738772289e+23
2.738772289e+23
2.738772289e+23
2.738772289e+23
2.738772288e+23
2.738772288e+23
2.738772288e+23
2.738772288e+23
2.738772288e+23
2.738772287e+23
2.214567551e+24
2.210629578e+24
2.209895853e+24
2.209219684e+24
2.208536575e+24
2.207846363e+24
2.207151639e+24
2.206454893e+24
2.205758341e+24
2.205063892e+24
2.204373116e+24
2.203687232e+24
2.203007093e+24
2.202333183e+24
2.201665626e+24
2.201004193e+24
2.200348327e+24
2.199697163e+24
2.19904956e+24
2.198404131e+24
2.197759284e+24
2.197113254e+24
2.196464144e+24
2.195809959e+24
2.195148641e+24
2.194478102e+24
2.193796253e+24
2.19310103e+24
2.192390414e+24
2.19166245e+24
2.190915261e+24
2.190147056e+24
2.189356137e+24
2.188540904e+24
2.187699849e+24
2.186831561e+24
2.185934717e+24
2.185008074e+24
2.184050468e+24
2.1830608e+24
2.182038031e+24
2.180981174e+24
2.179889283e+24
2.178761447e+24
2.177596783e+24
2.176394428e+24
2.175153535e+24
2.173873266e+24
2.172552789e+24
2.171191272e+24
2.169787885e+24
2.168341792e+24
2.166852154e+24
2.165318126e+24
2.163738856e+24
2.162113488e+24
2.160441161e+24
2.15872101e+24
2.156952168e+24
2.15513377e+24
2.153264953e+24
2.151344862e+24
2.149372652e+24
2.147347493e+24
2.145268578e+24
2.143135125e+24
2.140946392e+24
2.138701678e+24
2.136400342e+24
2.134041815e+24
2.131625614e+24
2.129151362e+24
2.126618816e+24
2.124027888e+24
2.12137868e+24
2.118671518e+24
2.115906986e+24
2.113085971e+24
2.110209691e+24
2.107279729e+24
2.104298032e+24
2.101266886e+24
2.098188756e+24
2.095064909e+24
2.091876282e+24
2.088287787e+24
2.07873115e+24
1.990383615e+24
1.522925917e+24
6.095741697e+23
2.739780916e+23
2.738780471e+23
2.738772314e+23
2.738772306e+23
2.738772306e+23
2.738772306e+23
2.738772305e+23
2.738772305e+23
2.738772305e+23
2.738772305e+23
2.738772305e+23
2.738772305e+23
2.738772305e+23
2.738772305e+23
2.738772305e+23
2.738772305e+23
2.738772305e+23
2.738772304e+23
2.738772304e+23
2.738772304e+23
2.738772304e+23
2.738772304e+23
2.738772304e+23
2.738772304e+23
2.738772304e+23
2.738772303e+23
2.738772303e+23
2.738772303e+23
2.738772303e+23
2.738772303e+23
2.738772303e+23
2.738772303e+23
2.738772302e+23
2.738772302e+23
2.738772302e+23
2.738772302e+23
2.738772302e+23
2.738772302e+23
2.738772301e+23
2.738772301e+23
2.738772301e+23
2.738772301e+23
2.738772301e+23
2.738772301e+23
2.7387723e+23
2.7387723e+23
2.7387723e+23
2.7387723e+23
2.7387723e+23
2.738772299e+23
2.738772299e+23
2.738772299e+23
2.738772299e+23
2.738772299e+23
2.738772298e+23
2.738772298e+23
2.738772298e+23
2.738772298e+23
2.738772298e+23
2.738772297e+23
2.738772297e+23
2.738772297e+23
2.738772297e+23
2.738772297e+23
2.738772296e+23
2.738772296e+23
2.738772296e+23
2.738772296e+23
2.738772295e+23
2.738772295e+23
2.738772295e+23
2.738772295e+23
2.738772295e+23
2.738772294e+23
2.738772294e+23
2.738772294e+23
2.738772294e+23
2.738772293e+23
2.738772293e+23
2.738772293e+23
2.738772293e+23
2.738772293e+23
2.738772292e+23
2.738772292e+23
2.738772292e+23
2.738772292e+23
2.738772292e+23
2.738772291e+23
2.738772291e+23
2.738772291e+23
2.738772291e+23
2.738772291e+23
2.73877229e+23
2.73877229e+23
2.73877229e+23
2.73877229e+23
2.73877229e+23
2.738772289e+23
2.738772289e+23
2.738772289e+23
2.738772289e+23
2.738772289e+23
2.738772288e+23
2.738772288e+23
2.738772288e+23
2.738772288e+23
2.738772288e+23
2.738772288e+23
2.738772287e+23
2.738772287e+23
2.215107266e+24
2.211170157e+24
2.210436484e+24
2.209760337e+24
2.209077251e+24
2.208387074e+24
2.207692414e+24
2.20699577e+24
2.206299369e+24
2.205605127e+24
2.204914624e+24
2.204229083e+24
2.203549358e+24
2.202875938e+24
2.202208946e+24
2.201548155e+24
2.200893004e+24
2.200242628e+24
2.199595881e+24
2.198951376e+24
2.198307517e+24
2.197662535e+24
2.19701453e+24
2.196361502e+24
2.195701391e+24
2.195032105e+24
2.194351552e+24
2.193657663e+24
2.192948417e+24
2.192221855e+24
2.191476097e+24
2.190709349e+24
2.189919911e+24
2.189106178e+24
2.188266641e+24
2.187399886e+24
2.186504585e+24
2.185579494e+24
2.184623445e+24
2.183635337e+24
2.182614128e+24
2.181558826e+24
2.180468481e+24
2.17934218e+24
2.178179033e+24
2.176978175e+24
2.175738752e+24
2.17445992e+24
2.173140841e+24
2.171780676e+24
2.170378586e+24
2.168933727e+24
2.167445248e+24
2.165912294e+24
2.164333998e+24
2.162709491e+24
2.161037893e+24
2.15931832e+24
2.157549883e+24
2.155731689e+24
2.153862845e+24
2.15194246e+24
2.149969648e+24
2.14794353e+24
2.145863241e+24
2.14372793e+24
2.141536772e+24
2.139288971e+24
2.136983767e+24
2.134620447e+24
2.132198353e+24
2.129716899e+24
2.127175578e+24
2.124573982e+24
2.121911814e+24
2.119188905e+24
2.116405229e+24
2.11356091e+24
2.110656227e+24
2.107691602e+24
2.104667569e+24
2.101584709e+24
2.098443467e+24
2.095242802e+24
2.091961342e+24
2.088265519e+24
2.078658989e+24
1.99111783e+24
1.5264719e+24
6.140039602e+23
2.739791561e+23
2.738780541e+23
2.738772313e+23
2.738772304e+23
2.738772304e+23
2.738772304e+23
2.738772304e+23
2.738772304e+23
2.738772303e+23
2.738772303e+23
2.738772303e+23
2.738772303e+23
2.738772303e+23
2.738772303e+23
2.738772303e+23
2.738772303e+23
2.738772303e+23
2.738772302e+23
2.738772302e+23
2.738772302e+23
2.738772302e+23
2.738772302e+23
2.738772302e+23
2.738772302e+23
2.738772301e+23
2.738772301e+23
2.738772301e+23
2.738772301e+23
2.738772301e+23
2.738772301e+23
2.738772301e+23
2.7387723e+23
2.7387723e+23
2.7387723e+23
2.7387723e+23
2.7387723e+23
2.7387723e+23
2.738772299e+23
2.738772299e+23
2.738772299e+23
2.738772299e+23
2.738772299e+23
2.738772299e+23
2.738772298e+23
2.738772298e+23
2.738772298e+23
2.738772298e+23
2.738772298e+23
2.738772297e+23
2.738772297e+23
2.738772297e+23
2.738772297e+23
2.738772297e+23
2.738772297e+23
2.738772296e+23
2.738772296e+23
2.738772296e+23
2.738772296e+23
2.738772296e+23
2.738772295e+23
2.738772295e+23
2.738772295e+23
2.738772295e+23
2.738772295e+23
2.738772294e+23
2.738772294e+23
2.738772294e+23
2.738772294e+23
2.738772294e+23
2.738772294e+23
2.738772293e+23
2.738772293e+23
2.738772293e+23
2.738772293e+23
2.738772293e+23
2.738772293e+23
2.738772292e+23
2.738772292e+23
2.738772292e+23
2.738772292e+23
2.738772292e+23
2.738772291e+23
2.738772291e+23
2.738772291e+23
2.738772291e+23
2.738772291e+23
2.738772291e+23
2.738772291e+23
2.73877229e+23
2.73877229e+23
2.73877229e+23
2.73877229e+23
2.73877229e+23
2.73877229e+23
2.738772289e+23
2.738772289e+23
2.738772289e+23
2.738772289e+23
2.738772289e+23
2.738772289e+23
2.738772289e+23
2.738772288e+23
2.738772288e+23
2.738772288e+23
2.738772288e+23
2.738772288e+23
2.738772288e+23
2.738772287e+23
2.738772287e+23
2.738772287e+23
2.2155295e+24
2.211593689e+24
2.210860156e+24
2.210184131e+24
2.209501176e+24
2.208811149e+24
2.208116661e+24
2.20742022e+24
2.206724057e+24
2.206030096e+24
2.205339918e+24
2.20465475e+24
2.203975452e+24
2.203302512e+24
2.202636055e+24
2.201975853e+24
2.201321347e+24
2.20067167e+24
2.200025676e+24
2.199381976e+24
2.198738972e+24
2.198094894e+24
2.197447838e+24
2.196795804e+24
2.196136727e+24
2.195468515e+24
2.194789071e+24
2.194096326e+24
2.193388254e+24
2.192662896e+24
2.191918367e+24
2.191152872e+24
2.190364706e+24
2.189552263e+24
2.188714032e+24
2.187848593e+24
2.186954619e+24
2.18603086e+24
2.185076147e+24
2.184089374e+24
2.183069495e+24
2.182015516e+24
2.180926482e+24
2.179801475e+24
2.178639603e+24
2.177439992e+24
2.176201785e+24
2.174924131e+24
2.173606184e+24
2.172247099e+24
2.170846028e+24
2.169402115e+24
2.167914502e+24
2.166382318e+24
2.164804686e+24
2.163180718e+24
2.161509519e+24
2.159790183e+24
2.158021797e+24
2.156203444e+24
2.154334199e+24
2.152413135e+24
2.150439324e+24
2.148411841e+24
2.146329762e+24
2.144192174e+24
2.141998173e+24
2.139746869e+24
2.137437397e+24
2.135068912e+24
2.132640603e+24
2.1301517e+24
2.127601473e+24
2.124989247e+24
2.122314406e+24
2.119576394e+24
2.116774723e+24
2.113908962e+24
2.110978734e+24
2.107983688e+24
2.104923462e+24
2.101797616e+24
2.098605469e+24
2.095344797e+24
2.091993313e+24
2.088220841e+24
2.078609012e+24
1.991967271e+24
1.530290498e+24
6.187144058e+23
2.739802811e+23
2.738780613e+23
2.738772311e+23
2.738772302e+23
2.738772302e+23
2.738772302e+23
2.738772302e+23
2.738772302e+23
2.738772302e+23
2.738772301e+23
2.738772301e+23
2.738772301e+23
2.738772301e+23
2.738772301e+23
2.738772301e+23
2.738772301e+23
2.738772301e+23
2.7387723e+23
2.7387723e+23
2.7387723e+23
2.7387723e+23
2.7387723e+23
2.7387723e+23
2.7387723e+23
2.738772299e+23
2.738772299e+23
2.738772299e+23
2.738772299e+23
2.738772299e+23
2.738772299e+23
2.738772299e+23
2.738772298e+23
2.738772298e+23
2.738772298e+23
2.738772298e+23
2.738772298e+23
2.738772298e+23
2.738772297e+23
2.738772297e+23
2.738772297e+23
2.738772297e+23
2.738772297e+23
2.738772297e+23
2.738772296e+23
2.738772296e+23
2.738772296e+23
2.738772296e+23
2.738772296e+23
2.738772296e+23
2.738772296e+23
2.738772295e+23
2.738772295e+23
2.738772295e+23
2.738772295e+23
2.738772295e+23
2.738772295e+23
2.738772294e+23
2.738772294e+23
2.738772294e+23
2.738772294e+23
2.738772294e+23
2.738772294e+23
2.738772293e+23
2.738772293e+23
2.738772293e+23
2.738772293e+23
2.738772293e+23
2.738772293e+23
2.738772293e+23
2.738772292e+23
2.738772292e+23
2.738772292e+23
2.738772292e+23
2.738772292e+23
2.738772292e+23
2.738772292e+23
2.738772291e+23
2.738772291e+23
2.738772291e+23
2.738772291e+23
2.738772291e+23
2.738772291e+23
2.738772291e+23
2.73877229e+23
2.73877229e+23
2.73877229e+23
2.73877229e+23
2.73877229e+23
2.73877229e+23
2.73877229e+23
2.73877229e+23
2.738772289e+23
2.738772289e+23
2.738772289e+23
2.738772289e+23
2.738772289e+23
2.738772289e+23
2.738772289e+23
2.738772289e+23
2.738772288e+23
2.738772288e+23
2.738772288e+23
2.738772288e+23
2.738772288e+23
2.738772288e+23
2.738772288e+23
2.738772288e+23
2.738772287e+23
2.738772287e+23
2.738772287e+23
2.215864447e+24
2.211930355e+24
2.211197023e+24
2.210521181e+24
2.209838427e+24
2.209148621e+24
2.208454379e+24
2.20775821e+24
2.207062349e+24
2.206368722e+24
2.205678914e+24
2.204994153e+24
2.2043153e+24
2.203642846e+24
2.202976916e+24
2.202317284e+24
2.201663391e+24
2.20101437e+24
2.200369074e+24
2.199726113e+24
2.19908389e+24
2.198440632e+24
2.197794436e+24
2.197143298e+24
2.196485154e+24
2.195817908e+24
2.195139463e+24
2.194447747e+24
2.193740733e+24
2.193016458e+24
2.192273036e+24
2.191508669e+24
2.190721651e+24
2.189910372e+24
2.189073317e+24
2.188209067e+24
2.187316289e+24
2.186393731e+24
2.18544022e+24
2.184454648e+24
2.183435965e+24
2.182383171e+24
2.181295309e+24
2.180171457e+24
2.179010715e+24
2.177812207e+24
2.176575067e+24
2.17529844e+24
2.173981472e+24
2.172623309e+24
2.171223096e+24
2.169779967e+24
2.168293052e+24
2.166761468e+24
2.165184326e+24
2.16356072e+24
2.161889738e+24
2.160170456e+24
2.158401937e+24
2.156583237e+24
2.154713403e+24
2.152791474e+24
2.150816483e+24
2.14878746e+24
2.146703429e+24
2.144563416e+24
2.142366448e+24
2.140111554e+24
2.137797771e+24
2.135424146e+24
2.132989737e+24
2.130493618e+24
2.127934882e+24
2.125312641e+24
2.122626032e+24
2.11987421e+24
2.117056349e+24
2.114171631e+24
2.111219233e+24
2.108198301e+24
2.10510792e+24
2.10194705e+24
2.098714392e+24
2.095407131e+24
2.092002738e+24
2.088175358e+24
2.078589038e+24
1.992917941e+24
1.534354154e+24
6.236972701e+23
2.739814626e+23
2.738780689e+23
2.738772309e+23
2.738772301e+23
2.7387723e+23
2.7387723e+23
2.7387723e+23
2.7387723e+23
2.7387723e+23
2.7387723e+23
2.7387723e+23
2.738772299e+23
2.738772299e+23
2.738772299e+23
2.738772299e+23
2.738772299e+23
2.738772299e+23
2.738772299e+23
2.738772299e+23
2.738772298e+23
2.738772298e+23
2.738772298e+23
2.738772298e+23
2.738772298e+23
2.738772298e+23
2.738772298e+23
2.738772297e+23
2.738772297e+23
2.738772297e+23
2.738772297e+23
2.738772297e+23
2.738772297e+23
2.738772297e+23
2.738772296e+23
2.738772296e+23
2.738772296e+23
2.738772296e+23
2.738772296e+23
2.738772296e+23
2.738772296e+23
2.738772295e+23
2.738772295e+23
2.738772295e+23
2.738772295e+23
2.738772295e+23
2.738772295e+23
2.738772295e+23
2.738772294e+23
2.738772294e+23
2.738772294e+23
2.738772294e+23
2.738772294e+23
2.738772294e+23
2.738772294e+23
2.738772294e+23
2.738772293e+23
2.738772293e+23
2.738772293e+23
2.738772293e+23
2.738772293e+23
2.738772293e+23
2.738772293e+23
2.738772293e+23
2.738772292e+23
2.738772292e+23
2.738772292e+23
2.738772292e+23
2.738772292e+23
2.738772292e+23
2.738772292e+23
2.738772292e+23
2.738772291e+23
2.738772291e+23
2.738772291e+23
2.738772291e+23
2.738772291e+23
2.738772291e+23
2.738772291e+23
2.738772291e+23
2.73877229e+23
2.73877229e+23
2.73877229e+23
2.73877229e+23
2.73877229e+23
2.73877229e+23
2.73877229e+23
2.73877229e+23
2.73877229e+23
2.738772289e+23
2.738772289e+23
2.738772289e+23
2.738772289e+23
2.738772289e+23
2.738772289e+23
2.738772289e+23
2.738772289e+23
2.738772289e+23
2.738772288e+23
2.738772288e+23
2.738772288e+23
2.738772288e+23
2.738772288e+23
2.738772288e+23
2.738772288e+23
2.738772288e+23
2.738772288e+23
2.738772287e+23
2.738772287e+23
2.738772287e+23
2.738772287e+23
2.21613073e+24
2.212198784e+24
2.211465698e+24
2.210790082e+24
2.210107578e+24
2.209418046e+24
2.208724104e+24
2.208028259e+24
2.207332751e+24
2.206639503e+24
2.205950104e+24
2.205265782e+24
2.204587399e+24
2.203915448e+24
2.203250054e+24
2.202590992e+24
2.201937703e+24
2.20128932e+24
2.200644697e+24
2.200002445e+24
2.199360965e+24
2.198718485e+24
2.198073099e+24
2.197422806e+24
2.196765538e+24
2.196099199e+24
2.195421691e+24
2.194730939e+24
2.194024916e+24
2.193301657e+24
2.192559274e+24
2.191795966e+24
2.191010025e+24
2.19019984e+24
2.189363892e+24
2.18850076e+24
2.187609107e+24
2.18668768e+24
2.185735301e+24
2.184750858e+24
2.183733299e+24
2.18268162e+24
2.181594859e+24
2.180472089e+24
2.179312406e+24
2.178114928e+24
2.176878784e+24
2.17560311e+24
2.174287048e+24
2.172929736e+24
2.171530307e+24
2.170087889e+24
2.1686016e+24
2.167070546e+24
2.165493822e+24
2.163870511e+24
2.162199682e+24
2.160480391e+24
2.158711683e+24
2.156892587e+24
2.155022125e+24
2.153099303e+24
2.151123119e+24
2.149092562e+24
2.147006612e+24
2.144864239e+24
2.14266441e+24
2.140406085e+24
2.13808822e+24
2.135709769e+24
2.133269683e+24
2.130766913e+24
2.12820041e+24
2.125569125e+24
2.122872007e+24
2.120107999e+24
2.117276034e+24
2.114375024e+24
2.111403848e+24
2.108361327e+24
2.105246197e+24
2.102057064e+24
2.098792278e+24
2.095448727e+24
2.092003941e+24
2.088136883e+24
2.078597653e+24
1.99395588e+24
1.538646344e+24
6.289530009e+23
2.739826991e+23
2.738780769e+23
2.738772308e+23
2.738772299e+23
2.738772299e+23
2.738772299e+23
2.738772299e+23
2.738772298e+23
2.738772298e+23
2.738772298e+23
2.738772298e+23
2.738772298e+23
2.738772298e+23
2.738772298e+23
2.738772298e+23
2.738772297e+23
2.738772297e+23
2.738772297e+23
2.738772297e+23
2.738772297e+23
2.738772297e+23
2.738772297e+23
2.738772297e+23
2.738772296e+23
2.738772296e+23
2.738772296e+23
2.738772296e+23
2.738772296e+23
2.738772296e+23
2.738772296e+23
2.738772296e+23
2.738772295e+23
2.738772295e+23
2.738772295e+23
2.738772295e+23
2.738772295e+23
2.738772295e+23
2.738772295e+23
2.738772295e+23
2.738772294e+23
2.738772294e+23
2.738772294e+23
2.738772294e+23
2.738772294e+23
2.738772294e+23
2.738772294e+23
2.738772294e+23
2.738772293e+23
2.738772293e+23
2.738772293e+23
2.738772293e+23
2.738772293e+23
2.738772293e+23
2.738772293e+23
2.738772293e+23
2.738772293e+23
2.738772292e+23
2.738772292e+23
2.738772292e+23
2.738772292e+23
2.738772292e+23
2.738772292e+23
2.738772292e+23
2.738772292e+23
2.738772292e+23
2.738772291e+23
2.738772291e+23
2.738772291e+23
2.738772291e+23
2.738772291e+23
2.738772291e+23
2.738772291e+23
2.738772291e+23
2.738772291e+23
2.738772291e+23
2.73877229e+23
2.73877229e+23
2.73877229e+23
2.73877229e+23
2.73877229e+23
2.73877229e+23
2.73877229e+23
2.73877229e+23
2.73877229e+23
2.73877229e+23
2.738772289e+23
2.738772289e+23
2.738772289e+23
2.738772289e+23
2.738772289e+23
2.738772289e+23
2.738772289e+23
2.738772289e+23
2.738772289e+23
2.738772289e+23
2.738772288e+23
2.738772288e+23
2.738772288e+23
2.738772288e+23
2.738772288e+23
2.738772288e+23
2.738772288e+23
2.738772288e+23
2.738772288e+23
2.738772288e+23
2.738772288e+23
2.738772287e+23
2.738772287e+23
2.738772287e+23
2.738772287e+23
2.216340681e+24
2.212411312e+24
2.211678509e+24
2.211003155e+24
2.210320939e+24
2.209631724e+24
2.208938125e+24
2.20824265e+24
2.207547536e+24
2.206854709e+24
2.206165756e+24
2.205481906e+24
2.204804023e+24
2.204132597e+24
2.203467757e+24
2.202809278e+24
2.2021566e+24
2.201508857e+24
2.200864906e+24
2.200223355e+24
2.199582605e+24
2.198940887e+24
2.198296294e+24
2.197646823e+24
2.196990407e+24
2.19632495e+24
2.195648351e+24
2.194958535e+24
2.194253474e+24
2.193531201e+24
2.192789827e+24
2.192027548e+24
2.191242656e+24
2.190433536e+24
2.189598667e+24
2.188736625e+24