/*--------------------------------*- C++ -*----------------------------------*\
| =========                 |                                                 |
| \\      /  F ield         | OpenFOAM: The Open Source CFD Toolbox           |
|  \\    /   O peration     | Version:  v1706                                 |
|   \\  /    A nd           | Web:      www.OpenFOAM.com                      |
|    \\/     M anipulation  |                                                 |
\*---------------------------------------------------------------------------*/
FoamFile
{
    version     2.0;
    format      ascii;
    class       volScalarField;
    location    "0.0014";
    object      p;
}
// * * * * * * * * * * * * * * * * * * * * * * * * * * * * * * * * * * * * * //

dimensions      [1 -1 -2 0 0 0 0];


internalField   nonuniform List<scalar> 
80000
(
496864.3397
495897.4939
495861.3052
495838.3698
495810.4781
495776.5829
495736.4848
495690.0592
495637.2074
495577.8455
495511.8982
495439.2956
495359.9701
495273.855
495180.8829
495080.985
494974.09
494860.1236
494739.008
494610.6613
494474.997
494331.9242
494181.3471
494023.1645
493857.2702
493683.553
493501.8961
493312.1776
493114.2706
492908.0427
492693.3569
492470.0711
492238.0383
491997.1072
491747.1215
491487.9206
491219.3399
490941.21
490653.3579
490355.6063
490047.774
489729.676
489401.1235
489061.9242
488711.8818
488350.7968
487978.4662
487594.6837
487199.2398
486791.9218
486372.5144
485940.7994
485496.5565
485039.5632
484569.5952
484086.4275
483589.8343
483079.5902
482555.4706
482017.2536
481464.7205
480897.6581
480315.8602
479719.1304
479107.2847
478480.1558
477837.5974
477179.4903
476505.7496
475816.3348
475111.2619
474390.6201
473654.5935
472903.4905
472137.7842
471358.1693
470565.643
469761.6232
468948.1271
468128.0427
467305.5551
466486.8197
465681.0161
464901.7059
464164.0852
463404.5282
461061.4611
436055.3211
306718.4848
76390.21982
1338.095857
1300.012025
1300.000021
1300.000014
1300.000014
1300.000014
1300.000014
1300.000014
1300.000014
1300.000014
1300.000014
1300.000014
1300.000014
1300.000014
1300.000014
1300.000014
1300.000014
1300.000014
1300.000014
1300.000014
1300.000015
1300.000015
1300.000015
1300.000015
1300.000015
1300.000015
1300.000015
1300.000015
1300.000015
1300.000015
1300.000015
1300.000015
1300.000015
1300.000015
1300.000015
1300.000015
1300.000015
1300.000015
1300.000015
1300.000015
1300.000015
1300.000015
1300.000015
1300.000015
1300.000015
1300.000015
1300.000015
1300.000015
1300.000015
1300.000015
1300.000015
1300.000015
1300.000015
1300.000015
1300.000015
1300.000015
1300.000015
1300.000015
1300.000015
1300.000015
1300.000015
1300.000015
1300.000015
1300.000015
1300.000015
1300.000015
1300.000015
1300.000015
1300.000015
1300.000015
1300.000015
1300.000015
1300.000015
1300.000015
1300.000015
1300.000015
1300.000015
1300.000015
1300.000015
1300.000015
1300.000015
1300.000014
1300.000014
1300.000014
1300.000014
1300.000014
1300.000014
1300.000013
1300.000013
1300.000013
1300.000013
1300.000012
1300.000012
1300.000012
1300.000011
1300.000011
1300.00001
1300.00001
1300.000009
1300.000009
1300.000008
1300.000007
1300.000007
1300.000006
1300.000005
1300.000005
1300.000004
1300.000003
1300.000002
1300.000001
498006.8581
497037.4945
496999.9461
496975.5415
496946.2491
496911.1391
496870.0726
496822.9515
496769.6851
496710.1867
496644.3721
496572.1586
496493.4639
496408.2051
496316.298
496217.6565
496112.1922
495999.8141
495880.4281
495753.9369
495620.2398
495479.2321
495330.8058
495174.8486
495011.2444
494839.873
494660.6103
494473.3276
494277.8926
494074.1683
493862.0141
493641.2848
493411.8312
493173.5001
492926.1342
492669.5719
492403.6477
492128.1923
491843.032
491547.9895
491242.8835
490927.5286
490601.736
490265.3127
489918.0622
489559.7842
489190.2749
488809.327
488416.7297
488012.2691
487595.728
487166.8865
486725.522
486271.4096
485804.3226
485324.0325
484830.3104
484322.9268
483801.653
483266.262
482716.5297
482152.2363
481573.1683
480979.1207
480369.8997
479745.326
479105.2394
478449.5037
477778.0138
477090.7037
476387.5581
475668.6257
474934.0383
474184.0345
473418.9921
472639.4702
471846.2684
471040.504
470223.7196
469398.0288
468566.3132
467732.4856
466901.8148
466081.0239
465273.4713
464395.8748
461862.0867
436646.4633
307309.3046
76937.08496
1338.328046
1300.012093
1300.000021
1300.000014
1300.000014
1300.000014
1300.000014
1300.000014
1300.000014
1300.000014
1300.000014
1300.000014
1300.000014
1300.000014
1300.000014
1300.000014
1300.000014
1300.000014
1300.000014
1300.000014
1300.000014
1300.000014
1300.000014
1300.000014
1300.000014
1300.000014
1300.000014
1300.000014
1300.000014
1300.000014
1300.000014
1300.000014
1300.000014
1300.000014
1300.000014
1300.000014
1300.000014
1300.000014
1300.000014
1300.000014
1300.000014
1300.000014
1300.000014
1300.000014
1300.000014
1300.000014
1300.000014
1300.000014
1300.000014
1300.000014
1300.000014
1300.000014
1300.000014
1300.000014
1300.000014
1300.000013
1300.000013
1300.000013
1300.000013
1300.000013
1300.000013
1300.000013
1300.000013
1300.000013
1300.000013
1300.000013
1300.000012
1300.000012
1300.000012
1300.000012
1300.000012
1300.000012
1300.000012
1300.000011
1300.000011
1300.000011
1300.000011
1300.000011
1300.00001
1300.00001
1300.00001
1300.00001
1300.000009
1300.000009
1300.000009
1300.000009
1300.000008
1300.000008
1300.000008
1300.000008
1300.000007
1300.000007
1300.000007
1300.000006
1300.000006
1300.000006
1300.000005
1300.000005
1300.000004
1300.000004
1300.000004
1300.000003
1300.000003
1300.000003
1300.000002
1300.000002
1300.000001
1300.000001
1300.000001
1300
498470.4455
497500.3581
497462.4767
497437.7126
497408.0617
497372.6265
497331.2924
497283.9777
497230.6018
497171.0832
497105.3396
497033.2876
496954.8423
496869.9171
496778.423
496680.269
496575.3611
496463.6028
496344.8945
496219.1333
496086.2133
495946.025
495798.4555
495643.3885
495480.7038
495310.2779
495131.9833
494945.6889
494751.2596
494548.5568
494337.4379
494117.7564
493889.3619
493652.1001
493405.8129
493150.3383
492885.5101
492611.1584
492327.1094
492033.1853
491729.2044
491414.9811
491090.3259
490755.0455
490408.9429
490051.8172
489683.4637
489303.6745
488912.2377
488508.9382
488093.5578
487665.875
487225.6657
486772.703
486306.758
485827.6001
485334.9972
484828.717
484308.5269
483774.1958
483225.4944
482662.1973
482084.084
481490.9412
480882.5653
480258.7652
479619.366
478964.2134
478293.1796
477606.1704
476903.1335
476184.0702
475449.0493
474698.225
473931.8597
473150.3533
472354.2801
471544.4362
470721.8987
469888.0997
469044.9168
468194.7784
467340.7631
466486.3905
465630.443
464683.9268
462065.9856
436903.2449
308011.9979
77712.01282
1338.640543
1300.012183
1300.000021
1300.000014
1300.000014
1300.000014
1300.000014
1300.000014
1300.000014
1300.000014
1300.000014
1300.000014
1300.000014
1300.000014
1300.000014
1300.000014
1300.000014
1300.000014
1300.000014
1300.000014
1300.000014
1300.000014
1300.000014
1300.000014
1300.000014
1300.000014
1300.000013
1300.000013
1300.000013
1300.000013
1300.000013
1300.000013
1300.000013
1300.000013
1300.000013
1300.000013
1300.000013
1300.000013
1300.000013
1300.000013
1300.000013
1300.000013
1300.000013
1300.000013
1300.000012
1300.000012
1300.000012
1300.000012
1300.000012
1300.000012
1300.000012
1300.000012
1300.000012
1300.000012
1300.000011
1300.000011
1300.000011
1300.000011
1300.000011
1300.000011
1300.000011
1300.000011
1300.00001
1300.00001
1300.00001
1300.00001
1300.00001
1300.00001
1300.000009
1300.000009
1300.000009
1300.000009
1300.000009
1300.000008
1300.000008
1300.000008
1300.000008
1300.000008
1300.000007
1300.000007
1300.000007
1300.000007
1300.000007
1300.000006
1300.000006
1300.000006
1300.000006
1300.000005
1300.000005
1300.000005
1300.000005
1300.000004
1300.000004
1300.000004
1300.000004
1300.000003
1300.000003
1300.000003
1300.000003
1300.000002
1300.000002
1300.000002
1300.000002
1300.000002
1300.000001
1300.000001
1300.000001
1300.000001
1300
1300
498758.8541
497788.5481
497750.5555
497725.6692
497695.8943
497660.3464
497618.9219
497571.5486
497518.1523
497458.6564
497392.9814
497321.0451
497242.7627
497158.0469
497066.8072
496968.9506
496864.3808
496752.9988
496634.7021
496509.3852
496376.9395
496237.2528
496090.2098
495935.6915
495773.5758
495603.7369
495426.0454
495240.3687
495046.5701
494844.5096
494634.0433
494415.0239
494187.3
493950.7166
493705.1148
493450.332
493186.2015
492912.5529
492629.2119
492336.0002
492032.7357
491719.2322
491395.2998
491060.7445
490715.3687
490358.9707
489991.3451
489612.2829
489221.5712
488818.9938
488404.3309
487977.3596
487537.8539
487085.585
486620.3216
486141.8304
485649.8764
485144.2235
484624.6352
484090.8753
483542.7092
482979.9046
482402.2331
481809.472
481201.4062
480577.8308
479938.5539
479283.4005
478612.2167
477924.8754
477221.2832
476501.3881
475765.19
475012.7531
474244.2207
473459.8338
472659.9533
471845.0854
471015.9127
470173.3279
469318.4697
468452.7581
467577.902
466695.5802
465802.1856
464806.4912
462140.7959
437120.7952
308824.7686
78608.98071
1338.993949
1300.012287
1300.00002
1300.000013
1300.000013
1300.000013
1300.000013
1300.000013
1300.000013
1300.000013
1300.000013
1300.000013
1300.000013
1300.000013
1300.000013
1300.000013
1300.000013
1300.000013
1300.000013
1300.000013
1300.000013
1300.000013
1300.000012
1300.000012
1300.000012
1300.000012
1300.000012
1300.000012
1300.000012
1300.000012
1300.000012
1300.000012
1300.000012
1300.000012
1300.000012
1300.000012
1300.000011
1300.000011
1300.000011
1300.000011
1300.000011
1300.000011
1300.000011
1300.000011
1300.000011
1300.000011
1300.00001
1300.00001
1300.00001
1300.00001
1300.00001
1300.00001
1300.00001
1300.00001
1300.000009
1300.000009
1300.000009
1300.000009
1300.000009
1300.000009
1300.000008
1300.000008
1300.000008
1300.000008
1300.000008
1300.000008
1300.000008
1300.000007
1300.000007
1300.000007
1300.000007
1300.000007
1300.000006
1300.000006
1300.000006
1300.000006
1300.000006
1300.000006
1300.000005
1300.000005
1300.000005
1300.000005
1300.000005
1300.000004
1300.000004
1300.000004
1300.000004
1300.000004
1300.000004
1300.000003
1300.000003
1300.000003
1300.000003
1300.000003
1300.000003
1300.000002
1300.000002
1300.000002
1300.000002
1300.000002
1300.000002
1300.000001
1300.000001
1300.000001
1300.000001
1300.000001
1300.000001
1300
1300
1300
498964.3714
497994.085
497956.0631
497931.1425
497901.3336
497865.7579
497824.3177
497776.9455
497723.5714
497664.122
497598.5201
497526.6851
497448.5331
497363.9766
497272.9252
497175.285
497070.9588
496959.8462
496841.8436
496716.8439
496584.7368
496445.4088
496298.7429
496144.6187
495982.9127
495813.4976
495636.243
495451.0148
495257.6755
495056.084
494846.0956
494627.562
494400.3311
494164.2473
493919.1511
493664.8792
493401.2644
493128.1359
492845.3186
492552.6339
492249.899
491936.9272
491613.5278
491279.5064
490934.6644
490578.7992
490211.7047
489833.1705
489442.9828
489040.9239
488626.7725
488200.3039
487761.2901
487309.5001
486844.7001
486366.6537
485875.1225
485369.8665
484850.6446
484317.2153
483769.3376
483206.7719
482629.281
482036.632
481428.597
480804.9563
480165.4995
479510.0295
478838.3648
478150.3444
477445.8323
476724.7231
475986.9493
475232.4887
474461.3745
473673.7054
472869.6579
472049.4991
471213.6004
470362.4496
469496.6605
468616.9749
467724.2328
466819.0153
465896.405
464864.5535
462172.9752
437346.5364
309724.5612
79589.57696
1339.373493
1300.012398
1300.00002
1300.000012
1300.000012
1300.000012
1300.000012
1300.000012
1300.000012
1300.000012
1300.000012
1300.000012
1300.000012
1300.000012
1300.000012
1300.000012
1300.000012
1300.000012
1300.000011
1300.000011
1300.000011
1300.000011
1300.000011
1300.000011
1300.000011
1300.000011
1300.000011
1300.000011
1300.000011
1300.000011
1300.00001
1300.00001
1300.00001
1300.00001
1300.00001
1300.00001
1300.00001
1300.00001
1300.00001
1300.000009
1300.000009
1300.000009
1300.000009
1300.000009
1300.000009
1300.000009
1300.000009
1300.000008
1300.000008
1300.000008
1300.000008
1300.000008
1300.000008
1300.000008
1300.000008
1300.000007
1300.000007
1300.000007
1300.000007
1300.000007
1300.000007
1300.000007
1300.000006
1300.000006
1300.000006
1300.000006
1300.000006
1300.000006
1300.000006
1300.000005
1300.000005
1300.000005
1300.000005
1300.000005
1300.000005
1300.000005
1300.000004
1300.000004
1300.000004
1300.000004
1300.000004
1300.000004
1300.000004
1300.000003
1300.000003
1300.000003
1300.000003
1300.000003
1300.000003
1300.000003
1300.000002
1300.000002
1300.000002
1300.000002
1300.000002
1300.000002
1300.000002
1300.000002
1300.000001
1300.000001
1300.000001
1300.000001
1300.000001
1300.000001
1300.000001
1300.000001
1300
1300
1300
1300
499119.8882
498149.7817
498111.7683
498086.8531
498057.0516
498021.4887
497980.0693
497932.7288
497879.3998
497820.0108
497754.4864
497682.7473
497604.7102
497520.2884
497429.3914
497331.9253
497227.7925
497116.8921
496999.1197
496874.3675
496742.5244
496603.4758
496457.1039
496303.2873
496141.9016
495972.8186
495795.907
495611.0318
495418.0548
495216.8341
495007.2243
494789.0765
494562.238
494326.5524
494081.8597
493827.9962
493564.794
493292.0818
493009.684
492717.4213
492415.1103
492102.5637
491779.5902
491445.9944
491101.5769
490746.1343
490379.4593
490001.3404
489611.5625
489209.9063
488796.1489
488370.0637
487931.4207
487479.9862
487015.5238
486537.7938
486046.5543
485541.5609
485022.5677
484489.3276
483941.5928
483379.1161
482801.6512
482208.954
481600.7843
480976.9066
480337.0922
479681.1217
479008.7865
478319.8927
477614.2637
476891.7443
476152.2051
475395.5473
474621.7079
473830.666
473022.4478
472197.132
471354.8545
470495.8084
469620.2422
468728.4469
467820.7137
466896.9684
465951.5911
464893.0005
462190.4847
437591.2278
310696.0309
80638.59821
1339.773493
1300.012515
1300.000018
1300.000011
1300.000011
1300.000011
1300.000011
1300.000011
1300.000011
1300.000011
1300.000011
1300.000011
1300.000011
1300.000011
1300.00001
1300.00001
1300.00001
1300.00001
1300.00001
1300.00001
1300.00001
1300.00001
1300.00001
1300.00001
1300.00001
1300.000009
1300.000009
1300.000009
1300.000009
1300.000009
1300.000009
1300.000009
1300.000009
1300.000009
1300.000009
1300.000008
1300.000008
1300.000008
1300.000008
1300.000008
1300.000008
1300.000008
1300.000008
1300.000007
1300.000007
1300.000007
1300.000007
1300.000007
1300.000007
1300.000007
1300.000007
1300.000007
1300.000006
1300.000006
1300.000006
1300.000006
1300.000006
1300.000006
1300.000006
1300.000006
1300.000005
1300.000005
1300.000005
1300.000005
1300.000005
1300.000005
1300.000005
1300.000005
1300.000004
1300.000004
1300.000004
1300.000004
1300.000004
1300.000004
1300.000004
1300.000004
1300.000004
1300.000003
1300.000003
1300.000003
1300.000003
1300.000003
1300.000003
1300.000003
1300.000003
1300.000002
1300.000002
1300.000002
1300.000002
1300.000002
1300.000002
1300.000002
1300.000002
1300.000002
1300.000002
1300.000001
1300.000001
1300.000001
1300.000001
1300.000001
1300.000001
1300.000001
1300.000001
1300.000001
1300.000001
1300
1300
1300
1300
1300
499241.0814
498271.2921
498233.3071
498208.4174
498178.6447
498143.1156
498101.7366
498054.4446
498001.1737
497941.8535
497876.41
497804.7645
497726.8346
497642.5341
497551.7727
497454.4566
497350.4882
497239.7664
497122.1864
496997.6402
496866.0161
496727.199
496581.0705
496427.5087
496266.3884
496097.5809
495920.9543
495736.373
495543.6981
495342.7873
495133.4945
494915.6702
494689.1613
494453.811
494209.4585
493955.9397
493693.0862
493420.7261
493138.6832
492846.7777
492544.8255
492232.6387
491910.0251
491576.7885
491232.7287
490877.6412
490511.3175
490133.5451
489744.1072
489342.7831
488929.3482
488503.5738
488065.2277
487614.0737
487149.8724
486672.3809
486181.3534
485676.5414
485157.6938
484624.5577
484076.8788
483514.4019
482936.8715
482344.0331
481735.6335
481111.4223
480471.1533
479814.5856
479141.4854
478451.6282
477744.8007
477020.803
476279.4519
475520.5827
474744.0525
473949.7428
473137.5609
472307.4412
471459.344
470593.252
469709.161
468807.0643
467886.9073
466948.2275
465985.0518
464906.5779
462203.654
437856.0863
311730.5167
81750.90925
1340.191925
1300.012638
1300.000017
1300.00001
1300.00001
1300.00001
1300.00001
1300.00001
1300.00001
1300.00001
1300.000009
1300.000009
1300.000009
1300.000009
1300.000009
1300.000009
1300.000009
1300.000009
1300.000009
1300.000009
1300.000009
1300.000009
1300.000008
1300.000008
1300.000008
1300.000008
1300.000008
1300.000008
1300.000008
1300.000008
1300.000008
1300.000008
1300.000007
1300.000007
1300.000007
1300.000007
1300.000007
1300.000007
1300.000007
1300.000007
1300.000007
1300.000006
1300.000006
1300.000006
1300.000006
1300.000006
1300.000006
1300.000006
1300.000006
1300.000006
1300.000006
1300.000005
1300.000005
1300.000005
1300.000005
1300.000005
1300.000005
1300.000005
1300.000005
1300.000005
1300.000004
1300.000004
1300.000004
1300.000004
1300.000004
1300.000004
1300.000004
1300.000004
1300.000004
1300.000004
1300.000003
1300.000003
1300.000003
1300.000003
1300.000003
1300.000003
1300.000003
1300.000003
1300.000003
1300.000003
1300.000003
1300.000002
1300.000002
1300.000002
1300.000002
1300.000002
1300.000002
1300.000002
1300.000002
1300.000002
1300.000002
1300.000002
1300.000001
1300.000001
1300.000001
1300.000001
1300.000001
1300.000001
1300.000001
1300.000001
1300.000001
1300.000001
1300.000001
1300.000001
1300
1300
1300
1300
1300
1300
499336.6988
498367.3581
498329.4141
498304.561
498274.829
498239.3457
498198.0184
498150.7848
498097.5798
498038.334
497972.9738
497901.4213
497823.5947
497739.4081
497648.7716
497551.5915
497447.7703
497337.2069
497219.7965
497095.4307
496963.9977
496825.3822
496679.4653
496526.1248
496365.235
496196.6671
496020.2884
495835.9631
495643.5518
495442.9117
495233.8964
495016.3558
494790.1364
494555.0809
494311.0282
494057.8135
493795.2681
493523.2193
493241.4907
492949.9015
492648.2673
492336.3992
492014.1044
491681.1859
491337.4424
490982.6685
490616.6545
490239.1865
489850.0464
489449.0119
489035.8565
488610.3496
488172.2566
487721.3388
487257.3538
486780.0556
486289.1944
485784.5174
485265.7686
484732.6895
484185.0191
483622.4946
483044.8518
482451.8258
481843.1514
481218.5642
480577.8014
479920.6026
479246.711
478555.8747
477847.848
477122.3924
476379.2786
475618.2871
474839.2095
474041.849
473226.0204
472391.5482
471538.2632
470665.9972
469774.5718
468863.783
467933.3576
466982.6048
466005.3976
464912.0131
462216.2188
438139.7186
312823.3658
82925.63928
1340.628176
1300.012766
1300.000016
1300.000009
1300.000009
1300.000009
1300.000009
1300.000009
1300.000008
1300.000008
1300.000008
1300.000008
1300.000008
1300.000008
1300.000008
1300.000008
1300.000008
1300.000008
1300.000008
1300.000008
1300.000007
1300.000007
1300.000007
1300.000007
1300.000007
1300.000007
1300.000007
1300.000007
1300.000007
1300.000007
1300.000007
1300.000006
1300.000006
1300.000006
1300.000006
1300.000006
1300.000006
1300.000006
1300.000006
1300.000006
1300.000006
1300.000005
1300.000005
1300.000005
1300.000005
1300.000005
1300.000005
1300.000005
1300.000005
1300.000005
1300.000005
1300.000005
1300.000004
1300.000004
1300.000004
1300.000004
1300.000004
1300.000004
1300.000004
1300.000004
1300.000004
1300.000004
1300.000004
1300.000004
1300.000003
1300.000003
1300.000003
1300.000003
1300.000003
1300.000003
1300.000003
1300.000003
1300.000003
1300.000003
1300.000003
1300.000003
1300.000002
1300.000002
1300.000002
1300.000002
1300.000002
1300.000002
1300.000002
1300.000002
1300.000002
1300.000002
1300.000002
1300.000002
1300.000002
1300.000001
1300.000001
1300.000001
1300.000001
1300.000001
1300.000001
1300.000001
1300.000001
1300.000001
1300.000001
1300.000001
1300.000001
1300.000001
1300.000001
1300
1300
1300
1300
1300
1300
1300
499412.1378
498443.3762
498405.4822
498380.6729
498350.989
498315.5589
498274.2904
498227.1216
498173.9879
498114.8204
498049.5458
497978.0869
497900.3621
497816.2858
497725.7684
497628.7164
497525.0325
497414.6157
497297.361
497173.1603
497041.9014
496903.4689
496757.7438
496604.6037
496443.9227
496275.5716
496099.4175
495915.3242
495723.1521
495522.758
495313.9951
495096.713
494870.7579
494635.9719
494392.1936
494139.2578
493876.9953
493605.2329
493323.7935
493032.4961
492731.1552
492419.5816
492097.5814
491764.9569
491421.5059
491067.0218
490701.2939
490324.107
489935.2414
489534.4733
489121.5745
488696.3122
488258.4496
487807.7456
487343.9548
486866.828
486376.1116
485871.5488
485352.8787
484819.8373
484272.1574
483709.5689
483131.7994
482538.5741
481929.617
481304.6506
480663.3971
480005.5783
479330.9172
478639.1378
477929.966
477203.1306
476458.3633
475695.3992
474913.9767
474113.8369
473294.7223
472456.3734
471598.5255
470720.9013
469823.2013
468905.089
467966.1525
467005.5672
466017.1639
464912.483
462229.3214
438440.2619
313972.0614
84163.58181
1341.082101
1300.0129
1300.000015
1300.000008
1300.000008
1300.000008
1300.000008
1300.000008
1300.000007
1300.000007
1300.000007
1300.000007
1300.000007
1300.000007
1300.000007
1300.000007
1300.000007
1300.000007
1300.000007
1300.000007
1300.000006
1300.000006
1300.000006
1300.000006
1300.000006
1300.000006
1300.000006
1300.000006
1300.000006
1300.000006
1300.000006
1300.000006
1300.000005
1300.000005
1300.000005
1300.000005
1300.000005
1300.000005
1300.000005
1300.000005
1300.000005
1300.000005
1300.000005
1300.000005
1300.000004
1300.000004
1300.000004
1300.000004
1300.000004
1300.000004
1300.000004
1300.000004
1300.000004
1300.000004
1300.000004
1300.000004
1300.000004
1300.000004
1300.000003
1300.000003
1300.000003
1300.000003
1300.000003
1300.000003
1300.000003
1300.000003
1300.000003
1300.000003
1300.000003
1300.000003
1300.000003
1300.000003
1300.000002
1300.000002
1300.000002
1300.000002
1300.000002
1300.000002
1300.000002
1300.000002
1300.000002
1300.000002
1300.000002
1300.000002
1300.000002
1300.000002
1300.000002
1300.000001
1300.000001
1300.000001
1300.000001
1300.000001
1300.000001
1300.000001
1300.000001
1300.000001
1300.000001
1300.000001
1300.000001
1300.000001
1300.000001
1300.000001
1300
1300
1300
1300
1300
1300
1300
1300
499470.973
498502.9209
498465.0843
498440.3241
498410.6935
498375.322
498334.1175
498287.0184
498233.9602
498174.8743
498109.688
498038.324
497960.7011
497876.7341
497786.3334
497689.406
497585.8544
497475.5779
497358.4716
497234.4272
497103.3328
496965.0727
496819.528
496666.5762
496506.0911
496337.9433
496162
495978.1246
495786.1773
495586.0145
495377.4894
495160.4512
494934.7456
494700.2146
494456.6964
494204.0253
493942.0317
493670.5421
493389.3787
493098.3599
492797.2998
492486.0082
492164.2908
491831.9489
491488.7792
491134.5744
490769.1224
490392.2068
490003.6066
489603.0963
489190.4459
488765.4208
488327.7819
487877.2857
487413.6839
486936.7242
486446.1498
485941.6994
485423.1078
484890.1058
484342.4203
483779.7745
483201.8882
482608.4778
481999.257
481373.9366
480732.2251
480073.8291
479398.4529
478705.7999
477995.5716
477267.4687
476521.1903
475756.4339
474972.8947
474170.264
473348.2272
472506.4611
471644.6287
470762.3733
469859.3098
468935.0118
467988.9778
467020.3046
466022.844
464909.5167
462243.1071
438755.9974
315175.1367
85466.0768
1341.553627
1300.013039
1300.000014
1300.000007
1300.000007
1300.000007
1300.000007
1300.000007
1300.000007
1300.000006
1300.000006
1300.000006
1300.000006
1300.000006
1300.000006
1300.000006
1300.000006
1300.000006
1300.000006
1300.000006
1300.000006
1300.000006
1300.000006
1300.000005
1300.000005
1300.000005
1300.000005
1300.000005
1300.000005
1300.000005
1300.000005
1300.000005
1300.000005
1300.000005
1300.000005
1300.000005
1300.000004
1300.000004
1300.000004
1300.000004
1300.000004
1300.000004
1300.000004
1300.000004
1300.000004
1300.000004
1300.000004
1300.000004
1300.000004
1300.000004
1300.000004
1300.000003
1300.000003
1300.000003
1300.000003
1300.000003
1300.000003
1300.000003
1300.000003
1300.000003
1300.000003
1300.000003
1300.000003
1300.000003
1300.000003
1300.000003
1300.000003
1300.000002
1300.000002
1300.000002
1300.000002
1300.000002
1300.000002
1300.000002
1300.000002
1300.000002
1300.000002
1300.000002
1300.000002
1300.000002
1300.000002
1300.000002
1300.000002
1300.000002
1300.000001
1300.000001
1300.000001
1300.000001
1300.000001
1300.000001
1300.000001
1300.000001
1300.000001
1300.000001
1300.000001
1300.000001
1300.000001
1300.000001
1300.000001
1300.000001
1300.000001
1300
1300
1300
1300
1300
1300
1300
1300
1300
499515.7024
498548.489
498510.7168
498486.01
498456.4372
498421.1287
498379.9926
498332.9672
498279.9883
498220.9876
498155.8924
498084.6257
498007.1065
497923.2496
497832.9659
497736.1623
497632.7417
497522.6032
497405.6424
497281.7507
497150.8165
497012.724
496867.3543
496714.5848
496554.2894
496386.3386
496210.5993
496026.9349
495835.2054
495635.2671
495426.9728
495210.1717
494984.7091
494750.4268
494507.1626
494254.7505
493993.0204
493721.7985
493440.9066
493150.1624
492849.3795
492538.3671
492216.93
491884.8687
491541.9792
491188.0531
490822.8772
490446.2338
490057.9006
489657.6506
489245.252
488820.4685
488383.0587
487932.7768
487469.372
486992.5889
486502.1671
485997.842
485479.3439
484946.3987
484398.7279
483836.0484
483258.0728
482664.5095
482055.0629
481429.4333
480787.3169
480128.4062
479452.3899
478758.9529
478047.7758
477318.5352
476570.9029
475804.545
475019.1211
474214.2823
473389.6693
472544.9086
471679.6087
470793.3539
469885.6975
468956.1508
468004.1532
467028.7554
466023.8655
464903.866
462257.381
439085.4798
316431.597
86834.55631
1342.042631
1300.013184
1300.000014
1300.000006
1300.000006
1300.000006
1300.000006
1300.000006
1300.000006
1300.000006
1300.000006
1300.000006
1300.000006
1300.000005
1300.000005
1300.000005
1300.000005
1300.000005
1300.000005
1300.000005
1300.000005
1300.000005
1300.000005
1300.000005
1300.000005
1300.000005
1300.000005
1300.000005
1300.000005
1300.000004
1300.000004
1300.000004
1300.000004
1300.000004
1300.000004
1300.000004
1300.000004
1300.000004
1300.000004
1300.000004
1300.000004
1300.000004
1300.000004
1300.000004
1300.000004
1300.000003
1300.000003
1300.000003
1300.000003
1300.000003
1300.000003
1300.000003
1300.000003
1300.000003
1300.000003
1300.000003
1300.000003
1300.000003
1300.000003
1300.000003
1300.000003
1300.000003
1300.000002
1300.000002
1300.000002
1300.000002
1300.000002
1300.000002
1300.000002
1300.000002
1300.000002
1300.000002
1300.000002
1300.000002
1300.000002
1300.000002
1300.000002
1300.000002
1300.000002
1300.000002
1300.000002
1300.000001
1300.000001
1300.000001
1300.000001
1300.000001
1300.000001
1300.000001
1300.000001
1300.000001
1300.000001
1300.000001
1300.000001
1300.000001
1300.000001
1300.000001
1300.000001
1300.000001
1300.000001
1300.000001
1300.000001
1300
1300
1300
1300
1300
1300
1300
1300
1300
499548.1467
498581.8993
498544.1979
498519.5487
498490.0379
498454.7965
498413.7328
498366.7852
498313.8898
498254.978
498189.9774
498118.8112
498041.3986
497957.6545
497867.4899
497770.8119
497667.5235
497557.5241
497440.7091
497316.9704
497186.196
497048.2707
496903.0752
496750.4871
496590.3803
496422.6252
496247.0886
496063.634
495872.1211
495672.4063
495464.3421
495247.7774
495022.5576
494788.524
494545.5143
494293.362
494031.897
493760.9447
493480.3267
493189.8601
492889.3581
492578.6291
492257.4773
491925.7025
491583.0998
491229.4597
490864.5681
490488.2061
490100.1501
489700.1715
489288.0371
488863.5087
488426.3428
487976.2915
487513.1014
487036.5143
486546.2668
486042.0905
485523.7118
484990.8522
484443.228
483880.5503
483302.5252
482708.8537
482099.2317
481473.3499
480830.8937
480171.5431
479494.9727
478800.8514
478088.8416
477358.5992
476609.7727
475842.0019
475054.9171
474248.1365
473421.2648
472573.8889
471705.5752
470815.8637
469904.2624
468970.2385
468013.1912
467032.1446
466021.0826
464895.9112
462271.8658
439427.5056
317740.6311
88270.39837
1342.548901
1300.013335
1300.000013
1300.000006
1300.000005
1300.000005
1300.000005
1300.000005
1300.000005
1300.000005
1300.000005
1300.000005
1300.000005
1300.000005
1300.000005
1300.000005
1300.000005
1300.000005
1300.000005
1300.000005
1300.000004
1300.000004
1300.000004
1300.000004
1300.000004
1300.000004
1300.000004
1300.000004
1300.000004
1300.000004
1300.000004
1300.000004
1300.000004
1300.000004
1300.000004
1300.000004
1300.000004
1300.000004
1300.000003
1300.000003
1300.000003
1300.000003
1300.000003
1300.000003
1300.000003
1300.000003
1300.000003
1300.000003
1300.000003
1300.000003
1300.000003
1300.000003
1300.000003
1300.000003
1300.000003
1300.000003
1300.000003
1300.000003
1300.000002
1300.000002
1300.000002
1300.000002
1300.000002
1300.000002
1300.000002
1300.000002
1300.000002
1300.000002
1300.000002
1300.000002
1300.000002
1300.000002
1300.000002
1300.000002
1300.000002
1300.000002
1300.000002
1300.000002
1300.000001
1300.000001
1300.000001
1300.000001
1300.000001
1300.000001
1300.000001
1300.000001
1300.000001
1300.000001
1300.000001
1300.000001
1300.000001
1300.000001
1300.000001
1300.000001
1300.000001
1300.000001
1300.000001
1300.000001
1300.000001
1300.000001
1300
1300
1300
1300
1300
1300
1300
1300
1300
1300
499569.6801
498604.5226
498566.8984
498542.3109
498512.8661
498477.6961
498436.7091
498389.8437
498337.0358
498278.2173
498213.3156
498142.2542
498064.9522
497981.3248
497891.2831
497794.7344
497691.5817
497581.7246
497465.0588
497341.476
497210.8646
497073.1092
496928.0908
496775.687
496615.7717
496448.2152
496272.8845
496089.6429
495898.3502
495698.8626
495491.0325
495274.7087
495049.7364
494815.9568
494573.2072
494321.3211
494060.1277
493789.4525
493509.1164
493218.9362
492918.7244
492608.2891
492287.4337
491955.9571
491613.6539
491260.3135
490895.7208
490519.6558
490131.8936
489732.2044
489320.3534
488896.1004
488459.2004
488009.4031
487546.4529
487070.0888
486580.0445
486076.0483
485557.8229
485025.0855
484477.5476
483914.9151
483336.8881
482743.1607
482133.4211
481507.3512
480864.6267
480204.9166
479527.8828
478833.1799
478120.4547
477389.3452
476639.4797
475870.4759
475081.9394
474273.4616
473444.6175
472594.9631
471724.0312
470831.328