/*--------------------------------*- C++ -*----------------------------------*\
| =========                 |                                                 |
| \\      /  F ield         | OpenFOAM: The Open Source CFD Toolbox           |
|  \\    /   O peration     | Version:  v1706                                 |
|   \\  /    A nd           | Web:      www.OpenFOAM.com                      |
|    \\/     M anipulation  |                                                 |
\*---------------------------------------------------------------------------*/
FoamFile
{
    version     2.0;
    format      ascii;
    class       volVectorField;
    location    "0.003";
    object      B;
}
// * * * * * * * * * * * * * * * * * * * * * * * * * * * * * * * * * * * * * //

dimensions      [1 0 -2 0 0 -1 0];


internalField   nonuniform List<vector> 
80000
(
(0.504528 -0.001523 -4.8e-05)
(0.501972 -0.001517 -4.8e-05)
(0.499417 -0.001511 -4.7e-05)
(0.496863 -0.001505 -4.7e-05)
(0.494308 -0.001499 -4.7e-05)
(0.491755 -0.001493 -4.7e-05)
(0.489201 -0.001487 -4.7e-05)
(0.486649 -0.001481 -4.7e-05)
(0.484097 -0.001474 -4.6e-05)
(0.481546 -0.001468 -4.6e-05)
(0.478996 -0.001462 -4.6e-05)
(0.476448 -0.001456 -4.6e-05)
(0.4739 -0.00145 -4.6e-05)
(0.471353 -0.001443 -4.5e-05)
(0.468808 -0.001437 -4.5e-05)
(0.466265 -0.001431 -4.5e-05)
(0.463722 -0.001425 -4.5e-05)
(0.461182 -0.001418 -4.5e-05)
(0.458643 -0.001412 -4.4e-05)
(0.456106 -0.001406 -4.4e-05)
(0.45357 -0.0014 -4.4e-05)
(0.451037 -0.001393 -4.4e-05)
(0.448506 -0.001387 -4.4e-05)
(0.445977 -0.00138 -4.3e-05)
(0.44345 -0.001374 -4.3e-05)
(0.440926 -0.001368 -4.3e-05)
(0.438404 -0.001361 -4.3e-05)
(0.435884 -0.001355 -4.3e-05)
(0.433367 -0.001348 -4.2e-05)
(0.430853 -0.001342 -4.2e-05)
(0.428342 -0.001336 -4.2e-05)
(0.425833 -0.001329 -4.2e-05)
(0.423328 -0.001323 -4.2e-05)
(0.420826 -0.001316 -4.1e-05)
(0.418326 -0.00131 -4.1e-05)
(0.415831 -0.001303 -4.1e-05)
(0.413338 -0.001297 -4.1e-05)
(0.410849 -0.00129 -4.1e-05)
(0.408364 -0.001284 -4e-05)
(0.405882 -0.001277 -4e-05)
(0.403404 -0.00127 -4e-05)
(0.400929 -0.001264 -4e-05)
(0.398459 -0.001257 -4e-05)
(0.395993 -0.001251 -3.9e-05)
(0.39353 -0.001244 -3.9e-05)
(0.391072 -0.001238 -3.9e-05)
(0.388618 -0.001231 -3.9e-05)
(0.386169 -0.001224 -3.8e-05)
(0.383724 -0.001218 -3.8e-05)
(0.381284 -0.001211 -3.8e-05)
(0.378848 -0.001205 -3.8e-05)
(0.376417 -0.001198 -3.8e-05)
(0.373991 -0.001191 -3.7e-05)
(0.37157 -0.001185 -3.7e-05)
(0.369153 -0.001178 -3.7e-05)
(0.366742 -0.001172 -3.7e-05)
(0.364336 -0.001165 -3.7e-05)
(0.361936 -0.001158 -3.6e-05)
(0.35954 -0.001152 -3.6e-05)
(0.35715 -0.001145 -3.6e-05)
(0.354766 -0.001138 -3.6e-05)
(0.352387 -0.001132 -3.6e-05)
(0.350014 -0.001125 -3.5e-05)
(0.347647 -0.001119 -3.5e-05)
(0.345285 -0.001112 -3.5e-05)
(0.34293 -0.001105 -3.5e-05)
(0.34058 -0.001099 -3.5e-05)
(0.338237 -0.001092 -3.4e-05)
(0.3359 -0.001085 -3.4e-05)
(0.333569 -0.001079 -3.4e-05)
(0.331245 -0.001072 -3.4e-05)
(0.328927 -0.001066 -3.3e-05)
(0.326615 -0.001059 -3.3e-05)
(0.32431 -0.001052 -3.3e-05)
(0.322012 -0.001046 -3.3e-05)
(0.31972 -0.001039 -3.3e-05)
(0.317436 -0.001033 -3.2e-05)
(0.315158 -0.001026 -3.2e-05)
(0.312887 -0.001019 -3.2e-05)
(0.310624 -0.001013 -3.2e-05)
(0.308367 -0.001006 -3.2e-05)
(0.306118 -0.001 -3.1e-05)
(0.303876 -0.000993 -3.1e-05)
(0.301641 -0.000987 -3.1e-05)
(0.299414 -0.00098 -3.1e-05)
(0.297194 -0.000973 -3.1e-05)
(0.294982 -0.000967 -3e-05)
(0.292777 -0.00096 -3e-05)
(0.29058 -0.000954 -3e-05)
(0.288391 -0.000947 -3e-05)
(0.28621 -0.000941 -3e-05)
(0.284037 -0.000934 -2.9e-05)
(0.281871 -0.000928 -2.9e-05)
(0.279714 -0.000922 -2.9e-05)
(0.277565 -0.000915 -2.9e-05)
(0.275424 -0.000909 -2.9e-05)
(0.273291 -0.000902 -2.8e-05)
(0.271166 -0.000896 -2.8e-05)
(0.26905 -0.00089 -2.8e-05)
(0.266942 -0.000883 -2.8e-05)
(0.264843 -0.000877 -2.8e-05)
(0.262752 -0.00087 -2.7e-05)
(0.26067 -0.000864 -2.7e-05)
(0.258596 -0.000858 -2.7e-05)
(0.256531 -0.000852 -2.7e-05)
(0.254475 -0.000845 -2.7e-05)
(0.252428 -0.000839 -2.6e-05)
(0.250389 -0.000833 -2.6e-05)
(0.24836 -0.000826 -2.6e-05)
(0.246339 -0.00082 -2.6e-05)
(0.244327 -0.000814 -2.6e-05)
(0.242324 -0.000808 -2.5e-05)
(0.240331 -0.000802 -2.5e-05)
(0.238346 -0.000796 -2.5e-05)
(0.236371 -0.000789 -2.5e-05)
(0.234405 -0.000783 -2.5e-05)
(0.232449 -0.000777 -2.4e-05)
(0.230501 -0.000771 -2.4e-05)
(0.228563 -0.000765 -2.4e-05)
(0.226634 -0.000759 -2.4e-05)
(0.224715 -0.000753 -2.4e-05)
(0.222805 -0.000747 -2.3e-05)
(0.220905 -0.000741 -2.3e-05)
(0.219014 -0.000735 -2.3e-05)
(0.217133 -0.000729 -2.3e-05)
(0.215262 -0.000723 -2.3e-05)
(0.2134 -0.000717 -2.3e-05)
(0.211547 -0.000712 -2.2e-05)
(0.209705 -0.000706 -2.2e-05)
(0.207872 -0.0007 -2.2e-05)
(0.206049 -0.000694 -2.2e-05)
(0.204236 -0.000688 -2.2e-05)
(0.202433 -0.000683 -2.1e-05)
(0.200639 -0.000677 -2.1e-05)
(0.198855 -0.000671 -2.1e-05)
(0.197082 -0.000665 -2.1e-05)
(0.195318 -0.00066 -2.1e-05)
(0.193564 -0.000654 -2.1e-05)
(0.19182 -0.000649 -2e-05)
(0.190086 -0.000643 -2e-05)
(0.188362 -0.000637 -2e-05)
(0.186648 -0.000632 -2e-05)
(0.184944 -0.000626 -2e-05)
(0.18325 -0.000621 -2e-05)
(0.181566 -0.000615 -1.9e-05)
(0.179892 -0.00061 -1.9e-05)
(0.178229 -0.000605 -1.9e-05)
(0.176575 -0.000599 -1.9e-05)
(0.174932 -0.000594 -1.9e-05)
(0.173298 -0.000588 -1.8e-05)
(0.171675 -0.000583 -1.8e-05)
(0.170062 -0.000578 -1.8e-05)
(0.168459 -0.000573 -1.8e-05)
(0.166866 -0.000567 -1.8e-05)
(0.165284 -0.000562 -1.8e-05)
(0.163711 -0.000557 -1.8e-05)
(0.162149 -0.000552 -1.7e-05)
(0.160597 -0.000547 -1.7e-05)
(0.159055 -0.000542 -1.7e-05)
(0.157523 -0.000537 -1.7e-05)
(0.156001 -0.000532 -1.7e-05)
(0.154489 -0.000527 -1.7e-05)
(0.152988 -0.000522 -1.6e-05)
(0.151497 -0.000517 -1.6e-05)
(0.150016 -0.000512 -1.6e-05)
(0.148545 -0.000507 -1.6e-05)
(0.147084 -0.000502 -1.6e-05)
(0.145633 -0.000497 -1.6e-05)
(0.144192 -0.000493 -1.5e-05)
(0.142762 -0.000488 -1.5e-05)
(0.141341 -0.000483 -1.5e-05)
(0.139931 -0.000478 -1.5e-05)
(0.138531 -0.000474 -1.5e-05)
(0.13714 -0.000469 -1.5e-05)
(0.13576 -0.000464 -1.5e-05)
(0.13439 -0.00046 -1.4e-05)
(0.13303 -0.000455 -1.4e-05)
(0.13168 -0.000451 -1.4e-05)
(0.130339 -0.000446 -1.4e-05)
(0.129009 -0.000442 -1.4e-05)
(0.127689 -0.000437 -1.4e-05)
(0.126378 -0.000433 -1.4e-05)
(0.125078 -0.000429 -1.3e-05)
(0.123787 -0.000424 -1.3e-05)
(0.122507 -0.00042 -1.3e-05)
(0.121236 -0.000416 -1.3e-05)
(0.119974 -0.000411 -1.3e-05)
(0.118723 -0.000407 -1.3e-05)
(0.117482 -0.000403 -1.3e-05)
(0.11625 -0.000399 -1.3e-05)
(0.115028 -0.000395 -1.2e-05)
(0.113815 -0.000391 -1.2e-05)
(0.112612 -0.000386 -1.2e-05)
(0.111419 -0.000382 -1.2e-05)
(0.110235 -0.000378 -1.2e-05)
(0.109061 -0.000374 -1.2e-05)
(0.107897 -0.00037 -1.2e-05)
(0.106742 -0.000367 -1.2e-05)
(0.105596 -0.000363 -1.1e-05)
(0.10446 -0.000359 -1.1e-05)
(0.504513 -0.003553 -0.000112)
(0.501958 -0.003539 -0.000111)
(0.499403 -0.003525 -0.000111)
(0.496848 -0.003511 -0.00011)
(0.494294 -0.003497 -0.00011)
(0.49174 -0.003483 -0.000109)
(0.489187 -0.003469 -0.000109)
(0.486634 -0.003454 -0.000109)
(0.484083 -0.00344 -0.000108)
(0.481532 -0.003426 -0.000108)
(0.478982 -0.003411 -0.000107)
(0.476433 -0.003397 -0.000107)
(0.473885 -0.003383 -0.000106)
(0.471339 -0.003368 -0.000106)
(0.468794 -0.003354 -0.000105)
(0.46625 -0.003339 -0.000105)
(0.463708 -0.003324 -0.000104)
(0.461167 -0.00331 -0.000104)
(0.458629 -0.003295 -0.000104)
(0.456091 -0.00328 -0.000103)
(0.453556 -0.003266 -0.000103)
(0.451023 -0.003251 -0.000102)
(0.448492 -0.003236 -0.000102)
(0.445963 -0.003221 -0.000101)
(0.443436 -0.003206 -0.000101)
(0.440911 -0.003191 -0.0001)
(0.43839 -0.003176 -0.0001)
(0.43587 -0.003161 -9.9e-05)
(0.433353 -0.003146 -9.9e-05)
(0.430839 -0.003131 -9.8e-05)
(0.428328 -0.003116 -9.8e-05)
(0.425819 -0.003101 -9.7e-05)
(0.423314 -0.003086 -9.7e-05)
(0.420812 -0.003071 -9.7e-05)
(0.418313 -0.003056 -9.6e-05)
(0.415817 -0.003041 -9.6e-05)
(0.413324 -0.003025 -9.5e-05)
(0.410835 -0.00301 -9.5e-05)
(0.40835 -0.002995 -9.4e-05)
(0.405868 -0.00298 -9.4e-05)
(0.40339 -0.002964 -9.3e-05)
(0.400915 -0.002949 -9.3e-05)
(0.398445 -0.002934 -9.2e-05)
(0.395979 -0.002919 -9.2e-05)
(0.393517 -0.002903 -9.1e-05)
(0.391059 -0.002888 -9.1e-05)
(0.388605 -0.002872 -9e-05)
(0.386155 -0.002857 -9e-05)
(0.383711 -0.002842 -8.9e-05)
(0.38127 -0.002826 -8.9e-05)
(0.378835 -0.002811 -8.8e-05)
(0.376404 -0.002795 -8.8e-05)
(0.373977 -0.00278 -8.7e-05)
(0.371556 -0.002765 -8.7e-05)
(0.36914 -0.002749 -8.6e-05)
(0.366729 -0.002734 -8.6e-05)
(0.364323 -0.002718 -8.5e-05)
(0.361922 -0.002703 -8.5e-05)
(0.359527 -0.002687 -8.4e-05)
(0.357137 -0.002672 -8.4e-05)
(0.354753 -0.002656 -8.3e-05)
(0.352374 -0.002641 -8.3e-05)
(0.350001 -0.002625 -8.3e-05)
(0.347634 -0.00261 -8.2e-05)
(0.345272 -0.002594 -8.2e-05)
(0.342917 -0.002579 -8.1e-05)
(0.340568 -0.002563 -8.1e-05)
(0.338224 -0.002548 -8e-05)
(0.335887 -0.002533 -8e-05)
(0.333556 -0.002517 -7.9e-05)
(0.331232 -0.002502 -7.9e-05)
(0.328914 -0.002486 -7.8e-05)
(0.326603 -0.002471 -7.8e-05)
(0.324298 -0.002455 -7.7e-05)
(0.322 -0.00244 -7.7e-05)
(0.319708 -0.002425 -7.6e-05)
(0.317423 -0.002409 -7.6e-05)
(0.315146 -0.002394 -7.5e-05)
(0.312875 -0.002378 -7.5e-05)
(0.310611 -0.002363 -7.4e-05)
(0.308355 -0.002348 -7.4e-05)
(0.306106 -0.002332 -7.3e-05)
(0.303864 -0.002317 -7.3e-05)
(0.301629 -0.002302 -7.2e-05)
(0.299402 -0.002287 -7.2e-05)
(0.297182 -0.002271 -7.1e-05)
(0.29497 -0.002256 -7.1e-05)
(0.292765 -0.002241 -7e-05)
(0.290569 -0.002226 -7e-05)
(0.28838 -0.002211 -6.9e-05)
(0.286198 -0.002196 -6.9e-05)
(0.284025 -0.00218 -6.9e-05)
(0.28186 -0.002165 -6.8e-05)
(0.279702 -0.00215 -6.8e-05)
(0.277553 -0.002135 -6.7e-05)
(0.275412 -0.00212 -6.7e-05)
(0.273279 -0.002105 -6.6e-05)
(0.271155 -0.00209 -6.6e-05)
(0.269039 -0.002076 -6.5e-05)
(0.266931 -0.002061 -6.5e-05)
(0.264832 -0.002046 -6.4e-05)
(0.262741 -0.002031 -6.4e-05)
(0.260659 -0.002016 -6.3e-05)
(0.258585 -0.002002 -6.3e-05)
(0.25652 -0.001987 -6.2e-05)
(0.254464 -0.001972 -6.2e-05)
(0.252417 -0.001958 -6.2e-05)
(0.250379 -0.001943 -6.1e-05)
(0.248349 -0.001928 -6.1e-05)
(0.246328 -0.001914 -6e-05)
(0.244317 -0.001899 -6e-05)
(0.242314 -0.001885 -5.9e-05)
(0.240321 -0.001871 -5.9e-05)
(0.238336 -0.001856 -5.8e-05)
(0.236361 -0.001842 -5.8e-05)
(0.234395 -0.001828 -5.7e-05)
(0.232438 -0.001813 -5.7e-05)
(0.230491 -0.001799 -5.7e-05)
(0.228553 -0.001785 -5.6e-05)
(0.226624 -0.001771 -5.6e-05)
(0.224705 -0.001757 -5.5e-05)
(0.222796 -0.001743 -5.5e-05)
(0.220895 -0.001729 -5.4e-05)
(0.219005 -0.001715 -5.4e-05)
(0.217124 -0.001701 -5.3e-05)
(0.215252 -0.001688 -5.3e-05)
(0.21339 -0.001674 -5.3e-05)
(0.211538 -0.00166 -5.2e-05)
(0.209696 -0.001647 -5.2e-05)
(0.207863 -0.001633 -5.1e-05)
(0.20604 -0.001619 -5.1e-05)
(0.204227 -0.001606 -5e-05)
(0.202424 -0.001593 -5e-05)
(0.20063 -0.001579 -5e-05)
(0.198846 -0.001566 -4.9e-05)
(0.197073 -0.001553 -4.9e-05)
(0.195309 -0.001539 -4.8e-05)
(0.193555 -0.001526 -4.8e-05)
(0.191811 -0.001513 -4.8e-05)
(0.190077 -0.0015 -4.7e-05)
(0.188353 -0.001487 -4.7e-05)
(0.186639 -0.001474 -4.6e-05)
(0.184936 -0.001461 -4.6e-05)
(0.183242 -0.001449 -4.6e-05)
(0.181558 -0.001436 -4.5e-05)
(0.179884 -0.001423 -4.5e-05)
(0.178221 -0.001411 -4.4e-05)
(0.176567 -0.001398 -4.4e-05)
(0.174924 -0.001386 -4.4e-05)
(0.17329 -0.001373 -4.3e-05)
(0.171667 -0.001361 -4.3e-05)
(0.170054 -0.001348 -4.2e-05)
(0.168451 -0.001336 -4.2e-05)
(0.166859 -0.001324 -4.2e-05)
(0.165276 -0.001312 -4.1e-05)
(0.163704 -0.0013 -4.1e-05)
(0.162141 -0.001288 -4e-05)
(0.160589 -0.001276 -4e-05)
(0.159047 -0.001264 -4e-05)
(0.157515 -0.001252 -3.9e-05)
(0.155994 -0.001241 -3.9e-05)
(0.154482 -0.001229 -3.9e-05)
(0.152981 -0.001217 -3.8e-05)
(0.15149 -0.001206 -3.8e-05)
(0.150009 -0.001194 -3.8e-05)
(0.148538 -0.001183 -3.7e-05)
(0.147077 -0.001172 -3.7e-05)
(0.145626 -0.001161 -3.6e-05)
(0.144185 -0.001149 -3.6e-05)
(0.142755 -0.001138 -3.6e-05)
(0.141335 -0.001127 -3.5e-05)
(0.139924 -0.001116 -3.5e-05)
(0.138524 -0.001105 -3.5e-05)
(0.137134 -0.001094 -3.4e-05)
(0.135754 -0.001084 -3.4e-05)
(0.134384 -0.001073 -3.4e-05)
(0.133023 -0.001062 -3.3e-05)
(0.131673 -0.001052 -3.3e-05)
(0.130333 -0.001041 -3.3e-05)
(0.129003 -0.001031 -3.2e-05)
(0.127683 -0.001021 -3.2e-05)
(0.126372 -0.00101 -3.2e-05)
(0.125072 -0.001 -3.1e-05)
(0.123781 -0.00099 -3.1e-05)
(0.122501 -0.00098 -3.1e-05)
(0.12123 -0.00097 -3e-05)
(0.119969 -0.00096 -3e-05)
(0.118717 -0.00095 -3e-05)
(0.117476 -0.00094 -3e-05)
(0.116244 -0.00093 -2.9e-05)
(0.115022 -0.000921 -2.9e-05)
(0.11381 -0.000911 -2.9e-05)
(0.112607 -0.000902 -2.8e-05)
(0.111414 -0.000892 -2.8e-05)
(0.11023 -0.000883 -2.8e-05)
(0.109056 -0.000874 -2.7e-05)
(0.107892 -0.000864 -2.7e-05)
(0.106737 -0.000855 -2.7e-05)
(0.105591 -0.000846 -2.7e-05)
(0.104455 -0.000837 -2.6e-05)
(0.504484 -0.005787 -0.000182)
(0.501928 -0.005764 -0.000181)
(0.499373 -0.005741 -0.00018)
(0.496819 -0.005718 -0.00018)
(0.494264 -0.005695 -0.000179)
(0.491711 -0.005672 -0.000178)
(0.489157 -0.005649 -0.000178)
(0.486605 -0.005626 -0.000177)
(0.484053 -0.005603 -0.000176)
(0.481502 -0.005579 -0.000175)
(0.478953 -0.005556 -0.000175)
(0.476404 -0.005532 -0.000174)
(0.473856 -0.005509 -0.000173)
(0.47131 -0.005485 -0.000172)
(0.468765 -0.005461 -0.000172)
(0.466221 -0.005438 -0.000171)
(0.463679 -0.005414 -0.00017)
(0.461138 -0.00539 -0.000169)
(0.458599 -0.005366 -0.000169)
(0.456062 -0.005342 -0.000168)
(0.453527 -0.005318 -0.000167)
(0.450994 -0.005294 -0.000166)
(0.448463 -0.00527 -0.000166)
(0.445934 -0.005246 -0.000165)
(0.443407 -0.005221 -0.000164)
(0.440883 -0.005197 -0.000163)
(0.438361 -0.005173 -0.000163)
(0.435841 -0.005148 -0.000162)
(0.433324 -0.005124 -0.000161)
(0.43081 -0.0051 -0.00016)
(0.428299 -0.005075 -0.000159)
(0.425791 -0.00505 -0.000159)
(0.423285 -0.005026 -0.000158)
(0.420783 -0.005001 -0.000157)
(0.418284 -0.004977 -0.000156)
(0.415788 -0.004952 -0.000156)
(0.413296 -0.004927 -0.000155)
(0.410807 -0.004902 -0.000154)
(0.408321 -0.004877 -0.000153)
(0.40584 -0.004853 -0.000153)
(0.403362 -0.004828 -0.000152)
(0.400887 -0.004803 -0.000151)
(0.398417 -0.004778 -0.00015)
(0.395951 -0.004753 -0.000149)
(0.393489 -0.004728 -0.000149)
(0.391031 -0.004703 -0.000148)
(0.388577 -0.004678 -0.000147)
(0.386128 -0.004653 -0.000146)
(0.383683 -0.004628 -0.000145)
(0.381243 -0.004603 -0.000145)
(0.378807 -0.004578 -0.000144)
(0.376376 -0.004552 -0.000143)
(0.37395 -0.004527 -0.000142)
(0.371529 -0.004502 -0.000141)
(0.369113 -0.004477 -0.000141)
(0.366702 -0.004452 -0.00014)
(0.364296 -0.004427 -0.000139)
(0.361895 -0.004401 -0.000138)
(0.3595 -0.004376 -0.000138)
(0.35711 -0.004351 -0.000137)
(0.354726 -0.004326 -0.000136)
(0.352348 -0.004301 -0.000135)
(0.349975 -0.004275 -0.000134)
(0.347607 -0.00425 -0.000134)
(0.345246 -0.004225 -0.000133)
(0.342891 -0.0042 -0.000132)
(0.340542 -0.004175 -0.000131)
(0.338198 -0.00415 -0.00013)
(0.335861 -0.004124 -0.00013)
(0.333531 -0.004099 -0.000129)
(0.331206 -0.004074 -0.000128)
(0.328888 -0.004049 -0.000127)
(0.326577 -0.004024 -0.000126)
(0.324272 -0.003999 -0.000126)
(0.321974 -0.003974 -0.000125)
(0.319683 -0.003948 -0.000124)
(0.317398 -0.003923 -0.000123)
(0.315121 -0.003898 -0.000123)
(0.31285 -0.003873 -0.000122)
(0.310587 -0.003848 -0.000121)
(0.30833 -0.003823 -0.00012)
(0.306081 -0.003798 -0.000119)
(0.303839 -0.003774 -0.000119)
(0.301605 -0.003749 -0.000118)
(0.299378 -0.003724 -0.000117)
(0.297158 -0.003699 -0.000116)
(0.294946 -0.003674 -0.000115)
(0.292741 -0.00365 -0.000115)
(0.290545 -0.003625 -0.000114)
(0.288356 -0.0036 -0.000113)
(0.286175 -0.003576 -0.000112)
(0.284002 -0.003551 -0.000112)
(0.281836 -0.003526 -0.000111)
(0.279679 -0.003502 -0.00011)
(0.27753 -0.003477 -0.000109)
(0.275389 -0.003453 -0.000109)
(0.273257 -0.003429 -0.000108)
(0.271132 -0.003404 -0.000107)
(0.269016 -0.00338 -0.000106)
(0.266909 -0.003356 -0.000105)
(0.264809 -0.003332 -0.000105)
(0.262719 -0.003308 -0.000104)
(0.260637 -0.003283 -0.000103)
(0.258563 -0.003259 -0.000102)
(0.256498 -0.003236 -0.000102)
(0.254442 -0.003212 -0.000101)
(0.252395 -0.003188 -0.0001)
(0.250357 -0.003164 -9.9e-05)
(0.248327 -0.00314 -9.9e-05)
(0.246307 -0.003117 -9.8e-05)
(0.244295 -0.003093 -9.7e-05)
(0.242293 -0.00307 -9.6e-05)
(0.2403 -0.003046 -9.6e-05)
(0.238315 -0.003023 -9.5e-05)
(0.23634 -0.003 -9.4e-05)
(0.234374 -0.002976 -9.4e-05)
(0.232418 -0.002953 -9.3e-05)
(0.230471 -0.00293 -9.2e-05)
(0.228533 -0.002907 -9.1e-05)
(0.226604 -0.002884 -9.1e-05)
(0.224685 -0.002861 -9e-05)
(0.222776 -0.002839 -8.9e-05)
(0.220876 -0.002816 -8.8e-05)
(0.218985 -0.002793 -8.8e-05)
(0.217104 -0.002771 -8.7e-05)
(0.215233 -0.002748 -8.6e-05)
(0.213371 -0.002726 -8.6e-05)
(0.211519 -0.002704 -8.5e-05)
(0.209677 -0.002681 -8.4e-05)
(0.207844 -0.002659 -8.4e-05)
(0.206021 -0.002637 -8.3e-05)
(0.204208 -0.002615 -8.2e-05)
(0.202405 -0.002593 -8.2e-05)
(0.200612 -0.002572 -8.1e-05)
(0.198828 -0.00255 -8e-05)
(0.197055 -0.002528 -7.9e-05)
(0.195291 -0.002507 -7.9e-05)
(0.193537 -0.002485 -7.8e-05)
(0.191793 -0.002464 -7.7e-05)
(0.19006 -0.002443 -7.7e-05)
(0.188336 -0.002422 -7.6e-05)
(0.186622 -0.002401 -7.5e-05)
(0.184918 -0.00238 -7.5e-05)
(0.183225 -0.002359 -7.4e-05)
(0.181541 -0.002338 -7.3e-05)
(0.179867 -0.002318 -7.3e-05)
(0.178204 -0.002297 -7.2e-05)
(0.176551 -0.002277 -7.2e-05)
(0.174907 -0.002256 -7.1e-05)
(0.173274 -0.002236 -7e-05)
(0.171651 -0.002216 -7e-05)
(0.170038 -0.002196 -6.9e-05)
(0.168435 -0.002176 -6.8e-05)
(0.166843 -0.002156 -6.8e-05)
(0.16526 -0.002136 -6.7e-05)
(0.163688 -0.002117 -6.7e-05)
(0.162126 -0.002097 -6.6e-05)
(0.160574 -0.002078 -6.5e-05)
(0.159032 -0.002059 -6.5e-05)
(0.1575 -0.002039 -6.4e-05)
(0.155979 -0.00202 -6.3e-05)
(0.154467 -0.002001 -6.3e-05)
(0.152966 -0.001983 -6.2e-05)
(0.151475 -0.001964 -6.2e-05)
(0.149994 -0.001945 -6.1e-05)
(0.148523 -0.001927 -6.1e-05)
(0.147063 -0.001908 -6e-05)
(0.145612 -0.00189 -5.9e-05)
(0.144172 -0.001872 -5.9e-05)
(0.142741 -0.001854 -5.8e-05)
(0.141321 -0.001836 -5.8e-05)
(0.139911 -0.001818 -5.7e-05)
(0.138511 -0.0018 -5.7e-05)
(0.137121 -0.001782 -5.6e-05)
(0.13574 -0.001765 -5.5e-05)
(0.13437 -0.001747 -5.5e-05)
(0.13301 -0.00173 -5.4e-05)
(0.13166 -0.001713 -5.4e-05)
(0.13032 -0.001696 -5.3e-05)
(0.12899 -0.001679 -5.3e-05)
(0.12767 -0.001662 -5.2e-05)
(0.12636 -0.001645 -5.2e-05)
(0.12506 -0.001629 -5.1e-05)
(0.123769 -0.001612 -5.1e-05)
(0.122489 -0.001596 -5e-05)
(0.121218 -0.001579 -5e-05)
(0.119957 -0.001563 -4.9e-05)
(0.118706 -0.001547 -4.9e-05)
(0.117464 -0.001531 -4.8e-05)
(0.116233 -0.001515 -4.8e-05)
(0.115011 -0.0015 -4.7e-05)
(0.113798 -0.001484 -4.7e-05)
(0.112596 -0.001468 -4.6e-05)
(0.111403 -0.001453 -4.6e-05)
(0.110219 -0.001438 -4.5e-05)
(0.109045 -0.001423 -4.5e-05)
(0.107881 -0.001408 -4.4e-05)
(0.106726 -0.001393 -4.4e-05)
(0.105581 -0.001378 -4.3e-05)
(0.104445 -0.001363 -4.3e-05)
(0.504439 -0.008049 -0.000253)
(0.501884 -0.008018 -0.000252)
(0.499329 -0.007986 -0.000251)
(0.496774 -0.007954 -0.00025)
(0.49422 -0.007922 -0.000249)
(0.491666 -0.00789 -0.000248)
(0.489113 -0.007858 -0.000247)
(0.486561 -0.007825 -0.000246)
(0.484009 -0.007793 -0.000245)
(0.481458 -0.00776 -0.000244)
(0.478908 -0.007728 -0.000243)
(0.47636 -0.007695 -0.000242)
(0.473812 -0.007662 -0.000241)
(0.471266 -0.007629 -0.00024)
(0.468721 -0.007596 -0.000239)
(0.466177 -0.007563 -0.000238)
(0.463635 -0.00753 -0.000237)
(0.461094 -0.007497 -0.000236)
(0.458555 -0.007464 -0.000235)
(0.456018 -0.007431 -0.000234)
(0.453483 -0.007397 -0.000232)
(0.45095 -0.007364 -0.000231)
(0.448419 -0.00733 -0.00023)
(0.44589 -0.007296 -0.000229)
(0.443363 -0.007263 -0.000228)
(0.440839 -0.007229 -0.000227)
(0.438317 -0.007195 -0.000226)
(0.435798 -0.007161 -0.000225)
(0.433281 -0.007127 -0.000224)
(0.430767 -0.007093 -0.000223)
(0.428256 -0.007059 -0.000222)
(0.425748 -0.007025 -0.000221)
(0.423242 -0.006991 -0.00022)
(0.42074 -0.006956 -0.000219)
(0.418241 -0.006922 -0.000218)
(0.415746 -0.006888 -0.000216)
(0.413253 -0.006853 -0.000215)
(0.410764 -0.006819 -0.000214)
(0.408279 -0.006784 -0.000213)
(0.405797 -0.00675 -0.000212)
(0.403319 -0.006715 -0.000211)
(0.400845 -0.00668 -0.00021)
(0.398375 -0.006646 -0.000209)
(0.395909 -0.006611 -0.000208)
(0.393447 -0.006576 -0.000207)
(0.390989 -0.006541 -0.000206)
(0.388535 -0.006507 -0.000204)
(0.386086 -0.006472 -0.000203)
(0.383642 -0.006437 -0.000202)
(0.381201 -0.006402 -0.000201)
(0.378766 -0.006367 -0.0002)
(0.376335 -0.006332 -0.000199)
(0.373909 -0.006297 -0.000198)
(0.371488 -0.006262 -0.000197)
(0.369072 -0.006227 -0.000196)
(0.366661 -0.006192 -0.000195)
(0.364256 -0.006157 -0.000193)
(0.361855 -0.006122 -0.000192)
(0.35946 -0.006087 -0.000191)
(0.35707 -0.006052 -0.00019)
(0.354686 -0.006017 -0.000189)
(0.352308 -0.005982 -0.000188)
(0.349935 -0.005947 -0.000187)
(0.347568 -0.005912 -0.000186)
(0.345207 -0.005877 -0.000185)
(0.342852 -0.005842 -0.000184)
(0.340502 -0.005807 -0.000182)
(0.338159 -0.005772 -0.000181)
(0.335822 -0.005737 -0.00018)
(0.333492 -0.005702 -0.000179)
(0.331168 -0.005667 -0.000178)
(0.32885 -0.005632 -0.000177)
(0.326539 -0.005597 -0.000176)
(0.324234 -0.005562 -0.000175)
(0.321936 -0.005527 -0.000174)
(0.319645 -0.005492 -0.000173)
(0.317361 -0.005457 -0.000171)
(0.315083 -0.005422 -0.00017)
(0.312813 -0.005388 -0.000169)
(0.310549 -0.005353 -0.000168)
(0.308293 -0.005318 -0.000167)
(0.306044 -0.005283 -0.000166)
(0.303802 -0.005249 -0.000165)
(0.301568 -0.005214 -0.000164)
(0.299341 -0.00518 -0.000163)
(0.297122 -0.005145 -0.000162)
(0.29491 -0.005111 -0.000161)
(0.292705 -0.005076 -0.00016)
(0.290509 -0.005042 -0.000158)
(0.28832 -0.005007 -0.000157)
(0.286139 -0.004973 -0.000156)
(0.283966 -0.004939 -0.000155)
(0.281801 -0.004905 -0.000154)
(0.279644 -0.004871 -0.000153)
(0.277495 -0.004837 -0.000152)
(0.275355 -0.004803 -0.000151)
(0.273222 -0.004769 -0.00015)
(0.271098 -0.004735 -0.000149)
(0.268982 -0.004701 -0.000148)
(0.266875 -0.004668 -0.000147)
(0.264776 -0.004634 -0.000146)
(0.262685 -0.0046 -0.000145)
(0.260603 -0.004567 -0.000144)
(0.25853 -0.004534 -0.000142)
(0.256465 -0.0045 -0.000141)
(0.25441 -0.004467 -0.00014)
(0.252363 -0.004434 -0.000139)
(0.250324 -0.004401 -0.000138)
(0.248295 -0.004368 -0.000137)
(0.246275 -0.004335 -0.000136)
(0.244264 -0.004302 -0.000135)
(0.242261 -0.00427 -0.000134)
(0.240268 -0.004237 -0.000133)
(0.238284 -0.004204 -0.000132)
(0.236309 -0.004172 -0.000131)
(0.234344 -0.00414 -0.00013)
(0.232387 -0.004108 -0.000129)
(0.23044 -0.004075 -0.000128)
(0.228502 -0.004043 -0.000127)
(0.226574 -0.004012 -0.000126)
(0.224655 -0.00398 -0.000125)
(0.222746 -0.003948 -0.000124)
(0.220846 -0.003917 -0.000123)
(0.218956 -0.003885 -0.000122)
(0.217075 -0.003854 -0.000121)
(0.215204 -0.003822 -0.00012)
(0.213342 -0.003791 -0.000119)
(0.21149 -0.00376 -0.000118)
(0.209648 -0.003729 -0.000117)
(0.207816 -0.003699 -0.000116)
(0.205993 -0.003668 -0.000115)
(0.20418 -0.003638 -0.000114)
(0.202377 -0.003607 -0.000113)
(0.200584 -0.003577 -0.000112)
(0.198801 -0.003547 -0.000111)
(0.197027 -0.003517 -0.000111)
(0.195264 -0.003487 -0.00011)
(0.19351 -0.003457 -0.000109)
(0.191767 -0.003427 -0.000108)
(0.190033 -0.003398 -0.000107)
(0.18831 -0.003368 -0.000106)
(0.186596 -0.003339 -0.000105)
(0.184893 -0.00331 -0.000104)
(0.183199 -0.003281 -0.000103)
(0.181516 -0.003252 -0.000102)
(0.179842 -0.003224 -0.000101)
(0.178179 -0.003195 -0.0001)
(0.176526 -0.003167 -0.0001)
(0.174883 -0.003138 -9.9e-05)
(0.17325 -0.00311 -9.8e-05)
(0.171627 -0.003082 -9.7e-05)
(0.170014 -0.003054 -9.6e-05)
(0.168412 -0.003027 -9.5e-05)
(0.166819 -0.002999 -9.4e-05)
(0.165237 -0.002972 -9.3e-05)
(0.163665 -0.002944 -9.3e-05)
(0.162103 -0.002917 -9.2e-05)
(0.160551 -0.00289 -9.1e-05)
(0.159009 -0.002863 -9e-05)
(0.157478 -0.002837 -8.9e-05)
(0.155956 -0.00281 -8.8e-05)
(0.154445 -0.002784 -8.7e-05)
(0.152944 -0.002757 -8.7e-05)
(0.151453 -0.002731 -8.6e-05)
(0.149972 -0.002705 -8.5e-05)
(0.148502 -0.00268 -8.4e-05)
(0.147041 -0.002654 -8.3e-05)
(0.145591 -0.002629 -8.3e-05)
(0.144151 -0.002603 -8.2e-05)
(0.14272 -0.002578 -8.1e-05)
(0.1413 -0.002553 -8e-05)
(0.13989 -0.002528 -7.9e-05)
(0.13849 -0.002503 -7.9e-05)
(0.137101 -0.002479 -7.8e-05)
(0.135721 -0.002455 -7.7e-05)
(0.134351 -0.00243 -7.6e-05)
(0.132991 -0.002406 -7.6e-05)
(0.131641 -0.002382 -7.5e-05)
(0.130301 -0.002359 -7.4e-05)
(0.128971 -0.002335 -7.3e-05)
(0.127651 -0.002311 -7.3e-05)
(0.126341 -0.002288 -7.2e-05)
(0.125041 -0.002265 -7.1e-05)
(0.123751 -0.002242 -7e-05)
(0.122471 -0.002219 -7e-05)
(0.1212 -0.002197 -6.9e-05)
(0.119939 -0.002174 -6.8e-05)
(0.118688 -0.002152 -6.8e-05)
(0.117447 -0.00213 -6.7e-05)
(0.116215 -0.002108 -6.6e-05)
(0.114994 -0.002086 -6.6e-05)
(0.113781 -0.002064 -6.5e-05)
(0.112579 -0.002042 -6.4e-05)
(0.111386 -0.002021 -6.4e-05)
(0.110203 -0.002 -6.3e-05)
(0.109029 -0.001979 -6.2e-05)
(0.107865 -0.001958 -6.2e-05)
(0.10671 -0.001937 -6.1e-05)
(0.105565 -0.001916 -6e-05)
(0.104429 -0.001896 -6e-05)
(0.50438 -0.010321 -0.000324)
(0.501825 -0.010281 -0.000323)
(0.49927 -0.01024 -0.000322)
(0.496715 -0.010199 -0.000321)
(0.494161 -0.010158 -0.000319)
(0.491607 -0.010117 -0.000318)
(0.489054 -0.010075 -0.000317)
(0.486502 -0.010034 -0.000315)
(0.48395 -0.009992 -0.000314)
(0.481399 -0.009951 -0.000313)
(0.478849 -0.009909 -0.000311)
(0.476301 -0.009867 -0.00031)
(0.473753 -0.009825 -0.000309)
(0.471207 -0.009783 -0.000307)
(0.468662 -0.009741 -0.000306)
(0.466118 -0.009698 -0.000305)
(0.463576 -0.009656 -0.000303)
(0.461036 -0.009613 -0.000302)
(0.458497 -0.00957 -0.000301)
(0.45596 -0.009528 -0.000299)
(0.453425 -0.009485 -0.000298)
(0.450892 -0.009442 -0.000297)
(0.448361 -0.009399 -0.000295)
(0.445832 -0.009356 -0.000294)
(0.443306 -0.009312 -0.000293)
(0.440781 -0.009269 -0.000291)
(0.438259 -0.009226 -0.00029)
(0.43574 -0.009182 -0.000289)
(0.433224 -0.009139 -0.000287)
(0.43071 -0.009095 -0.000286)
(0.428199 -0.009051 -0.000284)
(0.42569 -0.009007 -0.000283)
(0.423185 -0.008964 -0.000282)
(0.420683 -0.00892 -0.00028)
(0.418184 -0.008876 -0.000279)
(0.415689 -0.008832 -0.000278)
(0.413196 -0.008787 -0.000276)
(0.410708 -0.008743 -0.000275)
(0.408222 -0.008699 -0.000273)
(0.405741 -0.008655 -0.000272)
(0.403263 -0.00861 -0.000271)
(0.400789 -0.008566 -0.000269)
(0.398319 -0.008521 -0.000268)
(0.395853 -0.008477 -0.000266)
(0.393391 -0.008432 -0.000265)
(0.390933 -0.008388 -0.000264)
(0.38848 -0.008343 -0.000262)
(0.386031 -0.008298 -0.000261)
(0.383586 -0.008254 -0.000259)
(0.381146 -0.008209 -0.000258)
(0.378711 -0.008164 -0.000257)
(0.37628 -0.008119 -0.000255)
(0.373855 -0.008074 -0.000254)
(0.371434 -0.008029 -0.000252)
(0.369018 -0.007985 -0.000251)
(0.366607 -0.00794 -0.00025)
(0.364202 -0.007895 -0.000248)
(0.361801 -0.00785 -0.000247)
(0.359406 -0.007805 -0.000245)
(0.357017 -0.00776 -0.000244)
(0.354633 -0.007715 -0.000242)
(0.352255 -0.00767 -0.000241)
(0.349882 -0.007625 -0.00024)
(0.347515 -0.00758 -0.000238)
(0.345154 -0.007535 -0.000237)
(0.342799 -0.00749 -0.000235)
(0.34045 -0.007445 -0.000234)
(0.338107 -0.0074 -0.000233)
(0.335771 -0.007355 -0.000231)
(0.33344 -0.007311 -0.00023)
(0.331116 -0.007266 -0.000228)
(0.328799 -0.007221 -0.000227)
(0.326488 -0.007176 -0.000226)
(0.324183 -0.007131 -0.000224)
(0.321886 -0.007087 -0.000223)
(0.319595 -0.007042 -0.000221)
(0.31731 -0.006997 -0.00022)
(0.315033 -0.006952 -0.000218)
(0.312763 -0.006908 -0.000217)
(0.3105 -0.006863 -0.000216)
(0.308244 -0.006819 -0.000214)
(0.305995 -0.006774 -0.000213)
(0.303753 -0.00673 -0.000211)
(0.301519 -0.006685 -0.00021)
(0.299292 -0.006641 -0.000209)
(0.297073 -0.006597 -0.000207)
(0.294862 -0.006553 -0.000206)
(0.292658 -0.006509 -0.000205)
(0.290461 -0.006464 -0.000203)
(0.288273 -0.00642 -0.000202)
(0.286092 -0.006377 -0.0002)
(0.283919 -0.006333 -0.000199)
(0.281754 -0.006289 -0.000198)
(0.279598 -0.006245 -0.000196)
(0.277449 -0.006202 -0.000195)
(0.275309 -0.006158 -0.000194)
(0.273176 -0.006115 -0.000192)
(0.271052 -0.006071 -0.000191)
(0.268937 -0.006028 -0.000189)
(0.266829 -0.005985 -0.000188)
(0.264731 -0.005942 -0.000187)
(0.26264 -0.005899 -0.000185)
(0.260559 -0.005856 -0.000184)
(0.258486 -0.005813 -0.000183)
(0.256421 -0.00577 -0.000181)
(0.254366 -0.005728 -0.00018)
(0.252319 -0.005685 -0.000179)
(0.250281 -0.005643 -0.000177)
(0.248252 -0.0056 -0.000176)
(0.246232 -0.005558 -0.000175)
(0.244221 -0.005516 -0.000173)
(0.242219 -0.005474 -0.000172)
(0.240226 -0.005433 -0.000171)
(0.238242 -0.005391 -0.000169)
(0.236268 -0.005349 -0.000168)
(0.234302 -0.005308 -0.000167)
(0.232346 -0.005267 -0.000166)
(0.230399 -0.005225 -0.000164)
(0.228462 -0.005184 -0.000163)
(0.226534 -0.005144 -0.000162)
(0.224615 -0.005103 -0.00016)
(0.222706 -0.005062 -0.000159)
(0.220806 -0.005022 -0.000158)
(0.218916 -0.004981 -0.000157)
(0.217036 -0.004941 -0.000155)
(0.215165 -0.004901 -0.000154)
(0.213304 -0.004861 -0.000153)
(0.211452 -0.004821 -0.000152)
(0.20961 -0.004782 -0.00015)
(0.207778 -0.004742 -0.000149)
(0.205956 -0.004703 -0.000148)
(0.204143 -0.004664 -0.000147)
(0.20234 -0.004625 -0.000145)
(0.200547 -0.004586 -0.000144)
(0.198764 -0.004547 -0.000143)
(0.196991 -0.004509 -0.000142)
(0.195228 -0.004471 -0.00014)
(0.193475 -0.004432 -0.000139)
(0.191731 -0.004394 -0.000138)
(0.189998 -0.004357 -0.000137)
(0.188275 -0.004319 -0.000136)
(0.186561 -0.004281 -0.000135)
(0.184858 -0.004244 -0.000133)
(0.183165 -0.004207 -0.000132)
(0.181482 -0.00417 -0.000131)
(0.179809 -0.004133 -0.00013)
(0.178146 -0.004096 -0.000129)
(0.176493 -0.00406 -0.000128)
(0.17485 -0.004024 -0.000126)
(0.173217 -0.003988 -0.000125)
(0.171594 -0.003952 -0.000124)
(0.169982 -0.003916 -0.000123)
(0.16838 -0.003881 -0.000122)
(0.166788 -0.003845 -0.000121)
(0.165205 -0.00381 -0.00012)
(0.163634 -0.003775 -0.000119)
(0.162072 -0.00374 -0.000118)
(0.16052 -0.003706 -0.000116)
(0.158979 -0.003671 -0.000115)
(0.157448 -0.003637 -0.000114)
(0.155927 -0.003603 -0.000113)
(0.154416 -0.003569 -0.000112)
(0.152915 -0.003535 -0.000111)
(0.151424 -0.003502 -0.00011)
(0.149944 -0.003469 -0.000109)
(0.148473 -0.003436 -0.000108)
(0.147013 -0.003403 -0.000107)
(0.145563 -0.00337 -0.000106)
(0.144123 -0.003338 -0.000105)