/*--------------------------------*- C++ -*----------------------------------*\
| =========                 |                                                 |
| \\      /  F ield         | OpenFOAM: The Open Source CFD Toolbox           |
|  \\    /   O peration     | Version:  v1706                                 |
|   \\  /    A nd           | Web:      www.OpenFOAM.com                      |
|    \\/     M anipulation  |                                                 |
\*---------------------------------------------------------------------------*/
FoamFile
{
    version     2.0;
    format      ascii;
    class       volScalarField;
    location    "0.003";
    object      frictionCoefficient;
}
// * * * * * * * * * * * * * * * * * * * * * * * * * * * * * * * * * * * * * //

dimensions      [0 0 0 0 0 0 0];


internalField   uniform 0;

boundaryField
{
    inlet
    {
        type            calculated;
        value           uniform 0;
    }
    object
    {
        type            calculated;
        value           nonuniform List<scalar> 
400
(
7.919010908e-07
8.789655051e-07
1.101768659e-06
1.369773273e-06
1.661893549e-06
1.967748178e-06
2.282134842e-06
2.60224722e-06
2.926456634e-06
3.253753526e-06
3.583473813e-06
3.915156848e-06
4.248466982e-06
4.583148621e-06
4.918999286e-06
5.255853005e-06
5.593569756e-06
5.932028653e-06
6.271123429e-06
6.610759315e-06
6.95085136e-06
7.291322519e-06
7.632102793e-06
7.973128754e-06
8.314342555e-06
8.655692262e-06
8.997130704e-06
9.338616372e-06
9.680111704e-06
1.002158432e-05
1.036300586e-05
1.070435225e-05
1.104560368e-05
1.138674386e-05
1.172776056e-05
1.206864485e-05
1.24093908e-05
1.274999608e-05
1.309046082e-05
1.343078817e-05
1.377098385e-05
1.411105573e-05
1.445101379e-05
1.479086955e-05
1.513063726e-05
1.547033186e-05
1.580996981e-05
1.614956929e-05
1.648914915e-05
1.682872914e-05
1.71683294e-05
1.750797153e-05
1.784767672e-05
1.818746698e-05
1.852736516e-05
1.886739227e-05
1.920757116e-05
1.954792412e-05
1.988847391e-05
2.02292415e-05
2.057024961e-05
2.09115185e-05
2.125306913e-05
2.15949225e-05
2.193709805e-05
2.227961542e-05
2.262249334e-05
2.29657509e-05
2.330940453e-05
2.365347172e-05
2.399796964e-05
2.434291279e-05
2.468831705e-05
2.503419728e-05
2.53805664e-05
2.572743785e-05
2.607482464e-05
2.642273779e-05
2.677118951e-05
2.712019e-05
2.746974866e-05
2.781987558e-05
2.817057831e-05
2.852186633e-05
2.887374607e-05
2.92262248e-05
2.957930863e-05
2.993300374e-05
3.028731547e-05
3.064224719e-05
3.099780484e-05
3.135398993e-05
3.171080792e-05
3.20682596e-05
3.242634756e-05
3.278507386e-05
3.314444026e-05
3.350444539e-05
3.386509149e-05
3.42263766e-05
3.458830115e-05
3.495086384e-05
3.531406291e-05
3.567789596e-05
3.604236119e-05
3.640745643e-05
3.677317658e-05
3.713951929e-05
3.75064795e-05
3.787405405e-05
3.82422369e-05
3.861102196e-05
3.89804064e-05
3.935038138e-05
3.972094042e-05
4.009207756e-05
4.046378529e-05
4.083605583e-05
4.120888114e-05
4.158225159e-05
4.195615858e-05
4.233059284e-05
4.270554404e-05
4.308100053e-05
4.345695332e-05
4.383339062e-05
4.42103e-05
4.458766888e-05
4.496548561e-05
4.534373416e-05
4.572240448e-05
4.610147881e-05
4.648094401e-05
4.68607846e-05
4.724098347e-05
4.762152377e-05
4.800238975e-05
4.838356244e-05
4.876502182e-05
4.914675232e-05
4.952873003e-05
4.991093505e-05
5.029334628e-05
5.067594187e-05
5.105869908e-05
5.144158983e-05
5.18245941e-05
5.220768412e-05
5.259083169e-05
5.297400946e-05
5.335718828e-05
5.374033793e-05
5.41234271e-05
5.45064217e-05
5.48892905e-05
5.527199564e-05
5.565450121e-05
5.603676807e-05
5.641875825e-05
5.680042917e-05
5.718173671e-05
5.756263434e-05
5.794307648e-05
5.832301411e-05
5.870239379e-05
5.90811637e-05
5.945926663e-05
5.983664151e-05
6.021323112e-05
6.058896797e-05
6.096378306e-05
6.133760389e-05
6.171035955e-05
6.208196888e-05
6.245234632e-05
6.28214061e-05
6.318905269e-05
6.355518617e-05
6.391970236e-05
6.428248717e-05
6.464341746e-05
6.500236199e-05
6.535918426e-05
6.571372848e-05
6.606582884e-05
6.641530113e-05
6.676194631e-05
6.71055403e-05
6.744583008e-05
6.778253694e-05
6.811533599e-05
6.844385604e-05
6.876766014e-05
6.908623586e-05
6.939895373e-05
6.970503521e-05
7.000348972e-05
7.029298425e-05
7.057148717e-05
7.083429824e-05
7.110089273e-05
7.140786921e-05
7.174376543e-05
7.209807695e-05
7.246533684e-05
7.284289958e-05
7.32293615e-05
7.362390614e-05
7.40260092e-05
7.443532194e-05
7.485160001e-05
7.527467412e-05
7.570442837e-05
7.614079507e-05
7.658373405e-05
7.703323258e-05
7.748930581e-05
7.795198447e-05
7.842131527e-05
7.889736179e-05
7.938020452e-05
7.986993003e-05
8.036664348e-05
8.087045108e-05
8.138148184e-05
8.189986793e-05
8.242575116e-05
8.295928213e-05
8.350062823e-05
8.404995781e-05
8.460745266e-05
8.51733064e-05
8.574771746e-05
8.63308989e-05
8.692306778e-05
8.752445954e-05
8.813531518e-05
8.875588848e-05
8.938643853e-05
9.002724704e-05
9.067860389e-05
9.134080331e-05
9.20141638e-05
9.269901303e-05
9.339569394e-05
9.410456208e-05
9.482598681e-05
9.556036703e-05
9.630810789e-05
9.706963193e-05
9.78453928e-05
9.863584897e-05
9.944148751e-05
0.0001002628242
0.0001011003999
0.0001019547746
0.0001028265438
0.0001037163294
0.0001046247862
0.0001055526129
0.0001065005233
0.0001074693008
0.0001084597484
0.0001094727333
0.0001105091723
0.0001115700337
0.0001126563522
0.0001137692138
0.0001149098033
0.0001160793767
0.0001172792748
0.0001185109329
0.0001197759182
0.0001210758954
0.000122412682
0.000123788248
0.0001252047196
0.0001266644487
0.0001281699738
0.0001297241247
0.0001313300006
0.000132991059
0.0001347111246
0.0001364945258
0.0001383461229
0.0001402714136
0.0001422767198
0.000144369333
0.0001465577508
0.0001488519719
0.0001512639045
0.0001538080121
0.0001565020591
0.0001593683847
0.0001624357977
0.000165742496
0.0001693408909
0.0001733050611
0.0001777393567
0.0001827825825
0.0001878338447
0.0001921805867
0.0001960177573
0.0001994439186
0.0002025681154
0.000205466744
0.0002081918571
0.0002107784814
0.0002132501954
0.0002156230194
0.0002179079788
0.0002201127916
0.0002222430223
0.0002243027548
0.0002262951147
0.0002282225371
0.0002300869735
0.0002318900717
0.0002336331964
0.0002353175959
0.0002369443055
0.0002385143276
0.0002400285983
0.0002414879675
0.0002428932902
0.0002442453762
0.0002455451234
0.0002467934061
0.0002479915288
0.000249136291
0.0002503477898
0.0002516087659
0.0002527389639
0.0002537943319
0.0002547903296
0.0002557312453
0.0002566193529
0.0002574562977
0.0002582435163
0.0002589822852
0.0002596738451
0.0002603193709
0.0002609199394
0.0002614766292
0.0002619905672
0.0002624629014
0.0002628947399
0.0002632872128
0.0002636414634
0.0002639586665
0.0002642399338
0.0002644863977
0.0002646992309
0.0002648795686
0.0002650285667
0.0002651473398
0.0002652370024
0.0002652986555
0.0002653333585
0.0002653421763
0.0002653261474
0.0002652862702
0.0002652235477
0.0002651389437
0.0002650333885
0.0002649078037
0.0002647630908
0.00026460012
0.0002644197466
0.0002642228028
0.0002640100826
0.0002637823882
0.00026354047
0.0002632850802
0.0002630169376
0.0002627367562
0.0002624452325
0.0002621430383
0.0002618307992
0.0002615091759
0.0002611787854
0.0002608402185
0.0002604940748
0.0002601409231
0.0002597813184
0.0002594158169
0.0002590449329
0.0002586691689
0.0002582890354
0.0002579050183
0.000257517594
0.0002571272107
0.000256734311
0.0002563393374
0.000255942707
0.0002555448224
0.0002551460821
0.0002547468849
0.0002543504061
0.000254851036
)
;
    }
    outlet
    {
        type            calculated;
        value           uniform 0;
    }
    front
    {
        type            wedge;
    }
    back
    {
        type            wedge;
    }
}


// ************************************************************************* //
