/*--------------------------------*- C++ -*----------------------------------*\
| =========                 |                                                 |
| \\      /  F ield         | OpenFOAM: The Open Source CFD Toolbox           |
|  \\    /   O peration     | Version:  v1706                                 |
|   \\  /    A nd           | Web:      www.OpenFOAM.com                      |
|    \\/     M anipulation  |                                                 |
\*---------------------------------------------------------------------------*/
FoamFile
{
    version     2.0;
    format      ascii;
    class       volScalarField;
    location    "0.003";
    object      kappave;
}
// * * * * * * * * * * * * * * * * * * * * * * * * * * * * * * * * * * * * * //

dimensions      [1 1 -3 -1 0 0 0];


internalField   nonuniform List<scalar> 
80000
(
0.09955168718
0.09955480303
0.09957168622
0.0995871174
0.09960086846
0.0996129148
0.09962325304
0.09963189197
0.09963885164
0.09964416277
0.0996478661
0.0996500117
0.09965065816
0.09964987176
0.09964772552
0.0996442982
0.09963967334
0.09963393816
0.09962718256
0.09961949803
0.09961097667
0.09960171017
0.09959178891
0.09958130107
0.09957033184
0.09955896266
0.09954727064
0.09953532797
0.09952320152
0.09951095243
0.09949863593
0.0994863011
0.09947399087
0.099461742
0.0994495852
0.09943754526
0.09942564133
0.09941388718
0.09940229155
0.09939085849
0.09937958778
0.09936847537
0.09935751374
0.09934669237
0.09933599817
0.09932541584
0.09931492828
0.09930451695
0.0992941622
0.09928384356
0.09927354002
0.09926323025
0.0992528928
0.09924250628
0.09923204943
0.0992215013
0.09921084123
0.09920004896
0.09918910463
0.09917798872
0.09916668211
0.099155166
0.09914342184
0.09913143134
0.09911917631
0.09910663872
0.09909380052
0.09908064361
0.0990671498
0.09905330073
0.09903907781
0.09902446215
0.09900943453
0.09899397537
0.09897806465
0.09896168191
0.09894480619
0.09892741603
0.09890948943
0.09889100383
0.0988719361
0.0988522625
0.09883195874
0.09881099988
0.09878936042
0.09876701428
0.09874393484
0.09872009493
0.09869546696
0.09867002294
0.0986437347
0.09861657392
0.09858851257
0.09855952304
0.09852957873
0.09849865466
0.09846672837
0.09843378123
0.09839980025
0.09836478085
0.09832873097
0.09829167743
0.098253676
0.0982148274
0.09817530334
0.09813538633
0.09809549685
0.09805565325
0.09800487051
0.09772857431
0.09527149576
0.08302743196
0.0004169941881
1.60095174e-05
1.591677771e-05
1.591676028e-05
1.591675187e-05
1.59167436e-05
1.591673545e-05
1.591672744e-05
1.591671955e-05
1.591671179e-05
1.591670415e-05
1.591669665e-05
1.591668926e-05
1.5916682e-05
1.591667486e-05
1.591666785e-05
1.591666096e-05
1.591665419e-05
1.591664754e-05
1.591664101e-05
1.59166346e-05
1.591662831e-05
1.591662213e-05
1.591661608e-05
1.591661014e-05
1.591660431e-05
1.59165986e-05
1.591659301e-05
1.591658752e-05
1.591658215e-05
1.591657689e-05
1.591657175e-05
1.591656671e-05
1.591656178e-05
1.591655696e-05
1.591655225e-05
1.591654765e-05
1.591654315e-05
1.591653876e-05
1.591653448e-05
1.59165303e-05
1.591652622e-05
1.591652224e-05
1.591651837e-05
1.59165146e-05
1.591651093e-05
1.591650736e-05
1.591650389e-05
1.591650051e-05
1.591649724e-05
1.591649406e-05
1.591649098e-05
1.591648799e-05
1.59164851e-05
1.591648231e-05
1.59164796e-05
1.591647699e-05
1.591647447e-05
1.591647205e-05
1.591646971e-05
1.591646746e-05
1.591646531e-05
1.591646324e-05
1.591646126e-05
1.591645936e-05
1.591645756e-05
1.591645583e-05
1.59164542e-05
1.591645264e-05
1.591645117e-05
1.591644978e-05
1.591644847e-05
1.591644725e-05
1.59164461e-05
1.591644503e-05
1.591644404e-05
1.591644312e-05
1.591644228e-05
1.591644152e-05
1.591644082e-05
1.59164402e-05
1.591643965e-05
1.591643917e-05
1.591643876e-05
1.591643841e-05
1.591643813e-05
1.591643791e-05
1.591643776e-05
0.09957042239
0.09957353764
0.09959041937
0.09960584973
0.09961960439
0.0996316606
0.09964201577
0.09965067895
0.09965767019
0.0996630201
0.09966676923
0.09966896749
0.09966967329
0.09966895274
0.0996668787
0.09966352982
0.09965898953
0.09965334496
0.09964668593
0.09963910388
0.09963069087
0.09962153858
0.09961173738
0.09960137544
0.09959053796
0.09957930642
0.09956775796
0.09955596481
0.0995439939
0.09953190642
0.09951975766
0.09950759677
0.09949546677
0.09948340447
0.09947144067
0.09945960025
0.09944790242
0.09943636104
0.09942498493
0.09941377823
0.0994027408
0.09939186864
0.09938115434
0.09937058744
0.09936015493
0.09934984156
0.09933963032
0.09932950272
0.09931943917
0.09930941925
0.09929942202
0.0992894262
0.09927941037
0.0992693532
0.09925923346
0.09924903023
0.0992387229
0.09922829124
0.09921771538
0.09920697585
0.09919605354
0.09918492963
0.0991735856
0.09916200314
0.09915016406
0.0991380503
0.09912564376
0.09911292635
0.0990998798
0.0990864857
0.0990727254
0.09905857992
0.09904402997
0.09902905586
0.09901363747
0.09899775419
0.09898138497
0.09896450818
0.09894710166
0.09892914269
0.09891060796
0.09889147353
0.09887171491
0.09885130694
0.09883022387
0.09880843937
0.09878592651
0.09876265784
0.09873860539
0.09871374079
0.09868803537
0.09866146031
0.09863398684
0.09860558657
0.09857623182
0.09854589622
0.09851455545
0.09848218824
0.09844877786
0.09841431404
0.09837879576
0.09834223512
0.09830466271
0.09826613494
0.09822674377
0.09818662736
0.09814594715
0.09810427348
0.09804994741
0.09776854046
0.09531282871
0.08311019809
0.0004178193585
1.600977918e-05
1.591676451e-05
1.591674743e-05
1.591673939e-05
1.591673148e-05
1.59167237e-05
1.591671603e-05
1.59167085e-05
1.591670108e-05
1.591669379e-05
1.591668662e-05
1.591667957e-05
1.591667264e-05
1.591666583e-05
1.591665913e-05
1.591665256e-05
1.59166461e-05
1.591663976e-05
1.591663353e-05
1.591662742e-05
1.591662143e-05
1.591661555e-05
1.591660978e-05
1.591660412e-05
1.591659857e-05
1.591659314e-05
1.591658781e-05
1.59165826e-05
1.591657749e-05
1.591657249e-05
1.59165676e-05
1.591656281e-05
1.591655813e-05
1.591655355e-05
1.591654908e-05
1.591654471e-05
1.591654044e-05
1.591653628e-05
1.591653221e-05
1.591652824e-05
1.591652437e-05
1.59165206e-05
1.591651693e-05
1.591651336e-05
1.591650988e-05
1.591650649e-05
1.59165032e-05
1.59165e-05
1.591649689e-05
1.591649388e-05
1.591649095e-05
1.591648812e-05
1.591648537e-05
1.591648271e-05
1.591648014e-05
1.591647765e-05
1.591647525e-05
1.591647293e-05
1.59164707e-05
1.591646855e-05
1.591646648e-05
1.591646449e-05
1.591646258e-05
1.591646075e-05
1.591645899e-05
1.591645731e-05
1.591645571e-05
1.591645418e-05
1.591645273e-05
1.591645134e-05
1.591645003e-05
1.591644879e-05
1.591644762e-05
1.591644652e-05
1.591644548e-05
1.591644451e-05
1.591644361e-05
1.591644277e-05
1.591644199e-05
1.591644127e-05
1.591644062e-05
1.591644002e-05
1.591643949e-05
1.591643901e-05
1.591643859e-05
1.591643822e-05
1.591643791e-05
0.09957840511
0.09958150477
0.09959838653
0.09961381895
0.09962757753
0.09963963973
0.09965000317
0.09965867705
0.0996656815
0.09967104714
0.09967481457
0.09967703365
0.09967776278
0.09967706805
0.0996750223
0.09967170416
0.09966719702
0.09966158802
0.09965496695
0.09964742526
0.099639055
0.09962994784
0.09962019416
0.09960988216
0.09959909702
0.09958792024
0.09957642897
0.09956469547
0.09955278667
0.09954076379
0.09952868212
0.09951659085
0.099504533
0.09949254542
0.09948065891
0.09946889838
0.09945728307
0.09944582685
0.09943453856
0.09942342236
0.09941247813
0.09940170191
0.09939108628
0.09938062082
0.09937029252
0.09936008617
0.09934998477
0.09933996984
0.09933002181
0.09932012028
0.09931024432
0.09930037266
0.09929048391
0.09928055672
0.09927056991
0.09926050254
0.09925033403
0.09924004413
0.099229613
0.09921902116
0.09920824951
0.09919727923
0.0991860918
0.09917466889
0.09916299234
0.09915104405
0.09913880593
0.09912625986
0.09911338758
0.09910017065
0.09908659037
0.09907262778
0.09905826354
0.09904347792
0.09902825077
0.09901256146
0.09899638887
0.09897971134
0.09896250665
0.09894475202
0.09892642406
0.09890749879
0.09888795162
0.09886775731
0.09884689004
0.09882532334
0.09880303017
0.09877998292
0.09875615346
0.09873151321
0.09870603324
0.0986796844
0.09865243746
0.09862426346
0.09859513393
0.09856502138
0.09853389993
0.09850174606
0.09846853968
0.09843426559
0.09839891529
0.09836248954
0.09832500157
0.09828648137
0.09824698108
0.09820657977
0.09816535433
0.09812276425
0.09806709295
0.09778542316
0.09534178062
0.08320114227
0.0004187513976
1.601011314e-05
1.591680051e-05
1.591678285e-05
1.591677428e-05
1.591676584e-05
1.591675753e-05
1.591674935e-05
1.591674129e-05
1.591673336e-05
1.591672556e-05
1.591671788e-05
1.591671032e-05
1.591670289e-05
1.591669559e-05
1.59166884e-05
1.591668134e-05
1.59166744e-05
1.591666758e-05
1.591666088e-05
1.59166543e-05
1.591664783e-05
1.591664149e-05
1.591663525e-05
1.591662914e-05
1.591662314e-05
1.591661725e-05
1.591661148e-05
1.591660582e-05
1.591660027e-05
1.591659483e-05
1.59165895e-05
1.591658428e-05
1.591657917e-05
1.591657417e-05
1.591656927e-05
1.591656448e-05
1.591655979e-05
1.59165552e-05
1.591655072e-05
1.591654634e-05
1.591654207e-05
1.591653789e-05
1.591653381e-05
1.591652983e-05
1.591652595e-05
1.591652216e-05
1.591651847e-05
1.591651488e-05
1.591651138e-05
1.591650797e-05
1.591650465e-05
1.591650142e-05
1.591649829e-05
1.591649524e-05
1.591649228e-05
1.591648941e-05
1.591648662e-05
1.591648392e-05
1.59164813e-05
1.591647877e-05
1.591647632e-05
1.591647395e-05
1.591647166e-05
1.591646945e-05
1.591646731e-05
1.591646526e-05
1.591646328e-05
1.591646137e-05
1.591645954e-05
1.591645779e-05
1.59164561e-05
1.591645449e-05
1.591645295e-05
1.591645148e-05
1.591645007e-05
1.591644874e-05
1.591644747e-05
1.591644626e-05
1.591644513e-05
1.591644405e-05
1.591644304e-05
1.591644209e-05
1.59164412e-05
1.591644038e-05
1.591643961e-05
1.59164389e-05
1.591643825e-05
0.09958385024
0.09958693292
0.09960381554
0.09961925038
0.09963301259
0.0996450796
0.09965544906
0.09966413022
0.09967114325
0.09967651882
0.09968029753
0.09968252928
0.09968327249
0.09968259325
0.09968056441
0.09967726461
0.09967277726
0.0996671895
0.09966059115
0.09965307364
0.09964472905
0.09963564907
0.09962592408
0.09961564228
0.09960488887
0.09959374537
0.09958228893
0.09957059181
0.09955872095
0.09954673758
0.09953469699
0.09952264838
0.09951063476
0.09949869299
0.09948685387
0.09947514231
0.09946357755
0.09945217347
0.0994409389
0.09942987801
0.09941899067
0.09940827292
0.09939771735
0.09938731355
0.09937704849
0.09936690697
0.09935687198
0.09934692507
0.09933704665
0.09932721633
0.09931741317
0.09930761591
0.09929780316
0.09928795357
0.09927804596
0.09926805939
0.09925797327
0.09924776738
0.09923742185
0.09922691722
0.09921623436
0.09920535448
0.09919425905
0.09918292973
0.09917134835
0.09915949682
0.09914735704
0.09913491089
0.09912214009
0.09910902621
0.09909555054
0.09908169409
0.09906743753
0.09905276111
0.09903764468
0.09902206758
0.09900600867
0.09898944627
0.09897235815
0.09895472148
0.09893651287
0.09891770829
0.09889828311
0.09887821205
0.09885746922
0.0988360281
0.09881386156
0.09879094189
0.09876724082
0.09874272962
0.09871737915
0.09869115995
0.09866404245
0.09863599713
0.09860699483
0.09857700707
0.09854600655
0.09851396779
0.0984808679
0.09844668764
0.09841141279
0.09837503587
0.0983375584
0.09829899368
0.09825937036
0.09821873469
0.0981771181
0.09813392167
0.09807743559
0.0977964981
0.09536726581
0.0832935623
0.0004197095295
1.60104876e-05
1.591686556e-05
1.591684682e-05
1.591683719e-05
1.591682771e-05
1.591681836e-05
1.591680915e-05
1.591680008e-05
1.591679114e-05
1.591678234e-05
1.591677366e-05
1.591676513e-05
1.591675672e-05
1.591674845e-05
1.591674031e-05
1.591673229e-05
1.591672441e-05
1.591671666e-05
1.591670903e-05
1.591670153e-05
1.591669415e-05
1.59166869e-05
1.591667977e-05
1.591667277e-05
1.591666589e-05
1.591665913e-05
1.591665249e-05
1.591664597e-05
1.591663957e-05
1.591663329e-05
1.591662712e-05
1.591662107e-05
1.591661514e-05
1.591660932e-05
1.591660361e-05
1.591659802e-05
1.591659254e-05
1.591658716e-05
1.59165819e-05
1.591657675e-05
1.59165717e-05
1.591656676e-05
1.591656192e-05
1.59165572e-05
1.591655257e-05
1.591654805e-05
1.591654362e-05
1.59165393e-05
1.591653508e-05
1.591653096e-05
1.591652693e-05
1.591652301e-05
1.591651917e-05
1.591651544e-05
1.591651179e-05
1.591650824e-05
1.591650478e-05
1.591650141e-05
1.591649813e-05
1.591649494e-05
1.591649184e-05
1.591648882e-05
1.591648589e-05
1.591648304e-05
1.591648028e-05
1.59164776e-05
1.5916475e-05
1.591647249e-05
1.591647005e-05
1.591646769e-05
1.591646541e-05
1.591646321e-05
1.591646108e-05
1.591645903e-05
1.591645705e-05
1.591645515e-05
1.591645331e-05
1.591645155e-05
1.591644986e-05
1.591644824e-05
1.591644668e-05
1.59164452e-05
1.591644378e-05
1.591644243e-05
1.591644114e-05
1.591643992e-05
1.591643876e-05
0.09958822702
0.09959129164
0.09960817584
0.09962361341
0.09963737913
0.0996494504
0.09965982483
0.09966851169
0.09967553117
0.09968091396
0.09968470069
0.0996869413
0.09968769421
0.09968702555
0.0996850082
0.09968172083
0.09967724687
0.09967167348
0.09966509049
0.09965758939
0.09964926226
0.09964020079
0.0996304954
0.0996202343
0.0996095027
0.09959838213
0.09958694974
0.09957527779
0.09956343323
0.09955147728
0.09953946524
0.09952744629
0.09951546344
0.09950355355
0.09949174739
0.09948006988
0.09946854023
0.09945717233
0.09944597498
0.09943495233
0.09942410427
0.09941342681
0.09940291253
0.099392551
0.0993823292
0.09937223191
0.09936224212
0.09935234135
0.09934251003
0.09933272775
0.09932297355
0.09931322619
0.09930346425
0.09929366638
0.0992838114
0.09927387836
0.09926384667
0.0992536961
0.09924340677
0.09923295923
0.09922233434
0.0992115133
0.09920047757
0.09918920883
0.0991776889
0.09916589968
0.09915382308
0.09914144096
0.09912873505
0.09911568691
0.09910227784
0.09908848886
0.09907430061
0.09905969336
0.09904464695
0.09902914072
0.09901315353
0.09899666368
0.09897964895
0.0989620865
0.09894395292
0.09892522417
0.09890587558
0.09888588186
0.09886521708
0.09884385467
0.09882176743
0.09879892758
0.09877530674
0.09875087602
0.09872560609
0.09869946724
0.09867242954
0.09864446299
0.09861553777
0.0985856245
0.09855469463
0.09852272093
0.09848967812
0.09845554361
0.09842029851
0.09838392886
0.09834642706
0.09830779373
0.09826803964
0.09822718568
0.09818522714
0.09814151755
0.09808436944
0.09780446539
0.09539021132
0.08338388861
0.0004206525198
1.601088439e-05
1.591695625e-05
1.591693596e-05
1.591692483e-05
1.591691386e-05
1.591690303e-05
1.591689236e-05
1.591688183e-05
1.591687145e-05
1.591686121e-05
1.591685112e-05
1.591684118e-05
1.591683138e-05
1.591682173e-05
1.591681222e-05
1.591680285e-05
1.591679362e-05
1.591678453e-05
1.591677559e-05
1.591676677e-05
1.59167581e-05
1.591674956e-05
1.591674116e-05
1.59167329e-05
1.591672476e-05
1.591671677e-05
1.59167089e-05
1.591670116e-05
1.591669355e-05
1.591668608e-05
1.591667873e-05
1.59166715e-05
1.591666441e-05
1.591665744e-05
1.591665059e-05
1.591664386e-05
1.591663726e-05
1.591663078e-05
1.591662442e-05
1.591661817e-05
1.591661205e-05
1.591660604e-05
1.591660014e-05
1.591659437e-05
1.59165887e-05
1.591658315e-05
1.591657771e-05
1.591657238e-05
1.591656716e-05
1.591656205e-05
1.591655704e-05
1.591655214e-05
1.591654735e-05
1.591654266e-05
1.591653807e-05
1.591653359e-05
1.59165292e-05
1.591652492e-05
1.591652074e-05
1.591651665e-05
1.591651266e-05
1.591650876e-05
1.591650496e-05
1.591650126e-05
1.591649764e-05
1.591649412e-05
1.591649069e-05
1.591648734e-05
1.591648409e-05
1.591648092e-05
1.591647784e-05
1.591647484e-05
1.591647193e-05
1.59164691e-05
1.591646635e-05
1.591646369e-05
1.59164611e-05
1.59164586e-05
1.591645617e-05
1.591645382e-05
1.591645154e-05
1.591644934e-05
1.591644721e-05
1.591644516e-05
1.591644318e-05
1.591644127e-05
1.591643943e-05
0.09959205841
0.09959510432
0.09961199077
0.0996274314
0.09964120066
0.09965327589
0.0996636547
0.09967234635
0.09967937103
0.09968475945
0.09968855228
0.09969079946
0.09969155947
0.09969089846
0.09968888934
0.09968561083
0.09968114637
0.09967558318
0.09966901111
0.09966152167
0.09965320697
0.09964415874
0.0996344674
0.09962422118
0.09961350532
0.09960240133
0.09959098637
0.09957933273
0.09956750732
0.09955557138
0.09954358019
0.09953158291
0.09951962255
0.09950773595
0.09949595386
0.09948430118
0.09947279711
0.09946145549
0.09945028513
0.09943929016
0.09942847043
0.09941782194
0.09940733725
0.09939700592
0.0993868149
0.09937674895
0.09936679106
0.09935692272
0.09934712434
0.0993373755
0.09932765526
0.09931794231
0.09930821525
0.09929845273
0.09928863352
0.0992787367
0.09926874164
0.09925862812
0.09924837625
0.09923796656
0.09922737991
0.09921659751
0.0992056008
0.09919437146
0.0991828913
0.09917114222
0.09915910613
0.0991467649
0.09913410026
0.09912109376
0.09910772672
0.09909398014
0.0990798347
0.09906527066
0.09905026784
0.09903480563
0.09901886286
0.09900241786
0.09898544839
0.09896793163
0.09894984414
0.0989311619
0.09891186021
0.09889191377
0.09887129661
0.09884998212
0.09882794304
0.09880515152
0.09878157907
0.09875719666
0.09873197475
0.09870588339
0.09867889226
0.09865097091
0.09862208885
0.0985922158
0.09856132202
0.09852937862
0.09849635802
0.09846223451
0.09842698491
0.0983905893
0.09835303182
0.09831430157
0.09827439316
0.09823330478
0.09819099998
0.09814679299
0.09808903563
0.0978102809
0.09541093132
0.08347058649
0.0004215622962
1.601129606e-05
1.591707131e-05
1.591704904e-05
1.591703598e-05
1.591702309e-05
1.591701037e-05
1.591699781e-05
1.591698541e-05
1.591697318e-05
1.591696111e-05
1.591694921e-05
1.591693746e-05
1.591692588e-05
1.591691445e-05
1.591690319e-05
1.591689208e-05
1.591688113e-05
1.591687033e-05
1.591685969e-05
1.59168492e-05
1.591683887e-05
1.591682869e-05
1.591681866e-05
1.591680878e-05
1.591679904e-05
1.591678946e-05
1.591678002e-05
1.591677073e-05
1.591676158e-05
1.591675258e-05
1.591674372e-05
1.5916735e-05
1.591672642e-05
1.591671799e-05
1.591670969e-05
1.591670152e-05
1.591669349e-05
1.59166856e-05
1.591667784e-05
1.591667022e-05
1.591666272e-05
1.591665536e-05
1.591664812e-05
1.591664102e-05
1.591663404e-05
1.591662718e-05
1.591662045e-05
1.591661385e-05
1.591660737e-05
1.5916601e-05
1.591659476e-05
1.591658864e-05
1.591658264e-05
1.591657675e-05
1.591657098e-05
1.591656532e-05
1.591655977e-05
1.591655434e-05
1.591654902e-05
1.591654381e-05
1.59165387e-05
1.59165337e-05
1.591652881e-05
1.591652403e-05
1.591651935e-05
1.591651477e-05
1.591651029e-05
1.591650591e-05
1.591650163e-05
1.591649745e-05
1.591649337e-05
1.591648938e-05
1.591648549e-05
1.591648169e-05
1.591647798e-05
1.591647437e-05
1.591647084e-05
1.59164674e-05
1.591646405e-05
1.591646079e-05
1.591645761e-05
1.591645452e-05
1.591645151e-05
1.591644858e-05
1.591644573e-05
1.591644296e-05
1.591644027e-05
0.09959559276
0.09959861985
0.09961550915
0.0996309532
0.09964472612
0.09965680521
0.09966718806
0.09967588392
0.09968291299
0.09968830601
0.09969210365
0.0996943559
0.09969512125
0.09969446591
0.09969246282
0.09968919073
0.09968473315
0.0996791773
0.09967261309
0.09966513207
0.09965682635
0.09964778772
0.0996381066
0.09962787124
0.09961716689
0.09960607508
0.09959467298
0.09958303286
0.09957122163
0.09955930051
0.09954732479
0.0995353436
0.09952339992
0.09951153058
0.09949976631
0.09948813197
0.09947664675
0.09946532446
0.09945417386
0.09944319908
0.09943239992
0.09942177237
0.09941130896
0.09940099922
0.09939083007
0.09938078627
0.09937085074
0.099361005
0.09935122942
0.09934150356
0.09933180644
0.09932211676
0.0993124131
0.09930267407
0.09929287846
0.0992830053
0.09927303398
0.09926294423
0.09925271618
0.09924233033
0.09923176756
0.09922100903
0.09921003621
0.09919883074
0.09918737446
0.09917564926
0.09916363705
0.09915131969
0.09913867892
0.0991256963
0.09911235314
0.09909863047
0.09908450896
0.09906996889
0.09905499009
0.09903955195
0.09902363332
0.09900721254
0.09899026736
0.09897277497
0.09895471195
0.09893605424
0.09891677716
0.09889685538
0.09887626288
0.09885497302
0.09883295849
0.0988101913
0.09878664289
0.09876228403
0.09873708499
0.09871101549
0.09868404485
0.09865614205
0.09862727589
0.09859741515
0.09856652877
0.09853458613
0.09850155728
0.09846741331
0.09843212668
0.09839567153
0.09835802396
0.09831916209
0.09827906559
0.09823771257
0.09819504016
0.09815033343
0.09809200091
0.0978144505
0.09542965643
0.08355309506
0.0004224317547
1.601171948e-05
1.591721013e-05
1.591718546e-05
1.591717006e-05
1.591715484e-05
1.591713981e-05
1.591712496e-05
1.59171103e-05
1.591709582e-05
1.591708153e-05
1.591706742e-05
1.591705348e-05
1.591703973e-05
1.591702616e-05
1.591701277e-05
1.591699955e-05
1.591698651e-05
1.591697365e-05
1.591696096e-05
1.591694844e-05
1.591693609e-05
1.591692392e-05
1.591691191e-05
1.591690008e-05
1.591688841e-05
1.591687691e-05
1.591686557e-05
1.59168544e-05
1.591684339e-05
1.591683255e-05
1.591682186e-05
1.591681133e-05
1.591680097e-05
1.591679075e-05
1.59167807e-05
1.59167708e-05
1.591676105e-05
1.591675146e-05
1.591674202e-05
1.591673272e-05
1.591672358e-05
1.591671458e-05
1.591670573e-05
1.591669702e-05
1.591668846e-05
1.591668004e-05
1.591667176e-05
1.591666362e-05
1.591665562e-05
1.591664776e-05
1.591664003e-05
1.591663244e-05
1.591662498e-05
1.591661765e-05
1.591661045e-05
1.591660338e-05
1.591659645e-05
1.591658963e-05
1.591658294e-05
1.591657638e-05
1.591656994e-05
1.591656362e-05
1.591655742e-05
1.591655134e-05
1.591654538e-05
1.591653953e-05
1.59165338e-05
1.591652818e-05
1.591652268e-05
1.591651728e-05
1.5916512e-05
1.591650682e-05
1.591650175e-05
1.591649679e-05
1.591649193e-05
1.591648717e-05
1.591648252e-05
1.591647796e-05
1.591647351e-05
1.591646915e-05
1.591646489e-05
1.591646072e-05
1.591645665e-05
1.591645267e-05
1.591644879e-05
1.591644499e-05
1.591644128e-05
0.09959896774
0.09960197643
0.09961886917
0.09963431703
0.09964809381
0.09966017677
0.09967056348
0.09967926319
0.09968629612
0.09969169301
0.09969549456
0.0996977508
0.09969852025
0.09969786915
0.0996958705
0.09969260308
0.09968815044
0.09968259985
0.09967604127
0.09966856625
0.09966026697
0.09965123523
0.09964156148
0.09963133399
0.09962063801
0.09960955509
0.09959816239
0.09958653219
0.09957473138
0.09956282118
0.09955085684
0.0995388875
0.0995269561
0.09951509943
0.09950334821
0.09949172725
0.09948025573
0.0994689474
0.09945781103
0.09944685066
0.0994360661
0.09942545329
0.09941500473
0.09940470991
0.09939455574
0.09938452693
0.09937460638
0.09936477559
0.09935501489
0.09934530383
0.09933562139
0.09932594626
0.09931625699
0.09930653218
0.09929675058
0.09928689123
0.09927693347
0.09926685704
0.09925664204
0.09924626897
0.09923571869
0.09922497235
0.09921401141
0.09920281752
0.09919137249
0.09917965822
0.09916765663
0.09915534956
0.09914271877
0.09912974582
0.09911641202
0.09910269842
0.09908858569
0.09907405413
0.09905908357
0.09904365342
0.09902774254
0.09901132927
0.09899439137
0.09897690604
0.09895884984
0.09894019872
0.09892092797
0.09890101223
0.09888042544
0.0988591409
0.0988371312
0.09881436828
0.09879082336
0.09876646707
0.09874126935
0.09871519959
0.09868822663
0.09866031883
0.09863144415
0.09860157028
0.09857066472
0.09853869491
0.09850562839
0.09847143288
0.09843607637
0.09839952711
0.09836175342
0.09832272327
0.09828240324
0.09824075477
0.09819769468
0.09815248902
0.09809361689
0.0978172971
0.09544658285
0.08363128925
0.0004232588076
1.60121536e-05
1.591737237e-05
1.591734491e-05
1.591732675e-05
1.59173088e-05
1.591729107e-05
1.591727354e-05
1.591725622e-05
1.591723911e-05
1.59172222e-05
1.591720551e-05
1.591718901e-05
1.591717272e-05
1.591715663e-05
1.591714075e-05
1.591712506e-05
1.591710958e-05
1.591709429e-05
1.59170792e-05
1.59170643e-05
1.59170496e-05
1.59170351e-05
1.591702078e-05
1.591700666e-05
1.591699272e-05
1.591697898e-05
1.591696542e-05
1.591695205e-05
1.591693886e-05
1.591692586e-05
1.591691304e-05
1.59169004e-05
1.591688793e-05
1.591687565e-05
1.591686355e-05
1.591685162e-05
1.591683987e-05
1.591682828e-05
1.591681687e-05
1.591680563e-05
1.591679456e-05
1.591678366e-05
1.591677292e-05
1.591676235e-05
1.591675194e-05
1.591674169e-05
1.59167316e-05
1.591672167e-05
1.59167119e-05
1.591670228e-05
1.591669282e-05
1.591668351e-05
1.591667435e-05
1.591666535e-05
1.591665649e-05
1.591664777e-05
1.591663921e-05
1.591663078e-05
1.59166225e-05
1.591661436e-05
1.591660636e-05
1.59165985e-05
1.591659078e-05
1.591658319e-05
1.591657573e-05
1.591656841e-05
1.591656121e-05
1.591655415e-05
1.591654721e-05
1.59165404e-05
1.591653372e-05
1.591652715e-05
1.591652071e-05
1.591651439e-05
1.591650819e-05
1.59165021e-05
1.591649613e-05
1.591649028e-05
1.591648454e-05
1.59164789e-05
1.591647338e-05
1.591646796e-05
1.591646265e-05
1.591645745e-05
1.591645235e-05
1.591644735e-05
1.591644246e-05
0.09960226753
0.0996052587
0.09962215548
0.09963760758
0.09965138846
0.09966347537
0.09967386589
0.09968256924
0.09968960567
0.09969500593
0.09969881075
0.09970107019
0.09970184281
0.0997011949
0.09969919948
0.0996959354
0.09969148623
0.09968593931
0.09967938462
0.09967191376
0.09966361895
0.099654592
0.09964492339
0.09963470141
0.09962401133
0.09961293469
0.09960154867
0.09958992552
0.09957813215
0.09956622974
0.09955427353
0.09954231262
0.09953038994
0.09951854224
0.09950680021
0.09949518863
0.09948372662
0.09947242792
0.09946130123
0.09945035059
0.09943957574
0.0994289726
0.09941853362
0.09940824826
0.0993981034
0.0993880837
0.09937817206
0.09936834991
0.09935859757
0.09934889455
0.09933921982
0.09932955202
0.09931986969
0.09931015139
0.09930037586
0.09929052211
0.09928056947
0.09927049764
0.09926028674
0.09924991721
0.09923936991
0.09922862599
0.09921766689
0.09920647425
0.09919502988
0.09918331568
0.09917131354
0.09915900533
0.0991463728
0.09913339751
0.09912006079
0.09910634369
0.09909222689
0.09907769068
0.09906271494
0.09904727904
0.09903136189
0.0990149418
0.09899799657
0.09898050336
0.09896243874
0.09894377862
0.09892449828
0.09890457228
0.09888397455
0.09886267827
0.09884065592
0.09881787928
0.0987943194
0.0987699466
0.09874473051
0.09871864007
0.09869164354
0.09866370854
0.09863480209
0.09860489061
0.09857394001
0.09854191566
0.09850878242
0.09847450455
0.09843904564
0.09840236828
0.09836443371
0.09832520103
0.09828462596
0.0982426571
0.09819919678
0.09815350046
0.09809412666
0.09781904349
0.09546187346
0.08370522451
0.0004240435493
1.601259814e-05
1.591755787e-05
1.59175272e-05
1.591750589e-05
1.591748482e-05
1.591746398e-05
1.591744338e-05
1.591742302e-05
1.591740289e-05
1.5917383e-05
1.591736334e-05
1.591734391e-05
1.591732472e-05
1.591730575e-05
1.591728701e-05
1.591726849e-05
1.591725021e-05
1.591723214e-05
1.591721431e-05
1.591719669e-05
1.591717929e-05
1.591716212e-05
1.591714516e-05
1.591712842e-05
1.591711189e-05
1.591709558e-05
1.591707949e-05
1.59170636e-05
1.591704792e-05
1.591703245e-05
1.591701719e-05
1.591700213e-05
1.591698728e-05
1.591697263e-05
1.591695818e-05
1.591694394e-05
1.591692989e-05
1.591691603e-05
1.591690237e-05
1.591688891e-05
1.591687564e-05
1.591686255e-05
1.591684966e-05
1.591683695e-05
1.591682443e-05
1.591681209e-05
1.591679993e-05
1.591678796e-05
1.591677616e-05
1.591676454e-05
1.59167531e-05
1.591674183e-05
1.591673073e-05
1.591671981e-05
1.591670905e-05
1.591669846e-05
1.591668803e-05
1.591667777e-05
1.591666768e-05
1.591665774e-05
1.591664796e-05
1.591663833e-05
1.591662887e-05
1.591661955e-05
1.591661039e-05
1.591660138e-05
1.591659252e-05
1.59165838e-05
1.591657523e-05
1.591656681e-05
1.591655852e-05
1.591655037e-05
1.591654237e-05
1.591653449e-05
1.591652676e-05
1.591651915e-05
1.591651168e-05
1.591650434e-05
1.591649712e-05
1.591649004e-05
1.591648307e-05
1.591647623e-05
1.591646951e-05
1.591646291e-05
1.591645642e-05
1.591645005e-05
1.59164438e-05
0.09960554723
0.09960852217
0.09962542358
0.09964088034
0.09965466563
0.09966675666
0.099677151
0.0996858579
0.09969289761
0.09969830089
0.09970210853
0.09970437058
0.09970514568
0.09970450014
0.09970250703
0.09969924525
0.09969479842
0.09968925391
0.09968270174
0.09967523357
0.09966694163
0.09965791777
0.09964825251
0.09963803413
0.09962734793
0.09961627544
0.09960489385
0.0995932754
0.09958148697
0.09956958975
0.09955763894
0.09954568362
0.09953376668
0.09952192484
0.09951018875
0.09949858314
0.09948712711
0.09947583435
0.09946471352
0.0994537686
0.09944299931
0.0994324015
0.09942196761
0.09941168704
0.09940154664
0.09939153104
0.09938162308
0.09937180416
0.09936205457
0.0993523538
0.09934268076
0.09933301408
0.09932333226
0.09931361384
0.09930383752
0.0992939823
0.09928402746
0.09927395271
0.09926373812
0.09925336413
0.09924281157
0.09923206157
0.09922109557
0.0992098952
0.09919844225
0.09918671861
0.09917470618
0.09916238682
0.09914974227
0.09913675411
0.09912340367
0.09910967199
0.09909553976
0.09908098729
0.09906599445
0.09905054063
0.0990346047
0.09901816502
0.09900119934
0.09898368483
0.09896559801
0.09894691479
0.09892761036
0.09890765925
0.09888703527
0.0988657115
0.09884366026
0.09882085313
0.0987972609
0.09877285357
0.09874760034
0.09872146963
0.09869442903
0.0986664453
0.09863748436
0.0986075113
0.09857649031
0.09854438458
0.09851115626
0.09847676627
0.09844117398
0.09840433691
0.09836621012
0.09832674539
0.09828589004
0.09824358327
0.09819971786
0.09815354479
0.09809370632
0.09781984847
0.09547565898
0.08377501942
0.0004247869122
1.601305324e-05
1.591776651e-05
1.591773223e-05
1.591770737e-05
1.591768277e-05
1.591765845e-05
1.59176344e-05
1.591761061e-05
1.591758708e-05
1.591756383e-05
1.591754084e-05
1.591751811e-05
1.591749564e-05
1.591747343e-05
1.591745148e-05
1.591742978e-05
1.591740834e-05
1.591738716e-05
1.591736623e-05
1.591734555e-05
1.591732512e-05
1.591730494e-05
1.591728501e-05
1.591726532e-05
1.591724588e-05
1.591722668e-05
1.591720772e-05
1.591718901e-05
1.591717053e-05
1.591715229e-05
1.591713428e-05
1.591711651e-05
1.591709897e-05
1.591708165e-05
1.591706457e-05
1.591704772e-05
1.591703109e-05
1.591701468e-05
1.591699849e-05
1.591698252e-05
1.591696677e-05
1.591695124e-05
1.591693592e-05
1.591692081e-05
1.591690592e-05
1.591689123e-05
1.591687675e-05
1.591686247e-05
1.59168484e-05
1.591683453e-05
1.591682086e-05
1.591680739e-05
1.591679411e-05
1.591678103e-05
1.591676813e-05
1.591675543e-05
1.591674292e-05
1.59167306e-05
1.591671845e-05
1.591670649e-05
1.591669471e-05