/*--------------------------------*- C++ -*----------------------------------*\
| =========                 |                                                 |
| \\      /  F ield         | OpenFOAM: The Open Source CFD Toolbox           |
|  \\    /   O peration     | Version:  v1706                                 |
|   \\  /    A nd           | Web:      www.OpenFOAM.com                      |
|    \\/     M anipulation  |                                                 |
\*---------------------------------------------------------------------------*/
FoamFile
{
    version     2.0;
    format      ascii;
    class       volScalarField;
    location    "0.003";
    object      kappatr;
}
// * * * * * * * * * * * * * * * * * * * * * * * * * * * * * * * * * * * * * //

dimensions      [1 1 -3 -1 0 0 0];


internalField   nonuniform List<scalar> 
80000
(
0.3962617211
0.3962738916
0.3963401336
0.3964006561
0.3964545883
0.3965018345
0.3965423817
0.3965762641
0.3966035604
0.396624391
0.3966389157
0.3966473309
0.3966498663
0.3966467819
0.3966383641
0.3966249218
0.3966067827
0.3965842888
0.3965577928
0.3965276535
0.3964942322
0.3964578885
0.3964189769
0.3963778432
0.3963348216
0.3962902315
0.3962443753
0.3961975362
0.3961499764
0.3961019359
0.396053631
0.3960052544
0.3959569744
0.3959089352
0.3958612572
0.3958140377
0.3957673517
0.3957212532
0.3956757766
0.3956309376
0.3955867355
0.3955431542
0.3955001645
0.3954577249
0.3954157842
0.3953742822
0.395333152
0.3952923209
0.3952517118
0.3952112444
0.3951708363
0.3951304038
0.3950898629
0.3950491296
0.3950081207
0.3949667538
0.3949249481
0.394882624
0.3948397037
0.3947961106
0.3947517698
0.3947066076
0.3946605511
0.3946135287
0.3945654691
0.3945163015
0.3944659552
0.3944143593
0.3943614423
0.3943071324
0.3942513566
0.3941940409
0.3941351099
0.3940744868
0.3940120932
0.3939478489
0.3938816716
0.3938134773
0.3937431798
0.3936706905
0.3935959188
0.3935187717
0.3934391539
0.3933569677
0.3932721132
0.393184488
0.3930939879
0.3930005064
0.3929039354
0.3928041652
0.3927010853
0.3925945848
0.3924845539
0.3923708843
0.3922534719
0.3921322189
0.3920070371
0.3918778537
0.3917446179
0.3916073117
0.3914659665
0.3913206875
0.3911716935
0.3910193794
0.3908644187
0.3907079192
0.3905515315
0.3903953557
0.3901967229
0.3891176387
0.3795149422
0.3319826887
0.02270516462
0.02195710422
0.02195694447
0.0219569328
0.02195692136
0.0219569101
0.02195689901
0.02195688809
0.02195687735
0.02195686679
0.02195685639
0.02195684617
0.02195683611
0.02195682623
0.02195681651
0.02195680696
0.02195679758
0.02195678836
0.02195677931
0.02195677042
0.02195676169
0.02195675313
0.02195674472
0.02195673647
0.02195672838
0.02195672045
0.02195671268
0.02195670506
0.02195669759
0.02195669028
0.02195668312
0.02195667611
0.02195666926
0.02195666255
0.02195665599
0.02195664957
0.0219566433
0.02195663718
0.0219566312
0.02195662537
0.02195661967
0.02195661412
0.02195660871
0.02195660344
0.0219565983
0.02195659331
0.02195658844
0.02195658372
0.02195657913
0.02195657467
0.02195657034
0.02195656614
0.02195656208
0.02195655814
0.02195655433
0.02195655065
0.0219565471
0.02195654367
0.02195654037
0.02195653719
0.02195653413
0.02195653119
0.02195652837
0.02195652568
0.0219565231
0.02195652064
0.02195651829
0.02195651606
0.02195651395
0.02195651194
0.02195651005
0.02195650827
0.0219565066
0.02195650504
0.02195650358
0.02195650223
0.02195650098
0.02195649984
0.0219564988
0.02195649785
0.02195649701
0.02195649626
0.02195649561
0.02195649504
0.02195649457
0.02195649419
0.02195649389
0.02195649368
0.3963352413
0.3963474095
0.396413646
0.3964741654
0.3965281119
0.396575397
0.3966160106
0.3966499883
0.3966774085
0.3966983913
0.3967130958
0.3967217176
0.3967244858
0.3967216598
0.3967135252
0.3967003906
0.3966825832
0.3966604447
0.3966343275
0.3966045902
0.3965715939
0.3965356981
0.3964972574
0.3964566175
0.3964141126
0.3963700624
0.3963247693
0.3962785167
0.396231567
0.3961841603
0.3961365133
0.396088819
0.3960412459
0.3959939386
0.3959470176
0.3959005807
0.3958547031
0.3958094393
0.3957648237
0.3957208726
0.3956775856
0.3956349468
0.3955929272
0.3955514859
0.3955105716
0.3954701248
0.3954300785
0.3953903604
0.3953508936
0.395311598
0.3952723915
0.3952331906
0.3951939114
0.3951544701
0.3951147835
0.3950747696
0.3950343476
0.3949934381
0.3949519632
0.3949098466
0.3948670133
0.3948233895
0.3947789027
0.3947334809
0.3946870529
0.3946395478
0.3945908948
0.3945410228
0.3944898602
0.3944373349
0.3943833737
0.3943279023
0.3942708449
0.3942121244
0.3941516618
0.3940893765
0.3940251859
0.3939590051
0.3938907474
0.3938203236
0.3937476424
0.3936726099
0.3935951301
0.3935151044
0.3934324319
0.3933470093
0.3932587312
0.3931674898
0.3930731757
0.3929756776
0.3928748831
0.3927706794
0.3926629536
0.3925515945
0.3924364938
0.3923175479
0.3921946618
0.3920677521
0.3919367532
0.391801625
0.3916623636
0.3915190167
0.3913717041
0.3912206471
0.3910662064
0.3909089237
0.3907494338
0.3905860791
0.3903735426
0.3892743634
0.3796766896
0.3323024367
0.0227067773
0.02195708603
0.02195692647
0.02195691531
0.02195690437
0.0219568936
0.021956883
0.02195687257
0.0219568623
0.02195685221
0.02195684228
0.02195683252
0.02195682292
0.02195681348
0.02195680421
0.02195679509
0.02195678614
0.02195677735
0.02195676871
0.02195676024
0.02195675192
0.02195674376
0.02195673575
0.02195672789
0.02195672019
0.02195671264
0.02195670524
0.02195669799
0.02195669089
0.02195668394
0.02195667713
0.02195667047
0.02195666395
0.02195665757
0.02195665134
0.02195664525
0.0219566393
0.02195663349
0.02195662782
0.02195662228
0.02195661688
0.02195661161
0.02195660648
0.02195660148
0.02195659661
0.02195659187
0.02195658726
0.02195658278
0.02195657843
0.0219565742
0.02195657009
0.02195656611
0.02195656225
0.02195655851
0.02195655489
0.02195655138
0.021956548
0.02195654473
0.02195654157
0.02195653853
0.0219565356
0.02195653279
0.02195653008
0.02195652747
0.02195652498
0.02195652259
0.02195652031
0.02195651812
0.02195651604
0.02195651406
0.02195651218
0.02195651039
0.0219565087
0.02195650711
0.02195650561
0.0219565042
0.02195650288
0.02195650164
0.0219565005
0.02195649944
0.02195649847
0.02195649758
0.02195649677
0.02195649604
0.02195649539
0.02195649481
0.02195649432
0.02195649389
0.396366548
0.3963786551
0.3964448918
0.3965054194
0.3965593813
0.3966066901
0.3966473362
0.3966813559
0.396708828
0.3967298726
0.3967446488
0.3967533523
0.396756212
0.3967534872
0.3967454636
0.3967324495
0.3967147721
0.3966927731
0.3966668047
0.3966372256
0.3966043969
0.396568678
0.3965304236
0.3964899795
0.3964476798
0.3964038442
0.3963587753
0.3963127565
0.3962660503
0.3962188969
0.396171513
0.3961240915
0.3960768013
0.3960297869
0.3959831689
0.3959370452
0.3958914911
0.3958465612
0.3958022899
0.3957586937
0.395715772
0.3956735093
0.3956318766
0.395590833
0.3955503273
0.3955103001
0.3954706844
0.3954314081
0.3953923942
0.3953535628
0.3953148317
0.3952761176
0.3952373366
0.395198405
0.3951592396
0.3951197584
0.3950798806
0.3950395269
0.3949986194
0.3949570819
0.3949148392
0.3948718178
0.3948279448
0.3947831486
0.3947373578
0.3946905015
0.3946425087
0.3945933085
0.3945428291
0.3944909983
0.3944377429
0.3943829884
0.394326659
0.3942686774
0.3942089646
0.3941474397
0.3940840199
0.3940186202
0.3939511536
0.3938815308
0.3938096601
0.3937354474
0.3936587964
0.3935796082
0.3934977815
0.3934132126
0.3933257955
0.393235422
0.3931419818
0.3930453629
0.392945452
0.3928421348
0.3927352967
0.3926248243
0.392510606
0.3923925342
0.3922705074
0.3921444334
0.3920142338
0.3918798488
0.3917412453
0.3915984264
0.3914514441
0.391300416
0.3911455466
0.3909871463
0.390825518
0.3906585698
0.3904407549
0.38934051
0.3797898699
0.3326535064
0.02270863635
0.02195713609
0.02195697544
0.02195696354
0.02195695187
0.02195694038
0.02195692906
0.02195691792
0.02195690695
0.02195689616
0.02195688553
0.02195687508
0.02195686479
0.02195685468
0.02195684473
0.02195683495
0.02195682533
0.02195681588
0.02195680659
0.02195679747
0.02195678851
0.02195677971
0.02195677107
0.02195676258
0.02195675426
0.02195674609
0.02195673807
0.02195673021
0.0219567225
0.02195671495
0.02195670754
0.02195670029
0.02195669318
0.02195668622
0.02195667941
0.02195667274
0.02195666621
0.02195665983
0.02195665359
0.02195664749
0.02195664153
0.0219566357
0.02195663001
0.02195662446
0.02195661904
0.02195661376
0.0219566086
0.02195660358
0.02195659868
0.02195659392
0.02195658928
0.02195658476
0.02195658037
0.0219565761
0.02195657195
0.02195656792
0.02195656401
0.02195656021
0.02195655653
0.02195655297
0.02195654952
0.02195654618
0.02195654295
0.02195653984
0.02195653683
0.02195653392
0.02195653112
0.02195652843
0.02195652583
0.02195652334
0.02195652095
0.02195651866
0.02195651646
0.02195651436
0.02195651236
0.02195651045
0.02195650863
0.0219565069
0.02195650526
0.02195650371
0.02195650225
0.02195650087
0.02195649958
0.02195649837
0.02195649725
0.0219564962
0.02195649524
0.02195649435
0.3963879036
0.3963999441
0.3964661843
0.3965267215
0.3965806977
0.3966280254
0.3966686953
0.3967027435
0.3967302493
0.3967513328
0.3967661533
0.3967749065
0.3967778215
0.3967751574
0.3967672001
0.3967542579
0.3967366581
0.3967147424
0.3966888631
0.3966593788
0.3966266507
0.3965910384
0.3965528964
0.3965125707
0.3964703954
0.3964266903
0.3963817579
0.3963358818
0.3962893243
0.3962423257
0.3961951028
0.3961478486
0.3961007318
0.396053897
0.3960074648
0.3959615331
0.3959161772
0.3958714516
0.395827391
0.3957840116
0.395741313
0.3956992796
0.3956578823
0.3956170804
0.3955768227
0.3955370496
0.3954976944
0.3954586847
0.3954199438
0.3953813915
0.3953429459
0.3953045235
0.3952660405
0.3952274131
0.3951885582
0.3951493938
0.3951098391
0.3950698148
0.3950292429
0.3949880473
0.3949461528
0.3949034857
0.3948599735
0.3948155442
0.3947701265
0.3947236495
0.3946760423
0.3946272338
0.3945771523
0.3945257256
0.3944728802
0.3944185418
0.3943626346
0.3943050811
0.3942458023
0.3941847173
0.3941217431
0.3940567947
0.3939897851
0.3939206247
0.3938492218
0.3937754822
0.3936993094
0.3936206042
0.3935392653
0.3934551886
0.3933682678
0.3932783943
0.3931854573
0.3930893442
0.3929899408
0.3928871316
0.3927808008
0.3926708326
0.3925571129
0.39243953
0.3923179769
0.392192354
0.3920625714
0.3919285539
0.3917902458
0.391647618
0.3915006764
0.3913494733
0.3911941212
0.3910348016
0.3908716395
0.3907023136
0.3904812999
0.3893838926
0.3798894726
0.3330102046
0.02271057691
0.02195722645
0.02195706397
0.02195705063
0.02195703753
0.02195702462
0.02195701189
0.02195699935
0.021956987
0.02195697483
0.02195696284
0.02195695103
0.02195693941
0.02195692797
0.0219569167
0.02195690562
0.02195689471
0.02195688397
0.02195687341
0.02195686303
0.02195685281
0.02195684277
0.0219568329
0.0219568232
0.02195681366
0.02195680429
0.02195679509
0.02195678605
0.02195677717
0.02195676846
0.0219567599
0.02195675151
0.02195674327
0.0219567352
0.02195672727
0.0219567195
0.02195671188
0.02195670442
0.0219566971
0.02195668994
0.02195668292
0.02195667605
0.02195666932
0.02195666274
0.0219566563
0.02195665
0.02195664384
0.02195663782
0.02195663194
0.02195662619
0.02195662058
0.0219566151
0.02195660975
0.02195660453
0.02195659944
0.02195659448
0.02195658964
0.02195658493
0.02195658035
0.02195657588
0.02195657154
0.02195656731
0.02195656321
0.02195655921
0.02195655534
0.02195655158
0.02195654793
0.02195654439
0.02195654097
0.02195653765
0.02195653444
0.02195653133
0.02195652833
0.02195652544
0.02195652264
0.02195651995
0.02195651735
0.02195651486
0.02195651246
0.02195651016
0.02195650795
0.02195650583
0.02195650381
0.02195650188
0.02195650004
0.02195649829
0.02195649662
0.02195649504
0.3964050694
0.3964170391
0.3964832855
0.3965438335
0.3965978236
0.396645168
0.3966858573
0.396719928
0.3967474591
0.396768571
0.396783423
0.3967922109
0.3967951639
0.3967925414
0.3967846291
0.3967717357
0.3967541883
0.3967323289
0.3967065099
0.3966770899
0.3966444302
0.3966088905
0.3965708254
0.3965305808
0.396488491
0.3964448757
0.3964000376
0.3963542601
0.3963078058
0.3962609147
0.3962138037
0.3961666658
0.3961196696
0.3960729597
0.3960266568
0.3959808585
0.3959356403
0.3958910566
0.3958471418
0.3958039124
0.3957613677
0.3957194923
0.3956782569
0.3956376207
0.3955975327
0.395557933
0.395518755
0.3954799262
0.3954413699
0.395403006
0.3953647524
0.3953265256
0.3952882418
0.3952498172
0.3952111686
0.3951722141
0.3951328728
0.3950930653
0.3950527139
0.395011742
0.3949700748
0.3949276384
0.3948843603
0.3948401685
0.3947949917
0.394748759
0.3947013995
0.394652842
0.3946030149
0.3945518458
0.3944992616
0.3944451877
0.3943895482
0.3943322659
0.3942732616
0.3942124543
0.3941497613
0.3940850973
0.3940183754
0.3939495059
0.3938783971
0.3938049547
0.3937290821
0.3936506801
0.3935696471
0.3934858788
0.3933992688
0.3933097082
0.3932170856
0.3931212878
0.3930222
0.3929197057
0.3928136875
0.392704028
0.3925906103
0.3924733192
0.3923520429
0.3922266748
0.3920971157
0.3919632773
0.3918250856
0.3916824859
0.3915354487
0.3913839763
0.3912281112
0.3910679356
0.3909034326
0.3907320945
0.390508481
0.3894150938
0.3799791323
0.3333587946
0.02271251794
0.02195735233
0.02195718741
0.021957172
0.02195715686
0.02195714191
0.02195712717
0.02195711264
0.0219570983
0.02195708417
0.02195707023
0.0219570565
0.02195704296
0.02195702962
0.02195701648
0.02195700353
0.02195699077
0.02195697821
0.02195696583
0.02195695365
0.02195694165
0.02195692984
0.02195691822
0.02195690678
0.02195689553
0.02195688445
0.02195687356
0.02195686285
0.02195685232
0.02195684196
0.02195683178
0.02195682177
0.02195681194
0.02195680227
0.02195679278
0.02195678346
0.0219567743
0.02195676531
0.02195675649
0.02195674782
0.02195673932
0.02195673098
0.0219567228
0.02195671478
0.02195670691
0.0219566992
0.02195669164
0.02195668423
0.02195667697
0.02195666987
0.02195666291
0.02195665609
0.02195664942
0.02195664289
0.02195663651
0.02195663026
0.02195662416
0.02195661819
0.02195661236
0.02195660666
0.0219566011
0.02195659566
0.02195659036
0.02195658519
0.02195658014
0.02195657522
0.02195657042
0.02195656575
0.02195656119
0.02195655676
0.02195655245
0.02195654825
0.02195654417
0.02195654021
0.02195653636
0.02195653262
0.02195652899
0.02195652547
0.02195652205
0.02195651875
0.02195651555
0.02195651245
0.02195650945
0.02195650656
0.02195650376
0.02195650106
0.02195649846
0.02195649596
0.3964200963
0.3964319925
0.3964982478
0.3965588079
0.3966128119
0.3966601718
0.3967008785
0.3967349679
0.3967625194
0.3967836534
0.3967985293
0.396807343
0.3968103239
0.3968077313
0.3967998514
0.3967869927
0.3967694826
0.3967476632
0.3967218869
0.3966925126
0.3966599017
0.3966244139
0.3965864038
0.3965462175
0.3965041894
0.3964606391
0.3964158694
0.3963701636
0.3963237844
0.3962769717
0.3962299424
0.3961828895
0.3961359815
0.3960893628
0.3960431543
0.3959974533
0.3959523354
0.3959078547
0.3958640458
0.3958209248
0.3957784912
0.3957367294
0.39569561
0.3956550922
0.3956151248
0.395575648
0.395536595
0.3954978934
0.3954594662
0.3954212335
0.3953831129
0.3953450211
0.395306874
0.395268588
0.3952300797
0.3951912671
0.3951520695
0.3951124073
0.3950722026
0.3950313792
0.3949898619
0.394947577
0.3949044518
0.3948604144
0.3948153936
0.3947693182
0.3947221175
0.3946737203
0.394624055
0.3945730492
0.3945206297
0.394466722
0.3944112503
0.3943541373
0.3942953039
0.3942346692
0.3941721503
0.3941076621
0.3940411175
0.3939724271
0.3939014989
0.3938282388
0.39375255
0.3936743333
0.3935934868
0.3935099064
0.3934234851
0.3933341138
0.3932416808
0.3931460724
0.3930471727
0.3929448644
0.3928390287
0.3927295463
0.3926162975
0.392499164
0.392378029
0.3922527795
0.3921233073
0.3919895118
0.3918513023
0.3917086006
0.3915613448
0.3914094923
0.391253022
0.391091927
0.3909260664
0.3907527779
0.3905267716
0.3894378608
0.3800600823
0.3336933758
0.02271442509
0.02195751198
0.02195734403
0.02195732597
0.02195730819
0.02195729064
0.02195727331
0.02195725621
0.02195723934
0.02195722268
0.02195720625
0.02195719004
0.02195717405
0.02195715828
0.02195714273
0.02195712739
0.02195711226
0.02195709735
0.02195708265
0.02195706816
0.02195705388
0.02195703982
0.02195702595
0.02195701229
0.02195699884
0.02195698559
0.02195697254
0.02195695969
0.02195694704
0.02195693459
0.02195692233
0.02195691026
0.02195689839
0.02195688671
0.02195687522
0.02195686392
0.02195685281
0.02195684188
0.02195683113
0.02195682057
0.02195681018
0.02195679998
0.02195678995
0.0219567801
0.02195677043
0.02195676092
0.02195675159
0.02195674243
0.02195673344
0.02195672461
0.02195671595
0.02195670745
0.02195669912
0.02195669094
0.02195668292
0.02195667506
0.02195666736
0.02195665981
0.02195665241
0.02195664517
0.02195663807
0.02195663112
0.02195662432
0.02195661766
0.02195661114
0.02195660477
0.02195659853
0.02195659243
0.02195658648
0.02195658065
0.02195657496
0.0219565694
0.02195656397
0.02195655867
0.0219565535
0.02195654845
0.02195654353
0.02195653872
0.02195653404
0.02195652948
0.02195652504
0.02195652071
0.0219565165
0.0219565124
0.02195650841
0.02195650454
0.02195650077
0.0219564971
0.3964339581
0.3964457804
0.396512047
0.3965726206
0.396626639
0.3966740141
0.3967147366
0.3967488426
0.3967764114
0.3967975634
0.3968124582
0.3968212918
0.3968242936
0.3968217233
0.396813867
0.3968010335
0.3967835503
0.3967617597
0.3967360142
0.3967066729
0.3966740972
0.396638647
0.3966006769
0.3965605333
0.3965185503
0.3964750478
0.3964303284
0.3963846756
0.3963383519
0.3962915973
0.3962446287
0.3961976388
0.3961507962
0.3961042452
0.3960581065
0.3960124774
0.3959674333
0.3959230284
0.3958792969
0.3958362551
0.3957939022
0.3957522224
0.3957111865
0.3956707533
0.3956308716
0.3955914816
0.3955525164
0.3955139033
0.3954755655
0.3954374228
0.3953993929
0.3953613923
0.395323337
0.395285143
0.3952467272
0.3952080075
0.3951689028
0.3951293338
0.3950892225
0.3950484925
0.3950070688
0.3949648775
0.3949218459
0.3948779022
0.3948329749
0.3947869931
0.394739886
0.3946915824
0.3946420106
0.3945910984
0.3945387725
0.3944849585
0.3944295806
0.3943725615
0.3943138222
0.3942532818
0.3941908575
0.3941264642
0.3940600148
0.3939914199
0.3939205876
0.3938474236
0.3937718312
0.393693711
0.3936129612
0.3935294773
0.3934431521
0.3933538761
0.3932615373
0.3931660211
0.3930672109
0.3929649882
0.3928592327
0.3927498229
0.3926366364
0.3925195509
0.3923984448
0.3922731981
0.3921436934
0.3920098176
0.3918714626
0.3917285274
0.3915809182
0.3914285494
0.3912713416
0.391109209
0.3909419071
0.3907666589
0.3905383938
0.3894541769
0.3801332276
0.3340117948
0.0227162852
0.02195770453
0.021957533
0.02195751171
0.02195749074
0.02195747002
0.02195744955
0.02195742934
0.02195740938
0.02195738967
0.0219573702
0.02195735099
0.02195733202
0.0219573133
0.02195729482
0.02195727659
0.02195725859
0.02195724083
0.02195722332
0.02195720604
0.02195718899
0.02195717219
0.02195715561
0.02195713927
0.02195712315
0.02195710727
0.02195709161
0.02195707617
0.02195706096
0.02195704597
0.0219570312
0.02195701665
0.02195700232
0.0219569882
0.0219569743
0.02195696061
0.02195694713
0.02195693386
0.0219569208
0.02195690794
0.02195689529
0.02195688284
0.02195687059
0.02195685854
0.02195684668
0.02195683503
0.02195682356
0.02195681229
0.02195680121
0.02195679031
0.0219567796
0.02195676908
0.02195675875
0.02195674859
0.02195673861
0.02195672881
0.02195671919
0.02195670974
0.02195670047
0.02195669136
0.02195668242
0.02195667365
0.02195666505
0.02195665661
0.02195664833
0.02195664021
0.02195663225
0.02195662445
0.0219566168
0.0219566093
0.02195660196
0.02195659476
0.02195658771
0.02195658081
0.02195657405
0.02195656744
0.02195656096
0.02195655462
0.02195654842
0.02195654236
0.02195653642
0.02195653062
0.02195652495
0.02195651941
0.02195651399
0.0219565087
0.02195650353
0.02195649848
0.3964471949
0.396458945
0.3965252252
0.3965858138
0.3966398473
0.3966872377
0.3967279753
0.3967620965
0.3967896804
0.3968108476
0.3968257578
0.396834607
0.3968376249
0.3968350713
0.3968272323
0.3968144171
0.3967969533
0.3967751833
0.3967494599
0.3967201421
0.3966875916
0.3966521684
0.3966142272
0.3965741144
0.3965321642
0.3964886965
0.396444014
0.3963984
0.3963521171
0.3963054053
0.3962584814
0.3962115379
0.3961647433
0.396118242
0.3960721544
0.3960265779
0.3959815875
0.3959372372
0.3958935615
0.3958505762
0.3958082805
0.3957666585
0.3957256807
0.3956853061
0.3956454831
0.3956061518
0.3955672453
0.3955286908
0.3954904114
0.3954523267
0.3954143543
0.3953764107
0.3953384118
0.3953002735
0.3952619127
0.395223247
0.3951841955
0.3951446787
0.3951046186
0.3950639387
0.3950225639
0.3949804204
0.3949374353
0.3948935369
0.3948486537
0.3948027148
0.3947556493
0.3947073859
0.3946578532
0.3946069789
0.3945546897
0.3945009112
0.3944455677
0.3943885819
0.3943298749
0.3942693657
0.3942069717
0.3941426078
0.3940761869
0.3940076196
0.393936814
0.3938636757
0.3937881081
0.3937100115
0.393629284
0.3935458208
0.3934595146
0.3933702552
0.39327793
0.3931824237
0.3930836186
0.3929813948
0.3928756301
0.3927662005
0.3926529805
0.3925358435
0.392414662
0.3922893087
0.3921596562
0.3920255781
0.3918869491
0.3917436447
0.3915955409
0.3914425123
0.3912844279
0.3911211369
0.3909523149
0.3907751104
0.390544726
0.3894653079
0.3801993371
0.3343135739
0.02271809459
0.02195792953
0.02195775387
0.02195772881
0.02195770408
0.02195767965
0.0219576555
0.02195763163
0.02195760805
0.02195758475
0.02195756174
0.021957539
0.02195751655
0.02195749437
0.02195747246
0.02195745083
0.02195742948
0.02195740839
0.02195738758
0.02195736703
0.02195734675
0.02195732673
0.02195730698
0.02195728749
0.02195726826
0.02195724929
0.02195723058
0.02195721212
0.02195719391
0.02195717596
0.02195715825
0.02195714079
0.02195712358
0.02195710662
0.0219570899
0.02195707342
0.02195705718
0.02195704117
0.0219570254
0.02195700986
0.02195699456
0.02195697948
0.02195696464
0.02195695002
0.02195693562
0.02195692145
0.0219569075
0.02195689376
0.02195688024
0.02195686693
0.02195685384
0.02195684096
0.02195682828
0.02195681582
0.02195680355
0.02195679149
0.02195677963
0.02195676796
0.02195675649
0.02195674522
0.02195673414
0.02195672325
0.02195671254
0.02195670202
0.02195669169
0.02195668154
0.02195667157
0.02195666177
0.02195665215
0.02195664271
0.02195663344
0.02195662433
0.0219566154
0.02195660663
0.02195659802
0.02195658958
0.02195658129
0.02195657316
0.02195656519
0.02195655737
0.0219565497
0.02195654218
0.02195653481
0.02195652758
0.02195652049
0.02195651355
0.02195650675
0.02195650008
0.3964601369
0.3964718182
0.3965381143
0.3965987195
0.3966527692
0.3967001751
0.3967409277
0.3967750632
0.3968026608
0.3968238413
0.3968387643
0.3968476261
0.3968506564
0.3968481152
0.396840289
0.3968274869
0.3968100367
0.3967882811
0.3967625729
0.3967332714
0.3967007384
0.3966653339
0.3966274129
0.3965873216
0.3965453945
0.3965019514
0.396457295
0.3964117088
0.396365455
0.3963187737
0.3962718816
0.3962249711
0.3961782108
0.3961317446
0.396085693
0.3960401531
0.3959952
0.3959508875
0.3959072498
0.3958643025
0.3958220449
0.3957804607
0.3957395205
0.3956991829
0.3956593964
0.3956201009
0.3955812292
0.3955427086
0.3955044619
0.3954664087
0.3954284666
0.3953905517
0.3953525799
0.3953144672
0.3952761301
0.3952374864
0.3951984549
0.3951589561
0.395118912
0.395078246
0.3950368828
0.3949947488
0.3949517709
0.3949078773
0.3948629967
0.394817058
0.3947699903
0.3947217224
0.3946721829
0.3946212993
0.3945689986
0.3945152063
0.3944598468
0.3944028428
0.3943441153
0.3942835836
0.3942211649
0.3941567743
0.3940903245
0.3940217262
0.3939508875
0.393877714
0.3938021086
0.3937239718
0.3936432013
0.393559692
0.3934733361
0.3933840228
0.3932916388
0.3931960677
0.3930971906
0.3929948856
0.3928890284
0.392779492
0.3926661473
0.3925488627
0.3924275046
0.3923019373
0.3921720231
0.392037622
0.3918985913
0.3917547847
0.39160605
0.3914522272
0.3912931429
0.3911285956
0.3909582045
0.390779076
0.3905467214
0.3894721272
0.3802590489
0.3345989282
0.02271985359
0.02195818673
0.0219580064
0.02195797701
0.02195794799
0.0219579193
0.02195789093
0.02195786288
0.02195783516
0.02195780776
0.02195778067
0.02195775391
0.02195772745
0.02195770132
0.02195767549
0.02195764997
0.02195762476
0.02195759987
0.02195757527
0.02195755099
0.021957527
0.02195750332
0.02195747993
0.02195745684
0.02195743405
0.02195741155
0.02195738934
0.02195736742
0.02195734579
0.02195732444
0.02195730338
0.0219572826
0.0219572621
0.02195724188
0.02195722194
0.02195720226
0.02195718287
0.02195716374
0.02195714487
0.02195712627
0.02195710794
0.02195708987
0.02195707206
0.0219570545
0.0219570372
0.02195702015
0.02195700335
0.0219569868
0.0219569705
0.02195695444
0.02195693862
0.02195692303
0.02195690769
0.02195689258
0.02195687771
0.02195686306
0.02195684864
0.02195683444
0.02195682047
0.02195680672
0.0219567932
0.02195677988
0.02195676678
0.02195675389
0.02195674121
0.02195672873
0.02195671646
0.0219567044
0.02195669253
0.02195668086
0.02195666939
0.02195665811
0.02195664701
0.02195663611
0.02195662539
0.02195661486
0.0219566045
0.02195659433
0.02195658433
0.02195657451
0.02195656486
0.02195655538
0.02195654606
0.02195653691
0.02195652792
0.0219565191
0.02195651042
0.02195650191
0.396473
0.3964846176
0.396550932
0.3966115555
0.3966656226
0.3967130447
0.3967538123
0.3967879617
0.3968155722
0.3968367646
0.3968516986
0.3968605707
0.3968636107
0.3968610788
0.3968532616
0.3968404685
0.3968230275
0.3968012813
0.396775583
0.396746292
0.3967137703
0.3966783779
0.39664047
0.3966003928
0.3965584808
0.396515054
0.396470415
0.3964248471
0.3963786127
0.3963319517
0.3962850807
0.3962381921
0.3961914542
0.396145011
0.3960989827
0.3960534662
0.3960085365
0.3959642473
0.3959206324
0.3958777076
0.3958354717
0.3957939085
0.3957529882
0.3957126693
0.3956729003
0.3956336208
0.3955947635
0.3955562556
0.3955180196
0.3954799752
0.3954420397
0.3954041292
0.3953661594
0.3953280461
0.3952897059
0.3952510563
0.3952120162
0.395172506
0.3951324473
0.3950917638
0.39505038
0.395008222
0.3949652171
0.3949212931
0.3948763788
0.3948304031
0.394783295
0.3947349833
0.3946853966
0.3946344625
0.3945821079
0.3945282584
0.3944728384
0.3944157706
0.394356976
0.394296374
0.3942338816
0.394169414
0.3941028841
0.3940342022
0.3939632764
0.3938900121
0.3938143123
0.3937360769
0.3936552035
0.3935715863
0.393485117
0.3933956841
0.3933031732
0.3932074666
0.3931084438
0.3930059808
0.3928999507
0.3927902232
0.3926766648
0.3925591387
0.3924375044
0.392311618
0.3921813309
0.3920464901
0.3919069365
0.3917625035
0.3916130151
0.3914582825
0.3912980992
0.3911322272
0.3909602478
0.39077925
0.3905450703
0.3894752574
0.3803128749
0.3348683147
0.02272156402
0.02195847597
0.02195829043
0.02195825616
0.02195822231
0.02195818882
0.02195815571
0.02195812296
0.02195809057
0.02195805854
0.02195802688
0.02195799557
0.02195796463
0.02195793403
0.02195790379
0.0219578739
0.02195784437
0.02195781518
0.02195778633
0.02195775784
0.02195772968
0.02195770186
0.02195767439
0.02195764725
0.02195762045
0.02195759398
0.02195756784
0.02195754203
0.02195751654
0.02195749138
0.02195746654
0.02195744203
0.02195741783
0.02195739395
0.02195737038
0.02195734712
0.02195732417
0.02195730152
0.02195727918
0.02195725714
0.0219572354
0.02195721396
0.02195719281
0.02195717195
0.02195715139
0.0219571311
0.02195711111
0.02195709139
0.02195707195
0.02195705279
0.02195703391
0.02195701529
0.02195699695
0.02195697887
0.02195696106
0.0219569435
0.02195692621
0.02195690918
0.02195689239
0.02195687586
0.02195685957
0.02195684353
0.02195682774
0.02195681218
0.02195679686
0.02195678178
0.02195676693
0.02195675231
0.02195673791
0.02195672374
0.02195670979
0.02195669606
0.02195668255
0.02195666925
0.02195665616
0.02195664328
0.0219566306
0.02195661813
0.02195660585
0.02195659378
0.02195658189
0.02195657021
0.02195655871
0.0219565474
0.02195653627
0.02195652532
0.02195651455
0.02195650396
0.3964859332
0.3964974933
0.3965638283
0.396624472
0.3966785577
0.3967259968
0.3967667799
0.3968009432
0.3968285661
0.3968497695
0.3968647133
0.396873594
0.3968766417
0.3968741166
0.3968663056
0.3968535183
0.3968360829
0.3968143421
0.3967886494
0.3967593642
0.3967268486
0.3966914629
0.3966535621
0.3966134928
0.3965715893
0.3965281717
0.3964835425
0.3964379851
0.3963917618
0.3963451124
0.3962982533
0.396251377
0.3962046514
0.3961582205
0.3961122043
0.3960666997
0.3960217813
0.3959775026
0.3959338975
0.3958909813
0.3958487528
0.3958071956
0.3957662797
0.3957259635
0.3956861951
0.3956469142
0.3956080533
0.3955695392
0.3955312946
0.3954932388
0.395455289
0.3954173613
0.3953793711
0.3953412342
0.395302867
0.3952641869
0.3952251127
0.3951855646
0.3951454643
0.3951047352
0.3950633018
0.3950210903
0.3949780276
0.3949340417
0.3948890612
0.394843015
0.3947958321
0.3947474414
0.3946977712
0.3946467493
0.3945943025
0.3945403564
0.3944848354
0.3944276623
0.394368758
0.3943080418
0.3942454309
0.3941808402
0.3941141826
0.3940453683
0.3939743052
0.3939008986
0.393825051
0.3937466622
0.3936656289
0.3935818452
0.3934952017
0.3934055861
0.3933128825
0.393216972
0.3931177319
0.3930150359
0.3929087542
0.3927987527
0.3926848935
0.3925670339
0.3924450269
0.3923187197
0.3921879538
0.3920525638
0.3919123757
0.3917672059
0.3916168583
0.3914611217
0.3912997651
0.3911325252
0.3909589601
0.3907761571
0.390540282
0.389475148
0.3803612148
0.3351222314
0.02272322799
0.02195879713
0.02195860584
0.02195856615
0.02195852692
0.02195848811
0.02195844972
0.02195841173
0.02195837417
0.021958337
0.02195830025
0.0219582639
0.02195822796
0.02195819242
0.02195815727
0.02195812253
0.02195808818
0.02195805422
0.02195802066
0.02195798749
0.02195795471
0.02195792231
0.02195789029
0.02195785865
0.0219578274
0.02195779652
0.02195776602
0.02195773589
0.02195770613
0.02195767673
0.0219576477
0.02195761903
0.02195759073
0.02195756278
0.02195753518
0.02195750794
0.02195748104
0.02195745449
0.02195742829
0.02195740243
0.02195737691
0.02195735172
0.02195732686
0.02195730234
0.02195727814
0.02195725427
0.02195723072
0.0219572075
0.02195718458
0.02195716198
0.0219571397
0.02195711771
0.02195709604
0.02195707467
0.02195705359
0.02195703281
0.02195701233
0.02195699213
0.02195697223
0.0219569526
0.02195693326
0.0219569142
0.02195689541
0.02195687689
0.02195685864
0.02195684066
0.02195682295
0.02195680549
0.02195678829
0.02195677134
0.02195675464
0.0219567382
0.02195672199
0.02195670603