/*--------------------------------*- C++ -*----------------------------------*\
| =========                 |                                                 |
| \\      /  F ield         | OpenFOAM: The Open Source CFD Toolbox           |
|  \\    /   O peration     | Version:  v1706                                 |
|   \\  /    A nd           | Web:      www.OpenFOAM.com                      |
|    \\/     M anipulation  |                                                 |
\*---------------------------------------------------------------------------*/
FoamFile
{
    version     2.0;
    format      ascii;
    class       volScalarField;
    location    "0.003";
    object      Mach;
}
// * * * * * * * * * * * * * * * * * * * * * * * * * * * * * * * * * * * * * //

dimensions      [0 0 0 0 0 0 0];


internalField   nonuniform List<scalar> 
80000
(
0.001943949257
0.002491595809
0.003709611924
0.005003762822
0.006326599692
0.00766613954
0.00901800074
0.01038040276
0.01175267346
0.0131346738
0.01452654319
0.0159285753
0.01734115311
0.01876471302
0.02019972402
0.0216466756
0.02310607041
0.02457841991
0.02606424187
0.02756405912
0.02907839902
0.03060779353
0.03215277952
0.03371389944
0.03529170198
0.03688674295
0.0384995863
0.04013080501
0.04178098212
0.04345071155
0.04514059919
0.04685126377
0.04858333748
0.05033746694
0.05211431379
0.05391455549
0.05573888577
0.05758801503
0.05946267065
0.06136359764
0.063291559
0.0652473356
0.06723172645
0.06924554888
0.0712896388
0.07336485036
0.07547205623
0.07761214748
0.07978603354
0.08199464255
0.0842389209
0.08651983346
0.08883836323
0.09119551141
0.09359229792
0.09602976102
0.0985089576
0.101030963
0.1035968709
0.1062077935
0.108864862
0.111569226
0.1143220539
0.1171245328
0.1199778685
0.1228832854
0.1258420266
0.1288553538
0.1319245471
0.1350509047
0.1382357431
0.1414803968
0.1447862183
0.1481545777
0.1515868626
0.155084478
0.1586488465
0.1622814073
0.1659836169
0.1697569486
0.1736028926
0.1775229556
0.1815186607
0.1855915466
0.189743168
0.1939750933
0.1982889032
0.2026861891
0.2071685499
0.2117375879
0.2163949021
0.2211420809
0.2259806888
0.2309122517
0.235938235
0.2410600132
0.2462788282
0.2515957303
0.2570114953
0.2625265064
0.2681405769
0.2738526797
0.2796605142
0.2855597758
0.2915428592
0.2975965268
0.3036991862
0.3098453624
0.3165907528
0.334527891
0.4597751302
1.076248606
16.71874346
17.10755243
17.10771002
17.10771627
17.10772232
17.10772828
17.10773414
17.10773992
17.1077456
17.10775118
17.10775668
17.10776209
17.10776741
17.10777263
17.10777777
17.10778282
17.10778778
17.10779266
17.10779745
17.10780215
17.10780676
17.1078113
17.10781574
17.1078201
17.10782438
17.10782857
17.10783269
17.10783672
17.10784066
17.10784453
17.10784832
17.10785202
17.10785565
17.1078592
17.10786267
17.10786606
17.10786937
17.10787261
17.10787577
17.10787886
17.10788187
17.10788481
17.10788767
17.10789046
17.10789317
17.10789582
17.10789839
17.10790089
17.10790331
17.10790567
17.10790796
17.10791018
17.10791233
17.10791441
17.10791643
17.10791837
17.10792025
17.10792207
17.10792381
17.1079255
17.10792711
17.10792867
17.10793016
17.10793158
17.10793295
17.10793425
17.10793549
17.10793667
17.10793779
17.10793885
17.10793985
17.10794079
17.10794168
17.1079425
17.10794327
17.10794399
17.10794465
17.10794525
17.1079458
17.1079463
17.10794675
17.10794715
17.10794749
17.10794779
17.10794804
17.10794824
17.1079484
17.10794851
0.00251534167
0.002960022994
0.004040543388
0.005255466135
0.006529418538
0.007836488775
0.009165534379
0.01051121144
0.01187081874
0.01324298608
0.01462706606
0.01602282774
0.01743029181
0.0188496369
0.02028114396
0.02172516233
0.02318208819
0.02465235081
0.02613640365
0.02763471849
0.0291477817
0.03067609202
0.03222015908
0.03378050276
0.03535765298
0.03695214976
0.03856454356
0.04019539589
0.0418452798
0.04351478057
0.04520449648
0.04691503939
0.04864703542
0.05040112565
0.05217796666
0.05397823117
0.05580260855
0.05765180501
0.05952654413
0.06142756712
0.06335563333
0.06531152016
0.06729602325
0.06930995661
0.0713541528
0.07342946268
0.07553675568
0.07767691961
0.07985086081
0.0820595041
0.08430379256
0.08658468776
0.08890316927
0.09126023502
0.09365690136
0.09609420291
0.09857319277
0.1010949423
0.1036605414
0.1062710979
0.1089277385
0.1116316082
0.1143838707
0.117185708
0.1200383204
0.1229429265
0.1259007636
0.128913087
0.13198117
0.1351063038
0.1382897974
0.1415329772
0.1448371873
0.1482037887
0.1516341593
0.155129694
0.1586918041
0.1623219168
0.1660214752
0.1697919388
0.1736347818
0.1775514936
0.1815435775
0.1856125504
0.1897599416
0.1939872908
0.1982961455
0.2026880585
0.2071645834
0.2117272684
0.2163776476
0.2211172311
0.2259474883
0.2308698273
0.2358855661
0.2409958925
0.2462018076
0.2515040466
0.2569029634
0.2623983633
0.2679892522
0.2736734516
0.2794469983
0.2853031885
0.2912310418
0.2972129162
0.3032225427
0.3092526023
0.3158664545
0.3336431087
0.4583678412
1.072462605
16.71792454
17.10756174
17.10771937
17.10772535
17.10773114
17.10773684
17.10774246
17.10774798
17.10775341
17.10775875
17.10776401
17.10776918
17.10777426
17.10777925
17.10778416
17.10778898
17.10779372
17.10779838
17.10780295
17.10780743
17.10781184
17.10781616
17.1078204
17.10782455
17.10782863
17.10783263
17.10783654
17.10784038
17.10784414
17.10784782
17.10785142
17.10785495
17.1078584
17.10786177
17.10786507
17.1078683
17.10787145
17.10787452
17.10787752
17.10788046
17.10788331
17.1078861
17.10788882
17.10789146
17.10789404
17.10789655
17.10789899
17.10790136
17.10790367
17.10790591
17.10790808
17.10791019
17.10791223
17.10791421
17.10791613
17.10791798
17.10791977
17.1079215
17.10792317
17.10792478
17.10792633
17.10792782
17.10792926
17.10793064
17.10793196
17.10793322
17.10793443
17.10793558
17.10793669
17.10793773
17.10793873
17.10793967
17.10794057
17.10794141
17.10794221
17.10794295
17.10794365
17.1079443
17.10794491
17.10794547
17.10794598
17.10794645
17.10794688
17.10794727
17.10794761
17.10794791
17.10794817
17.1079484
0.003466322913
0.003803025859
0.004695912501
0.005777653271
0.006960083672
0.008202513439
0.009484326276
0.01079441765
0.01212651541
0.01347695911
0.01484358032
0.01622510512
0.0176208182
0.01903036576
0.02045363502
0.0218906785
0.02334166482
0.0248068461
0.026286536
0.02778109469
0.02929091848
0.03081643261
0.03235808621
0.03391634897
0.03549170877
0.03708467012
0.03869575343
0.04032549443
0.04197444386
0.04364316774
0.04533224745
0.04704227991
0.04877387799
0.05052767098
0.05230430472
0.05410444226
0.05592876399
0.05777796792
0.05965277005
0.06155390446
0.06348212379
0.06543819904
0.06742291975
0.06943709412
0.07148154895
0.07355712965
0.07566470019
0.07780514319
0.0799793598
0.08218826956
0.08443281041
0.08671393862
0.08903262856
0.09138987293
0.09378668259
0.09622408668
0.0987031325
0.1012248855
0.1037904293
0.1064008655
0.1090573141
0.111760913
0.1145128185
0.1173142047
0.1201662636
0.1230702052
0.1260272576
0.129038666
0.1321056934
0.1352296198
0.1384117421
0.1416533743
0.1449558468
0.148320506
0.1517487141
0.1552418492
0.1588013038
0.1624284852
0.1661248149
0.1698917278
0.1737306719
0.1776431063
0.1816305009
0.185694335
0.1898360946
0.1940572696
0.1983593509
0.2027438252
0.2072121687
0.2117658381
0.2164062591
0.221134812
0.2259528102
0.2308614724
0.2358618851
0.2409549502
0.2461413144
0.25142127
0.256794615
0.2622604568
0.2678169317
0.273460799
0.2791868582
0.2849871106
0.2908495769
0.2967567788
0.3026856583
0.3086387148
0.3151982691
0.3329050862
0.4570277091
1.068085532
16.71698061
17.10753524
17.10769361
17.10769998
17.10770615
17.10771223
17.10771822
17.10772412
17.10772992
17.10773563
17.10774125
17.10774679
17.10775223
17.10775758
17.10776284
17.10776802
17.10777311
17.10777811
17.10778302
17.10778785
17.10779259
17.10779725
17.10780182
17.10780631
17.10781071
17.10781503
17.10781927
17.10782343
17.10782751
17.10783151
17.10783543
17.10783926
17.10784302
17.10784671
17.10785031
17.10785384
17.10785729
17.10786067
17.10786397
17.1078672
17.10787035
17.10787343
17.10787644
17.10787938
17.10788224
17.10788504
17.10788776
17.10789042
17.10789301
17.10789553
17.10789799
17.10790038
17.1079027
17.10790496
17.10790715
17.10790928
17.10791135
17.10791336
17.1079153
17.10791719
17.10791901
17.10792078
17.10792248
17.10792413
17.10792572
17.10792726
17.10792874
17.10793016
17.10793153
17.10793285
17.10793411
17.10793532
17.10793648
17.10793759
17.10793865
17.10793966
17.10794062
17.10794154
17.1079424
17.10794322
17.10794399
17.10794472
17.1079454
17.10794604
17.10794663
17.10794718
17.10794769
17.10794816
0.004540086316
0.004804030845
0.005540973411
0.006487132899
0.007563824804
0.008725466426
0.009945151786
0.0112067641
0.01250042125
0.01381991807
0.01516128401
0.01652195127
0.01790025981
0.01929515414
0.02070599176
0.02213241915
0.02357428919
0.02503160542
0.02650448345
0.02799312392
0.02949779346
0.0310188107
0.03255653672
0.03411136753
0.03568372911
0.03727407372
0.03888287705
0.04051063641
0.04215786943
0.04382511331
0.04551292415
0.0472218766
0.04895256379
0.05070559732
0.05248160714
0.05428124186
0.05610516881
0.05795407385
0.05982866185
0.06172965655
0.06365780087
0.06561385655
0.06759860441
0.06961284437
0.07165739521
0.07373309453
0.07584079876
0.07798138329
0.08015574188
0.08236478687
0.08460944904
0.08689067743
0.08920943926
0.09156671998
0.09396352304
0.09640087
0.09887980033
0.1014013713
0.1039666583
0.1065767543
0.1092327702
0.1119358344
0.114687093
0.1174877096
0.1203388652
0.1232417582
0.1261976038
0.1292076343
0.1322730984
0.1353952611
0.1385754037
0.141814823
0.1451148311
0.148476755
0.1519019359
0.1553917288
0.158947502
0.1625706362
0.1662625235
0.1700245673
0.1738581798
0.1777647813
0.1817457979
0.1858026599
0.1899367977
0.1941496386
0.1984426017
0.2028170916
0.2072744895
0.2118161421
0.2164433474
0.2211573356
0.225959245
0.2308500884
0.2358307095
0.2409017258
0.2460634516
0.2513157946
0.2566581181
0.2620890563
0.2676062677
0.2732061079
0.2788832043
0.2846299209
0.2904357199
0.2962865849
0.3021664623
0.3080904231
0.3146570487
0.3323426456
0.4558107249
1.063586512
16.71599594
17.10748753
17.10764702
17.10765415
17.10766108
17.10766791
17.10767464
17.10768127
17.1076878
17.10769424
17.10770057
17.10770682
17.10771296
17.10771901
17.10772497
17.10773083
17.1077366
17.10774228
17.10774786
17.10775335
17.10775875
17.10776406
17.10776928
17.10777441
17.10777945
17.1077844
17.10778927
17.10779405
17.10779874
17.10780335
17.10780787
17.10781231
17.10781666
17.10782093
17.10782512
17.10782923
17.10783325
17.1078372
17.10784107
17.10784485
17.10784856
17.1078522
17.10785575
17.10785923
17.10786263
17.10786596
17.10786922
17.1078724
17.10787551
17.10787854
17.10788151
17.10788441
17.10788723
17.10788999
17.10789268
17.1078953
17.10789786
17.10790034
17.10790277
17.10790513
17.10790742
17.10790965
17.10791182
17.10791393
17.10791598
17.10791796
17.10791989
17.10792176
17.10792357
17.10792532
17.10792701
17.10792865
17.10793023
17.10793176
17.10793324
17.10793466
17.10793603
17.10793735
17.10793861
17.10793983
17.10794099
17.10794211
17.10794317
17.10794419
17.10794516
17.10794608
17.10794696
17.10794779
0.005666747868
0.0058823869
0.006501596417
0.007329087294
0.008302297435
0.009378413858
0.01052860409
0.01173380528
0.01298141021
0.01426299996
0.01557288535
0.01690718234
0.01826322352
0.01963917789
0.02103380081
0.02244626672
0.02387605468
0.02532286948
0.02678658555
0.02826720716
0.02976483978
0.03127966865
0.03281194352
0.034361967
0.03593008617
0.03751668592
0.0391221844
0.04074702935
0.04239169528
0.04405668196
0.04574251247
0.04744973237
0.04917890889
0.0509306306
0.05270550663
0.05450416678
0.0563272612
0.05817545997
0.06004945349
0.06194995208
0.06387768601
0.06583340512
0.06781787916
0.06983189719
0.07187626786
0.0739518188
0.07605939703
0.07819986844
0.08037411757
0.08258304777
0.08482758077
0.08710865663
0.08942723352
0.09178428779
0.09418081363
0.09661782333
0.09909634655
0.1016174306
0.1041821405
0.1067915585
0.1094467845
0.112148935
0.114899144
0.1176985622
0.1205483571
0.1234497126
0.126403829
0.1294119225
0.132475225
0.1355949835
0.13877246
0.1420089312
0.1453056874
0.1486640324
0.1520852825
0.1555707664
0.1591218233
0.162739803
0.1664260642
0.1701819735
0.1740089029
0.1779082286
0.1818813283
0.1859295784
0.1900543491
0.1942570007
0.1985388775
0.2029012991
0.2073455515
0.2118728736
0.2164844422
0.2211813505
0.225964583
0.2308349808
0.2357931992
0.2408396527
0.2459744446
0.2511972773
0.2565073395
0.2619031662
0.2673824652
0.272941915
0.2785769361
0.2842814599
0.2900477453
0.295866442
0.3017288459
0.3076606973
0.314270188
0.3319509447
0.4547300896
1.059167487
16.71501165
17.10742111
17.10758205
17.10759027
17.10759828
17.10760617
17.10761396
17.10762164
17.10762922
17.10763669
17.10764405
17.10765131
17.10765846
17.10766551
17.10767245
17.1076793
17.10768604
17.10769268
17.10769921
17.10770565
17.10771199
17.10771823
17.10772437
17.10773041
17.10773636
17.10774221
17.10774796
17.10775362
17.10775919
17.10776466
17.10777004
17.10777532
17.10778052
17.10778562
17.10779064
17.10779556
17.1078004
17.10780515
17.10780981
17.10781438
17.10781887
17.10782328
17.1078276
17.10783184
17.10783599
17.10784006
17.10784406
17.10784797
17.1078518
17.10785555
17.10785923
17.10786283
17.10786635
17.10786979
17.10787316
17.10787646
17.10787968
17.10788284
17.10788591
17.10788892
17.10789186
17.10789473
17.10789753
17.10790026
17.10790292
17.10790552
17.10790805
17.10791051
17.10791292
17.10791525
17.10791753
17.10791974
17.1079219
17.10792399
17.10792602
17.10792799
17.1079299
17.10793176
17.10793356
17.1079353
17.10793699
17.10793862
17.1079402
17.10794173
17.1079432
17.10794462
17.10794599
17.10794731
0.006821190867
0.007003437664
0.007534556529
0.008263817135
0.009143456231
0.01013666568
0.01121583036
0.01236102472
0.01355811939
0.01479712962
0.01607097729
0.01737461762
0.01870443786
0.02005784482
0.02143298035
0.02282852431
0.02424355504
0.02567745075
0.02712981826
0.028600441
0.03008924097
0.03159625002
0.033121589
0.0346654513
0.03622809117
0.03780981395
0.03941096933
0.04103194566
0.04267316594
0.04433508467
0.04601818518
0.04772297771
0.04944999834
0.05119980738
0.05297298867
0.05477014923
0.05659191824
0.05843894673
0.06031190749
0.0622114945
0.06413842268
0.06609342764
0.06807726555
0.07009071254
0.07213456501
0.07420963875
0.07631676929
0.07845681144
0.08063063876
0.08283914368
0.08508323743
0.08736384938
0.08968192707
0.09203843621
0.09443436021
0.09687070014
0.09934847436
0.1018687186
0.1044324861
0.1070408467
0.1096948871
0.1123957107
0.1151444373
0.1179422032
0.1207901601
0.1236894762
0.1266413344
0.1296469329
0.1327074848
0.1358242172
0.1389983707
0.1422311995
0.1455239704
0.1488779615
0.152294463
0.1557747743
0.1593202041
0.1629320698
0.1666116949
0.170360408
0.1741795405
0.1780704242
0.1820343889
0.1860727588
0.1901868471
0.1943779524
0.1986473508
0.2029962882
0.2074259699
0.2119375483
0.2165321068
0.2212106398
0.2259740299
0.2308230167
0.2357581606
0.2407797979
0.2458879862
0.25108244
0.2563624563
0.2617268296
0.2671737628
0.2727007821
0.2783046738
0.2839814709
0.2897265437
0.2955349742
0.3014040853
0.307367093
0.3140357264
0.3317108161
0.4537809693
1.054914574
16.71404511
17.10733692
17.10749961
17.10750923
17.10751862
17.10752789
17.10753704
17.10754607
17.10755498
17.10756377
17.10757245
17.10758101
17.10758946
17.10759778
17.107606
17.1076141
17.10762208
17.10762996
17.10763772
17.10764537
17.10765291
17.10766034
17.10766766
17.10767487
17.10768197
17.10768897
17.10769586
17.10770264
17.10770932
17.1077159
17.10772237
17.10772874
17.107735
17.10774117
17.10774724
17.1077532
17.10775907
17.10776484
17.10777051
17.10777609
17.10778157
17.10778695
17.10779225
17.10779745
17.10780255
17.10780757
17.10781249
17.10781733
17.10782207
17.10782673
17.1078313
17.10783579
17.10784018
17.1078445
17.10784873
17.10785288
17.10785694
17.10786092
17.10786483
17.10786865
17.10787239
17.10787606
17.10787965
17.10788316
17.1078866
17.10788996
17.10789325
17.10789646
17.10789961
17.10790268
17.10790568
17.10790861
17.10791147
17.10791427
17.10791699
17.10791965
17.10792225
17.10792478
17.10792725
17.10792965
17.10793199
17.10793427
17.10793649
17.10793865
17.10794075
17.10794279
17.10794478
17.10794671
0.007992538633
0.008150690057
0.008614866525
0.009264145467
0.01006230894
0.01097902048
0.01198947022
0.01307436811
0.01421915359
0.01541298859
0.0166478446
0.01791777615
0.01921837374
0.0205463622
0.0218993099
0.02327541756
0.0246733646
0.02609219671
0.02753124292
0.02899005361
0.03046835473
0.03196601231
0.03348300618
0.03501940953
0.03657537326
0.03815111371
0.03974690357
0.04136306398
0.04299995935
0.04465799247
0.046337601
0.04803925479
0.0497634537
0.0515107255
0.05328162497
0.05507673255
0.05689665318
0.0587420157
0.06061347261
0.0625116988
0.06443739158
0.06639126997
0.06837407436
0.07038656617
0.07242952758
0.0745037608
0.0766100883
0.07874935198
0.08092241282
0.0831301513
0.08537346619
0.08765327512
0.08997051358
0.092326135
0.09472111079
0.09715642958
0.09963309712
0.1021521366
0.1047145875
0.1073215063
0.1099739655
0.1126730535
0.1154198754
0.1182155512
0.1210612164
0.1239580213
0.1269071306
0.1299097237
0.1329669935
0.1360801459
0.1392503998
0.142478986
0.1457671466
0.1491161346
0.1525272125
0.1560016513
0.1595407299
0.1631457337
0.1668179526
0.1705586795
0.1743692084
0.1782508311
0.182204835
0.1862324995
0.1903350911
0.1945138589
0.1987700274
0.2031047891
0.2075192954
0.2120146448
0.2165918695
0.2212519192
0.2259956415
0.230823759
0.2357368431
0.2407352822
0.2458192488
0.2509886629
0.2562431564
0.2615820401
0.2670042829
0.2725085146
0.2780930673
0.2837560797
0.289495706
0.2953105725
0.3012022917
0.3072086504
0.3139406231
0.3316019075
0.4529538841
1.050861617
16.71310294
17.10723541
17.10740014
17.10741145
17.10742252
17.10743346
17.10744426
17.10745493
17.10746547
17.10747587
17.10748615
17.10749629
17.1075063
17.10751618
17.10752593
17.10753555
17.10754505
17.10755442
17.10756367
17.10757279
17.10758178
17.10759065
17.1075994
17.10760803
17.10761653
17.10762491
17.10763318
17.10764132
17.10764935
17.10765726
17.10766505
17.10767273
17.10768029
17.10768774
17.10769508
17.1077023
17.10770941
17.10771641
17.1077233
17.10773009
17.10773676
17.10774333
17.10774979
17.10775615
17.10776241
17.10776855
17.1077746
17.10778055
17.10778639
17.10779214
17.10779779
17.10780334
17.10780879
17.10781415
17.10781941
17.10782458
17.10782965
17.10783464
17.10783953
17.10784433
17.10784904
17.10785367
17.1078582
17.10786265
17.10786702
17.1078713
17.10787549
17.10787961
17.10788364
17.10788759
17.10789146
17.10789526
17.10789897
17.10790261
17.10790617
17.10790966
17.10791307
17.10791641
17.10791968
17.10792287
17.107926
17.10792905
17.10793204
17.10793496
17.10793782
17.1079406
17.10794333
17.10794598
0.009175377554
0.009315492794
0.009727706475
0.01031184064
0.01104020567
0.01188823612
0.01283442214
0.01386095941
0.01495365359
0.01610143079
0.01729575072
0.01853006234
0.01979935203
0.02109978554
0.02242843349
0.0237830628
0.02516197934
0.02656390883
0.02798790701
0.02943329095
0.03089958683
0.03238648949
0.03389383174
0.03542155976
0.03696971456
0.03853841725
0.04012785714
0.04173828233
0.04336999304
0.04502333548
0.04669869695
0.04839650238
0.05011721143
0.05186131597
0.05362933803
0.05542182833
0.0572393649
0.05908255164
0.06095201816
0.06284841799
0.06477242881
0.06672475101
0.06870610741
0.0707172429
0.07275892373
0.07483193716
0.07693709105
0.07907521283
0.08124714997
0.08345376932
0.08569595638
0.08797461555
0.09029066908
0.09264505757
0.09503873887
0.09747268845
0.09994789856
0.1024653782
0.1050261531
0.1076312649
0.1102817713
0.1129787453
0.115723276
0.1185164669
0.121359436
0.1242533157
0.1271992525
0.1301984062
0.1332519492
0.1363610669
0.1395269562
0.1427508249
0.1460338918
0.1493773847
0.1527825409
0.156250605
0.1597828282
0.1633804673
0.167044783
0.1707770375
0.1745784934
0.1784504109
0.182394045
0.1864106422
0.1905014371
0.194667647
0.1989104663
0.2032310613
0.2076305616
0.2121100512
0.2166705589
0.2213130464
0.226038395
0.2308473914
0.2357407131
0.2407189111
0.2457823975
0.2509314337
0.2561661257
0.2614864305
0.2668921818
0.2723831416
0.2779590928
0.2836199839
0.2893661557
0.2951987649
0.301122169
0.3071765899
0.3139696179
0.3316070154
0.452239505
1.047018987
16.71218699
17.10711682
17.10728387
17.10729717
17.10731022
17.10732311
17.10733585
17.10734844
17.10736088
17.10737317
17.10738532
17.10739731
17.10740916
17.10742086
17.10743242
17.10744383
17.10745509
17.10746621
17.1074772
17.10748804
17.10749873
17.10750929
17.10751971
17.10752999
17.10754014
17.10755014
17.10756002
17.10756975
17.10757936
17.10758883
17.10759817
17.10760738
17.10761645
17.1076254
17.10763422
17.10764291
17.10765148
17.10765992
17.10766824
17.10767643
17.1076845
17.10769245
17.10770028
17.10770799
17.10771558
17.10772306
17.10773041
17.10773766
17.10774479
17.1077518
17.10775871
17.1077655
17.10777218
17.10777875
17.10778522
17.10779158
17.10779783
17.10780398
17.10781003
17.10781597
17.10782181
17.10782756
17.1078332
17.10783874
17.10784419
17.10784954
17.1078548
17.10785996
17.10786503
17.10787
17.10787489
17.10787969
17.1078844
17.10788902
17.10789355
17.107898
17.10790237
17.10790665
17.10791085
17.10791497
17.10791901
17.10792297
17.10792685
17.10793066
17.10793439
17.10793805
17.10794163
17.10794514
0.01036670431
0.01049290806
0.01086393028
0.01139461427
0.01206348046
0.01285072391
0.01373804124
0.01470947408
0.01575168544
0.01685382643
0.0180072177
0.01920498334
0.02044170714
0.02171313667
0.02301594137
0.02434751907
0.02570584456
0.02708935081
0.02849683687
0.02992739584
0.03138035872
0.03285525056
0.03435175609
0.03586969254
0.03740898814
0.03896966472
0.04055182463
0.04215563934
0.04378134104
0.04542921554
0.04709959617
0.04879285983
0.05050942308
0.05224973852
0.05401429283
0.05580360446
0.05761822188
0.05945872206
0.06132570951
0.06321981463
0.06514169348
0.06709202603
0.06907151607
0.07108089059
0.07312089855
0.07519231074
0.07729591907
0.07943253568
0.08160299323
0.08380814395
0.0860488593
0.08832602928
0.09064056245
0.09299338515
0.09538544161
0.09781769286
0.1002911172
0.1028067093
0.1053654798
0.1079684559
0.1106166796
0.1133112086
0.1160531155
0.1188434872
0.1216834243
0.124574042
0.1275164682
0.1305118438
0.1335613221
0.1366660682
0.1398272584
0.1430460795
0.1463237286
0.1496614111
0.1530603419
0.1565217429
0.1600468419
0.1636368723
0.1672930714
0.1710166786
0.1748089341
0.1786710766
0.1826043411
0.1866099567
0.1906891422
0.1948431044
0.1990730321
0.2033800934
0.2077654297
0.2122301494
0.2167753232
0.2214019762
0.2261110828
0.2309035595
0.2357802617
0.2407419799
0.2457894416
0.2509233193
0.2561442473
0.2614528516
0.266849798
0.2723358653
0.2779120475
0.2835796965
0.2893407156
0.2951979093
0.3011572257
0.3072599302
0.3141088013
0.3317128151
0.4516300479
1.043386931
16.71129705
17.10698129
17.10715094
17.10716652
17.10718182
17.10719695
17.10721192
17.10722671
17.10724133
17.10725578
17.10727007
17.10728418
17.10729813
17.10731192
17.10732554
17.107339
17.10735229
17.10736542
17.10737839
17.1073912
17.10740384
17.10741634
17.10742867
17.10744084
17.10745286
17.10746473
17.10747644
17.107488
17.1074994
17.10751066
17.10752176
17.10753272
17.10754353
17.10755419
17.10756471
17.10757508
17.10758531
17.10759539
17.10760534
17.10761514
17.10762481
17.10763434
17.10764373
17.10765299
17.10766211
17.10767109
17.10767995
17.10768867
17.10769727
17.10770574
17.10771407
17.10772229
17.10773038
17.10773834
17.10774618
17.1077539
17.1077615
17.10776898
17.10777635
17.10778359
17.10779072
17.10779774
17.10780464
17.10781144
17.10781812
17.10782469
17.10783116
17.10783752
17.10784377
17.10784992
17.10785596
17.10786191
17.10786775
17.10787349
17.10787914
17.10788469
17.10789014
17.1078955
17.10790077
17.10790594
17.10791103
17.10791602
17.10792093
17.10792575
17.10793048
17.10793513
17.10793969
17.10794418
0.01156469548
0.01167990439
0.01201764597
0.01250403821
0.01312213708
0.01385593199
0.01468997874
0.01561022033
0.01660442541
0.0176622721
0.01877522554
0.01993632228
0.02113992991
0.02238151802
0.02365745838
0.02496485444
0.02630140278
0.02766528092
0.02905505679
0.03046961644
0.03190810705
0.03336989087
0.03485450863
0.03636165011
0.03789113076
0.03944287287
0.04101689023
0.0426132756
0.04423219126
0.0458738602
0.04753855976
0.04922661637
0.05093840098
0.05267432479
0.05443483713
0.05622042215
0.05803159695
0.05986890956
0.06173293776
0.06362428743
0.06554359131
0.06749150766
0.06946872028
0.07147593648
0.07351388692
0.07558332488
0.0776850253
0.07981978442
0.08198841914
0.08419176635
0.08643068243
0.08870604291
0.09101874138
0.09336969012
0.0957598185
0.09819007359
0.1006614188
0.1031748344
0.1057313163
0.1083318765
0.110977542
0.1136693548
0.1164083717
0.1191956633
0.1220323138
0.1249194215
0.1278580969
0.1308494637
0.1338946569
0.1369948237
0.1401511217
0.1433647195
0.146636795
0.1499685356
0.1533611377
0.1568158044
0.1603337466
0.1639161809
0.1675643287
0.1712794153
0.1750626685
0.1789153179
0.1828385917
0.1868337167
0.1909019147
0.1950444021
0.1992623862
0.2035570636
0.2079296174
0.2123812145
0.216913005
0.2215261181
0.226221664
0.2310007345
0.2358644064
0.2408137488
0.2458498347
0.250973762
0.2561866807
0.2614898322
0.2668846068
0.2723726144
0.2779557785
0.2836364539
0.2894175727
0.2953029213
0.3012992615
0.3074480795
0.3143466741
0.3319093674
0.4511194085
1.039961736
16.71043218
17.1068289
17.10700142
17.10701957
17.10703742
17.10705507
17.10707254
17.1070898
17.10710688
17.10712377
17.10714046
17.10715697
17.10717328
17.10718941
17.10720536
17.10722111
17.10723669
17.10725208
17.10726728
17.10728231
17.10729715
17.10731181
17.1073263
17.10734061
17.10735474
17.10736869
17.10738247
17.10739608
17.10740951
17.10742278
17.10743587
17.10744879
17.10746155
17.10747414
17.10748656
17.10749882
17.10751092
17.10752286
17.10753463
17.10754625
17.10755771
17.10756901
17.10758016
17.10759115
17.10760199
17.10761268
17.10762322
17.10763361
17.10764386
17.10765395
17.10766391
17.10767372
17.10768338
17.10769291
17.1077023
17.10771155
17.10772066
17.10772964
17.10773848
17.10774719
17.10775578
17.10776423
17.10777255
17.10778075
17.10778882
17.10779676
17.10780459
17.10781229
17.10781988
17.10782734
17.10783469
17.10784192
17.10784904
17.10785605
17.10786294
17.10786973
17.1078764
17.10788297
17.10788944
17.1078958
17.10790206
17.10790821
17.10791427
17.10792023
17.10792609
17.10793185
17.10793752
17.1079431
0.01276815165
0.01287449612
0.01318489501
0.01363419817
0.01420880852
0.01489569832
0.01568186462
0.0165550437
0.01750419168
0.01851968522
0.01959332947
0.02071825666
0.02188877565
0.0231002063
0.02434872238
0.02563120936
0.02694514373
0.02828849005
0.02965961646
0.03105722484
0.03248029487
0.03392803719
0.0353998562
0.03689531941
0.03841413279
0.03995612073
0.04152120919
0.04310941246
0.0447208218
0.04635559683
0.0480139575
0.04969617863
0.0514025839
0.05313354217
0.05488946336
0.0566707963
0.05847802514
0.06031166768
0.06217227403
0.06406042394
0.06597672557
0.06792181496
0.06989635424
0.07190103033
0.07393655502
0.07600366318
0.0781031122
0.08023568149
0.08240217168
0.0846034038
0.08684021878
0.08911347698
0.09142405708
0.09377285663
0.09616079078
0.0985887916
0.1010578086
0.103568807
0.1061227687
0.1087206905
0.1113635851
0.1140524794
0.1167884148
0.1195724471
0.122405645
0.1252890913
0.1282238809
0.1312111217
0.1342519329
0.1373474461
0.1404988035
0.1437071584
0.1469736736
0.1502995226
0.1536858879
0.1571339607
0.1606449405
0.1642200343
0.167860456
0.1715674261
0.1753421712
0.1791859225
0.1830999157
0.1870853895
0.1911435864
0.1952757509
0.1994831288
0.2037669678
0.2081285177
0.2125690293
0.2170897585
0.2216919659
0.2263769237
0.2311459214
0.2360002742
0.2409413379
0.2459705248
0.2510893304
0.2562993644
0.2616023926
0.2670003867
0.27249559
0.2780905901
0.2837884073
0.2895925979
0.2955074719
0.3015401241
0.3077318193
0.3146741496
0.3321893578
0.4507029184
1.036738533
16.70959131
17.10665973
17.1068354
17.1068564
17.10687707
17.10689753
17.10691777
17.10693779
17.1069576
17.10697719
17.10699656
17.10701572
17.10703466
17.1070534
17.10707192
17.10709024
17.10710834
17.10712624
17.10714393
17.10716141
17.10717869
17.10719577
17.10721265
17.10722932
17.10724579
17.10726207
17.10727814
17.10729402
17.10730971
17.1073252
17.1073405
17.10735561
17.10737053
17.10738526
17.1073998
17.10741416
17.10742834
17.10744233
17.10745614
17.10746976
17.10748321
17.10749649
17.10750959
17.10752251
17.10753526
17.10754784
17.10756025
17.10757249
17.10758456
17.10759647
17.10760821
17.1076198
17.10763122
17.10764248
17.10765358
17.10766453
17.10767532
17.10768596
17.10769645
17.10770679
17.10771698
17.10772703
17.10773692
17.10774668
17.10775629
17.10776576
17.1077751
17.10778429
17.10779335
17.10780228
17.10781108
17.10781974
17.10782827
17.10783668
17.10784496
17.10785312
17.10786115
17.10786907
17.10787686
17.10788454
17.1078921
17.10789954
17.10790688
17.1079141
17.10792121
17.10792821
17.10793511
17.1079419
0.0139762259
0.01407530536
0.01436291088
0.01478083903
0.01531799585
0.01596369084
0.01670695893
0.01753714867
0.01844438407
0.01941981594
0.0204557096
0.02154542494
0.0226833358
0.02386472057
0.02508564503
0.0263428501
0.02763364913
0.02895583838
0.03030762061
0.03168753982
0.03309442752
0.03452735758
0.03598560878
0.0374686342
0.0389760361
0.04050754453
0.04206300039
0.04364234079
0.04524558729
0.04687283606
0.04852425003
0.05020005144
0.05190051647
0.05362597052
0.05537678395
0.05715336885
0.05895617599
0.06078569201
0.06264243814
0.06452696718
0.06643986251
0.06838173674
0.07035322937
0.07235500708
0.07438776142
0.07645220869
0.07854908825
0.08067916226
0.08284321469
0.0850420504
0.08727649467
0.08954739247
0.09185560793
0.09420202387
0.09658754055
0.09901307623
0.1014795662
0.1039879615
0.1065392301
0.1091343547
0.1117743342
0.1144601815
0.1171929241
0.1199736039
0.1228032759
0.1256830092
0.128613885
0.1315969978
0.1346334538
0.137724372
0.1408708826
0.1440741269
0.1473352578
0.1506554391
0.1540358453
0.157477661
0.1609820811
0.1645503104
0.1681835636
0.1718830661