/*--------------------------------*- C++ -*----------------------------------*\
| =========                 |                                                 |
| \\      /  F ield         | OpenFOAM: The Open Source CFD Toolbox           |
|  \\    /   O peration     | Version:  v1706                                 |
|   \\  /    A nd           | Web:      www.OpenFOAM.com                      |
|    \\/     M anipulation  |                                                 |
\*---------------------------------------------------------------------------*/
FoamFile
{
    version     2.0;
    format      ascii;
    class       volScalarField;
    location    "0.003";
    object      nD_N2;
}
// * * * * * * * * * * * * * * * * * * * * * * * * * * * * * * * * * * * * * //

dimensions      [0 -3 0 0 0 0 0];


internalField   nonuniform List<scalar> 
80000
(
2.195340364e+24
2.193210165e+24
2.192650214e+24
2.192164012e+24
2.191720169e+24
2.191317283e+24
2.19095509e+24
2.190633124e+24
2.190350634e+24
2.190106585e+24
2.189899662e+24
2.189728284e+24
2.189590622e+24
2.189484618e+24
2.189408013e+24
2.189358372e+24
2.189333111e+24
2.189329527e+24
2.189344826e+24
2.189376153e+24
2.189420622e+24
2.18947534e+24
2.189537437e+24
2.189604088e+24
2.189672538e+24
2.189740122e+24
2.18980428e+24
2.189862578e+24
2.189912714e+24
2.189952534e+24
2.189980035e+24
2.189993371e+24
2.189990854e+24
2.189970956e+24
2.189932301e+24
2.189873662e+24
2.189793958e+24
2.189692236e+24
2.189567672e+24
2.189419549e+24
2.189247251e+24
2.189050251e+24
2.188828094e+24
2.188580387e+24
2.188306782e+24
2.188006969e+24
2.18768066e+24
2.18732758e+24
2.186947451e+24
2.18653999e+24
2.186104893e+24
2.185641831e+24
2.185150444e+24
2.184630331e+24
2.184081047e+24
2.1835021e+24
2.182892946e+24
2.182252988e+24
2.181581573e+24
2.18087799e+24
2.180141471e+24
2.17937119e+24
2.178566262e+24
2.177725744e+24
2.176848635e+24
2.175933877e+24
2.174980352e+24
2.173986887e+24
2.172952252e+24
2.17187516e+24
2.170754268e+24
2.169588175e+24
2.168375425e+24
2.167114502e+24
2.165803838e+24
2.164441804e+24
2.163026713e+24
2.161556824e+24
2.160030336e+24
2.158445394e+24
2.156800084e+24
2.155092439e+24
2.15332044e+24
2.151482019e+24
2.14957506e+24
2.147597412e+24
2.145546892e+24
2.143421293e+24
2.141218402e+24
2.138936011e+24
2.136571949e+24
2.1341241e+24
2.131590455e+24
2.128969153e+24
2.12625855e+24
2.123457321e+24
2.120564578e+24
2.117580053e+24
2.114504343e+24
2.111339278e+24
2.108088457e+24
2.104758069e+24
2.101358175e+24
2.09790475e+24
2.094422995e+24
2.090952532e+24
2.087551854e+24
2.08423977e+24
2.079820807e+24
2.052230321e+24
1.822072963e+24
1.075006997e+24
2.740590016e+23
2.73894847e+23
2.738932369e+23
2.738928184e+23
2.738924076e+23
2.738920032e+23
2.738916053e+23
2.738912137e+23
2.738908285e+23
2.738904496e+23
2.738900769e+23
2.738897105e+23
2.738893503e+23
2.738889962e+23
2.738886482e+23
2.738883064e+23
2.738879706e+23
2.738876408e+23
2.738873169e+23
2.738869991e+23
2.738866871e+23
2.738863809e+23
2.738860806e+23
2.738857861e+23
2.738854974e+23
2.738852143e+23
2.738849369e+23
2.738846652e+23
2.73884399e+23
2.738841384e+23
2.738838833e+23
2.738836337e+23
2.738833896e+23
2.738831508e+23
2.738829175e+23
2.738826894e+23
2.738824666e+23
2.738822491e+23
2.738820368e+23
2.738818297e+23
2.738816277e+23
2.738814309e+23
2.738812391e+23
2.738810523e+23
2.738808705e+23
2.738806936e+23
2.738805217e+23
2.738803547e+23
2.738801925e+23
2.738800351e+23
2.738798825e+23
2.738797346e+23
2.738795914e+23
2.738794529e+23
2.73879319e+23
2.738791897e+23
2.738790649e+23
2.738789447e+23
2.738788289e+23
2.738787176e+23
2.738786107e+23
2.738785081e+23
2.738784099e+23
2.73878316e+23
2.738782263e+23
2.738781409e+23
2.738780596e+23
2.738779824e+23
2.738779094e+23
2.738778404e+23
2.738777754e+23
2.738777143e+23
2.738776572e+23
2.73877604e+23
2.738775545e+23
2.738775089e+23
2.738774669e+23
2.738774286e+23
2.738773939e+23
2.738773627e+23
2.738773349e+23
2.738773106e+23
2.738772896e+23
2.738772718e+23
2.738772572e+23
2.738772457e+23
2.738772372e+23
2.738772316e+23
2.197169456e+24
2.195036545e+24
2.194475538e+24
2.193988592e+24
2.193544558e+24
2.193142186e+24
2.192781286e+24
2.192461413e+24
2.192181818e+24
2.191941455e+24
2.191738989e+24
2.191572819e+24
2.191441095e+24
2.191341741e+24
2.191272479e+24
2.191230858e+24
2.191214278e+24
2.191220024e+24
2.19124529e+24
2.191287212e+24
2.191342894e+24
2.191409439e+24
2.19148397e+24
2.191563659e+24
2.191645749e+24
2.191727573e+24
2.191806573e+24
2.191880313e+24
2.191946496e+24
2.19200297e+24
2.192047736e+24
2.192078952e+24
2.192094937e+24
2.192094168e+24
2.192075274e+24
2.192037038e+24
2.191978383e+24
2.191898366e+24
2.191796167e+24
2.19167108e+24
2.191522495e+24
2.191349891e+24
2.191152823e+24
2.190930902e+24
2.190683789e+24
2.190411182e+24
2.190112796e+24
2.189788363e+24
2.189437612e+24
2.189060263e+24
2.188656017e+24
2.188224551e+24
2.187765507e+24
2.187278487e+24
2.18676305e+24
2.186218705e+24
2.185644909e+24
2.185041067e+24
2.184406525e+24
2.183740573e+24
2.183042441e+24
2.1823113e+24
2.181546261e+24
2.18074638e+24
2.179910648e+24
2.179038001e+24
2.178127315e+24
2.177177408e+24
2.17618704e+24
2.175154913e+24
2.17407967e+24
2.172959898e+24
2.171794123e+24
2.170580815e+24
2.169318383e+24
2.168005179e+24
2.166639496e+24
2.165219566e+24
2.163743564e+24
2.162209603e+24
2.160615742e+24
2.158959981e+24
2.157240266e+24
2.155454488e+24
2.153600495e+24
2.151676087e+24
2.149679031e+24
2.147607064e+24
2.14545791e+24
2.14322929e+24
2.140918949e+24
2.138524674e+24
2.136044334e+24
2.133475923e+24
2.130817619e+24
2.128067861e+24
2.125225457e+24
2.122289722e+24
2.119260679e+24
2.116139318e+24
2.11292797e+24
2.109630824e+24
2.106254648e+24
2.102809793e+24
2.099311568e+24
2.095781856e+24
2.092247119e+24
2.088668927e+24
2.083756453e+24
2.05537758e+24
1.824615923e+24
1.077704968e+24
2.740570843e+23
2.738927349e+23
2.738911669e+23
2.738907923e+23
2.738904249e+23
2.738900636e+23
2.738897082e+23
2.738893587e+23
2.738890151e+23
2.738886774e+23
2.738883455e+23
2.738880193e+23
2.73887699e+23
2.738873844e+23
2.738870754e+23
2.738867722e+23
2.738864745e+23
2.738861824e+23
2.738858959e+23
2.738856149e+23
2.738853393e+23
2.738850692e+23
2.738848045e+23
2.738845452e+23
2.738842912e+23
2.738840425e+23
2.73883799e+23
2.738835608e+23
2.738833277e+23
2.738830998e+23
2.73882877e+23
2.738826592e+23
2.738824465e+23
2.738822387e+23
2.738820359e+23
2.738818381e+23
2.73881645e+23
2.738814568e+23
2.738812734e+23
2.738810948e+23
2.738809208e+23
2.738807516e+23
2.738805869e+23
2.738804268e+23
2.738802713e+23
2.738801203e+23
2.738799737e+23
2.738798315e+23
2.738796938e+23
2.738795603e+23
2.738794312e+23
2.738793062e+23
2.738791855e+23
2.738790689e+23
2.738789565e+23
2.738788481e+23
2.738787437e+23
2.738786433e+23
2.738785468e+23
2.738784542e+23
2.738783655e+23
2.738782805e+23
2.738781992e+23
2.738781217e+23
2.738780478e+23
2.738779774e+23
2.738779106e+23
2.738778473e+23
2.738777874e+23
2.738777309e+23
2.738776777e+23
2.738776278e+23
2.738775811e+23
2.738775376e+23
2.738774973e+23
2.738774599e+23
2.738774256e+23
2.738773942e+23
2.738773658e+23
2.738773401e+23
2.738773173e+23
2.738772972e+23
2.738772798e+23
2.73877265e+23
2.738772528e+23
2.738772431e+23
2.738772359e+23
2.738772311e+23
2.197867366e+24
2.195732679e+24
2.195171595e+24
2.194684728e+24
2.194240956e+24
2.193839073e+24
2.193478922e+24
2.193160078e+24
2.192881804e+24
2.192643058e+24
2.192442508e+24
2.192278549e+24
2.192149329e+24
2.192052766e+24
2.191986579e+24
2.191948309e+24
2.191935354e+24
2.191944992e+24
2.191974415e+24
2.192020754e+24
2.192081111e+24
2.192152585e+24
2.192232297e+24
2.19231742e+24
2.192405194e+24
2.192492951e+24
2.192578134e+24
2.192658307e+24
2.192731175e+24
2.192794586e+24
2.192846543e+24
2.192885207e+24
2.192908898e+24
2.192916096e+24
2.192905433e+24
2.192875695e+24
2.192825808e+24
2.192754832e+24
2.19266195e+24
2.192546459e+24
2.192407754e+24
2.192245316e+24
2.192058702e+24
2.191847529e+24
2.191611459e+24
2.191350193e+24
2.19106345e+24
2.190750963e+24
2.190412463e+24
2.190047674e+24
2.189656299e+24
2.189238016e+24
2.188792467e+24
2.188319258e+24
2.187817948e+24
2.187288046e+24
2.186729012e+24
2.186140248e+24
2.185521101e+24
2.184870861e+24
2.184188756e+24
2.183473957e+24
2.182725574e+24
2.181942658e+24
2.181124199e+24
2.180269129e+24
2.179376321e+24
2.178444588e+24
2.177472685e+24
2.176459307e+24
2.175403092e+24
2.174302618e+24
2.173156404e+24
2.171962909e+24
2.170720534e+24
2.169427618e+24
2.168082442e+24
2.166683223e+24
2.165228122e+24
2.163715235e+24
2.162142601e+24
2.160508199e+24
2.158809951e+24
2.157045724e+24
2.155213331e+24
2.153310541e+24
2.151335079e+24
2.149284634e+24
2.147156874e+24
2.144949453e+24
2.142660035e+24
2.140286305e+24
2.137826006e+24
2.135276971e+24
2.13263717e+24
2.129904771e+24
2.127078218e+24
2.124156331e+24
2.121138446e+24
2.118024581e+24
2.114815668e+24
2.111513848e+24
2.108122844e+24
2.104648433e+24
2.101099007e+24
2.097485962e+24
2.09381995e+24
2.090039495e+24
2.084829264e+24
2.056179022e+24
1.826113575e+24
1.080840052e+24
2.740568371e+23
2.738921281e+23
2.738905724e+23
2.738902125e+23
2.738898597e+23
2.738895127e+23
2.738891714e+23
2.73888836e+23
2.738885063e+23
2.738881823e+23
2.738878639e+23
2.738875512e+23
2.73887244e+23
2.738869425e+23
2.738866464e+23
2.738863558e+23
2.738860707e+23
2.73885791e+23
2.738855167e+23
2.738852478e+23
2.738849841e+23
2.738847257e+23
2.738844725e+23
2.738842246e+23
2.738839818e+23
2.738837441e+23
2.738835114e+23
2.738832839e+23
2.738830613e+23
2.738828437e+23
2.73882631e+23
2.738824232e+23
2.738822202e+23
2.73882022e+23
2.738818286e+23
2.738816399e+23
2.738814559e+23
2.738812765e+23
2.738811017e+23
2.738809315e+23
2.738807657e+23
2.738806045e+23
2.738804476e+23
2.738802951e+23
2.73880147e+23
2.738800032e+23
2.738798636e+23
2.738797282e+23
2.738795969e+23
2.738794698e+23
2.738793467e+23
2.738792277e+23
2.738791126e+23
2.738790015e+23
2.738788942e+23
2.738787908e+23
2.738786912e+23
2.738785953e+23
2.738785031e+23
2.738784146e+23
2.738783297e+23
2.738782483e+23
2.738781705e+23
2.738780961e+23
2.738780251e+23
2.738779576e+23
2.738778933e+23
2.738778323e+23
2.738777745e+23
2.7387772e+23
2.738776685e+23
2.738776202e+23
2.738775749e+23
2.738775326e+23
2.738774933e+23
2.738774568e+23
2.738774233e+23
2.738773925e+23
2.738773646e+23
2.738773394e+23
2.738773168e+23
2.73877297e+23
2.738772797e+23
2.73877265e+23
2.738772528e+23
2.738772432e+23
2.738772359e+23
2.738772311e+23
2.198250412e+24
2.196114026e+24
2.195553096e+24
2.1950665e+24
2.194623105e+24
2.194221726e+24
2.193862222e+24
2.193544183e+24
2.193266881e+24
2.193029279e+24
2.192830049e+24
2.19266759e+24
2.192540046e+24
2.192445337e+24
2.192381179e+24
2.192345113e+24
2.192334532e+24
2.192346714e+24
2.192378848e+24
2.192428064e+24
2.192491462e+24
2.192566139e+24
2.192649216e+24
2.192737863e+24
2.192829321e+24
2.192920923e+24
2.19301011e+24
2.193094449e+24
2.193171642e+24
2.193239541e+24
2.193296149e+24
2.193339629e+24
2.193368303e+24
2.193380651e+24
2.19337531e+24
2.193351066e+24
2.193306846e+24
2.193241715e+24
2.193154858e+24
2.193045572e+24
2.192913256e+24
2.192757394e+24
2.192577544e+24
2.192373325e+24
2.192144402e+24
2.191890478e+24
2.191611273e+24
2.191306523e+24
2.190975961e+24
2.19061931e+24
2.190236277e+24
2.18982654e+24
2.189389742e+24
2.18892549e+24
2.188433344e+24
2.187912813e+24
2.187363356e+24
2.186784378e+24
2.186175224e+24
2.185535182e+24
2.184863481e+24
2.18415929e+24
2.183421718e+24
2.182649813e+24
2.181842564e+24
2.180998899e+24
2.180117688e+24
2.17919774e+24
2.178237806e+24
2.177236576e+24
2.176192682e+24
2.175104695e+24
2.173971127e+24
2.172790431e+24
2.171560996e+24
2.170281153e+24
2.16894917e+24
2.167563253e+24
2.166121546e+24
2.164622131e+24
2.163063029e+24
2.161442197e+24
2.159757532e+24
2.158006876e+24
2.15618801e+24
2.154298665e+24
2.152336521e+24
2.150299216e+24
2.148184354e+24
2.145989515e+24
2.143712268e+24
2.141350184e+24
2.138900861e+24
2.136361949e+24
2.133731187e+24
2.131006439e+24
2.128185753e+24
2.125267426e+24
2.122250086e+24
2.119132799e+24
2.115915191e+24
2.112597597e+24
2.109181237e+24
2.105668398e+24
2.102062611e+24
2.098368535e+24
2.094587594e+24
2.090646456e+24
2.085224589e+24
2.056485662e+24
1.827506176e+24
1.084199206e+24
2.740569868e+23
2.738918589e+23
2.738903083e+23
2.738899562e+23
2.73889611e+23
2.738892715e+23
2.738889377e+23
2.738886096e+23
2.738882871e+23
2.738879702e+23
2.738876588e+23
2.73887353e+23
2.738870527e+23
2.738867578e+23
2.738864683e+23
2.738861841e+23
2.738859054e+23
2.738856319e+23
2.738853637e+23
2.738851007e+23
2.738848429e+23
2.738845903e+23
2.738843428e+23
2.738841004e+23
2.73883863e+23
2.738836305e+23
2.738834031e+23
2.738831806e+23
2.738829629e+23
2.738827501e+23
2.738825421e+23
2.738823388e+23
2.738821403e+23
2.738819464e+23
2.738817572e+23
2.738815726e+23
2.738813925e+23
2.738812169e+23
2.738810458e+23
2.738808791e+23
2.738807167e+23
2.738805588e+23
2.738804051e+23
2.738802556e+23
2.738801104e+23
2.738799693e+23
2.738798324e+23
2.738796995e+23
2.738795707e+23
2.738794458e+23
2.738793249e+23
2.738792079e+23
2.738790948e+23
2.738789855e+23
2.738788799e+23
2.738787781e+23
2.738786799e+23
2.738785854e+23
2.738784945e+23
2.738784071e+23
2.738783233e+23
2.738782429e+23
2.738781659e+23
2.738780923e+23
2.73878022e+23
2.738779551e+23
2.738778913e+23
2.738778308e+23
2.738777735e+23
2.738777192e+23
2.738776681e+23
2.7387762e+23
2.738775749e+23
2.738775327e+23
2.738774935e+23
2.738774572e+23
2.738774236e+23
2.738773929e+23
2.73877365e+23
2.738773397e+23
2.738773172e+23
2.738772973e+23
2.7387728e+23
2.738772652e+23
2.73877253e+23
2.738772433e+23
2.73877236e+23
2.738772312e+23
2.198468729e+24
2.196330586e+24
2.195769901e+24
2.195283655e+24
2.19484069e+24
2.194439828e+24
2.194080941e+24
2.193763626e+24
2.193487162e+24
2.193250518e+24
2.193052367e+24
2.192891111e+24
2.192764897e+24
2.192671643e+24
2.192609065e+24
2.192574703e+24
2.192565951e+24
2.192580085e+24
2.192614293e+24
2.192665703e+24
2.192731415e+24
2.192808525e+24
2.192894153e+24
2.19298547e+24
2.193079716e+24
2.193174223e+24
2.193266433e+24
2.193353914e+24
2.193434369e+24
2.19350565e+24
2.193565762e+24
2.193612868e+24
2.193645293e+24
2.193661519e+24
2.193660182e+24
2.193640072e+24
2.193600119e+24
2.193539387e+24
2.193457064e+24
2.193352451e+24
2.193224946e+24
2.193074037e+24
2.192899283e+24
2.192700306e+24
2.192476772e+24
2.192228384e+24
2.191954867e+24
2.191655956e+24
2.191331386e+24
2.190980882e+24
2.190604152e+24
2.190200873e+24
2.189770692e+24
2.189313214e+24
2.188827999e+24
2.188314559e+24
2.187772352e+24
2.187200782e+24
2.186599195e+24
2.185966877e+24
2.185303056e+24
2.184606901e+24
2.183877518e+24
2.183113955e+24
2.182315197e+24
2.18148017e+24
2.18060774e+24
2.179696713e+24
2.178745834e+24
2.177753791e+24
2.176719209e+24
2.175640654e+24
2.174516629e+24
2.173345579e+24
2.172125886e+24
2.17085587e+24
2.169533788e+24
2.168157832e+24
2.166726133e+24
2.165236756e+24
2.163687702e+24
2.162076907e+24
2.160402245e+24
2.158661525e+24
2.156852496e+24
2.154972849e+24
2.153020217e+24
2.150992183e+24
2.148886284e+24
2.146700016e+24
2.144430848e+24
2.142076232e+24
2.139633614e+24
2.137100457e+24
2.134474261e+24
2.13175259e+24
2.128933107e+24
2.126013611e+24
2.122992088e+24
2.119866763e+24
2.116636159e+24
2.113299163e+24
2.109855085e+24
2.106303702e+24
2.102645267e+24
2.098880189e+24
2.09500451e+24
2.090938823e+24
2.085366083e+24
2.056642036e+24
1.828899877e+24
1.087616221e+24
2.740572897e+23
2.738917305e+23
2.738901818e+23
2.738898341e+23
2.738894933e+23
2.738891581e+23
2.738888286e+23
2.738885046e+23
2.738881862e+23
2.738878733e+23
2.738875658e+23
2.738872638e+23
2.738869672e+23
2.738866759e+23
2.7388639e+23
2.738861094e+23
2.73885834e+23
2.738855639e+23
2.738852989e+23
2.738850391e+23
2.738847844e+23
2.738845348e+23
2.738842902e+23
2.738840505e+23
2.738838159e+23
2.738835861e+23
2.738833612e+23
2.738831412e+23
2.738829259e+23
2.738827154e+23
2.738825097e+23
2.738823086e+23
2.738821121e+23
2.738819202e+23
2.738817329e+23
2.7388155e+23
2.738813717e+23
2.738811977e+23
2.738810282e+23
2.73880863e+23
2.738807021e+23
2.738805455e+23
2.738803931e+23
2.738802448e+23
2.738801007e+23
2.738799607e+23
2.738798247e+23
2.738796928e+23
2.738795648e+23
2.738794408e+23
2.738793206e+23
2.738792043e+23
2.738790917e+23
2.73878983e+23
2.738788779e+23
2.738787765e+23
2.738786788e+23
2.738785846e+23
2.73878494e+23
2.73878407e+23
2.738783233e+23
2.738782431e+23
2.738781663e+23
2.738780929e+23
2.738780227e+23
2.738779559e+23
2.738778922e+23
2.738778317e+23
2.738777744e+23
2.738777202e+23
2.73877669e+23
2.738776209e+23
2.738775758e+23
2.738775336e+23
2.738774943e+23
2.738774579e+23
2.738774244e+23
2.738773936e+23
2.738773656e+23
2.738773403e+23
2.738773177e+23
2.738772977e+23
2.738772803e+23
2.738772655e+23
2.738772533e+23
2.738772435e+23
2.738772362e+23
2.738772312e+23
2.198575617e+24
2.196435672e+24
2.195875284e+24
2.195389436e+24
2.194946933e+24
2.194546604e+24
2.194188326e+24
2.193871703e+24
2.193596016e+24
2.193360238e+24
2.193163047e+24
2.193002844e+24
2.192877779e+24
2.19278577e+24
2.192724533e+24
2.192691609e+24
2.192684391e+24
2.192700154e+24
2.192736086e+24
2.192789314e+24
2.192856937e+24
2.192936051e+24
2.193023778e+24
2.193117285e+24
2.193213815e+24
2.193310699e+24
2.19340538e+24
2.193495426e+24
2.193578541e+24
2.193652579e+24
2.193715545e+24
2.193765605e+24
2.193801083e+24
2.193820463e+24
2.193822385e+24
2.193805639e+24
2.193769157e+24
2.193712005e+24
2.193633373e+24
2.193532564e+24
2.193408978e+24
2.193262103e+24
2.193091503e+24
2.192896798e+24
2.192677659e+24
2.192433789e+24
2.192164915e+24
2.191870773e+24
2.191551099e+24
2.19120562e+24
2.190834044e+24
2.19043605e+24
2.190011285e+24
2.189559355e+24
2.18907982e+24
2.188572192e+24
2.18803593e+24
2.187470436e+24
2.186875057e+24
2.186249079e+24
2.185591728e+24
2.184902172e+24
2.184179515e+24
2.183422802e+24
2.182631018e+24
2.181803086e+24
2.180937868e+24
2.180034166e+24
2.179090723e+24
2.178106218e+24
2.177079274e+24
2.176008449e+24
2.174892241e+24
2.173729085e+24
2.172517355e+24
2.171255361e+24
2.169941349e+24
2.168573497e+24
2.167149922e+24
2.165668671e+24
2.164127727e+24
2.162525004e+24
2.160858349e+24
2.159125542e+24
2.157324297e+24
2.155452264e+24
2.153507027e+24
2.151486114e+24
2.149386992e+24
2.147207076e+24
2.144943738e+24
2.142594307e+24
2.140156086e+24
2.137626355e+24
2.135002392e+24
2.132281486e+24
2.129460954e+24
2.126538163e+24
2.123510552e+24
2.12037566e+24
2.117131141e+24
2.113774787e+24
2.11030453e+24
2.106718428e+24
2.103014599e+24
2.099190852e+24
2.095240168e+24
2.091080225e+24
2.085401597e+24
2.056755615e+24
1.830297313e+24
1.090998853e+24
2.740576569e+23
2.738916706e+23
2.738901219e+23
2.738897768e+23
2.738894385e+23
2.738891058e+23
2.738887786e+23
2.73888457e+23
2.738881409e+23
2.738878302e+23
2.738875249e+23
2.73887225e+23
2.738869304e+23
2.738866412e+23
2.738863572e+23
2.738860784e+23
2.738858048e+23
2.738855364e+23
2.738852732e+23
2.73885015e+23
2.738847618e+23
2.738845137e+23
2.738842706e+23
2.738840323e+23
2.73883799e+23
2.738835705e+23
2.738833469e+23
2.73883128e+23
2.738829139e+23
2.738827044e+23
2.738824997e+23
2.738822995e+23
2.73882104e+23
2.738819129e+23
2.738817264e+23
2.738815443e+23
2.738813667e+23
2.738811935e+23
2.738810245e+23
2.738808599e+23
2.738806996e+23
2.738805434e+23
2.738803915e+23
2.738802437e+23
2.738801e+23
2.738799603e+23
2.738798247e+23
2.73879693e+23
2.738795653e+23
2.738794414e+23
2.738793215e+23
2.738792053e+23
2.738790929e+23
2.738789843e+23
2.738788794e+23
2.738787781e+23
2.738786804e+23
2.738785863e+23
2.738784957e+23
2.738784087e+23
2.738783251e+23
2.738782449e+23
2.73878168e+23
2.738780946e+23
2.738780244e+23
2.738779575e+23
2.738778938e+23
2.738778332e+23
2.738777759e+23
2.738777216e+23
2.738776704e+23
2.738776222e+23
2.73877577e+23
2.738775347e+23
2.738774954e+23
2.738774589e+23
2.738774253e+23
2.738773944e+23
2.738773664e+23
2.73877341e+23
2.738773183e+23
2.738772982e+23
2.738772808e+23
2.738772659e+23
2.738772536e+23
2.738772437e+23
2.738772363e+23
2.738772313e+23
2.198596374e+24
2.19645463e+24
2.195894579e+24
2.195409165e+24
2.194967152e+24
2.194567374e+24
2.194209709e+24
2.193893764e+24
2.193618827e+24
2.193383871e+24
2.193187575e+24
2.193028344e+24
2.192904326e+24
2.192813442e+24
2.192753408e+24
2.192721763e+24
2.192715902e+24
2.192733099e+24
2.192770542e+24
2.192825357e+24
2.192894644e+24
2.192975499e+24
2.193065042e+24
2.193160442e+24
2.193258941e+24
2.193357871e+24
2.193454676e+24
2.193546924e+24
2.193632321e+24
2.193708721e+24
2.193774131e+24
2.193826718e+24
2.193864809e+24
2.193886888e+24
2.193891597e+24
2.193877728e+24
2.193844215e+24
2.193790125e+24
2.193714651e+24
2.193617097e+24
2.193496866e+24
2.193353448e+24
2.193186406e+24
2.192995365e+24
2.192779996e+24
2.192540003e+24
2.192275116e+24
2.191985071e+24
2.191669607e+24
2.191328451e+24
2.190961311e+24
2.190567868e+24
2.19014777e+24
2.189700623e+24
2.189225988e+24
2.188723377e+24
2.188192248e+24
2.187632004e+24
2.187041991e+24
2.186421495e+24
2.185769741e+24
2.185085895e+24
2.184369061e+24
2.183618281e+24
2.182832537e+24
2.182010751e+24
2.181151781e+24
2.180254426e+24
2.179317423e+24
2.178339449e+24
2.17731912e+24
2.176254988e+24
2.175145544e+24
2.173989216e+24
2.172784369e+24
2.171529303e+24
2.170222251e+24
2.168861381e+24
2.167444792e+24
2.165970519e+24
2.164436521e+24
2.162840692e+24
2.161180854e+24
2.159454758e+24
2.157660082e+24
2.155794437e+24
2.153855362e+24
2.151840326e+24
2.149746733e+24
2.147571922e+24
2.145313169e+24
2.142967695e+24
2.140532667e+24
2.138005204e+24
2.135382388e+24
2.132661268e+24
2.129838868e+24
2.126912199e+24
2.123878263e+24
2.120734064e+24
2.117476604e+24
2.114102879e+24
2.110609862e+24
2.106994466e+24
2.103253454e+24
2.099383075e+24
2.09537459e+24
2.091144446e+24
2.08539267e+24
2.056862829e+24
1.831683774e+24
1.094298939e+24
2.740580469e+23
2.738916453e+23
2.738900956e+23
2.738897519e+23
2.738894151e+23
2.738890837e+23
2.738887579e+23
2.738884376e+23
2.738881227e+23
2.738878132e+23
2.73887509e+23
2.738872102e+23
2.738869168e+23
2.738866285e+23
2.738863455e+23
2.738860677e+23
2.738857951e+23
2.738855275e+23
2.738852651e+23
2.738850077e+23
2.738847553e+23
2.738845079e+23
2.738842654e+23
2.738840278e+23
2.738837951e+23
2.738835672e+23
2.738833441e+23
2.738831258e+23
2.738829121e+23
2.738827031e+23
2.738824988e+23
2.73882299e+23
2.738821038e+23
2.738819131e+23
2.738817269e+23
2.738815451e+23
2.738813677e+23
2.738811947e+23
2.73881026e+23
2.738808616e+23
2.738807014e+23
2.738805454e+23
2.738803936e+23
2.738802459e+23
2.738801023e+23
2.738799627e+23
2.738798271e+23
2.738796955e+23
2.738795678e+23
2.73879444e+23
2.738793241e+23
2.738792079e+23
2.738790955e+23
2.738789869e+23
2.738788819e+23
2.738787806e+23
2.738786829e+23
2.738785888e+23
2.738784981e+23
2.73878411e+23
2.738783274e+23
2.738782471e+23
2.738781702e+23
2.738780967e+23
2.738780264e+23
2.738779594e+23
2.738778957e+23
2.738778351e+23
2.738777776e+23
2.738777232e+23
2.73877672e+23
2.738776237e+23
2.738775784e+23
2.738775361e+23
2.738774966e+23
2.738774601e+23
2.738774264e+23
2.738773954e+23
2.738773673e+23
2.738773418e+23
2.73877319e+23
2.738772989e+23
2.738772814e+23
2.738772664e+23
2.73877254e+23
2.73877244e+23
2.738772365e+23
2.738772314e+23
2.198545038e+24
2.196401545e+24
2.195841871e+24
2.195356924e+24
2.19491543e+24
2.194516221e+24
2.194159181e+24
2.193843919e+24
2.193569722e+24
2.193335566e+24
2.193140134e+24
2.192981828e+24
2.1928588e+24
2.192768969e+24
2.192710053e+24
2.192679591e+24
2.192674976e+24
2.192693484e+24
2.192732302e+24
2.192788556e+24
2.192859347e+24
2.192941769e+24
2.193032943e+24
2.193130039e+24
2.193230299e+24
2.193331056e+24
2.193429754e+24
2.193523962e+24
2.193611388e+24
2.193689887e+24
2.193757467e+24
2.193812297e+24
2.193852704e+24
2.193877176e+24
2.193884356e+24
2.193873037e+24
2.193842156e+24
2.193790783e+24
2.19371811e+24
2.193623445e+24
2.193506192e+24
2.193365843e+24
2.193201964e+24
2.19301418e+24
2.192802165e+24
2.192565624e+24
2.192304288e+24
2.192017896e+24
2.191706186e+24
2.191368888e+24
2.191005711e+24
2.190616336e+24
2.190200412e+24
2.189757546e+24
2.189287299e+24
2.188789183e+24
2.188262658e+24
2.187707125e+24
2.187121931e+24
2.186506359e+24
2.185859636e+24
2.185180926e+24
2.184469331e+24
2.183723893e+24
2.18294359e+24
2.182127341e+24
2.181274003e+24
2.18038237e+24
2.179451177e+24
2.178479095e+24
2.177464734e+24
2.176406641e+24
2.175303301e+24
2.174153135e+24
2.172954497e+24
2.171705679e+24
2.170404903e+24
2.169050325e+24
2.167640031e+24
2.166172036e+24
2.164644284e+24
2.163054648e+24
2.161400923e+24
2.159680835e+24
2.157892029e+24
2.156032077e+24
2.154098476e+24
2.152088645e+24
2.149999927e+24
2.147829591e+24
2.145574829e+24
2.143232765e+24
2.140800448e+24
2.138274859e+24
2.135652914e+24
2.132931461e+24
2.130107291e+24
2.127177128e+24
2.124137638e+24
2.120985422e+24
2.117717003e+24
2.114328815e+24
2.110817176e+24
2.10717824e+24
2.103407916e+24
2.099501509e+24
2.095449314e+24
2.091167409e+24
2.085365944e+24
2.056974234e+24
1.833044617e+24
1.097492179e+24
2.740584392e+23
2.738916378e+23
2.738900864e+23
2.738897436e+23
2.738894074e+23
2.738890768e+23
2.738887517e+23
2.73888432e+23
2.738881178e+23
2.738878089e+23
2.738875053e+23
2.738872071e+23
2.738869141e+23
2.738866264e+23
2.738863438e+23
2.738860665e+23
2.738857942e+23
2.738855271e+23
2.73885265e+23
2.73885008e+23
2.738847559e+23
2.738845088e+23
2.738842666e+23
2.738840293e+23
2.738837969e+23
2.738835692e+23
2.738833463e+23
2.738831281e+23
2.738829146e+23
2.738827058e+23
2.738825016e+23
2.73882302e+23
2.738821069e+23
2.738819163e+23
2.738817302e+23
2.738815484e+23
2.738813711e+23
2.738811982e+23
2.738810295e+23
2.738808651e+23
2.738807049e+23
2.73880549e+23
2.738803971e+23
2.738802494e+23
2.738801058e+23
2.738799662e+23
2.738798306e+23
2.73879699e+23
2.738795712e+23
2.738794474e+23
2.738793274e+23
2.738792112e+23
2.738790988e+23
2.738789901e+23
2.73878885e+23
2.738787836e+23
2.738786859e+23
2.738785916e+23
2.73878501e+23
2.738784138e+23
2.7387833e+23
2.738782497e+23
2.738781727e+23
2.738780991e+23
2.738780288e+23
2.738779617e+23
2.738778978e+23
2.738778372e+23
2.738777796e+23
2.738777252e+23
2.738776738e+23
2.738776254e+23
2.738775801e+23
2.738775376e+23
2.738774981e+23
2.738774615e+23
2.738774277e+23
2.738773966e+23
2.738773684e+23
2.738773428e+23
2.738773199e+23
2.738772997e+23
2.73877282e+23
2.73877267e+23
2.738772544e+23
2.738772443e+23
2.738772367e+23
2.738772315e+23
2.198430205e+24
2.196285063e+24
2.195725804e+24
2.195241358e+24
2.194800412e+24
2.194401798e+24
2.1940454e+24
2.19373083e+24
2.193457376e+24
2.193224017e+24
2.193029433e+24
2.19287203e+24
2.192749959e+24
2.192661141e+24
2.192603292e+24
2.192573952e+24
2.192570514e+24
2.192590254e+24
2.192630358e+24
2.192687955e+24
2.192760141e+24
2.192844015e+24
2.192936696e+24
2.193035355e+24
2.193137234e+24
2.193239668e+24
2.193340101e+24
2.193436104e+24
2.193525385e+24
2.193605801e+24
2.193675362e+24
2.193732238e+24
2.193774758e+24
2.193801412e+24
2.193810845e+24
2.193801852e+24
2.193773371e+24
2.193724474e+24
2.193654358e+24
2.193562329e+24
2.193447796e+24
2.193310251e+24
2.193149263e+24
2.192964459e+24
2.192755514e+24
2.192522135e+24
2.192264054e+24
2.191981012e+24
2.191672749e+24
2.191338995e+24
2.190979461e+24
2.190593829e+24
2.190181748e+24
2.189742826e+24
2.189276626e+24
2.188782659e+24
2.188260385e+24
2.187709207e+24
2.187128469e+24
2.186517457e+24
2.185875395e+24
2.185201445e+24
2.184494711e+24
2.18375423e+24
2.182978982e+24
2.182167881e+24
2.181319781e+24
2.180433474e+24
2.179507691e+24
2.178541099e+24
2.177532302e+24
2.176479844e+24
2.175382202e+24
2.17423779e+24
2.173044955e+24
2.171801978e+24
2.170507073e+24
2.169158383e+24
2.167753982e+24
2.16629187e+24
2.164769973e+24
2.163186145e+24
2.161538159e+24
2.159823714e+24
2.158040429e+24
2.156185841e+24
2.154257406e+24
2.152252499e+24
2.15016841e+24
2.148002347e+24
2.145751431e+24
2.143412701e+24
2.140983107e+24
2.138459515e+24
2.135838704e+24
2.133117365e+24
2.130292099e+24
2.127359413e+24
2.124315714e+24
2.121157305e+24
2.117880362e+24
2.114480924e+24
2.110954856e+24
2.107297809e+24
2.103505138e+24
2.099571566e+24
2.095486824e+24
2.091167052e+24
2.085332611e+24
2.057090758e+24
1.834368643e+24
1.100566787e+24
2.740588238e+23
2.738916392e+23
2.73890086e+23
2.738897435e+23
2.738894077e+23
2.738890775e+23
2.738887527e+23
2.738884333e+23
2.738881193e+23
2.738878107e+23
2.738875074e+23
2.738872094e+23
2.738869167e+23
2.738866292e+23
2.738863468e+23
2.738860696e+23
2.738857976e+23
2.738855306e+23
2.738852687e+23
2.738850118e+23
2.738847598e+23
2.738845128e+23
2.738842707e+23
2.738840335e+23
2.738838011e+23
2.738835735e+23
2.738833507e+23
2.738831325e+23
2.738829191e+23
2.738827103e+23
2.738825061e+23
2.738823065e+23
2.738821114e+23
2.738819208e+23
2.738817346e+23
2.738815529e+23
2.738813756e+23
2.738812026e+23
2.738810339e+23
2.738808695e+23
2.738807093e+23
2.738805532e+23
2.738804014e+23
2.738802536e+23
2.738801099e+23
2.738799703e+23
2.738798346e+23
2.738797029e+23
2.738795751e+23
2.738794512e+23
2.738793312e+23
2.738792149e+23
2.738791024e+23
2.738789936e+23
2.738788885e+23
2.73878787e+23
2.738786892e+23
2.738785949e+23
2.738785041e+23
2.738784169e+23
2.73878333e+23
2.738782526e+23
2.738781756e+23
2.738781018e+23
2.738780314e+23
2.738779643e+23
2.738779003e+23
2.738778395e+23
2.738777819e+23
2.738777273e+23
2.738776759e+23
2.738776274e+23
2.738775819e+23
2.738775394e+23
2.738774998e+23
2.73877463e+23
2.738774291e+23
2.73877398e+23
2.738773696e+23
2.738773439e+23
2.738773209e+23
2.738773005e+23
2.738772828e+23
2.738772676e+23
2.738772549e+23
2.738772447e+23
2.73877237e+23
2.738772317e+23
2.198257518e+24
2.196110865e+24
2.195552062e+24
2.195068153e+24
2.194627787e+24
2.194229794e+24
2.193874061e+24
2.1935602e+24
2.193287502e+24
2.193054944e+24
2.192861208e+24
2.192704701e+24
2.192583573e+24
2.192495745e+24
2.192438935e+24
2.192410681e+24
2.192408378e+24
2.1924293e+24
2.192470633e+24
2.192529507e+24
2.19260302e+24
2.192688268e+24
2.192782372e+24
2.192882504e+24
2.192985906e+24
2.193089913e+24
2.193191973e+24
2.193289656e+24
2.193380672e+24
2.193462879e+24
2.19353429e+24