/*--------------------------------*- C++ -*----------------------------------*\
| =========                 |                                                 |
| \\      /  F ield         | OpenFOAM: The Open Source CFD Toolbox           |
|  \\    /   O peration     | Version:  v1706                                 |
|   \\  /    A nd           | Web:      www.OpenFOAM.com                      |
|    \\/     M anipulation  |                                                 |
\*---------------------------------------------------------------------------*/
FoamFile
{
    version     2.0;
    format      ascii;
    class       volScalarField;
    location    "0.003";
    object      nD_O2;
}
// * * * * * * * * * * * * * * * * * * * * * * * * * * * * * * * * * * * * * //

dimensions      [0 -3 0 0 0 0 0];


internalField   nonuniform List<scalar> 
80000
(
8.236775096e+23
8.228782727e+23
8.226681827e+23
8.224857628e+23
8.223192359e+23
8.221680754e+23
8.220321833e+23
8.219113836e+23
8.218053952e+23
8.217138296e+23
8.216361935e+23
8.215718936e+23
8.215202435e+23
8.214804715e+23
8.214517299e+23
8.214331049e+23
8.214236271e+23
8.214222823e+23
8.214280224e+23
8.214397762e+23
8.214564606e+23
8.214769905e+23
8.215002887e+23
8.215252958e+23
8.21550978e+23
8.21576335e+23
8.216004068e+23
8.216222797e+23
8.216410905e+23
8.216560306e+23
8.216663488e+23
8.216713523e+23
8.216704082e+23
8.216629424e+23
8.216484392e+23
8.216264385e+23
8.215965338e+23
8.215583686e+23
8.215116329e+23
8.21456058e+23
8.213914131e+23
8.213175e+23
8.212341482e+23
8.211412098e+23
8.21038555e+23
8.209260672e+23
8.208036383e+23
8.206711647e+23
8.20528543e+23
8.203756661e+23
8.202124205e+23
8.200386828e+23
8.198543175e+23
8.196591745e+23
8.194530867e+23
8.192358696e+23
8.190073189e+23
8.187672108e+23
8.185153e+23
8.182513203e+23
8.179749831e+23
8.176859788e+23
8.17383975e+23
8.170686182e+23
8.167395326e+23
8.16396321e+23
8.160385646e+23
8.156658231e+23
8.152776347e+23
8.148735169e+23
8.144529654e+23
8.140154549e+23
8.135604387e+23
8.130873487e+23
8.125955962e+23
8.120845695e+23
8.115536367e+23
8.110021438e+23
8.104294155e+23
8.098347555e+23
8.092174457e+23
8.085767484e+23
8.079119059e+23
8.07222142e+23
8.065066635e+23
8.057646628e+23
8.04995321e+23
8.0419781e+23
8.033712994e+23
8.025149611e+23
8.016279802e+23
8.007095632e+23
7.997589561e+23
7.987754602e+23
7.977584596e+23
7.967074567e+23
7.956221182e+23
7.945023436e+23
7.933483574e+23
7.921608453e+23
7.909411581e+23
7.896916181e+23
7.884159999e+23
7.871202973e+23
7.858139654e+23
7.845118701e+23
7.832359575e+23
7.81993285e+23
7.803353187e+23
7.69983547e+23
6.836299942e+23
4.033356744e+23
1.028251653e+23
1.027635756e+23
1.027629715e+23
1.027628145e+23
1.027626604e+23
1.027625086e+23
1.027623593e+23
1.027622124e+23
1.027620679e+23
1.027619257e+23
1.027617859e+23
1.027616484e+23
1.027615133e+23
1.027613804e+23
1.027612499e+23
1.027611216e+23
1.027609956e+23
1.027608719e+23
1.027607504e+23
1.027606311e+23
1.02760514e+23
1.027603992e+23
1.027602865e+23
1.02760176e+23
1.027600677e+23
1.027599615e+23
1.027598574e+23
1.027597554e+23
1.027596556e+23
1.027595578e+23
1.027594621e+23
1.027593685e+23
1.027592769e+23
1.027591873e+23
1.027590997e+23
1.027590141e+23
1.027589306e+23
1.02758849e+23
1.027587693e+23
1.027586916e+23
1.027586158e+23
1.02758542e+23
1.0275847e+23
1.027583999e+23
1.027583317e+23
1.027582654e+23
1.027582008e+23
1.027581382e+23
1.027580773e+23
1.027580183e+23
1.02757961e+23
1.027579055e+23
1.027578518e+23
1.027577998e+23
1.027577496e+23
1.027577011e+23
1.027576543e+23
1.027576091e+23
1.027575657e+23
1.027575239e+23
1.027574838e+23
1.027574454e+23
1.027574085e+23
1.027573733e+23
1.027573396e+23
1.027573076e+23
1.027572771e+23
1.027572481e+23
1.027572207e+23
1.027571948e+23
1.027571704e+23
1.027571475e+23
1.027571261e+23
1.027571061e+23
1.027570876e+23
1.027570704e+23
1.027570547e+23
1.027570403e+23
1.027570273e+23
1.027570156e+23
1.027570052e+23
1.027569961e+23
1.027569882e+23
1.027569815e+23
1.02756976e+23
1.027569717e+23
1.027569685e+23
1.027569664e+23
8.243637732e+23
8.235635186e+23
8.233530323e+23
8.231703334e+23
8.23003735e+23
8.228527675e+23
8.227173599e+23
8.225973457e+23
8.224924437e+23
8.224022608e+23
8.223262968e+23
8.22263951e+23
8.22214529e+23
8.221772521e+23
8.221512655e+23
8.221356495e+23
8.221294289e+23
8.221315846e+23
8.221410643e+23
8.221567931e+23
8.221776848e+23
8.222026519e+23
8.222306154e+23
8.222605143e+23
8.22291314e+23
8.223220139e+23
8.223516541e+23
8.223793209e+23
8.224041524e+23
8.224253409e+23
8.224421367e+23
8.224538489e+23
8.224598465e+23
8.224595577e+23
8.224524691e+23
8.224381232e+23
8.224161161e+23
8.223860942e+23
8.223477499e+23
8.223008179e+23
8.222450697e+23
8.221803101e+23
8.221063712e+23
8.220231079e+23
8.219303929e+23
8.218281122e+23
8.2171616e+23
8.215944348e+23
8.214628352e+23
8.213212562e+23
8.21169586e+23
8.210077027e+23
8.208354722e+23
8.206527455e+23
8.204593567e+23
8.202551219e+23
8.200398377e+23
8.1981328e+23
8.195752041e+23
8.193253431e+23
8.190634083e+23
8.187890889e+23
8.185020515e+23
8.18201941e+23
8.178883799e+23
8.175609684e+23
8.172192849e+23
8.16862886e+23
8.164913063e+23
8.161040589e+23
8.157006349e+23
8.152805035e+23
8.148431123e+23
8.143878869e+23
8.139142307e+23
8.134215251e+23
8.129091294e+23
8.12376381e+23
8.118225944e+23
8.112470623e+23
8.10649056e+23
8.100278251e+23
8.093825991e+23
8.08712587e+23
8.080169807e+23
8.072949552e+23
8.065456726e+23
8.057682841e+23
8.049619352e+23
8.041257716e+23
8.032589466e+23
8.023606299e+23
8.014300224e+23
8.004663714e+23
7.994689929e+23
7.984373015e+23
7.973708498e+23
7.962693811e+23
7.951329037e+23
7.939617892e+23
7.927569122e+23
7.915198445e+23
7.902531249e+23
7.889606376e+23
7.876481262e+23
7.863238013e+23
7.849975909e+23
7.836550761e+23
7.818119476e+23
7.711643779e+23
6.845840965e+23
4.043479354e+23
1.02824446e+23
1.027627832e+23
1.027621948e+23
1.027620543e+23
1.027619165e+23
1.027617809e+23
1.027616475e+23
1.027615164e+23
1.027613875e+23
1.027612608e+23
1.027611363e+23
1.027610139e+23
1.027608937e+23
1.027607757e+23
1.027606598e+23
1.02760546e+23
1.027604343e+23
1.027603247e+23
1.027602172e+23
1.027601118e+23
1.027600084e+23
1.02759907e+23
1.027598077e+23
1.027597104e+23
1.027596151e+23
1.027595218e+23
1.027594305e+23
1.027593411e+23
1.027592536e+23
1.027591681e+23
1.027590845e+23
1.027590028e+23
1.02758923e+23
1.027588451e+23
1.02758769e+23
1.027586947e+23
1.027586223e+23
1.027585517e+23
1.027584829e+23
1.027584159e+23
1.027583506e+23
1.027582871e+23
1.027582253e+23
1.027581652e+23
1.027581069e+23
1.027580502e+23
1.027579952e+23
1.027579419e+23
1.027578902e+23
1.027578401e+23
1.027577917e+23
1.027577448e+23
1.027576995e+23
1.027576558e+23
1.027576136e+23
1.027575729e+23
1.027575338e+23
1.027574961e+23
1.027574599e+23
1.027574251e+23
1.027573918e+23
1.0275736e+23
1.027573295e+23
1.027573004e+23
1.027572726e+23
1.027572462e+23
1.027572212e+23
1.027571974e+23
1.02757175e+23
1.027571537e+23
1.027571338e+23
1.027571151e+23
1.027570976e+23
1.027570812e+23
1.027570661e+23
1.027570521e+23
1.027570392e+23
1.027570274e+23
1.027570168e+23
1.027570071e+23
1.027569986e+23
1.02756991e+23
1.027569845e+23
1.02756979e+23
1.027569744e+23
1.027569707e+23
1.02756968e+23
1.027569662e+23
8.246256243e+23
8.238247035e+23
8.236141885e+23
8.234315191e+23
8.232650189e+23
8.231142351e+23
8.229791085e+23
8.228594804e+23
8.227550739e+23
8.226654979e+23
8.225902526e+23
8.225287365e+23
8.224802539e+23
8.224440242e+23
8.22419191e+23
8.224048325e+23
8.223999717e+23
8.22403588e+23
8.224146272e+23
8.224320133e+23
8.224546589e+23
8.224814753e+23
8.225113831e+23
8.225433206e+23
8.225762527e+23
8.226091787e+23
8.226411387e+23
8.226712193e+23
8.226985588e+23
8.227223501e+23
8.22741844e+23
8.227563505e+23
8.227652394e+23
8.227679398e+23
8.227639394e+23
8.227527819e+23
8.227340645e+23
8.227074347e+23
8.226725861e+23
8.226292546e+23
8.225772132e+23
8.225162677e+23
8.224462514e+23
8.223670204e+23
8.222784487e+23
8.221804231e+23
8.220728391e+23
8.219555959e+23
8.218285931e+23
8.216917266e+23
8.215448853e+23
8.21387948e+23
8.212207811e+23
8.210432361e+23
8.208551476e+23
8.206563319e+23
8.204465858e+23
8.202256855e+23
8.199933857e+23
8.197494198e+23
8.194934985e+23
8.192253105e+23
8.18944522e+23
8.186507768e+23
8.183436964e+23
8.180228798e+23
8.17687904e+23
8.173383237e+23
8.169736718e+23
8.165934591e+23
8.161971741e+23
8.157842833e+23
8.153542311e+23
8.149064396e+23
8.144403086e+23
8.139552149e+23
8.134505134e+23
8.129255357e+23
8.123795912e+23
8.118119658e+23
8.112219235e+23
8.106087065e+23
8.099715349e+23
8.093096081e+23
8.086221064e+23
8.079081919e+23
8.071670111e+23
8.063976974e+23
8.055993755e+23
8.047711658e+23
8.039121907e+23
8.030215827e+23
8.020984943e+23
8.011421129e+23
8.001516767e+23
7.991264984e+23
7.980659938e+23
7.969697209e+23
7.958374296e+23
7.946691276e+23
7.934651642e+23
7.922263427e+23
7.909540599e+23
7.896504835e+23
7.883187618e+23
7.869631705e+23
7.855877067e+23
7.841693043e+23
7.822144594e+23
7.714650738e+23
6.851460058e+23
4.055241987e+23
1.028243532e+23
1.027625555e+23
1.027619718e+23
1.027618368e+23
1.027617044e+23
1.027615742e+23
1.027614462e+23
1.027613203e+23
1.027611966e+23
1.02761075e+23
1.027609556e+23
1.027608383e+23
1.02760723e+23
1.027606099e+23
1.027604988e+23
1.027603898e+23
1.027602828e+23
1.027601779e+23
1.027600749e+23
1.02759974e+23
1.027598751e+23
1.027597782e+23
1.027596832e+23
1.027595901e+23
1.02759499e+23
1.027594098e+23
1.027593226e+23
1.027592372e+23
1.027591537e+23
1.02759072e+23
1.027589922e+23
1.027589143e+23
1.027588381e+23
1.027587638e+23
1.027586912e+23
1.027586204e+23
1.027585513e+23
1.02758484e+23
1.027584185e+23
1.027583546e+23
1.027582924e+23
1.027582319e+23
1.02758173e+23
1.027581158e+23
1.027580603e+23
1.027580063e+23
1.027579539e+23
1.027579031e+23
1.027578539e+23
1.027578062e+23
1.0275776e+23
1.027577153e+23
1.027576722e+23
1.027576305e+23
1.027575902e+23
1.027575514e+23
1.02757514e+23
1.027574781e+23
1.027574435e+23
1.027574103e+23
1.027573784e+23
1.027573479e+23
1.027573187e+23
1.027572908e+23
1.027572641e+23
1.027572388e+23
1.027572147e+23
1.027571918e+23
1.027571701e+23
1.027571497e+23
1.027571304e+23
1.027571122e+23
1.027570952e+23
1.027570794e+23
1.027570646e+23
1.027570509e+23
1.027570383e+23
1.027570268e+23
1.027570163e+23
1.027570068e+23
1.027569984e+23
1.027569909e+23
1.027569845e+23
1.027569789e+23
1.027569744e+23
1.027569708e+23
1.02756968e+23
1.027569662e+23
8.247693407e+23
8.239677826e+23
8.237573254e+23
8.235747576e+23
8.234083988e+23
8.232578038e+23
8.231229201e+23
8.23003594e+23
8.228995521e+23
8.228104055e+23
8.227356558e+23
8.226747019e+23
8.226268484e+23
8.225913143e+23
8.225672426e+23
8.225537106e+23
8.225497408e+23
8.225543116e+23
8.225663681e+23
8.225848336e+23
8.226086199e+23
8.226366382e+23
8.226678081e+23
8.22701068e+23
8.227353826e+23
8.22769751e+23
8.228032134e+23
8.228348567e+23
8.228638191e+23
8.228892943e+23
8.229105333e+23
8.229268468e+23
8.229376051e+23
8.229422381e+23
8.229402341e+23
8.229311377e+23
8.229145469e+23
8.228901101e+23
8.228575217e+23
8.228165185e+23
8.227668743e+23
8.227083959e+23
8.226409173e+23
8.225642956e+23
8.224784054e+23
8.223831345e+23
8.222783788e+23
8.221640384e+23
8.220400136e+23
8.219062007e+23
8.217624892e+23
8.216087583e+23
8.214448749e+23
8.212706905e+23
8.210860402e+23
8.208907404e+23
8.206845879e+23
8.20467359e+23
8.202388083e+23
8.199986688e+23
8.19746651e+23
8.194824431e+23
8.192057108e+23
8.18916097e+23
8.186132223e+23
8.182966847e+23
8.1796606e+23
8.176209015e+23
8.172607404e+23
8.168850855e+23
8.164934231e+23
8.160852174e+23
8.156599102e+23
8.152169204e+23
8.147556445e+23
8.142754557e+23
8.137757042e+23
8.13255717e+23
8.12714798e+23
8.121522273e+23
8.115672621e+23
8.109591363e+23
8.103270613e+23
8.096702264e+23
8.089877997e+23
8.082789295e+23
8.075427456e+23
8.067783619e+23
8.059848796e+23
8.051613903e+23
8.043069818e+23
8.034207431e+23
8.025017729e+23
8.015491897e+23
8.005621449e+23
7.995398371e+23
7.98481534e+23
7.973865963e+23
7.9625451e+23
7.950849241e+23
7.938776982e+23
7.926329584e+23
7.913511621e+23
7.900331676e+23
7.886802999e+23
7.872943064e+23
7.858757219e+23
7.843970323e+23
7.823627829e+23
7.715801232e+23
6.856685008e+23
4.067845315e+23
1.028244094e+23
1.027624545e+23
1.027618727e+23
1.027617406e+23
1.027616111e+23
1.027614837e+23
1.027613585e+23
1.027612354e+23
1.027611144e+23
1.027609955e+23
1.027608787e+23
1.027607639e+23
1.027606512e+23
1.027605406e+23
1.02760432e+23
1.027603254e+23
1.027602208e+23
1.027601182e+23
1.027600175e+23
1.027599189e+23
1.027598221e+23
1.027597274e+23
1.027596345e+23
1.027595435e+23
1.027594545e+23
1.027593673e+23
1.027592819e+23
1.027591984e+23
1.027591168e+23
1.027590369e+23
1.027589589e+23
1.027588826e+23
1.027588081e+23
1.027587354e+23
1.027586644e+23
1.027585951e+23
1.027585275e+23
1.027584617e+23
1.027583975e+23
1.027583349e+23
1.02758274e+23
1.027582147e+23
1.027581571e+23
1.02758101e+23
1.027580465e+23
1.027579936e+23
1.027579422e+23
1.027578924e+23
1.02757844e+23
1.027577972e+23
1.027577518e+23
1.027577079e+23
1.027576655e+23
1.027576245e+23
1.027575848e+23
1.027575466e+23
1.027575098e+23
1.027574744e+23
1.027574402e+23
1.027574075e+23
1.02757376e+23
1.027573458e+23
1.02757317e+23
1.027572893e+23
1.02757263e+23
1.027572379e+23
1.027572139e+23
1.027571912e+23
1.027571697e+23
1.027571494e+23
1.027571302e+23
1.027571121e+23
1.027570952e+23
1.027570794e+23
1.027570647e+23
1.02757051e+23
1.027570385e+23
1.027570269e+23
1.027570165e+23
1.02757007e+23
1.027569985e+23
1.027569911e+23
1.027569846e+23
1.02756979e+23
1.027569745e+23
1.027569708e+23
1.027569681e+23
1.027569663e+23
8.248512519e+23
8.240490345e+23
8.238386691e+23
8.236562328e+23
8.23490035e+23
8.233396344e+23
8.232049822e+23
8.230859278e+23
8.229822004e+23
8.228934129e+23
8.228190681e+23
8.227585658e+23
8.227112109e+23
8.226762226e+23
8.226527437e+23
8.226398515e+23
8.226365679e+23
8.226418709e+23
8.226547054e+23
8.226739941e+23
8.226986487e+23
8.227275798e+23
8.227597071e+23
8.227939686e+23
8.22829329e+23
8.228647874e+23
8.228993842e+23
8.229322064e+23
8.229623926e+23
8.229891367e+23
8.230116903e+23
8.230293644e+23
8.2304153e+23
8.230476177e+23
8.230471163e+23
8.230395711e+23
8.230245808e+23
8.230017946e+23
8.229709076e+23
8.229316574e+23
8.228838185e+23
8.228271984e+23
8.227616319e+23
8.226869768e+23
8.226031083e+23
8.225099149e+23
8.22407293e+23
8.222951434e+23
8.221733669e+23
8.220418603e+23
8.219005133e+23
8.217492057e+23
8.215878046e+23
8.214161618e+23
8.212341124e+23
8.21041473e+23
8.208380406e+23
8.206235912e+23
8.203978793e+23
8.201606377e+23
8.199115766e+23
8.196503837e+23
8.193767241e+23
8.190902399e+23
8.18790551e+23
8.184772543e+23
8.181499242e+23
8.178081127e+23
8.174513494e+23
8.170791412e+23
8.166909728e+23
8.162863056e+23
8.158645788e+23
8.154252085e+23
8.149675876e+23
8.144910858e+23
8.13995049e+23
8.134787993e+23
8.129416351e+23
8.123828304e+23
8.118016353e+23
8.111972756e+23
8.105689531e+23
8.099158462e+23
8.092371104e+23
8.085318791e+23
8.077992642e+23
8.07038359e+23
8.06248239e+23
8.054279654e+23
8.045765884e+23
8.036931517e+23
8.027766973e+23
8.018262731e+23
8.008409414e+23
7.99819788e+23
7.98761936e+23
7.976665601e+23
7.965329043e+23
7.953603024e+23
7.941482009e+23
7.928961816e+23
7.916039855e+23
7.902715298e+23
7.888989087e+23
7.874862756e+23
7.86032146e+23
7.845067266e+23
7.824158705e+23
7.716387937e+23
6.861914082e+23
4.080665736e+23
1.028245231e+23
1.027624063e+23
1.027618252e+23
1.027616948e+23
1.027615669e+23
1.027614412e+23
1.027613175e+23
1.02761196e+23
1.027610765e+23
1.027609591e+23
1.027608437e+23
1.027607304e+23
1.027606191e+23
1.027605099e+23
1.027604026e+23
1.027602973e+23
1.02760194e+23
1.027600926e+23
1.027599932e+23
1.027598957e+23
1.027598002e+23
1.027597065e+23
1.027596147e+23
1.027595248e+23
1.027594368e+23
1.027593506e+23
1.027592662e+23
1.027591837e+23
1.027591029e+23
1.027590239e+23
1.027589467e+23
1.027588713e+23
1.027587975e+23
1.027587255e+23
1.027586553e+23
1.027585867e+23
1.027585197e+23
1.027584545e+23
1.027583909e+23
1.027583289e+23
1.027582685e+23
1.027582098e+23
1.027581526e+23
1.02758097e+23
1.027580429e+23
1.027579904e+23
1.027579393e+23
1.027578898e+23
1.027578418e+23
1.027577953e+23
1.027577502e+23
1.027577065e+23
1.027576643e+23
1.027576235e+23
1.027575841e+23
1.027575461e+23
1.027575094e+23
1.027574741e+23
1.027574401e+23
1.027574074e+23
1.02757376e+23
1.027573459e+23
1.027573171e+23
1.027572896e+23
1.027572632e+23
1.027572382e+23
1.027572143e+23
1.027571916e+23
1.027571701e+23
1.027571497e+23
1.027571305e+23
1.027571125e+23
1.027570956e+23
1.027570797e+23
1.02757065e+23
1.027570513e+23
1.027570387e+23
1.027570272e+23
1.027570167e+23
1.027570072e+23
1.027569987e+23
1.027569912e+23
1.027569847e+23
1.027569791e+23
1.027569745e+23
1.027569709e+23
1.027569681e+23
1.027569663e+23
8.248913557e+23
8.240884622e+23
8.238782083e+23
8.236959211e+23
8.235298969e+23
8.233796962e+23
8.232452725e+23
8.231264773e+23
8.230230415e+23
8.229345792e+23
8.228605943e+23
8.228004873e+23
8.227535635e+23
8.227190424e+23
8.226960668e+23
8.22683714e+23
8.226810058e+23
8.2268692e+23
8.227004012e+23
8.22720372e+23
8.227457437e+23
8.22775427e+23
8.228083413e+23
8.228434248e+23
8.22879642e+23
8.229159923e+23
8.229515161e+23
8.229853007e+23
8.230164851e+23
8.230442635e+23
8.23067888e+23
8.230866701e+23
8.230999812e+23
8.231072526e+23
8.231079738e+23
8.231016907e+23
8.230880029e+23
8.230665598e+23
8.230370577e+23
8.229992346e+23
8.229528659e+23
8.228977596e+23
8.228337514e+23
8.227606995e+23
8.226784799e+23
8.225869815e+23
8.224861017e+23
8.223757414e+23
8.222558019e+23
8.221261806e+23
8.219867676e+23
8.218374428e+23
8.216780737e+23
8.215085124e+23
8.21328594e+23
8.211381353e+23
8.209369332e+23
8.207247637e+23
8.205013812e+23
8.202665181e+23
8.200198844e+23
8.197611673e+23
8.194900312e+23
8.192061175e+23
8.189090453e+23
8.185984104e+23
8.182737862e+23
8.179347232e+23
8.175807492e+23
8.172113695e+23
8.168260667e+23
8.164243e+23
8.160055059e+23
8.155690975e+23
8.151144642e+23
8.146409723e+23
8.141479633e+23
8.136347542e+23
8.13100638e+23
8.125448823e+23
8.1196673e+23
8.113653987e+23
8.107400804e+23
8.100899425e+23
8.094141271e+23
8.087117523e+23
8.079819122e+23
8.072236785e+23
8.064361014e+23
8.056182112e+23
8.047690212e+23
8.038875302e+23
8.029727252e+23
8.020235866e+23
8.010390928e+23
8.000182264e+23
7.989599809e+23
7.978633685e+23
7.967274287e+23
7.955512373e+23
7.943339148e+23
7.930746326e+23
7.917726147e+23
7.904271323e+23
7.890374794e+23
7.876028345e+23
7.861205634e+23
7.845597797e+23
7.824291951e+23
7.71681408e+23
6.867157172e+23
4.093357152e+23
1.028246608e+23
1.027623838e+23
1.027618028e+23
1.027616733e+23
1.027615464e+23
1.027614215e+23
1.027612988e+23
1.027611781e+23
1.027610595e+23
1.027609429e+23
1.027608284e+23
1.027607159e+23
1.027606054e+23
1.027604968e+23
1.027603903e+23
1.027602857e+23
1.02760183e+23
1.027600823e+23
1.027599836e+23
1.027598867e+23
1.027597917e+23
1.027596986e+23
1.027596074e+23
1.02759518e+23
1.027594305e+23
1.027593447e+23
1.027592608e+23
1.027591787e+23
1.027590984e+23
1.027590198e+23
1.02758943e+23
1.027588679e+23
1.027587945e+23
1.027587228e+23
1.027586528e+23
1.027585845e+23
1.027585179e+23
1.027584529e+23
1.027583895e+23
1.027583277e+23
1.027582676e+23
1.02758209e+23
1.02758152e+23
1.027580965e+23
1.027580426e+23
1.027579902e+23
1.027579393e+23
1.027578899e+23
1.02757842e+23
1.027577955e+23
1.027577505e+23
1.027577069e+23
1.027576648e+23
1.02757624e+23
1.027575846e+23
1.027575466e+23
1.0275751e+23
1.027574747e+23
1.027574407e+23
1.02757408e+23
1.027573767e+23
1.027573466e+23
1.027573178e+23
1.027572902e+23
1.027572639e+23
1.027572388e+23
1.027572149e+23
1.027571922e+23
1.027571706e+23
1.027571503e+23
1.02757131e+23
1.02757113e+23
1.02757096e+23
1.027570802e+23
1.027570654e+23
1.027570517e+23
1.027570391e+23
1.027570275e+23
1.02757017e+23
1.027570075e+23
1.027569989e+23
1.027569914e+23
1.027569849e+23
1.027569793e+23
1.027569747e+23
1.02756971e+23
1.027569682e+23
1.027569663e+23
8.248991437e+23
8.240955748e+23
8.238854476e+23
8.237033231e+23
8.23537483e+23
8.233874886e+23
8.23253295e+23
8.231347548e+23
8.230316001e+23
8.22943446e+23
8.228697972e+23
8.228100546e+23
8.227635239e+23
8.227294248e+23
8.227069003e+23
8.226950276e+23
8.226928285e+23
8.226992808e+23
8.227133289e+23
8.227338954e+23
8.227598914e+23
8.227902276e+23
8.228238234e+23
8.228596169e+23
8.22896573e+23
8.22933691e+23
8.229700116e+23
8.230046224e+23
8.23036663e+23
8.230653277e+23
8.230898692e+23
8.231095996e+23
8.231238908e+23
8.231321748e+23
8.231339417e+23
8.231287381e+23
8.23116164e+23
8.2309587e+23
8.230675528e+23
8.230309511e+23
8.22985841e+23
8.229320314e+23
8.228693585e+23
8.227976811e+23
8.22716876e+23
8.226268324e+23
8.225274483e+23
8.224186254e+23
8.223002653e+23
8.221722657e+23
8.220345172e+23
8.218869001e+23
8.21729282e+23
8.215615152e+23
8.213834352e+23
8.211948587e+23
8.209955826e+23
8.207853828e+23
8.205640138e+23
8.203312075e+23
8.200866737e+23
8.198300992e+23
8.195611476e+23
8.192794598e+23
8.189846538e+23
8.186763248e+23
8.183540448e+23
8.18017363e+23
8.176658058e+23
8.172988764e+23
8.169160552e+23
8.165167998e+23
8.161005436e+23
8.15666697e+23
8.152146462e+23
8.147437533e+23
8.142533559e+23
8.137427663e+23
8.132112715e+23
8.126581335e+23
8.120825874e+23
8.114838428e+23
8.108610823e+23
8.102134621e+23
8.095401115e+23
8.088401335e+23
8.08112605e+23
8.073565765e+23
8.065710739e+23
8.057550989e+23
8.049076295e+23
8.040276228e+23
8.031140159e+23
8.021657284e+23
8.011816646e+23
8.001607179e+23
7.991017717e+23
7.980037044e+23
7.968653915e+23
7.956857084e+23
7.944635302e+23
7.931977304e+23
7.918871732e+23
7.905306999e+23
7.891270965e+23
7.876749552e+23
7.861709975e+23
7.845838747e+23
7.824258458e+23
7.717216339e+23
6.872359084e+23
4.105738863e+23
1.028248071e+23
1.027623744e+23
1.027617929e+23
1.02761664e+23
1.027615376e+23
1.027614133e+23
1.02761291e+23
1.027611708e+23
1.027610527e+23
1.027609366e+23
1.027608224e+23
1.027607103e+23
1.027606002e+23
1.027604921e+23
1.027603859e+23
1.027602817e+23
1.027601794e+23
1.02760079e+23
1.027599805e+23
1.02759884e+23
1.027597893e+23
1.027596964e+23
1.027596055e+23
1.027595163e+23
1.02759429e+23
1.027593435e+23
1.027592598e+23
1.027591779e+23
1.027590977e+23
1.027590193e+23
1.027589426e+23
1.027588677e+23
1.027587944e+23
1.027587229e+23
1.02758653e+23
1.027585848e+23
1.027585183e+23
1.027584534e+23
1.027583901e+23
1.027583284e+23
1.027582683e+23
1.027582097e+23
1.027581528e+23
1.027580974e+23
1.027580435e+23
1.027579911e+23
1.027579402e+23
1.027578909e+23
1.02757843e+23
1.027577965e+23
1.027577515e+23
1.027577079e+23
1.027576658e+23
1.02757625e+23
1.027575856e+23
1.027575476e+23
1.027575109e+23
1.027574756e+23
1.027574416e+23
1.027574089e+23
1.027573775e+23
1.027573474e+23
1.027573186e+23
1.02757291e+23
1.027572646e+23
1.027572395e+23
1.027572156e+23
1.027571928e+23
1.027571713e+23
1.027571509e+23
1.027571316e+23
1.027571135e+23
1.027570965e+23
1.027570807e+23
1.027570659e+23
1.027570521e+23
1.027570395e+23
1.027570279e+23
1.027570173e+23
1.027570078e+23
1.027569992e+23
1.027569917e+23
1.027569851e+23
1.027569795e+23
1.027569748e+23
1.027569711e+23
1.027569683e+23
1.027569663e+23
8.248798824e+23
8.240756579e+23
8.238656718e+23
8.236837227e+23
8.235180771e+23
8.233682966e+23
8.232343374e+23
8.23116053e+23
8.23013176e+23
8.229253225e+23
8.228519974e+23
8.227926021e+23
8.227464426e+23
8.227127388e+23
8.226906337e+23
8.226792046e+23
8.226774733e+23
8.226844174e+23
8.226989815e+23
8.227200879e+23
8.227466479e+23
8.227775721e+23
8.228117801e+23
8.228482099e+23
8.228858267e+23
8.229236301e+23
8.22960661e+23
8.229960074e+23
8.230288091e+23
8.230582612e+23
8.230836168e+23
8.231041886e+23
8.231193492e+23
8.23128531e+23
8.231312249e+23
8.231269782e+23
8.231153917e+23
8.230961166e+23
8.230688505e+23
8.230333326e+23
8.2298934e+23
8.22936682e+23
8.228751957e+23
8.228047405e+23
8.227251937e+23
8.226364452e+23
8.225383935e+23
8.22430941e+23
8.223139896e+23
8.221874375e+23
8.220511757e+23
8.219050849e+23
8.217490329e+23
8.215828722e+23
8.214064386e+23
8.212195489e+23
8.210219999e+23
8.208135677e+23
8.205940065e+23
8.203630482e+23
8.201204019e+23
8.198657543e+23
8.195987684e+23
8.193190847e+23
8.190263201e+23
8.187200689e+23
8.183999019e+23
8.180653671e+23
8.177159895e+23
8.173512705e+23
8.169706887e+23
8.165736992e+23
8.161597332e+23
8.157281982e+23
8.152784772e+23
8.148099285e+23
8.143218859e+23
8.138136571e+23
8.132845237e+23
8.127337415e+23
8.12160539e+23
8.115641176e+23
8.10943651e+23
8.102982847e+23
8.096271364e+23
8.089292945e+23
8.082038201e+23
8.074497444e+23
8.066660709e+23
8.058517747e+23
8.050058028e+23
8.041270755e+23
8.032144858e+23
8.022669013e+23
8.012831641e+23
8.002620929e+23
7.992024822e+23
7.981031041e+23
7.969627073e+23
7.957800162e+23
7.945537263e+23
7.932825004e+23
7.91964956e+23
7.905996507e+23
7.891850495e+23
7.87719391e+23
7.861990335e+23
7.845924904e+23
7.824158184e+23
7.717634323e+23
6.877464881e+23
4.11771969e+23
1.028249544e+23
1.027623715e+23
1.027617895e+23
1.027616608e+23
1.027615347e+23
1.027614107e+23
1.027612887e+23
1.027611687e+23
1.027610508e+23
1.027609349e+23
1.02760821e+23
1.027607091e+23
1.027605992e+23
1.027604913e+23
1.027603853e+23
1.027602812e+23
1.027601791e+23
1.027600788e+23
1.027599805e+23
1.027598841e+23
1.027597895e+23
1.027596968e+23
1.027596059e+23
1.027595169e+23
1.027594297e+23
1.027593442e+23
1.027592606e+23
1.027591788e+23
1.027590987e+23
1.027590203e+23
1.027589437e+23
1.027588688e+23
1.027587956e+23
1.027587241e+23
1.027586542e+23
1.027585861e+23
1.027585195e+23
1.027584546e+23
1.027583914e+23
1.027583297e+23
1.027582696e+23
1.027582111e+23
1.027581541e+23
1.027580987e+23
1.027580448e+23
1.027579924e+23
1.027579415e+23
1.027578922e+23
1.027578442e+23
1.027577978e+23
1.027577527e+23
1.027577092e+23
1.02757667e+23
1.027576262e+23
1.027575868e+23
1.027575487e+23
1.02757512e+23
1.027574767e+23
1.027574427e+23
1.0275741e+23
1.027573785e+23
1.027573484e+23
1.027573195e+23
1.027572919e+23
1.027572655e+23
1.027572404e+23
1.027572164e+23
1.027571936e+23
1.02757172e+23
1.027571516e+23
1.027571323e+23
1.027571142e+23
1.027570972e+23
1.027570812e+23
1.027570664e+23
1.027570527e+23
1.0275704e+23
1.027570283e+23
1.027570177e+23
1.027570081e+23
1.027569996e+23
1.02756992e+23
1.027569853e+23
1.027569797e+23
1.02756975e+23
1.027569712e+23
1.027569683e+23
1.027569664e+23
8.248367978e+23
8.240319545e+23
8.238221242e+23
8.236403633e+23
8.234749231e+23
8.233253657e+23
8.231916475e+23
8.230736228e+23
8.229710248e+23
8.228834698e+23
8.228104632e+23
8.227514067e+23
8.227056065e+23
8.226722825e+23
8.226505778e+23
8.226395697e+23
8.226382799e+23
8.226456862e+23
8.22660733e+23
8.226823427e+23
8.227094267e+23
8.227408955e+23
8.227756689e+23
8.228126851e+23
8.228509095e+23
8.22889342e+23
8.229270239e+23
8.229630436e+23
8.229965414e+23
8.230267128e+23
8.230528116e+23
8.230741511e+23
8.230901044e+23
8.231001048e+23
8.231036439e+23
8.231002697e+23
8.230895838e+23
8.230712382e+23
8.23044931e+23
8.230104025e+23
8.229674303e+23
8.229158245e+23
8.228554228e+23
8.227860855e+23
8.227076904e+23
8.226201283e+23
8.225232981e+23
8.224171025e+23
8.223014442e+23
8.221762219e+23
8.220413269e+23
8.218966403e+23
8.217420302e+23
8.215773495e+23
8.214024341e+23
8.212171011e+23
8.210211473e+23
8.208143488e+23
8.205964598e+23
8.20367212e+23
8.201263143e+23
8.198734529e+23
8.196082906e+23
8.193304671e+23
8.190395989e+23
8.18735279e+23
8.184170774e+23
8.18084541e+23
8.177371931e+23
8.173745339e+23
8.1699604e+23
8.166011644e+23
8.161893363e+23
8.157599601e+23
8.153124162e+23
8.148460593e+23
8.143602193e+23
8.138541997e+23
8.133272775e+23
8.127787024e+23
8.122076967e+23
8.116134544e+23
8.109951409e+23
8.103518923e+23
8.096828151e+23
8.089869856e+23
8.082634493e+23
8.075112211e+23
8.067292846e+23
8.059165918e+23
8.050720627e+23
8.041945862e+23
8.032830183e+23
8.023361829e+23
8.013528716e+23
8.003318428e+23
7.992718212e+23
7.981714962e+23
7.970295202e+23
7.958445055e+23
7.946150178e+23
7.933395706e+23
7.920166128e+23
7.906445122e+23
7.892215267e+23
7.877456757e+23
7.86213107e+23
7.845923563e+23
7.824033121e+23
7.718071514e+23
6.882432538e+23
4.129255421e+23
1.028250986e+23
1.027623721e+23
1.027617893e+23
1.027616608e+23
1.027615348e+23
1.027614109e+23
1.027612891e+23
1.027611692e+23
1.027610514e+23
1.027609356e+23
1.027608218e+23
1.0276071e+23
1.027606002e+23
1.027604923e+23
1.027603864e+23
1.027602824e+23
1.027601803e+23
1.027600802e+23
1.027599819e+23
1.027598855e+23
1.02759791e+23
1.027596983e+23
1.027596075e+23
1.027595184e+23
1.027594313e+23
1.027593459e+23
1.027592622e+23
1.027591804e+23
1.027591003e+23
1.02759022e+23
1.027589454e+23
1.027588705e+23
1.027587973e+23
1.027587258e+23
1.027586559e+23
1.027585878e+23
1.027585212e+23
1.027584563e+23
1.02758393e+23
1.027583313e+23
1.027582712e+23
1.027582127e+23
1.027581557e+23
1.027581003e+23
1.027580463e+23
1.02757994e+23
1.027579431e+23
1.027578936e+23
1.027578457e+23
1.027577992e+23
1.027577542e+23
1.027577105e+23
1.027576683e+23
1.027576275e+23
1.027575881e+23
1.0275755e+23
1.027575133e+23
1.027574779e+23
1.027574439e+23
1.027574111e+23
1.027573797e+23
1.027573495e+23
1.027573206e+23
1.027572929e+23
1.027572665e+23
1.027572413e+23
1.027572173e+23
1.027571945e+23
1.027571729e+23
1.027571524e+23
1.027571331e+23
1.027571149e+23
1.027570979e+23
1.027570819e+23
1.02757067e+23
1.027570532e+23
1.027570405e+23
1.027570288e+23
1.027570182e+23
1.027570086e+23
1.027569999e+23
1.027569923e+23
1.027569856e+23
1.027569799e+23
1.027569752e+23
1.027569713e+23
1.027569684e+23
1.027569664e+23
8.247720068e+23
8.239665965e+23
8.237569372e+23
8.235753779e+23
8.234101551e+23
8.232608309e+23
8.231273622e+23
8.230096037e+23
8.22907289e+23
8.228200347e+23
8.227473463e+23
8.226886258e+23
8.226431794e+23
8.226102271e+23
8.225889121e+23
8.225783116e+23
8.225774474e+23
8.225852971e+23
8.226008053e+23
8.226228944e+23
8.226504758e+23
8.226824602e+23
8.227177675e+23
8.227553362e+23
8.22794132e+23
8.228331551e+23
8.228714472e+23
8.229080972e+23
8.229422459e+23
8.229730894e+23
8.229998822e+23
8.230219381e+23
8.230386312e+23
8.230493953e+23