/*--------------------------------*- C++ -*----------------------------------*\
| =========                 |                                                 |
| \\      /  F ield         | OpenFOAM: The Open Source CFD Toolbox           |
|  \\    /   O peration     | Version:  v1706                                 |
|   \\  /    A nd           | Web:      www.OpenFOAM.com                      |
|    \\/     M anipulation  |                                                 |
\*---------------------------------------------------------------------------*/
FoamFile
{
    version     2.0;
    format      ascii;
    class       volScalarField;
    location    "0.003";
    object      p;
}
// * * * * * * * * * * * * * * * * * * * * * * * * * * * * * * * * * * * * * //

dimensions      [1 -1 -2 0 0 0 0];


internalField   nonuniform List<scalar> 
80000
(
498443.5593
497980.3551
497964.4924
497955.7254
497945.4752
497933.273
497919.0464
497902.7549
497884.3671
497863.8557
497841.195
497816.3587
497789.3194
497760.0475
497728.5112
497694.6757
497658.5034
497619.9535
497578.9818
497535.5409
497489.5798
497441.0439
497389.8751
497336.0114
497279.3872
497219.933
497157.5754
497092.2369
497023.836
496952.2869
496877.4998
496799.3801
496717.8293
496632.7439
496544.0159
496451.5325
496355.176
496254.8238
496150.3479
496041.615
495928.4863
495810.8176
495688.4587
495561.2534
495429.0391
495291.6473
495148.9026
495000.6229
494846.619
494686.6942
494520.6448
494348.2587
494169.3165
493983.5901
493790.8424
493590.8281
493383.2923
493167.9709
492944.5901
492712.8661
492472.5044
492223.2005
491964.6382
491696.4909
491418.4194
491130.0736
490831.0904
490521.0946
490199.6978
489866.4986
489521.0822
489163.0195
488791.8677
488407.1696
488008.4535
487595.2324
487167.005
486723.2546
486263.4494
485787.0431
485293.4739
484782.1657
484252.529
483703.9604
483135.8449
482547.5568
481938.4628
481307.9226
480655.2941
479979.937
479281.2197
478558.5261
477811.2678
477038.8956
476240.9187
475416.9308
474566.6423
473689.9294
472786.9008
471857.9944
470904.1246
469926.9024
468928.9821
467914.6138
466890.5371
465867.3792
464860.8008
463875.1213
462576.7456
454753.3276
390486.1721
192641.6453
1360.495258
1300.131964
1300.111677
1300.108767
1300.105911
1300.1031
1300.100334
1300.097611
1300.094932
1300.092297
1300.089706
1300.087157
1300.084651
1300.082188
1300.079768
1300.077389
1300.075052
1300.072757
1300.070504
1300.068291
1300.066119
1300.063988
1300.061897
1300.059847
1300.057836
1300.055864
1300.053932
1300.052039
1300.050185
1300.04837
1300.046592
1300.044853
1300.043151
1300.041487
1300.039859
1300.038269
1300.036716
1300.035199
1300.033718
1300.032273
1300.030864
1300.02949
1300.028151
1300.026847
1300.025578
1300.024343
1300.023142
1300.021975
1300.020841
1300.019741
1300.018674
1300.01764
1300.016639
1300.01567
1300.014733
1300.013828
1300.012954
1300.012112
1300.011301
1300.010521
1300.009772
1300.009052
1300.008363
1300.007704
1300.007074
1300.006474
1300.005902
1300.00536
1300.004845
1300.004359
1300.003901
1300.003471
1300.003067
1300.002691
1300.002341
1300.002017
1300.001719
1300.001447
1300.0012
1300.000977
1300.000778
1300.000604
1300.000452
1300.000323
1300.000217
1300.000132
1300.000068
1300.000024
498982.6043
498518.6786
498502.6347
498493.7572
498483.5437
498471.5721
498457.7914
498442.1687
498424.6726
498405.2725
498383.9374
498360.6354
498335.3335
498307.9969
498278.5888
498247.0701
498213.3993
498177.5323
498139.4221
498099.0191
498056.2704
498011.12
497963.509
497913.3748
497860.6515
497805.27
497747.1571
497686.2361
497622.4267
497555.6443
497485.8003
497412.8021
497336.5527
497256.9507
497173.89
497087.2599
496996.9448
496902.8241
496804.772
496702.6576
496596.3439
496485.6887
496370.5438
496250.7549
496126.1614
495996.5963
495861.8857
495721.8491
495576.2984
495425.0385
495267.8663
495104.5709
494934.9335
494758.7265
494575.7135
494385.6492
494188.2789
493983.3385
493770.5537
493549.6401
493320.3027
493082.2355
492835.1215
492578.6321
492312.4267
492036.1525
491749.4442
491451.9235
491143.1987
490822.8649
490490.5029
490145.6794
489787.9464
489416.8412
489031.886
488632.5877
488218.4377
487788.9121
487343.4711
486881.5592
486402.6058
485906.0251
485391.2167
484857.5658
484304.4455
483731.2166
483137.2309
482521.8321
481884.3601
481224.1545
480540.5603
479832.9342
479100.6547
478343.1336
477559.8312
476750.2787
475914.105
475051.076
474161.1467
473244.5324
472301.8081
471334.0477
470343.0164
469331.4392
468303.364
467264.5835
466222.0427
465164.5644
463732.9057
455696.0177
391253.9953
193373.8646
1360.614916
1300.120499
1300.100426
1300.097765
1300.095155
1300.092587
1300.090061
1300.087577
1300.085133
1300.082731
1300.08037
1300.078049
1300.075769
1300.073528
1300.071328
1300.069167
1300.067045
1300.064963
1300.06292
1300.060915
1300.058949
1300.05702
1300.05513
1300.053277
1300.051462
1300.049684
1300.047942
1300.046238
1300.044569
1300.042937
1300.041341
1300.03978
1300.038254
1300.036764
1300.035308
1300.033886
1300.032499
1300.031146
1300.029826
1300.02854
1300.027287
1300.026067
1300.024879
1300.023723
1300.0226
1300.021508
1300.020447
1300.019418
1300.018419
1300.017451
1300.016513
1300.015604
1300.014726
1300.013876
1300.013056
1300.012264
1300.011501
1300.010766
1300.010058
1300.009378
1300.008725
1300.008098
1300.007498
1300.006924
1300.006376
1300.005853
1300.005355
1300.004881
1300.004432
1300.004007
1300.003606
1300.003228
1300.002873
1300.00254
1300.002229
1300.00194
1300.001673
1300.001427
1300.001201
1300.000996
1300.00081
1300.000644
1300.000497
1300.000369
1300.00026
1300.000169
1300.000095
1300.000039
499193.8189
498729.343
498713.3069
498704.4844
498694.377
498682.574
498669.0332
498653.727
498636.6276
498617.7056
498596.9303
498574.2695
498549.6892
498523.1535
498494.6243
498464.0614
498431.4221
498396.6613
498359.7312
498320.5812
498279.1578
498235.4047
498189.2625
498140.6684
498089.5566
498035.8578
497979.4991
497920.4043
497858.493
497793.6814
497725.8815
497655.0012
497580.9442
497503.6097
497422.8925
497338.6828
497250.8657
497159.3215
497063.9251
496964.5465
496861.0496
496753.2929
496641.1292
496524.4046
496402.9595
496276.6274
496145.2353
496008.6029
495866.5429
495718.8604
495565.353
495405.8102
495240.0131
495067.7345
494888.7382
494702.779
494509.6022
494308.9433
494100.5281
493884.0718
493659.279
493425.8432
493183.4467
492931.7602
492670.4422
492399.1388
492117.4834
491825.0964
491521.5846
491206.5413
490879.5452
490540.1608
490187.9379
489822.4109
489443.0992
489049.5063
488641.1204
488217.4134
487777.8413
487321.8438
486848.8452
486358.2541
485849.4635
485321.8519
484774.7841
484207.612
483619.6764
483010.3092
482378.8359
481724.579
481046.863
480345.0193
479618.3943
478866.3596
478088.3238
477283.7493
476452.1738
475593.2377
474706.7215
473792.5926
472851.0674
471882.6925
470888.4479
469869.8772
468829.2437
467769.6454
466693.9951
465585.3126
464078.4692
455977.2812
391731.2176
194210.3924
1360.762602
1300.121581
1300.10148
1300.09883
1300.096232
1300.093675
1300.09116
1300.088685
1300.086252
1300.08386
1300.081507
1300.079195
1300.076924
1300.074691
1300.072499
1300.070345
1300.068231
1300.066155
1300.064118
1300.062119
1300.060158
1300.058235
1300.056349
1300.054501
1300.052689
1300.050914
1300.049176
1300.047474
1300.045807
1300.044176
1300.04258
1300.04102
1300.039494
1300.038002
1300.036545
1300.035121
1300.033731
1300.032375
1300.031051
1300.02976
1300.028501
1300.027275
1300.02608
1300.024917
1300.023785
1300.022684
1300.021613
1300.020573
1300.019562
1300.018582
1300.01763
1300.016708
1300.015814
1300.014948
1300.014111
1300.013301
1300.012519
1300.011763
1300.011035
1300.010332
1300.009656
1300.009006
1300.008381
1300.007781
1300.007206
1300.006655
1300.006129
1300.005626
1300.005146
1300.00469
1300.004257
1300.003846
1300.003457
1300.00309
1300.002745
1300.002421
1300.002117
1300.001835
1300.001572
1300.00133
1300.001107
1300.000904
1300.00072
1300.000554
1300.000407
1300.000279
1300.000168
1300.000075
499316.7869
498851.7821
498835.7991
498827.0658
498817.0783
498805.4303
498792.0837
498777.0145
498760.197
498741.6036
498721.2047
498698.9685
498674.8611
498648.8466
498620.8866
498590.9407
498558.9656
498524.916
498488.7437
498450.3977
498409.8244
498366.9672
498321.7664
498274.1595
498224.0805
498171.46
498116.2256
498058.3008
497997.6059
497934.0571
497867.5668
497798.0432
497725.3905
497649.5084
497570.2921
497487.6322
497401.4143
497311.5192
497217.8225
497120.1944
497018.4995
496912.5969
496802.3395
496687.5742
496568.1416
496443.8759
496314.604
496180.1464
496040.316
495894.9181
495743.7506
495586.603
495423.2569
495253.4848
495077.0508
494893.7096
494703.2064
494505.2768
494299.646
494086.0293
493864.1307
493633.6435
493394.2495
493145.6186
492887.4086
492619.2648
492340.8198
492051.6927
491751.4894
491439.8014
491116.2061
490780.2662
490431.5295
490069.5286
489693.7804
489303.7857
488899.0297
488478.9809
488043.092
487590.7986
487121.5202
486634.6601
486129.6054
485605.728
485062.3847
484498.9183
483914.659
483308.9256
482681.0285
482030.2719
481355.9574
480657.3886
479933.877
479184.7494
478409.3578
477607.0903
476777.387
475919.7588
475033.811
474119.273
473176.0343
472204.1886
471204.086
470176.3908
469122.1413
468042.7369
466938.7632
465790.2494
464230.9167
456113.2261
392167.4266
195093.335
1360.918792
1300.127455
1300.107234
1300.104507
1300.101831
1300.099198
1300.096606
1300.094056
1300.091547
1300.08908
1300.086653
1300.084267
1300.081921
1300.079615
1300.07735
1300.075124
1300.072937
1300.070789
1300.06868
1300.06661
1300.064578
1300.062584
1300.060628
1300.058709
1300.056827
1300.054982
1300.053174
1300.051403
1300.049667
1300.047967
1300.046303
1300.044674
1300.043079
1300.04152
1300.039994
1300.038503
1300.037045
1300.035621
1300.03423
1300.032871
1300.031545
1300.030251
1300.02899
1300.027759
1300.02656
1300.025392
1300.024254
1300.023147
1300.02207
1300.021023
1300.020004
1300.019015
1300.018055
1300.017123
1300.016219
1300.015343
1300.014494
1300.013673
1300.012878
1300.01211
1300.011368
1300.010652
1300.009962
1300.009297
1300.008656
1300.008041
1300.00745
1300.006882
1300.006339
1300.005819
1300.005322
1300.004848
1300.004396
1300.003967
1300.00356
1300.003174
1300.00281
1300.002466
1300.002144
1300.001842
1300.00156
1300.001298
1300.001056
1300.000833
1300.000629
1300.000444
1300.000278
1300.00013
499395.2907
498929.7417
498913.8302
498905.1998
498895.3377
498883.8393
498870.6689
498855.8044
498839.2218
498820.8947
498800.7944
498778.8898
498755.1476
498729.5319
498702.0047
498672.5253
498641.0507
498607.5354
498571.9309
498534.1865
498494.2483
498452.0597
498407.5611
498360.6898
498311.3799
498259.5622
498205.1643
498148.11
498088.3197
498025.7097
497960.1927
497891.6772
497820.0677
497745.2643
497667.1623
497585.6528
497500.6217
497411.9502
497319.5142
497223.1842
497122.8253
497018.2968
496909.4519
496796.1381
496678.1961
496555.4602
496427.758
496294.9098
496156.729
496013.0211
495863.5839
495708.2073
495546.6727
495378.7528
495204.2116
495022.8039
494834.2747
494638.3594
494434.7833
494223.261
494003.4965
493775.1825
493538.0004
493291.6196
493035.6972
492769.8778
492493.793
492207.0611
491909.2867
491600.0601
491278.9576
490945.5401
490599.3538
490239.9291
489866.7808
489479.4075
489077.2914
488659.898
488226.6764
487777.0581
487310.4585
486826.2753
486323.8898
485802.6668
485261.9551
484701.088
484119.3844
483516.1501
482890.6792
482242.2563
481570.1594
480873.663
480152.0424
479404.579
478630.5675
477829.3227
477000.1909
476142.5612
475255.8801
474339.6686
473393.542
472417.231
471410.6045
470373.6909
469306.6901
468209.9023
467082.4977
465902.8668
464305.6276
456196.7804
392590.3575
195982.1632
1361.075785
1300.13681
1300.116404
1300.113534
1300.110717
1300.107944
1300.105213
1300.102524
1300.099878
1300.097274
1300.094712
1300.092191
1300.089712
1300.087273
1300.084876
1300.082519
1300.080202
1300.077925
1300.075688
1300.07349
1300.071332
1300.069212
1300.067131
1300.065088
1300.063084
1300.061117
1300.059187
1300.057295
1300.055439
1300.05362
1300.051838
1300.050091
1300.04838
1300.046704
1300.045064
1300.043458
1300.041887
1300.04035
1300.038846
1300.037376
1300.03594
1300.034536
1300.033165
1300.031827
1300.03052
1300.029245
1300.028001
1300.026789
1300.025607
1300.024455
1300.023334
1300.022242
1300.02118
1300.020147
1300.019143
1300.018168
1300.017221
1300.016301
1300.01541
1300.014545
1300.013708
1300.012897
1300.012113
1300.011355
1300.010623
1300.009916
1300.009234
1300.008577
1300.007944
1300.007336
1300.006752
1300.006192
1300.005654
1300.00514
1300.004649
1300.00418
1300.003734
1300.003309
1300.002906
1300.002524
1300.002164
1300.001823
1300.001504
1300.001205
1300.000925
1300.000665
1300.000424
1300.000203
499444.8844
498978.7791
498962.9503
498954.4312
498944.698
498933.3473
498920.3445
498905.6686
498889.2967
498871.2035
498851.3608
498829.7383
498806.3031
498781.0197
498753.8502
498724.7544
498693.6892
498660.6091
498625.466
498588.2089
498548.7842
498507.1352
498463.2024
498416.9232
498368.2318
498317.0592
498263.3328
498206.9769
498147.9117
498086.0541
498021.3167
497953.6084
497882.8338
497808.8932
497731.6823
497651.0924
497567.0098
497479.3157
497387.8864
497292.5928
497193.3001
497089.8679
496982.1498
496869.9933
496753.2394
496631.7228
496505.2711
496373.705
496236.8378
496094.4752
495946.4152
495792.4476
495632.354
495465.9071
495292.8707
495112.9996
494926.0388
494731.7236
494529.7788
494319.9189
494101.8477
493875.2574
493639.829
493395.2311
493141.1204
492877.1409
492602.9233
492318.0849
492022.2292
491714.9455
491395.8087
491064.3784
490720.199
490362.799
489991.6911
489606.3717
489206.3203
488790.9993
488359.8542
487912.3129
487447.7858
486965.666
486465.3285
485946.1311
485407.4142
484848.5019
484268.7014
483667.3053
483043.5916
482396.8253
481726.261
481031.1447
480310.7163
479564.214
478790.8781
477989.9565
477160.7104
476302.4221
475414.4021
474495.9988
473546.6075
472565.6784
471552.7232
470507.3167
469429.0861
468317.6158
467171.2026
465967.3519
464342.6129
456257.6379
393002.2471
196855.5554
1361.230388
1300.149161
1300.128517
1300.125449
1300.122436
1300.119467
1300.116543
1300.113663
1300.110826
1300.108033
1300.105283
1300.102577
1300.099913
1300.097291
1300.094712
1300.092175
1300.089679
1300.087225
1300.084812
1300.082439
1300.080108
1300.077816
1300.075565
1300.073353
1300.071181
1300.069047
1300.066953
1300.064897
1300.062879
1300.060899
1300.058957
1300.057052
1300.055184
1300.053353
1300.051558
1300.0498
1300.048077
1300.046389
1300.044737
1300.043119
1300.041536
1300.039988
1300.038473
1300.036991
1300.035543
1300.034128
1300.032746
1300.031396
1300.030078
1300.028791
1300.027536
1300.026312
1300.025119
1300.023957
1300.022824
1300.021721
1300.020648
1300.019604
1300.018588
1300.017601
1300.016643
1300.015712
1300.014809
1300.013933
1300.013084
1300.012262
1300.011466
1300.010696
1300.009952
1300.009234
1300.00854
1300.007871
1300.007227
1300.006607
1300.006011
1300.005438
1300.004889
1300.004362
1300.003859
1300.003377
1300.002918
1300.00248
1300.002064
1300.001669
1300.001295
1300.000941
1300.000608
1300.000294
499472.9511
499006.2902
498990.5535
498982.1526
498972.5524
498961.3497
498948.5106
498934.0149
498917.8406
498899.9628
498880.3541
498858.9846
498835.8217
498810.8304
498783.9732
498755.2099
498724.4977
498691.7915
498657.043
498620.2015
498581.2134
498540.0223
498496.5687
498450.7901
498402.6209
498351.9921
498298.8313
498243.0629
498184.6075
498123.3818
498059.2989
497992.2678
497922.1932
497848.9757
497772.5113
497692.6912
497609.4022
497522.5257
497431.9382
497337.5108
497239.1089
497136.5924
497029.8151
496918.6247
496802.8624
496682.3629
496556.9541
496426.4569
496290.6847
496149.4432
496002.5306
495849.7366
495690.8429
495525.6222
495353.8384
495175.2459
494989.5898
494796.605
494596.0164
494387.5382
494170.8737
493945.7149
493711.7422
493468.6239
493216.016
492953.5617
492680.8912
492397.6208
492103.353
491797.6761
491480.1634
491150.3734
490807.8488
490452.1166
490082.6872
489699.0548
489300.6963
488887.0713
488457.6216
488011.7717
487548.9274
487068.4764
486569.7882
486052.2137
485515.0852
484957.7172
484379.4065
483779.4319
483157.0561
482511.5261
481842.0737
481147.9181
480428.2669
479682.3184
478909.2644
478108.2935
477278.5935
476419.3558
475529.7791
474609.0729
473656.4596
472671.1766
471652.4725
470599.6003
469511.7951
468388.1722
467226.487
466003.7956
464359.102
456306.9818
393401.1589
197702.9683
1361.381341
1300.164282
1300.143349
1300.140033
1300.136773
1300.133561
1300.130394
1300.127273
1300.124199
1300.121169
1300.118185
1300.115246
1300.112351
1300.109501
1300.106696
1300.103933
1300.101215
1300.09854
1300.095907
1300.093318
1300.090771
1300.088266
1300.085803
1300.083382
1300.081001
1300.078662
1300.076364
1300.074106
1300.071887
1300.069709
1300.06757
1300.06547
1300.063409
1300.061387
1300.059402
1300.057456
1300.055547
1300.053676
1300.051841
1300.050043
1300.048281
1300.046555
1300.044865
1300.04321
1300.04159
1300.040005
1300.038454
1300.036937
1300.035454
1300.034004
1300.032587
1300.031203
1300.029851
1300.028532
1300.027244
1300.025987
1300.024762
1300.023567
1300.022403
1300.021268
1300.020164
1300.019089
1300.018043
1300.017026
1300.016037
1300.015077
1300.014144
1300.013239
1300.01236
1300.011509
1300.010684
1300.009886
1300.009113
1300.008366
1300.007644
1300.006946
1300.006274
1300.005625
1300.005001
1300.0044
1300.003822
1300.003268
1300.002735
1300.002226
1300.001738
1300.001272
1300.000827
1300.000403
499483.5867
499016.3852
499000.7498
498992.4741
498983.0117
498971.9592
498959.2832
498944.9642
498928.9804
498911.3075
498891.9187
498870.7842
498847.8722
498823.1477
498796.5735
498768.1097
498737.7138
498705.3408
498670.9427
498634.4689
498595.8661
498555.0777
498512.0447
498466.7046
498418.9918
498368.8377
498316.1701
498260.9132
498202.988
498142.3114
498078.7967
498012.3529
497942.885
497870.2937
497794.4752
497715.3212
497632.7183
497546.5483
497456.6879
497363.0084
497265.3754
497163.6489
497057.683
496947.3255
496832.4178
496712.7948
496588.2845
496458.7078
496323.8783
496183.602
496037.6768
495885.8928
495728.0313
495563.8653
495393.1584
495215.6652
495031.1305
494839.2891
494639.8658
494432.5744
494217.1179
493993.1881
493760.4649
493518.6162
493267.2973
493006.151
492734.8064
492452.8793
492159.9712
491855.6694
491539.5459
491211.1579
490870.0467
490515.7376
490147.7391
489765.543
489368.624
488956.4389
488528.4263
488084.0069
487622.5822
487143.5353
486646.2298
486130.0101
485594.2011
485038.1082
484461.0179
483862.197
483240.8935
482596.3372
481927.7396
481234.2957
480515.1835
479769.5667
478996.5946
478195.4044
477365.1221
476504.8638
475613.7374
474690.8416
473735.2651
472746.0836
471722.3523
470663.0938
469567.2735
468433.6965
467259.7811
466022.389
464363.2178
456349.1352
393784.9835
198519.4423
1361.528246
1300.182056
1300.160788
1300.157176
1300.153624
1300.15012
1300.146666
1300.143259
1300.139901
1300.13659
1300.133328
1300.130113
1300.126944
1300.123823
1300.120748
1300.117719
1300.114737
1300.1118
1300.108908
1300.106062
1300.10326
1300.100503
1300.09779
1300.095121
1300.092495
1300.089913
1300.087374
1300.084877
1300.082422
1300.08001
1300.077639
1300.07531
1300.073022
1300.070774
1300.068567
1300.0664
1300.064273
1300.062185
1300.060136
1300.058126
1300.056155
1300.054221
1300.052325
1300.050467
1300.048646
1300.046862
1300.045114
1300.043402
1300.041725
1300.040084
1300.038478
1300.036907
1300.03537
1300.033867
1300.032398
1300.030962
1300.029559
1300.028189
1300.026851
1300.025544
1300.02427
1300.023026
1300.021814
1300.020632
1300.01948
1300.018358
1300.017266
1300.016203
1300.015168
1300.014162
1300.013185
1300.012235
1300.011312
1300.010417
1300.009548
1300.008706
1300.007889
1300.007099
1300.006333
1300.005593
1300.004877
1300.004186
1300.003519
1300.002875
1300.002255
1300.001658
1300.001083
1300.00053
499479.2985
499011.5846
498996.06
498987.9173
498978.5984
498967.6999
498955.1888
498941.0458
498925.2496
498907.7763
498888.5992
498867.6892
498845.0144
498820.5404
498794.2302
498766.0441
498735.94
498703.8727
498669.7948
498633.6558
498595.4025
498554.9785
498512.325
498467.3796
498420.0769
498370.3485
498318.1223
498263.3228
498205.871
498145.684
498082.6753
498016.7542
497947.8257
497875.7908
497800.5458
497721.9826
497639.9881
497554.4443
497465.228
497372.2105
497275.2579
497174.2303
497068.9819
496959.3607
496845.2083
496726.3597
496602.6431
496473.8794
496339.8824
496200.458
496055.4044
495904.5116
495747.561
495584.3254
495414.5686
495238.045
495054.4994
494863.6664
494665.2706
494459.0256
494244.6341
494021.7876
493790.1657
493549.4357
493299.2527
493039.2586
492769.082
492488.3379
492196.6269
491893.5354
491578.6344
491251.4797
490911.6114
490558.553
490191.8114
489810.8764
489415.2202
489004.2971
488577.5428
488134.3744
487674.1897
487196.3668
486700.2643
486185.2205
485650.5534
485095.5602
484519.5176
483921.6815
483301.2867
482657.5475
481989.657
481296.7886
480578.095
479832.7087
479059.743
478258.2916
477427.4289
476566.2091
475673.6661
474748.811
473790.628
472798.07
471770.0485
470705.4202
469602.962
468461.2719
467277.5572
466028.6328
464358.9675
456385.6712
394152.1714
199302.8181
1361.67108
1300.202422
1300.180774
1300.176822
1300.172931
1300.169092
1300.165305
1300.161569
1300.157885
1300.15425
1300.150667
1300.147133
1300.14365
1300.140216
1300.136832
1300.133496
1300.13021
1300.126972
1300.123782
1300.12064
1300.117546
1300.114498
1300.111498
1300.108544
1300.105637
1300.102776
1300.099961
1300.09719
1300.094465
1300.091784
1300.089148
1300.086555
1300.084007
1300.081502
1300.079039
1300.07662
1300.074243
1300.071907
1300.069614
1300.067361
1300.06515
1300.062979
1300.060848
1300.058757
1300.056705
1300.054693
1300.052719
1300.050784
1300.048887
1300.047028
1300.045206
1300.043421
1300.041672
1300.03996
1300.038284
1300.036643
1300.035037
1300.033466
1300.031929
1300.030427
1300.028958
1300.027523
1300.02612
1300.02475
1300.023412
1300.022106
1300.020831
1300.019588
1300.018375
1300.017192
1300.01604
1300.014917
1300.013823
1300.012758
1300.011722
1300.010714
1300.009733
1300.00878
1300.007854
1300.006955
1300.006082
1300.005235
1300.004413
1300.003617
1300.002845
1300.002098
1300.001375
1300.000676
499461.7308
498993.5437
498978.1404
498970.1389
498960.9704
498950.2311
498937.8884
498923.9233
498908.3147
498891.0389
498872.0697
498851.3782
498828.9327
498804.6991
498778.6407
498750.718
498720.889
498689.109
498655.3305
498619.5033
498581.5744
498541.4877
498499.1844
498454.6024
498407.6765
498358.3384
498306.5161
498252.1344
498195.1144
498135.3735
498072.8253
498007.3792
497938.9405
497867.4104
497792.6853
497714.6574
497633.2136
497548.2363
497459.6023
497367.1833
497270.8454
497170.4489
497065.8482
496956.8915
496843.4206
496725.2705
496602.2696
496474.239
496340.9925
496202.3361
496058.0681
495907.9785
495751.8488
495589.4518
495420.5512
495244.9015
495062.2472
494872.323
494674.8532
494469.5513
494256.1199
494034.2499
493803.6209
493563.8996
493314.7407
493055.7856
492786.6624
492506.9851
492216.354
491914.3543
491600.5561
491274.5142
490935.7673
490583.8375
490218.2302
489838.4333
489443.9167
489034.1324
488608.5135
488166.4736
487707.4071
487230.688
486735.67
486221.686
485688.0473
485134.0441
484558.9442
483961.9934
483342.4149
482699.4091
482032.153
481339.801
480621.4835
479876.3065
479103.3523
478301.6777
477470.3139
476608.2644
475714.5027
474787.9697
473827.5681
472832.1559
471800.5368
470731.4462
469623.5278
468475.2393
467283.6562
466025.6287
464348.3847
456417.0525
394501.7268
200052.2929
1361.809963
1300.225344
1300.203275
1300.198937
1300.194665
1300.190447
1300.186285
1300.182177
1300.178123
1300.174124
1300.170178
1300.166286
1300.162448
1300.158662
1300.154928
1300.151247
1300.147617
1300.14404
1300.140514
1300.137039
1300.133614
1300.13024
1300.126916
1300.123642
1300.120417
1300.117242
1300.114115
1300.111036
1300.108006
1300.105023
1300.102088
1300.0992
1300.096358
1300.093563
1300.090813
1300.08811
1300.085451
1300.082837
1300.080268
1300.077743
1300.075261
1300.072823
1300.070428
1300.068076
1300.065765
1300.063497
1300.06127
1300.059084
1300.056938
1300.054833
1300.052768
1300.050743
1300.048756
1300.046809
1300.044899
1300.043028
1300.041195
1300.039398
1300.037639
1300.035915
1300.034228
1300.032576
1300.03096
1300.029378
1300.027831
1300.026318
1300.024839
1300.023392
1300.021979
1300.020598
1300.019249
1300.017932
1300.016646
1300.015391
1300.014166
1300.012971
1300.011806
1300.010671
1300.009564
1300.008486
1300.007435
1300.006413
1300.005418
1300.00445
1300.003508
1300.002593
1300.001703
1300.000839
499432.0185
498963.4069
498948.1358
498940.2847
498931.2743
498920.7007
498908.5315
498894.7478
498879.329
498862.2515
498843.4894
498823.0139
498800.7937
498776.7949
498750.9809
498723.3125
498693.748
498662.2428
498628.7496
498593.2185
498555.5966
498515.828
498473.8542
498429.6131
498383.0399
498334.0663
498282.6206
498228.6278
498172.0091
498112.6821
498050.5605
497985.5541
497917.5683
497846.5045
497772.2593
497694.725
497613.7887
497529.3331
497441.2351
497349.3667
497253.5941
497153.7777
497049.7723
496941.4261
496828.5812
496711.0726
496588.7289
496461.3713
496328.8137
496190.8623
496047.3154
495897.9632
495742.5871
495580.96
495412.8457
495237.9984
495056.1628
494867.0734
494670.4544
494466.0194
494253.4705
494032.4985
493802.7827
493563.9896
493315.7732
493057.7748
492789.6217
492510.9277
492221.292
491920.2993
491607.5188
491282.5043
490944.7932
490593.9067
490229.3485
489850.6047
489457.1437
489048.415
488623.8492
488182.8573
487724.8302
487249.1382
486755.1308
486242.1357
485709.4588
485156.3832
484582.1694
483986.054
483367.2498
482724.9449
482058.3024
481366.4595
480648.5275
479903.5898
479130.7017
478328.889
477497.1463
476634.4351
475739.6795
474811.7638
473849.5259
472851.75
471817.1578
470744.3945
469632.0086
468478.3608
467280.4442
466015.1904
464332.5213
456443.3094
394833.0488
200767.6796
1361.945054
1300.250805
1300.228271
1300.223504
1300.218807
1300.214168
1300.209588
1300.205066
1300.200602
1300.196196
1300.191848
1300.187557
1300.183323
1300.179145
1300.175023
1300.170958
1300.166947
1300.162992
1300.159092
1300.155247
1300.151457
1300.14772
1300.144036
1300.140406
1300.136829
1300.133304
1300.129832
1300.126411
1300.123042
1300.119723
1300.116456
1300.113239
1300.110072
1300.106955
1300.103886
1300.100866
1300.097895
1300.094972
1300.092097
1300.089269
1300.086488
1300.083753
1300.081064
1300.078421
1300.075823
1300.07327
1300.070761
1300.068297
1300.065876
1300.063498
1300.061164
1300.058871
1300.056621
1300.054412
1300.052244
1300.050117
1300.04803
1300.045983
1300.043976
1300.042008
1300.040078
1300.038186
1300.036332
1300.034516
1300.032737
1300.030994
1300.029287
1300.027616
1300.02598
1300.024378
1300.022811
1300.021278
1300.019779
1300.018313
1300.016879
1300.015477
1300.014108
1300.01277
1300.011462
1300.010185
1300.008939
1300.007722
1300.006534
1300.005375
1300.004245
1300.003142
1300.002068
1300.00102
499390.9773
498921.9977
498906.8705
498899.1794
498890.3357
498879.9353
498867.9458
498854.3489
498839.1238
498822.2474
498803.6938
498783.4346
498761.4386
498737.6721
498712.0989
498684.6799
498655.3734
498624.1353
498590.9184
498555.6729
498518.3462
498478.8827
498437.2238
498393.3079
498347.0702
498298.4427
498247.3539
498193.7288
498137.4891
498078.5524
498016.8327
497952.2398
497884.6795
497814.0533
497740.258
497663.1861
497582.7251
497498.7576
497411.1609
497319.8071
497224.5627
497125.2882
497021.8386
496914.0623
496801.8015
496684.8916
496563.1611
496436.4314
496304.5166
496167.223
496024.349
495875.6849
495721.0123
495560.104
495392.7237
495218.626
495037.5553
494849.2461
494653.4228
494449.7985
494238.0755
494017.9443
493789.0839
493551.1606
493303.8281
493046.7273
492779.4851
492501.7149
492213.0154
491912.9703
491601.1483
491277.1024
490940.369
490590.468
490226.902
489849.1556
489456.6955
489048.9693
488625.4054
488185.4121
487728.3775
487253.6685
486760.6309
486248.5877
485716.8398
485164.6644
484591.3151
483996.0202
483377.9836
482736.3825
482070.3675
481379.0611
480661.5572
479916.92
479144.1815
478342.3412
477510.3628
476647.172
475751.6525
474822.6424
473858.9271
472859.2334
471822.2194
470746.4626
469630.4422
468472.4512
467269.4302
465998.4165
464311.9333
456464.3295
395145.8022
201449.0549
1362.076514
1300.27879
1300.255751
1300.250512
1300.245347
1300.240245
1300.235206
1300.230229
1300.225314
1300.220461
1300.215669
1300.210939
1300.20627
1300.201662
1300.197113
1300.192625
1300.188196
1300.183826
1300.179515
1300.175263
1300.171069
1300.166933
1300.162854
1300.158832
1300.154868
1300.150959
1300.147106
1300.143309
1300.139567
1300.13588
1300.132248
1300.128669
1300.125144
1300.121672
1300.118254
1300.114887
1300.111572
1300.108309
1300.105098
1300.101936
1300.098825
1300.095765
1300.092753
1300.089791
1300.086877
1300.084012
1300.081194
1300.078423
1300.075699
1300.073022
1300.07039
1300.067805
1300.065264
1300.062768
1300.060316
1300.057908
1300.055543
1300.053221
1300.050941
1300.048704
1300.046507
1300.044352
1300.042237
1300.040163
1300.038128
1300.036132
1300.034175
1300.032256
1300.030375
1300.028532
1300.026726
1300.024955
1300.023221
1300.021523
1300.019859
1300.01823
1300.016636
1300.015075
1300.013547
1300.012052
1300.01059
1300.009159
1300.00776
1300.006392
1300.005054
1300.003746
1300.002468
1300.00122
499339.2131
498869.9281
498854.9569
498847.4362
498838.7685
498828.5496
498816.7474
498803.3436
498788.3177
498771.6468
498753.3052
498733.2646
498711.4942
498687.9604
498662.627
498635.4554
498606.4041
498575.429
498542.4831
498507.5171
498470.4782
498431.3113
498389.9578
498346.3564
498300.4426
498252.1483
498201.4025
498148.1304
498092.2536
498033.6902
497972.3544
497908.1561
497841.0013
497770.7916
497697.4243
497620.792
497540.7823
497457.2781
497370.157
497279.2912
497184.5474
497085.7864
496982.8633
496875.6268
496763.9191
496647.576
496526.4261
496400.291
496268.9848
496132.3142