/*--------------------------------*- C++ -*----------------------------------*\
| =========                 |                                                 |
| \\      /  F ield         | OpenFOAM: The Open Source CFD Toolbox           |
|  \\    /   O peration     | Version:  v1706                                 |
|   \\  /    A nd           | Web:      www.OpenFOAM.com                      |
|    \\/     M anipulation  |                                                 |
\*---------------------------------------------------------------------------*/
FoamFile
{
    version     2.0;
    format      ascii;
    class       volScalarField;
    location    "0.003";
    object      rho;
}
// * * * * * * * * * * * * * * * * * * * * * * * * * * * * * * * * * * * * * //

dimensions      [1 -3 0 0 0 0 0];


internalField   nonuniform List<scalar> 
80000
(
0.1458876969
0.145746138
0.1457089274
0.1456766177
0.1456471228
0.1456203497
0.1455962808
0.1455748851
0.1455561127
0.1455398948
0.1455261441
0.1455147555
0.1455056073
0.145498563
0.1454934724
0.1454901735
0.1454884949
0.1454882567
0.1454892733
0.1454913552
0.1454943103
0.1454979464
0.145502073
0.1455065022
0.1455110509
0.1455155421
0.1455198056
0.1455236797
0.1455270114
0.1455296576
0.1455314851
0.1455323713
0.1455322041
0.1455308818
0.145528313
0.1455244163
0.1455191197
0.1455123599
0.1455040822
0.1454942389
0.1454827892
0.1454696979
0.1454549348
0.1454384738
0.1454202918
0.1454003683
0.145378684
0.1453552206
0.1453299598
0.1453028826
0.145273969
0.145243197
0.1452105427
0.1451759794
0.1451394777
0.1451010047
0.1450605244
0.1450179971
0.1449733793
0.1449266238
0.1448776797
0.144826492
0.1447730018
0.1447171466
0.1446588598
0.144598071
0.1445347061
0.144468687
0.1443999321
0.1443283558
0.1442538687
0.144176378
0.1440957866
0.1440119941
0.1439248961
0.1438343844
0.1437403469
0.1436426679
0.1435412276
0.143435903
0.1433265666
0.1432130879
0.1430953327
0.1429731634
0.1428464396
0.1427150183
0.1425787544
0.1424375013
0.1422911118
0.1421394393
0.1419823395
0.1418196718
0.1416513026
0.1414771083
0.1412969797
0.1411108287
0.1409185963
0.1407202646
0.1405158734
0.1403055443
0.1400895163
0.1398682009
0.1396422666
0.139412775
0.1391814008
0.1389507769
0.1387247905
0.1385046915
0.1382110366
0.1363775567
0.1210828318
0.07143780415
0.01821213567
0.01820122705
0.01820112005
0.01820109224
0.01820106494
0.01820103807
0.01820101163
0.01820098561
0.01820096001
0.01820093483
0.01820091006
0.01820088571
0.01820086177
0.01820083824
0.01820081512
0.0182007924
0.01820077009
0.01820074817
0.01820072665
0.01820070553
0.01820068479
0.01820066445
0.0182006445
0.01820062492
0.01820060573
0.01820058692
0.01820056849
0.01820055043
0.01820053275
0.01820051543
0.01820049848
0.01820048189
0.01820046567
0.0182004498
0.01820043429
0.01820041914
0.01820040433
0.01820038988
0.01820037577
0.01820036201
0.01820034859
0.0182003355
0.01820032276
0.01820031034
0.01820029826
0.01820028651
0.01820027509
0.01820026399
0.01820025321
0.01820024275
0.01820023261
0.01820022278
0.01820021326
0.01820020406
0.01820019516
0.01820018657
0.01820017828
0.01820017029
0.01820016259
0.0182001552
0.01820014809
0.01820014128
0.01820013475
0.01820012851
0.01820012255
0.01820011687
0.01820011147
0.01820010634
0.01820010149
0.0182000969
0.01820009258
0.01820008853
0.01820008473
0.01820008119
0.01820007791
0.01820007487
0.01820007208
0.01820006954
0.01820006723
0.01820006516
0.01820006331
0.0182000617
0.0182000603
0.01820005912
0.01820005815
0.01820005739
0.01820005682
0.01820005644
0.1460092462
0.1458675071
0.1458302263
0.1457978671
0.1457683596
0.1457416206
0.1457176376
0.145696381
0.145677801
0.145661828
0.1456483735
0.1456373309
0.1456285774
0.145621975
0.1456173724
0.1456146065
0.1456135047
0.1456138865
0.1456155655
0.1456183514
0.1456220517
0.1456264738
0.1456314266
0.1456367222
0.1456421774
0.1456476149
0.1456528647
0.145657765
0.145662163
0.1456659159
0.1456688907
0.1456709652
0.1456720274
0.1456719763
0.1456707208
0.1456681799
0.145664282
0.1456589646
0.1456521732
0.1456438607
0.1456339867
0.1456225167
0.1456094208
0.1455946734
0.145578252
0.1455601362
0.1455403076
0.1455187479
0.1454954393
0.1454703632
0.1454434997
0.1454148274
0.1453843223
0.1453519582
0.1453177057
0.1452815322
0.1452434015
0.1452032742
0.1451611068
0.1451168521
0.1450704588
0.145021872
0.1449710327
0.1449178779
0.1448623407
0.1448043504
0.1447438323
0.1446807078
0.1446148946
0.1445463063
0.1444748528
0.1444004402
0.1443229706
0.1442423422
0.1441584494
0.1440711826
0.1439804284
0.1438860693
0.143787984
0.1436860472
0.1435801298
0.143470099
0.1433558181
0.1432371473
0.1431139432
0.1429860599
0.1428533488
0.1427156597
0.1425728412
0.142424742
0.1422712122
0.1421121046
0.1419472777
0.1417765982
0.141599945
0.1414172145
0.1412283272
0.1410332378
0.1408319478
0.1406245229
0.1404111181
0.1401920118
0.1399676536
0.1397387315
0.1395062628
0.1392717017
0.1390368066
0.1387990237
0.1384725734
0.1365867026
0.12125182
0.07161709328
0.01821200826
0.01820108669
0.01820098249
0.0182009576
0.01820093319
0.01820090917
0.01820088556
0.01820086233
0.0182008395
0.01820081706
0.018200795
0.01820077333
0.01820075204
0.01820073113
0.0182007106
0.01820069045
0.01820067067
0.01820065126
0.01820063222
0.01820061354
0.01820059523
0.01820057728
0.01820055969
0.01820054246
0.01820052558
0.01820050905
0.01820049287
0.01820047704
0.01820046155
0.01820044641
0.0182004316
0.01820041713
0.01820040299
0.01820038919
0.01820037571
0.01820036256
0.01820034973
0.01820033723
0.01820032504
0.01820031317
0.01820030161
0.01820029036
0.01820027942
0.01820026878
0.01820025845
0.01820024841
0.01820023867
0.01820022922
0.01820022007
0.0182002112
0.01820020262
0.01820019431
0.01820018629
0.01820017855
0.01820017107
0.01820016387
0.01820015693
0.01820015026
0.01820014385
0.0182001377
0.0182001318
0.01820012615
0.01820012075
0.0182001156
0.01820011068
0.01820010601
0.01820010157
0.01820009736
0.01820009338
0.01820008963
0.01820008609
0.01820008278
0.01820007968
0.01820007678
0.0182000741
0.01820007162
0.01820006934
0.01820006726
0.01820006536
0.01820006366
0.01820006214
0.01820006081
0.01820005965
0.01820005867
0.01820005786
0.01820005721
0.01820005673
0.01820005642
0.1460556246
0.1459137675
0.1458764816
0.1458441277
0.1458146376
0.1457879311
0.1457639978
0.1457428096
0.1457243174
0.1457084519
0.1456951247
0.1456842291
0.1456756419
0.145669225
0.1456648266
0.1456622835
0.1456614226
0.1456620631
0.1456640183
0.1456670977
0.1456711086
0.1456758583
0.1456811555
0.1456868122
0.145692645
0.1456984768
0.1457041375
0.1457094653
0.1457143076
0.1457185214
0.1457219741
0.1457245435
0.1457261179
0.1457265962
0.1457258876
0.1457239114
0.1457205962
0.1457158796
0.1457097073
0.1457020326
0.1456928151
0.1456820206
0.1456696195
0.1456555863
0.1456398987
0.1456225367
0.1456034817
0.1455827158
0.1455602214
0.14553598
0.1455099718
0.1454821755
0.1454525673
0.145421121
0.1453878072
0.1453525935
0.1453154438
0.1452763184
0.1452351741
0.1451919635
0.1451466353
0.1450991345
0.145049402
0.1449973746
0.1449429853
0.144886163
0.1448268329
0.1447649162
0.1447003299
0.1446329876
0.1445627986
0.1444896684
0.1444134986
0.1443341869
0.144251627
0.1441657084
0.1440763169
0.1439833342
0.1438866379
0.1437861015
0.1436815947
0.1435729832
0.143460129
0.1433428902
0.1432211216
0.1430946748
0.1429633987
0.1428271398
0.1426857431
0.1425390526
0.1423869131
0.1422291709
0.1420656758
0.1418962839
0.1417208603
0.1415392833
0.1413514494
0.1411572803
0.1409567317
0.1407498049
0.140536562
0.140317145
0.1400918015
0.1398609153
0.1396250441
0.1393849451
0.1391413264
0.1388901025
0.1385438653
0.1366399611
0.121351344
0.07182543009
0.01821199183
0.01820104637
0.01820094299
0.01820091907
0.01820089562
0.01820087256
0.01820084989
0.0182008276
0.01820080569
0.01820078416
0.018200763
0.01820074222
0.01820072181
0.01820070177
0.01820068209
0.01820066278
0.01820064384
0.01820062525
0.01820060702
0.01820058915
0.01820057163
0.01820055446
0.01820053763
0.01820052115
0.01820050502
0.01820048922
0.01820047376
0.01820045864
0.01820044385
0.01820042939
0.01820041525
0.01820040144
0.01820038796
0.01820037479
0.01820036193
0.01820034939
0.01820033717
0.01820032525
0.01820031363
0.01820030232
0.0182002913
0.01820028059
0.01820027016
0.01820026003
0.01820025019
0.01820024063
0.01820023135
0.01820022235
0.01820021363
0.01820020518
0.018200197
0.01820018909
0.01820018145
0.01820017406
0.01820016693
0.01820016006
0.01820015344
0.01820014707
0.01820014094
0.01820013506
0.01820012942
0.01820012401
0.01820011884
0.0182001139
0.01820010918
0.01820010469
0.01820010042
0.01820009637
0.01820009253
0.0182000889
0.01820008548
0.01820008227
0.01820007926
0.01820007645
0.01820007384
0.01820007142
0.01820006919
0.01820006714
0.01820006528
0.01820006361
0.01820006211
0.01820006079
0.01820005964
0.01820005867
0.01820005786
0.01820005722
0.01820005674
0.01820005642
0.1460810793
0.1459391093
0.1459018337
0.1458694977
0.1458400326
0.1458133596
0.1457894694
0.1457683346
0.145749907
0.1457341176
0.1457208781
0.1457100821
0.1457016064
0.1456953127
0.1456910492
0.1456886524
0.1456879493
0.1456887589
0.1456908943
0.1456941648
0.1456983778
0.1457033403
0.1457088611
0.145714752
0.1457208297
0.145726917
0.1457328437
0.1457384483
0.1457435781
0.1457480902
0.145751852
0.1457547414
0.1457566468
0.1457574674
0.1457571125
0.1457555014
0.1457525628
0.1457482347
0.1457424627
0.1457352003
0.1457264074
0.1457160499
0.1457040983
0.1456905272
0.1456753146
0.1456584404
0.1456398863
0.1456196347
0.1455976677
0.1455739671
0.1455485133
0.1455212848
0.1454922582
0.1454614071
0.1454287023
0.1453941113
0.1453575981
0.1453191231
0.1452786427
0.1452361098
0.145191473
0.1451446772
0.1450956631
0.1450443674
0.144990723
0.1449346587
0.1448760992
0.1448149656
0.1447511748
0.1446846397
0.1446152695
0.1445429691
0.1444676398
0.1443891785
0.1443074785
0.1442224286
0.1441339139
0.1440418151
0.1439460089
0.1438463678
0.1437427602
0.1436350505
0.1435230989
0.143406762
0.1432858923
0.143160339
0.1430299479
0.1428945622
0.1427540226
0.1426081682
0.1424568375
0.1422998691
0.1421371034
0.1419683843
0.1417935614
0.1416124928
0.1414250488
0.1412311162
0.1410306039
0.1408234498
0.1406096289
0.1403891637
0.1401621352
0.1399286953
0.1396890788
0.1394435951
0.1391923389
0.1389304372
0.138570136
0.1366603383
0.121443887
0.07204865708
0.01821200178
0.01820102848
0.01820092544
0.01820090204
0.0182008791
0.01820085654
0.01820083436
0.01820081255
0.01820079112
0.01820077006
0.01820074937
0.01820072905
0.01820070909
0.01820068949
0.01820067025
0.01820065137
0.01820063285
0.01820061468
0.01820059685
0.01820057938
0.01820056225
0.01820054546
0.01820052901
0.0182005129
0.01820049712
0.01820048168
0.01820046656
0.01820045178
0.01820043731
0.01820042317
0.01820040935
0.01820039584
0.01820038265
0.01820036976
0.01820035719
0.01820034492
0.01820033295
0.01820032128
0.01820030991
0.01820029883
0.01820028805
0.01820027755
0.01820026734
0.0182002574
0.01820024775
0.01820023838
0.01820022928
0.01820022045
0.01820021189
0.01820020359
0.01820019556
0.01820018778
0.01820018026
0.018200173
0.01820016598
0.01820015922
0.01820015269
0.01820014641
0.01820014037
0.01820013456
0.01820012899
0.01820012365
0.01820011853
0.01820011364
0.01820010897
0.01820010452
0.01820010029
0.01820009627
0.01820009246
0.01820008885
0.01820008545
0.01820008226
0.01820007926
0.01820007646
0.01820007385
0.01820007144
0.01820006921
0.01820006717
0.01820006531
0.01820006363
0.01820006213
0.01820006081
0.01820005966
0.01820005868
0.01820005787
0.01820005722
0.01820005674
0.01820005642
0.1460955872
0.1459535004
0.1459162411
0.1458839284
0.1458544919
0.1458278533
0.145804004
0.1457829174
0.1457645455
0.1457488196
0.1457356519
0.1457249359
0.1457165485
0.1457103514
0.1457061929
0.1457039095
0.1457033279
0.1457042672
0.1457065404
0.1457099567
0.1457143235
0.1457194477
0.145725138
0.1457312063
0.1457374693
0.1457437496
0.1457498773
0.1457556906
0.1457610372
0.145765774
0.1457697686
0.145772899
0.1457750538
0.145776132
0.1457760432
0.1457747068
0.1457720518
0.1457680159
0.1457625453
0.1457555934
0.1457471203
0.1457370919
0.1457254789
0.1457122562
0.1456974016
0.1456808954
0.1456627193
0.1456428557
0.1456212869
0.1455979948
0.1455729597
0.1455461605
0.1455175736
0.1454871726
0.1454549285
0.1454208087
0.1453847772
0.1453467945
0.145306817
0.1452647973
0.1452206843
0.1451744224
0.1451259525
0.1450752112
0.145022131
0.1449666407
0.1449086648
0.144848124
0.144784935
0.1447190104
0.144650259
0.1445785853
0.1445038902
0.14442607
0.1443450173
0.1442606205
0.1441727637
0.1440813269
0.1439861857
0.1438872116
0.1437842718
0.1436772291
0.1435659422
0.1434502655
0.1433300496
0.1432051407
0.1430753818
0.1429406122
0.1428006681
0.1426553833
0.1425045896
0.1423481175
0.1421857974
0.1420174606
0.1418429411
0.141662077
0.1414747129
0.1412807027
0.1410799124
0.1408722241
0.1406575397
0.1404357852
0.1402069146
0.1399709134
0.1397277982
0.1394775962
0.1392200444
0.1389498659
0.1385795387
0.1366707299
0.1215365031
0.07227572917
0.01821202191
0.01820101995
0.01820091703
0.01820089393
0.01820087128
0.01820084901
0.01820082711
0.01820080558
0.01820078442
0.01820076362
0.01820074319
0.01820072312
0.01820070341
0.01820068406
0.01820066506
0.01820064641
0.01820062811
0.01820061016
0.01820059255
0.01820057528
0.01820055836
0.01820054177
0.01820052551
0.01820050959
0.01820049399
0.01820047873
0.01820046378
0.01820044916
0.01820043486
0.01820042087
0.01820040719
0.01820039383
0.01820038077
0.01820036802
0.01820035557
0.01820034342
0.01820033157
0.01820032001
0.01820030874
0.01820029777
0.01820028707
0.01820027666
0.01820026654
0.01820025669
0.01820024711
0.01820023781
0.01820022877
0.01820022
0.0182002115
0.01820020325
0.01820019527
0.01820018754
0.01820018006
0.01820017283
0.01820016585
0.01820015911
0.01820015262
0.01820014636
0.01820014034
0.01820013455
0.018200129
0.01820012367
0.01820011856
0.01820011368
0.01820010902
0.01820010458
0.01820010035
0.01820009633
0.01820009252
0.01820008892
0.01820008552
0.01820008232
0.01820007932
0.01820007652
0.01820007391
0.01820007149
0.01820006926
0.01820006721
0.01820006535
0.01820006367
0.01820006217
0.01820006084
0.01820005969
0.0182000587
0.01820005789
0.01820005724
0.01820005675
0.01820005642
0.1461026903
0.1459604838
0.1459232441
0.1458909579
0.1458615521
0.1458349489
0.1458111401
0.1457900994
0.1457717791
0.1457561109
0.1457430069
0.1457323609
0.1457240499
0.1457179356
0.1457138662
0.1457116783
0.1457111986
0.1457122461
0.1457146339
0.1457181711
0.1457226648
0.1457279223
0.145733752
0.1457399659
0.1457463806
0.1457528188
0.1457591107
0.1457650946
0.1457706179
0.1457755379
0.1457797222
0.1457830489
0.1457854065
0.1457866944
0.1457868221
0.1457857093
0.1457832849
0.145779487
0.1457742617
0.1457675625
0.1457593498
0.1457495895
0.1457382525
0.1457253138
0.1457107512
0.1456945453
0.1456766777
0.145657131
0.1456358876
0.1456129294
0.1455882369
0.1455617889
0.1455335618
0.1455035295
0.1454716628
0.1454379293
0.1454022929
0.1453647139
0.145325149
0.1452835506
0.1452398675
0.1451940441
0.1451460212
0.1450957351
0.1450431184
0.1449880996
0.1449306029
0.1448705489
0.144807854
0.1447424303
0.1446741865
0.1446030266
0.1445288508
0.1444515552
0.1443710317
0.144287168
0.1441998475
0.1441089492
0.1440143479
0.1439159138
0.1438135129
0.1437070066
0.1435962518
0.143481101
0.1433614023
0.1432369994
0.143107732
0.1429734355
0.1428339419
0.1426890792
0.1425386728
0.1423825453
0.1422205173
0.1420524083
0.1418780372
0.1416972239
0.1415097901
0.1413155609
0.1411143661
0.140906042
0.1406904329
0.140467392
0.1402367818
0.1399984734
0.1397523415
0.1394982408
0.1392357047
0.1389592626
0.1385818988
0.1366782776
0.1216293673
0.07250051633
0.01821204631
0.01820101597
0.01820091305
0.01820089012
0.01820086764
0.01820084553
0.01820082379
0.01820080241
0.01820078141
0.01820076076
0.01820074047
0.01820072054
0.01820070097
0.01820068174
0.01820066287
0.01820064435
0.01820062617
0.01820060833
0.01820059084
0.01820057368
0.01820055686
0.01820054037
0.01820052421
0.01820050838
0.01820049287
0.01820047769
0.01820046283
0.01820044828
0.01820043405
0.01820042014
0.01820040653
0.01820039323
0.01820038023
0.01820036754
0.01820035514
0.01820034304
0.01820033124
0.01820031973
0.0182003085
0.01820029756
0.01820028691
0.01820027653
0.01820026643
0.01820025661
0.01820024706
0.01820023778
0.01820022876
0.01820022002
0.01820021153
0.0182002033
0.01820019533
0.01820018761
0.01820018014
0.01820017292
0.01820016595
0.01820015922
0.01820015272
0.01820014647
0.01820014045
0.01820013467
0.01820012911
0.01820012378
0.01820011868
0.01820011379
0.01820010913
0.01820010468
0.01820010045
0.01820009643
0.01820009262
0.01820008901
0.01820008561
0.0182000824
0.0182000794
0.01820007659
0.01820007398
0.01820007155
0.01820006932
0.01820006727
0.0182000654
0.01820006372
0.01820006221
0.01820006088
0.01820005972
0.01820005873
0.01820005791
0.01820005725
0.01820005676
0.01820005643
0.1461040696
0.1459617435
0.1459245263
0.1458922689
0.1458628957
0.1458363291
0.1458125611
0.1457915655
0.145773295
0.1457576814
0.1457446369
0.1457340554
0.145725814
0.1457197745
0.145715785
0.1457136821
0.1457132926
0.1457144354
0.1457169236
0.1457205663
0.1457251706
0.1457305437
0.1457364941
0.1457428338
0.1457493793
0.1457559536
0.1457623866
0.1457685168
0.1457741917
0.1457792688
0.1457836155
0.1457871101
0.1457896413
0.1457911086
0.1457914215
0.1457904998
0.1457882728
0.1457846783
0.1457796629
0.1457731801
0.1457651903
0.1457556596
0.1457445592
0.1457318639
0.1457175519
0.1457016036
0.1456840009
0.1456647265
0.1456437628
0.1456210918
0.1455966942
0.1455705486
0.1455426317
0.1455129173
0.1454813762
0.145447976
0.1454126807
0.1453754506
0.1453362423
0.1452950082
0.145251697
0.1452062532
0.1451586171
0.1451087253
0.14505651
0.1450018996
0.1449448181
0.1448851859
0.144822919
0.1447579293
0.144690125
0.1446194099
0.1445456836
0.1444688418
0.1443887757
0.1443053724
0.1442185144
0.14412808
0.144033943
0.1439359726
0.1438340333
0.1437279852
0.1436176834
0.1435029785
0.1433837164
0.143259738
0.14313088
0.1429969741
0.1428578478
0.1427133244
0.1425632227
0.1424073582
0.1422455424
0.1420775841
0.1419032892
0.1417224617
0.1415349038
0.1413404168
0.1411388017
0.1409298592
0.14071339
0.1404891948
0.1402570721
0.140016817
0.1397682143
0.1395110147
0.1392446374
0.1389635302
0.1385813055
0.1366854023
0.1217215023
0.07271981811
0.01821207223
0.01820101429
0.0182009113
0.01820088847
0.01820086608
0.01820084406
0.01820082241
0.01820080112
0.0182007802
0.01820075963
0.01820073942
0.01820071956
0.01820070006
0.0182006809
0.0182006621
0.01820064364
0.01820062552
0.01820060774
0.0182005903
0.01820057319
0.01820055642
0.01820053998
0.01820052387
0.01820050808
0.01820049262
0.01820047747
0.01820046264
0.01820044813
0.01820043394
0.01820042005
0.01820040647
0.01820039319
0.01820038022
0.01820036755
0.01820035517
0.01820034309
0.01820033131
0.01820031981
0.0182003086
0.01820029767
0.01820028703
0.01820027666
0.01820026657
0.01820025676
0.01820024721
0.01820023794
0.01820022893
0.01820022018
0.0182002117
0.01820020347
0.0182001955
0.01820018778
0.01820018031
0.01820017309
0.01820016612
0.01820015938
0.01820015289
0.01820014663
0.01820014061
0.01820013482
0.01820012926
0.01820012393
0.01820011882
0.01820011393
0.01820010927
0.01820010481
0.01820010058
0.01820009655
0.01820009273
0.01820008912
0.01820008571
0.0182000825
0.01820007949
0.01820007668
0.01820007406
0.01820007163
0.01820006939
0.01820006734
0.01820006546
0.01820006377
0.01820006226
0.01820006092
0.01820005975
0.01820005876
0.01820005793
0.01820005727
0.01820005677
0.01820005644
0.1461006581
0.1459582159
0.1459210237
0.1458887973
0.1458594586
0.1458329299
0.1458092033
0.1457882531
0.1457700318
0.1457544714
0.1457414842
0.1457309643
0.1457227886
0.1457168191
0.1457129039
0.1457108796
0.145710573
0.1457118029
0.1457143824
0.1457181207
0.145722825
0.1457283022
0.145734361
0.1457408134
0.145747476
0.1457541716
0.1457607304
0.1457669909
0.1457728007
0.1457780172
0.1457825081
0.1457861517
0.1457888369
0.1457904632
0.1457909403
0.1457901881
0.145788136
0.145784722
0.1457798927
0.1457736019
0.14576581
0.1457564834
0.1457455931
0.1457331142
0.1457190251
0.1457033062
0.1456859395
0.1456669078
0.1456461936
0.145623779
0.1455996447
0.1455737695
0.1455461299
0.1455167
0.1454854505
0.145452349
0.1454173597
0.1453804427
0.1453415545
0.1453006478
0.1452576709
0.1452125683
0.1451652805
0.1451157436
0.1450638899
0.1450096474
0.1449529402
0.1448936883
0.1448318074
0.1447672093
0.1446998016
0.1446294878
0.1445561672
0.1444797348
0.1444000813
0.1443170931
0.1442306522
0.144140636
0.1440469172
0.1439493641
0.1438478399
0.1437422032
0.1436323077
0.1435180021
0.14339913
0.14327553
0.1431470358
0.1430134758
0.1428746735
0.1427304474
0.142580611
0.142424973
0.1422633374
0.1420955036
0.1419212665
0.1417404169
0.1415527414
0.1413580223
0.141156038
0.1409465627
0.1407293654
0.140504209
0.1402708488
0.1400290294
0.1397784788
0.139518885
0.1392496031
0.1389650562
0.1385795295
0.1366928056
0.1218119349
0.07293201951
0.0182120983
0.01820101379
0.01820091069
0.01820088791
0.01820086557
0.0182008436
0.018200822
0.01820080075
0.01820077987
0.01820075934
0.01820073917
0.01820071935
0.01820069988
0.01820068076
0.01820066199
0.01820064355
0.01820062546
0.01820060771
0.0182005903
0.01820057322
0.01820055647
0.01820054004
0.01820052395
0.01820050818
0.01820049273
0.0182004776
0.01820046279
0.01820044829
0.0182004341
0.01820042023
0.01820040666
0.01820039339
0.01820038043
0.01820036776
0.01820035539
0.01820034332
0.01820033153
0.01820032004
0.01820030883
0.01820029791
0.01820028726
0.0182002769
0.01820026681
0.01820025699
0.01820024745
0.01820023817
0.01820022916
0.01820022041
0.01820021192
0.0182002037
0.01820019572
0.018200188
0.01820018053
0.0182001733
0.01820016632
0.01820015959
0.01820015309
0.01820014683
0.0182001408
0.01820013501
0.01820012944
0.0182001241
0.01820011899
0.0182001141
0.01820010942
0.01820010497
0.01820010072
0.01820009669
0.01820009287
0.01820008925
0.01820008583
0.01820008262
0.0182000796
0.01820007679
0.01820007416
0.01820007172
0.01820006948
0.01820006741
0.01820006554
0.01820006384
0.01820006232
0.01820006097
0.0182000598
0.0182000588
0.01820005796
0.01820005729
0.01820005679
0.01820005644
0.1460930271
0.1459504753
0.1459133107
0.1458811176
0.1458518153
0.145825326
0.1458016422
0.145780738
0.1457625661
0.1457470585
0.1457341278
0.1457236679
0.1457155558
0.1457096536
0.1457058093
0.1457038596
0.1457036311
0.1457049429
0.145707608
0.1457114354
0.1457162325
0.1457218061
0.1457279651
0.1457345213
0.1457412915
0.1457480986
0.1457547727
0.1457611525
0.1457670855
0.1457724294
0.1457770519
0.1457808315
0.1457836571
0.1457854284
0.1457860552
0.1457854576
0.1457835649
0.1457803156
0.1457756561
0.1457695405
0.1457619294
0.1457527891
0.1457420909
0.1457298101
0.1457159249
0.1457004162
0.1456832658
0.1456644567
0.1456439716
0.1456217926
0.1455979003
0.1455722738
0.1455448896
0.1455157218
0.1454847412
0.1454519155
0.1454172086
0.145380581
0.1453419891
0.1453013853
0.1452587181
0.1452139319
0.145166967
0.1451177596
0.1450662418
0.1450123414
0.1449559823
0.1448970843
0.1448355629
0.1447713296
0.1447042917
0.1446343524
0.1445614104
0.1444853604
0.1444060925
0.1443234925
0.1442374418
0.1441478168
0.1440544897
0.1439573274
0.1438561924
0.1437509416
0.1436414275
0.1435274969
0.1434089917
0.1432857481
0.1431575971
0.1430243644
0.1428858697
0.1427419276
0.1425923467
0.1424369303
0.1422754757
0.1421077746
0.1419336129
0.1417527709
0.1415650225
0.1413701357
0.1411678718
0.1409579849
0.1407402211
0.1405143171
0.1402799982
0.1400369751
0.1397849395
0.1395235405
0.1392520958
0.1389650325
0.1385773144
0.136700549
0.1218999208
0.07313633749
0.01821212385
0.01820101388
0.01820091066
0.0182008879
0.01820086559
0.01820084365
0.01820082206
0.01820080084
0.01820077997
0.01820075947
0.01820073931
0.01820071951
0.01820070005
0.01820068095
0.01820066218
0.01820064376
0.01820062569
0.01820060794
0.01820059054
0.01820057347
0.01820055672
0.01820054031
0.01820052422
0.01820050846
0.01820049301
0.01820047789
0.01820046308
0.01820044858
0.0182004344
0.01820042052
0.01820040696
0.01820039369
0.01820038073
0.01820036806
0.01820035569
0.01820034361
0.01820033183
0.01820032033
0.01820030912
0.0182002982
0.01820028755
0.01820027718
0.01820026709
0.01820025727
0.01820024772
0.01820023844
0.01820022943
0.01820022067
0.01820021218
0.01820020395
0.01820019597
0.01820018824
0.01820018077
0.01820017354
0.01820016655
0.01820015981
0.01820015331
0.01820014704
0.01820014101
0.01820013521
0.01820012964
0.0182001243
0.01820011918
0.01820011428
0.0182001096
0.01820010514
0.01820010089
0.01820009685
0.01820009302
0.01820008939
0.01820008597
0.01820008275
0.01820007973
0.0182000769
0.01820007427
0.01820007183
0.01820006957
0.0182000675
0.01820006562
0.01820006391
0.01820006238
0.01820006103
0.01820005985
0.01820005884
0.018200058
0.01820005732
0.01820005681
0.01820005645
0.1460815515
0.1459388992
0.1459017649
0.1458696076
0.1458403437
0.1458138958
0.1457902562
0.1457693991
0.1457512773
0.1457358231
0.1457229487
0.1457125483
0.1457044989
0.1456986625
0.1456948872
0.1456930097
0.1456928566
0.1456942469
0.1456969937
0.1457009061
0.1457057912
0.1457114562
0.1457177098
0.1457243638
0.1457312353
0.1457381469
0.1457449291
0.1457514205
0.1457574688
0.1457629317
0.1457676772
0.1457715837
0.1457745403
0.1457764468
0.1457772133
0.1457767599
0.145775016
0.1457719203
0.1457674194
0.1457614675
0.1457540253
0.1457450592
0.1457345408
0.1457224453
0.1457087513
0.1456934395
0.1456764921
0.1456578921
0.1456376222
0.1456156646
0.1455920002
0.1455666079
0.1455394645
0.145510544
0.1454798174
0.1454472523
0.1454128127
0.145376459
0.1453381477
0.1452978312
0.145255458
0.1452109724
0.1451643147
0.1451154209
0.1450642229
0.1450106487
0.1449546219
0.1448960619
0.1448348843
0.1447710001
0.1447043165
0.1446347362
0.1445621577
0.1444864751
0.1444075782
0.1443253523
0.1442396778
0.1441504309
0.1440574826
0.1439606993
0.143859942
0.1437550669
0.1436459249
0.1435323616
0.1434142167
0.143291325
0.143163515
0.1430306096
0.1428924258
0.1427487746
0.1425994606
0.1424442824
0.1422830321
0.142115495
0.1419414499
0.1417606684
0.141572915
0.1413779464
0.1411755109
0.140965348
0.1407471869
0.1405207454
0.1402857276
0.1400418215
0.1397886938
0.1395259683
0.1392529402
0.138964054
0.1385749396
0.1367084795
0.1219849405
0.07333241502
0.01821214856
0.01820101428
0.01820091093
0.01820088818
0.01820086588
0.01820084394
0.01820082237
0.01820080115
0.0182007803
0.0182007598
0.01820073965
0.01820071985
0.0182007004
0.0182006813
0.01820066254
0.01820064413
0.01820062605
0.01820060831
0.01820059091
0.01820057384
0.01820055709
0.01820054068
0.01820052459
0.01820050883
0.01820049339
0.01820047826
0.01820046345
0.01820044895
0.01820043477
0.01820042089
0.01820040732
0.01820039405
0.01820038108
0.01820036841
0.01820035604
0.01820034396
0.01820033217
0.01820032067
0.01820030946
0.01820029853
0.01820028788
0.01820027751
0.01820026741
0.01820025759
0.01820024803
0.01820023875
0.01820022973
0.01820022097
0.01820021247
0.01820020424
0.01820019625
0.01820018852
0.01820018104
0.0182001738
0.01820016681
0.01820016006
0.01820015356
0.01820014728
0.01820014125
0.01820013544
0.01820012986
0.01820012451
0.01820011939
0.01820011448
0.0182001098
0.01820010533
0.01820010107
0.01820009702
0.01820009319
0.01820008955
0.01820008613
0.0182000829
0.01820007987
0.01820007703
0.01820007439
0.01820007194
0.01820006968
0.0182000676
0.01820006571
0.01820006399
0.01820006246
0.01820006109
0.01820005991
0.01820005889
0.01820005804
0.01820005735
0.01820005683
0.01820005646
0.1460664905
0.1459237491
0.1458866479
0.1458545288
0.1458253057
0.1457989011
0.1457753075
0.145754499
0.1457364287
0.1457210285
0.1457082111
0.1456978704
0.1456898836
0.1456841125
0.1456804054
0.1456785988
0.1456785195
0.1456799865
0.1456828127
0.1456868073
0.1456917775
0.1456975305
0.145703875
0.1457106229
0.1457175913
0.145724603
0.1457314884
0.1457380862
0.1457442444
0.1457498207
0.1457546831
0.1457587103
0.1457617916
0.1457638267
0.145764726
0.1457644096
0.1457628074
0.1457598578
0.1457555079
0.1457497119
0.1457424305
0.1457336306
0.1457232837
0.1457113651
0.1456978537
0.1456827302
0.145665977
0.1456475771
0.1456275134
0.1456057681
0.1455823224
0.1455571552
0.1455302432
0.1455015607
0.1454710787
0.1454387647
0.145404583
0.1453684939
0.1453304539
0.1452904154
0.145248327
0.1452041328
0.1451577732
0.1451091841
0.1450582973
0.1450050406
0.1449493376
0.1448911076
0.1448302658
0.1447667233
0.1447003867
0.1446311586
0.1445589371
0.1444836161
0.1444050849
0.1443232282
0.144237926
0.1441490539
0.1440564821
0.1439600762
0.1438596965
0.1437551982
0.1436464309
0.1435332389
0.1434154607
0.143292929
0.1431654708
0.1430329067
0.1428950512
0.1427517122
0.1426026914
0.1424477832
0.1422867755
0.1421194486
0.1419455754
0.1417649211
0.1415772424
0.1413822875
0.1411797948
0.1409694925
0.1407510974
0.1405243133
0.1402888289
0.1400443155
0.1397904225
0.1395267558
0.1392525962
0.1389624119
0.1385724771
0.1367163955
0.122066644
0.07352010519
0.01821217227
0.01820101484
0.01820091135
0.01820088861
0.01820086631
0.01820084438
0.01820082281
0.01820080159
0.01820078074
0.01820076024
0.01820074009
0.0182007203
0.01820070085
0.01820068175
0.01820066299
0.01820064457
0.0182006265
0.01820060876
0.01820059135
0.01820057428
0.01820055754
0.01820054112
0.01820052503
0.01820050926
0.01820049382
0.01820047869
0.01820046388
0.01820044938
0.01820043519
0.01820042131
0.01820040773
0.01820039446
0.01820038149
0.01820036882
0.01820035644
0.01820034435
0.01820033256
0.01820032106
0.01820030984
0.0182002989
0.01820028825
0.01820027787
0.01820026777
0.01820025794
0.01820024838
0.01820023909
0.01820023007
0.0182002213
0.0182002128
0.01820020456
0.01820019657
0.01820018883
0.01820018134
0.0182001741
0.0182001671
0.01820016035
0.01820015383
0.01820014755
0.01820014151
0.0182001357
0.01820013011
0.01820012476
0.01820011962
0.01820011471
0.01820011002
0.01820010554
0.01820010127
0.01820009722
0.01820009338
0.01820008974
0.0182000863
0.01820008306
0.01820008003