/*--------------------------------*- C++ -*----------------------------------*\
| =========                 |                                                 |
| \\      /  F ield         | OpenFOAM: The Open Source CFD Toolbox           |
|  \\    /   O peration     | Version:  v1706                                 |
|   \\  /    A nd           | Web:      www.OpenFOAM.com                      |
|    \\/     M anipulation  |                                                 |
\*---------------------------------------------------------------------------*/
FoamFile
{
    version     2.0;
    format      ascii;
    class       volScalarField;
    location    "0.003";
    object      Tv;
}
// * * * * * * * * * * * * * * * * * * * * * * * * * * * * * * * * * * * * * //

dimensions      [0 0 0 1 0 0 0];


internalField   nonuniform List<scalar> 
80000
(
11958.26748
11958.89561
11961.49659
11963.93545
11966.11158
11968.01816
11969.65451
11971.02197
11972.1237
11972.96453
11973.55089
11973.89071
11973.99325
11973.869
11973.52951
11972.98727
11972.25549
11971.348
11970.27903
11969.06308
11967.71473
11966.24852
11964.67875
11963.01939
11961.28393
11959.48528
11957.63563
11955.74642
11953.82824
11951.89075
11949.94271
11947.99188
11946.04505
11944.10803
11942.18569
11940.28194
11938.3998
11936.54147
11934.7083
11932.90094
11931.11936
11929.36291
11927.63039
11925.92015
11924.23011
11922.55784
11920.90064
11919.25558
11917.61955
11915.98931
11914.36154
11912.73287
11911.0999
11909.45926
11907.80759
11906.14156
11904.45793
11902.75349
11901.0251
11899.26967
11897.4842
11895.66571
11893.81127
11891.918
11889.98302
11888.0035
11885.97658
11883.8994
11881.76911
11879.58281
11877.33757
11875.0304
11872.65829
11870.21814
11867.70681
11865.12107
11862.45762
11859.7131
11856.88403
11853.96686
11850.95797
11847.85361
11844.64997
11841.34314
11837.9291
11834.40376
11830.76295
11827.0024
11823.11779
11819.10472
11814.95879
11810.67557
11806.25066
11801.67976
11796.9587
11792.08361
11787.05098
11781.85793
11776.50247
11770.98395
11765.30366
11759.46592
11753.47954
11747.36042
11741.13556
11734.84896
11728.56177
11722.204
11713.01862
11659.09197
11213.25671
8888.30136
455.9197542
250.1985663
250.000019
250
250
250
250
250
250
250
250
250
250
250
250
250
250
250
250
250
250
250
250
250
250
250
250
250
250
250
250
250
250
250
250
250
250
250
250
250
250
250
250
250
250
250
250
250
250
250
250
250
250
250
250
250
250
250
250
250
250
250
250
250
250
250
250
250
250
250
250
250
250
250
250
250
250
250
250
250
250
250
250
250
250
250
250
250
11961.12179
11961.74984
11964.35106
11966.79018
11968.96722
11970.87564
11972.51487
11973.88631
11974.99311
11975.84009
11976.43366
11976.7817
11976.89347
11976.77942
11976.45109
11975.92093
11975.20217
11974.3086
11973.25445
11972.05421
11970.72246
11969.27372
11967.72231
11966.0822
11964.36688
11962.58925
11960.76153
11958.89516
11957.00073
11955.08792
11953.16549
11951.24121
11949.3219
11947.41337
11945.52049
11943.6472
11941.79654
11939.97069
11938.17104
11936.39825
11934.65229
11932.93253
11931.23779
11929.56641
11927.91633
11926.28514
11924.67015
11923.06842
11921.47687
11919.89225
11918.31127
11916.73054
11915.14669
11913.55634
11911.95614
11910.34278
11908.71301
11907.06362
11905.39148
11903.69351
11901.96669
11900.20805
11898.41467
11896.58365
11894.71213
11892.79726
11890.83618
11888.82602
11886.76393
11884.64699
11882.47225
11880.23674
11877.93741
11875.57115
11873.1348
11870.62511
11868.03877
11865.37238
11862.62244
11859.78538
11856.85754
11853.83515
11850.71436
11847.49121
11844.16167
11840.7216
11837.16676
11833.49286
11829.6955
11825.77024
11821.71259
11817.51803
11813.18206
11808.70024
11804.06826
11799.282
11794.33768
11789.232
11783.9624
11778.52732
11772.92668
11767.1625
11761.2397
11755.16731
11748.95999
11742.6395
11736.22722
11729.58532
11719.86416
11665.23769
11220.02401
8903.18344
456.147236
250.1991551
250.0000191
250
250
250
250
250
250
250
250
250
250
250
250
250
250
250
250
250
250
250
250
250
250
250
250
250
250
250
250
250
250
250
250
250
250
250
250
250
250
250
250
250
250
250
250
250
250
250
250
250
250
250
250
250
250
250
250
250
250
250
250
250
250
250
250
250
250
250
250
250
250
250
250
250
250
250
250
250
250
250
250
250
250
250
250
250
11962.38949
11963.01516
11965.61643
11968.05594
11970.23365
11972.14307
11973.78366
11975.15683
11976.26575
11977.11525
11977.71174
11978.06309
11978.17857
11978.06861
11977.74476
11977.21948
11976.50596
11975.61801
11974.56985
11973.37599
11972.05098
11970.60937
11969.06547
11967.43323
11965.72617
11963.95718
11962.13849
11960.28153
11958.39689
11956.49428
11954.58244
11952.66916
11950.76123
11948.8645
11946.98383
11945.12316
11943.28553
11941.47314
11939.68737
11937.92888
11936.19766
11934.49306
11932.81391
11931.15857
11929.52497
11927.9107
11926.31308
11924.72917
11923.15588
11921.58999
11920.02818
11918.46709
11916.90334
11915.33355
11913.75437
11912.1625
11910.55468
11908.9277
11907.27845
11905.60383
11903.90083
11902.16648
11900.39786
11898.59207
11896.74624
11894.85751
11892.92304
11890.93997
11888.9054
11886.81645
11884.67015
11882.46352
11880.19351
11877.85701
11875.45085
11872.97178
11870.41647
11867.78151
11865.06341
11862.25858
11859.36334
11856.37392
11853.28645
11850.09697
11846.80142
11843.39565
11839.8754
11836.23634
11832.47406
11828.58408
11824.56187
11820.40286
11816.10247
11811.65618
11807.05954
11802.30827
11797.39832
11792.32605
11787.08837
11781.68294
11776.1085
11770.36526
11764.45543
11758.38385
11752.15887
11745.79288
11739.2938
11732.50668
11722.58142
11667.98341
11225.04067
8919.953774
456.4037104
250.1997904
250.0000192
250
250
250
250
250
250
250
250
250
250
250
250
250
250
250
250
250
250
250
250
250
250
250
250
250
250
250
250
250
250
250
250
250
250
250
250
250
250
250
250
250
250
250
250
250
250
250
250
250
250
250
250
250
250
250
250
250
250
250
250
250
250
250
250
250
250
250
250
250
250
250
250
250
250
250
250
250
250
250
250
250
250
250
250
250
11963.25181
11963.87492
11966.47632
11968.91626
11971.09459
11973.0048
11974.64637
11976.02072
11977.13102
11977.98211
11978.5804
11978.93377
11979.05148
11978.94397
11978.6228
11978.10041
11977.39001
11976.50541
11975.46083
11974.27077
11972.94981
11971.51247
11969.97308
11968.3456
11966.64353
11964.87978
11963.06656
11961.21532
11959.33666
11957.44026
11955.53489
11953.62832
11951.72736
11949.83784
11947.96463
11946.11167
11944.28201
11942.47783
11940.70052
11938.95075
11937.22849
11935.53311
11933.86344
11932.21781
11930.59418
11928.99014
11927.40299
11925.8298
11924.2675
11922.71283
11921.16251
11919.61315
11918.06139
11916.50384
11914.93715
11913.35802
11911.76319
11910.14947
11908.51371
11906.85284
11905.16384
11903.44375
11901.68963
11899.89858
11898.06776
11896.19428
11894.27531
11892.30798
11890.2894
11888.21668
11886.08686
11883.89694
11881.64389
11879.32458
11876.93585
11874.47444
11871.93701
11869.32017
11866.6204
11863.83412
11860.95764
11857.98719
11854.91889
11851.74877
11848.47277
11845.0867
11841.58633
11837.96729
11834.22515
11830.3554
11826.35348
11822.21478
11817.93466
11813.5085
11808.93176
11804.19998
11799.30891
11794.25459
11789.03347
11783.64259
11778.07978
11772.34395
11766.43543
11760.35644
11754.11158
11747.70802
11741.14648
11734.26338
11724.21892
11669.80837
11229.51878
8937.14896
456.6669107
250.2004486
250.0000192
250
250
250
250
250
250
250
250
250
250
250
250
250
250
250
250
250
250
250
250
250
250
250
250
250
250
250
250
250
250
250
250
250
250
250
250
250
250
250
250
250
250
250
250
250
250
250
250
250
250
250
250
250
250
250
250
250
250
250
250
250
250
250
250
250
250
250
250
250
250
250
250
250
250
250
250
250
250
250
250
250
250
250
250
250
11963.94454
11964.56495
11967.16658
11969.60698
11971.78589
11973.69681
11975.33919
11976.71447
11977.82581
11978.67805
11979.27762
11979.6324
11979.75164
11979.64582
11979.32646
11978.80602
11978.09773
11977.21539
11976.17324
11974.98576
11973.66754
11972.23311
11970.6968
11969.07257
11967.37392
11965.61377
11963.80433
11961.95705
11960.08252
11958.19043
11956.28954
11954.38763
11952.49151
11950.607
11948.73898
11946.89138
11945.06724
11943.26875
11941.49731
11939.75356
11938.03748
11936.34844
11934.68527
11933.04631
11931.42949
11929.83241
11928.25238
11926.68647
11925.13158
11923.58448
11922.04187
11920.50038
11918.95662
11917.40722
11915.84882
11914.27813
11912.69187
11911.08686
11909.45996
11907.80808
11906.12822
11904.41739
11902.67267
11900.89117
11899.07001
11897.20635
11895.29732
11893.34006
11891.3317
11889.26932
11887.14998
11884.97068
11882.72836
11880.41994
11878.04221
11875.59194
11873.06578
11870.46034
11867.7721
11864.99747
11862.13277
11859.17422
11856.11794
11852.95995
11849.69619
11846.32246
11842.83451
11839.22798
11835.4984
11831.64125
11827.65193
11823.52579
11819.25814
11814.84428
11810.27956
11805.55939
11800.67931
11795.63508
11790.42278
11785.03892
11779.48058
11773.74565
11767.83301
11761.74285
11755.47696
11749.03847
11742.4224
11735.45829
11725.31913
11671.14247
11233.59401
8954.051335
456.9254919
250.2010984
250.0000193
250
250
250
250
250
250
250
250
250
250
250
250
250
250
250
250
250
250
250
250
250
250
250
250
250
250
250
250
250
250
250
250
250
250
250
250
250
250
250
250
250
250
250
250
250
250
250
250
250
250
250
250
250
250
250
250
250
250
250
250
250
250
250
250
250
250
250
250
250
250
250
250
250
250
250
250
250
250
250
250
250
250
250
250
250
11964.55087
11965.1685
11967.77043
11970.21135
11972.39085
11974.30242
11975.94552
11977.32157
11978.43375
11979.2869
11979.88744
11980.24327
11980.36364
11980.25902
11979.94096
11979.42192
11978.71513
11977.83439
11976.79395
11975.60829
11974.29203
11972.85968
11971.32556
11969.70367
11968.00749
11966.24994
11964.44323
11962.59882
11960.7273
11958.83835
11956.94073
11955.04223
11953.14963
11951.26878
11949.40454
11947.56084
11945.74072
11943.94637
11942.17916
11940.43977
11938.72815
11937.04367
11935.38515
11933.75094
11932.13896
11930.54682
11928.9718
11927.41099
11925.86129
11924.31946
11922.7822
11921.24612
11919.70785
11918.16401
11916.61125
11915.04625
11913.46577
11911.86659
11910.24558
11908.59966
11906.92581
11905.22106
11903.48247
11901.70717
11899.89227
11898.03492
11896.13226
11894.18143
11892.17955
11890.12372
11888.01098
11885.83833
11883.60274
11881.3011
11878.93022
11876.48685
11873.96767
11871.36925
11868.68811
11865.92064
11863.06317
11860.11191
11857.06297
11853.91239
11850.65607
11847.28984
11843.80943
11840.21044
11836.48842
11832.63882
11828.65699
11824.53825
11820.27785
11815.87103
11811.313
11806.59906
11801.72455
11796.68497
11791.47602
11786.09373
11780.5345
11774.79527
11768.87361
11762.76789
11756.47732
11750.00145
11743.33033
11736.28793
11726.06241
11672.13558
11237.30748
8970.339181
457.174506
250.2017267
250.0000193
250
250
250
250
250
250
250
250
250
250
250
250
250
250
250
250
250
250
250
250
250
250
250
250
250
250
250
250
250
250
250
250
250
250
250
250
250
250
250
250
250
250
250
250
250
250
250
250
250
250
250
250
250
250
250
250
250
250
250
250
250
250
250
250
250
250
250
250
250
250
250
250
250
250
250
250
250
250
250
250
250
250
250
250
250
11965.11016
11965.725
11968.32733
11970.76881
11972.94892
11974.86113
11976.50489
11977.88162
11978.99451
11979.8484
11980.44971
11980.80634
11980.92756
11980.82384
11980.50673
11979.9887
11979.28299
11978.4034
11977.36419
11976.17986
11974.865
11973.43414
11971.90163
11970.28144
11968.58706
11966.83141
11965.02672
11963.18442
11961.31511
11959.42849
11957.5333
11955.63731
11953.74733
11951.86919
11950.00774
11948.16692
11946.34976
11944.55843
11942.79434
11941.05811
11939.34972
11937.66853
11936.01335
11934.38253
11932.77399
11931.18533
11929.61383
11928.05657
11926.51045
11924.97224
11923.43861
11921.90619
11920.3716
11918.83145
11917.2824
11915.72112
11914.14436
11912.54891
11910.93165
11909.28947
11907.61937
11905.91837
11904.18353
11902.41198
11900.60082
11898.74722
11896.8483
11894.90122
11892.90308
11890.85099
11888.74199
11886.57309
11884.34124
11882.04335
11879.67622
11877.23662
11874.72121
11872.12658
11869.44923
11866.68557
11863.83192
11860.88448
11857.83938
11854.69264
11851.44016
11848.07777
11844.60116
11841.00596
11837.28767
11833.44172
11829.46343
11825.34806
11821.09082
11816.68684
11812.13124
11807.41914
11802.54569
11797.50612
11792.29575
11786.9101
11781.34488
11775.59608
11769.66002
11763.53331
11757.21282
11750.69491
11743.9655
11736.84459
11726.53792
11672.86673
11240.69105
8985.884738
457.4120327
250.2023281
250.0000194
250
250
250
250
250
250
250
250
250
250
250
250
250
250
250
250
250
250
250
250
250
250
250
250
250
250
250
250
250
250
250
250
250
250
250
250
250
250
250
250
250
250
250
250
250
250
250
250
250
250
250
250
250
250
250
250
250
250
250
250
250
250
250
250
250
250
250
250
250
250
250
250
250
250
250
250
250
250
250
250
250
250
250
250
250
11965.64422
11966.25635
11968.85916
11971.30127
11973.48202
11975.39486
11977.03925
11978.41661
11979.53013
11980.38464
11980.98657
11981.34384
11981.46571
11981.36266
11981.04625
11980.52895
11979.82401
11978.94525
11977.90692
11976.72352
11975.40966
11973.97988
11972.44852
11970.82955
11969.13648
11967.38221
11965.57899
11963.73824
11961.87056
11959.98564
11958.09222
11956.19809
11954.31003
11952.43387
11950.57446
11948.73573
11946.92071
11945.13158
11943.3697
11941.63573
11939.92963
11938.25075
11936.5979
11934.96942
11933.36323
11931.77692
11930.20777
11928.65285
11927.10907
11925.57317
11924.04184
11922.5117
11920.97936
11919.44145
11917.89459
11916.33547
11914.76083
11913.16747
11911.55225
11909.91207
11908.24392
11906.54482
11904.81184
11903.04209
11901.23269
11899.38079
11897.48352
11895.53804
11893.54145
11891.49086
11889.38331
11887.21581
11884.98533
11882.68874
11880.32289
11877.88452
11875.3703
11872.77682
11870.10058
11867.338
11864.48538
11861.53894
11858.4948
11855.34896
11852.09735
11848.73574
11845.25986
11841.66527
11837.94749
11834.10188
11830.12374
11826.00827
11821.7506
11817.34576
11812.78874
11808.07449
11803.19793
11798.15398
11792.93758
11787.54368
11781.96731
11776.20353
11770.24742
11764.09399
11757.73805
11751.17333
11744.38258
11737.18341
11726.80091
11673.38648
11243.7736
9000.650133
457.6375327
250.2029011
250.0000195
250
250
250
250
250
250
250
250
250
250
250
250
250
250
250
250
250
250
250
250
250
250
250
250
250
250
250
250
250
250
250
250
250
250
250
250
250
250
250
250
250
250
250
250
250
250
250
250
250
250
250
250
250
250
250
250
250
250
250
250
250
250
250
250
250
250
250
250
250
250
250
250
250
250
250
250
250
250
250
250
250
250
250
250
250
11966.16639
11966.77593
11969.37932
11971.82213
11974.00355
11975.91704
11977.56205
11978.94001
11980.05409
11980.90914
11981.5116
11981.86939
11981.99176
11981.88921
11981.57331
11981.05654
11980.35214
11979.47395
11978.43622
11977.25346
11975.9403
11974.51126
11972.98069
11971.36257
11969.67041
11967.91712
11966.11493
11964.27528
11962.40875
11960.52504
11958.63289
11956.74006
11954.85336
11952.9786
11951.12062
11949.28335
11947.46982
11945.68218
11943.92182
11942.18937
11940.48478
11938.80741
11937.15605
11935.52905
11933.92431
11932.33942
11930.77166
11929.21809
11927.67561
11926.14096
11924.61083
11923.08183
11921.55057
11920.01366
11918.46775
11916.9095
11915.33565
11913.743
11912.12839
11910.48876
11908.82106
11907.12232
11905.38961
11903.62003
11901.81072
11899.9588
11898.06143
11896.11574
11894.11885
11892.06786
11889.95982
11887.79175
11885.56059
11883.26325
11880.89654
11878.45723
11875.94199
11873.3474
11870.66998
11867.90611
11865.05213
11862.10424
11859.05854
11855.91105
11852.65767
11849.29417
11845.81625
11842.21946
11838.49926
11834.651
11830.66991
11826.55113
11822.28968
11817.88049
11813.3184
11808.59815
11803.71442
11798.66179
11793.43477
11788.0278
11782.43518
11776.65108
11770.66947
11764.48397
11758.08766
11751.47227
11744.61829
11737.34223
11726.88954
11673.72981
11246.58001
9014.636728
457.8510655
250.2034455
250.0000195
250
250
250
250
250
250
250
250
250
250
250
250
250
250
250
250
250
250
250
250
250
250
250
250
250
250
250
250
250
250
250
250
250
250
250
250
250
250
250
250
250
250
250
250
250
250
250
250
250
250
250
250
250
250
250
250
250
250
250
250
250
250
250
250
250
250
250
250
250
250
250
250
250
250
250
250
250
250
250
250
250
250
250
250
250
11966.68538
11967.29255
11969.89661
11972.34018
11974.52232
11976.43649
11978.08212
11979.46066
11980.57527
11981.43081
11982.03372
11982.39192
11982.51469
11982.41252
11982.09698
11981.58056
11980.87652
11979.9987
11978.96136
11977.77902
11976.46629
11975.03773
11973.50767
11971.8901
11970.19854
11968.44589
11966.64437
11964.80544
11962.93967
11961.05676
11959.16544
11957.27348
11955.38766
11953.5138
11951.65674
11949.8204
11948.00779
11946.22107
11944.46161
11942.73004
11941.02631
11939.34977
11937.6992
11936.07293
11934.46888
11932.88461
11931.31741
11929.76434
11928.22227
11926.68796
11925.15808
11923.62924
11922.09804
11920.5611
11919.01503
11917.45653
11915.88232
11914.28918
11912.67398
11911.03362
11909.36507
11907.66535
11905.93153
11904.16071
11902.35001
11900.49658
11898.59756
11896.65008
11894.65128
11892.59823
11890.488
11888.31759
11886.08397
11883.78403
11881.4146
11878.97243
11876.4542
11873.85649
11871.1758
11868.40855
11865.55103
11862.59945
11859.54992
11856.39844
11853.14087
11849.773
11846.29048
11842.68884
11838.9635
11835.10975
11831.12276
11826.99758
11822.72913
11818.3122
11813.74146
11809.01144
11804.11655
11799.05102
11793.80894
11788.3842
11782.77046
11776.9611
11770.94908
11764.72689
11758.28629
11751.61751
11744.6996
11737.34889
11726.83148
11673.9217
11249.13072
9027.861184
458.0529182
250.2039618
250.0000196
250
250
250
250
250
250
250
250
250
250
250
250
250
250
250
250
250
250
250
250
250
250
250
250
250
250
250
250
250
250
250
250
250
250
250
250
250
250
250
250
250
250
250
250
250
250
250
250
250
250
250
250
250
250
250
250
250
250
250
250
250
250
250
250
250
250
250
250
250
250
250
250
250
250
250
250
250
250
250
250
250
250
250
250
250
11967.20721
11967.81224
11970.41707
11972.86147
11975.0444
11976.95927
11978.60555
11979.98466
11981.09978
11981.95578
11982.55909
11982.91764
11983.04072
11982.93882
11982.62353
11982.10734
11981.40352
11980.52591
11979.48878
11978.30666
11976.99417
11975.56586
11974.03607
11972.4188
11970.72756
11968.97526
11967.17413
11965.33559
11963.47025
11961.58779
11959.69693
11957.80544
11955.9201
11954.04671
11952.19012
11950.35424
11948.54206
11946.75575
11944.99666
11943.26542
11941.56197
11939.88565
11938.23523
11936.60906
11935.00501
11933.42067
11931.85331
11930.29997
11928.75754
11927.22275
11925.69228
11924.16272
11922.63069
11921.09277
11919.5456
11917.98585
11916.41024
11914.81557
11913.19867
11911.55645
11909.88588
11908.18398
11906.44782
11904.67448
11902.8611
11901.00481
11899.10275
11897.15207
11895.14988
11893.09327
11890.97931
11888.80499
11886.56728
11884.26308
11881.8892
11879.44241
11876.91937
11874.31668
11871.63083
11868.85822
11865.99514
11863.03781
11859.9823
11856.82461
11853.56059
11850.18598
11846.69642
11843.08739
11839.35426
11835.49227
11831.4965
11827.36191
11823.0833
11818.65531
11814.07242
11809.32895
11804.419
11799.3365
11794.07511
11788.62822
11782.98891
11777.14985
11771.10321
11764.84058
11758.35272
11751.62888
11744.64719
11737.22445
11726.64712
11673.98025
11251.44201
9040.344436
458.2434312
250.2044508
250.0000196
250
250
250
250
250
250
250
250
250
250
250
250
250
250
250
250
250
250
250
250
250
250
250
250
250
250
250
250
250
250
250
250
250
250
250
250
250
250
250
250
250
250
250
250
250
250
250
250
250
250
250
250
250
250
250
250
250
250
250
250
250
250
250
250
250
250
250
250
250
250
250
250
250
250
250
250
250
250
250
250
250
250
250
250
250
11967.73616
11968.33935
11970.94504
11973.39037
11975.57412
11977.48975
11979.13669
11980.51639
11981.63202
11982.48845
11983.09213
11983.45099
11983.57431
11983.47261
11983.15748
11982.64142
11981.93769
11981.06016
11980.0231
11978.84104
11977.52861
11976.10037
11974.57065
11972.95347
11971.26232
11969.51012
11967.7091
11965.8707
11964.00549
11962.12316
11960.23243
11958.34107
11956.45584
11954.58255
11952.72603
11950.89018
11949.078
11947.29164
11945.53244
11943.80104
11942.09734
11940.4207
11938.76988
11937.1432
11935.53856
11933.95351
11932.38532
11930.83103
11929.28752
11927.75152
11926.21969
11924.68864
11923.15495
11921.61522
11920.06606
11918.50416
11916.92623
11915.32904
11913.70945
11912.06435
11910.39071
11908.68553
11906.94589
11905.16888
11903.35161
11901.49123
11899.58487
11897.62967
11895.62275
11893.56119
11891.44206
11889.26236
11887.01905
11884.70903
11882.32911
11879.87605
11877.34652
11874.73709
11872.04427
11869.26444
11866.39389
11863.42882
11860.36529
11857.19926
11853.92657
11850.54295
11847.04396
11843.42507
11839.68158
11835.80864
11831.80128
11827.65432
11823.36244
11818.92013
11814.32169
11809.56119
11804.63248
11799.52914
11794.24447
11788.77142
11783.10255
11777.22996
11771.14519
11764.83914
11758.30191
11751.52205
11744.4772
11736.98499
11726.35166
11673.9187
11253.52661
9052.107148
458.4229434
250.2049131
250.0000197
250
250
250
250
250
250
250
250
250
250
250
250
250
250
250
250
250
250
250
250
250
250
250
250
250
250
250
250
250
250
250
250
250
250
250
250
250
250
250
250
250
250
250
250
250
250
250
250
250
250
250
250
250
250
250
250
250
250
250
250
250
250
250
250
250
250
250
250
250
250
250
250
250
250
250
250
250
250
250
250
250
250
250
250
250
11968.27543
11968.87708
11971.48375
11973.93007
11976.11472
11978.03115
11979.67879
11981.05909
11982.17524
11983.03209
11983.63612
11983.99525
11984.11877
11984.01722
11983.70217
11983.18616
11982.48244
11981.60488
11980.56777
11979.38564
11978.07312
11976.64478
11975.11496
11973.49767
11971.80641
11970.05411
11968.25297
11966.41444
11964.5491
11962.66663
11960.77574
11958.88419
11956.99875
11955.12521
11953.26839
11951.4322
11949.61961
11947.83278
11946.07304
11944.341
11942.63659
11940.95913
11939.30739
11937.67967
11936.07386
11934.48751
11932.91789
11931.36203
11929.81679
11928.2789
11926.74501
11925.21173
11923.67563
11922.1333
11920.58136
11919.01647
11917.43535
11915.83476
11914.21155
11912.56262
11910.88491
11909.17545
11907.43129
11905.64951
11903.82725
11901.96162
11900.04977
11898.08882
11896.07591
11894.00811
11891.88247
11889.69601
11887.44567
11885.12835
11882.74087
11880.27998
11877.74233
11875.1245
11872.42298
11869.63414
11866.75427
11863.77953
11860.70598
11857.52955
11854.24606
11850.85117
11847.34044
11843.70925
11839.95285
11836.06632
11832.04457
11827.88234
11823.57417
11819.11438
11814.49708
11809.71614
11804.76514
11799.63737
11794.32578
11788.82296
11783.12103
11777.21164
11771.08585
11764.73407
11758.14592
11751.30954
11744.20232
11736.64287
11725.95647
11673.74683
11255.39451
9063.167968
458.5917589
250.2053494
250.0000197
250
250
250
250
250
250
250
250
250
250
250
250
250
250
250
250
250
250
250
250
250
250
250
250
250
250
250
250
250
250
250
250
250
250
250
250
250
250
250
250
250
250
250
250
250
250
250
250
250
250
250
250
250
250
250
250
250
250
250
250
250
250
250
250
250
250
250
250
250
250
250
250
250
250
250
250
250
250
250
250
250
250
250
250
250
11968.82742
11969.42788
11972.03563
11974.48302
11976.66864
11978.58591
11980.2343
11981.61523
11982.73191
11983.5892
11984.19356
11984.55294
11984.67663
11984.57518
11984.26017
11983.74413
11983.04034
11982.16266
11981.1254
11979.94308
11978.63035
11977.20178
11975.67171
11974.05414
11972.3626
11970.60998
11968.80852
11966.96965
11965.10394
11963.22106
11961.32974
11959.43772
11957.55176
11955.67765
11953.8202
11951.98331
11950.16995
11948.38225
11946.62156
11944.88847
11943.1829
11941.50415
11939.851
11938.22173
11936.61424
11935.02605
11933.45444
11931.89641
11930.34883
11928.80841
11927.27182
11925.73562
11924.19641
11922.65075
11921.09527
11919.52661
11917.94149
11916.33667
11914.70897
11913.05531
11911.37262
11909.65791
11907.90824
11906.12069
11904.29236
11902.4204
11900.50194
11898.5341
11896.51399
11894.4387
11892.30528
11890.11074
11887.85201
11885.52599
11883.12949
11880.65925
11878.11192
11875.48407
11872.77217
11869.97259
11867.08159
11864.09531
11861.00979
11857.82093
11854.52451
11851.11616
11847.59138
11843.9455
11840.17369
11836.27095
11832.23211
11828.05178
11823.72436
11819.24404
11814.60473
11809.8001
11804.82351
11799.66799
11794.32619
11788.79037
11783.05233
11777.10336
11770.93416
11764.53479
11757.89456
11751.00136
11743.83248
11736.20761
11725.47011
11673.47192
11257.05349
9073.543016
458.7501368
250.2057602
250.0000198
250
250
250
250
250
250
250
250
250
250
250
250
250
250
250
250
250
250
250
250
250
250
250
250
250
250
250
250
250
250
250
250
250
250
250
250
250
250
250
250
250
250
250
250
250
250
250
250
250
250
250
250
250
250
250
250
250
250
250
250
250
250
250
250
250
250
250
250
250
250
250
250
250
250
250
250
250
250
250
250
250
250
250
250
250
11969.394
11969.99363
11972.60256
11975.05111
11977.23777
11979.15595
11980.80512
11982.18672
11983.30395
11984.16168
11984.76638
11985.126
11985.24985
11985.14846
11984.83344
11984.31733
11983.6134
11982.73554
11981.69804
11980.51544
11979.20239
11977.77345
11976.243
11974.62501
11972.93301
11971.17991
11969.37794
11967.53851
11965.67221
11963.7887
11961.89669
11960.00393
11958.11717
11956.24219
11954.3838
11952.54587
11950.73138
11948.94246
11947.18044
11945.44589
11943.73873
11942.05826
11940.40325
11938.77196
11937.16228
11935.57175
11933.99759
11932.43685
11930.88635
11929.34282
11927.80288
11926.26314
11924.72014
11923.17047
11921.61073
11920.03757
11918.44768
11916.83782
11915.20483
11913.54559
11911.85704
11910.13618
11908.38006
11906.58575
11904.75037
11902.87104
11900.94489
11898.96904
11896.94059
11894.85663
11892.7142
11890.5103
11888.24186
11885.90578
11883.49884
11881.01779
11878.45927
11875.81982
11873.09591
11870.28388
11867.37997
11864.38031
11861.2809
11858.07761
11854.76618
11851.3422
11847.80111
11844.13817
11840.3485
11836.42701
11832.36841
11828.16722
11823.81771
11819.31392
11814.64961
11809.81825
11804.813
11799.62666
11794.25165
11788.67997
11782.90315
11776.9122
11770.69758
11764.24908
11757.55583
11750.60556
11743.37554
11735.68654
11724.89905
11673.09944
11258.50963
9083.245971
458.8982993
250.2061461
250.0000198
250
250
250
250
250
250
250
250
250
250
250
250
250
250
250
250
250
250
250
250
250
250
250
250
250
250
250
250
250
250
250
250
250
250
250
250
250
250
250
250
250
250
250
250
250
250
250
250
250
250
250
250
250
250
250
250
250
250
250
250
250
250
250
250
250
250
250
250
250
250
250
250
250
250
250
250
250
250
250
250
250
250
250
250
250
11969.97664
11970.57581
11973.18605
11975.63584
11977.8236
11979.74276
11981.39277
11982.77507
11983.89288
11984.75107
11985.35612
11985.71598
11985.83997
11985.73863
11985.42358
11984.90735
11984.20323
11983.32512
11982.2873
11981.10433
11979.79086
11978.36146
11976.83049
11975.21195
11973.51935
11971.76561
11969.96294
11968.12277
11966.25567
11964.3713
11962.47837
11960.58462
11958.69679
11956.82066
11954.96102
11953.12175
11951.30581
11949.51531
11947.75158
11946.0152
11944.30605
11942.62345
11940.96613
11939.33238
11937.72004
11936.12666
11934.54947
11932.98547
11931.4315
11929.88428
11928.34043
11926.79652
11925.2491
11923.69476
11922.13008
11920.5517
11918.95631
11917.34067
11915.7016
11914.03596
11912.34071
11910.61283
11908.84936
11907.04737
11905.20397
11903.31627
11901.38139
11899.39646
11897.35857
11895.26479
11893.11215
11890.89766
11888.61824
11886.27076
11883.85201
11881.35872
11878.7875
11876.13491
11873.39737
11870.57122
11867.65267
11864.63781
11861.52262
11858.30294
11854.97445
11851.5327
11847.97307
11844.29077
11840.48082
11836.53807
11832.45714
11828.23242
11823.85809
11819.32803
11814.63587
11809.77492
11804.73816
11799.5182
11794.10727
11788.49715
11782.67917
11776.64415
11770.38233
11763.88336
11757.13622
11750.12855
11742.83767
11735.08535
11724.24825
11672.63357
11259.76778
9092.288419
459.0364357
250.2065073
250.0000198
250
250
250
250
250
250
250
250
250
250
250
250
250
250
250
250
250
250
250
250
250
250
250
250
250
250
250
250
250
250
250
250
250
250
250
250
250
250
250
250
250
250
250
250
250
250
250
250
250
250
250
250
250
250
250
250
250
250
250
250
250
250
250
250
250
250
250
250
250
250
250
250
250
250
250
250
250
250
250
250
250
250
250
250
250
11970.57654
11971.17564
11973.78728
11976.23841
11978.42736
11980.34754
11981.99844
11983.38149
11984.49992
11985.35859
11985.964
11986.32411
11986.44824
11986.34694
11986.03182
11985.51545
11984.81111
11983.93268
11982.89449
11981.71108
11980.3971
11978.96714
11977.43555
11975.81632
11974.12298
11972.36844
11970.56491
11968.72382
11966.85573
11964.97029
11963.07622
11961.18124
11959.29209
11957.41453
11955.55336
11953.71244
11951.89472
11950.10232
11948.33654
11946.59795
11944.88644
11943.2013
11941.54126
11939.9046
11938.28916
11936.69247
11935.11174
11933.54398
11931.98603
11930.43457
11928.88622
11927.33755
11925.78512
11924.22547
11922.65519
11921.07091
11919.46933
11917.84717
11916.20125
11914.52844
11912.82568
11911.08993
11909.31824
11907.50767
11905.65531
11903.75828
11901.81368
11899.81862
11897.7702
11895.66548
11893.50148
11891.27519
11888.98353
11886.62335
11884.19144
11881.6845
11879.09914
11876.43188
11873.67914
11870.83721
11867.9023
11864.87046
11861.73763
11858.4996
11855.15203
11851.69041
11848.11006
11844.40612
11840.57356
11836.60712
11832.50135
11828.25054
11823.84876
11819.28977
11814.56708
11809.67385
11804.60292
11799.34674
11793.89739
11788.24649
11782.38521
11776.3042
11769.99358
11763.44289
11756.64099
11749.57548
11742.22372
11734.40844
11723.52147
11672.0775
11260.83181
9100.680172
459.1647054
250.206844
250.0000199
250
250
250
250
250
250
250
250
250
250
250
250
250
250
250
250
250
250
250
250
250
250
250
250
250
250
250
250
250
250
250
250
250
250
250
250
250
250
250
250
250
250
250
250
250
250
250
250
250
250
250
250
250
250
250
250
250
250
250
250
250
250
250
250
250
250
250
250
250
250
250
250
250
250
250
250
250
250
250
250
250
250
250
250
250
11971.19465
11971.79407
11974.40724
11976.85979
11979.05
11980.97129
11982.62313
11984.00698
11985.12606