/*--------------------------------*- C++ -*----------------------------------*\
| =========                 |                                                 |
| \\      /  F ield         | OpenFOAM: The Open Source CFD Toolbox           |
|  \\    /   O peration     | Version:  v1706                                 |
|   \\  /    A nd           | Web:      www.OpenFOAM.com                      |
|    \\/     M anipulation  |                                                 |
\*---------------------------------------------------------------------------*/
FoamFile
{
    version     2.0;
    format      ascii;
    class       volScalarField;
    location    "0.003";
    object      wallHeatFlux;
}
// * * * * * * * * * * * * * * * * * * * * * * * * * * * * * * * * * * * * * //

dimensions      [1 0 -3 0 0 0 0];


internalField   uniform 0;

boundaryField
{
    inlet
    {
        type            calculated;
        value           uniform 0;
    }
    object
    {
        type            calculated;
        value           nonuniform List<scalar> 
400
(
656183.5001
656350.5809
656420.1939
656465.4326
656499.6352
656527.5408
656551.3986
656572.4549
656591.4738
656608.9519
656625.2355
656640.5674
656655.1309
656669.0641
656682.4734
656695.4418
656708.0413
656720.3225
656732.3353
656744.1153
656755.6965
656767.1069
656778.37
656789.5077
656800.538
656811.4768
656822.3383
656833.1379
656843.8825
656854.5866
656865.2574
656875.9032
656886.5316
656897.1484
656907.7594
656918.3698
656928.9831
656939.6021
656950.2324
656960.873
656971.5262
656982.1946
656992.8779
657003.5749
657014.288
657025.0124
657035.75
657046.4955
657057.25
657068.0084
657078.7671
657089.5264
657100.2795
657111.0113
657121.7443
657132.4404
657143.1176
657153.7554
657164.3684
657174.9164
657185.4353
657195.8816
657206.2628
657216.5678
657226.7882
657236.9247
657246.9556
657256.8925
657266.7032
657276.372
657285.928
657295.3248
657304.5656
657313.6476
657322.5482
657331.2568
657339.7721
657348.0591
657356.1374
657363.9811
657371.569
657378.9089
657385.9645
657392.7433
657399.2164
657405.3764
657411.2034
657416.6944
657421.8325
657426.5869
657430.9702
657434.9336
657438.4993
657441.6142
657444.277
657446.4815
657448.2053
657449.4146
657450.121
657450.2662
657449.8698
657448.9014
657447.3357
657445.1419
657442.3263
657438.8625
657434.7076
657429.8685
657424.3017
657418.0133
657410.9538
657403.101
657394.4705
657384.9921
657374.6478
657363.4411
657351.3385
657338.3058
657324.3283
657309.3675
657293.4127
657276.4312
657258.3959
657239.2656
657219.0414
657197.6831
657175.168
657151.449
657126.5273
657100.3397
657072.8932
657044.1355
657014.0416
656982.5824
656949.7285
656915.4542
656879.7314
656842.516
656803.7767
656763.5117
656721.6495
656678.1777
656633.069
656586.2859
656537.8138
656487.5712
656435.5803
656381.7918
656326.1644
656268.675
656209.2814
656147.9637
656084.6848
656019.4028
655952.1088
655882.7537
655811.3116
655737.7334
655662.024
655584.1294
655504.0303
655421.6686
655337.0463
655250.1291
655160.8716
655069.2705
654975.2784
654878.8626
654780.0292
654678.7263
654574.9272
654468.5886
654359.7478
654248.3436
654134.3544
654017.7743
653898.5651
653776.7182
653652.2299
653525.0737
653395.2294
653262.6709
653127.441
652989.4931
652848.8378
652705.4609
652559.3728
652410.5794
652259.074
652104.909
651948.0778
651788.6377
651626.6352
651462.1859
651295.3916
651126.431
650955.5824
650783.1438
650609.4487
650435.2646
650443.4632
650560.286
650670.9867
650779.281
650887.8836
650998.439
651111.83
651228.6155
651349.0969
651473.5245
651602.0163
651734.686
651871.5805
652012.7884
652158.3269
652308.2291
652462.5316
652621.2431
652784.3573
652951.8873
653123.8586
653300.2419
653481.0606
653666.2664
653855.9039
654049.9399
654248.3587
654451.1379
654658.3008
654869.7888
655085.5909
655305.712
655530.0963
655758.7408
655991.5824
656228.6302
656469.8267
656715.1441
656964.5066
657217.9153
657475.3176
657736.6227
658001.8071
658270.7942
658543.5343
658819.9323
659099.8919
659383.3868
659670.2906
659960.5101
660253.9664
660550.4913
660849.971
661152.2746
661457.2937
661764.8276
662074.7521
662386.8622
662700.9716
663016.8925
663334.3241
663653.127
663972.9244
664293.5037
664614.5432
664935.7345
665256.6881
665576.9594
665896.2063
666213.9372
666529.657
666842.7487
667152.7269
667458.8312
667760.4073
668056.653
668346.6507
668629.5326
668904.1033
669169.3043
669423.7365
669666.0162
669894.3664
670107.0634
670301.9377
670476.498
670628.0286
670753.3197
670848.696
670909.7276
670931.141
670906.7293
670828.7413
670687.6161
670471.2805
670164.0202
669744.8527
669185.0979
668443.7439
667450.1203
662928.2123
657700.3736
652576.3214
647541.4148
642565.068
637617.7307
632675.4539
627720.2545
622739.6043
617725.2215
612671.9381
607576.8731
602438.8208
597257.6394
592034.1324
586769.6233
581465.9417
576125.1045
570749.5057
565341.6231
559903.9507
554439.3338
548950.3912
543439.9398
537910.7276
532365.5744
526807.2582
521238.3275
515661.1461
510075.2804
504414.0426
498712.7045
493078.7743
487460.3057
481854.1887
476261.8523
470685.5537
465127.6885
459590.5384
454076.2861
448586.9912
443124.6066
437691.0202
432288.0669
426917.482
421580.9105
416279.8592
411015.7632
405790.0156
400603.9167
395458.6422
390355.376
385295.1152
380278.7157
375307.1617
370381.1975
365501.6035
360669.0832
355884.2595
351147.7049
346459.962
341821.5254
337232.8173
332694.2287
328206.0986
323768.7487
319382.4648
315047.4712
310764.0068
306532.222
302352.2607
298224.2628
294148.2874
290124.4187
286152.6779
282233.104
278365.6847
274550.3846
270787.1406
267075.9219
263416.6154
259809.1329
256253.3643
252749.1829
249296.4595
245895.0564
242544.7939
239245.5056
235997.0392
232799.2109
229651.8432
226554.7558
223507.7525
220510.6712
217563.3142
214665.5139
211817.0937
209017.8817
206267.8561
203576.3138
)
;
    }
    outlet
    {
        type            calculated;
        value           uniform 0;
    }
    front
    {
        type            wedge;
    }
    back
    {
        type            wedge;
    }
}


// ************************************************************************* //
