/*--------------------------------*- C++ -*----------------------------------*\
| =========                 |                                                 |
| \\      /  F ield         | OpenFOAM: The Open Source CFD Toolbox           |
|  \\    /   O peration     | Version:  v1706                                 |
|   \\  /    A nd           | Web:      www.OpenFOAM.com                      |
|    \\/     M anipulation  |                                                 |
\*---------------------------------------------------------------------------*/
FoamFile
{
    version     2.0;
    format      ascii;
    class       labelField;
    location    "7/lagrangian/dsmc";
    object      origId;
}
// * * * * * * * * * * * * * * * * * * * * * * * * * * * * * * * * * * * * * //


47581
(
36837
41914
660
30268
34033
16735
40434
36695
6215
5349
9901
44835
39134
42010
34805
24855
33422
2046
4347
45015
6663
18010
45084
829
2668
47213
679
34295
38148
20330
21259
44994
34324
35797
37454
27931
8760
29746
18319
2739
36096
30132
40209
42668
37721
34206
11113
20483
39180
17756
31651
29694
41427
63
30595
6860
15551
44989
9829
41455
5581
46604
17792
44877
39826
4786
24860
39921
26315
25892
31156
10338
14363
34974
20045
34427
40642
30451
13354
20611
27468
40974
12173
20244
22388
8888
13725
28961
37828
10628
28083
11194
35755
44142
10597
40041
34981
45698
21268
14513
361
29176
9306
24778
26318
10519
16650
36615
17216
46127
24076
3587
20050
31821
3622
40115
46095
39448
24867
32171
15060
46980
30468
11885
12883
39762
34794
20673
32072
917
32298
33189
46630
15959
10536
42083
18459
43087
15383
4367
2622
27231
6436
26341
14431
5725
1437
16432
31695
47294
18428
316
7320
16764
9833
7638
29408
40571
4849
20135
44911
46926
34293
16752
31349
20175
20650
43793
39922
9003
35927
38827
9033
29925
27170
27665
9556
35378
28049
38929
8219
13838
18624
9290
7305
43907
23358
46805
16510
24793
31478
23512
12220
17220
7493
21152
24086
17522
25968
4937
26657
38469
27530
8314
32946
565
16994
34257
23549
74
10891
9474
14733
28740
40935
13515
10709
14444
34437
15033
34513
26288
19208
22247
9772
21451
31131
40262
41932
8092
2002
32845
18209
30270
20409
46908
22692
1191
10478
42931
21229
141
42474
20669
20027
2574
38714
9392
31429
5096
40162
24405
18101
6381
524
5820
21235
36630
11397
21901
46512
11549
41845
11098
2028
47219
29343
19280
46963
10318
35471
5673
14807
23886
14459
31362
21735
22007
46439
16597
42542
21552
12963
3039
18420
2404
2423
29550
16903
9701
40228
1549
31754
6153
23477
16263
13060
28158
5271
22129
26146
9771
30439
30506
29906
17370
45022
37478
23989
16835
40120
47458
17950
13442
40197
24411
14446
39184
36237
20169
39267
28586
8659
47448
27091
40980
25939
28953
31567
1659
24569
1716
33814
34154
42844
41259
43680
31527
32796
45808
1299
32243
44074
2703
1098
27810
37008
2784
46854
32354
19590
11562
18332
34576
37497
9596
13842
43535
36087
8800
17700
6529
11684
3458
16727
30690
47150
44457
27628
21273
35781
20296
9066
27849
34546
13748
44546
34077
20209
42718
15746
20769
18576
35638
36587
39545
36921
43522
43318
13081
30501
47071
20441
29901
47060
40488
27259
47023
11152
32575
3001
20692
10528
32891
19147
41353
36176
21881
5853
20850
3192
40620
34087
14645
36311
6693
34180
6570
21537
15970
43750
1896
22667
25636
43168
384
26391
41656
28121
33502
15108
36651
8545
6002
13508
4081
5925
44243
37282
44357
35324
41434
16841
11200
37914
38044
35060
27526
35291
39674
21736
21983
22338
27220
37934
32938
11598
26861
6959
30602
4208
28373
11524
37751
4357
31071
25412
323
20060
24935
27392
3656
15996
26129
45199
18092
28026
23528
9073
44922
35498
30013
12493
19235
46730
27016
44406
2709
3608
14940
3283
28653
2071
9254
18955
46698
4804
31694
13144
46631
36724
10550
31137
33616
40557
24111
7225
39075
19628
32638
47389
5028
46742
35823
42513
39072
10931
38170
4500
31383
47118
47564
7959
18761
46373
3649
21661
44956
39096
37673
37794
3554
38633
5847
32240
30483
32534
26607
1693
32984
40303
25293
4870
27083
8922
28994
31756
12835
24764
35105
38737
43926
18923
8796
360
4004
37965
2727
2651
27821
29740
7082
28929
8883
38280
3285
35615
13497
43660
25659
4
33597
4550
5730
29128
31097
22020
7419
24122
6870
38097
26821
11530
41000
29778
37795
43838
36932
854
13048
43708
38076
11691
16512
14387
18739
7983
46168
16809
44611
26563
7243
19192
21655
36586
14788
53
17462
23685
40016
20346
22087
13803
2803
26122
21207
17577
19127
37214
40047
23809
23796
5661
28697
37448
38495
4593
27012
22135
33499
33157
22014
15435
11787
13600
18479
32079
214
35815
22716
28501
37130
39888
10574
25450
35652
2963
4977
29607
43426
35469
18222
7727
11481
39103
12853
39330
5726
44824
30178
24808
28924
16637
2100
12405
1027
14735
85
9273
23387
4769
23618
1990
43119
9356
45682
46328
39771
16922
39487
37296
30315
39701
46947
28207
19971
451
708
22411
26220
29337
41157
41567
42162
28293
18284
40529
11258
21544
6060
26311
4070
42609
41261
34820
33706
34235
31791
11925
20130
31844
9722
5603
26177
32996
10770
18750
2777
9779
17092
8303
44478
38998
21703
6480
15730
15130
9104
15401
7052
40840
23941
27206
7298
7728
16449
7904
15662
29118
16473
20697
12980
3375
20744
10490
39719
254
33715
2598
12830
34819
14659
28387
21623
5783
44995
13230
967
29865
17622
42958
1099
39421
15755
5753
40093
28530
20259
17119
42301
12800
33859
34598
37865
32288
42015
46670
25693
27425
28698
9463
8524
9816
1823
18800
14496
23522
23041
10388
32077
3645
44459
25083
19166
14604
42400
40075
3604
22752
38151
17333
44195
22915
36059
33208
4691
792
28452
1867
14719
11591
31921
29697
36325
19650
43657
5439
5965
25518
10821
35343
41163
39891
16900
9592
41297
19802
32087
34255
11089
21779
12228
28968
11819
42686
16967
38542
8857
7879
6009
9800
22699
34227
1034
37527
44118
31177
26426
25191
32271
17398
26250
5562
40198
30708
22394
44903
39818
257
47254
7378
4065
44026
20847
37600
19678
16317
44691
37812
22464
46546
20751
24121
17734
16238
30735
34637
35657
6681
20290
42302
39869
7325
31324
34183
3459
24446
32122
28544
33082
6386
2577
13453
15569
46559
33768
2351
18294
32493
9294
30070
37937
30380
25049
39621
15800
16200
3808
43757
4992
24056
26285
40285
40179
9209
34534
7905
13663
26576
30099
35984
15651
6726
2318
25467
33041
47350
22538
20309
36222
1892
33172
2689
24325
33377
23654
25355
8951
28380
36408
41804
10649
19549
2757
4671
2602
23850
20053
12045
20038
36913
47013
25402
9672
11552
3592
27130
44259
45230
6548
6558
38321
32735
14410
10043
45995
20157
16196
11241
2224
21532
38072
28732
46339
25393
12246
149
6848
21354
25129
23304
39481
30301
14651
7985
3449
24103
20146
3706
5031
9048
31536
42515
14707
31292
8162
20889
40447
28303
4287
38912
17140
36563
16730
15184
24551
42436
15306
34644
8079
15985
32225
25219
12049
27313
19054
21883
5356
9097
2132
9053
16131
4114
19122
7529
30166
31403
13289
37736
40111
7350
2190
22304
27352
29982
26649
41982
6649
34034
3705
37706
47534
1872
12383
12675
35426
45826
44552
26575
16073
44943
12126
8955
16591
41153
11068
29039
6847
29633
13392
38458
33950
35874
2054
22810
4324
30109
15260
37662
2066
36851
44572
27183
9611
26038
16364
35394
42706
1395
35582
765
17076
3685
22327
2953
20324
25556
22662
33135
37601
25813
6628
24748
31550
41734
3175
13384
10666
34217
38974
24617
38236
31902
40741
6325
9112
24579
41355
16658
1176
32505
32512
27157
37057
25439
30841
13418
28156
18140
15361
17797
23003
1162
963
16172
8603
45144
5338
46463
37476
27389
33229
18341
12669
8918
20938
12314
41674
19768
44123
31499
21265
8936
21878
24545
5166
22975
46398
209
45562
15298
40132
29626
41650
20901
3657
14171
12028
42067
11181
6754
22606
25011
28964
29968
45659
22697
2388
30154
37388
1537
4801
24033
36270
32306
39735
38973
13695
23992
44952
37833
28014
835
44700
17489
12327
27568
430
11746
9863
19712
5157
30374
13737
16403
15343
40462
40846
31241
46209
23111
39629
2806
43827
18838
13622
34515
751
17840
5974
11012
32708
46614
6050
45953
35889
45304
8106
10061
4596
30060
25123
2858
8573
13186
1021
42444
34480
32572
46861
47195
8488
20778
33514
46629
25461
8148
21455
9913
7657
8964
26672
6235
7189
16269
25700
7158
17554
32134
29161
18109
6932
40937
45975
13299
36688
8180
4624
10681
6568
2977
34928
6904
12320
41003
43537
26230
21464
34854
10153
4835
1694
604
41551
36142
8154
40356
36867
44710
21121
38683
15235
17160
28668
28217
41039
10515
42528
45629
11161
41788
15877
6322
43166
46996
1806
29209
32809
30945
41176
34694
962
42546
2810
9401
35660
22591
18501
18066
44491
17491
47409
1070
21718
29150
26387
15757
33874
3204
45877
38938
2056
34626
4491
33221
28202
46336
42726
8005
17069
27466
43211
38160
22211
7190
40004
3698
36466
41484
30492
2564
43454
23932
33947
7612
41985
34420
28637
34402
19753
8137
27950
15974
25808
10270
9454
28171
3193
42331
3784
5137
44732
23819
27613
11365
19595
37000
41453
5099
19845
4900
39711
4580
18774
1718
9996
32738
14640
17077
15724
15968
38611
20252
3910
26909
46585
32542
1010
21013
12672
1763
13589
22711
6596
16034
31127
36815
30588
10426
737
2282
4235
7854
28318
4642
6034
14803
15953
21091
2408
43611
16215
19566
39658
35838
6909
17865
46184
19035
22358
2016
18685
28152
24293
32686
5225
10376
14593
32444
31857
6798
16825
25057
29046
23639
29625
14977
45924
13465
18870
18090
14355
24590
31382
1125
2319
22299
14087
22440
36041
4078
14577
37503
27207
3248
25583
21592
32895
12490
37519
41973
15238
47505
22022
14684
43958
34130
10757
12926
22236
33838
24483
23454
17259
3526
3189
7064
22151
3694
24236
37139
11778
28902
47087
8998
27104
13155
30980
23463
26853
3275
18542
891
12388
38764
38759
18601
32307
33580
27244
3769
8333
14863
45720
22996
45742
38856
12463
36523
16502
28277
30808
30993
28117
22682
17594
5110
11669
12288
40121
5240
46493
5999
37680
27195
17260
9916
30758
21590
21496
43336
26359
28880
44983
25665
28936
45060
47430
14992
37602
33846
13850
36874
38220
15263
33660
6212
859
9364
5722
20903
15149
22142
33793
32161
27113
33350
1248
24724
18679
20033
26165
11199
1620
42314
42447
6540
21775
14004
7549
39102
25535
26267
11876
546
25052
13355
44284
24984
11061
18549
42234
41152
13447
29669
32316
5511
23955
20713
1541
468
7007
46372
12916
4387
16162
29872
33711
16540
3504
40607
35272
23331
22517
7450
13037
12481
43340
24827
23614
28111
23311
41904
6902
40358
4314
16504
9490
1171
10559
17511
31795
24911
24850
38268
24600
34601
41652
8359
40912
29057
29018
32013
24230
26155
11184
10107
14462
7379
7392
166
15711
11844
7035
29123
24839
40365
24757
13249
45942
1692
22291
6475
24297
40913
897
31100
40742
37989
44493
34771
23502
15264
20183
46499
35195
27725
23211
25375
20648
4820
41482
18396
40131
9905
41720
42024
39308
16506
41524
38508
15620
35224
41856
12902
24452
3965
34533
46283
38416
27018
19732
21556
3180
38177
27911
40891
18179
40706
15715
4143
29635
1180
25624
5909
23071
29668
15350
42936
37521
37196
17740
22179
11295
11916
23393
41546
21089
27726
38089
14176
2203
1810
47132
43857
29909
40914
46798
15259
22463
7130
3737
19773
25545
37176
45276
18983
9381
25322
46637
13502
45332
16698
7139
18151
8997
44889
6339
33936
22824
33565
10205
37614
33848
34231
32654
43556
7670
40969
19896
33435
21536
31982
6156
22032
6504
21008
29311
37239
25315
28466
34791
36552
15626
4854
8725
6148
18949
19196
22385
24701
9100
19534
41373
13455
37373
12543
43054
35041
46669
18594
21889
30755
29715
1000
44834
21320
6617
401
21038
44226
15673
13656
21638
17656
1375
221
34620
24350
29182
33650
24665
42988
12624
1053
17408
13639
23379
2842
25955
16628
44048
4268
11873
13629
38448
13781
21734
35995
41166
2959
1747
10023
1344
998
34699
5276
17250
19784
3505
43113
32001
26235
31234
37879
37405
26891
35217
47187
21819
19691
33351
28849
45476
17862
27579
45664
31250
40716
22050
43360
27073
22316
10040
46349
17517
42069
4000
30699
40767
39189
35075
6836
38204
3277
23839
44696
7682
25966
14918
24837
18438
33678
15713
29597
6043
19897
18290
11904
29959
1112
26511
21891
3544
28478
37897
35082
25131
33641
5228
10398
16993
31240
37889
26232
29075
37464
31522
28984
5467
15327
19429
13657
41992
1069
3153
23912
6007
5573
7339
16676
5263
42120
37730
17998
13420
14850
15384
27909
26705
34720
37072
10493
43681
2494
28339
11261
529
32889
26653
11616
36999
28656
9426
18118
20666
19687
38551
25262
30309
32748
26062
42582
46225
34826
3240
15303
21345
37570
15325
2863
1101
21334
37869
39336
40893
41861
46964
11214
44257
43836
41334
16160
26484
45974
18054
14600
37026
18386
15957
29775
43189
8910
207
21303
15541
20475
32955
40633
9944
14500
9984
31392
2052
37016
27005
8072
597
31028
18400
27337
26444
14228
38870
13317
217
12764
24327
8400
11225
11388
23730
23580
11878
15403
14973
14296
42410
37409
22935
1435
40070
34216
28639
25386
2149
32364
3849
37744
31591
47333
37612
45020
26357
31752
5704
26929
15088
7381
10317
37259
4164
29309
29482
17033
30377
13919
34492
515
18971
43012
29735
13628
9723
32554
2532
9110
17880
8907
8099
46936
20523
21845
35921
3205
2085
46240
31777
21016
9690
10104
21109
28643
23308
5588
17971
37834
35059
41431
34448
17863
24636
34015
47231
40470
47053
29349
21204
35432
285
6364
42932
33710
34955
31619
45453
9046
28688
46043
45231
4185
38312
21185
46333
23449
43354
19736
33409
9124
3000
11222
45383
24943
4032
28196
38745
38453
44979
25144
25713
39749
23445
20990
15753
30978
34731
11718
38022
24723
6508
10013
4271
29139
9021
1065
16177
36477
19525
35271
1950
23865
29932
39690
1412
703
31004
3292
23179
26975
37408
17874
36418
21918
16102
34586
23353
33444
20394
1029
1642
39540
32931
13571
19852
42742
302
13295
31041
42885
36415
1583
19869
1182
11997
18589
25172
16048
17764
17667
16536
36164
23154
30505
32698
34330
13930
3540
18458
5370
10791
45746
9451
29612
15061
26842
5264
32798
38760
28957
27046
34723
15563
28649
46483
32920
18575
17064
27643
40364
16815
44655
41972
44526
32678
35548
42112
27630
36306
16222
43719
2475
43252
4488
28633
39069
24267
2952
5206
39471
46479
9072
35539
43370
34730
2015
26349
15784
29898
2510
22735
10475
38927
8644
27660
43299
42001
14614
24874
26088
15131
40202
26802
36450
3247
20159
32310
35818
21130
43861
24897
20413
16886
13458
35106
18210
38049
6169
1952
32989
3281
23857
42315
43317
40655
9962
22914
36337
25076
34314
7114
14976
10365
11808
10634
18184
15365
18421
721
19146
17915
38591
25423
880
32123
34548
13754
2242
27625
28836
10704
216
33750
32795
14880
23576
7480
41201
17975
5549
47395
13772
28128
18755
10264
33940
42113
169
17305
34680
8334
3754
15337
29780
26336
8541
42366
7637
31314
19031
2820
23134
24291
28720
26832
18743
20437
38433
29568
16839
34504
2761
29052
19106
27144
18105
26448
16917
3558
22093
18855
11031
9377
41995
28035
38241
45690
11057
9411
44333
46179
19040
4046
434
41478
44890
34688
19662
20190
32740
37838
44753
5326
11065
18893
14159
3022
20473
638
6916
15634
20714
7456
1067
33163
40824
2070
25891
22404
33757
41694
8657
44071
39947
31119
38505
13666
34722
28108
7393
8293
4173
46237
44468
17908
23742
45225
35955
21164
9184
2525
26693
4947
42918
24470
42571
366
15213
9691
35825
7023
31859
21032
10774
7093
45159
20286
41535
41814
10387
8231
5019
37140
39730
2481
14505
27331
2075
15902
38795
1128
10560
36362
1418
15550
24313
25309
26731
47342
27758
41362
34471
46388
36529
4277
11143
46704
988
44521
19695
5369
13089
28622
42049
42309
41746
8454
30616
23704
26604
43346
12051
23017
10194
35437
1777
28099
42171
33353
4283
38880
17371
44699
11149
41988
5642
6321
18821
39411
9176
5815
19705
18887
25215
180
28741
13113
36952
25474
18645
21365
10334
20147
36888
25893
494
38285
23104
14472
16843
16794
19851
30828
9697
40875
9765
33478
45788
10209
27249
37725
14747
10304
46218
41600
25989
22880
31317
32018
8179
35321
5595
40341
40671
8107
16920
25787
29827
11980
40456
34368
5936
8382
6602
37606
36121
2738
32696
27672
3242
27872
33637
23924
20057
40560
43761
40849
28775
19771
39374
21309
44155
3182
28246
6627
31546
13770
14708
11694
3402
15506
16542
38578
21155
31207
12474
7268
28107
25198
23961
28675
37747
13350
22004
27364
1363
14667
24495
22944
4890
20943
1741
26045
38651
3731
19175
7395
21852
2636
32151
8443
7135
5227
26836
28896
35200
11366
7863
34196
30910
25825
39464
4091
25427
28536
22376
20145
46906
13731
25347
44782
17163
19794
44711
44609
3235
14326
2813
24976
37590
34121
25672
42259
471
28341
44
30342
21956
22614
30976
36345
13863
7821
31708
36019
1767
32644
3542
45265
25351
3108
27174
27786
28977
8979
37802
6629
17633
5235
26788
43561
18347
1119
35050
45335
10627
24403
44009
9269
36656
38635
10364
44635
19563
12821
19275
39566
26327
39923
1268
29748
16681
39617
38846
38191
35674
10482
22740
35042
7402
112
17339
42751
34542
16608
36672
31040
4434
22368
30683
38517
29187
35677
20001
14711
15247
22844
26772
23827
9201
38540
12709
45503
9676
1459
22324
28282
22103
16121
33213
35972
11564
36780
7476
1699
18403
22799
2782
33476
25035
29811
27794
20664
30165
31291
10344
20125
4514
42244
47146
25526
22894
26198
42231
33908
20851
21095
33003
25429
29729
16404
32569
33527
20525
7941
20729
25890
10187
16232
15152
28364
8435
40330
32556
45155
44872
46889
46196
13500
24107
10320
43322
18316
7591
13100
45526
16833
21039
17487
46238
30289
7740
29618
11886
3047
18640
13568
30810
33654
33998
33968
38461
14076
28636
28304
5858
3330
35904
20102
14895
3767
21672
853
1704
37210
8341
29387
17527
8018
12231
28208
26383
20348
30466
6605
17544
25679
33303
11654
19850
42256
40813
40502
30860
14307
47424
1007
33779
44111
45295
37953
17351
6119
47267
36758
12
39360
43156
42043
43607
14287
21337
35658
21645
7230
35964
1906
16443
5046
26646
36679
44839
20400
22645
14901
37860
25884
47317
40178
45470
42467
44684
42230
24119
5095
42110
4034
14352
38385
14227
390
13114
13219
3468
17189
35033
18217
46522
31701
22248
21339
25240
29436
17420
6230
23668
45414
1488
40640
28901
1037
33261
19002
237
3114
26566
12619
15708
45228
28421
22432
15926
27070
34362
23050
11605
4980
14458
19631
44109
27479
12351
20558
28917
32003
21641
9598
42567
30341
2560
20165
19387
44963
45463
11835
601
31895
9575
19697
33949
32270
6086
42907
6809
30151
42850
31061
30387
37501
23181
33901
10461
16281
19508
4072
44650
18150
40684
29281
41066
33301
680
7053
5676
46019
22840
44141
47565
36848
41603
28079
20919
42599
4201
34818
31394
7011
19762
11879
469
19123
12627
2607
29594
18483
34520
36102
7071
39766
45540
14886
43551
6786
13747
26085
25732
15228
44568
40924
33335
22712
23094
8224
22640
30469
38165
363
41210
45569
28623
21812
45982
19935
42890
43313
12267
35284
8096
18293
3117
35229
44038
39515
30584
17653
45334
45783
42670
29225
23631
17600
44290
34545
20593
38021
27755
20909
8438
3998
41514
32257
31900
32578
43563
25414
27517
34606
24052
20767
21248
46241
18858
1281
42284
8394
36544
37942
40736
15284
33513
12381
1795
47017
8490
45343
15329
2093
46380
10453
27030
10082
12718
33161
41981
33937
18417
9030
44051
23666
19023
44021
631
34801
5190
45570
24129
20231
12864
29525
24046
325
13415
34416
44397
1722
26300
11816
43592
40964
900
4673
41470
32442
8330
40586
23737
41388
28432
22448
16231
17953
5835
2435
6665
9069
10615
34169
36948
9634
3713
2399
1492
22973
7262
9993
47472
39538
35835
15556
11924
46132
2859
35772
36513
21292
23560
10308
46318
10680
9631
5821
5793
13035
20638
29946
31212
2712
4373
36676
41204
21817
24618
41444
18716
34141
34724
12048
38060
42675
36816
17602
11255
32664
11477
3927
5987
10505
39803
15674
44367
42339
4578
1370
46652
21411
11889
19692
3329
44281
23425
13980
20922
34712
6730
39851
33973
1959
21998
24697
35235
7274
18865
37036
17789
11507
25863
37048
14077
40743
41635
37080
30809
8474
28969
35870
1503
32978
1049
33595
29742
26527
44571
27213
42072
38333
11496
3143
960
11636
20608
4463
505
20813
26366
29424
36348
17575
12943
2515
41597
31335
23689
11150
22888
9226
41848
40788
22223
33753
32398
16562
25016
17294
9970
44228
11254
45070
22655
728
40753
41920
9365
14204
16619
29505
4602
30793
8455
20438
23345
16961
13687
20865
11692
6154
12585
1158
22355
19468
14524
15684
32096
7483
11456
34834
45590
23575
4700
791
3257
21217
1333
5777
15794
35575
2073
16306
944
16262
20531
34285
24536
2629
27457
45377
30473
45344
14544
39424
6948
30587
10164
14396
14629
35742
13527
24198
20338
38424
22910
6621
32428
40871
35793
33797
608
36910
8373
3465
39779
37090
22599
13483
22339
25836
7507
17614
10079
20642
7946
21009
41115
2882
6374
43225
17798
37173
33246
1609
34317
32118
1153
35534
3807
16606
24530
29855
7354
5901
9614
46002
15969
9923
24223
15043
28203
8266
69
16116
41882
38000
35598
9157
31031
12410
44713
29920
18192
31432
9541
32855
10483
39823
23516
3331
8142
36065
17578
15813
6797
17060
47524
38612
10170
3016
6811
7545
16880
43125
34003
22028
34570
12371
20707
632
2109
37477
1048
11395
43271
2893
18220
46628
27453
10612
6968
42898
34768
3334
28624
24995
10044
43486
42768
3660
45170
11627
16710
43709
22889
12538
18981
25976
6806
8481
37816
43954
21279
45790
6964
39001
40213
5215
21848
9297
5037
21431
37263
35618
27829
38309
43881
17811
29026
16973
27696
16674
7847
29674
27371
43569
19273
41745
40572
2
174
8463
46959
38980
29910
5032
3712
47418
32223
38157
22794
25886
18058
41384
3023
7497
11956
2110
34679
28145
5183
6097
36385
11681
37742
3014
46819
32854
29199
10212
43904
31880
1440
20300
44062
7438
22141
47416
35800
22082
47266
25426
8440
7398
847
33174
15075
46106
11753
44113
30282
18963
5438
23880
258
17986
22382
3755
23957
20280
9812
8413
36628
17215
32129
24292
23089
41401
14320
13969
1339
24
35765
17553
37634
13308
30592
31798
17773
2434
38701
16942
36916
42572
18973
3239
13572
567
11829
30340
1023
42719
30354
29429
15364
11441
4461
8345
37370
42335
6406
43868
24381
39564
41965
1109
19912
45553
43197
14436
27420
4292
25945
34269
32297
15528
31494
13882
17012
23867
6794
8984
25332
29211
7202
36480
47003
37710
15741
32391
19560
38790
32761
30638
7390
36749
17917
5431
46870
21743
26506
3752
5675
14211
26057
21974
46995
10213
24274
30106
6294
30887
26651
10533
43378
31340
15179
11920
40880
25087
22457
11884
2639
44520
18859
43302
33741
5755
14690
19090
14006
40161
37321
28233
44961
24994
3719
29543
7970
12038
31280
18873
32770
14704
15267
87
33173
3783
23678
6526
28949
3085
22169
5655
43423
21790
26039
15888
6181
41785
1945
36928
40443
27481
46072
14824
14857
17573
30779
35083
35308
37671
19708
31726
17266
14572
37244
38875
32128
22745
14207
42144
39578
2880
11958
25996
24332
5857
28082
480
15331
23653
26280
43547
39449
30256
10497
36778
40368
29163
13787
34844
5051
38144
8602
22899
26328
13573
20914
6014
11192
306
37584
38259
14662
33089
1493
36016
14440
4349
2414
27955
8104
22715
25060
31046
36937
34202
9552
41347
31224
24397
30139
18168
32937
31219
39378
13490
17593
45917
22320
6171
14782
16848
31878
5842
46187
5944
821
4454
47241
34426
46988
35662
32720
14815
30996
38384
25436
38660
32818
22104
26814
33306
21658
14603
13717
17085
21465
47328
24049
35494
21627
20271
10302
39650
31363
3607
28462
44941
5315
28944
4093
16150
30184
5233
3225
29203
4686
7277
7624
32705
20874
1750
3433
1199
17397
7677
45934
9203
4661
3734
13163
25923
24382
11998
23974
5885
16812
20736
25726
15045
23190
344
6537
9576
45767
43831
12484
5760
40910
33556
27689
9410
16270
38816
10405
17457
32142
6183
40887
2768
10263
18745
16167
43421
1057
40264
1419
21209
18622
17070
31903
29149
45250
14384
36321
35999
11961
37722
31490
26959
25591
34135
27028
11130
16395
1468
8665
735
38709
13892
20863
36681
8699
1134
18023
20342
45965
5958
40627
7499
30287
26092
22157
40983
2873
29131
4151
20124
40071
33060
25846
32674
15015
4489
40257
43337
26744
35707
10489
42814
38418
24151
29718
5022
5234
31295
42642
31091
31833
42107
33818
42212
8619
14771
18848
26435
22183
11266
46476
46303
32234
5859
33270
33819
30146
23847
40076
35241
27653
22913
46501
10895
26089
17982
21793
37113
219
32166
34775
15249
37141
31116
42077
10086
42834
39070
42490
39935
8791
31748
35141
38620
19617
38897
31464
16071
32178
16095
39406
1851
16022
35403
4186
2381
3938
42166
37099
35679
37211
17080
11107
26670
11586
20367
36141
42279
13758
13780
12754
1826
4709
4685
5402
11402
28906
21467
40410
29273
42181
27640
2773
29799
1224
33027
40828
34498
46445
31298
4397
44987
42679
27982
18057
143
8660
6967
25207
20095
39567
42479
15982
22583
20453
3602
3266
17023
24977
20580
27706
28555
31281
2573
16320
27646
6614
20635
43711
14399
33659
39327
44517
41935
24968
11472
15664
34248
30300
19790
23385
4539
17255
46520
5802
28139
33405
3269
39
36015
1841
11888
13511
10071
45365
17296
13608
32205
43039
8008
36447
23621
6788
26316
23020
7193
14876
29956
8412
41097
13449
21331
29035
14423
30298
37383
39130
13996
126
1334
1655
40276
15040
26938
30550
40583
43380
9027
25266
19137
4563
19141
13818
35747
28562
32207
39737
23374
27394
6698
35304
6373
38472
46395
43199
18107
10827
24479
44589
46770
6826
14741
25104
17179
28800
3034
33574
8042
6327
2306
20363
35036
8395
46575
16629
17586
30365
19108
7131
19359
18708
20355
1773
9799
8446
22754
1113
44803
10422
9430
18296
3497
14681
7583
44497
38313
24821
3680
11418
12546
6593
18614
20759
17875
36588
45940
37343
27075
30090
41083
18533
14591
1482
15489
25612
43841
693
40604
39811
39577
8054
40245
36509
16009
43743
11903
17587
38733
45637
32551
4207
4285
21474
20037
4715
36912
21286
44272
42183
23978
19131
10130
9814
37107
15148
22842
36451
40534
44975
4403
30720
5179
39785
18204
43518
25510
39078
29013
7244
15705
43759
28008
47378
22756
42437
33568
24004
24819
24715
17860
34611
40856
13397
2601
44217
45341
28232
36522
47355
6950
38960
20594
3276
13477
12533
36405
17218
32662
29280
5774
30959
8905
5428
35872
40595
23729
11119
21999
44012
15593
46599
22540
36891
4930
36313
12699
21808
28587
3469
37857
42591
32511
41424
39675
45752
26180
18466
22960
23778
18122
12681
26540
33673
44760
45457
23230
32059
41559
37936
15388
9683
37772
35167
40818
27053
6569
18286
38183
29657
8181
22569
41321
13110
40372
39855
42221
22065
445
15993
4662
38582
15209
45313
21137
30063
15791
7076
45849
46363
26138
43408
40994
35640
41341
11017
8932
2730
17753
21521
19795
27808
45366
29198
30196
37997
9466
5045
15950
36555
1687
9360
37798
19479
12953
33048
21239
4795
30260
40958
35897
35016
22182
21218
39255
41706
28517
19529
12770
157
43924
45870
46887
10096
7109
19931
24123
5382
36105
12989
42784
45802
33460
47117
9310
16902
5939
46951
14509
31433
44490
26804
38295
32948
5207
38380
21948
47499
32383
22722
46983
12554
9038
35642
10380
13652
33121
33912
4409
45264
11509
28292
29465
24824
6908
10986
32315
1710
8551
2555
26851
41871
45621
42672
13833
21116
2383
43483
16380
23720
11764
33868
23298
21326
8844
35748
39907
18371
40866
43018
25053
803
42651
35474
21722
23097
20108
5836
28209
6724
23826
39160
8911
4521
43459
47391
29766
19856
31577
25854
43642
13132
27648
39755
17588
34734
24890
38206
8596
343
18345
19413
28878
9866
34717
2018
22607
4123
24008
2604
22871
39002
17972
26109
47401
31189
44805
38583
39885
16680
10641
28883
28314
4901
47282
13131
21062
27111
30966
29541
18505
8762
4821
15380
29092
7903
43612
10706
15391
37384
29440
32238
29557
19928
29907
17090
36392
7629
20886
32983
672
5714
3878
9393
33603
2656
37415
43395
18810
41963
12235
47015
33349
957
7412
15127
7183
14740
5745
34997
716
43017
24493
38506
29700
3796
27860
3924
25652
21571
3679
7128
31719
21797
741
43228
2506
9813
540
648
11212
5014
16101
35136
15490
42960
25126
25275
5626
38977
47547
17686
22702
15547
10285
30111
24424
13512
23365
44826
98
38490
29457
28596
2983
45696
5139
37551
30734
25485
19167
43190
3350
39537
21892
31672
7808
32173
8010
47261
20275
37025
27309
24835
19113
26037
1026
18142
35968
466
42267
28666
25992
34469
25862
30080
30261
33636
7572
34035
36939
40714
41702
24693
29426
2161
22340
13408
17335
34224
11783
12076
14331
43004
46992
32093
18879
27995
1649
26164
28840
29587
21156
39825
8127
18511
17362
22168
26333
5177
26564
25323
43213
10991
25373
30855
15450
43755
18315
3782
26849
27202
4684
25345
28033
40430
16731
17896
33226
14168
20544
4383
7923
23647
10521
42997
18822
37825
17406
39938
6359
40176
11750
30481
33254
36925
36307
41582
4033
2098
9099
9680
26298
28781
47173
23900
42949
32884
191
8294
42252
9487
39973
21554
36917
38189
35942
45511
3059
16755
31802
14390
12993
34054
7004
6942
43748
24753
32945
20644
18709
39365
20493
1759
34511
3090
4934
4274
8367
28406
46596
23936
31910
35338
11831
41360
12782
37941
27260
29397
37598
36802
36393
8062
8577
36647
21576
19760
31261
34800
30336
2191
25107
4969
42038
43143
12791
17331
2788
19480
39748
14189
3628
47042
42983
44405
2729
24544
40196
40760
43172
27428
19901
35186
35856
21001
37111
17231
4572
13704
6261
20831
43525
36951
43128
15769
10849
39584
29168
29308
29180
38277
21958
45195
27489
16999
11442
42168
44098
18592
12172
18251
16100
19403
1204
46974
21192
40588
5007
28352
6768
8441
36765
2128
35604
40246
2921
18306
20488
42327
24526
36469
44861
13908
34438
45799
43679
14494
22053
3154
1097
15165
30326
35267
42579
33783
25875
20055
28515
11360
40565
44843
30617
40697
30760
9705
22800
17693
13389
17913
34428
20299
2300
25001
22939
44350
21675
22391
19086
35325
30973
13316
28022
1734
37886
41161
34088
13886
45245
18705
26847
46230
32510
30691
22107
38499
6719
8494
7201
25576
12534
32464
27002
12337
3610
35744
35278
3521
6850
33836
12209
3716
20703
25902
1105
6656
9742
47171
18771
20005
39285
40376
17983
6938
25879
17834
44726
2170
29888
33501
31193
9047
44462
9895
23087
34666
39635
3990
46536
46724
19642
42173
23870
18277
45654
7701
11093
20502
33259
27263
42892
36771
476
26998
7876
11743
26974
34785
4647
17407
44590
42615
10284
28086
20639
39452
41494
22758
34321
39473
20770
9247
26761
38872
40629
24475
25366
12632
17890
47103
46759
29288
16985
46564
23805
35431
13087
19981
11673
19641
1939
17481
45407
38758
37280
30206
31153
18651
14594
41628
15092
5819
5305
42055
2120
20668
8648
11448
20987
26678
21857
24795
43700
25063
443
3493
47413
16422
14833
623
35381
43778
6865
3139
5960
19436
5914
41661
15058
15670
24829
21361
42487
36193
26650
9096
5295
34197
4407
10355
29658
10644
23760
15851
38958
37957
43103
39626
5465
28414
11959
8854
6236
39383
25708
34102
39397
8174
25763
19989
38982
47217
35021
21667
36964
6812
19644
13095
38425
15136
8752
8245
24359
14842
8526
1241
18618
42398
33682
22265
7430
40658
35630
17411
8837
17107
37385
16576
34399
38681
22516
18003
8980
21594
43262
25086
13976
7833
23189
16939
18718
4262
14067
24134
31439
27423
35925
37758
10950
12605
27602
46845
31236
38422
46270
22349
32704
25043
16315
18163
37851
47325
4017
32381
27210
29043
15014
44375
29317
2791
39091
18607
2412
40208
20015
25681
35446
28521
6888