/*--------------------------------*- C++ -*----------------------------------*\
| =========                 |                                                 |
| \\      /  F ield         | OpenFOAM: The Open Source CFD Toolbox           |
|  \\    /   O peration     | Version:  v1706                                 |
|   \\  /    A nd           | Web:      www.OpenFOAM.com                      |
|    \\/     M anipulation  |                                                 |
\*---------------------------------------------------------------------------*/
FoamFile
{
    version     2.0;
    format      ascii;
    class       Cloud<passiveParticle>;
    location    "7/lagrangian/dsmc";
    object      positions;
}
// * * * * * * * * * * * * * * * * * * * * * * * * * * * * * * * * * * * * * //

47581
(
(0.03252210455 0.9969028505 0.005) 498
(0.01281968327 0.7667140495 0.005) 381
(0.02509702693 0.763247116 0.005) 382
(0.01500485409 0.8989659591 0.005) 446
(0.04180449479 0.8850593974 0.005) 444
(0.00933718798 0.6096787663 0.005) 300
(0.04953434508 0.6202070245 0.005) 314
(0.005014870122 0.8792238363 0.005) 435
(0.01296859591 0.5521518958 0.005) 276
(0.006310177729 0.6051329394 0.005) 300
(0.03033352101 0.8366313854 0.005) 418
(0.01063957085 0.8586229569 0.005) 426
(0.04941100142 0.9243996729 0.005) 464
(0.01243576825 0.9551264765 0.005) 476
(0.01646671141 0.7317552547 0.005) 366
(0.008798803983 0.7527972451 0.005) 375
(0.002880199304 0.5462620196 0.005) 270
(0.003555580608 0.6397003986 0.005) 315
(0.02766375694 0.6228899342 0.005) 312
(0.003402503591 0.9017995586 0.005) 450
(0.002253175725 0.7325528903 0.005) 365
(0.04994056827 0.7353863102 0.005) 369
(0.04971344409 0.9498089959 0.005) 474
(0.01843182921 0.8847064046 0.005) 441
(0.008119952352 0.9847007808 0.005) 490
(0.0212181604 0.8558631328 0.005) 427
(0.01933977769 0.9141134701 0.005) 456
(0.04875184957 0.9377962409 0.005) 469
(0.04798758651 0.8619287645 0.005) 434
(0.02520452451 0.7906442613 0.005) 397
(0.002811354095 0.8088687874 0.005) 400
(0.02691957274 0.7096922874 0.005) 352
(0.02988208345 0.9422310711 0.005) 472
(0.03801573484 0.5514197103 0.005) 278
(6.904352059e-05 0.8758363613 0.005) 435
(0.01506507767 0.6331903536 0.005) 316
(0.01075883829 0.790104031 0.005) 396
(0.01519447066 0.7635369655 0.005) 381
(0.02864804704 0.6771689463 0.005) 337
(0.0283163064 0.7398126723 0.005) 367
(0.005933572513 0.7530483561 0.005) 375
(0.04605228985 0.9741143202 0.005) 489
(0.04625297982 0.7914340487 0.005) 399
(0.01601929797 0.8548330576 0.005) 426
(0.01951665595 0.9784137612 0.005) 486
(0.0401797161 0.6513763468 0.005) 329
(0.02335289819 0.9626332164 0.005) 482
(0.003844091418 0.896281316 0.005) 445
(0.007729644842 0.8024553198 0.005) 400
(0.03076988655 0.8872728042 0.005) 443
(0.02823183561 0.8835262071 0.005) 442
(0.02363969938 0.6933810448 0.005) 347
(0.03357175531 0.9547868648 0.005) 478
(0.02330572879 0.5609453318 0.005) 282
(0.02798524475 0.9790841756 0.005) 487
(0.03940135775 0.5813280741 0.005) 293
(0.008857512855 0.6951771981 0.005) 345
(0.01893279824 0.6377661208 0.005) 316
(0.02329614611 0.9500206939 0.005) 477
(0.03626985156 0.8783706582 0.005) 438
(0.03456772062 0.6107852059 0.005) 308
(0.03516947606 0.9230923322 0.005) 463
(0.01100566325 0.7994469168 0.005) 396
(0.03602646346 0.9946990548 0.005) 498
(0.003686325232 0.5702536993 0.005) 285
(0.02753357489 0.6099086891 0.005) 302
(0.03393793714 0.9525941904 0.005) 478
(0.03307328585 0.6240354938 0.005) 313
(0.02873813703 0.9349192107 0.005) 467
(0.02273659628 0.7720748483 0.005) 387
(0.01892705476 0.8668344092 0.005) 431
(0.01184488269 0.9597644437 0.005) 476
(0.0109792681 0.8801956891 0.005) 441
(0.04442025637 0.9445375922 0.005) 474
(0.02413354378 0.8151086746 0.005) 407
(0.02973606493 0.6783614093 0.005) 337
(0.04053312982 0.9208975022 0.005) 464
(0.03311170659 0.5858593291 0.005) 293
(0.008505628669 0.7091205242 0.005) 350
(0.03329658679 0.7353110377 0.005) 368
(0.03912668527 0.7348922282 0.005) 368
(0.02373784843 0.7087763442 0.005) 352
(0.0002323973604 0.5507239685 0.005) 275
(0.03127929778 0.6158517973 0.005) 308
(0.001079387316 0.5563610578 0.005) 275
(0.01697653838 0.8288377332 0.005) 411
(0.02125715379 0.8997962958 0.005) 447
(0.04760150576 0.7840971077 0.005) 394
(0.04576553331 0.576151913 0.005) 289
(0.004693991489 0.7101236895 0.005) 355
(0.03655790378 0.9209711801 0.005) 463
(0.03465159814 0.8657033304 0.005) 433
(0.02976957469 0.7189513667 0.005) 357
(0.04642827769 0.6983911624 0.005) 349
(0.01320698626 0.6896130434 0.005) 341
(0.0176120063 0.6261930349 0.005) 311
(0.002038041938 0.9557347675 0.005) 475
(0.03734573789 0.8509205525 0.005) 428
(0.01683123386 0.9288518115 0.005) 461
(0.04410466463 0.9347282893 0.005) 469
(0.0120301555 0.7475364588 0.005) 371
(0.04820343677 0.9015636901 0.005) 454
(0.01652653197 0.930152226 0.005) 466
(0.03715609672 0.6361030764 0.005) 318
(0.01194391826 0.7982463909 0.005) 396
(0.02270079181 0.656964964 0.005) 327
(0.03319492285 0.8836881855 0.005) 443
(0.0003968720386 0.8315570252 0.005) 415
(0.0167045159 0.57208597 0.005) 286
(0.02418531089 0.9118386511 0.005) 457
(0.01242958612 0.6671389549 0.005) 331
(0.03539749582 0.9816635122 0.005) 493
(0.04050807227 0.7176829222 0.005) 359
(0.03313071914 0.8987122543 0.005) 448
(0.0007108673274 0.6222886654 0.005) 310
(0.004353298884 0.9883941036 0.005) 490
(0.0375675115 0.7164740746 0.005) 358
(0.04365027748 0.6652315473 0.005) 334
(0.004818649102 0.8594501959 0.005) 425
(0.02754068557 0.6291336832 0.005) 312
(0.01786263272 0.893663037 0.005) 446
(0.02159048994 0.9572889205 0.005) 477
(2.564949781e-05 0.8008103471 0.005) 400
(0.01993739371 0.5588053232 0.005) 276
(0.02741676056 0.7292324502 0.005) 362
(0.02648165457 0.9645279512 0.005) 482
(0.02333991473 0.811699996 0.005) 407
(0.04745665735 0.8717815405 0.005) 439
(0.04520489802 0.7986794601 0.005) 399
(0.04865940213 0.7187876669 0.005) 359
(0.01336261407 0.842478099 0.005) 421
(0.01168834813 0.7848960017 0.005) 391
(0.02770365275 0.7933620094 0.005) 397
(0.006086243158 0.8536454601 0.005) 425
(0.01292546452 0.869700049 0.005) 431
(0.04850453858 0.5666984738 0.005) 284
(0.03924399167 0.6086142915 0.005) 303
(0.04312213944 0.6331897371 0.005) 319
(0.001136549112 0.8817543584 0.005) 440
(0.04495561925 0.6275258935 0.005) 314
(0.0140680252 0.6856732969 0.005) 341
(0.02151814136 0.9172825644 0.005) 457
(0.03440470355 0.7936989475 0.005) 398
(0.03444870593 0.7051980149 0.005) 353
(0.02994729818 0.7156088671 0.005) 357
(0.01516348927 0.8565642533 0.005) 426
(0.003353466246 0.9818318801 0.005) 490
(0.03454299367 0.9507015161 0.005) 478
(0.009734694063 0.7970229669 0.005) 395
(0.03157205639 0.9079346745 0.005) 453
(0.03251148646 0.9339158089 0.005) 468
(0.02360275338 0.7095246295 0.005) 352
(0.03382745778 0.6810095591 0.005) 343
(0.03579961527 0.6961735877 0.005) 348
(0.04599049768 0.7754680687 0.005) 389
(0.03192425147 0.8434330937 0.005) 423
(0.01710756402 0.9973890113 0.005) 496
(0.04446629278 0.933991259 0.005) 469
(0.003629152632 0.8473075973 0.005) 420
(0.01953919524 0.9077688187 0.005) 451
(0.01551135368 0.6505601404 0.005) 326
(0.005943255496 0.9772350897 0.005) 485
(0.03737056093 0.9430647596 0.005) 473
(0.02091215339 0.9642204033 0.005) 482
(0.04315028346 0.8731974338 0.005) 439
(0.0217779174 0.7828854617 0.005) 392
(0.005371836798 0.5576291746 0.005) 275
(0.02799444519 0.9786639135 0.005) 487
(0.001632316147 0.7599998006 0.005) 375
(0.02041006532 0.5822793905 0.005) 292
(0.03661070258 0.9600903258 0.005) 483
(0.001412197197 0.7830083524 0.005) 390
(0.02808602991 0.6182691193 0.005) 307
(0.03186681898 0.9649128973 0.005) 483
(0.03634059909 0.8671251799 0.005) 433
(0.009845792358 0.5751743759 0.005) 285
(0.01754488891 0.7346557075 0.005) 366
(0.01822860307 0.9443705583 0.005) 471
(0.002974053525 0.8814298024 0.005) 440
(0.002628589617 0.868530254 0.005) 430
(0.04064144375 0.71683109 0.005) 359
(0.03091188255 0.7343698663 0.005) 368
(0.04470618869 0.6881401867 0.005) 344
(0.03510094998 0.7405779152 0.005) 373
(0.003281761329 0.7962625261 0.005) 395
(0.01353389726 0.8787772627 0.005) 436
(0.01936344631 0.8946220051 0.005) 446
(0.04369740951 0.8257086135 0.005) 414
(0.04620487416 0.7369943176 0.005) 369
(0.04535661027 0.7344909248 0.005) 369
(0.01764483661 0.9073915452 0.005) 451
(0.02429083177 0.9308696576 0.005) 467
(0.03116358107 0.9490379965 0.005) 473
(0.008286905044 0.9644039476 0.005) 480
(0.0431307718 0.9220832492 0.005) 464
(0.03191678125 0.8646123754 0.005) 433
(0.03703511444 0.7787679348 0.005) 388
(0.007630568281 0.5144726657 0.005) 255
(0.03507994703 0.8989472582 0.005) 448
(0.02245573526 0.759752177 0.005) 377
(0.04466080255 0.8696382611 0.005) 434
(0.01068858382 0.9918784876 0.005) 496
(0.01232751537 0.8687048714 0.005) 431
(0.01401929712 0.6851769868 0.005) 341
(0.007879454833 0.8575406026 0.005) 425
(0.03574105121 0.5568336359 0.005) 278
(0.02077686856 0.9042922714 0.005) 452
(0.02701555718 0.7264448868 0.005) 362
(0.03790225231 0.8678479618 0.005) 433
(0.02433852194 0.5361777794 0.005) 267
(0.01004743889 0.5586109213 0.005) 276
(0.04869948362 0.9624970577 0.005) 484
(0.03992620465 0.5619595943 0.005) 283
(0.03166572322 0.8566157286 0.005) 428
(0.03647653773 0.7213145419 0.005) 363
(0.01937605929 0.8662278943 0.005) 431
(0.008338500463 0.8432257893 0.005) 420
(0.0008088254236 0.5562858377 0.005) 275
(0.01324269242 0.9754033936 0.005) 486
(0.02579924293 0.9695045452 0.005) 482
(0.001787084298 0.6179971694 0.005) 305
(0.01486499733 0.8154563072 0.005) 406
(0.01737806391 0.8435685563 0.005) 421
(0.01735587066 0.7525541524 0.005) 376
(0.01594527352 0.8110701845 0.005) 406
(0.03377156282 0.7987519193 0.005) 398
(0.03765711656 0.6889899794 0.005) 343
(0.01398327743 0.7567659153 0.005) 376
(0.01372116379 0.9744977979 0.005) 486
(0.04543107116 0.6808521517 0.005) 344
(0.02299652337 0.6310654842 0.005) 317
(0.01838687651 0.8501663103 0.005) 426
(0.03207891492 0.8612538697 0.005) 433
(0.02422462204 0.673071788 0.005) 337
(0.03965791885 0.8321310454 0.005) 418
(0.02792779668 0.5133336835 0.005) 257
(0.03628607765 0.9026848184 0.005) 453
(0.01926154803 0.6814662804 0.005) 341
(0.04765992722 0.8889954168 0.005) 444
(0.0488095453 0.6550260466 0.005) 329
(0.0002078075398 0.8952252462 0.005) 445
(0.02632501265 0.7510734279 0.005) 377
(0.01471519586 0.7832112107 0.005) 391
(0.01420401133 0.6313097775 0.005) 316
(0.01010891054 0.9403897365 0.005) 471
(0.0244738601 0.747356136 0.005) 372
(0.00531508334 0.9316321257 0.005) 465
(0.04606500019 0.8792203373 0.005) 439
(0.04354307744 0.8074094272 0.005) 404
(0.03231964243 0.5560272648 0.005) 278
(0.005047765414 0.5166381502 0.005) 255
(0.03986254249 0.9384289506 0.005) 468
(0.03515225305 0.8209505408 0.005) 413
(0.04296197422 0.6722312076 0.005) 339
(0.02217321326 0.9621655747 0.005) 482
(0.03171366018 0.8124517217 0.005) 408
(0.03173095997 0.792156972 0.005) 398
(0.01516833067 0.7429796217 0.005) 371
(0.03459139924 0.6562691537 0.005) 328
(0.01683550631 0.8545350517 0.005) 426
(0.03225978953 0.9286772674 0.005) 463
(0.0243303895 0.9542800332 0.005) 477
(0.02742191486 0.9073633492 0.005) 452
(0.01892301854 0.7141275464 0.005) 356
(0.03257842995 0.5109422561 0.005) 258
(0.008571631712 0.928340238 0.005) 460
(0.02867175052 0.6204623975 0.005) 312
(0.0251640404 0.86292604 0.005) 432
(0.000956542621 0.9684957645 0.005) 480
(0.04541650796 0.9597394546 0.005) 479
(0.01792689871 0.6647323247 0.005) 331
(0.003266859606 0.7800690966 0.005) 390
(0.009776889858 0.8909717373 0.005) 445
(0.02881801417 0.8170182337 0.005) 407
(0.04845445775 0.8978358156 0.005) 449
(0.03739752106 0.844684323 0.005) 423
(0.02711417797 0.8507453993 0.005) 427
(0.03067341113 0.9467647947 0.005) 473
(0.04855448928 0.7655193735 0.005) 384
(0.03327717315 0.9968838966 0.005) 498
(0.04822278116 0.8141741207 0.005) 409
(0.01376541665 0.5129865626 0.005) 256
(0.01071743584 0.9423960886 0.005) 471
(0.04316167466 0.8394629848 0.005) 419
(0.03740803826 0.8024074992 0.005) 403
(0.01021175059 0.9573345855 0.005) 476
(0.03829183597 0.7017550081 0.005) 353
(0.04198455954 0.5219142201 0.005) 264
(0.02738536172 0.5950845204 0.005) 297
(0.007474471203 0.8766558272 0.005) 435
(0.02172467149 0.7204447929 0.005) 362
(0.01381022764 0.7433221463 0.005) 371
(0.02887805326 0.9988163009 0.005) 497
(0.02088445185 0.8373402276 0.005) 417
(0.01396429461 0.6168526639 0.005) 306
(0.04529873723 0.8842326705 0.005) 444
(0.009929347263 0.6648779461 0.005) 330
(0.0077293137 0.5866674874 0.005) 290
(0.01021380364 0.7122808867 0.005) 356
(0.04353579597 0.797562432 0.005) 399
(0.01317683653 0.8953060632 0.005) 446
(0.03410752288 0.9127182729 0.005) 458
(0.009080767193 0.8961978266 0.005) 445
(0.03628185538 0.9355001874 0.005) 468
(0.02313386848 0.916565114 0.005) 457
(0.0004540923069 0.7155726332 0.005) 355
(0.04128949986 0.9704434459 0.005) 489
(0.02024227048 0.9999516887 0.005) 497
(0.04070994272 0.7555391652 0.005) 379
(0.007427772413 0.9383182172 0.005) 465
(0.002025000033 0.8815144276 0.005) 440
(0.001223199086 0.8774849408 0.005) 435
(0.0005367353449 0.8014230534 0.005) 400
(0.02687357947 0.6370195881 0.005) 317
(0.03975571581 0.7800885221 0.005) 393
(0.01518043184 0.6624849393 0.005) 331
(0.02553072955 0.5582506936 0.005) 277
(0.002657781677 0.6940721076 0.005) 345
(0.01931598458 0.8674183993 0.005) 431
(0.04790512727 0.9933223316 0.005) 499
(0.04227954678 0.8920191741 0.005) 449
(0.02802004078 0.9699186215 0.005) 482
(0.0145326763 0.7062914759 0.005) 351
(0.03176919942 0.6579066528 0.005) 328
(0.02100700566 0.9622729334 0.005) 482
(0.02419259797 0.9052270856 0.005) 452
(0.04510078409 0.8238069368 0.005) 414
(0.04604902964 0.7194239986 0.005) 359
(0.03343327382 0.9267919607 0.005) 463
(0.03902347045 0.634662571 0.005) 318
(0.0437207126 0.8580961352 0.005) 429
(0.0326509956 0.9785109108 0.005) 488
(0.04938454883 0.8238603022 0.005) 414
(0.03352937688 0.6021143049 0.005) 303
(0.008247151598 0.9269990762 0.005) 460
(0.03036012319 0.9800841725 0.005) 493
(0.000402528395 0.6760779291 0.005) 335
(0.04594389383 0.9675842816 0.005) 484
(0.03738107367 0.863043032 0.005) 433
(0.01779461501 0.6942181745 0.005) 346
(0.02143296459 0.9573277411 0.005) 477
(0.01808825557 0.8767821951 0.005) 436
(0.007626028013 0.7678528854 0.005) 380
(0.01620149027 0.7181185261 0.005) 356
(0.003180135205 0.8216304188 0.005) 410
(0.0315188464 0.7900847127 0.005) 398
(0.01060709744 0.9552293048 0.005) 476
(0.008946937235 0.7172765117 0.005) 355
(0.04390266383 0.8062272437 0.005) 404
(0.03934943739 0.7579975334 0.005) 378
(0.01368393995 0.7656142233 0.005) 381
(0.01917973316 0.8622426238 0.005) 431
(0.04127925526 0.9533124057 0.005) 479
(0.00764252097 0.7631838512 0.005) 380
(0.04661769704 0.7884133768 0.005) 394
(0.0424688967 0.6046858911 0.005) 304
(0.01280260138 0.8364331993 0.005) 416
(0.04910081117 0.5135961821 0.005) 259
(0.03290781786 0.8663179277 0.005) 433
(0.004433757868 0.648270259 0.005) 320
(0.04682829074 0.9167332838 0.005) 459
(0.04539797893 0.5093080425 0.005) 254
(0.02256250091 0.8400533584 0.005) 422
(0.008241984837 0.7663649437 0.005) 380
(0.01290111434 0.9171042045 0.005) 456
(0.04857608296 0.7503956787 0.005) 379
(0.001420243352 0.8553554575 0.005) 425
(0.02736750544 0.8691545621 0.005) 432
(0.0125048817 0.9127785724 0.005) 456
(0.0417647704 0.8417525709 0.005) 424
(0.03730365295 0.7032568158 0.005) 353
(0.00465766836 0.6180154871 0.005) 305
(0.02691235538 0.7946572391 0.005) 397
(0.001712081455 0.6026904927 0.005) 300
(0.0180830497 0.8048982971 0.005) 401
(0.02834628703 0.9249707813 0.005) 462
(0.002305797261 0.602849389 0.005) 300
(0.01604643756 0.9424903526 0.005) 471
(0.002908456317 0.6864639755 0.005) 340
(0.02636692293 0.654349867 0.005) 327
(0.01761272294 0.7377723608 0.005) 366
(0.04511516234 0.9579698011 0.005) 479
(0.04225026997 0.8086068417 0.005) 404
(0.0453995288 0.6678002943 0.005) 334
(0.04949902789 0.5389083331 0.005) 269
(0.03034508124 0.6583703948 0.005) 328
(0.01007769708 0.7995814687 0.005) 396
(0.04636735011 0.6843927648 0.005) 344
(0.04809593042 0.8619454233 0.005) 434
(0.04214409628 0.6530110671 0.005) 329
(0.04227324904 0.7879425222 0.005) 394
(0.04598010138 0.9722045396 0.005) 489
(0.01906115431 0.6831175912 0.005) 341
(0.01742262648 0.6156785231 0.005) 306
(0.03109514201 0.6531182294 0.005) 328
(0.03460125268 0.7597718154 0.005) 378
(0.02857156918 0.9357295149 0.005) 467
(0.006225422743 0.9609051475 0.005) 480
(0.02308319445 0.9103460509 0.005) 457
(0.03473852297 0.9072078487 0.005) 453
(0.001546928633 0.8944097366 0.005) 445
(0.02899294193 0.9205590004 0.005) 462
(0.01508268488 0.5864571848 0.005) 291
(0.01809195874 0.5872197391 0.005) 291
(0.0199671867 0.6884236356 0.005) 341
(0.02196465142 0.7675174143 0.005) 382
(0.04491417401 0.9378331997 0.005) 469
(0.0185594588 0.9198433941 0.005) 456
(0.02113503672 0.5904194974 0.005) 297
(0.02069976631 0.9692042723 0.005) 482
(0.02864940319 0.8872103408 0.005) 442
(0.04957519996 0.8242326922 0.005) 414
(0.02740901309 0.7856331228 0.005) 392
(0.02463115078 0.6710049924 0.005) 337
(0.007412128803 0.7597348842 0.005) 375
(0.04396664139 0.9939194666 0.005) 499
(0.04848862843 0.6791840003 0.005) 339
(0.02734013192 0.8078004149 0.005) 402
(0.0292585323 0.5545996956 0.005) 277
(0.01537055433 0.9050431237 0.005) 451
(0.0486265814 0.9825709498 0.005) 494
(0.0170043016 0.5849597415 0.005) 291
(0.01557958509 0.8580103444 0.005) 426
(0.03749772288 0.8323065322 0.005) 418
(0.003960296469 0.640026701 0.005) 320
(0.007834867746 0.8629926175 0.005) 430
(0.04723403112 0.6073436892 0.005) 304
(0.01703291114 0.7163330068 0.005) 356
(0.02316751411 0.7280237397 0.005) 362
(0.04407281361 0.5437044249 0.005) 274
(0.003582415587 0.691309624 0.005) 345
(0.005071060379 0.5930833307 0.005) 295
(0.02387345146 0.9628732941 0.005) 482
(0.04031634993 0.7958143949 0.005) 399
(0.006655050594 0.6133833028 0.005) 305
(0.0194308829 0.5982921341 0.005) 296
(0.04261360807 0.5529397927 0.005) 279
(0.0003613127963 0.6370834174 0.005) 315
(0.02708888096 0.8712130739 0.005) 437
(0.03820232401 0.6624661355 0.005) 333
(0.03127791948 0.9809601507 0.005) 493
(0.02070419371 0.9076608654 0.005) 452
(0.001397626721 0.9979002922 0.005) 495
(0.02134839473 0.8862327358 0.005) 442
(0.04777554547 0.5372590179 0.005) 269
(0.04683384506 0.7435918951 0.005) 374
(0.04535203756 0.9154736594 0.005) 459
(0.01539592114 0.9523284752 0.005) 476
(0.02321575499 0.5190497572 0.005) 257
(0.02911492839 0.9722215452 0.005) 487
(0.007612487102 0.8108339915 0.005) 405
(0.0492125681 0.775279202 0.005) 389
(0.04731597925 0.995254748 0.005) 499
(0.02351939927 0.8656082126 0.005) 432
(0.01653347694 0.8717037764 0.005) 436
(0.02637258495 0.9578780672 0.005) 477
(0.01481061733 0.7464816592 0.005) 371
(0.04390770095 0.7840429556 0.005) 394
(0.007779399919 0.8883469148 0.005) 440
(0.04479313356 0.6731561517 0.005) 339
(0.03495565686 0.7539820234 0.005) 378
(0.02745616579 0.6104526637 0.005) 307
(0.03836730476 0.6209603745 0.005) 313
(0.04854335345 0.5161377641 0.005) 259
(0.03059900936 0.6808726999 0.005) 343
(0.001036482717 0.9591957409 0.005) 475
(0.01368411209 0.8567128592 0.005) 426
(0.001362542917 0.5210609748 0.005) 260
(0.03017779175 0.5452384686 0.005) 273
(0.04610103867 0.5056407993 0.005) 254
(0.01435384425 0.8146360624 0.005) 406
(0.01821680042 0.6867797342 0.005) 341
(0.00605755121 0.5659116387 0.005) 280
(0.03173207473 0.9975013491 0.005) 498
(0.01665635914 0.9996456256 0.005) 496
(0.004622421434 0.9647700648 0.005) 480
(0.005828168767 0.9238756088 0.005) 460
(0.04905036038 0.6496397483 0.005) 324
(0.02343253151 0.5829276536 0.005) 292
(0.01142865986 0.7109034221 0.005) 356
(0.02600473254 0.7234115257 0.005) 362
(0.0431650044 0.8716095874 0.005) 439
(0.01022070181 0.6031797338 0.005) 301
(0.00803503808 0.8204500458 0.005) 410
(0.005031602819 0.9829778467 0.005) 490
(0.04614374693 0.8842221428 0.005) 444
(0.03654461931 0.6569320015 0.005) 328
(0.01493165356 0.5638544472 0.005) 281
(0.004657425599 0.9229012468 0.005) 460
(0.004216633964 0.7768748001 0.005) 385
(0.01777008407 0.7591446324 0.005) 376
(0.04758269466 0.7235326719 0.005) 364
(0.04947623683 0.5111665637 0.005) 259
(0.03168023047 0.9210959156 0.005) 463
(0.01235470451 0.6991331745 0.005) 346
(0.0276231932 0.6031439744 0.005) 302
(0.03400444984 0.8391934389 0.005) 418
(0.01254219914 0.8252645203 0.005) 411
(0.01883025236 0.8126236584 0.005) 406
(0.04397349536 0.6195060966 0.005) 309
(0.002951227732 0.8764324234 0.005) 435
(0.02938877745 0.9111040944 0.005) 457
(0.03704828352 0.958875483 0.005) 478
(0.03619871792 0.7917024908 0.005) 398
(0.01796101753 0.6197055136 0.005) 306
(0.04955329042 0.5417436864 0.005) 274
(0.01330932726 0.538940876 0.005) 266
(0.04111538665 0.7532303221 0.005) 379
(0.0445031215 0.9244626785 0.005) 464
(0.0491450282 0.8765850633 0.005) 439
(0.03575898476 0.5748895386 0.005) 288
(0.007615442951 0.7057114494 0.005) 350
(0.04828412205 0.6775166628 0.005) 339
(0.04948908337 0.9473961022 0.005) 474
(0.03761262971 0.8668085378 0.005) 433
(0.006519494091 0.5076148909 0.005) 250
(0.01074544325 0.5888243245 0.005) 291
(0.02817566996 0.946374212 0.005) 472
(0.04390814481 0.8820165669 0.005) 444
(0.01643270459 0.6664742127 0.005) 331
(0.03162082885 0.5396166043 0.005) 268
(0.01560327302 0.6574302716 0.005) 326
(0.04721304253 0.7990509645 0.005) 399
(0.01568714764 0.7403130026 0.005) 371
(0.01348968207 0.7312161805 0.005) 366
(0.04984312108 0.9700197166 0.005) 489
(0.007711839364 0.8940201286 0.005) 445
(0.04171507538 0.7614634946 0.005) 384
(0.02076843372 0.5626346384 0.005) 282
(0.02083522441 0.61219929 0.005) 307
(0.04902688106 0.9316174609 0.005) 469
(0.04378694665 0.5141245466 0.005) 259
(0.02876069633 0.8075710284 0.005) 402
(0.04757837939 0.6553387241 0.005) 329
(0.008312837992 0.7536864595 0.005) 375
(0.007843747002 0.8166344764 0.005) 405
(0.04697491347 0.589928573 0.005) 294
(0.03544765254 0.7768436559 0.005) 388
(0.04152379753 0.6724249486 0.005) 339
(0.04737661306 0.8658011362 0.005) 434
(0.006703003467 0.7077129073 0.005) 350
(0.04616010312 0.6528678634 0.005) 329
(0.006905917764 0.6512919244 0.005) 325
(0.02829376457 0.6218528139 0.005) 312
(0.04060658468 0.5840033365 0.005) 294
(0.03598219233 0.7715455077 0.005) 388
(0.001047960842 0.9739895159 0.005) 485
(0.03778194423 0.858445261 0.005) 428
(0.02133089861 0.9003992527 0.005) 452
(0.01588166643 0.9759687257 0.005) 486
(0.0004105989239 0.794409003 0.005) 395
(0.04010333887 0.9602544583 0.005) 484
(0.001516939995 0.6039192272 0.005) 300
(0.0461793671 0.8566370545 0.005) 429
(0.02080310317 0.643220668 0.005) 322
(0.03335103654 0.8875805977 0.005) 443
(0.01300803438 0.6976667468 0.005) 346
(0.01416954828 0.9149888202 0.005) 456
(0.0138216542 0.9802964599 0.005) 491
(0.002856420657 0.8548262314 0.005) 425
(0.04527660057 0.9415791545 0.005) 474
(0.009011550621 0.8210232417 0.005) 410
(0.002564106919 0.9518060114 0.005) 475
(0.01877177095 0.9536559389 0.005) 476
(0.0399886489 0.5651321166 0.005) 283
(0.02487788831 0.820657169 0.005) 412
(0.02170180095 0.9288052184 0.005) 462
(0.01013896859 0.9474894171 0.005) 471
(0.03103108349 0.8175316231 0.005) 408
(0.01446655694 0.9534268235 0.005) 476
(0.01917569782 0.8707957959 0.005) 436
(0.03720439327 0.8852179477 0.005) 443
(0.02968118514 0.8470300385 0.005) 422
(0.02726666795 0.8377700434 0.005) 417
(0.03048872026 0.7986394584 0.005) 398
(0.03061778827 0.8056990681 0.005) 403
(0.01117230147 0.9579475415 0.005) 476
(0.04500693058 0.955010748 0.005) 479
(0.01850173232 0.6686769041 0.005) 331
(0.0338072713 0.8609954395 0.005) 433
(0.003052628494 0.7703319473 0.005) 385
(0.001789529681 0.6713590518 0.005) 335
(0.02217870864 0.8493130224 0.005) 422
(0.02929536222 0.6755365554 0.005) 337
(0.0321909087 0.9014527401 0.005) 453
(0.02767085172 0.9168805283 0.005) 457
(0.04400318855 0.8313705946 0.005) 419
(0.02018802992 0.5046620897 0.005) 252
(0.03622570722 0.9850926409 0.005) 493
(0.03150651917 0.795631999 0.005) 398
(0.003808929817 0.8970485312 0.005) 445
(0.04986097239 0.7613299042 0.005) 384
(0.04308653612 0.6584102877 0.005) 329
(0.04613506778 0.7066193097 0.005) 354
(0.01594701285 0.5998208838 0.005) 296
(0.03667505821 0.8630486485 0.005) 433
(0.001764055404 0.9770625639 0.005) 485
(0.02599433642 0.9475314244 0.005) 472
(0.04817869596 0.9004552823 0.005) 454
(0.03853300953 0.899809271 0.005) 448
(0.008570148039 0.6072363336 0.005) 300
(0.04479709197 0.8917565473 0.005) 449
(0.02288869146 0.7150358587 0.005) 357
(0.00159760903 0.9868185305 0.005) 490
(0.01819521716 0.7810635023 0.005) 391
(0.01262509747 0.6467850203 0.005) 321
(0.01151922794 0.7336313441 0.005) 366
(0.02971617883 0.9159921 0.005) 457
(0.007967838409 0.5728155187 0.005) 285
(0.04867256144 0.8316162801 0.005) 419
(0.002549258611 0.746205478 0.005) 370
(0.003828216661 0.9967398842 0.005) 495
(0.02545504373 0.9296123893 0.005) 462
(0.0191432208 0.8637251679 0.005) 431
(0.03961397111 0.9532968724 0.005) 478
(0.02439894264 0.978524679 0.005) 487
(0.007971598844 0.5730406353 0.005) 285
(0.003339409626 0.986677558 0.005) 490
(0.01355176351 0.8875668257 0.005) 441
(0.03205644124 0.5883215877 0.005) 293
(0.04975266355 0.7711752436 0.005) 389
(0.04188020246 0.7827013165 0.005) 394
(0.009758430149 0.8583693001 0.005) 425
(0.02150345609 0.7342557217 0.005) 367
(0.0008535538822 0.8781293939 0.005) 435
(0.03560681563 0.9923005727 0.005) 498
(0.01703955307 0.720099837 0.005) 361
(0.004302009823 0.888638975 0.005) 440
(0.028487552 0.8486052553 0.005) 422
(0.04261927877 0.9646798474 0.005) 484
(0.01458801986 0.9277334218 0.005) 461
(0.04123683852 0.9244862836 0.005) 464
(0.02253644078 0.8123222496 0.005) 407
(0.04166653283 0.6666005984 0.005) 334
(0.01124071023 0.7186193594 0.005) 356
(0.008387445257 0.9098701262 0.005) 450
(0.02100681093 0.9353182916 0.005) 467
(0.003103981214 0.689481868 0.005) 340
(0.03981479756 0.7463680825 0.005) 373
(0.01800251034 0.8009650581 0.005) 401
(0.04755681489 0.9083151177 0.005) 454
(0.04308599748 0.7460246297 0.005) 374
(0.047804539 0.5784977515 0.005) 289
(0.03184435082 0.6602894004 0.005) 333
(0.04756287906 0.7241388915 0.005) 364
(0.001327985024 0.9193222132 0.005) 455
(0.02431827129 0.8967924045 0.005) 447
(0.00985359529 0.6952972484 0.005) 345
(0.002761915768 0.5745486686 0.005) 285
(0.02309063243 0.8718669404 0.005) 437
(0.04528106965 0.6889647085 0.005) 344
(0.02422800308 0.9696590583 0.005) 482
(0.03389235758 0.8759509968 0.005) 438
(0.0467172247 0.9200598021 0.005) 464
(0.02278703066 0.7589726074 0.005) 377
(0.008976939467 0.8937363371 0.005) 445
(0.03126849329 0.9521568937 0.005) 478
(0.02225404388 0.814650853 0.005) 407
(0.0265611665 0.5172774134 0.005) 257
(0.01874715637 0.7531969443 0.005) 376
(0.04477197224 0.9452545414 0.005) 474
(0.001855900549 0.7572958605 0.005) 375
(0.02901900184 0.6630065486 0.005) 332
(0.01425769305 0.7874656357 0.005) 391
(0.01549179651 0.8347863225 0.005) 416
(0.008713646471 0.8512325658 0.005) 425
(0.008492597255 0.9365080808 0.005) 465
(0.04714839636 0.9198671776 0.005) 459
(0.01690999501 0.9000028659 0.005) 451
(0.004463854468 0.7361020699 0.005) 365
(0.03515764971 0.7675920826 0.005) 383
(0.01004924585 0.9071665567 0.005) 451
(0.01571269208 0.915077427 0.005) 456
(0.007174940899 0.9495466249 0.005) 470
(0.03885822755 0.6638769955 0.005) 333
(0.008569017714 0.6191737549 0.005) 305
(0.002215479836 0.8556507285 0.005) 425
(0.04575210423 0.8718497938 0.005) 439
(0.002737926651 0.9020540627 0.005) 450
(0.0008755788286 0.7477998772 0.005) 370
(0.03898404099 0.8353126492 0.005) 418
(0.03411091706 0.9283829946 0.005) 463
(0.01485625439 0.9104398726 0.005) 456
(0.01615462383 0.8626816865 0.005) 431
(0.006690430158 0.9345194491 0.005) 465
(0.01918126289 0.5043415593 0.005) 251
(0.01627253331 0.7337663197 0.005) 366
(0.01672938571 0.9644926564 0.005) 481
(0.00187989737 0.9370616137 0.005) 465
(0.04374149342 0.8678686245 0.005) 434
(0.03753411362 0.6727783581 0.005) 338
(0.02838617842 0.6006419823 0.005) 302
(0.02878232433 0.944197946 0.005) 472
(0.0168807741 0.9193544163 0.005) 456
(0.01485783247 0.7624897794 0.005) 381
(0.0245146907 0.9994761605 0.005) 497
(0.01461770772 0.8534401952 0.005) 426
(0.0266063288 0.5819795527 0.005) 292
(0.03305014974 0.79261174 0.005) 398
(0.0279534891 0.9840980213 0.005) 492
(0.002025827565 0.5860765079 0.005) 290
(0.033678654 0.8741505109 0.005) 438
(0.04924910005 0.9124805558 0.005) 459
(0.03571130976 0.5606686683 0.005) 283
(0.01757336928 0.9574030096 0.005) 476
(0.005167345264 0.9148024405 0.005) 455
(0.01567998166 0.543096824 0.005) 271
(0.03149515886 0.8307590952 0.005) 418
(0.04633179965 0.844217542 0.005) 424
(0.04608846388 0.7837669517 0.005) 394
(0.03299241297 0.9482906587 0.005) 473
(0.02233807858 0.9909303912 0.005) 497
(0.02096489155 0.8683747405 0.005) 432
(0.02397917397 0.9290035771 0.005) 462
(0.01709001747 0.6553947718 0.005) 326
(0.03034320655 0.902654876 0.005) 453
(0.007878787716 0.8589488022 0.005) 425
(0.003402771219 0.9802442271 0.005) 490
(0.01205363784 0.5745767871 0.005) 286
(0.002703356114 0.8058966837 0.005) 400
(0.01938095374 0.8587112978 0.005) 426
(0.02933351534 0.6982251849 0.005) 347
(0.002278197211 0.8448018878 0.005) 420
(0.04432029115 0.9334992774 0.005) 469
(0.04107983137 0.715073209 0.005) 359
(0.009060329353 0.6876891638 0.005) 340
(0.02273203138 0.7383046223 0.005) 367
(0.02244939985 0.8240688914 0.005) 412
(0.03387314891 0.7109910779 0.005) 358
(0.02596992787 0.968802907 0.005) 482
(0.04737798746 0.8085238409 0.005) 404
(0.00541932355 0.7568266382 0.005) 375
(0.0470185382 0.7139082668 0.005) 359
(0.02523054062 0.7443202549 0.005) 372
(0.007674421329 0.992155321 0.005) 495
(0.02037062137 0.8572486615 0.005) 427
(0.03732563509 0.6811648399 0.005) 343
(0.02961183394 0.8033848566 0.005) 402
(0.01035924846 0.6881137194 0.005) 341
(0.007936257691 0.7447571054 0.005) 370
(0.04010998399 0.9178534885 0.005) 459
(0.03020063263 0.8576526875 0.005) 428
(0.03407092558 0.5411103604 0.005) 273
(0.03957520773 0.8524207114 0.005) 428
(0.04380184772 0.6368618386 0.005) 319
(0.01051691436 0.7069600012 0.005) 351
(0.01617339831 0.9712216735 0.005) 486