/*--------------------------------*- C++ -*----------------------------------*\
| =========                 |                                                 |
| \\      /  F ield         | OpenFOAM: The Open Source CFD Toolbox           |
|  \\    /   O peration     | Version:  v1706                                 |
|   \\  /    A nd           | Web:      www.OpenFOAM.com                      |
|    \\/     M anipulation  |                                                 |
\*---------------------------------------------------------------------------*/
FoamFile
{
    version     2.0;
    format      ascii;
    class       Cloud<dsmcParcel>;
    location    "5/lagrangian/dsmc";
    object      positions;
}
// * * * * * * * * * * * * * * * * * * * * * * * * * * * * * * * * * * * * * //

47647
(
(0.02696168917 0.9028897105 0.005) 452
(0.006420617389 0.1824168251 0.005) 90
(0.02793430241 0.136296898 0.005) 67
(0.01433169214 0.7567457987 0.005) 376
(0.02019064402 0.6466188368 0.005) 322
(0.001720425304 0.7318765275 0.005) 365
(0.04220796614 0.4317781914 0.005) 219
(0.02079872833 0.2720556932 0.005) 137
(0.04915620004 0.1241895156 0.005) 64
(0.005155896395 0.2937050941 0.005) 145
(0.04735332321 0.5089614077 0.005) 254
(0.02956019136 0.795422041 0.005) 397
(0.04100570849 0.991794835 0.005) 499
(0.01002252108 0.5393614918 0.005) 266
(0.03487309683 0.869076544 0.005) 433
(0.00322789022 0.9014091866 0.005) 450
(0.03309901619 0.4337058999 0.005) 218
(0.008400822363 0.8388537994 0.005) 415
(0.04588395071 0.03877407466 0.005) 19
(0.02249505839 0.8142521631 0.005) 407
(0.00783517113 0.08769028487 0.005) 40
(0.0409647895 0.926807475 0.005) 464
(0.04691270947 0.4792744265 0.005) 239
(0.007146396623 0.7187805772 0.005) 355
(0.02373607179 0.7053017836 0.005) 352
(0.04500578637 0.2274567801 0.005) 114
(0.01117103938 0.9608560267 0.005) 481
(0.01374286401 0.8348820759 0.005) 416
(0.02310488421 0.005844139059 0.005) 2
(0.03218727982 0.5111041857 0.005) 258
(0.003821833083 0.1430417407 0.005) 70
(0.01417316377 0.8456915295 0.005) 421
(0.04186334782 0.6662743276 0.005) 334
(0.02324288444 0.210762264 0.005) 107
(0.003452500209 0.1528871661 0.005) 75
(0.04928667527 0.6640070895 0.005) 334
(0.03926183758 0.1236478343 0.005) 63
(0.02300989414 0.1713531806 0.005) 87
(0.0007397765214 0.1310426849 0.005) 65
(0.02400581663 0.8409996284 0.005) 422
(0.0185865919 0.004527704775 0.005) 1
(0.0226716563 0.4105482085 0.005) 207
(0.005115507263 0.5328385091 0.005) 265
(0.01441865314 0.4232719959 0.005) 211
(0.03825063448 0.0582113997 0.005) 28
(0.0254320886 0.7029170414 0.005) 352
(0.02801867878 0.1280584123 0.005) 62
(0.03714755294 0.6301591387 0.005) 318
(0.02985483299 0.8093544332 0.005) 402
(0.0121102053 0.4394827301 0.005) 216
(0.04863945681 0.1609557124 0.005) 84
(0.03713400796 0.4248070167 0.005) 213
(0.03571845309 0.3914082262 0.005) 198
(0.002397748591 0.188990302 0.005) 90
(0.02398228136 0.3012857292 0.005) 152
(0.03117350028 0.9467510612 0.005) 473
(0.003918334679 0.3419398756 0.005) 170
(0.04962133636 0.2943183717 0.005) 149
(0.003444863763 0.4735266696 0.005) 235
(0.02743028161 0.3769004643 0.005) 187
(0.008331571753 0.117441655 0.005) 55
(0.0119384508 0.38808012 0.005) 191
(0.03608546752 0.4216568846 0.005) 213
(0.02094818157 0.03516633309 0.005) 17
(0.02773416877 0.2213463611 0.005) 112
(0.01393554166 0.3326564072 0.005) 166
(0.04872864445 0.3239565005 0.005) 164
(0.01930362101 0.07090546963 0.005) 36
(0.04516271453 0.7174914488 0.005) 359
(0.04421673537 0.5955630521 0.005) 299
(0.006373199103 0.2609027125 0.005) 130
(0.04857779499 0.04119131781 0.005) 24
(0.0005064188854 0.1291803677 0.005) 60
(0.02778221141 0.7618487909 0.005) 382
(0.01737212037 0.5929242169 0.005) 296
(0.03613160671 0.6229605866 0.005) 313
(0.0310093826 0.4575986552 0.005) 228
(0.03504604789 0.5318635535 0.005) 268
(0.02971984077 0.7120899539 0.005) 357
(0.04768566839 0.4311888418 0.005) 219
(0.0311009951 0.7692036275 0.005) 383
(0.04847510147 0.3276692145 0.005) 164
(0.04233465997 0.2628662613 0.005) 134
(0.03716070109 0.7999065448 0.005) 398
(0.01581595559 0.5592397176 0.005) 276
(0.03223208939 0.9638367502 0.005) 483
(0.004894490164 0.6705135828 0.005) 335
(0.03817444131 0.505997638 0.005) 253
(0.02139377975 0.7331680089 0.005) 367
(0.01642472074 0.2345369052 0.005) 116
(0.01118860083 0.9085635584 0.005) 451
(0.02947797476 0.08005645946 0.005) 42
(0.002722211759 0.2435950379 0.005) 120
(0.04397039891 0.3476002748 0.005) 174
(0.03645188671 0.3624074341 0.005) 183
(0.01926738088 0.06042832033 0.005) 31
(0.02884405097 0.3883439068 0.005) 192
(0.0082076739 0.08118890656 0.005) 40
(0.04935752266 0.8591111405 0.005) 429
(0.04125568349 0.4787818005 0.005) 239
(0.03294189882 0.8647190225 0.005) 433
(0.03919120705 0.2239855731 0.005) 113
(0.01317334128 0.4564712381 0.005) 226
(0.023267279 0.5419266659 0.005) 272
(0.006903628091 0.7372491579 0.005) 365
(0.01430803285 0.5716011762 0.005) 286
(0.04217415908 0.08475636973 0.005) 44
(0.01167747388 0.5384746855 0.005) 266
(0.04563844914 0.8426853913 0.005) 424
(0.01441758195 0.887063163 0.005) 441
(0.01463167696 0.7921157703 0.005) 396
(0.01408205426 0.5413118715 0.005) 271
(0.009601814977 0.3572676138 0.005) 175
(0.04339598842 0.4065226339 0.005) 204
(0.01745171605 0.7036107934 0.005) 351
(0.02386715011 0.1390111472 0.005) 67
(0.01174044546 0.8207051917 0.005) 411
(0.02698125212 0.07142705031 0.005) 37
(0.03526312494 0.4813295725 0.005) 243
(0.02077630494 0.2878761286 0.005) 142
(0.002621408492 0.611910023 0.005) 305
(0.03754029965 0.08067882001 0.005) 43
(0.04615821494 0.8323239406 0.005) 419
(0.007381193245 0.001394839738 0.005) 0
(0.00892864387 0.7953063814 0.005) 395
(0.02793398837 0.6902400642 0.005) 347
(0.0219776489 0.6568670166 0.005) 327
(0.03664078747 0.240030646 0.005) 123
(0.007777602476 0.1958850866 0.005) 95
(0.03098202511 0.1660344359 0.005) 83
(0.03544221449 0.6777780288 0.005) 338
(0.00345486037 0.006762084664 0.005) 0
(0.002420944221 0.3610672285 0.005) 180
(0.02788028914 0.2633158288 0.005) 132
(0.04118316277 0.364466598 0.005) 184
(0.0252423826 0.2705173353 0.005) 137
(0.0006655736304 0.4550692049 0.005) 225
(0.007629092836 0.06816438858 0.005) 30
(0.01920252431 0.2841586798 0.005) 141
(0.04154746986 0.9870368218 0.005) 494
(0.00104873897 0.07691454643 0.005) 35
(0.03670603507 0.6836031004 0.005) 343
(0.0419005515 0.8278624274 0.005) 414
(0.007391971941 0.4034903918 0.005) 200
(0.0183426991 0.1918100279 0.005) 96
(0.02130599435 0.4795516304 0.005) 237
(0.04130103438 0.03926552414 0.005) 19
(0.03891028995 0.7020810315 0.005) 353
(0.04159834447 0.5326152431 0.005) 269
(0.03183018315 0.006476129276 0.005) 3
(0.0428968202 0.4323306426 0.005) 219
(0.01727979416 0.3477022233 0.005) 171
(0.01664920547 0.3917827847 0.005) 196
(0.006272429947 0.4648364985 0.005) 230
(0.0427488669 0.01890740689 0.005) 9
(0.03823763325 0.6153880675 0.005) 308
(0.02295626618 0.0512903788 0.005) 27
(0.02580984054 0.03482558697 0.005) 17
(0.02055212527 0.4334917926 0.005) 217
(0.02426139074 0.01020917039 0.005) 7
(0.01909990512 0.7312045104 0.005) 366
(0.01930486725 0.5051478884 0.005) 251
(0.03436894795 0.0695745505 0.005) 33
(0.04055700344 0.3497339572 0.005) 174
(0.008595699969 0.5705007687 0.005) 285
(0.007648748291 0.3321646674 0.005) 165
(0.009380772431 0.1197167966 0.005) 55
(0.02018537667 0.874459576 0.005) 437
(0.009028032038 0.007650061978 0.005) 0
(0.0472811435 0.8743874235 0.005) 439
(0.007018042554 0.8108832668 0.005) 405
(0.02381310622 0.7246541897 0.005) 362
(0.02348546494 0.3833217277 0.005) 192
(0.0278976489 0.3149891841 0.005) 157
(0.007900507742 0.5435510114 0.005) 270
(0.04532843203 0.4772937437 0.005) 239
(0.007424104377 0.171524846 0.005) 85
(0.02676333966 0.7883978919 0.005) 392
(0.03772122857 0.7612951291 0.005) 383
(0.009901730367 0.06735685919 0.005) 30
(0.02085113536 0.9503695919 0.005) 477
(0.01074637205 0.878642484 0.005) 436
(0.04004758409 0.5752164152 0.005) 289
(0.02263053299 0.4319624455 0.005) 217
(0.02230046761 0.9992859328 0.005) 497
(0.03111369259 0.207063838 0.005) 103
(0.0433467722 0.3255400161 0.005) 164
(0.03897224268 0.3499386671 0.005) 173
(0.02418064607 0.1294392258 0.005) 62
(0.04473004751 0.9234629406 0.005) 464
(0.009257095698 0.001244573133 0.005) 0
(0.01107509049 0.7041274165 0.005) 351
(0.02553452428 0.5966525555 0.005) 297
(0.04724967171 0.4328720182 0.005) 219
(0.01960284581 0.4156789508 0.005) 206
(0.02665603928 0.5627463949 0.005) 282
(0.01338291277 0.3570568566 0.005) 176
(0.00617121441 0.6136772106 0.005) 305
(0.02308986523 0.151311012 0.005) 77
(0.04335815822 0.2006926887 0.005) 104
(0.01767542509 0.2422385036 0.005) 121
(0.03303356784 0.4713529103 0.005) 238
(0.03054617716 0.3473272562 0.005) 173
(0.02143140074 0.7049393376 0.005) 352
(0.02010548331 0.1482177523 0.005) 72
(0.03557017375 0.09068358818 0.005) 48
(0.04584526583 0.008523425318 0.005) 4
(0.01561091892 0.09576120033 0.005) 46
(0.01653904737 0.6713282446 0.005) 336
(0.005058626216 0.8093394763 0.005) 400
(0.006644597173 0.2498236621 0.005) 120
(0.02695728278 0.9706402163 0.005) 487
(0.007100342317 0.9967101839 0.005) 495
(0.02753024055 0.2953472907 0.005) 147
(0.04406562269 0.1020985199 0.005) 54
(0.01102494953 0.9401981317 0.005) 471
(0.0201336256 0.4890459474 0.005) 242
(0.01258016643 0.04707248936 0.005) 21
(0.03142726861 0.0323879649 0.005) 18
(0.03025443634 0.5694221572 0.005) 283
(0.0212724805 0.4419503934 0.005) 222
(0.003290900613 0.8981260297 0.005) 445
(0.03595622914 0.4168378614 0.005) 208
(0.008716278218 0.6944629059 0.005) 345
(0.003591559879 0.9987736484 0.005) 495
(0.04074557144 0.1127431466 0.005) 59
(0.01850299853 0.7875721751 0.005) 391
(0.0005471975826 0.05679187248 0.005) 25
(0.04561831261 0.1519239779 0.005) 79
(0.0494949642 0.4941590885 0.005) 249
(0.002892751261 0.3537352251 0.005) 175
(0.02211025516 0.5433996271 0.005) 272
(0.01575685256 0.134069914 0.005) 66
(0.01740187551 0.6672686349 0.005) 331
(0.017849248 0.6933838218 0.005) 346
(0.03992408621 0.7048716969 0.005) 353
(0.03308549678 0.1076697917 0.005) 53
(0.0004894179542 0.721812548 0.005) 360
(0.03697078791 0.7656473132 0.005) 383
(0.001945777451 0.8786789918 0.005) 435
(0.02952718302 0.08342377752 0.005) 42
(0.02161511644 0.9414266587 0.005) 472
(0.01459729298 0.3774794154 0.005) 186
(0.01650133493 0.3412826295 0.005) 171
(0.03522376017 0.8403557641 0.005) 423
(0.001248123862 0.248016681 0.005) 120
(0.02864137874 0.8329667727 0.005) 417
(0.03264152513 0.4039644148 0.005) 203
(0.03647449091 0.7921297749 0.005) 398
(0.04020886686 0.7175943439 0.005) 359
(0.01210835532 0.559999667 0.005) 276
(0.02230674541 0.4579426946 0.005) 227
(0.006373704022 0.6166394883 0.005) 305
(0.005512161136 0.7169867714 0.005) 355
(0.0447275869 0.895877637 0.005) 449
(0.0351587503 0.7475315605 0.005) 373
(0.001250420395 0.3899475779 0.005) 190
(0.04565035336 0.3174207 0.005) 159
(0.02976674616 0.1702775816 0.005) 87
(0.02662232722 0.35933122 0.005) 177
(0.04627353164 0.9646693123 0.005) 484
(0.0325996694 0.3057246955 0.005) 153
(0.01811731351 0.72670543 0.005) 361
(0.02819057459 0.6512879583 0.005) 327
(0.02096744592 0.8359352126 0.005) 417
(0.001168329117 0.2051443991 0.005) 100
(0.0352459228 0.187265631 0.005) 93
(0.04437307035 0.3477991777 0.005) 174
(0.01652236684 0.4021334036 0.005) 201
(0.02568018151 0.2659923745 0.005) 132
(0.006003919815 0.8944079204 0.005) 445
(0.01957238757 0.04250649064 0.005) 21
(0.009523754656 0.5073361787 0.005) 250
(0.001060477499 0.146597467 0.005) 70
(0.02989845253 0.4326757732 0.005) 217
(0.02441604999 0.7131334083 0.005) 357
(0.0100469917 0.9950167516 0.005) 496
(0.04619958891 0.03364162706 0.005) 19
(0.0207537727 0.5830852262 0.005) 292
(0.02119932268 0.6095745479 0.005) 302
(0.007068225233 0.6633683764 0.005) 330
(0.00879604517 0.905585651 0.005) 450
(0.04081065034 0.5233212282 0.005) 264
(0.03692367411 0.4584079484 0.005) 228
(0.02753883828 0.7605735972 0.005) 382
(0.01808092187 0.1455272152 0.005) 71
(0.007394247696 0.1501012046 0.005) 75
(0.04968167418 0.04889136907 0.005) 24
(0.01703344581 0.003629390645 0.005) 1
(0.0224357583 0.967177187 0.005) 482
(0.03762302085 0.0008258332383 0.005) 3
(0.04810352289 0.4250940568 0.005) 214
(0.0231905593 0.2532035961 0.005) 127
(0.0034838225 0.6963958184 0.005) 345
(0.01519861738 0.971335243 0.005) 486
(0.007383844202 0.9798250509 0.005) 485
(0.02076978216 0.1040274655 0.005) 52
(0.03006396729 0.6749982689 0.005) 338
(0.02571986817 0.960151899 0.005) 482
(0.03711866636 0.6196092765 0.005) 308
(0.0258656281 0.9780997873 0.005) 487
(0.01096605906 0.3138416515 0.005) 156
(0.01331970662 0.522949755 0.005) 261
(0.03479730604 0.8016661397 0.005) 403
(0.02360827954 0.2486518231 0.005) 122
(0.0002003795879 0.781539054 0.005) 390
(0.03357313869 0.2132654888 0.005) 108
(0.03691566331 0.1429475194 0.005) 73
(0.03281955182 0.4521102841 0.005) 228
(0.03943488105 0.2234710762 0.005) 113
(0.02346108433 0.2482220459 0.005) 122
(0.04790424642 0.04438246498 0.005) 24
(0.04388388803 0.1547847462 0.005) 79
(0.002573109165 0.4935713799 0.005) 245
(0.01839739344 0.4493696232 0.005) 221
(0.01528151008 0.02048687644 0.005) 11
(0.02896455682 0.1729399856 0.005) 87
(0.02141791009 0.2179063224 0.005) 107
(0.01957692952 0.6135044827 0.005) 306
(0.008562686902 0.682716098 0.005) 340
(0.025303732 0.4330055744 0.005) 217
(0.007021918524 0.7228757433 0.005) 360
(0.01946343329 0.8856673009 0.005) 441
(0.01009652331 0.7782672289 0.005) 386
(0.01529820724 0.4296227273 0.005) 211
(0.008110096462 0.143131766 0.005) 70
(0.01039050094 0.8541676992 0.005) 426
(0.0054562488 0.09042241959 0.005) 45
(0.03396684546 0.05053142422 0.005) 28
(0.03654472518 0.958588599 0.005) 478
(0.03515175048 0.2241967162 0.005) 113
(0.005431838597 0.657655357 0.005) 325
(0.04267343247 0.2633497479 0.005) 134
(0.04796246317 0.6114557843 0.005) 309
(0.01081223564 0.88735867 0.005) 441
(0.04466701628 0.1608593002 0.005) 84
(0.0465748428 0.3488023135 0.005) 174
(0.007268670238 0.1888813897 0.005) 90
(0.0468123283 0.2059042176 0.005) 104
(0.04820040191 0.9215533199 0.005) 464
(0.03575798896 0.4552391577 0.005) 228
(0.02048459308 0.1207138774 0.005) 62
(0.04063864602 0.4597855626 0.005) 229
(0.03148045677 0.6366139634 0.005) 318
(0.01525588558 0.3223859684 0.005) 161
(0.02914239929 0.1135305506 0.005) 57
(0.03266018733 0.1379183467 0.005) 68
(0.01128205889 0.1225906571 0.005) 61
(0.0300381918 0.4633353479 0.005) 233
(0.03056807701 0.4799370754 0.005) 238
(0.03249108626 0.7936108925 0.005) 398
(0.008806370853 0.183894385 0.005) 90
(0.02996422711 0.05530449195 0.005) 27
(0.04243285807 0.4405682785 0.005) 224
(0.007214041288 0.9117567701 0.005) 455
(0.04075451906 0.5311178972 0.005) 269
(0.02661644354 0.817754148 0.005) 407
(0.01703056995 0.7251395042 0.005) 361
(0.0110470386 0.4569572267 0.005) 226
(0.04326395792 0.9275305601 0.005) 464
(0.01703855708 0.4890172298 0.005) 241
(0.03220279247 0.5778706579 0.005) 288
(0.02951886085 0.1354827476 0.005) 67
(0.02362497184 0.8837182925 0.005) 442
(0.04220763722 0.8935700006 0.005) 449
(0.03005731535 0.9226152227 0.005) 463
(0.04531249286 0.02754985879 0.005) 14
(0.01751314205 0.8211335382 0.005) 411
(0.002869860999 0.8290694588 0.005) 410
(0.01477342837 0.8649809399 0.005) 431
(0.04929776218 0.3878012701 0.005) 194
(0.01575465503 0.2513251794 0.005) 126
(0.01765430254 0.2714956353 0.005) 136
(0.04775166131 0.7007280699 0.005) 354
(0.04085204259 0.7286570761 0.005) 364
(0.04700958773 0.1318983141 0.005) 69
(0.0004485777449 0.6952189273 0.005) 345
(0.007923584254 0.4312590697 0.005) 215
(0.01174350329 0.164859546 0.005) 81
(0.01583393088 0.5757307193 0.005) 286
(0.03131638875 0.1667094748 0.005) 83
(0.03695368541 0.5300102484 0.005) 268
(0.02652976864 0.8033050774 0.005) 402
(0.01781782198 0.2971918505 0.005) 146
(0.01391244468 0.6581967323 0.005) 326
(0.04684267998 0.154235682 0.005) 79
(0.0199069 0.7661644097 0.005) 381
(0.02655539089 0.175957988 0.005) 87
(0.0395904258 0.8673766349 0.005) 433
(0.01148565848 0.1736791853 0.005) 86
(0.02064856537 0.09578600844 0.005) 47
(0.02213152993 0.1985046266 0.005) 97
(0.04842882457 0.6616610071 0.005) 334
(0.04172972614 0.4262237152 0.005) 214
(0.04536913248 0.028461476 0.005) 14
(0.04785262151 0.1855568109 0.005) 94
(0.0196411185 0.8428538237 0.005) 421
(0.01648838286 0.5442389428 0.005) 271
(0.01177223878 0.008183009969 0.005) 1
(0.02696921598 0.6633852062 0.005) 332
(0.03148749459 0.7222820247 0.005) 363
(0.02769130521 0.4071521705 0.005) 202
(0.02100683799 0.9789372551 0.005) 487
(0.003726224259 0.2841635461 0.005) 140
(0.01769099792 0.203317078 0.005) 101
(0.03278126612 0.8638009815 0.005) 433
(0.01970768317 0.938365308 0.005) 466
(0.04197598998 0.5749652929 0.005) 289
(0.04269720004 0.6815443027 0.005) 344
(0.01396955342 0.1851691537 0.005) 91
(0.02465672958 0.1530694035 0.005) 77
(0.04800712248 0.8235100705 0.005) 414
(0.01676398283 0.8776299611 0.005) 436
(0.008342720341 0.832629668 0.005) 415
(0.01287365312 0.8941459026 0.005) 446
(0.04863615846 0.305498947 0.005) 154
(0.03637527886 0.6716292413 0.005) 338
(0.03640466938 0.6406000466 0.005) 323
(0.004181182627 0.1244196174 0.005) 60
(0.02745520146 0.9239405338 0.005) 462
(0.03743440737 0.35588644 0.005) 178
(0.03552214782 0.5893445426 0.005) 293
(0.0315298238 0.2667500629 0.005) 133
(0.0342193112 0.3886460639 0.005) 193
(0.03385678149 0.1587417686 0.005) 78
(0.0421512308 0.548919439 0.005) 274
(0.02202270542 0.2810019002 0.005) 142
(0.02004783579 0.8614991006 0.005) 432
(0.03754087817 0.4710355698 0.005) 238
(0.04992944095 0.4184788969 0.005) 209
(0.005068787037 0.4848013733 0.005) 240
(0.004839166299 0.4614362994 0.005) 230
(0.02969989678 0.5902972752 0.005) 297
(0.04756574756 0.6801596628 0.005) 344
(0.001239763311 0.0727302198 0.005) 35
(0.02033629207 0.4418794809 0.005) 222
(0.03645263117 0.0415644543 0.005) 23
(0.02058937563 0.01012324047 0.005) 7
(0.02585609168 0.5658233798 0.005) 282
(0.02616012237 0.391759636 0.005) 197
(0.001913751373 0.8261354718 0.005) 410
(0.01136707926 0.4880166845 0.005) 241
(0.01288491487 0.7841861912 0.005) 391
(0.01283371635 0.9524355047 0.005) 476
(0.04788576296 0.4276357039 0.005) 214
(0.04017249454 0.2089122997 0.005) 104
(0.009676621392 0.1007036514 0.005) 50
(0.002812085148 0.5982447346 0.005) 295
(0.04369684625 0.7694706735 0.005) 384
(0.0008333398648 0.3709968962 0.005) 185
(0.0260171465 0.9399429001 0.005) 467
(0.03094100063 0.2597262846 0.005) 128
(0.04191606678 0.3291386712 0.005) 164
(0.0147964625 0.5891200746 0.005) 291
(0.03758960074 0.8077225922 0.005) 403
(0.04673549111 0.4802906239 0.005) 244
(0.0314825288 0.2342241344 0.005) 118
(0.02755057377 0.3745940774 0.005) 187
(0.03649549547 0.4150079048 0.005) 208
(0.03370481707 0.4848649152 0.005) 243
(0.0006589900256 0.2051808098 0.005) 100
(0.0172794351 0.1041374841 0.005) 51
(0.01223302271 0.1073969207 0.005) 51
(0.04695131625 0.1651423035 0.005) 84
(0.02898502087 0.04588952281 0.005) 22
(0.02009653967 0.08110891739 0.005) 42
(0.03508782081 0.2901273786 0.005) 148
(0.00339596393 0.2381345906 0.005) 115
(0.03936386823 0.9387069393 0.005) 468
(0.02625081561 0.4422402241 0.005) 222
(0.04645733153 0.2067369383 0.005) 104
(0.04888396343 0.5532521934 0.005) 279
(0.04480559919 0.8619984329 0.005) 434
(0.039192291 0.7758385535 0.005) 388
(0.0154196175 0.5284830784 0.005) 261
(0.006268858914 0.1462010716 0.005) 70
(0.02506476899 0.2257695763 0.005) 112
(0.02605455276 0.2611909102 0.005) 132
(0.0277220281 0.9548424524 0.005) 477
(0.01356642482 0.6315702298 0.005) 316
(0.03344467089 0.2145560093 0.005) 108
(0.01504938678 0.4880257813 0.005) 241
(0.006354177672 0.9447508595 0.005) 470
(0.04725974929 0.921975519 0.005) 464
(0.007961627505 0.8445432999 0.005) 420
(0.04772302267 0.3015070543 0.005) 154
(0.008524419268 0.05375544518 0.005) 25
(0.006325566699 0.5424340931 0.005) 270
(0.02949291948 0.2236638306 0.005) 112
(0.03736398844 0.3208175837 0.005) 163
(0.02398773504 0.8344206501 0.005) 417
(0.002101365242 0.5804973652 0.005) 290
(0.02136478694 0.3899473707 0.005) 192
(0.01103979635 0.2749856466 0.005) 136
(0.01577947683 0.01653131429 0.005) 6
(0.001981304544 0.8226793267 0.005) 410
(0.02023273161 0.203394791 0.005) 102
(0.02601167922 0.01223088957 0.005) 7
(0.04833981795 0.6102953093 0.005) 309
(0.006055188356 0.7539920822 0.005) 375
(0.03447125296 0.7041221762 0.005) 353
(0.001626729282 0.07710938451 0.005) 35
(0.04390594808 0.4644944595 0.005) 234
(0.01045705996 0.8593686539 0.005) 426
(0.001682130995 0.002034750967 0.005) 0
(0.04698240028 0.1580267896 0.005) 79
(0.03439108621 0.1739495081 0.005) 88
(0.03184867941 0.8448873376 0.005) 423
(0.02767953547 0.396379603 0.005) 197
(0.008296613792 0.6696708661 0.005) 330
(0.006820189879 0.6987436053 0.005) 345
(0.03226209854 0.6769832829 0.005) 338
(0.0001752987775 0.1451214883 0.005) 70
(0.01918366653 0.189852523 0.005) 91
(0.01115526806 0.1427781363 0.005) 71
(0.01474593669 0.9679873885 0.005) 481
(0.04582497647 0.7530107664 0.005) 379
(0.005999310862 0.05435182832 0.005) 25
(0.02820555692 0.7946452215 0.005) 397
(0.03549260817 0.3756889458 0.005) 188
(0.03204884834 0.7850823224 0.005) 393
(0.01574339991 0.3859274837 0.005) 191
(0.016812124 0.3422251108 0.005) 171
(0.03915982393 0.8500921029 0.005) 428
(0.01626165431 0.9090318164 0.005) 451
(0.0237002064 0.03331591339 0.005) 17
(0.04926027486 0.06329847673 0.005) 34
(0.04120898115 0.4643297756 0.005) 234
(0.04716871139 0.3737408611 0.005) 189
(0.0193701637 0.4380010106 0.005) 216
(0.02927411009 0.1859037406 0.005) 92
(0.01021315827 0.3914691185 0.005) 196
(0.006185937241 0.1997564746 0.005) 95
(0.0474818052 0.4151518832 0.005) 209
(0.00508713887 0.5615436739 0.005) 280
(0.04816986523 0.03131171411 0.005) 19
(0.00577951204 0.5501175826 0.005) 275
(0.03989361533 0.5333057497 0.005) 268
(0.001480393546 0.9614394124 0.005) 480
(0.02438492619 0.7234990836 0.005) 362
(0.0127353756 0.3452152735 0.005) 171
(0.02053076255 0.5194540279 0.005) 257
(0.01645818292 0.3820117143 0.005) 191
(0.01447559962 0.9042153985 0.005) 451
(0.03947539217 0.6078457383 0.005) 303
(0.04517151086 0.4754499361 0.005) 239
(0.0007876645307 0.5371421458 0.005) 265
(0.02616498089 0.8960812174 0.005) 447
(0.004507747436 0.8639147027 0.005) 430
(0.002939971179 0.4520640132 0.005) 225
(0.02038760299 0.7519549314 0.005) 377
(0.04409517035 0.2931108286 0.005) 149
(0.03054598236 0.951214593 0.005) 478
(0.04178931269 0.8007135384 0.005) 404
(0.006096801666 0.1517114673 0.005) 75
(0.04650940756 0.7014123981 0.005) 354
(0.03526813197 0.05778443378 0.005) 28
(0.0127208551 0.1808716518 0.005) 91
(0.01847638196 0.733640888 0.005) 366
(0.04213716127 0.04079397553 0.005) 24
(0.004935969679 0.8282039283 0.005) 410
(0.006427893678 0.878036402 0.005) 435
(0.008129635183 0.01577743148 0.005) 5
(0.007910405111 0.8487074015 0.005) 420
(0.0382546852 0.03056212084 0.005) 18
(0.03773670972 0.3329923092 0.005) 168
(0.04943189734 0.4842696706 0.005) 244
(0.01895843152 0.4193533233 0.005) 206
(0.02088012602 0.2087417967 0.005) 102
(0.04051596701 0.09909738381 0.005) 49
(0.02948247531 0.3330461105 0.005) 167
(0.01742348815 0.3183904634 0.005) 156
(0.007933981191 0.572912403 0.005) 285
(0.008723316101 0.3745845176 0.005) 185
(0.03746713779 0.7451928837 0.005) 373
(0.04985935593 0.1815289529 0.005) 94
(0.04286064602 0.1345604961 0.005) 69
(0.04683225882 0.4944278693 0.005) 249
(0.03126108842 0.312100157 0.005) 158
(0.002007921571 0.1225505404 0.005) 60
(0.0452677231 0.8096365422 0.005) 404
(0.004840821742 0.6676137924 0.005) 330
(0.03336834147 0.6397407975 0.005) 318
(0.03105836995 0.1733913924 0.005) 88
(0.03253922992 0.1263080392 0.005) 63
(0.029892071 0.7541103556 0.005) 377
(0.03175409939 0.7278742601 0.005) 363
(0.04200547703 0.3338505968 0.005) 169
(0.02569253221 0.05910216107 0.005) 27
(0.00647176958 0.7729021532 0.005) 385
(0.0207000528 0.9659807817 0.005) 482
(0.01445853876 0.3888261932 0.005) 191
(0.04764803832 0.632348718 0.005) 319
(0.03074910506 0.6870658395 0.005) 343
(0.0188182628 0.05241055569 0.005) 26
(0.02861489637 0.1166562743 0.005) 57
(0.02111809125 0.4429885156 0.005) 222
(0.006983767729 0.3779433599 0.005) 185
(0.02327604928 0.7909405116 0.005) 397
(0.0293986006 0.8167627022 0.005) 407
(0.04703726706 0.2188871569 0.005) 109
(0.04292594566 0.156360172 0.005) 79
(0.02510318719 0.2683961886 0.005) 132
(0.03808670971 0.4410836186 0.005) 223
(0.02158625829 0.3976677455 0.005) 197
(0.006603953332 0.3250754295 0.005) 160
(0.002734476149 0.5855357687 0.005) 290
(0.02271981908 0.8723344431 0.005) 437
(0.03698631619 0.5681185051 0.005) 283
(0.009834946499 0.8076273641 0.005) 400
(0.03283606376 0.1979046563 0.005) 98
(0.01853545397 0.1447043774 0.005) 71
(0.004930949701 0.139142764 0.005) 65
(0.04096698746 0.2344782652 0.005) 119
(0.04332416701 0.7219801222 0.005) 364
(0.0325179866 0.840385415 0.005) 423
(0.0186050788 0.8783617997 0.005) 436
(0.03489925347 0.1807469466 0.005) 93
(0.02775474403 0.9449377773 0.005) 472
(0.02501941321 0.3788422985 0.005) 187
(0.04403912054 0.1185198062 0.005) 59
(0.001697714057 0.5635006864 0.005) 280
(0.03859867335 0.2843630975 0.005) 143
(0.04823456198 0.9836348143 0.005) 494
(0.02627980139 0.01252256399 0.005) 7
(0.02060513929 0.470105395 0.005) 237
(0.004485764873 0.5590671584 0.005) 275
(0.01927916505 0.2545948052 0.005) 126
(0.01711178231 0.9301980929 0.005) 466
(0.004661117537 0.5116430574 0.005) 255
(0.04230060796 0.9506198938 0.005) 479
(0.01205725772 0.3890907207 0.005) 191
(0.01773190788 0.8243021754 0.005) 411
(0.04586061297 0.2410437718 0.005) 124
(0.02494974598 0.6807728824 0.005) 342
(0.03035860549 0.007644748813 0.005) 3
(0.03078938676 0.1209739984 0.005) 63
(0.03986861052 0.284750271 0.005) 143
(0.009328738406 0.195375762 0.005) 95
(0.001830761726 0.5552185587 0.005) 275
(0.005099774665 0.1462725996 0.005) 70
(0.01374468977 0.4213272117 0.005) 211
(0.03243057822 0.941859164 0.005) 473
(0.0292408723 0.3929025212 0.005) 197
(0.03525704174 0.8436998405 0.005) 423
(0.02918672666 0.8241345845 0.005) 412
(0.03667326669 0.5653670815 0.005) 283
(0.01527669629 0.4129585652 0.005) 206
(0.0264909085 0.1818359465 0.005) 92
(0.02393045764 0.4241974261 0.005) 212
(0.01054467059 0.77961948 0.005) 386
(0.01015039613 0.1988476204 0.005) 96
(0.03045354742 0.1216155776 0.005) 63
(0.01602544455 0.3939982622 0.005) 196
(0.03722121384 0.6081225181 0.005) 303
(0.03439771736 0.6242497991 0.005) 313
(0.0316825244 0.2795249799 0.005) 138
(0.01778048052 0.8485984855 0.005) 421
(0.005659439508 0.3994020715 0.005) 195
(0.04128116437 0.295181467 0.005) 149
(0.005151147977 0.8798835662 0.005) 435
(0.04053883558 0.3815052494 0.005) 194
(0.01906878601 0.2606498201 0.005) 131
(0.009258276459 0.9946676365 0.005) 495
(0.02434809067 0.9441024077 0.005) 472
(0.01315317563 0.7024224257 0.005) 351
(0.01131791629 0.9199509659 0.005) 456
(0.04455448731 0.8726922175 0.005) 439
(0.007860661327 0.3791115682 0.005) 185
(0.03706307684 0.5173686008 0.005) 258
(0.01936456688 0.6081778966 0.005) 301
(0.001750376533 0.1926847548 0.005) 95
(0.01826825557 0.0372075323 0.005) 16
(0.04272558161 0.5948721268 0.005) 299
(0.04921780289 0.9185906008 0.005) 459
(0.01671938194 0.1662567994 0.005) 81
(0.04591985441 0.3018974924 0.005) 154
(0.02842594291 0.140082992 0.005) 72
(0.002889825712 0.0006873012612 0.005) 0
(0.01103296206 0.3563000574 0.005) 176
(0.009316283697 0.8099079139 0.005) 400
(0.01464251907 0.6989986753 0.005) 346
(0.009448249298 0.1631310238 0.005) 80
(0.04067907049 0.3113018879 0.005) 159
(0.03300680698 0.6327304648 0.005) 318
(0.04108944243 0.2047079515 0.005) 104
(0.01643607589 0.4530583469 0.005) 226
(0.007009569215 0.8089652659 0.005) 400
(2.41844405e-05 0.555307661 0.005) 275
(0.006787632092 0.6500514818 0.005) 325
(0.00684574382 0.8277679257 0.005) 410
(0.04621065528 0.1453177847 0.005) 74
(0.03933987898 0.3703921589 0.005) 188
(0.01390818455 0.8870056622 0.005) 441
(0.03968243663 0.4219202613 0.005) 213
(0.015149698 0.1103236046 0.005) 56
(0.04999117207 0.6781951409 0.005) 339
(0.008434334575 0.4567745357 0.005) 225
(0.01915406133 0.391060019 0.005) 196
(0.003116390231 0.05956933927 0.005) 25
(0.03108886884 0.4701192093 0.005) 238
(0.0458884434 0.1205494393 0.005) 64
(0.02872742494 0.6075281317 0.005) 302
(0.02524453761 0.194377777 0.005) 97
(0.0207085805 0.3410176768 0.005) 172
(0.02999285607 0.5469532716 0.005) 272
(0.03938137793 0.1202173281 0.005) 63
(0.04762589518 0.7049005304 0.005) 354
(0.003782238104 0.4447853022 0.005) 220
(0.005089096041 0.1168688718 0.005) 55
(0.005743558797 0.07989640329 0.005) 35
(0.03566257516 0.5031088899 0.005) 253
(0.0179965675 0.782028243 0.005) 391
(0.01370882034 0.1981939653 0.005) 96
(0.009279332561 0.6604398153 0.005) 330
(0.006123696285 0.5997289269 0.005) 295
(0.03577797311 0.5544953396 0.005) 278
(0.007123138353 0.02573228235 0.005) 10
(0.02418798632 0.4597276073 0.005) 227
(0.01004993705 0.4478438037 0.005) 221
(0.03616152545 0.6171692342 0.005) 308
(0.00173293147 0.1578913372 0.005) 75
(0.02418939674 0.4282712424 0.005) 212
(0.01562813374 0.5859845744 0.005) 291
(0.003357966203 0.0624419225 0.005) 30
(0.04046908895 0.2913603202 0.005) 149
(0.02484165011 0.3224683873 0.005) 162
(0.02019982646 0.1591267436 0.005) 77
(0.03474558125 0.3098621893 0.005) 153
(0.03007612161 0.5168477442 0.005) 258
(0.0165944754 0.4061754746 0.005) 201
(0.03607616645 0.2532829283 0.005) 128
(0.03323533295 1.077334484e-05 0.005) 3
(0.03334065953 0.5874176464 0.005) 293
(0.04532519283 0.8841795358 0.005) 444
(0.01206639898 0.7682445708 0.005) 381
(0.03793834215 0.3780226917 0.005) 188
(0.02722549216 0.7690987394 0.005) 382
(0.01170548832 0.9801252571 0.005) 491
(0.007506810562 0.6158337571 0.005) 305
(0.01079182418 0.6478293525 0.005) 321
(0.008618000006 0.3300387683 0.005) 165
(0.04363198632 0.911416267 0.005) 459
(0.04401123107 0.05661823912 0.005) 29
(0.03072643835 0.007387972448 0.005) 3
(0.005509557134 0.4094318262 0.005) 200
(0.01712231339 0.269695576 0.005) 131
(0.02000788735 0.3457324238 0.005) 172
(0.04735170365 0.1486840069 0.005) 74
(0.008504862627 0.2689547601 0.005) 130
(0.0002845712095 0.5537578552 0.005) 275