/*--------------------------------*- C++ -*----------------------------------*\
| =========                 |                                                 |
| \\      /  F ield         | OpenFOAM: The Open Source CFD Toolbox           |
|  \\    /   O peration     | Version:  v1706                                 |
|   \\  /    A nd           | Web:      www.OpenFOAM.com                      |
|    \\/     M anipulation  |                                                 |
\*---------------------------------------------------------------------------*/
FoamFile
{
    version     2.0;
    format      ascii;
    class       vectorField;
    location    "5/lagrangian/dsmc";
    object      U;
}
// * * * * * * * * * * * * * * * * * * * * * * * * * * * * * * * * * * * * * //


47647
(
(1689.58173 -818.9993126 -846.8735647)
(781.8285987 1133.447657 60.31449808)
(1337.856481 592.1362952 1201.722262)
(-347.0257701 -866.8822819 741.6781479)
(-40.54084191 395.9119105 -97.42799607)
(-546.2123242 630.6597801 484.2798036)
(-12.52913052 564.5344014 519.3352371)
(-1637.72313 155.746053 563.9768522)
(135.1043033 649.8708966 -165.6541923)
(1774.099313 150.2466991 1199.290961)
(47.19489644 -337.4956214 -587.7186702)
(-386.6074121 15.00677036 597.1508405)
(778.4179827 334.2906136 -677.8331076)
(-946.467981 -168.1963327 744.0987746)
(107.9186844 839.1518303 665.896399)
(-859.146126 436.8422486 180.6520959)
(494.5373697 444.573761 -846.9845958)
(-782.6034262 928.3709713 246.1035681)
(-168.5115481 365.7390785 -247.8127061)
(307.4522275 1034.51743 465.3246193)
(112.933212 133.5818122 -358.9992335)
(1834.301219 -1156.936587 -10.11157187)
(838.4096814 930.2466861 721.7021328)
(418.6233699 1449.849138 541.4988883)
(1514.250324 1718.113268 -81.2476104)
(-164.403566 -583.7277409 275.5285034)
(722.8392934 -338.9373284 447.1192085)
(376.7055755 -196.4979038 230.6780882)
(3.428849635 -433.7516349 -720.6480182)
(526.8227631 -1621.329564 382.352383)
(3.561326997 729.8476129 292.3006433)
(141.1679791 -1328.47123 -822.2208587)
(-1256.835888 920.4268935 701.4941338)
(121.0204314 537.5075623 -1013.594092)
(-1028.803928 -111.6983921 -608.6380707)
(-590.6970795 -856.5070992 -1631.199372)
(1537.410504 -885.2635353 317.9598149)
(189.78828 686.4865357 -114.1457975)
(118.4805381 481.8394847 -344.13998)
(1355.775155 411.3774007 62.50381294)
(-714.3192566 -722.5485851 -950.7744445)
(697.4179801 284.1196726 704.8109757)
(-1373.698013 649.6304347 -798.5698491)
(348.1752122 -408.471721 424.8678589)
(895.6022593 -444.5919738 733.0040757)
(-263.3179132 1301.435016 -1401.290872)
(328.0588691 1291.076632 -792.8982235)
(654.1879651 340.7519855 440.5070596)
(1149.059871 -206.1179315 -710.0894676)
(476.670057 1514.028169 113.4377868)
(618.6822843 -629.7611583 164.2004329)
(796.6272207 -133.9809847 493.1230657)
(718.3218669 141.093891 1098.278292)
(-1117.727946 -489.0225594 165.0681311)
(166.4477467 -135.2942718 -296.0265768)
(-556.0847773 416.9566612 -413.6031768)
(-1232.834759 156.8866141 606.2934407)
(-1070.783836 1006.631891 -323.0598426)
(-211.0741412 2094.546958 -441.004628)
(18.61354868 -1576.869326 1349.128472)
(95.93241655 882.7489895 209.6585924)
(275.4820596 -819.2318843 635.837382)
(-571.8549767 -731.9096367 1040.225154)
(441.7740055 92.47085641 810.1033846)
(47.09131255 1355.685474 -854.7365082)
(-312.5712112 497.1892632 670.1096635)
(1636.922496 -69.4256372 20.76878563)
(-69.82002744 -1155.063975 1361.852837)
(-149.022961 -410.0251918 -846.0469877)
(785.582886 708.8916139 853.295267)
(-1103.098021 275.1167847 96.87247416)
(560.6079163 -36.27423167 963.0840701)
(-1028.151586 1271.71404 1010.581876)
(345.9641069 -237.9709372 1704.179745)
(-462.9888559 -359.5020824 963.2507318)
(-208.0217015 -237.7867283 762.7356701)
(1033.420663 -42.38186935 1369.563122)
(-298.625127 -8.887888343 -1373.064071)
(-2303.527415 1201.543723 -476.5832642)
(-767.1072795 1052.490832 198.5551819)
(252.5950429 61.91278829 647.0813443)
(-320.8171597 -767.7037 813.223141)
(-398.4417282 2138.635391 -593.1028862)
(355.883498 337.4699807 429.8768828)
(-837.2511257 1153.874272 1.173275911)
(-222.6581468 602.1947954 925.6271856)
(-2287.58401 -30.94756151 -1208.534636)
(-1014.36187 -409.6200006 -311.8790231)
(-467.2448618 204.1607569 -304.3443343)
(164.2426497 -261.5122244 -135.2858989)
(2063.558878 -295.1908737 -217.5716527)
(58.82192733 1544.917633 -764.5595327)
(692.3048471 -565.8633791 -468.8505864)
(264.4449009 1056.170122 1138.284452)
(-503.8265546 875.7147821 95.74461076)
(-313.4820006 -412.0906614 -1025.865656)
(615.5094754 988.1813885 -760.9194221)
(80.65242758 653.6747183 969.7217706)
(-140.8879405 187.3263272 112.5327088)
(981.0715656 -962.5897372 -33.75199928)
(-63.27296204 969.6726407 511.4281394)
(-984.3936587 433.327728 596.7620203)
(275.043998 186.0697833 -1213.292565)
(409.2926422 -1842.842419 -503.4533061)
(493.2976336 -861.177365 -1716.213116)
(1223.700421 47.46994266 848.4604847)
(41.4715261 -1368.32111 739.2926017)
(1506.579778 167.5759118 259.0106771)
(-387.2186885 -1395.327584 -1318.457727)
(1814.477101 1302.412952 -1077.40098)
(1777.475446 575.1991303 609.7579136)
(-267.1970092 670.9960076 197.4367211)
(27.55816219 1011.156524 -790.2934316)
(908.9813055 -750.3183095 353.319045)
(-8.259219468 -815.3070146 267.5947739)
(-362.8332387 -407.3643462 -889.0952182)
(1532.684521 -1181.536285 1408.477156)
(383.9466339 270.2071858 -8.074396642)
(-450.3861275 46.43671613 -564.5672278)
(-583.9523964 -362.4051063 187.2668435)
(811.4908477 29.08829342 -500.3517887)
(-314.7721127 -128.2126684 686.2725169)
(-492.5835089 1561.82005 287.9692445)
(170.7327446 -538.2588901 -100.2972476)
(185.0319869 -1205.422338 -377.0882939)
(-508.439602 1844.945567 -100.1148673)
(-703.5387947 366.610742 -2502.928189)
(217.7356925 443.9879935 -185.0524871)
(-540.4994583 346.1403076 -180.56806)
(460.335751 1097.280413 -566.2182577)
(718.0734271 -359.3634631 -385.5206574)
(-484.7354828 1285.181982 47.93987252)
(728.0849486 -304.7335628 -246.4419071)
(1013.305096 -77.9956648 336.981323)
(925.2047239 -984.7017813 185.2112298)
(-219.1307493 16.46943533 -982.6070154)
(-788.7125217 1142.492823 -329.211229)
(63.39639912 -727.6651637 454.953152)
(1396.15685 -1227.250356 928.9271683)
(1032.383642 26.63150161 -1508.745721)
(-55.70745187 -1633.864784 171.6197817)
(1194.158116 369.1143963 -760.2287831)
(439.9017887 148.6891017 -1266.484246)
(824.3022942 -332.3759396 1687.599783)
(41.11362262 -2078.144832 -1195.022013)
(736.4189282 378.049594 1581.20943)
(9.910279978 435.8064715 1013.864571)
(438.7046693 686.5415247 -1008.534398)
(64.97299524 -716.8800964 -978.9757652)
(214.9721104 209.4394004 -437.8988625)
(1226.483471 854.8578275 -2286.223061)
(401.6691379 1399.35628 -317.6126869)
(-428.1457765 -620.6536826 -2013.192345)
(81.33109476 -741.3418949 -557.5008589)
(-544.7749284 -224.3775199 -1077.449107)
(-1371.102054 -2039.01236 -533.102041)
(386.7192366 1472.593979 -64.18530979)
(692.2505634 1192.46014 -543.9884242)
(469.7465894 656.8202715 -289.4119703)
(1012.956428 1023.768028 -259.2451189)
(-466.75469 559.9757517 -188.8745297)
(-763.0028254 1882.801959 889.7351629)
(-307.9867489 -81.64877283 473.4144692)
(1411.990673 -33.41479655 -748.2895121)
(1102.121443 -950.9045062 352.2534606)
(-1112.740275 1420.17628 247.1994728)
(-98.90755088 -280.5066757 551.8323444)
(306.0204036 -960.5308491 -662.9416723)
(-843.7993368 -550.432346 79.92392012)
(770.8035641 -711.5928417 215.8318017)
(-92.6125654 381.2669554 -1580.43866)
(284.0741767 -930.9347687 -2278.858721)
(2900.489229 -1094.505725 -290.7349831)
(-137.5978472 -486.0457023 -1138.29937)
(949.9669057 13.95340064 659.8668403)
(-418.3773116 -78.64604459 883.9854138)
(-691.7323658 432.6118239 -7.068952302)
(-181.5991952 -784.0247356 -1586.210799)
(-343.9334957 678.920512 -1313.564764)
(-869.0098747 1474.328615 -92.59429286)
(-534.2341398 1962.903021 905.9018704)
(-281.9860172 1122.750789 843.3695723)
(709.175213 1454.281117 734.382067)
(-550.7320991 -989.2632049 1021.781839)
(1528.089129 -1009.050557 -749.8325608)
(246.7823142 -1055.898053 1359.096786)
(-1775.206866 584.5311127 498.3604216)
(832.3247693 -1319.767433 713.8831183)
(-434.3530121 -574.5538505 180.319605)
(-559.0858752 418.8151051 -213.3912328)
(994.1784611 1160.12205 -66.38726178)
(344.3642104 -350.2587177 179.470033)
(870.3664359 -1184.328243 -1047.631987)
(595.6585476 -661.5766175 600.7549082)
(249.2420635 -489.8188663 -1152.603778)
(-318.1788466 -2.568555271 480.0329574)
(869.2701774 -763.6814192 673.1326637)
(816.7209898 1294.400649 -2297.647824)
(-522.0232108 634.1079297 726.3478718)
(390.1735309 228.2030661 -926.4633597)
(-506.7694522 871.052596 61.32326871)
(-1039.635165 -837.6962125 621.2659145)
(-57.9437171 1171.982602 886.586911)
(-295.526576 95.38599816 -666.8023006)
(354.5615405 610.2552803 -975.3512518)
(492.6356525 -187.3450221 -386.4119214)
(-987.9556612 241.6967339 -121.0295937)
(442.1734082 514.7808353 1202.691021)
(225.6810217 -1135.354835 -576.6101303)
(111.8650102 894.207323 -1141.087339)
(-780.0319968 416.6355408 875.1274021)
(780.36884 -85.29848024 1219.70202)
(1285.143637 913.0815866 -1805.839063)
(946.2155603 70.29675375 1699.282054)
(836.2005021 161.9763552 396.4299547)
(-145.6224718 250.7770381 -569.8383574)
(171.3796132 -83.03456924 1288.189645)
(-710.9842072 -496.57764 -1053.914952)
(808.6547282 -772.652171 -17.241828)
(550.5075337 1038.70787 -1801.822545)
(-1071.267343 186.0768856 -717.2877486)
(-273.4068847 -237.0941052 814.8930241)
(880.8888674 -490.6048526 971.7172854)
(-101.6680094 99.08637743 -658.4564314)
(-92.08897389 162.3887216 163.5663012)
(148.9421465 -679.9769374 -510.0632107)
(-271.2229004 774.2439783 -987.0022609)
(1612.764228 861.7007917 187.2763464)
(365.7042907 -489.8679479 -633.6682418)
(-944.6064731 -362.2659574 -341.5696961)
(-1003.910731 -132.2761697 618.8908552)
(-674.2860151 704.2376793 1537.783514)
(-1175.820199 1073.839671 893.7114973)
(2083.890878 270.7269032 -11.3472844)
(-691.1443528 -2646.493296 702.715004)
(-1546.509848 -531.2189802 -1672.348544)
(-104.0405897 -705.6012711 942.6410372)
(804.4671862 484.9009546 -29.65534564)
(1004.317051 403.2746905 -1008.89502)
(1673.660752 440.2431964 83.22459052)
(-773.6237998 534.0466989 -337.3436185)
(2333.04863 -727.6540207 -353.6724332)
(755.4281793 -576.1974536 -1227.296997)
(-815.7675083 572.4378551 -310.8526758)
(-20.93851636 65.0953581 405.8853237)
(4.558849781 330.9523696 -115.382125)
(82.59644419 -1600.713933 396.2281437)
(249.1812433 -1576.763536 -1098.384742)
(-742.6687641 -1242.247809 2786.548889)
(-1412.501436 -1249.330933 -113.6311842)
(-757.9362778 -1267.498848 -892.4565499)
(1557.610644 475.6982331 1603.734881)
(1955.127365 1042.511179 -813.0773779)
(1166.186984 943.7742543 364.4438724)
(727.2099055 553.3491655 567.2734054)
(326.2815366 -413.1858567 -202.6951347)
(-546.5003053 129.8391237 -2051.616487)
(889.587677 -451.8874596 758.5705448)
(-580.1314625 -525.2641849 238.5573715)
(311.8457537 456.3645801 10.84253797)
(-642.83121 -577.0166782 -18.58211738)
(-1158.140578 170.1297913 -403.8225921)
(565.4109873 -769.5650597 878.8365624)
(-1315.721016 132.1775952 469.8838134)
(779.2602651 882.5971745 2608.072893)
(-316.6776834 1414.594583 -119.1132001)
(-136.9574211 555.9893522 -364.6260575)
(949.5446429 42.16992423 1616.76432)
(-191.6693399 417.5967541 -484.1500814)
(949.7226178 -255.4821871 -243.6062665)
(1180.575508 239.607968 -303.367711)
(496.5218273 1293.834755 185.5606193)
(-824.4112813 -373.3234712 545.6935695)
(420.1075587 -700.444573 1574.025933)
(602.9938636 589.4465944 -389.2130214)
(799.471887 -1130.400454 -86.2665878)
(765.0528329 -223.459583 -779.9649985)
(1751.855067 120.0342226 596.785325)
(-63.60587483 -1135.164403 -717.8934175)
(817.4021877 824.0714405 890.4069744)
(-850.1707875 -2478.015246 1021.182863)
(-1450.524265 621.5938688 654.3581671)
(-565.2884851 -139.0123296 -1307.709483)
(-22.74719797 -165.2414999 -171.6413884)
(196.6619782 647.5965923 -2335.788823)
(-112.819069 193.3824955 -478.8236612)
(-230.628363 -990.5460687 1147.064529)
(289.4907553 975.2521861 98.3104282)
(1353.081865 615.5980043 394.4158116)
(418.7299596 526.6481689 -278.8019507)
(1013.462392 178.9120055 974.0532583)
(460.6368188 676.5256465 1841.969045)
(116.6973295 -507.2863441 -314.8311211)
(-263.904263 42.68677591 -20.12777614)
(-1442.80447 -78.96356326 287.6496284)
(-531.8366436 440.8158566 233.2687537)
(-803.6962558 176.1637795 -243.5305232)
(-201.9385327 363.6621279 -799.7730139)
(-1547.593267 703.3604317 51.93777727)
(-94.78828292 -349.4440289 -452.4500099)
(-546.001045 1298.279789 -569.9080077)
(734.5716073 -250.4645912 719.4649623)
(-706.2756804 226.6763195 -538.3619985)
(685.8407187 1499.048892 436.086264)
(-1379.242837 -220.2233622 561.2792458)
(-420.7524821 -1586.052085 294.505282)
(514.9948257 -330.7681793 1223.813052)
(130.6710615 -1509.920959 1184.834305)
(-1305.661243 -836.1060266 -499.7750952)
(136.2957341 -160.2218823 694.7743237)
(-779.7764533 743.2909299 -233.7363397)
(-207.2493116 -926.9276779 -142.9053055)
(-2326.014696 372.0609383 260.6233623)
(-306.3399096 988.8320838 -612.7990092)
(-626.9494191 -933.5382554 979.7512022)
(385.171901 1214.45863 709.5402154)
(-70.67516646 -821.8617767 78.24016825)
(-492.0261202 -177.3792913 506.7288576)
(768.6844482 462.7735626 -218.6784718)
(-1326.209655 -396.5420609 741.3996001)
(-1432.641811 1168.882626 -90.89257383)
(696.4989289 -1248.780393 95.58123565)
(421.8456936 105.0736267 811.8796577)
(75.85631796 787.3911599 -643.9639265)
(-674.8067878 -746.4531172 1102.314232)
(1157.188826 296.5087149 -1195.585836)
(-781.2000632 1467.198839 1090.478153)
(976.1531378 1379.306723 -575.5568837)
(438.7803062 332.1487292 666.3620597)
(-291.7818729 432.437104 -532.5575165)
(-1270.248581 792.0641496 -123.8519846)
(-385.0440529 2622.789026 747.9515582)
(-1613.366269 282.4615059 343.5457616)
(-205.1985841 939.8990068 767.8549089)
(-1401.086732 1030.812501 -236.9421262)
(-52.30209142 1510.459237 49.17885923)
(104.2212357 -341.1330333 787.8348016)
(397.25928 388.4229437 74.59958782)
(317.0730092 44.47428968 -72.06377392)
(1308.454772 1017.439769 266.0265398)
(243.7812318 88.62229589 197.8787364)
(-471.6118967 477.0212621 -917.8875834)
(53.03346998 -113.2278658 -1100.217852)
(-479.6444826 34.80859995 157.6932676)
(1149.030549 -619.8536104 -423.7770472)
(1522.032505 626.1378061 312.4131207)
(730.2211934 156.9104483 -378.5936237)
(13.2194365 -1445.658945 -52.19229158)
(760.7647039 744.3274213 -227.6717247)
(1887.062251 -1421.644033 -956.2849892)
(-278.304957 -726.2377407 862.7685897)
(-744.7557777 -442.5447616 639.7162063)
(290.3845237 318.7728605 360.3768657)
(-1107.78948 1204.860705 -829.7467519)
(-312.840593 -39.62067956 217.5606162)
(701.7867485 1009.459817 -471.4751034)
(518.6490379 164.1893343 -700.059966)
(-881.0110356 481.4710483 1356.51502)
(-828.4866635 869.9649334 -211.5678052)
(1047.100959 -383.3110315 -293.0046696)
(-406.9102478 789.1019947 -1766.854693)
(1596.028125 -238.2727782 -1042.423552)
(872.9842829 -749.7321589 -99.13021233)
(-1309.050508 503.3026676 -385.7404644)
(270.9657644 790.5050972 426.6583587)
(-78.78318792 -284.3998938 345.1836053)
(1187.089712 15.53115811 242.8205805)
(-298.0951797 321.8875623 -1869.411909)
(-527.3944735 353.6835892 108.9304976)
(91.33789152 -155.6368105 -270.6752558)
(-342.0952506 611.8678922 -603.4082186)
(11.84060435 -1101.696237 -853.206976)
(-1266.879048 557.0165377 635.2305741)
(2001.613088 -780.4863155 244.3516297)
(408.9004799 -187.2131626 -1074.650705)
(-801.2345895 1593.520442 -1064.794867)
(-692.2332328 539.9165655 -619.2509857)
(-1665.114431 33.5943903 1032.804131)
(306.5505049 68.94017972 -236.0764025)
(-1409.129891 1633.24435 1122.472903)
(-963.3359401 307.2753378 581.0605699)
(-807.1683785 -255.3985856 -63.00841295)
(845.2817623 1087.582995 1507.243631)
(323.376162 440.3736175 -20.01031616)
(1108.954765 -321.0333111 -1617.899033)
(143.088943 -529.6415245 439.0068847)
(-185.7221197 427.4004695 -102.0913457)
(673.4541903 18.67194987 -230.3993668)
(225.7284735 -754.813315 477.734622)
(-1237.361671 -211.6208416 823.6547033)
(-1019.493071 -116.1476004 -248.2522077)
(216.5194512 864.0296444 79.56282746)
(564.6407539 -492.5000327 -1492.163534)
(1911.783975 383.2922345 569.5419966)
(1064.811938 -588.1818198 543.5096092)
(394.0065683 473.4277944 239.0444905)
(689.1107564 1095.330555 -633.4306559)
(-717.0580699 -102.9340424 207.117219)
(-285.1957863 48.7138234 252.1975819)
(-221.7657521 -881.5534338 516.3811607)
(-968.0738592 -302.0144189 122.8662328)
(502.4367583 -214.3677163 -947.764333)
(-581.6310243 610.5726575 1671.327805)
(862.6094071 509.1995718 -11.99327898)
(-28.593178 -439.221096 -633.7799207)
(1569.797902 -1541.405091 -1351.260901)
(-151.3862044 -736.5159632 -184.4330945)
(351.6049324 -785.6336469 1025.453786)
(168.6796324 1844.506791 -291.8995742)
(-988.4049644 -352.6606289 -322.4198021)
(-150.8223021 997.4430297 619.6235206)
(214.1734848 1428.642802 167.2726693)
(-506.2168533 -1149.392775 699.6029434)
(810.251148 -811.3211064 -196.4667263)
(262.4883661 -239.7613133 938.6708571)
(766.3809659 -5.69755799 -465.143428)
(-1691.500014 -519.9843222 -497.5889898)
(-340.3536467 164.9163983 -594.548508)
(-88.52617185 -534.7846198 -1879.36185)
(370.9106127 -1367.933857 922.1757416)
(1761.49098 -121.7747375 -55.95870579)
(2104.684957 1628.562381 -422.2024966)
(-637.42762 -477.1234685 706.9887776)
(-1169.009338 528.894727 942.0398407)
(1199.99392 941.6670395 -776.6923818)
(632.3248208 -57.69262237 1141.098601)
(-663.383174 611.2140129 -374.2667551)
(227.9562828 -1127.653941 175.3605214)
(979.5458022 -925.5288168 -326.6892992)
(569.3440804 554.6668537 -249.6734503)
(-551.4373871 477.0140872 -605.9355441)
(89.56817285 987.5242065 -694.609968)
(-437.497065 -740.4004275 -916.6208526)
(1005.458631 -437.7314577 -821.4920891)
(-307.1158027 -355.0842563 447.0857418)
(741.238754 797.1823387 756.6380296)
(458.9629341 -37.46541997 69.00715969)
(-529.2489061 -1105.961981 -815.337471)
(59.59149847 -145.2148523 260.4511892)
(968.6440174 -743.575039 -1218.352032)
(-28.90321932 -1673.290603 -1051.397247)
(-1176.671514 305.8554701 -941.0299287)
(2754.303913 -662.2852074 1449.489615)
(-547.6229202 -485.2958409 607.1981281)
(-384.5206051 824.8251728 991.3788051)
(427.4930408 -2.584241683 1207.70336)
(939.4432986 -48.41728493 -199.3371536)
(104.6648253 -465.5361304 399.4283863)
(66.06006029 -232.2433133 -1366.509351)
(762.516486 -503.7911047 784.5946671)
(-636.1096031 763.4014247 -246.6973699)
(1159.490204 -2766.48219 1308.425483)
(195.8769578 78.46712895 275.6579044)
(71.67969806 -1738.656364 -649.704018)
(1018.721505 1316.895557 1257.281111)
(-871.7759797 -1023.090317 -453.3509172)
(-746.6809163 1558.522232 315.2868614)
(1407.853352 377.774299 815.3297073)
(1013.763954 -187.5660273 506.4515339)
(519.9302378 -1236.671992 -442.1876184)
(-1099.389426 -1063.747188 -730.3632373)
(-50.55548035 -411.4495334 198.3893903)
(-1418.231053 491.7655739 -803.7335257)
(1412.727661 1128.642712 244.629531)
(451.0416648 -142.8955297 494.2257482)
(-5.2231743 -380.0733608 -830.725219)
(144.1384577 792.0924972 -176.3009413)
(-573.4955108 -685.2711001 1760.832727)
(692.4549959 1888.122264 525.8603925)
(407.4376918 -509.2139402 80.04602299)
(-789.771207 451.796107 554.0633192)
(229.7534813 1053.195829 156.7473905)
(-599.1340306 616.126977 -393.246922)
(-1121.218761 -982.0668186 -99.53789089)
(-429.3927443 -900.1969841 1296.213703)
(494.6266655 1922.224907 -252.9647206)
(56.21265622 -66.46905407 1049.955583)
(1059.535566 -219.2205095 1045.40037)
(328.4966497 -299.6536348 1328.534625)
(-498.3159046 214.8178065 -818.8792797)
(-156.5477894 -794.5785504 1363.351183)
(-673.1019332 -438.8330905 220.732303)
(394.5214256 536.1653958 -368.403891)
(570.1447332 -1865.585659 -1109.589805)
(1053.586552 324.788539 597.8146735)
(369.7791861 173.4354644 -777.8910136)
(1262.696325 -860.3215041 -1281.506928)
(2235.467015 -2699.737156 441.9753915)
(628.4036475 -816.1579614 -750.0629456)
(655.286286 -1733.221862 -539.5020593)
(-181.9244532 -182.7526754 227.7202538)
(-1602.429231 -1287.235661 -828.8081108)
(-874.0900492 675.6801055 685.335623)
(752.1335047 291.9178433 31.78841917)
(-76.96877608 -1168.898137 726.0782404)
(-463.6438163 353.4118977 -650.9167246)
(583.8820131 680.2840543 -1287.07381)
(916.4509965 1794.572107 -464.2074592)
(1028.829381 -2239.588651 -683.0413832)
(506.92592 -499.4597779 139.6460611)
(503.1052133 417.4895947 655.3335621)
(78.35821126 503.8607114 1171.117872)
(975.6497136 -713.26227 -740.1153925)
(73.83164741 133.8822334 137.5922807)
(562.8090161 427.3262485 -983.4199337)
(62.34397328 1067.517745 586.8544317)
(444.6653965 -417.6134918 -448.2987352)
(-363.1555824 316.1791035 679.093222)
(-198.4549292 906.343171 48.76728237)
(-742.4388175 -579.1326184 655.970893)
(-313.9808563 351.3224903 58.20751641)
(294.7097362 381.728561 1545.474719)
(1096.340535 -100.5627961 -1342.437865)
(268.6968888 -421.8499721 -854.4192151)
(-2318.417983 409.6737976 974.6179905)
(28.09853096 2054.804297 797.7212697)
(-578.3430715 -709.223766 670.1761019)
(-1844.127064 -435.5503489 -775.6257877)
(-626.6847325 1060.461662 211.9223585)
(-236.1234181 1373.463039 -1115.907436)
(139.8605617 1018.026055 155.8647716)
(95.21323663 707.9400693 126.4118635)
(1260.267622 1279.506501 -178.7126647)
(510.2343347 -2413.204703 -77.99454703)
(79.73048364 488.5452537 925.6895443)
(1276.688498 1315.945479 -738.6832866)
(547.0365014 827.2675534 66.18045918)
(-777.4562398 -56.82628186 19.89413815)
(879.57367 -773.6516158 -126.6273166)
(1214.032328 701.4622115 443.0742621)
(-875.1211098 844.3400334 153.6681833)
(-163.2779586 287.1659759 715.2816169)
(-1165.489744 -318.2292744 80.50095809)
(346.0859655 -293.4800439 1209.737556)
(419.8136101 -1585.543516 -1682.349585)
(184.2423811 335.5676557 -880.0339478)
(-424.9848847 209.146324 -615.9348864)
(2312.942763 358.9580673 -721.1840139)
(511.9758993 -3848.986746 -214.1447265)
(308.3641766 -1454.790219 1088.705479)
(-482.8394007 1064.799731 1206.067058)
(-1051.624948 -714.1758365 -304.4381336)
(-289.8549417 673.2524086 -808.8266216)
(633.2822066 1022.030803 -839.5615414)
(1002.91884 -765.2925281 60.7796932)
(-830.2961023 487.7786327 344.713712)
(-1084.175009 197.6782187 1580.549053)
(-690.1965036 1552.066184 -661.5057949)
(495.1265314 -149.5205023 690.9892136)
(-751.0384424 -1080.955205 -2204.534508)
(2419.86125 -850.879032 703.4788358)
(-1233.824607 828.6885051 146.9829631)
(472.2742579 -1.986382224 25.49109588)
(2296.228229 1124.293275 -572.2528755)
(659.8732073 -69.0952676 216.6664171)
(-463.0218103 -908.1537643 102.8276366)
(464.3799557 -220.1059903 214.0151673)
(-651.5206828 -984.7195317 760.114554)
(28.64189817 1618.720979 404.0223992)
(803.5476894 380.68183 -323.0454784)
(-123.9478663 122.9169192 453.388464)
(888.7682473 297.3990864 -469.132503)
(-287.7965426 -291.0178905 -102.0972415)
(-189.7303108 -2215.571501 613.3072445)
(1237.701609 -399.1908819 -2331.289366)
(-615.4466372 557.3316864 -965.8718182)
(24.23758861 797.7496273 517.9763331)
(-84.9588719 570.0368515 -248.911714)
(-225.6450361 -436.088654 267.7816106)
(-1076.438423 328.3468811 -260.2685614)
(435.5310163 -85.05832899 1164.959735)
(1340.489957 -573.7964528 130.5355555)
(1111.032575 -421.5914497 -261.9228523)
(-1491.643506 890.5575659 -356.9399087)
(953.369624 -1247.146098 -295.7177689)
(322.228759 -877.4637975 -372.9987726)
(-155.5331205 236.5641867 2002.914352)
(-850.2140894 -112.773765 506.5380048)
(84.00213205 626.1392337 1585.18425)
(749.8412661 923.2072689 -602.0788921)
(393.449639 151.9699648 -1121.232603)
(-316.2994342 137.7446256 -543.7662909)
(651.9261012 242.1225771 579.9435502)
(644.0757968 483.830709 -282.4996309)
(-934.9074647 1704.219035 660.4300961)
(-796.399425 -311.8726 951.8898401)
(1640.111441 57.31022893 1449.121971)
(1165.965668 -892.5960208 -1143.97866)
(647.2534806 668.7241812 -792.7625798)
(661.926401 976.0048213 -119.0417471)
(1035.213186 865.0502666 191.0383773)
(2022.390886 -623.956743 -883.8731356)
(1853.279841 -1184.186838 1360.835956)
(-1258.546239 47.46477328 -89.17859612)
(577.1204373 744.5929466 -99.47980068)
(335.4541547 -3.049448156 -832.2497193)
(1281.285723 473.6495999 -806.4750163)
(-646.5441605 -921.4184835 -1175.947488)
(902.1179471 -929.929051 2077.901817)
(-1194.24829 146.4304427 -673.0204698)
(-848.7230715 1337.813234 953.8781158)
(-450.0662363 -623.5959381 756.5167561)
(63.66162514 1452.541878 -168.8577569)
(-870.3479604 -850.0617116 827.9004421)
(-207.4398195 -1034.582586 103.7028766)
(-163.658398 1441.559211 -640.1298049)
(-16.03865294 60.61677976 48.0039379)
(1419.652556 -1896.766707 1421.881015)
(654.978961 506.8983986 530.8567491)
(596.5349234 1286.611832 2128.382613)
(-1678.150835 -470.6411738 -1974.155575)
(-492.0489572 -498.2859424 22.36365935)
(196.0011465 434.993974 84.67202674)
(882.8563987 817.2207781 -77.48228684)
(357.5967634 464.6485455 163.4511951)
(1061.392005 -1677.170375 -849.62027)
(1179.241586 -200.119903 786.2763603)
(1424.570091 430.9639098 -1095.063475)
(188.648618 -1032.46172 573.7976655)
(-1267.675657 587.1228039 754.0120991)
(817.8901087 -116.8360272 -243.1007163)
(-799.8649932 711.3091812 -1161.372961)
(-641.5108458 1971.51182 -673.6618506)
(1589.615341 -1030.655509 2804.292163)
(-1122.952645 133.6130112 740.6396051)
(-328.1042039 -1012.416826 -351.2744234)
(1062.534236 -655.4838753 759.3488492)
(461.9372928 306.8195535 584.3285502)
(923.086236 138.7956785 -415.4740925)
(255.5262753 1466.487197 -40.29978986)
(-937.120731 -163.686374 -871.5425781)
(-1496.217744 39.8872582 203.0967954)
(83.92681206 314.2411357 368.3772423)
(-307.2703208 -31.23300932 -861.4293776)
(-784.2693331 250.4961466 -423.1694351)
(1625.900498 625.6163558 1329.975136)
(1057.4797 1322.739087 -659.3874174)
(164.644906 -796.659177 536.9937873)
(-451.1796608 151.039874 272.8979617)
(555.5365669 184.9051056 -510.9048062)
(-763.2110618 -133.696687 578.3228967)
(-1437.205381 -185.9323482 -650.4795576)
(1671.254233 1921.084122 80.04879922)
(406.2418893 1557.641511 -1070.138698)
(1231.062197 -810.6504569 -27.99505587)
(-330.0696137 -451.1314066 1722.755457)
(658.2028546 696.1271717 1212.6804)
(1737.706129 48.59182883 1445.673819)
(-400.6278532 442.7094864 -10.62015677)
(-169.0841398 -598.2268608 746.4788736)
(-1082.160961 -2122.91325 -912.1729766)
(-123.2989339 -1373.054899 -1043.47182)
(-51.6185205 180.0677045 370.3180457)
(401.3662809 -370.9641149 -504.7508904)
(-450.8547072 1218.677999 637.1043113)
(-714.3161582 21.0144758 -359.1400304)
(-301.4608994 390.1807567 267.9320473)
(420.0607816 1021.698588 -286.2287451)
(210.1960618 -712.1216512 -1111.278946)
(-551.8453478 -771.3673236 426.1335053)
(855.3992192 -164.6565197 -108.3026987)
(566.5752151 -504.4612058 -92.90781748)
(375.9221124 -540.4122531 -830.1242531)
(-226.4422466 -1296.502099 611.6989122)
(617.2404168 -966.1048556 -844.6030615)
(555.662166 -276.1647526 -993.2706887)
(415.4246743 -688.1983805 -1833.733775)
(-42.19575593 854.9778954 377.8438138)
(406.6303133 -1098.482085 410.341949)
(-1654.076812 1438.952227 -578.1974417)
(187.0414667 1125.695626 246.7348138)
(346.8388822 -823.6449913 -1066.526814)
(-199.5228206 206.0891378 164.490351)
(109.5177526 49.07703125 -272.289688)
(517.0262633 -827.5109616 -696.3031958)
(70.17126165 181.7201563 907.768351)
(-800.5855712 -269.358194 -109.2574711)
(630.8271954 -761.7278362 755.9013875)
(-900.1918803 75.03718137 299.765781)
(50.30773992 -1105.641138 170.9178055)
(425.0985351 -332.107083 -51.99356603)
(-559.1479763 293.3695551 1101.2031)
(254.0454997 -822.9270245 -1759.240435)
(377.2898426 625.7220069 -550.3144594)
(-1174.956812 936.0512505 239.2652497)
(-594.5508731 -474.7322899 -414.83005)
(228.3794179 511.8993028 1955.351677)
(585.9557172 405.112785 1212.780191)
(1527.542248 446.8151291 -521.3548551)
(68.95658545 1217.565219 1227.846368)
(552.6999148 1179.385947 -7.976694403)
(-371.1876228 323.93466 1135.578025)
(284.3272745 -314.5323504 1312.427118)
(663.9403746 -855.0389765 -0.6679337399)
(1397.232065 -1828.071084 88.25111528)
(948.2654024 -44.50607318 99.81845882)
(-172.1263399 -891.5484266 180.9511124)
(306.274466 372.0607513 1329.990624)
(732.8500614 -345.0486968 -931.0044059)
(654.7002598 972.6582489 -231.0447677)
(-26.29038604 1091.435512 35.40721763)
(448.4398876 -633.1984791 -1877.21966)
(746.4459378 -880.8351007 -608.9876432)
(-903.5932835 789.487222 1330.088539)
(-250.0089568 1532.601963 -106.79944)
(-258.1076409 -438.8549804 -1389.390543)
(1716.227715 -157.0062316 -17.15044731)
(644.3971749 -689.6809039 -1400.214598)
(2079.182002 312.5440624 -267.4002114)
(1091.902017 720.1957503 -1767.25399)
(650.4339285 338.8604023 -188.1587698)
(-870.2408103 -210.6449629 -346.7620266)
(1011.23219 1802.386345 598.4091982)
(-439.8505566 321.813409 367.7026289)
(-363.6187818 457.0951143 -273.1652723)
(6.211642117 -1337.120633 -155.9026312)
(240.0118114 1551.389957 -593.9842862)
(-496.4857845 -956.7982385 134.373012)
(200.0742836 -307.5532187 407.4529958)
(2.871936575 363.991358 927.8808104)
(1066.102452 1028.930877 646.0536529)
(365.9372782 -432.0438297 -689.6838319)
(405.3195052 808.5770533 -622.5513053)
(-1481.653624 928.3020913 -580.0897701)
(-1393.33164 -734.826249 -38.52026541)
(822.9855388 -270.9246694 618.7275116)
(-383.5462798 -1099.985782 -631.4213221)
(-428.8938728 802.1820638 -1827.933797)
(-186.5561657 -1699.60034 154.0333276)
(604.1923586 296.8303495 -574.7271815)
(-367.6442 30.89340389 -1119.077025)
(-1340.320253 900.0276896 -1609.155107)
(-864.6281475 1170.92757 385.1956653)
(-1205.986464 -330.0399109 -540.4885213)
(291.151685 -712.2139251 61.40642369)
(278.3114333 -533.3173706 -1129.446686)
(321.3259674 -147.0412217 494.6020677)
(-1445.169344 -328.3164174 519.4809289)
(505.5949566 -178.7800676 2551.065288)
(1098.697894 368.7017526 -2038.403282)
(530.7866941 62.48531487 661.481401)
(876.5635996 718.7940034 -166.8240306)
(1407.473259 -2.834523533 -99.13828406)
(-366.782196 177.8277356 538.2743868)
(601.2758163 -393.3817191 388.8867229)
(158.8175706 672.4238209 206.5320629)
(732.9497277 52.46449883 -2139.574564)
(1060.948751 343.3270987 -294.0951718)