/*--------------------------------*- C++ -*----------------------------------*\
| =========                 |                                                 |
| \\      /  F ield         | OpenFOAM: The Open Source CFD Toolbox           |
|  \\    /   O peration     | Version:  v1706                                 |
|   \\  /    A nd           | Web:      www.OpenFOAM.com                      |
|    \\/     M anipulation  |                                                 |
\*---------------------------------------------------------------------------*/
FoamFile
{
    version     2.0;
    format      ascii;
    class       Cloud<dsmcParcel>;
    location    "1e-06/lagrangian/dsmc";
    object      positions;
}
// * * * * * * * * * * * * * * * * * * * * * * * * * * * * * * * * * * * * * //

10000
(
(1.517410297e-06 3.254231812e-06 5.321996401e-06) 0
(9.57265662e-06 9.195223013e-06 8.650165369e-06) 0
(8.163450029e-06 5.306893694e-06 8.556339211e-07) 0
(4.911156994e-06 1.210693576e-06 5.613506624e-06) 0
(2.824259411e-06 2.568634385e-06 7.922694351e-06) 0
(2.985949783e-06 7.081062078e-06 9.698187094e-06) 0
(5.545567139e-06 4.090233556e-06 2.547212295e-07) 0
(3.299491313e-06 5.036065051e-06 9.688194468e-06) 0
(3.238813861e-06 1.91242687e-06 3.434551087e-06) 0
(9.144585154e-06 2.36261397e-06 8.590806018e-06) 0
(4.009266921e-06 9.073076051e-06 4.132462199e-06) 0
(-1.654361225e-24 8.370559344e-06 9.983184967e-06) 0
(8.994082303e-06 4.287149138e-06 5.817963964e-06) 0
(1.78238607e-06 5.341698616e-06 6.290213788e-06) 0
(7.820219021e-06 9.664263186e-06 4.525768723e-07) 0
(0 3.447549151e-06 9.866917887e-06) 0
(-2.64697796e-23 8.906301934e-06 8.181367811e-07) 0
(0 9.863578498e-06 5.197775301e-06) 0
(4.883242277e-06 7.115850404e-06 5.902992402e-06) 0
(4.902859066e-06 1.822401686e-06 7.946828095e-06) 0
(3.220006838e-06 7.939436529e-06 3.434908793e-06) 0
(0 3.310047642e-06 9.717038398e-06) 0
(4.677140339e-06 2.226582438e-06 8.937165631e-06) 0
(4.392675409e-06 5.993349679e-07 9.949321136e-06) 0
(7.787489166e-07 2.406554955e-06 2.889240558e-06) 0
(5.231488388e-07 1.4348482e-06 2.827375862e-06) 0
(7.338170352e-06 2.414272359e-06 3.721005066e-08) 0
(7.482668263e-07 2.588157108e-06 4.784017192e-06) 0
(0 8.200169339e-06 1.867128647e-07) 0
(8.675461526e-06 1.570487146e-06 2.516390294e-07) 0
(0 2.907941963e-06 2.993448661e-06) 0
(7.856647339e-06 7.670900651e-06 7.464236322e-06) 0
(0 4.706536285e-06 5.007251529e-06) 0
(4.345196077e-06 9.798043991e-07 8.450390645e-06) 0
(0 5.794407991e-06 2.058313892e-06) 0
(0 9.145320165e-06 9.283833393e-06) 0
(2.215686136e-08 9.267499249e-07 8.928909939e-06) 0
(4.826584875e-06 5.522011913e-06 7.572969557e-06) 0
(7.021090192e-06 3.038578879e-06 7.913475601e-06) 0
(7.66839758e-06 4.977029184e-06 4.273501975e-06) 0
(5.921630022e-06 8.773122234e-06 8.956120374e-06) 0
(8.116458198e-06 9.029428788e-06 5.664667772e-06) 0
(9.584871675e-06 3.31721088e-06 4.261055427e-06) 0
(4.430001195e-06 6.528397191e-06 4.120914674e-06) 0
(2.64697796e-23 4.582117459e-06 9.347362412e-06) 0
(6.33532649e-06 1.843026181e-06 7.526025497e-06) 0
(4.297837205e-06 8.190318444e-06 8.843412226e-06) 0
(6.628432552e-06 9.834697867e-06 2.067744765e-06) 0
(0 8.129751928e-06 2.046845269e-07) 0
(6.142329246e-06 7.64189498e-07 3.149195912e-06) 0
(8.228558743e-06 6.918947283e-06 4.061108421e-06) 0
(9.537093207e-06 5.298938903e-07 6.868174124e-06) 0
(2.199405815e-06 3.577767357e-07 5.163464098e-06) 0
(2.594646775e-06 7.336419547e-06 3.595290904e-06) 0
(5.089811928e-06 6.512642935e-06 7.440381957e-07) 0
(1.327149935e-06 8.649759177e-06 9.052449407e-06) 0
(9.753487562e-06 1.241253784e-06 9.864064248e-06) 0
(6.10391818e-06 4.107338297e-06 5.803167564e-06) 0
(2.169282337e-06 2.226863692e-06 8.267831561e-07) 0
(4.548516286e-06 3.109606297e-06 7.454419852e-06) 0
(3.766477244e-06 2.234045263e-07 3.04318561e-06) 0
(7.156971532e-06 9.295627987e-06 4.19192373e-07) 0
(4.399481389e-06 9.048398528e-06 3.808433965e-06) 0
(0 2.968274207e-06 1.719879211e-07) 0
(7.850641419e-06 2.393260672e-06 9.700210806e-06) 0
(1.699529991e-07 1.394773539e-07 4.033499994e-06) 0
(6.844411533e-06 9.297953012e-06 9.622482894e-06) 0
(0 1.889145303e-06 2.869346584e-06) 0
(8.658070037e-06 5.359740261e-06 6.874638927e-08) 0
(1.355256812e-06 5.244757048e-06 3.050092209e-06) 0
(0 2.696987403e-06 2.791433971e-06) 0
(-1.32348898e-23 1.989853115e-06 2.451837881e-06) 0
(9.878066992e-06 1.399634438e-06 6.526019838e-06) 0
(9.833668118e-06 5.730193883e-06 4.990717911e-06) 0
(0 4.43525289e-06 8.827120668e-06) 0
(3.530791946e-06 5.837032142e-06 4.904332817e-06) 0
(1.430429326e-06 3.46697972e-06 9.956959343e-06) 0
(8.474909459e-06 5.473841566e-06 4.571868384e-06) 0
(7.280126622e-06 6.012761223e-06 1.245453425e-06) 0
(6.158625054e-06 3.915402829e-06 9.293560258e-06) 0
(8.32260056e-06 1.013982563e-06 5.429888856e-06) 0
(7.334458932e-06 7.737896685e-06 2.688238976e-06) 0
(0 3.858726142e-06 5.432609227e-06) 0
(3.001596097e-06 6.87928636e-06 5.043809729e-06) 0
(7.098818369e-06 5.437728458e-06 8.2733028e-06) 0
(7.185690706e-06 2.756267103e-06 6.032571062e-06) 0
(5.256358335e-06 5.475846916e-06 3.156051208e-06) 0
(7.114348888e-06 3.881918775e-06 1.56199631e-06) 0
(5.687735225e-06 7.73898049e-07 4.621357016e-06) 0
(3.690687831e-06 5.336282326e-06 7.120965228e-06) 0
(8.252289391e-06 4.147739839e-06 2.609116782e-06) 0
(8.954495048e-06 8.195445646e-06 2.409573957e-06) 0
(2.080347784e-06 2.507756187e-06 1.590778383e-06) 0
(6.36308411e-06 9.218411655e-06 3.893889441e-06) 0
(7.674305029e-07 2.398174769e-06 6.473295688e-07) 0
(8.070168985e-06 1.972851526e-06 3.447438857e-06) 0
(0 6.235449892e-07 8.168334151e-06) 0
(2.108429754e-06 1.23014686e-06 1.097824948e-06) 0
(1.458207824e-06 3.935941342e-06 9.481365202e-06) 0
(7.324245365e-06 2.32460087e-07 5.976357938e-06) 0
(4.876971142e-06 9.128543136e-06 9.254077804e-06) 0
(8.942702264e-06 6.720982695e-07 8.900303779e-06) 0
(2.213429917e-06 7.46225849e-06 4.684208937e-06) 0
(4.43038573e-07 5.410974913e-07 7.844290092e-06) 0
(7.289859151e-06 8.123534161e-06 8.65766958e-06) 0
(4.856712139e-06 8.122567849e-06 2.386098528e-06) 0
(7.45233878e-06 7.399613707e-07 5.897320986e-06) 0
(9.380552415e-06 7.274881531e-07 2.410872676e-06) 0
(5.045306233e-06 9.692307751e-06 2.339321371e-06) 0
(8.977732036e-06 8.803635321e-06 5.982408359e-06) 0
(2.145004271e-06 8.383128753e-06 6.114403739e-06) 0
(7.082389693e-06 1.776256836e-06 7.044291242e-06) 0
(8.908689299e-06 9.463512104e-06 8.162923805e-07) 0
(4.998217458e-06 9.915922835e-06 9.77001296e-06) 0
(5.889500052e-06 7.637756142e-06 4.345509456e-08) 0
(4.63096104e-06 4.668234746e-07 5.270551275e-07) 0
(9.851534318e-06 9.954112465e-06 5.965714916e-06) 0
(7.555540548e-07 4.695622249e-07 6.442169005e-06) 0
(7.784056972e-06 4.539745756e-06 2.599140607e-06) 0
(2.168563614e-06 9.971875756e-06 4.553497579e-06) 0
(9.53471186e-06 5.922859969e-06 9.208842771e-09) 0
(1.291080711e-07 6.167559005e-06 6.412402973e-06) 0
(2.565264838e-06 6.609783653e-06 9.415054302e-06) 0
(6.422150095e-06 5.751006035e-06 5.532592877e-06) 0
(1.332390183e-06 9.379853824e-07 5.018350056e-06) 0
(8.538537891e-06 7.736708236e-06 5.313598534e-06) 0
(5.406434701e-06 4.479892348e-06 6.930273097e-06) 0
(8.283517947e-06 6.267733796e-06 3.487685397e-06) 0
(6.134823034e-06 2.56389989e-06 5.952970601e-06) 0
(7.503481051e-06 7.521140123e-06 7.394164308e-06) 0
(5.515514116e-06 9.846040572e-06 1.532510432e-06) 0
(2.128020248e-06 9.158278615e-07 8.689917639e-07) 0
(4.072578325e-07 9.614127521e-06 4.952980239e-06) 0
(2.585647721e-06 2.144339667e-06 1.465422611e-07) 0
(2.768160082e-06 6.172377299e-06 8.324003383e-06) 0
(0 9.656086941e-06 1.124216846e-06) 0
(7.693983483e-06 2.977408679e-06 7.92408643e-06) 0
(3.579504572e-06 9.411532025e-06 7.454055559e-07) 0
(2.622339557e-06 4.817576224e-06 7.604601272e-06) 0
(3.123682365e-06 3.401040373e-06 4.076424962e-06) 0
(0 3.49818645e-06 2.279380652e-06) 0
(0 2.848344273e-06 1.287922893e-06) 0
(0 8.04842919e-06 2.846463976e-06) 0
(7.227839276e-06 1.858998896e-06 6.800403732e-06) 0
(1.111092661e-06 7.030762742e-06 1.997738173e-06) 0
(9.169922347e-06 9.749457297e-07 7.768869443e-06) 0
(7.542038004e-06 3.452856127e-06 1.452443995e-07) 0
(1.905210898e-06 9.943784537e-06 8.518419276e-07) 0
(7.33000201e-06 5.052144803e-06 9.404778924e-06) 0
(9.952998327e-06 4.845963067e-06 4.635098044e-06) 0
(3.898945748e-06 2.151814666e-07 9.817502213e-06) 0
(2.811101894e-06 9.223060628e-06 5.521841981e-06) 0
(8.790753903e-06 9.920088789e-06 9.501078006e-06) 0
(0 7.950578425e-07 8.383630337e-06) 0
(9.599637301e-07 4.572937774e-06 6.043810013e-06) 0
(4.52075442e-06 1.264731586e-06 4.854996282e-06) 0
(2.14213829e-06 2.017694284e-06 3.003549946e-06) 0
(0 3.235045953e-06 6.648852666e-06) 0
(0 4.808139708e-07 9.363415019e-06) 0
(4.291139521e-06 6.630980711e-06 2.832194513e-06) 0
(1.56968665e-06 1.293492381e-06 7.547309883e-06) 0
(0 7.018194047e-06 5.516662761e-07) 0
(5.987325321e-07 4.10326889e-06 8.773648792e-06) 0
(9.043882282e-06 8.359125844e-06 2.651057159e-06) 0
(5.75968073e-07 9.881681385e-06 8.404853669e-06) 0
(1.498492278e-06 1.73885862e-06 8.290032896e-06) 0
(1.619205275e-07 1.861757239e-06 6.394019924e-06) 0
(3.776243278e-07 5.394527831e-06 5.647761988e-07) 0
(9.046614821e-06 5.460990434e-06 4.953582988e-06) 0
(1.665088533e-06 1.870756333e-06 9.566622881e-06) 0
(9.919948987e-06 1.956883293e-06 6.19489461e-06) 0
(5.711474887e-06 4.959129954e-06 6.868636246e-06) 0
(5.974975739e-06 8.405864986e-06 5.581363513e-06) 0
(8.341042046e-06 9.609728618e-06 5.829220408e-06) 0
(4.81834127e-06 9.194752828e-06 8.57405736e-07) 0
(9.267367506e-06 3.77446774e-06 1.411971962e-06) 0
(3.683376289e-06 4.056182972e-06 1.784833019e-06) 0
(1.429632192e-06 3.891953147e-06 7.199804863e-06) 0
(3.70544842e-06 6.129096358e-06 8.208805782e-08) 0
(6.776228434e-06 8.246611398e-06 2.136926942e-06) 0
(9.841712364e-06 4.867285277e-06 3.884062678e-06) 0
(9.759733205e-06 6.499278799e-07 9.580472752e-07) 0
(3.935611245e-06 2.675112221e-06 2.616552025e-06) 0
(3.647550564e-06 5.85430643e-06 9.085803169e-06) 0
(-2.64697796e-23 4.866202221e-06 3.756870252e-07) 0
(5.991643802e-07 8.174490786e-06 9.787087412e-06) 0
(0 4.32953537e-06 9.354304373e-06) 0
(9.809773896e-07 4.424454022e-07 4.524164366e-06) 0
(3.005969357e-06 2.293045939e-06 9.202539633e-06) 0
(1.591409062e-06 4.295686914e-06 2.530628458e-06) 0
(1.827620294e-06 7.205715557e-06 4.086728127e-06) 0
(0 3.007826967e-06 4.253069011e-06) 0
(2.597222171e-06 5.021821895e-06 2.043377642e-06) 0
(5.577869318e-06 7.827225603e-06 7.274345237e-06) 0
(2.104023179e-06 7.466437973e-06 8.53592122e-06) 0
(3.899557494e-06 9.378563594e-06 9.686919007e-06) 0
(5.188976337e-06 5.988748858e-06 3.874750343e-06) 0
(3.391729011e-06 3.28271545e-06 6.200206733e-06) 0
(7.281792946e-06 7.937356322e-06 5.313448711e-06) 0
(4.368831906e-06 8.735322172e-06 9.122024318e-07) 0
(6.734011803e-06 3.514019572e-06 7.925896355e-06) 0
(5.796730433e-06 6.66181602e-06 4.337861309e-06) 0
(6.700685943e-06 1.277455245e-06 9.359247882e-06) 0
(9.408428705e-06 6.360214774e-06 9.014102429e-06) 0
(6.613637909e-07 8.824492321e-06 2.106841952e-06) 0
(0 5.417306394e-06 6.83087681e-07) 0
(2.210552149e-06 7.276652392e-06 2.095363346e-07) 0
(4.886416924e-06 5.082029106e-06 4.62313145e-07) 0
(3.712907714e-06 9.620195001e-06 9.425904695e-07) 0
(0 7.734536792e-07 2.954520559e-06) 0
(8.164658255e-06 1.123456784e-06 5.145701399e-07) 0
(5.803148311e-06 5.213488112e-06 1.863411287e-06) 0
(2.729788268e-06 8.672827652e-06 6.075063799e-06) 0
(8.986433562e-06 2.365301446e-06 5.358711988e-06) 0
(0 2.532243172e-06 8.469068413e-06) 0
(3.540790574e-06 6.901772698e-06 8.978035581e-06) 0
(0 5.899904373e-06 1.925666712e-07) 0
(5.522847279e-06 6.866930962e-06 1.964183753e-06) 0
(9.663874013e-06 8.670946068e-07 9.301917131e-06) 0
(7.09771508e-06 7.301095278e-06 9.354541834e-06) 0
(0 4.12795195e-06 7.096176227e-06) 0
(3.256954224e-06 2.264742945e-06 1.847312747e-06) 0
(3.282717292e-06 6.823170043e-06 8.430519741e-06) 0
(2.693157587e-06 4.120280383e-06 6.587525e-06) 0
(9.147847857e-06 6.449719622e-06 1.208789389e-07) 0
(9.344292216e-06 9.372525158e-06 9.717414013e-06) 0
(0 2.094403131e-06 1.127847056e-06) 0
(3.370501975e-06 6.626818923e-07 9.945328918e-06) 0
(4.148462688e-07 1.487150633e-06 2.994946004e-08) 0
(7.01724219e-07 8.329943696e-07 8.044457412e-06) 0
(3.402469789e-06 7.571797745e-06 7.34272145e-07) 0
(0 5.486781957e-06 6.714476164e-06) 0
(6.502385759e-06 6.888024995e-07 7.782841889e-06) 0
(6.83257667e-06 9.789402886e-06 9.214964883e-06) 0
(6.304992674e-06 9.339877477e-07 5.867025753e-07) 0
(2.382095551e-06 7.785344319e-06 3.243290793e-06) 0
(7.473623519e-06 5.194001878e-06 5.970553469e-06) 0
(8.200979006e-06 4.491329138e-06 4.379187942e-06) 0
(4.412426023e-06 4.52912442e-06 2.44887582e-06) 0
(9.495368393e-06 8.682094162e-06 6.259783039e-06) 0
(9.48609912e-06 8.831062665e-06 6.661518769e-06) 0
(3.732543085e-06 3.847523826e-06 4.250796552e-06) 0
(0 1.618192197e-06 1.652155027e-06) 0
(7.011857698e-06 8.135018502e-06 1.937269395e-07) 0
(8.866226057e-07 2.06935182e-06 2.529956569e-06) 0
(0 4.010190569e-06 1.505295122e-06) 0
(7.368716644e-06 9.556992823e-06 9.114918198e-06) 0
(3.399576954e-06 3.806573297e-06 2.890430307e-06) 0
(8.2762261e-06 8.853977684e-06 9.976980581e-06) 0
(9.589656123e-06 2.264105586e-06 3.908522224e-06) 0
(1.768245964e-06 9.518580261e-06 9.342026582e-07) 0
(6.557435952e-06 4.295003877e-06 2.960413985e-06) 0
(8.382918493e-06 1.244395152e-06 8.604266792e-06) 0
(9.330878911e-06 6.916250111e-06 1.821781991e-07) 0
(0 7.906061992e-06 9.114918077e-06) 0
(1.659575549e-07 7.352629656e-06 7.254199054e-07) 0
(9.060762777e-06 3.60035086e-06 2.304895405e-06) 0
(4.679177235e-07 7.76212583e-06 1.14223274e-06) 0
(6.091705252e-06 8.592021008e-06 8.751741063e-06) 0
(4.528140172e-06 3.090091955e-06 9.334689218e-07) 0
(4.639887206e-06 2.289673122e-07 1.094364262e-06) 0
(1.269856813e-06 7.508541428e-06 7.413811175e-06) 0
(6.237524584e-06 2.272749372e-06 6.505072127e-06) 0
(0 1.569592677e-06 1.952106122e-06) 0
(9.451856862e-06 4.4305528e-06 2.61880921e-06) 0
(0 8.770602984e-06 9.171327673e-06) 0
(2.48300109e-06 8.93895258e-06 2.350711447e-06) 0
(4.000061389e-06 8.579929713e-06 4.676286591e-06) 0
(9.365985153e-06 8.111001999e-06 1.154872448e-06) 0
(3.729761582e-06 9.872608808e-06 6.601756713e-06) 0
(2.527640088e-06 6.254140352e-06 3.823411993e-06) 0
(8.150040817e-06 8.838834352e-07 2.114701482e-06) 0
(3.053825967e-07 9.798095695e-06 7.841238639e-08) 0
(1.793199659e-06 3.369676037e-06 6.47342809e-06) 0
(0 1.541472006e-06 4.204345053e-06) 0
(1.165780945e-06 9.336185487e-06 2.5290521e-06) 0
(6.657019838e-06 7.0244488e-06 5.717085369e-06) 0
(0 9.333113815e-06 4.925707098e-06) 0
(8.900009522e-06 7.293479806e-06 9.385805956e-06) 0
(0 2.036611589e-06 5.453162251e-06) 0
(4.214178154e-06 7.494857886e-06 3.679061651e-06) 0
(4.347768749e-06 5.494179233e-06 1.02295443e-06) 0
(4.899099268e-06 2.647573258e-07 9.759020793e-06) 0
(1.934085741e-06 2.294972975e-07 5.044416312e-06) 0
(0 8.752742302e-06 1.027574249e-06) 0
(7.360201952e-06 8.10334405e-06 8.498859249e-06) 0
(5.629928022e-06 4.128681614e-07 2.144149666e-06) 0
(8.629376557e-06 2.358957988e-06 9.071490258e-06) 0
(3.295739321e-07 2.03254669e-06 1.155342387e-06) 0
(2.60046032e-06 8.425803226e-06 4.337636433e-06) 0
(9.605563169e-08 1.354390448e-06 1.947459154e-06) 0
(2.884398354e-06 6.890797933e-06 1.65617628e-06) 0
(0 8.322561866e-06 6.959198309e-06) 0
(-1.32348898e-23 3.488579476e-06 2.110659087e-06) 0
(3.770109026e-06 5.825321685e-06 2.800603482e-06) 0
(1.197031952e-06 8.844533996e-06 1.031312008e-06) 0
(7.204116423e-06 1.305782465e-06 1.905788018e-06) 0
(6.814799378e-06 7.982480851e-06 1.724637905e-06) 0
(4.205863306e-06 2.19735539e-06 1.427583798e-06) 0
(2.273393463e-06 7.467191574e-06 7.418566666e-06) 0
(6.717377859e-06 5.206876141e-06 6.396404977e-06) 0
(0 6.512696814e-06 2.194949917e-06) 0
(0 7.22050741e-06 9.311434968e-06) 0
(4.098459324e-06 9.34123389e-06 7.315369345e-06) 0
(2.64697796e-23 5.351299287e-06 1.990247297e-06) 0
(6.318798207e-06 4.571109503e-06 9.715250748e-06) 0
(2.777345983e-06 1.908893566e-06 9.208462627e-06) 0
(0 5.640612396e-06 7.690341701e-06) 0
(5.052312809e-06 8.862887254e-06 2.87447856e-06) 0
(6.16856393e-06 7.810521781e-06 3.119621224e-06) 0
(6.415771533e-06 5.194627346e-06 1.632538449e-06) 0
(4.40421607e-06 5.201289054e-06 3.568132762e-06) 0
(5.180360995e-06 3.375153839e-06 1.80881705e-06) 0
(1.335742708e-06 3.341582254e-06 6.307770158e-06) 0
(2.986812675e-06 6.03193825e-06 6.072354731e-06) 0
(9.861461083e-08 5.395230958e-06 9.104539013e-06) 0
(2.566404653e-06 1.28345227e-06 1.779018324e-06) 0
(6.599872676e-06 2.818808402e-06 4.665365963e-06) 0
(0 5.394798603e-06 1.382875771e-06) 0
(5.717911351e-06 8.218749558e-06 1.499742493e-06) 0
(0 6.682499448e-06 9.010530024e-06) 0
(3.769015371e-06 7.828103023e-07 9.114915596e-06) 0
(0 7.826944563e-06 7.916321445e-06) 0
(4.861857356e-06 8.30677817e-06 2.369629771e-06) 0
(4.843848656e-06 1.185077451e-06 9.071344741e-06) 0
(1.802171078e-06 4.912573492e-06 2.330459058e-06) 0
(9.339862484e-06 7.162399145e-06 6.725707863e-06) 0
(2.705642404e-06 3.451732013e-06 1.335079309e-06) 0
(3.484242626e-06 5.391250856e-06 3.044473861e-06) 0
(9.693835793e-06 2.156448431e-06 8.997387954e-06) 0
(3.836415607e-06 1.091453144e-07 6.108399209e-06) 0
(5.920400372e-06 6.390110899e-06 7.706474069e-06) 0
(0 2.996261225e-07 5.559043669e-06) 0
(7.911675854e-06 6.795394566e-06 8.753032929e-06) 0
(8.528173061e-06 3.596445721e-06 9.291582016e-06) 0
(8.031021623e-06 3.193453347e-06 2.971904072e-06) 0
(8.130096164e-06 8.414962026e-06 1.001088819e-06) 0
(7.614590146e-06 1.622167644e-06 4.54852453e-06) 0
(3.205402688e-06 3.967825459e-06 7.410436371e-07) 0
(0 9.064723258e-06 2.090243966e-07) 0
(4.125913154e-06 5.657331885e-06 5.802491422e-06) 0
(3.761993385e-06 1.636705037e-06 9.443777036e-06) 0
(4.724043926e-06 9.2329453e-06 8.014902017e-06) 0
(4.350696216e-06 2.454867556e-06 3.175833006e-06) 0
(5.824195134e-06 9.183285956e-06 7.370995291e-06) 0
(1.864310917e-06 8.832931245e-07 4.069452221e-06) 0
(9.729514092e-06 5.261716536e-06 3.671809063e-06) 0
(0 7.412990306e-06 8.21875381e-06) 0
(1.551880222e-06 9.103857974e-06 3.997545286e-06) 0
(0 5.026281685e-06 2.169250005e-07) 0
(5.43206464e-06 4.103058969e-06 6.679660081e-06) 0
(4.344617531e-08 8.227224084e-06 6.284885936e-06) 0
(6.079495153e-06 1.802885758e-06 6.410783004e-06) 0
(1.15540481e-06 9.635662413e-06 4.150967328e-07) 0
(1.740775747e-06 6.193126557e-06 1.149704828e-06) 0
(0 7.140061641e-07 8.80273593e-06) 0
(5.125080934e-07 3.659641582e-06 5.867356609e-06) 0
(6.745280441e-06 5.68592604e-06 5.672385856e-06) 0
(7.051872614e-06 8.492485274e-06 1.91128501e-06) 0
(3.484409251e-06 7.005885359e-06 4.608686373e-06) 0
(0 2.328738666e-06 6.832798227e-06) 0
(2.449338957e-06 9.389445358e-06 1.212987425e-06) 0
(8.76671197e-06 2.425582681e-06 4.292674826e-06) 0
(1.70800052e-06 7.493856038e-07 9.103977027e-06) 0
(1.654021529e-06 3.853368934e-06 9.142053432e-06) 0
(6.447662546e-06 1.799013124e-07 4.975157023e-06) 0
(9.769882494e-06 8.931642467e-06 7.443471687e-06) 0
(6.397617203e-06 7.872631699e-06 6.507136889e-07) 0
(6.373006626e-06 7.557616382e-06 7.152928409e-06) 0
(7.895441256e-06 2.890511629e-06 2.982981144e-06) 0
(9.701885911e-06 6.251734536e-06 9.403477187e-06) 0
(8.547211886e-06 6.188840996e-06 2.401164379e-06) 0
(3.717666572e-06 4.612985368e-07 2.569173335e-06) 0
(7.625384967e-06 6.626770422e-06 8.833111981e-06) 0
(8.262062646e-06 6.018913793e-06 7.233772621e-06) 0
(9.245444021e-06 4.385444763e-06 2.302941091e-06) 0
(7.441442723e-06 6.646720957e-07 2.496132735e-06) 0
(7.280866328e-06 8.216050404e-06 8.682472097e-06) 0
(5.396858439e-06 5.72676321e-07 3.372175711e-06) 0
(8.535010595e-06 8.890927952e-06 6.20666632e-06) 0
(6.70045222e-06 7.050456694e-06 2.147936317e-06) 0
(1.703429901e-06 5.002609538e-06 9.067229706e-06) 0
(8.001559939e-06 8.226001602e-06 9.293405126e-07) 0
(2.763639227e-06 8.133015312e-06 7.563918999e-06) 0
(3.183276192e-06 6.338201878e-06 4.134290458e-06) 0
(7.691697272e-06 5.462727383e-06 5.491078441e-06) 0
(9.21973464e-06 2.767830556e-06 7.552803002e-06) 0
(6.159989683e-06 5.85655885e-06 6.018502604e-07) 0
(8.590478133e-06 5.293768453e-06 2.093139614e-06) 0
(6.904810482e-06 8.23469128e-06 8.383996746e-06) 0
(7.489047936e-06 2.499187624e-06 2.800439358e-06) 0
(4.616600438e-06 7.700856206e-06 7.677970394e-06) 0
(2.266913372e-06 1.673420346e-06 1.93982029e-06) 0
(1.27720153e-06 8.398400417e-06 9.42226738e-06) 0
(1.020988741e-06 2.737314691e-06 8.25908875e-06) 0
(1.500709613e-06 8.736447179e-06 3.461694547e-06) 0
(2.79230961e-06 4.850727251e-06 9.765546801e-07) 0
(1.715088038e-06 2.508716398e-06 2.063131689e-06) 0
(1.743299477e-06 3.386761631e-06 3.18749779e-06) 0
(0 4.978892686e-06 9.623520823e-06) 0
(7.934599527e-06 3.482906786e-06 4.009990752e-06) 0
(6.880347002e-06 7.778172782e-06 3.366937623e-06) 0
(0 5.774286814e-06 1.81280778e-06) 0
(7.138588819e-06 8.745398378e-06 5.514069713e-08) 0
(6.024071536e-06 5.157221514e-07 7.034703597e-06) 0
(1.053859873e-07 8.162066976e-06 9.397772268e-06) 0
(6.356413219e-06 3.009483049e-06 3.437782781e-06) 0
(2.886492481e-07 8.504377561e-06 7.282416187e-06) 0
(0 2.428419754e-06 6.652305422e-07) 0
(6.308111023e-06 2.669609792e-06 1.102295293e-06) 0
(5.188589e-06 8.996446854e-06 1.785243835e-06) 0
(1.421445474e-06 4.568652238e-06 9.898965211e-06) 0
(7.026362724e-06 9.334008083e-06 4.296162792e-06) 0
(3.031890476e-06 9.668007588e-06 4.985758959e-06) 0
(9.300294589e-07 8.001655359e-06 7.635214309e-07) 0
(6.136167711e-06 9.683427375e-06 3.43217681e-06) 0
(0 8.945720175e-06 5.143181989e-06) 0
(7.648519475e-06 9.431027037e-06 8.49159023e-06) 0
(1.485891498e-06 2.187173485e-06 5.558700419e-06) 0
(5.671492252e-06 2.960264776e-06 8.52027817e-08) 0
(0 6.240053907e-06 8.464867712e-06) 0
(5.894711038e-06 7.123406328e-06 4.153709571e-06) 0
(4.229577035e-06 3.342570883e-06 2.755423733e-06) 0
(0 7.075310867e-06 4.844892542e-06) 0
(0 3.021367097e-06 3.505771295e-06) 0
(0 9.209208442e-06 2.717756711e-06) 0
(6.834558829e-06 9.647158147e-06 2.765166615e-06) 0
(0 4.732904518e-06 8.30197533e-06) 0
(0 5.9335481e-07 7.268509237e-06) 0
(7.919644523e-06 7.505068541e-06 5.77387433e-06) 0
(7.641166967e-06 9.539588706e-08 7.182501643e-06) 0
(7.507863917e-06 1.694413978e-06 1.656041132e-06) 0
(0 4.113158395e-07 2.664925453e-06) 0
(8.063412368e-06 8.358678038e-06 2.237765957e-06) 0
(5.910591614e-06 4.62615194e-06 5.274828192e-06) 0
(0 8.945499888e-06 8.86945712e-06) 0
(5.127126117e-07 8.73573416e-06 7.587433448e-06) 0
(2.112470084e-06 1.143306571e-06 1.982482833e-06) 0
(8.631664602e-06 9.758496431e-07 3.659225793e-06) 0
(5.307902443e-06 2.903197144e-06 1.717494728e-06) 0
(7.175256634e-06 7.633555636e-06 8.350429007e-06) 0
(8.47403713e-06 4.021595627e-06 5.580272661e-06) 0
(0 2.492750664e-06 3.723429749e-06) 0
(0 3.505556502e-06 6.507452912e-07) 0
(0 5.513638286e-06 7.613822902e-07) 0
(8.629010076e-07 3.548873758e-06 5.191037518e-06) 0
(4.141479739e-06 6.283343309e-06 8.688160943e-06) 0
(8.761133594e-06 1.221885284e-06 6.71362152e-07) 0
(5.052180186e-06 9.373148363e-06 9.206990127e-06) 0
(0 2.761882998e-06 1.709173699e-07) 0
(0 7.764742913e-06 6.951190608e-09) 0
(3.097737167e-06 6.03137547e-06 1.734012822e-06) 0
(6.693740082e-06 3.572769324e-06 2.029176264e-06) 0
(1.034628264e-06 5.233665901e-06 1.337674712e-06) 0
(8.794969801e-06 1.109430393e-06 8.595659003e-06) 0
(5.559406632e-06 3.010654225e-06 3.899084007e-06) 0
(8.462879156e-06 3.509537348e-06 7.582188088e-06) 0
(0 4.147652932e-06 5.234741647e-06) 0
(5.318701795e-06 8.626824031e-06 1.099319172e-06) 0
(1.824555662e-06 6.101112731e-06 4.244691196e-06) 0
(6.050388216e-06 5.132018817e-06 7.52066236e-06) 0
(2.305130045e-06 9.275183676e-06 9.107546607e-06) 0
(4.067438533e-06 2.620177393e-06 2.108808751e-06) 0
(9.871180531e-06 5.158422418e-06 2.095192456e-06) 0
(1.21103278e-06 3.15502944e-06 7.280189237e-06) 0
(9.250360663e-06 7.157349442e-06 6.987107129e-06) 0
(1.699504807e-06 5.155884476e-06 7.301301655e-08) 0
(8.315678672e-06 1.331640594e-06 7.804773699e-06) 0
(2.208911373e-06 6.874467951e-06 1.175027685e-06) 0
(9.803029335e-06 2.86890965e-06 7.692397576e-07) 0
(3.302688471e-06 2.629624762e-06 6.138272238e-07) 0
(1.707598488e-06 3.912154181e-06 4.67817628e-06) 0
(0 3.713004785e-06 3.958611223e-06) 0
(7.645140174e-07 9.078698841e-06 7.438461061e-06) 0
(6.457140921e-06 7.300475108e-06 4.053546912e-06) 0
(5.541099242e-06 8.999930164e-06 4.330258408e-07) 0
(2.956911137e-06 9.952508767e-06 2.609451979e-06) 0
(2.713644138e-07 7.481800888e-06 8.144293387e-06) 0
(6.909964977e-07 4.291049218e-06 1.549399066e-06) 0
(1.501158873e-06 3.741341257e-06 6.384247656e-06) 0
(7.493637685e-06 7.080009888e-06 8.460077885e-06) 0
(4.455130174e-06 3.381836293e-06 8.681953151e-06) 0
(6.473883383e-07 8.261943005e-06 3.631134845e-06) 0
(3.431511957e-07 8.506207327e-06 8.617563892e-07) 0
(2.881340001e-07 7.788542505e-06 7.239255713e-06) 0
(3.216190832e-06 7.313599428e-06 9.714641061e-07) 0
(5.746207489e-06 5.286055823e-06 9.839086674e-06) 0
(0 8.933370571e-06 7.319283555e-06) 0
(1.933055785e-06 3.655950625e-06 5.750981459e-06) 0
(8.931092248e-06 4.180810294e-06 9.68248413e-06) 0
(5.178959321e-06 4.267107296e-06 8.463732254e-06) 0
(0 9.019896911e-06 8.513780319e-06) 0
(3.798650668e-06 1.169821088e-06 6.122486994e-06) 0
(9.366193433e-06 6.473049829e-06 4.028438774e-06) 0
(0 9.497540603e-06 8.701318043e-06) 0
(5.936241558e-06 5.44617033e-06 1.962028817e-06) 0
(3.879492355e-06 7.318109002e-06 8.985186528e-06) 0
(0 8.109245516e-06 3.414124695e-07) 0
(0 7.794086677e-06 2.041876267e-06) 0
(6.846558349e-06 7.343680647e-06 1.326432216e-06) 0
(0 2.708431579e-06 7.715566318e-06) 0
(0 6.178989299e-06 2.024371256e-06) 0
(1.767984837e-06 5.147114475e-06 7.96126125e-06) 0
(2.987431269e-06 5.255963294e-06 8.976460122e-06) 0
(5.292499808e-06 7.936464622e-06 9.527793013e-07) 0
(3.692662778e-06 9.706902001e-06 6.346872908e-06) 0
(8.84570892e-06 7.866909843e-06 8.061262199e-06) 0
(6.700676881e-06 7.861374223e-06 6.651762359e-06) 0
(2.5260789e-06 5.047529677e-07 6.42533534e-06) 0
(6.309751659e-06 6.555869197e-06 8.956786837e-06) 0
(1.563461369e-06 1.76554931e-06 3.45408875e-06) 0
(0 7.215606669e-06 6.440265326e-06) 0
(9.652158743e-06 3.92729189e-06 1.574018058e-06) 0
(9.926028449e-06 6.712489852e-06 6.762927985e-07) 0
(4.044477573e-06 1.417676395e-06 4.582499891e-06) 0
(7.984067899e-06 4.971493603e-06 2.70731304e-06) 0
(4.860765982e-06 1.671659531e-06 8.925684021e-06) 0
(2.51237634e-06 7.713048473e-06 6.77458003e-06) 0
(0 1.675765238e-07 7.308409247e-06) 0
(9.368474343e-06 7.944287875e-06 2.164811884e-06) 0
(2.418979331e-06 2.173928872e-06 6.651264909e-06) 0
(1.940042854e-06 7.770048339e-06 6.793594999e-06) 0
(5.930713477e-07 6.682723231e-06 2.994278758e-06) 0
(5.670779331e-06 3.470656376e-06 1.949959703e-06) 0
(5.993933118e-06 7.397355896e-06 1.219495924e-07) 0
(0 3.276913913e-07 3.632826494e-06) 0
(0 3.276640763e-06 9.759389839e-07) 0
(9.523032561e-06 9.831694358e-06 3.620126169e-06) 0
(6.912849928e-06 3.7080439e-07 2.195584519e-06) 0
(0 4.607340601e-06 9.996766913e-06) 0
(7.008045854e-06 7.082448282e-06 3.582809042e-06) 0
(5.24357233e-06 1.75730699e-06 9.018330307e-06) 0
(5.549864586e-06 6.991244085e-06 2.961937796e-06) 0
(0 2.169145401e-06 5.00849564e-06) 0
(5.144799254e-06 8.125913749e-06 1.622498298e-06) 0
(9.995789027e-06 6.015026296e-06 7.263594471e-07) 0
(0 7.241303807e-07 7.649739384e-06) 0
(9.596535758e-06 5.444921783e-06 1.963470963e-06) 0
(2.438711429e-06 1.988333414e-06 6.993510372e-06) 0
(8.66884287e-06 4.493756719e-06 7.432989171e-06) 0
(2.845387768e-06 2.609109839e-06 2.227089604e-06) 0
(9.324685569e-06 4.15036355e-06 4.89827129e-06) 0
(-5.29395592e-23 6.396594565e-06 5.089555639e-06) 0
(2.106284594e-06 7.288395465e-06 9.618695154e-07) 0
(-6.6174449e-24 3.671680721e-06 2.202992187e-06) 0
(0 3.936061986e-06 1.130468121e-06) 0
(8.166638883e-06 2.446605846e-06 4.57006777e-06) 0
(2.932841657e-06 5.227625185e-06 5.024806097e-06) 0
(3.490046297e-06 1.969487867e-06 5.069543106e-06) 0
(5.461067221e-06 6.494754559e-06 7.037733363e-06) 0
(6.830028796e-06 4.431657862e-06 6.338495608e-06) 0
(6.075972512e-06 7.644299664e-06 5.2095502e-06) 0
(8.478193348e-06 2.012309519e-06 4.256571866e-06) 0
(0 1.473614405e-06 8.39341981e-06) 0
(0 9.8870609e-06 8.681288023e-06) 0
(2.833157183e-06 4.701234708e-06 6.735434464e-06) 0
(6.059293309e-07 1.287604288e-06 6.52399246e-06) 0
(9.046840469e-07 1.129258298e-06 3.651033813e-07) 0
(2.674293176e-06 9.778443884e-06 8.642246463e-06) 0
(2.237604414e-08 1.995018802e-06 2.769221538e-06) 0
(6.748079774e-06 8.711054817e-07 7.114705507e-06) 0
(5.384393006e-06 1.213644312e-06 5.7299165e-06) 0
(3.923151568e-06 1.42813829e-06 7.024984832e-06) 0
(2.386605348e-06 1.53067913e-07 5.984079949e-06) 0
(0 1.993725714e-06 5.541439966e-06) 0
(0 8.724037613e-07 2.148219648e-06) 0
(0 5.277013304e-07 4.53171417e-06) 0
(0 9.141337413e-06 8.516437051e-06) 0
(0 8.427833628e-06 3.407805356e-06) 0
(3.24817429e-06 9.07914495e-06 4.59747873e-07) 0
(8.165611769e-08 9.345080173e-06 6.250628296e-06) 0
(0 9.129846346e-06 3.671110146e-06) 0
(2.730194663e-06 5.123856045e-06 6.200862756e-06) 0
(4.260424281e-06 2.927431291e-06 2.820294532e-06) 0
(6.652342353e-06 8.812618149e-06 6.570101605e-06) 0
(0 6.193530904e-06 3.559779718e-06) 0
(0 5.700787619e-07 2.50548647e-06) 0
(6.223178498e-06 2.664842021e-06 9.037819884e-06) 0
(4.898910886e-06 2.80908968e-06 7.414832171e-06) 0
(0 7.339196382e-06 4.615080392e-06) 0
(9.598657976e-06 6.780222116e-06 4.232851285e-06) 0
(0 1.916711531e-06 8.609974338e-06) 0
(1.835961651e-06 6.315726446e-06 8.882575949e-06) 0
(0 4.54679814e-06 8.48503832e-06) 0
(8.80711448e-06 8.351727009e-06 5.330966314e-06) 0
(4.059840834e-08 4.208251308e-06 5.953608987e-08) 0
(3.524406969e-10 1.833475137e-06 1.251474123e-06) 0
(0 3.178589506e-06 3.506222797e-06) 0
(5.633301701e-07 8.935810318e-06 7.869598311e-06) 0
(-5.169878828e-26 7.778712725e-06 4.896093127e-06) 0
(5.577205897e-06 1.611572367e-06 4.744732498e-06) 0
(8.846991227e-06 1.488197487e-06 2.922483454e-06) 0