/*--------------------------------*- C++ -*----------------------------------*\
| =========                 |                                                 |
| \\      /  F ield         | OpenFOAM: The Open Source CFD Toolbox           |
|  \\    /   O peration     | Version:  v1706                                 |
|   \\  /    A nd           | Web:      www.OpenFOAM.com                      |
|    \\/     M anipulation  |                                                 |
\*---------------------------------------------------------------------------*/
FoamFile
{
    version     2.0;
    format      ascii;
    class       labelField;
    location    "0.04/lagrangian/dsmc";
    object      origId;
}
// * * * * * * * * * * * * * * * * * * * * * * * * * * * * * * * * * * * * * //


330442
(
17048567
17078502
17089024
17110140
17132747
17129168
17136324
17134744
17060839
17178221
17071322
17148476
17171386
17176616
17185268
17078421
17171273
17188819
17192305
17200973
17165937
17187035
17043314
17178352
17195834
17197489
17202733
17020567
17199309
17160682
17199376
17173004
17201124
17185248
17197562
17213475
17157204
17192445
17202853
17206435
17208091
17171183
17202857
17208048
17150236
17159008
17180122
17157213
17192346
17211539
17225640
17227326
17160751
17165944
17178383
17206351
17206432
17223965
17162425
17208234
17218564
17220351
17220613
17218725
17230800
17204654
17151956
17183495
17195795
17238005
17195787
17220283
17227408
17232688
17232749
17234299
17206301
17215153
17227451
17232660
17145096
17194034
17208051
17211500
17211724
17215214
17237785
17241370
17241389
17169542
17222023
17222045
17236218
17213323
17225689
17227387
17236072
17150176
17215223
17218642
17253661
17176520
17195827
17234529
17258813
17236060
17220271
17241330
17204536
17209846
17246882
17202833
17222025
17222115
17227380
17208069
17220318
17220349
17239557
17239782
17250254
17252004
17202796
17239671
17246588
17257306
17258833
17237841
17141408
17239574
17241365
17250107
17253620
17195745
17225615
17246778
17267646
17236101
17246576
17246648
17246715
17253625
17260839
17218525
17227359
17234437
17241427
17246580
17251883
17253644
17258844
17244823
17251989
17258904
17260749
17264208
17076623
17187044
17194101
17201033
17201050
17216835
17220319
17241430
17255491
17269357
17274781
17192245
17169457
17232656
17248342
17253869
17260709
17271071
17216828
17248378
17258885
17148579
17183491
17215133
17220347
17222028
17222070
17234501
17241358
17246703
17248338
17248356
17253582
17255444
17257236
17265922
17272857
17215047
17223801
17227377
17230874
17232655
17244801
17244904
17246596
17250481
17255580
17258935
17259217
17264130
17278185
17176487
17230877
17234317
17264167
17265814
17271090
17271203
17285351
17227303
17232582
17237907
17251953
17255404
17267753
17269437
17271103
17223799
17229064
17253609
17253617
17260666
17260785
17267659
17269415
17269683
17280100
17283534
17287013
17262448
17206260
17230807
17234347
17237961
17248409
17253672
17260586
17260678
17260737
17264109
17265911
17267760
17269370
17274729
17274736
17213332
17241345
17250105
17253696
17260603
17269407
17271180
17272864
17274717
17278150
17279904
17232524
17236054
17246546
17251848
17265873
17269418
17272999
17274731
17278171
17278331
17283539
17285311
17288668
17292174
17222015
17188997
17213322
17225551
17227347
17244843
17257232
17265999
17267603
17267692
17269359
17276371
17276428
17276462
17283477
17285118
17285181
17286980
17290413
17293984
17255401
17267822
17211494
17211620
17215127
17227284
17243105
17251888
17253750
17269367
17271228
17271237
17272822
17274779
17274831
17276400
17281881
17206410
17227330
17230895
17241416
17243102
17251864
17257115
17266008
17267693
17271351
17272934
17273054
17279890
17285157
17286907
17292207
17208054
17230927
17234307
17241289
17251860
17255354
17265828
17271148
17276468
17278209
17290524
17197639
17206279
17208040
17209776
17243120
17257206
17260599
17271117
17276422
17276470
17278113
17281677
17281714
17283446
17285141
17286989
17294033
17179960
17220292
17232614
17232629
17243048
17244855
17250139
17255441
17264084
17264196
17283432
17290594
17295709
17297460
17297527
17302795
17306175
17260618
17260842
17278146
17285144
17288812
17292115
17292257
17295862
17299208
17306338
17206307
17234365
17237881
17241332
17244785
17244826
17253590
17269398
17272905
17274691
17274785
17283359
17288762
17290393
17293974
17295794
17304364
17208107
17227515
17241301
17269491
17278229
17279907
17279956
17279963
17285293
17287072
17292238
17294022
17295765
17299315
17302718
17302753
17306255
17244841
17264099
17265852
17266019
17271172
17272875
17274655
17281660
17285304
17290599
17293912
17295761
17297369
17297532
17299247
17300925
17302754
17304541
17313413
17243186
17244822
17257123
17262440
17264238
17269324
17271128
17278096
17281657
17281659
17283384
17285282
17285344
17286944
17288713
17288742
17293902
17294026
17294124
17295746
17299212
17302681
17302747
17302873
17309725
17202846
17188838
17218606
17241467
17244794
17248334
17251945
17265844
17269323
17271078
17272918
17279840
17279872
17279971
17290448
17294064
17295665
17295669
17295678
17297450
17300911
17300936
17304523
17309626
17315033
17244949
17253610
17260561
17269328
17281728
17283551
17288717
17288778
17299199
17304525
17306168
17308010
17313331
17260610
17262342
17262634
17264237
17265857
17271290
17274585
17274601
17279862
17290462
17292272
17297396
17297469
17299336
17304412
17306216
17306286
17315042
17206284
17236067
17250056
17253554
17258896
17265890
17271127
17272902
17274642
17283433
17286927
17286954
17290522
17292124
17292275
17292358
17293863
17302778
17304491
17306256
17306402
17307921
17309688
17315131
17204541
17253634
17258882
17264090
17265881
17267624
17276766
17279852
17285097
17286911
17288723
17292253
17293911
17294060
17295837
17299304
17304403
17306170
17309864
17311511
17311561
17315035
17281741
17294017
17216766
17262460
17272893
17272899
17281758
17283391
17288631
17288793
17290472
17290504
17292118
17292228
17293882
17295753
17299140
17299194
17300983
17301052
17302749
17304533
17306167
17306183
17308045
17313155
17316776
17318383
17325483
17202816
17269333
17274591
17278090
17293897
17295725
17295751
17295839
17295903
17297421
17299323
17302663
17302811
17304467
17304512
17304556
17306199
17306220
17307992
17311584
17311843
17320211
17278244
17262313
17264073
17279842
17279845
17281707
17286854
17292141
17293851
17293860
17300927
17302623
17304372
17308055
17313261
17313278
17313402
17314995
17316736
17320220
17320347
17330915
17144931
17204567
17295676
17229048
17253676
17257068
17262378
17267640
17272890
17272940
17279850
17283419
17283424
17287024
17288671
17288697
17294019
17295614
17295810
17297395
17297487
17299125
17301155
17302672
17302687
17306214
17307982
17311403
17313128
17316786
17316954
17321981
17322054
17327270
17327332
17281689
17225570
17269386
17269399
17272863
17279933
17281585
17281590
17283356
17290427
17292251
17297445
17299259
17302742
17302806
17302823
17307995
17309672
17313311
17316799
17316919
17320365
17321985
17323819
17325535
17325679
17281753
17208087
17243065
17262327
17265842
17276331
17278115
17283434
17285133
17285138
17292254
17292266
17297499
17299164
17302829
17304378
17304502
17304511
17304522
17306157
17307981
17309677
17309747
17311519
17315116
17316863
17318487
17321897
17323649
17323721
17328986
17329196
17220335
17241324
17281713
17286942
17297372
17302639
17302701
17302780
17304433
17307950
17307987
17309678
17313146
17313324
17314885
17315045
17315091
17316631
17318527
17323884
17323917
17327173
17327374
17330846
17229088
17265874
17265932
17272969
17273184
17285114
17290437
17300957
17302628
17304367
17304429
17306212
17306223
17307943
17308094
17309752
17309796
17309820
17311390
17314897
17315002
17316737
17316768
17316781
17320269
17321967
17323788
17323811
17325443
17327333
17329002
17329035
17330793
17229068
17320316
17188788
17217000
17269545
17272850
17274805
17276375
17290441
17299142
17299172
17299218
17302673
17304399
17309627
17309686
17313230
17316819
17318478
17318485
17320193
17322045
17322053
17322066
17323753
17325540
17329087
17330810
17334296
17200996
17227348
17236081
17255340
17255359
17269378
17276378
17283503
17288724
17292309
17293898
17294001
17295793
17297367
17299188
17300933
17302739
17302781
17306217
17308093
17311377
17311493
17313200
17315095
17316876
17318574
17320194
17323644
17323697
17323806
17325478
17325482
17328957
17330715
17330812
17332407
17336231
17341184
17281928
17283366
17230871
17232530
17246615
17274679
17274744
17276326
17278117
17281637
17283420
17286887
17288709
17290450
17308027
17311558
17313163
17313218
17314970
17316675
17316682
17318441
17318575
17320246
17321954
17323690
17323736
17325400
17325429
17327166
17328996
17330703
17332414
17332502
17332546
17332619
17334159
17334328
17336110
17341218
17342921
17343100
17343118
17348177
17223816
17255312
17255381
17258869
17260619
17262361
17279986
17281699
17283400
17290454
17295705
17295708
17299251
17300959
17304394
17307984
17309654
17309691
17311375
17311487
17313149
17313370
17316701
17316867
17318451
17320197
17320226
17320275
17320281
17321964
17325514
17325571
17327375
17327473
17329081
17330787
17332408
17334228
17336016
17336017
17336208
17339489
17342995
17344741
17244906
17262385
17267689
17278163
17281636
17287017
17292133
17300897
17300965
17304415
17311401
17313207
17318380
17321929
17322065
17322127
17323814
17323835
17323856
17325463
17327245
17329007
17329042
17329150
17332449
17332657
17334208
17334284
17334365
17336108
17337786
17341221
17343069
17234280
17260691
17264123
17269419
17276382
17281626
17283464
17285109
17285143
17288741
17295652
17295671
17300867
17300986
17302714
17304413
17304567
17304568
17307923
17313229
17314894
17314958
17318540
17320143
17323710
17323777
17323787
17325423
17325449
17325537
17328972
17332473
17332486
17332775
17334295
17334381
17335968
17336042
17336053
17336177
17336196
17337974
17339442
17341629
17343099
17343176
17346667
17350043
17194000
17253569
17260645
17276473
17278108
17288625
17290352
17304397
17304417
17306151
17306238
17309664
17313197
17313349
17315103
17316729
17318525
17320277
17320370
17320380
17320406
17325460
17325465
17325536
17325547
17325550
17327271
17328995
17329072
17330751
17330803
17330876
17331030
17334384
17339534
17341277
17343015
17343028
17343180
17348220
17348421
17311383
17234374
17239684
17271141
17271218
17274747
17276446
17278122
17288765
17295604
17297378
17297404
17300899
17302709
17304398
17304455
17306260
17311535
17315031
17316722
17318493
17318504
17318523
17320160
17320216
17321923
17327265
17327320
17329003
17329855
17330722
17332490
17332530
17334439
17335940
17335957
17336029
17337748
17337824
17338043
17339676
17341200
17341217
17344881
17346534
17353446
17274623
17280099
17285234
17286875
17299144
17300920
17300976
17306179
17306268
17307968
17309769
17316642
17316649
17316678
17316712
17318615
17320245
17323859
17323887
17325444
17329127
17330970
17332479
17336031
17336074
17336279
17337745
17337842
17337856
17337867
17339466
17339570
17341272
17341286
17342980
17344677
17344848
17348275
17351757
17313248
17190561
17253642
17267653
17292194
17293981
17297465
17302668
17311441
17315101
17318417
17318536
17321995
17322003
17322034
17162512
17323810
17323891
17327286
17328989
17329057
17334157
17334222
17336002
17336041
17337797
17339497
17339512
17339593
17341341
17343224
17344987
17348382
17348400
17295726
17336013
17025804
17265855
17276346
17276364
17297398
17299166
17299183
17302712
17304471
17307879
17311385
17314940
17316714
17316725
17318436
17318455
17322057
17323682
17325473
17325561
17327155
17327289
17327302
17327312
17328964
17328985
17329126
17330645
17332570
17334293
17334305
17335988
17336049
17337659
17337668
17337713
17337757
17337763
17337805
17342948
17342992
17343011
17343048
17343124
17344851
17344852
17344931
17348277
17348322
17348436
17353679
17353822
17358357
17358886
17358934
17155541
17227325
17255366
17262408
17278167
17278179
17278186
17279874
17286937
17290372
17300863
17304458
17309794
17309834
17311423
17316666
17318467
17320334
17321942
17322029
17323830
17325567
17327181
17327213
17328946
17330707
17330804
17330968
17332506
17334254
17334320
17334331
17335949
17336043
17336186
17339522
17339746
17341235
17341418
17342979
17342988
17343089
17343095
17344811
17344905
17346599
17348335
17351812
17353486
17353583
17353589
17355358
17348433
17243198
17234277
17253574
17272838
17281617
17283439
17286984
17288785
17292120
17293895
17299139
17299155
17302633
17306129
17307890
17307955
17309710
17311522
17314900
17318434
17318471
17320257
17322083
17327428
17328927
17328945
17329020
17330671
17330781
17332478
17334423
17335970
17336055
17337669
17337712
17337789
17337849
17337871
17339438
17339561
17339622
17339725
17341377
17342999
17343068
17343168
17344743
17344753
17344789
17344988
17346514
17348388
17350222
17351743
17351894
17355361
17357061
17360645
17362469
17339527
17213321
17286851
17286990
17288640
17295658
17299216
17300935
17302692
17307935
17309793
17311394
17311411
17313140
17314946
17318547
17320203
17320272
17323793
17327187
17328970
17329053
17330861
17332609
17334177
17334191
17334286
17336033
17336038
17336107
17336122
17337761
17337776
17337858
17337993
17339592
17339636
17341213
17341262
17343088
17343122
17343215
17344773
17344807
17344860
17346484
17346540
17346650
17348229
17348342
17348483
17350124
17351681
17353538
17353837
17355349
17356968
17358764
17358908
17362285
17369916
17223838
17316692
17290538
17260689
17283431
17300979
17302650
17304667
17311412
17313232
17318394
17320247
17327192
17330702
17330709
17330719
17330820
17332420
17332428
17334160
17334190
17334224
17337727
17337758
17337836
17337900
17339469
17339471
17339477
17339485
17339547
17339556
17339557
17339684
17341250
17341461
17342936
17343072
17343279
17344760
17344887
17346552
17348248
17348250
17348431
17351763
17353484
17353657
17355223
17355351
17355434
17355854
17360581
17360632
17364150
17274714
17197536
17215032
17250159
17251849
17276409
17286848
17290409
17295731
17297463
17306138
17307932
17318556
17320189
17325454
17325658
17328990
17329075
17330817
17332536
17334266
17334379
17334408
17337656
17337699
17341307
17341309
17341486
17344703
17344736
17344802
17344927
17348490
17349127
17350045
17350159
17353777
17355219
17355293
17358734
17362207
17362209
17364083
17364222
17365875
17374479
17244864
17411243
17328933
17353664
17248322
17248333
17283389
17292189
17309757
17311450
17314930
17320234
17328922
17328967
17328988
17332443
17332500
17335927
17337675
17337731
17337878
17339516
17344678
17344697
17346526
17346572
17346594
17347804
17348280
17348477
17350091
17351784
17351824
17351929
17351949
17353545
17355205
17355404
17356983
17359045
17363538
17364064
17364220
17367457
17367473
17302738
17237872
17223797
17237840
17290479
17295613
17299334
17307886
17313134
17313222
17313228
17314917
17325543
17327357
17327471
17328975
17328979
17329076
17332457
17334270
17336009
17336060
17336137
17337747
17339513
17340813
17341199
17341239
17341348
17342915
17343268
17344711
17344774
17344903
17346436
17346510
17346518
17346647
17348384
17348403
17350005
17350149
17351716
17351889
17353570
17355284
17355305
17355315
17355474
17356406
17356989
17357003
17357169
17358783
17358827
17358849
17360761
17361099
17361529
17362386
17364962
17365888
17367460
17367583
17367598
17369392
17390203
17353575
17276359
17281738
17283463
17288858
17293886
17297436
17309713
17313182
17313275
17318446
17321969
17322085
17323652
17323927
17325453
17325948
17327190
17328976
17334154
17335984
17337723
17337734
17337815
17339650
17341228
17344734
17344751
17344796
17346422
17346509
17346589
17348266
17349950
17349954
17350037
17351775
17351803
17351896
17351900
17352000
17353512
17355280
17355411
17357002
17357089
17357166
17357198
17357885
17358406
17358928
17358937
17359038
17359050
17359813
17360682
17362310
17362366
17364075
17365881
17367594
17369414
17309802
17322008
17265921
17278093
17281620
17285200
17292108
17292134
17302644
17302664
17307944
17311410
17311471
17320233
17321926
17327185
17327220
17327255
17327266
17329131
17330755
17332557
17334260
17334473
17335908
17335933
17336091
17337709
17337718
17337781
17337909
17339453
17339487
17339574
17341269
17341280
17342932
17342983
17344671
17344685
17344947
17346564
17346590
17346601
17348170
17348264
17350172
17350260
17351762
17351887
17351991
17353454
17353506
17353548
17353555
17353691
17355290
17355337
17355364
17355391
17355598
17357253
17357315
17358306
17358822
17358938
17359498
17360742
17362250
17362268
17362356
17362422
17362450
17365820
17365959
17367587
17371082
17320191
17341447
17264069
17281697
17281719
17285192
17286948
17290475
17307899
17313196
17322012
17325592
17327240
17328935
17328959
17330700
17330716
17334231
17335951
17337766
17339450
17339457
17339624
17339705
17341253
17341260
17341738
17342010
17343052
17343060
17344732
17346241
17346499
17348298
17348355
17349988
17350016
17350128
17351193
17351391
17351780
17351822
17351840
17351945
17352517
17353521
17353564
17353576
17353595
17353623
17353632
17353790
17353870
17353908
17355535
17357133
17357142
17357952
17358730
17358832
17359121
17360135
17360520
17360635
17360686
17361507
17362274
17362416
17363223
17364016
17365787
17365899
17365903
17367547
17367755
17367852
17369302
17370967
17371114
17304448
17341265
17322107
17332694
17253628
17253653
17281622
17290408
17292138
17297431
17307970
17309639
17309755
17311430
17313227
17321945
17327236
17328978
17330729
17332573
17334341
17335974
17335986
17337898
17341177
17341246
17343146
17345127
17346502
17346545
17346584
17347481
17348401
17348501
17349978
17349990
17350127
17351683
17351766
17351770
17351785
17351828
17351879
17353572
17355189
17355292
17355307
17355329
17355408
17355418
17356967
17357167
17357183
17357361
17358461
17358739
17358809
17358970
17358987
17360356
17360592
17360615
17361900
17362203
17362271
17362323
17362977
17364056
17364114
17364334
17364448
17365330
17365854
17365930
17366171
17367100
17367607
17367637
17368100
17368960
17371185
17372919
17374776
17376372
17267601
839162
17271113
17278246
17279942
17283403
17283475
17288665
17307948
17309652
17311445
17313125
17313178
17316658
17316800
17320263
17323671
17323683
17332444
17334207
17336036
17339476
17339599
17341172
17341185
17341232
17341330
17341556
17342930
17342966
17343040
17343079
17344715
17346500
17346583
17348196
17348227
17348236
17348273
17348281
17348286
17349973
17349987
17350082
17351768
17351825
17351864
17352044
17353534
17353629
17353721
17353811
17355252
17355269
17355345
17355623
17356011
17356944
17357113
17358420
17358754
17358775
17358863
17359265
17359835
17360455
17360533
17361436
17362296
17362570
17362709
17362804
17363311
17363658
17364012
17364095
17364110
17364111
17364165
17364260
17365376
17365793
17365860
17365953
17366038
17366091
17366226
17367046
17367563
17367623
17367634
17368642
17368653
17369295
17371128
17371260
17372316
17372737
17372965
17373592
17373905
17374520
17374620
17375253
17382531
17384220
17232695
17330834
17285191
17293940
17297368
17297448
17299137
17304557
17307912
17309655
17309777
17311392
17327201
17328919
17329008
17330768
17334268
17335981
17337697
17339584
17341258
17342971
17344795
17344803
17345045
17346466
17346553
17346581
17346605
17348209
17348295
17349939
17350031
17350074
17350104
17351726
17351877
17353627
17353636
17353666
17353699
17353844
17355233
17355266
17355270
17355342
17355436
17355445
17355494
17356229
17357033
17357330
17358769
17359662
17359992
17360436
17360458
17361680
17361785
17362280
17362473
17362653
17363121
17364002
17364109
17364667
17365108
17365126
17365194
17365936
17367215
17367543
17367549
17367650
17367696
17368300
17368432
17368863
17369033
17369069
17369227
17369236
17369262
17369325
17369398
17371031
17371120
17371127
17371203
17371267
17371336
17372107
17374625
17374700
17374726
17376493
17377397
17377439
17377675
17377957
17378024
17311414
17260611
17286870
17290433
17292204
17294003
17295650
17304462
17307893
17309631
17311528
17318388
17318412
17320278
17321966
17323731
17329051
17330656
17330778
17334194
17335946
17339447
17339461
17339502
17341170
17341204
17342987
17346428
17346434
17346439
17346645
17346715
17348334
17348463
17349433
17349931
17350028
17351755
17351792
17351799
17351832
17352333
17353531
17353587
17353624
17353724
17355239
17355396
17355453
17355462
17355739
17356960
17356981
17357255
17358798
17358859
17359250
17360484
17360526
17360540
17360660
17360802
17361265
17361584
17362215
17362382
17362434
17362639
17363723
17363752
17363963
17363989
17364101
17364103
17364125
17364219
17364950
17365724
17365729
17365763
17365799
17365853
17365890
17366087
17367197
17367530
17367606
17367677
17367689
17368060
17368482
17368970
17368985
17369299
17369354
17369379
17369483
17369542
17371131
17371214
17371246
17371248
17371271
17371383
17371998
17372871
17372883
17372912
17374328
17374628
17374663
17374851
17374970
17375199
17376422
17376901
17378080
17378167
17381479
17381640
17381700
17382890
17383166
17383512
17385417
17330646
17285093
17334163
17265930
17346493
17355384
17239558
17255452
17283482
17290440
17292169
17300881
17300910
17307887
17311415
17316779
17318469
17323749
17327156
17328963
17330650
17332458
17332574
17334255
17335916
17335944
17337711
17337771
17337802
17339470
17339549
17341176
17342917
17342937
17343083
17344679
17346487
17346571
17346604
17346693
17347355
17348235
17348307
17348317
17348332
17348379
17350019
17350030
17350168
17351759
17351853
17351975
17353590
17353646
17353680
17355229
17355244
17355248
17355274
17355285
17355289
17355338
17355523
17356973
17357055
17357099
17357622
17357763
17357814
17358709
17358787
17358806
17358824
17358976
17359736
17360024
17360450
17360603
17360669
17360676
17360739
17360769
17361846
17362289
17362315
17363977
17364347
17364378
17365355
17365767
17365835
17365836
17365863
17367485
17367694
17367699
17369320
17369466
17369530
17369608
17370106
17371042
17371090
17371269
17371785
17372084
17372481
17372818
17372932
17373008
17373732
17374109
17374632
17375329
17375937
17376362
17376446
17376873
17377587
17378077
17378129
17378137
17378838
17379043
17379463
17379653
17379805
17379840
17379923
17380020
17381243
17381326
17382134
17382500
17383694
17384412
17384676
17386893
17250130
17316818
17285135
17306459
17428771
17158982
17257096
17278154
17283342
17285272
17293890
17299310
17300938
17302724
17306264
17311465
17316687
17320177
17323821
17324149
17329248
17329726
17332445
17332454
17334199
17334306
17335952
17337692
17339504
17341160
17341233
17341268
17341297
17342991
17343098
17345562
17346435
17346522
17349928
17349932
17350120
17350288
17351906
17353457
17353470
17353499
17353516
17353603
17355340
17355459
17356496
17357028
17357190
17357340
17358829
17358880
17358926
17358988
17360537
17360550
17360681
17360884
17362286
17362458
17362772
17362835
17363184
17363372
17363801
17076691
17364044
17364067
17364280
17364376
17364975
17365711
17365816
17365932
17365947
17366165
17366312
17367178
17367589
17367655
17367675
17367685
17368510
17368515
17368546
17368656
17368699
17369193
17369280
17369301
17369334
17369369
17369370
17369372
17369412
17369427
17369433
17369569
17369893
17371050
17371063
17371149
17371226
17371236
17371704
17372081
17372187
17372423
17372716
17372856
17372898
17373003
17373098
17373157
17373243
17373530
17374243
17374532
17374590
17374646
17374652
17374729
17374784
17374796
17374964
17376258
17376337
17376346
17376358
17376386
17376443
17376612
17377134
17377487
17377533
17377579
17378055
17379004
17379399
17380848
17381652
17382562
17382897
17382971
17383007
17385158
17385577
17387998
17342953
17329023
17229239
17364074
17271100
17272962
17285184
17290363
17290378
17302622
17304408
17304439
17304485
17313153
17313220
17316645
17318389
17320146
17320162
17321962
17325446
17328910
17330653
17332589
17334230
17334257
17336004
17336028
17337705
17337791
17341226
17341236
17341508
17342968
17344909
17345385
17346491
17346516
17348224
17350006
17350015
17350099
17350150
17350270
17352131
17353443
17353462
17353480
17353524
17353536
17353608
17355221
17355380
17357123
17357187
17358729
17358780
17358788
17358851
17358875
17359071
17359357
17360456
17360514
17360515
17360527
17360567
17360627
17360675
17360717
17361658
17362337
17362741
17362836
17362989
17363586
17364000
17364034
17364084
17364100
17365094
17365768
17365905
17365915
17365924
17366005
17366055
17366083
17366157
17366310
17366510
17366587
17366729
17367034
17367631
17367673
17367683
17367774
17368501
17369211
17369242
17369260
17369266
17369395
17369422
17369475
17369540
17369572
17369648
17369966
17370381
17370970
17371137
17371151
17371177
17371270
17371277
17371404
17371513
17371663
17372319
17372709
17372742
17372777
17372864
17372889
17372911
17373001
17373225
17373430
17373618
17373708
17373760
17373765
17374017
17374081
17374530
17374645
17374687
17374706
17374837
17375643
17375822
17375876
17376334
17376543
17376652
17376735
17376802
17376851
17377262
17377529
17377690
17378061
17378263
17378398
17378496
17378620
17378873
17379014
17379355
17379799
17379946
17379951
17380066
17380172
17380222
17380577
17380860
17380923
17381765
17381799
17381961
17382052
17382371
17382956
17382964
17383352
17383636
17384111
17384341
17384607
17384787
17385336
17385708
17385971
17386795
17388336
17389389
17314892
17398996
17325419
17425249
17430514
17356962
17366599
17360599
17330669
17357114
17334189
17387131
17215051
17272832
17274756
17285136
17288628
17293915
17302645
17307926
17311376
17311447
17311449
17318437
17321998
17323738
17327246
17330676
17336027
17336085
17337794
17337801
17339420
17339500
17341237
17344725
17344776
17346427
17346625
17347635
17348169
17348206
17348226
17348267
17348272
17348411
17348502
17349918
17349961
17349974
17350011
17350101
17351695
17351730
17351910
17353991
17354018
17355118
17355249
17355264
17355308
17355431
17355961
17357041
17357125
17357210
17357213
17358726
17358794
17358846
17358891
17358914
17359644
17359987
17360452
17360467
17360522
17360534
17360642
17360684
17360826
17361382
17362287
17362321
17362325
17362397
17362404
17362452
17362574
17362889
17363015
17363212
17363393
17364059
17364107
17364177
17364212
17364340
17364666
17364719
17365122
17365317
17365377
17365785
17365798
17365850
17365862
17366074
17366371
17367468
17367727
17368083
17368796
17368991
17369215
17369253
17369289
17369332
17369367
17369383
17369462
17369544
17369557
17369662
17369790
17369855
17369928
17370101
17370418
17370538
17371056
17371064
17371085
17371088
17371192
17371249
17371382
17371508
17371809
17371890
17371945
17372158
17372162
17372282
17372286
17372360
17372796
17372902
17372905
17372907
17372923
17372951
17373213
17373279
17373600
17373747
17373773
17373802
17373813
17374098
17374540
17374558
17374571
17374618
17374653
17374678
17374757
17374992
17375521
17375640
17375645
17375811
17376246
17376262
17376265
17376325
17376345
17376367
17376395
17376448
17376457
17376499
17376665
17376679
17376915
17376953
17377420
17377424
17377638
17377655
17377759
17378033
17378097
17378208
17378209
17378241
17378270
17378533
17378819
17378893
17378897
17378943
17379064
17379114
17379309
17379775
17379837
17379870
17379924
17380115
17380270
17380292
17380531
17380926
17381627
17381665
17381683
17381748
17381793
17382322
17382721
17383077
17383150
17383297
17383350
17383394
17383478
17383540
17384248
17384506
17384692
17384850
17385148
17385926
17385958
17386028
17387673
17389367
17389583
17389725
17389947
17390136
17391869
17278268
17285242
17250186
17349942
17355286
17285146
17353543
17365755
17281630
17286886
17290498
17290625
17295643
17309665
17318509
17322027
17322040
17325470
17327253
17328932
17328940
17328956
17334204
17334210
17334233
17335972
17336093
17336169
17337703
17337848
17337968
17340125
17341215
17342935
17342959
17343035
17343056
17344688
17344865
17346580
17348191
17348271
17348282
17348283
17349924
17350058
17351724
17351771
17351901
17352265
17353495
17353708
17353760
17354192
17355617
17356292
17356957
17357001
17357049
17357098
17357131
17357882
17358110
17358133
17358815
17359060
17359387
17359418
17360512
17360518
17362200
17362267
17362330
17362345
17362406
17362461
17362590
17362649
17362939
17363375
17363955
17363994
17364096
17364284
17364298
17364515
17364603
17365698
17365727
17365777
17365910
17365955
17366550
17366563
17367022
17367123
17367303
17367548
17367590
17367701
17367725
17367949
17368423
17369030
17369244
17369309
17369330
17369386
17369442
17369451
17369519
17369633
17370036
17370208
17370301
17370304
17371055
17371093
17371153
17371341
17371371
17371430
17371534
17371964
17372394
17372804
17372809
17372822
17372875
17372899
17372903
17372917
17372945
17373130
17373228
17373230
17373791
17374191
17374249
17374284
17374524
17374577
17374599
17374604
17374609
17374679
17374702
17375170
17375223
17375529
17375539
17375565
17375690
17375731
17375769
17375802
17375903
17376264
17376319
17376380
17376387
17376462
17376533
17376721
17376779
17376931
17377302
17377352
17377494
17377593
17377614
17377689
17377748
17378114
17378254
17378259
17378277
17378400
17378430
17378552
17378558
17378610
17379140
17379169
17379300
17379354
17379422
17379454
17379894
17379927
17379948
17379991
17380253
17380457
17380612
17380663
17380799
17380932
17380956
17381189
17381206
17381581
17381638
17381720
17381757
17381806
17381816
17381868
17381977
17381999
17382403
17382437
17382706
17382755
17382788
17382801
17382972
17383545
17383807
17383950
17384040
17384171
17384242
17384253
17384404
17384559
17384589
17384637
17384892
17384972
17385105
17385251
17385639
17386010
17386291
17386315
17386517
17386553
17386867
17386958
17388050
17388233
17388299
17388784
17388903
17388984
17389037
17389869
17391396
17391712
17391994
17392981
17393097
17393212
17393493
17394787
17396482
17400707
17404204
17412970
17414728
17421744