/*--------------------------------*- C++ -*----------------------------------*\
| =========                 |                                                 |
| \\      /  F ield         | OpenFOAM: The Open Source CFD Toolbox           |
|  \\    /   O peration     | Version:  v1706                                 |
|   \\  /    A nd           | Web:      www.OpenFOAM.com                      |
|    \\/     M anipulation  |                                                 |
\*---------------------------------------------------------------------------*/
FoamFile
{
    version     2.0;
    format      ascii;
    class       scalarFieldField;
    location    "1e-06/lagrangian/dsmc";
    object      wallTemperature;
}
// * * * * * * * * * * * * * * * * * * * * * * * * * * * * * * * * * * * * * //


3999
(
4(2000 0 0 2.924909145e-20)
4(2000 0 0 5.021948536e-20)
0()
4(2000 0 0 2.422304272e-20)
4(2000 0 0 3.371410892e-20)
0()
4(2000 0 0 1.64108898e-19)
4(2000 0 0 3.052214333e-20)
4(2000 0 0 5.162568696e-20)
0()
4(2000 0 0 3.83906062e-20)
0()
0()
0()
4(2000 0 0 1.52018723e-20)
0()
4(2000 0 0 1.587546867e-20)
0()
4(2000 0 0 3.364412027e-20)
4(2000 0 0 4.141286435e-21)
0()
0()
4(2000 0 0 1.370886859e-20)
0()
4(2000 0 0 8.282558153e-20)
0()
0()
4(2000 0 0 7.62370893e-20)
0()
4(2000 0 0 3.136376422e-20)
0()
0()
4(2000 0 0 7.477491429e-20)
0()
0()
4(2000 0 0 1.15898812e-20)
0()
4(2000 0 0 2.174840557e-20)
0()
0()
4(2000 0 0 1.303357853e-20)
4(2000 0 0 4.842883977e-20)
4(2000 0 0 6.513970942e-20)
0()
0()
4(2000 0 0 5.03222221e-20)
0()
4(2000 0 0 3.037354775e-20)
4(2000 0 0 6.42776825e-21)
4(2000 0 0 3.135444251e-20)
0()
0()
0()
4(2000 0 0 5.663352713e-20)
4(2000 0 0 6.46870391e-20)
0()
0()
4(2000 0 0 2.334093929e-20)
0()
4(2000 0 0 9.434842776e-20)
4(2000 0 0 1.466731514e-20)
0()
4(2000 0 0 3.642330803e-20)
0()
0()
0()
0()
0()
0()
4(2000 0 0 6.540637669e-20)
0()
4(2000 0 0 8.424277567e-20)
0()
4(2000 0 0 4.832998879e-20)
0()
0()
0()
4(2000 0 0 2.710438392e-20)
4(2000 0 0 5.43621732e-20)
0()
4(2000 0 0 6.706754787e-20)
4(2000 0 0 5.299465726e-20)
0()
4(2000 0 0 1.820244028e-20)
0()
4(2000 0 0 7.543293174e-20)
0()
4(2000 0 0 1.434078021e-19)
4(2000 0 0 6.890930044e-20)
0()
0()
4(2000 0 0 4.549101416e-20)
0()
0()
0()
4(2000 0 0 3.614523579e-20)
0()
4(2000 0 0 2.92904e-20)
0()
0()
4(2000 0 0 3.651007717e-20)
0()
0()
4(2000 0 0 3.604456548e-20)
0()
4(2000 0 0 3.042475829e-20)
0()
0()
0()
0()
0()
4(2000 0 0 1.151679973e-19)
0()
4(2000 0 0 1.586790841e-20)
0()
4(2000 0 0 3.341072043e-20)
4(2000 0 0 1.244143548e-19)
0()
0()
4(2000 0 0 3.25728002e-20)
4(2000 0 0 4.597913963e-20)
0()
0()
0()
4(2000 0 0 4.507085453e-20)
0()
0()
0()
0()
0()
0()
0()
0()
0()
0()
0()
0()
4(2000 0 0 4.990054288e-20)
0()
0()
0()
0()
0()
0()
0()
0()
0()
4(2000 0 0 6.386891469e-20)
4(2000 0 0 4.4010394e-20)
4(2000 0 0 1.768389016e-20)
0()
0()
4(2000 0 0 1.8492992e-20)
0()
0()
4(2000 0 0 9.746523055e-20)
4(2000 0 0 3.213769239e-21)
4(2000 0 0 2.96703724e-20)
0()
0()
0()
4(2000 0 0 1.198380945e-19)
0()
0()
0()
0()
4(2000 0 0 3.031890197e-20)
0()
0()
0()
0()
0()
0()
0()
0()
4(2000 0 0 5.371205983e-20)
0()
4(2000 0 0 1.119154555e-20)
4(2000 0 0 4.45819754e-20)
4(2000 0 0 1.768266038e-19)
4(2000 0 0 1.744594437e-20)
0()
4(2000 0 0 2.103613449e-20)
0()
0()
0()
0()
0()
0()
4(2000 0 0 6.428317377e-20)
0()
0()
0()
0()
0()
0()
4(2000 0 0 1.339295647e-19)
0()
0()
0()
0()
0()
4(2000 0 0 2.08126451e-19)
4(2000 0 0 9.232229347e-20)
0()
0()
0()
0()
0()
0()
0()
4(2000 0 0 1.128028625e-19)
0()
0()
4(2000 0 0 1.818975644e-19)
0()
0()
0()
4(2000 0 0 4.605504196e-20)
4(2000 0 0 1.771714057e-20)
0()
4(2000 0 0 4.662218589e-20)
4(2000 0 0 3.987958326e-20)
0()
4(2000 0 0 3.58256188e-20)
4(2000 0 0 6.616085098e-20)
4(2000 0 0 5.62869322e-20)
0()
0()
0()
4(2000 0 0 6.814078875e-20)
4(2000 0 0 3.237354576e-20)
4(2000 0 0 5.943582837e-20)
0()
4(2000 0 0 9.417479187e-20)
4(2000 0 0 4.050068942e-20)
0()
4(2000 0 0 1.398955208e-19)
0()
0()
0()
4(2000 0 0 3.600282795e-20)
0()
4(2000 0 0 1.030046712e-20)
4(2000 0 0 1.877911671e-20)
4(2000 0 0 3.147820377e-20)
0()
0()
4(2000 0 0 1.284499504e-19)
0()
0()
0()
0()
4(2000 0 0 9.977930598e-21)
0()
0()
4(2000 0 0 4.836740594e-20)
0()
4(2000 0 0 6.519802165e-20)
4(2000 0 0 3.121771622e-20)
0()
4(2000 0 0 5.373653539e-20)
4(2000 0 0 2.599559792e-19)
4(2000 0 0 3.165130786e-20)
4(2000 0 0 3.951623304e-20)
0()
0()
4(2000 0 0 7.631750278e-20)
4(2000 0 0 5.572611539e-20)
4(2000 0 0 1.439066926e-20)
0()
0()
0()
0()
0()
0()
4(2000 0 0 1.502157131e-19)
0()
0()
4(2000 0 0 4.945534001e-20)
4(2000 0 0 2.114307659e-20)
4(2000 0 0 1.580416783e-20)
0()
0()
0()
4(2000 0 0 4.382340505e-21)
4(2000 0 0 2.714193066e-20)
4(2000 0 0 2.416791455e-20)
0()
0()
4(2000 0 0 1.317858653e-20)
4(2000 0 0 1.568509214e-19)
4(2000 0 0 4.019899922e-20)
4(2000 0 0 3.121335245e-20)
4(2000 0 0 1.87756869e-19)
0()
4(2000 0 0 1.357010477e-20)
0()
0()
0()
4(2000 0 0 5.128357753e-20)
0()
0()
0()
4(2000 0 0 2.123573287e-19)
4(2000 0 0 4.052359481e-20)
4(2000 0 0 5.005434479e-20)
4(2000 0 0 4.21351607e-20)
0()
4(2000 0 0 1.173041257e-19)
0()
0()
0()
4(2000 0 0 5.633447158e-20)
0()
0()
0()
0()
4(2000 0 0 1.382178475e-20)
4(2000 0 0 1.250535087e-19)
0()
0()
0()
0()
4(2000 0 0 1.412545923e-20)
0()
4(2000 0 0 4.014388465e-20)
0()
0()
4(2000 0 0 7.338064881e-20)
0()
0()
0()
0()
0()
0()
0()
0()
4(2000 0 0 2.537246889e-20)
0()
0()
4(2000 0 0 1.97424398e-20)
4(2000 0 0 8.395271353e-21)
4(2000 0 0 9.293725899e-20)
4(2000 0 0 3.695581181e-20)
0()
0()
0()
4(2000 0 0 9.301679335e-21)
0()
0()
4(2000 0 0 1.514825713e-20)
0()
0()
0()
0()
0()
4(2000 0 0 8.061033011e-20)
4(2000 0 0 2.354261604e-20)
0()
0()
0()
0()
0()
0()
4(2000 0 0 1.777456689e-19)
0()
0()
4(2000 0 0 4.958108709e-20)
0()
0()
4(2000 0 0 9.275344476e-20)
4(2000 0 0 1.365961966e-20)
0()
4(2000 0 0 8.360378102e-20)
4(2000 0 0 3.996107175e-20)
0()
4(2000 0 0 2.998282859e-20)
4(2000 0 0 1.031334223e-19)
0()
0()
0()
0()
0()
0()
0()
4(2000 0 0 1.811444898e-20)
4(2000 0 0 4.47842297e-20)
0()
0()
4(2000 0 0 9.036098232e-20)
0()
4(2000 0 0 4.386184212e-21)
0()
4(2000 0 0 3.284825675e-20)
0()
4(2000 0 0 4.488540503e-20)
4(2000 0 0 7.621783422e-20)
0()
0()
0()
0()
0()
0()
4(2000 0 0 6.530588904e-20)
4(2000 0 0 4.25228274e-20)
4(2000 0 0 9.956323544e-21)
0()
4(2000 0 0 3.985070944e-20)
0()
0()
4(2000 0 0 1.631226532e-20)
4(2000 0 0 3.065206638e-20)
0()
0()
4(2000 0 0 5.035690464e-20)
4(2000 0 0 2.212150282e-20)
4(2000 0 0 1.75097919e-20)
4(2000 0 0 8.708408371e-20)
0()
0()
4(2000 0 0 5.626373017e-20)
0()
0()
0()
0()
4(2000 0 0 3.33162473e-20)
4(2000 0 0 3.752941697e-20)
0()
4(2000 0 0 7.06611201e-21)
0()
0()
4(2000 0 0 7.471804876e-20)
4(2000 0 0 1.301238754e-20)
0()
0()
4(2000 0 0 3.832949604e-20)
0()
0()
4(2000 0 0 9.725854995e-20)
4(2000 0 0 4.59970992e-20)
0()
0()
0()
0()
0()
0()
4(2000 0 0 7.596654029e-20)
0()
0()
0()
4(2000 0 0 4.705883526e-20)
0()
0()
0()
0()
0()
0()
0()
0()
0()
4(2000 0 0 1.070208266e-19)
0()
4(2000 0 0 2.088054845e-20)
0()
0()
0()
4(2000 0 0 4.375851287e-20)
4(2000 0 0 2.850650524e-20)
0()
4(2000 0 0 7.478235967e-20)
0()
4(2000 0 0 1.765076569e-20)
0()
0()
4(2000 0 0 1.929117431e-20)
0()
0()
0()
4(2000 0 0 1.478965355e-20)
0()
0()
4(2000 0 0 2.288835129e-20)
0()
0()
4(2000 0 0 1.05892583e-19)
0()
0()
0()
4(2000 0 0 3.535953294e-20)
0()
4(2000 0 0 3.618881403e-20)
0()
4(2000 0 0 6.308256728e-20)
0()
0()
0()
4(2000 0 0 1.584015238e-20)
4(2000 0 0 3.908343355e-20)
0()
0()
4(2000 0 0 9.839989959e-20)
4(2000 0 0 2.209619574e-20)
0()
0()
0()
0()
0()
0()
0()
4(2000 0 0 5.304064968e-20)
0()
4(2000 0 0 5.64450451e-20)
0()
0()
4(2000 0 0 2.400819528e-19)
0()
4(2000 0 0 6.935221316e-20)
0()
0()
4(2000 0 0 2.013563997e-20)
4(2000 0 0 9.650021933e-21)
4(2000 0 0 7.605252766e-20)
0()
0()
0()
4(2000 0 0 7.948374191e-20)
4(2000 0 0 7.434340795e-20)
4(2000 0 0 2.625450623e-20)
0()
0()
0()
4(2000 0 0 7.419724925e-20)
0()
4(2000 0 0 7.31758307e-21)
0()
0()
4(2000 0 0 3.64873999e-20)
4(2000 0 0 5.336475227e-20)
0()
0()
0()
4(2000 0 0 9.3240449e-20)
0()
0()
0()
4(2000 0 0 4.524751208e-20)
0()
0()
4(2000 0 0 2.077030995e-19)
0()
0()
4(2000 0 0 5.551658784e-20)
0()
4(2000 0 0 1.105654276e-20)
0()
4(2000 0 0 1.478242708e-19)
4(2000 0 0 1.350665556e-19)
0()
0()
0()
4(2000 0 0 1.929191038e-20)
4(2000 0 0 1.334330078e-19)
4(2000 0 0 5.914754433e-20)
4(2000 0 0 1.706870733e-19)
0()
0()
4(2000 0 0 1.455682928e-19)
0()
4(2000 0 0 3.323870793e-20)
0()
4(2000 0 0 9.594781304e-20)
0()
0()
4(2000 0 0 4.444310293e-20)
0()
0()
0()
0()
0()
0()
4(2000 0 0 1.442982052e-19)
4(2000 0 0 1.799645458e-20)
4(2000 0 0 4.724984394e-20)
4(2000 0 0 5.412005902e-20)
4(2000 0 0 1.323192432e-19)
0()
0()
4(2000 0 0 3.192459189e-20)
0()
4(2000 0 0 1.609887142e-20)
4(2000 0 0 4.763004051e-20)
0()
0()
0()
0()
4(2000 0 0 5.703243859e-21)
4(2000 0 0 9.198895567e-20)
4(2000 0 0 4.770502921e-20)
4(2000 0 0 1.77498108e-19)
4(2000 0 0 5.252533349e-20)
0()
4(2000 0 0 4.034096549e-20)
0()
0()
0()
0()
0()
4(2000 0 0 3.2718206e-20)
4(2000 0 0 2.241375464e-20)
0()
0()
0()
4(2000 0 0 1.892185049e-20)
0()
0()
0()
0()
0()
0()
4(2000 0 0 2.811016312e-20)
0()
0()
0()
0()
0()
0()
4(2000 0 0 4.839545498e-20)
0()
0()
0()
0()
0()
0()
0()
4(2000 0 0 1.618379574e-20)
0()
4(2000 0 0 2.217338352e-20)
0()
4(2000 0 0 6.628761808e-20)
0()
0()
0()
0()
4(2000 0 0 5.977963809e-20)
4(2000 0 0 3.049840844e-20)
0()
0()
4(2000 0 0 2.430422021e-20)
0()
0()
4(2000 0 0 1.604124938e-20)
4(2000 0 0 9.477552822e-20)
0()
0()
0()
0()
0()
0()
4(2000 0 0 5.306920899e-20)
0()
0()
0()
0()
0()
4(2000 0 0 6.256928123e-20)
4(2000 0 0 1.474288558e-20)
4(2000 0 0 1.804421167e-20)
0()
0()
4(2000 0 0 7.505301243e-20)
0()
4(2000 0 0 4.829646826e-20)
4(2000 0 0 3.462261629e-20)
0()
0()
0()
4(2000 0 0 1.71608136e-20)
0()
0()
4(2000 0 0 1.327846156e-19)
0()
4(2000 0 0 2.499452833e-20)
0()
0()
0()
0()
4(2000 0 0 9.289897109e-20)
4(2000 0 0 3.314243498e-20)
0()
0()
0()
0()
4(2000 0 0 9.063662249e-20)
4(2000 0 0 3.543848511e-20)
4(2000 0 0 4.128633136e-20)
4(2000 0 0 1.284791199e-19)
4(2000 0 0 6.128795455e-20)
4(2000 0 0 4.125331442e-20)
0()
0()
0()
4(2000 0 0 3.809980494e-20)
4(2000 0 0 3.319590414e-20)
0()
4(2000 0 0 4.855494074e-20)
0()
0()
0()
0()
0()
0()
0()
0()
0()
4(2000 0 0 9.759136062e-20)
0()
0()
0()
0()
4(2000 0 0 3.994132961e-20)
0()
0()
0()
4(2000 0 0 8.316053663e-20)
0()
0()
4(2000 0 0 6.163888345e-20)
4(2000 0 0 1.060435338e-19)
0()
4(2000 0 0 3.035206123e-20)
0()
4(2000 0 0 6.011436759e-20)
4(2000 0 0 2.99207981e-20)
0()
0()
0()
0()
0()
0()
0()
0()
0()
4(2000 0 0 4.990563543e-20)
0()
4(2000 0 0 5.4541221e-20)
4(2000 0 0 9.288547337e-20)
4(2000 0 0 1.250024552e-19)
4(2000 0 0 3.419210561e-20)
0()
4(2000 0 0 4.925721793e-20)
0()
4(2000 0 0 1.261698679e-19)
0()
0()
4(2000 0 0 2.53441395e-20)
0()
0()
0()
4(2000 0 0 1.57274346e-19)
0()
4(2000 0 0 1.274375926e-20)
4(2000 0 0 5.742384813e-20)
0()
0()
0()
0()
0()
4(2000 0 0 3.344110295e-20)
4(2000 0 0 5.476049074e-20)
4(2000 0 0 2.699986646e-20)
0()
4(2000 0 0 5.230867973e-20)
0()
4(2000 0 0 2.347175442e-20)
0()
0()
0()
4(2000 0 0 9.956409484e-20)
0()
0()
0()
0()
4(2000 0 0 9.039385512e-20)
0()
4(2000 0 0 8.161979197e-20)
0()
0()
0()
4(2000 0 0 1.354373762e-20)
0()
4(2000 0 0 8.126504521e-20)
0()
0()
0()
0()
0()
4(2000 0 0 9.122271953e-20)
0()
0()
0()
0()
0()
4(2000 0 0 2.713420061e-20)
0()
0()
4(2000 0 0 1.369339975e-19)
0()
4(2000 0 0 7.589387244e-20)
4(2000 0 0 2.518941231e-20)
4(2000 0 0 3.276967727e-20)
4(2000 0 0 4.774570768e-20)
4(2000 0 0 5.863035004e-20)
0()
0()
4(2000 0 0 4.802575633e-20)
4(2000 0 0 7.855656189e-20)
0()
4(2000 0 0 5.904671576e-20)
0()
4(2000 0 0 9.049328185e-20)
4(2000 0 0 4.272549838e-20)
0()
0()
4(2000 0 0 1.703503325e-19)
4(2000 0 0 1.998324029e-20)
0()
4(2000 0 0 1.219242111e-19)
4(2000 0 0 3.578069552e-20)
0()
4(2000 0 0 4.884128744e-20)
0()
4(2000 0 0 1.78250211e-19)
0()
0()
0()
0()
0()
0()
0()
4(2000 0 0 3.637409254e-20)
0()
0()
0()
4(2000 0 0 2.683895113e-20)
0()
4(2000 0 0 5.049987435e-20)
0()
4(2000 0 0 4.789827335e-20)
4(2000 0 0 1.310585701e-20)
4(2000 0 0 2.523169643e-20)
0()
0()
4(2000 0 0 5.279866954e-20)
0()
4(2000 0 0 4.431817524e-20)
0()
0()
0()
0()
0()
4(2000 0 0 1.155646294e-20)
4(2000 0 0 9.434090498e-20)
0()
4(2000 0 0 9.474836781e-21)
4(2000 0 0 3.86376765e-20)
0()
0()
4(2000 0 0 2.139415167e-19)
4(2000 0 0 6.83112513e-20)
0()
4(2000 0 0 6.952168449e-20)
0()
0()
4(2000 0 0 9.839167787e-20)
4(2000 0 0 3.753506198e-20)
0()
0()
4(2000 0 0 3.107514777e-20)
4(2000 0 0 6.804411358e-20)
0()
0()
0()
0()
4(2000 0 0 1.879879774e-19)
0()
0()
0()
0()
4(2000 0 0 7.012669425e-20)
4(2000 0 0 1.111612117e-20)
4(2000 0 0 2.860442391e-20)
0()
4(2000 0 0 8.893769721e-20)
0()
0()
4(2000 0 0 5.239560535e-20)
4(2000 0 0 4.203382063e-20)
4(2000 0 0 2.349207852e-20)
0()
0()
4(2000 0 0 1.365065098e-19)
0()
0()
4(2000 0 0 5.718538193e-20)
0()
4(2000 0 0 1.24261202e-19)
4(2000 0 0 9.867788386e-20)
4(2000 0 0 6.091614589e-20)
0()
0()
4(2000 0 0 2.03876678e-20)
0()
0()
4(2000 0 0 7.448356021e-20)
4(2000 0 0 1.20207399e-22)
0()
0()
0()
0()
0()
4(2000 0 0 6.025420507e-20)
4(2000 0 0 4.9907725e-20)
0()
0()
4(2000 0 0 2.571696419e-20)
4(2000 0 0 3.706611431e-20)
0()
0()
4(2000 0 0 3.400635809e-20)
0()
0()
4(2000 0 0 4.584488815e-20)
4(2000 0 0 3.141035872e-20)
4(2000 0 0 1.974090174e-20)
0()
0()
0()
0()
0()
4(2000 0 0 1.440428034e-19)
0()
4(2000 0 0 5.472373685e-20)
4(2000 0 0 5.357256153e-20)
4(2000 0 0 2.62762573e-20)
4(2000 0 0 2.287964631e-20)
0()
4(2000 0 0 4.866143988e-20)
0()
4(2000 0 0 4.513306901e-20)
0()
0()
4(2000 0 0 9.466682918e-20)
0()
0()
0()
4(2000 0 0 2.125960957e-20)
0()
4(2000 0 0 2.622394544e-20)
0()
4(2000 0 0 5.201220539e-20)
0()
4(2000 0 0 4.581705123e-20)
0()
0()
0()
4(2000 0 0 6.665446253e-21)
4(2000 0 0 6.012012108e-20)
0()
0()
0()
0()
0()
4(2000 0 0 2.902532348e-20)
0()
4(2000 0 0 5.66505353e-20)
0()
4(2000 0 0 1.235535463e-19)
4(2000 0 0 7.224497416e-20)
4(2000 0 0 2.781493832e-19)
4(2000 0 0 1.624119101e-20)
0()
0()
4(2000 0 0 8.092546748e-20)
0()
0()
0()
0()
0()
0()
4(2000 0 0 1.159241934e-19)
4(2000 0 0 4.546374126e-20)
0()
4(2000 0 0 1.40800803e-19)
4(2000 0 0 7.097553219e-20)
0()
4(2000 0 0 4.131157082e-20)
0()
4(2000 0 0 4.096392669e-20)
0()
4(2000 0 0 6.929081427e-20)
4(2000 0 0 7.151465956e-20)
0()
4(2000 0 0 2.590141375e-20)
0()
4(2000 0 0 2.75969432e-20)
0()
4(2000 0 0 3.101781887e-20)
4(2000 0 0 5.508492357e-20)
0()
4(2000 0 0 1.460823435e-20)
0()
0()
0()
4(2000 0 0 2.593124602e-20)
0()
4(2000 0 0 1.508448126e-20)
0()
0()
0()
0()
0()
4(2000 0 0 4.168375854e-20)
4(2000 0 0 1.548304406e-19)
0()
4(2000 0 0 4.578517232e-20)
4(2000 0 0 2.631966204e-20)
0()
4(2000 0 0 6.478860633e-20)
0()
0()
0()
0()
0()
0()
4(2000 0 0 3.174996961e-20)
4(2000 0 0 2.145603394e-20)
0()
4(2000 0 0 3.649690352e-20)
0()
0()
0()
0()
0()
4(2000 0 0 2.315936242e-20)
0()
4(2000 0 0 1.200303151e-20)
4(2000 0 0 1.352477759e-20)
0()
0()
0()
4(2000 0 0 1.944540853e-19)
4(2000 0 0 2.976560033e-20)
0()
4(2000 0 0 6.264095741e-21)
0()
4(2000 0 0 1.16518756e-19)
0()
0()
0()
0()
0()
4(2000 0 0 7.559837391e-20)
0()
4(2000 0 0 2.403630582e-20)
0()
0()
0()
0()
0()
0()
4(2000 0 0 1.204179199e-20)
0()
4(2000 0 0 1.077498962e-19)
0()
0()
4(2000 0 0 8.285407286e-20)
0()
4(2000 0 0 9.405617827e-20)
0()
0()
4(2000 0 0 2.130881995e-20)
0()
0()
4(2000 0 0 4.759478006e-20)
4(2000 0 0 3.988477262e-20)
0()
0()
4(2000 0 0 1.833071445e-20)
4(2000 0 0 3.607722457e-20)
0()
4(2000 0 0 5.446473066e-20)
4(2000 0 0 5.787240079e-20)
4(2000 0 0 4.695802282e-20)
4(2000 0 0 4.969376736e-20)
4(2000 0 0 1.026606147e-19)
0()
4(2000 0 0 1.218876434e-19)
4(2000 0 0 7.437784064e-20)
0()
0()
4(2000 0 0 1.378862081e-20)
0()
0()
0()
0()
0()
0()
4(2000 0 0 3.296637371e-20)
4(2000 0 0 3.095172627e-20)
4(2000 0 0 3.135609354e-20)
0()
0()
4(2000 0 0 4.217926021e-20)
0()
0()
0()
0()
0()
4(2000 0 0 3.88350904e-20)
0()
4(2000 0 0 3.403638552e-20)
0()
4(2000 0 0 9.802938414e-20)
4(2000 0 0 2.24844752e-20)
4(2000 0 0 2.471540339e-20)
0()
0()
0()
0()
0()
4(2000 0 0 3.394236758e-20)
0()
0()
0()
0()
0()
4(2000 0 0 3.586239516e-20)
4(2000 0 0 2.200374822e-20)
0()
0()
0()
0()
0()
0()
4(2000 0 0 1.614876719e-20)
0()
0()
0()
0()
0()
0()
0()
4(2000 0 0 4.983572949e-20)
0()
4(2000 0 0 4.674189479e-20)
4(2000 0 0 7.162113562e-20)
4(2000 0 0 4.739964277e-20)
0()
0()
0()
4(2000 0 0 3.600010566e-20)
0()
0()
0()
0()
0()
4(2000 0 0 6.472358509e-20)
4(2000 0 0 1.210119787e-19)
0()
4(2000 0 0 1.026762929e-19)
4(2000 0 0 6.9601871e-20)
0()
0()
0()
0()
4(2000 0 0 1.408372377e-19)
0()
0()
0()
0()
0()
0()
4(2000 0 0 1.665517739e-20)
0()
0()
4(2000 0 0 1.390672565e-20)
4(2000 0 0 4.224891587e-20)
0()
0()
0()
0()
4(2000 0 0 2.133041012e-20)
0()
4(2000 0 0 1.07058832e-19)
0()
4(2000 0 0 1.643392462e-20)
0()
0()
4(2000 0 0 1.024421786e-19)
0()
0()
0()
4(2000 0 0 6.583182442e-20)
0()
0()
0()
4(2000 0 0 3.943317023e-20)
0()
4(2000 0 0 5.511383881e-20)
0()
0()
0()
0()
0()
0()
4(2000 0 0 2.375189815e-20)
0()
0()
4(2000 0 0 2.741637429e-20)
4(2000 0 0 2.822487687e-20)
0()
0()
4(2000 0 0 4.821330891e-20)
4(2000 0 0 2.883008058e-20)
4(2000 0 0 3.728704978e-20)
4(2000 0 0 2.996975331e-20)
4(2000 0 0 4.716512544e-20)
0()
4(2000 0 0 1.231355569e-20)
0()
4(2000 0 0 8.667847947e-20)
0()
4(2000 0 0 3.956716661e-20)
0()
0()
0()
0()
0()
0()
0()
0()
0()
0()
4(2000 0 0 4.857216567e-20)
0()
0()
4(2000 0 0 3.240365933e-20)
0()
4(2000 0 0 3.04509588e-20)
4(2000 0 0 4.01301188e-20)
0()
4(2000 0 0 7.85030948e-20)
0()
4(2000 0 0 9.142026697e-20)
4(2000 0 0 2.051233691e-20)
0()
4(2000 0 0 1.680065459e-20)
0()
4(2000 0 0 5.548827957e-20)
4(2000 0 0 2.648647478e-20)
0()
0()
0()
4(2000 0 0 4.44732399e-20)
4(2000 0 0 1.034815608e-19)
4(2000 0 0 9.68341861e-20)
0()
4(2000 0 0 5.15211683e-20)
0()
4(2000 0 0 8.625259307e-20)
0()
4(2000 0 0 6.304404524e-20)
4(2000 0 0 6.4794053e-20)
4(2000 0 0 9.37376253e-21)
0()
0()
4(2000 0 0 4.563612958e-20)
0()
0()
4(2000 0 0 3.891139257e-20)
4(2000 0 0 2.454351273e-20)
4(2000 0 0 3.68401848e-20)
0()
4(2000 0 0 1.143037069e-19)
0()
0()
4(2000 0 0 8.930044714e-20)
0()
4(2000 0 0 9.451631718e-21)
0()
0()
0()
0()
0()
0()
0()
0()
4(2000 0 0 3.188376526e-20)
4(2000 0 0 9.390910048e-20)
4(2000 0 0 1.966410749e-20)
0()
0()
0()
4(2000 0 0 5.893246958e-20)
0()
4(2000 0 0 1.032456526e-20)
4(2000 0 0 7.38349319e-21)
4(2000 0 0 4.001397472e-20)
4(2000 0 0 7.747257912e-20)
4(2000 0 0 4.355998657e-20)
0()
4(2000 0 0 6.655073854e-20)
4(2000 0 0 9.779929854e-20)
0()
0()
4(2000 0 0 1.760244564e-20)
4(2000 0 0 1.488041345e-20)
0()
4(2000 0 0 4.446805625e-20)
4(2000 0 0 2.959469665e-20)
0()
0()
0()
4(2000 0 0 8.124033337e-20)
0()
4(2000 0 0 9.155515127e-20)
4(2000 0 0 4.576435086e-20)
0()
0()
0()
4(2000 0 0 4.022623543e-20)
0()
4(2000 0 0 5.246654095e-20)
4(2000 0 0 2.848642815e-20)
0()
0()
0()
0()
0()
0()
0()
0()
0()
0()
0()
4(2000 0 0 3.95057081e-20)
0()
4(2000 0 0 7.460294468e-20)
0()
0()
0()
0()
0()
4(2000 0 0 4.995342331e-20)
0()
0()
4(2000 0 0 1.095333582e-19)
0()
0()
4(2000 0 0 1.156233514e-19)
4(2000 0 0 6.390650498e-20)
4(2000 0 0 3.712232766e-20)
0()
0()
4(2000 0 0 5.627357354e-20)
4(2000 0 0 5.617714524e-20)
4(2000 0 0 2.885746565e-20)
0()
0()
0()
0()
0()
0()
0()
0()
0()
0()
0()
4(2000 0 0 3.711837041e-20)
4(2000 0 0 4.504663427e-20)
0()
4(2000 0 0 7.672079367e-20)
0()
4(2000 0 0 4.855690226e-20)
0()
4(2000 0 0 7.664612433e-20)
0()
0()
0()
0()
0()
0()
0()
0()
0()
0()
0()
0()
4(2000 0 0 5.542888601e-20)
0()
4(2000 0 0 4.670632923e-20)
0()
0()
0()
0()
0()
0()
0()
0()
0()
0()
0()
0()
4(2000 0 0 3.13110223e-20)
4(2000 0 0 1.226244816e-19)
0()
0()
0()
0()
0()
0()
4(2000 0 0 2.603516232e-20)
4(2000 0 0 1.085904512e-19)
0()
4(2000 0 0 2.789281415e-20)
0()
0()
0()
4(2000 0 0 1.257638613e-19)
4(2000 0 0 8.324540683e-20)
4(2000 0 0 1.257256805e-19)
0()
0()
0()
0()
0()
0()
0()
0()
4(2000 0 0 2.57280828e-20)
0()
0()
0()
4(2000 0 0 5.619310667e-20)
0()
4(2000 0 0 1.276276329e-19)
4(2000 0 0 4.59729487e-20)
0()
0()
0()
0()
0()
0()
0()
0()
0()
4(2000 0 0 2.036602854e-19)
0()
4(2000 0 0 1.961378039e-20)
0()
0()
0()
4(2000 0 0 4.650639056e-20)
4(2000 0 0 6.175509837e-20)
0()
4(2000 0 0 3.943811409e-20)
4(2000 0 0 5.39543486e-20)
4(2000 0 0 2.573803773e-20)
0()
0()
0()
0()
0()
4(2000 0 0 8.064069359e-20)
4(2000 0 0 1.087657495e-19)
4(2000 0 0 7.693484191e-20)
4(2000 0 0 6.890692118e-20)
0()
4(2000 0 0 6.22204392e-20)
4(2000 0 0 3.513926713e-20)
4(2000 0 0 8.77822797e-20)
0()
4(2000 0 0 2.330310595e-20)
0()
4(2000 0 0 9.853900951e-20)
0()
0()
0()
0()
0()
0()
0()
0()
0()
0()
0()
0()
4(2000 0 0 6.72578118e-20)
0()
0()
0()
0()
0()
0()
0()
0()
4(2000 0 0 2.15451954e-21)
4(2000 0 0 1.391289649e-20)
0()
0()
0()
0()
0()
4(2000 0 0 2.895934548e-20)
0()
0()
0()
0()
4(2000 0 0 4.829390676e-20)
4(2000 0 0 2.456395386e-20)
0()
0()
4(2000 0 0 9.934656693e-20)
0()
4(2000 0 0 7.952358026e-20)
4(2000 0 0 7.078299832e-20)
4(2000 0 0 7.84574557e-21)
0()
4(2000 0 0 4.958675234e-20)
0()
0()
0()
0()
0()
0()
4(2000 0 0 2.052331304e-20)
0()
0()
4(2000 0 0 8.476542259e-20)
0()
0()
0()
0()
0()
4(2000 0 0 7.184725574e-20)
0()
0()
0()
4(2000 0 0 3.592882988e-20)
4(2000 0 0 7.933731594e-20)
0()
4(2000 0 0 3.563094453e-20)
0()
0()
4(2000 0 0 4.132115577e-20)
0()
0()
0()
0()
0()
0()
4(2000 0 0 1.477871599e-20)
0()
4(2000 0 0 2.781437818e-20)
0()
0()
0()
0()
0()
0()
4(2000 0 0 6.360119532e-20)
0()
0()
4(2000 0 0 6.212804355e-20)
0()
0()
4(2000 0 0 1.496602529e-19)
0()
4(2000 0 0 8.829113666e-20)
0()
4(2000 0 0 3.47205689e-20)
0()
4(2000 0 0 6.913974218e-20)
4(2000 0 0 1.301169688e-20)
0()
0()
0()
0()
0()
0()
0()
4(2000 0 0 5.195436357e-20)
0()
0()
0()
0()
4(2000 0 0 1.092152991e-19)
4(2000 0 0 3.387162716e-20)
0()
4(2000 0 0 5.893108453e-20)
4(2000 0 0 6.146947847e-20)
4(2000 0 0 3.300851141e-21)
0()
0()
0()
0()
0()
4(2000 0 0 3.779539067e-20)
4(2000 0 0 1.27523008e-19)
0()
0()
0()
0()
0()
0()
4(2000 0 0 4.790201412e-20)
4(2000 0 0 3.101490354e-20)
0()
4(2000 0 0 1.386501813e-20)
4(2000 0 0 1.387292866e-19)
4(2000 0 0 4.384650295e-20)
4(2000 0 0 4.045805111e-20)
0()
0()
0()
0()
4(2000 0 0 6.173262657e-20)
4(2000 0 0 2.691859574e-20)
0()
4(2000 0 0 5.063158907e-20)
0()
4(2000 0 0 2.094831236e-19)
4(2000 0 0 3.091262347e-20)
0()
4(2000 0 0 6.539005833e-22)
0()
4(2000 0 0 4.569696836e-20)
0()
0()
0()
4(2000 0 0 8.713286865e-21)
4(2000 0 0 5.1088262e-20)
4(2000 0 0 3.598574702e-20)
4(2000 0 0 1.054738818e-19)
0()
4(2000 0 0 6.355304427e-20)
0()
0()
4(2000 0 0 3.05242049e-20)
0()
0()
0()
0()
4(2000 0 0 2.913560981e-20)
0()
0()
4(2000 0 0 3.277233345e-20)
0()
0()
0()
4(2000 0 0 7.373432419e-20)
0()
4(2000 0 0 5.151176449e-20)
0()
0()
0()
4(2000 0 0 3.470067581e-20)
0()
4(2000 0 0 3.358611836e-20)
0()
4(2000 0 0 3.301957016e-20)
0()
4(2000 0 0 1.329080446e-19)
4(2000 0 0 2.230901303e-21)
0()
4(2000 0 0 4.409929839e-20)
4(2000 0 0 5.013674257e-20)
4(2000 0 0 7.28050585e-20)
0()
0()
0()
0()
4(2000 0 0 3.943310786e-20)
4(2000 0 0 7.391063212e-20)
0()
4(2000 0 0 2.190302651e-20)
0()
0()
4(2000 0 0 2.847583636e-20)
0()
0()
0()
4(2000 0 0 5.980343765e-20)
4(2000 0 0 4.717118178e-20)
4(2000 0 0 8.332417482e-20)
0()
0()
0()
0()
4(2000 0 0 5.571820043e-20)
0()
0()
4(2000 0 0 8.253259401e-20)
0()
0()
0()
0()
0()
0()
0()
0()
0()
0()
0()
0()
0()
0()
0()
0()
0()
0()
0()
4(2000 0 0 1.152928539e-19)
0()
0()
0()
4(2000 0 0 6.487192169e-20)
0()
4(2000 0 0 6.373822385e-20)
0()
4(2000 0 0 1.366601751e-19)
4(2000 0 0 1.34040818e-20)
0()
0()
0()
4(2000 0 0 1.232485047e-20)
0()
4(2000 0 0 7.087290455e-20)
0()
0()
0()
0()
0()
0()
4(2000 0 0 4.572873147e-20)
0()
4(2000 0 0 5.382443974e-20)
4(2000 0 0 4.536693168e-20)
4(2000 0 0 5.602978746e-20)
0()
0()
0()
0()
0()
4(2000 0 0 1.62598048e-20)
4(2000 0 0 5.983949966e-20)
0()
4(2000 0 0 5.046990785e-20)
0()
0()
4(2000 0 0 2.42388225e-20)
0()
0()
4(2000 0 0 5.897777581e-20)
4(2000 0 0 1.919168995e-20)
0()
4(2000 0 0 8.01416276e-20)
4(2000 0 0 6.473910766e-20)
0()
0()
4(2000 0 0 2.092309141e-20)
4(2000 0 0 3.887377226e-20)
0()
4(2000 0 0 2.818136428e-20)
0()
4(2000 0 0 3.656826005e-20)
0()
0()
0()
0()
0()
0()
4(2000 0 0 5.560729672e-20)
4(2000 0 0 6.275249872e-20)
0()
0()
0()
0()
0()
4(2000 0 0 1.554923789e-20)
0()
4(2000 0 0 1.98693348e-19)
0()
0()
0()
4(2000 0 0 5.701310853e-20)
4(2000 0 0 5.796262002e-20)
0()
4(2000 0 0 1.031745999e-20)
0()
4(2000 0 0 1.148613983e-19)
4(2000 0 0 3.858236189e-20)
0()
0()
0()
0()
0()
4(2000 0 0 4.363912114e-20)
4(2000 0 0 1.117398687e-19)
0()
0()
0()
0()
0()
4(2000 0 0 1.87883551e-20)
0()
4(2000 0 0 5.767644266e-20)
0()
0()
0()
0()
0()
0()
4(2000 0 0 7.261550474e-20)
0()
0()
0()
4(2000 0 0 4.584565328e-20)
4(2000 0 0 1.048894775e-20)
0()
0()
0()
0()
4(2000 0 0 5.199389792e-20)
4(2000 0 0 4.892261757e-20)
4(2000 0 0 1.989457305e-19)
4(2000 0 0 2.055775601e-20)
0()
0()
4(2000 0 0 7.89464556e-21)
4(2000 0 0 8.011829864e-20)
0()
0()
0()
4(2000 0 0 6.405211974e-20)
0()
4(2000 0 0 3.590640785e-20)
4(2000 0 0 4.425227975e-20)
4(2000 0 0 1.351000116e-20)
0()
0()
4(2000 0 0 4.864920674e-20)
4(2000 0 0 2.29125523e-20)
0()
0()
0()
0()
4(2000 0 0 3.569923884e-21)
0()
4(2000 0 0 1.253579522e-19)
0()
0()
0()
0()
0()
0()
0()
4(2000 0 0 1.454415918e-20)
4(2000 0 0 2.684348963e-20)
0()
0()
0()
0()
4(2000 0 0 1.262630732e-19)
0()
0()
4(2000 0 0 4.389635103e-20)
0()
0()
0()
0()
0()
4(2000 0 0 3.314792234e-20)
4(2000 0 0 3.980771755e-20)
0()
0()
0()
0()
4(2000 0 0 6.986164863e-20)
4(2000 0 0 1.367167074e-20)
4(2000 0 0 2.790757378e-20)
0()
4(2000 0 0 3.466592189e-20)
0()
0()
4(2000 0 0 2.429795074e-20)
4(2000 0 0 6.957342647e-20)
0()
0()
4(2000 0 0 4.977760585e-20)
4(2000 0 0 7.551282216e-20)
4(2000 0 0 7.397313477e-20)
0()
0()
4(2000 0 0 3.079428825e-20)
4(2000 0 0 2.352126413e-21)
4(2000 0 0 3.88477965e-20)
0()
0()
0()
0()
4(2000 0 0 6.045932226e-20)
4(2000 0 0 5.98147491e-20)
4(2000 0 0 5.775686849e-20)
0()
0()
4(2000 0 0 1.542322814e-20)
0()
4(2000 0 0 3.424615749e-20)
4(2000 0 0 5.433280661e-20)
0()
0()
0()
0()
0()
4(2000 0 0 3.445297419e-20)
0()
0()
0()
4(2000 0 0 3.213552351e-20)
0()
4(2000 0 0 2.835130776e-20)
0()
0()
4(2000 0 0 6.246572718e-20)
0()
4(2000 0 0 7.459247159e-20)
0()
0()
4(2000 0 0 8.27471811e-21)
0()
0()
4(2000 0 0 8.947707123e-20)
4(2000 0 0 8.146178628e-20)
4(2000 0 0 2.470065819e-20)
0()
0()
0()
4(2000 0 0 9.185365489e-21)
0()
0()
4(2000 0 0 3.062900093e-20)
4(2000 0 0 1.049800927e-19)
4(2000 0 0 6.736915682e-20)
0()
0()
0()
0()
0()
4(2000 0 0 5.428977304e-20)
0()
0()
4(2000 0 0 1.546476473e-19)
4(2000 0 0 1.153529757e-19)
0()
0()
4(2000 0 0 8.799927605e-20)
0()
4(2000 0 0 3.768766657e-20)
4(2000 0 0 8.092250368e-20)
0()
0()
4(2000 0 0 2.043784683e-20)
0()
4(2000 0 0 2.387461286e-20)
0()
0()
0()
4(2000 0 0 8.038244542e-20)
4(2000 0 0 6.852640101e-20)
0()
4(2000 0 0 4.337024611e-20)
0()
4(2000 0 0 5.449956545e-20)
4(2000 0 0 2.103989482e-19)
0()
4(2000 0 0 3.896065539e-20)
0()
0()
0()
0()
0()
0()
0()
0()
0()
0()
0()
0()
0()
0()
0()
4(2000 0 0 4.028995788e-20)
4(2000 0 0 5.702561033e-20)
4(2000 0 0 7.037668839e-20)
0()
0()
0()
4(2000 0 0 2.357489653e-20)
0()
4(2000 0 0 3.809708501e-20)
0()
0()
4(2000 0 0 1.154290507e-19)
0()
0()
0()
0()
0()
0()
4(2000 0 0 2.95166148e-20)
0()
0()
0()
0()
4(2000 0 0 6.870297379e-20)
0()
0()
0()
0()
0()
0()
4(2000 0 0 1.784695405e-20)
0()
0()
4(2000 0 0 6.502565352e-20)
0()
0()
4(2000 0 0 5.667309592e-20)
4(2000 0 0 6.30872818e-20)
0()
0()
4(2000 0 0 5.673279146e-20)
0()
0()
0()
4(2000 0 0 8.232624806e-20)
4(2000 0 0 5.051710703e-20)
0()
4(2000 0 0 3.272978973e-20)
4(2000 0 0 7.942983688e-20)
0()
0()
0()
0()
0()
4(2000 0 0 6.435732677e-20)
0()
0()
4(2000 0 0 7.644392486e-20)
4(2000 0 0 1.427460351e-20)
0()
4(2000 0 0 6.683742207e-20)
4(2000 0 0 5.50077277e-20)
0()
4(2000 0 0 2.403203123e-20)
0()
4(2000 0 0 4.758998524e-20)
0()
0()
0()
4(2000 0 0 1.137444162e-19)
4(2000 0 0 2.376328192e-20)
0()
0()
0()
0()
0()
4(2000 0 0 2.654581472e-20)
0()
0()
4(2000 0 0 1.159437751e-20)
0()
0()
0()
0()
0()
0()
4(2000 0 0 1.286242627e-19)
4(2000 0 0 1.904844861e-20)
4(2000 0 0 4.388359192e-20)
4(2000 0 0 7.466387545e-20)
4(2000 0 0 1.294948577e-20)
4(2000 0 0 1.178348768e-19)
0()
4(2000 0 0 5.942885542e-20)
0()
0()
0()
0()
0()
4(2000 0 0 4.740657528e-20)
4(2000 0 0 3.687343507e-20)
0()
4(2000 0 0 4.84142391e-20)
4(2000 0 0 2.788106e-20)
4(2000 0 0 5.566789669e-20)
0()
0()
4(2000 0 0 1.527603577e-19)
0()
0()
0()
0()
4(2000 0 0 2.232725932e-20)
4(2000 0 0 2.032891218e-20)
4(2000 0 0 8.451558315e-20)
4(2000 0 0 6.966308446e-20)
4(2000 0 0 5.134891337e-20)
0()
4(2000 0 0 3.512609937e-20)
4(2000 0 0 5.470901637e-21)
0()
4(2000 0 0 3.757102662e-20)
0()
4(2000 0 0 5.425398479e-20)
4(2000 0 0 3.069465504e-20)
0()
0()
0()
0()
0()
0()
0()
0()
0()
0()
0()
4(2000 0 0 5.91822498e-20)
4(2000 0 0 6.396616281e-20)
4(2000 0 0 6.326937105e-20)
4(2000 0 0 3.82474255e-20)
0()
4(2000 0 0 3.676525507e-20)
0()
0()
4(2000 0 0 7.468769711e-20)
4(2000 0 0 7.046619744e-20)
0()
4(2000 0 0 3.871915953e-20)
4(2000 0 0 5.981911415e-20)
0()
4(2000 0 0 7.232154611e-20)
0()
4(2000 0 0 4.916382136e-20)
4(2000 0 0 5.916503123e-20)
0()
0()
0()
4(2000 0 0 2.661182102e-20)
0()
4(2000 0 0 7.092236095e-20)
4(2000 0 0 5.15686897e-20)
0()
0()
0()
4(2000 0 0 7.61408663e-20)
0()
0()
0()
4(2000 0 0 1.503880458e-19)
0()
4(2000 0 0 9.031686951e-20)
0()
0()
0()
0()
0()
0()
4(2000 0 0 1.184708189e-20)
0()
0()
4(2000 0 0 3.624859413e-20)
0()
4(2000 0 0 9.177426849e-20)
0()
0()
0()
0()
0()
0()
0()
0()
4(2000 0 0 1.709556359e-19)
4(2000 0 0 1.60329024e-20)
0()
0()
0()
4(2000 0 0 1.996004944e-20)
4(2000 0 0 1.657039382e-19)
0()
4(2000 0 0 3.854492065e-20)
0()
4(2000 0 0 5.268837205e-20)
0()
0()
4(2000 0 0 2.619604967e-20)
4(2000 0 0 5.812913138e-20)
4(2000 0 0 5.937445568e-20)
0()
0()
4(2000 0 0 3.80135963e-20)
4(2000 0 0 6.20407192e-20)
0()
0()
0()
0()
4(2000 0 0 1.811898834e-20)
4(2000 0 0 4.767989769e-20)
4(2000 0 0 6.21409607e-20)
0()
4(2000 0 0 2.947571821e-20)
4(2000 0 0 6.252014778e-20)
0()
4(2000 0 0 5.488375911e-20)
4(2000 0 0 2.072158087e-20)
0()
0()
0()
4(2000 0 0 1.691796984e-20)
0()
0()
0()
0()
4(2000 0 0 6.393148781e-20)
0()
0()
0()
0()
0()
0()
0()
4(2000 0 0 5.372848926e-20)
0()
0()
0()
4(2000 0 0 9.762493007e-20)
0()
4(2000 0 0 4.283848974e-20)
0()
4(2000 0 0 2.46944493e-20)
0()
0()
0()
0()
0()
0()
0()
0()
4(2000 0 0 8.457265122e-20)
0()