/*--------------------------------*- C++ -*----------------------------------*\
| =========                 |                                                 |
| \\      /  F ield         | OpenFOAM: The Open Source CFD Toolbox           |
|  \\    /   O peration     | Version:  v1706                                 |
|   \\  /    A nd           | Web:      www.OpenFOAM.com                      |
|    \\/     M anipulation  |                                                 |
\*---------------------------------------------------------------------------*/
FoamFile
{
    version     2.0;
    format      ascii;
    class       volScalarField;
    location    "0.04";
    object      dsmcSigmaTcRMax;
}
// * * * * * * * * * * * * * * * * * * * * * * * * * * * * * * * * * * * * * //

dimensions      [0 3 -1 0 0 0 0];


internalField   nonuniform List<scalar> 
6000
(
7.811853239e-16
7.679445208e-16
8.619003973e-16
8.294451671e-16
8.597665962e-16
7.697746338e-16
7.936747216e-16
8.032200721e-16
8.574207886e-16
8.491866894e-16
8.047692683e-16
8.052104923e-16
8.172398819e-16
8.434790232e-16
8.369078354e-16
8.659218892e-16
8.892348555e-16
8.422788844e-16
8.323164937e-16
8.551470665e-16
8.430544167e-16
8.150078804e-16
8.277010279e-16
8.667942768e-16
7.995763813e-16
7.994950782e-16
8.11476836e-16
8.310310085e-16
8.412813862e-16
7.985381362e-16
8.099717044e-16
8.573098217e-16
7.695898934e-16
8.280082801e-16
8.248695377e-16
7.79245323e-16
8.029756105e-16
8.284122216e-16
8.152330246e-16
8.086962538e-16
7.882254356e-16
8.215407688e-16
8.229809892e-16
7.922985755e-16
7.855505564e-16
8.103672547e-16
7.819408508e-16
7.588357141e-16
7.915946765e-16
7.976141737e-16
7.333440087e-16
7.975235487e-16
7.70656231e-16
7.888445472e-16
7.777033938e-16
8.722782889e-16
8.163124214e-16
8.011396657e-16
8.052473867e-16
7.537461971e-16
7.545561588e-16
7.843965763e-16
7.996534754e-16
7.732058436e-16
7.879599983e-16
7.823165269e-16
7.554474622e-16
7.192648498e-16
7.322849767e-16
7.139341974e-16
7.240847271e-16
6.837891943e-16
7.168875709e-16
7.350923861e-16
7.056403023e-16
6.77561225e-16
7.386328923e-16
7.37099097e-16
7.879060258e-16
8.14117574e-16
7.045549841e-16
6.703269936e-16
6.802611279e-16
7.628634884e-16
7.408620114e-16
7.53225446e-16
6.817135096e-16
6.850223962e-16
7.04947469e-16
8.233492326e-16
6.629998468e-16
6.762305748e-16
7.508143954e-16
8.439813012e-16
7.039183507e-16
6.46576116e-16
6.640333147e-16
6.783594339e-16
7.040244226e-16
6.618023226e-16
6.730228471e-16
6.586727475e-16
7.229152591e-16
6.82123646e-16
6.904257299e-16
6.891372224e-16
7.190773077e-16
7.253597383e-16
6.934592849e-16
6.506962624e-16
6.754058696e-16
6.844619155e-16
6.795123295e-16
6.679891852e-16
6.930524704e-16
6.667532522e-16
6.862713907e-16
7.008127002e-16
6.484679367e-16
6.736853291e-16
6.784321323e-16
6.514220691e-16
7.037993757e-16
6.759994448e-16
6.653562e-16
6.790319415e-16
6.529987403e-16
6.683967037e-16
6.600073797e-16
6.66617648e-16
6.736170577e-16
6.503774869e-16
6.84136571e-16
6.905735487e-16
6.486058226e-16
6.822955796e-16
6.627052522e-16
6.81719815e-16
6.872828237e-16
6.536802421e-16
6.955788211e-16
6.434694542e-16
6.717835149e-16
6.63122167e-16
6.657908539e-16
6.699371768e-16
6.729576346e-16
6.653958233e-16
6.482651033e-16
7.20451776e-16
6.532897424e-16
6.68617526e-16
6.753972759e-16
6.716478158e-16
6.622199329e-16
6.770524694e-16
6.920276044e-16
6.666017862e-16
6.850961608e-16
6.810361272e-16
6.820458367e-16
6.875024863e-16
6.792690745e-16
6.550605092e-16
6.663873686e-16
6.773611088e-16
6.861019842e-16
6.720586559e-16
6.719309091e-16
6.486711813e-16
6.600698167e-16
6.607452297e-16
6.754582882e-16
6.806009732e-16
6.898942606e-16
6.59134751e-16
6.718309115e-16
6.920560527e-16
7.697101112e-16
7.445293798e-16
7.195241922e-16
6.910900869e-16
6.911283176e-16
6.735384143e-16
6.553478617e-16
6.854744084e-16
6.733414564e-16
6.878018276e-16
6.663838591e-16
6.5063577e-16
6.87160512e-16
6.952911956e-16
6.619902349e-16
6.594162506e-16
6.522496468e-16
6.578665798e-16
6.410792689e-16
7.32110772e-16
6.656709383e-16
6.712938556e-16
6.612312592e-16
6.718218757e-16
6.659010645e-16
6.405348435e-16
6.567420397e-16
6.716646053e-16
6.6207859e-16
6.722562571e-16
6.790430444e-16
6.53552483e-16
7.064443709e-16
6.728018786e-16
7.042599854e-16
6.873667588e-16
6.627909593e-16
6.835407154e-16
7.028427803e-16
6.810428692e-16
6.747211896e-16
6.685797966e-16
6.651589233e-16
6.724794058e-16
6.654897577e-16
6.918069887e-16
6.681263801e-16
7.318743225e-16
6.755074174e-16
7.132719389e-16
6.802956121e-16
6.517216749e-16
6.828738612e-16
6.664533667e-16
6.678542002e-16
6.728380318e-16
6.95491622e-16
7.169527572e-16
6.697300439e-16
6.80677089e-16
6.352582028e-16
6.588508784e-16
6.847159051e-16
6.917647403e-16
6.727178808e-16
7.2968652e-16
6.54556697e-16
6.604510142e-16
7.01212643e-16
6.950168807e-16
6.72191434e-16
6.586010758e-16
6.999683632e-16
6.615231125e-16
6.817907901e-16
6.647580614e-16
6.670719091e-16
6.895728743e-16
6.711996143e-16
6.746817806e-16
6.698790043e-16
6.427679269e-16
7.226459353e-16
6.847067627e-16
6.656134326e-16
6.730516843e-16
6.672283856e-16
6.585330061e-16
6.561209105e-16
7.071959116e-16
6.756791239e-16
6.5819017e-16
7.020202654e-16
6.602079249e-16
6.590882858e-16
6.712597199e-16
7.078477959e-16
6.648212268e-16
7.029183376e-16
7.109233646e-16
6.567160012e-16
7.018625596e-16
6.606218553e-16
6.750558228e-16
6.741040341e-16
6.822947799e-16
6.843826254e-16
7.325611078e-16
6.861794785e-16
6.707143629e-16
6.722948681e-16
6.656425588e-16
6.748670161e-16
7.049992393e-16
6.640676058e-16
7.161248973e-16
6.949041504e-16
6.94636283e-16
6.850074366e-16
6.601083622e-16
7.033621272e-16
6.625100383e-16
8.465798427e-16
8.679989503e-16
8.679932857e-16
8.419474584e-16
8.78970143e-16
8.568327178e-16
8.312085641e-16
8.55440633e-16
8.825070327e-16
8.801040965e-16
8.706362856e-16
8.468975211e-16
8.644819191e-16
8.554389968e-16
8.507105353e-16
8.571962667e-16
8.35322656e-16
8.559660068e-16
8.455480497e-16
8.710444403e-16
8.428381522e-16
8.339169982e-16
8.414926854e-16
8.291907907e-16
8.561700873e-16
9.217911011e-16
8.477336253e-16
8.339834609e-16
8.505172398e-16
8.387943125e-16
8.434511214e-16
8.345032686e-16
8.40644771e-16
8.344526779e-16
8.440360427e-16
8.431403279e-16
8.439605297e-16
8.269673493e-16
8.291224236e-16
8.375776612e-16
8.654925795e-16
8.994382516e-16
8.479579436e-16
8.360080702e-16
7.92460368e-16
8.340247451e-16
8.265843803e-16
8.166713129e-16
8.26497279e-16
8.496263622e-16
8.166314736e-16
8.23672307e-16
8.161328981e-16
8.542702237e-16
8.246694198e-16
8.075658958e-16
8.502437635e-16
8.163820779e-16
8.008493211e-16
8.697960377e-16
8.32110912e-16
8.301541614e-16
8.338869367e-16
8.130627768e-16
8.18293282e-16
8.455325914e-16
8.281959337e-16
7.846897345e-16
8.188211551e-16
8.292507734e-16
8.13742594e-16
8.117959349e-16
8.450021905e-16
8.270090866e-16
8.121765914e-16
8.157094114e-16
8.270945126e-16
7.987806721e-16
8.417028436e-16
7.82646211e-16
8.43077248e-16
8.568868582e-16
8.182277489e-16
8.396098546e-16
7.925942039e-16
8.116486544e-16
8.427291794e-16
7.965489612e-16
8.123529829e-16
8.317545867e-16
7.842778378e-16
8.3070794e-16
8.672155989e-16
8.280313417e-16
7.971310625e-16
8.661185891e-16
8.37543249e-16
8.628572723e-16
8.513398669e-16
8.467266021e-16
8.419471855e-16
8.916428564e-16
8.535612267e-16
8.693979981e-16
8.83618578e-16
8.48313253e-16
8.55930491e-16
8.806393995e-16
8.764590381e-16
8.603270951e-16
8.607530898e-16
8.65477897e-16
8.664121262e-16
8.452206087e-16
8.665999065e-16
8.357857978e-16
8.486587227e-16
8.448006197e-16
8.569627326e-16
8.295303688e-16
8.482400291e-16
8.561350485e-16
8.854394556e-16
8.589452895e-16
8.515787787e-16
8.281652045e-16
8.188463223e-16
8.129466079e-16
8.262454968e-16
8.62150375e-16
8.517764177e-16
8.73813924e-16
8.476352807e-16
8.830033415e-16
8.192369228e-16
8.5967415e-16
8.293337478e-16
8.397113272e-16
8.487488145e-16
8.59348063e-16
8.305396533e-16
8.386810769e-16
8.647706622e-16
8.394100877e-16
8.194129533e-16
8.586070071e-16
8.197026067e-16
8.327443042e-16
8.617387593e-16
8.183498732e-16
8.374939135e-16
8.088665634e-16
8.367466521e-16
8.351510166e-16
8.238220178e-16
8.093340852e-16
8.062260097e-16
8.290652456e-16
8.580483445e-16
8.123143442e-16
8.034152292e-16
8.779376934e-16
8.346295412e-16
8.360129354e-16
8.350200814e-16
8.064285961e-16
8.269581912e-16
8.549665433e-16
8.36776681e-16
8.168989986e-16
8.061256421e-16
8.546694975e-16
8.279406667e-16
8.129042416e-16
8.192744575e-16
8.486833061e-16
8.433944341e-16
8.102086007e-16
8.339753244e-16
8.466846785e-16
8.596902399e-16
8.084936294e-16
8.304536836e-16
7.965506177e-16
7.904098901e-16
7.950018053e-16
8.00094005e-16
8.290690328e-16
7.898368687e-16
7.971488214e-16
8.312211477e-16
8.213985946e-16
8.419768714e-16
8.593505162e-16
8.124264139e-16
8.596336959e-16
8.489767297e-16
8.487713784e-16
8.651356459e-16
8.444764413e-16
8.457276874e-16
8.615436989e-16
8.785432275e-16
8.408040866e-16
8.90711873e-16
8.466963719e-16
8.333525745e-16
8.396103064e-16
8.778456232e-16
8.436480067e-16
8.32413152e-16
9.240219815e-16
8.535172877e-16
8.597548181e-16
8.487888941e-16
8.192447652e-16
8.691422416e-16
8.493623132e-16
8.559321609e-16
8.467827671e-16
8.45220755e-16
8.313047304e-16
8.606184325e-16
8.478267654e-16
8.458981139e-16
8.574901941e-16
8.428962607e-16
9.308050107e-16
8.40454946e-16
8.378047766e-16
8.378033125e-16
8.470771669e-16
8.122108201e-16
8.134659443e-16
8.323346185e-16
8.523755786e-16
8.567377948e-16
8.263419931e-16
8.620329895e-16
8.269315013e-16
8.164006004e-16
8.470244911e-16
8.315093134e-16
8.492207101e-16
8.47876965e-16
8.929960214e-16
8.111734402e-16
8.571759342e-16
8.505685133e-16
8.072141658e-16
8.326211763e-16
8.632691876e-16
8.260729085e-16
8.443253136e-16
8.483203749e-16
8.189224456e-16
8.231108688e-16
8.50594155e-16
8.08641567e-16
8.400942516e-16
8.333769456e-16
8.553619553e-16
8.09459088e-16
8.428495049e-16
7.981308434e-16
8.247435444e-16
8.50980853e-16
8.164775139e-16
8.256613755e-16
8.316141994e-16
8.398611269e-16
8.481178081e-16
8.198672582e-16
8.843477234e-16
8.622291629e-16
8.244273968e-16
8.618687986e-16
8.318398481e-16
8.177905999e-16
8.400305619e-16
7.847891424e-16
8.117697923e-16
8.01652209e-16
8.277473573e-16
8.055534146e-16
8.367094349e-16
8.335117836e-16
8.428341827e-16
8.364356445e-16
8.31039349e-16
9.128760938e-16
8.340366699e-16
8.357530631e-16
8.463433193e-16
8.278376259e-16
8.425676892e-16
8.525655219e-16
8.299233035e-16
8.357174404e-16
8.40950579e-16
8.49270669e-16
8.506605725e-16
8.809383038e-16
8.569821639e-16
8.544614072e-16
8.701684039e-16
8.490531805e-16
8.302926928e-16
8.894471603e-16
8.857545879e-16
8.445645676e-16
8.536226504e-16
8.871978612e-16
8.571024129e-16
8.378138986e-16
8.459605827e-16
8.447819958e-16
8.620806315e-16
8.576597009e-16
8.425387602e-16
8.48679079e-16
8.299764479e-16
8.339680212e-16
8.563114253e-16
8.568928397e-16
8.208575138e-16
8.635515114e-16
8.719064089e-16
8.383015153e-16
8.202208375e-16
8.466507717e-16
8.819937576e-16
8.314949225e-16
8.115563804e-16
8.592755705e-16
8.213441452e-16
8.48881706e-16
8.300588611e-16
8.931761454e-16
8.576083389e-16
8.357603142e-16
8.468987717e-16
8.07238206e-16
8.516499366e-16
8.416891783e-16
8.271830627e-16
8.56073946e-16
8.10419699e-16
8.377804825e-16
8.425811697e-16
8.273049248e-16
8.02546937e-16
8.371223213e-16
8.086205702e-16
8.657293587e-16
8.378230723e-16
8.201041036e-16
8.422579401e-16
8.500630209e-16
7.980040607e-16
8.081694306e-16
8.295686625e-16
8.574360648e-16
8.255729917e-16
8.240487482e-16
8.205510235e-16
8.396690056e-16
8.224685739e-16
8.319291428e-16
8.299548099e-16
8.144581254e-16
7.9616495e-16
8.373606932e-16
8.254962977e-16
7.987287558e-16
8.401989949e-16
8.054373568e-16
8.074345483e-16
7.814712813e-16
7.715217298e-16
8.141599648e-16
8.330039569e-16
8.280262555e-16
8.323862204e-16
8.3648165e-16
8.488389572e-16
8.19984403e-16
7.943786846e-16
8.103281888e-16
8.2610224e-16
8.067099831e-16
8.220725327e-16
8.394192441e-16
8.295723798e-16
8.746749135e-16
8.57700987e-16
8.296523476e-16
8.675697872e-16
8.265529953e-16
8.068867666e-16
8.601132785e-16
8.643260294e-16
8.122239884e-16
8.380889513e-16
8.459371067e-16
8.455967044e-16
8.474030252e-16
8.346753503e-16
8.50322181e-16
8.340371187e-16
8.456906299e-16
8.422890348e-16
8.349518553e-16
8.401634953e-16
8.512923551e-16
8.439815831e-16
8.407987774e-16
8.559583153e-16
8.451601549e-16
8.628106047e-16
8.250535697e-16
8.368620838e-16
8.411091551e-16
7.989903114e-16
8.355420019e-16
8.142865805e-16
8.330198936e-16
8.720938771e-16
8.61923677e-16
8.308823775e-16
8.232942291e-16
8.86811503e-16
8.179563783e-16
8.271344996e-16
8.471529765e-16
8.330436956e-16
8.241859839e-16
8.501075662e-16
8.598056267e-16
8.466515607e-16
8.49714203e-16
8.191145117e-16
8.398570851e-16
8.381691161e-16
8.312375503e-16
8.301681689e-16
8.069369843e-16
8.360831673e-16
8.18687469e-16
8.080310605e-16
8.14222853e-16
8.454091484e-16
8.581551122e-16
8.347496997e-16
8.26099294e-16
8.141268416e-16
8.285772459e-16
8.325674981e-16
8.175420812e-16
8.512827132e-16
8.380516411e-16
8.383405621e-16
8.344646947e-16
8.21571012e-16
8.123486187e-16
8.297278612e-16
8.189028928e-16
8.098083601e-16
8.231935106e-16
8.044232452e-16
8.523143686e-16
7.953122283e-16
8.0490251e-16
8.268843568e-16
7.856487109e-16
8.131495986e-16
8.565106142e-16
8.02854214e-16
8.068409721e-16
8.058622914e-16
8.177063141e-16
9.000154178e-16
8.268390457e-16
8.475664392e-16
8.27908028e-16
8.257115461e-16
8.183310121e-16
8.229677075e-16
8.152290883e-16
8.3247367e-16
8.764884088e-16
8.360842613e-16
8.564745449e-16
9.205126868e-16
8.40588173e-16
8.406397266e-16
8.379336907e-16
8.229403074e-16
8.351092654e-16
8.301897053e-16
8.679482316e-16
8.34490728e-16
8.718521751e-16
8.833724626e-16
8.541932362e-16
8.206167556e-16
8.488280897e-16
8.28728037e-16
8.48525562e-16
8.559799987e-16
8.329197191e-16
8.35888972e-16
8.257773778e-16
8.709703866e-16
8.601655181e-16
8.471655417e-16
8.293792264e-16
8.374219454e-16
8.355193385e-16
8.394772868e-16
8.302578619e-16
8.414237368e-16
8.444439129e-16
8.328289063e-16
8.390385438e-16
8.280444391e-16
8.244654829e-16
8.198218164e-16
8.424964001e-16
8.324103115e-16
8.44895003e-16
8.231993412e-16
8.235519315e-16
8.875025144e-16
8.602479304e-16
8.331670987e-16
8.193142864e-16
8.14587732e-16
8.11505433e-16
8.412772846e-16
9.003023397e-16
8.167398716e-16
8.408249384e-16
8.156788878e-16
8.468797726e-16
8.590224283e-16
8.215834346e-16
8.120104526e-16
8.20858717e-16
8.240430047e-16
8.480190584e-16
8.178706876e-16
8.285582841e-16
8.196521951e-16
8.49429402e-16
8.120362778e-16
8.633782187e-16
8.527638522e-16
8.186800619e-16
8.253333446e-16
7.90626837e-16
8.204813095e-16
8.458622651e-16
8.057807814e-16
8.142646505e-16
8.018565894e-16
8.078530345e-16
7.874625482e-16
8.000003333e-16
8.014622225e-16
7.822965355e-16
8.511120658e-16
8.520312714e-16
7.816885993e-16
8.488032976e-16
8.423051291e-16
8.031263626e-16
8.421593452e-16
8.003733983e-16
8.534549936e-16
8.345213743e-16
8.287517189e-16
8.122521193e-16
8.528448765e-16
8.471228123e-16
8.305966556e-16
7.910989795e-16
8.121194657e-16
8.015774092e-16
8.526066132e-16
8.503457558e-16
7.9950116e-16
8.298728043e-16
8.119513387e-16
8.427316737e-16
8.242428133e-16
8.092818962e-16
8.264905062e-16
8.389363633e-16
8.676149198e-16
8.409451588e-16
8.232619462e-16
8.275921031e-16
8.281394838e-16
8.802406913e-16
8.626584565e-16
8.478528612e-16
8.497444215e-16
8.21115956e-16
8.562775517e-16
8.339229811e-16
8.143750422e-16
8.432512912e-16
8.47855412e-16
8.319940952e-16
8.368688123e-16
8.310866122e-16
8.289284757e-16
8.239645001e-16
8.211018041e-16
8.227979837e-16
8.191398149e-16
8.293833503e-16
8.443616957e-16
8.630242406e-16
8.334760505e-16
8.586689344e-16
8.040330791e-16
8.101171691e-16
8.057096208e-16
8.319273686e-16
8.319977814e-16
8.279462513e-16
8.463215086e-16
8.424429228e-16
8.065435561e-16
8.0334043e-16
8.515426703e-16
8.342571849e-16
8.382708144e-16
8.646041736e-16
8.188365406e-16
8.083567338e-16
8.364702114e-16
8.343101177e-16
8.772703348e-16
8.10781117e-16
8.171060279e-16
8.352976044e-16
8.660589505e-16
8.472487083e-16
8.491251063e-16
8.047919848e-16
8.403540598e-16
8.295457048e-16
8.197699699e-16
8.30947828e-16
8.066210986e-16
8.164072591e-16
8.248133959e-16
8.146590934e-16
8.834483835e-16
7.934730503e-16
7.92046173e-16
7.861468234e-16
7.648135682e-16
8.043464407e-16
8.048901918e-16
8.346574031e-16
8.603909218e-16
8.020492682e-16
7.866215634e-16
8.078111782e-16
8.275383977e-16
8.142236292e-16
8.076486534e-16
8.189683848e-16
8.664664834e-16
8.185016132e-16
8.395039835e-16
8.071039988e-16
7.897785044e-16
8.086424375e-16
8.316568568e-16
7.879378109e-16
8.313724346e-16
8.21488359e-16
8.208982911e-16
7.978991453e-16
8.051819071e-16
8.145190673e-16
8.08041742e-16
8.303062735e-16
8.080904814e-16
8.098924281e-16
8.087939686e-16
8.527770328e-16
8.266703885e-16
8.476566996e-16
8.07191449e-16
8.376062404e-16
8.407374788e-16
8.142646842e-16
8.112746233e-16
8.381981363e-16
8.085271017e-16
8.54252658e-16
8.42052307e-16
8.383620578e-16
8.678881271e-16
8.692995175e-16
8.456094432e-16
8.418104859e-16
8.06372879e-16
8.362417634e-16
8.555918977e-16
8.461375883e-16
8.339660818e-16
8.03421929e-16
8.383724182e-16
8.23714961e-16
7.966967499e-16
8.504973751e-16
8.305525161e-16
8.40652932e-16
8.593904973e-16
8.709924589e-16
8.416590731e-16
8.48502118e-16
8.62221465e-16
8.493884852e-16
8.05813506e-16
8.289302088e-16
8.314942837e-16
8.215378838e-16
8.365636992e-16
8.457526893e-16
8.415855327e-16
8.192954102e-16
8.517257806e-16
8.641864199e-16
8.290414258e-16
8.339285655e-16
8.41911539e-16
8.255427738e-16
8.350808859e-16
8.104284597e-16
8.105031455e-16
8.531041537e-16
8.019112677e-16
8.405094378e-16
8.329674789e-16
8.042161863e-16
7.916977881e-16
8.193800488e-16
8.471065159e-16
8.483268935e-16
8.077704542e-16
8.36670143e-16
8.209106339e-16
7.902708527e-16
7.949539325e-16
7.818833051e-16
7.860285971e-16
7.971434886e-16
8.152806472e-16
8.217557578e-16
8.143422668e-16
8.034656066e-16
8.668351924e-16
8.294043887e-16
8.037205607e-16
8.761203252e-16
8.046166251e-16
7.859585313e-16
7.90580912e-16
7.929317348e-16
7.928922238e-16
8.025695037e-16
7.914964393e-16
8.441292375e-16
7.986915586e-16
7.988345678e-16
8.325520886e-16
8.30357388e-16
8.16620145e-16
7.977945536e-16
8.1529491e-16
8.534202099e-16
8.28975591e-16
8.129465605e-16
8.066112386e-16
8.268500516e-16
8.152908685e-16
8.530490421e-16
8.49856603e-16
8.202092957e-16
8.513060994e-16
8.130266584e-16
8.167997523e-16
8.194076495e-16
8.424655261e-16
8.572918721e-16
8.701994892e-16
8.669061479e-16
8.2907822e-16
8.106461224e-16
8.249069435e-16
8.442506162e-16
8.340804977e-16
8.395086917e-16
8.369743851e-16
7.991313943e-16
8.199309503e-16
8.351128101e-16
8.736070102e-16
8.326985936e-16
8.2694417e-16
8.139537818e-16
8.118512765e-16
9.091364538e-16
8.338174946e-16
8.317298745e-16
8.18732528e-16
8.079128438e-16
8.298432941e-16
7.971383369e-16
8.101404724e-16
7.846562571e-16
8.208603475e-16
8.186306127e-16
8.235754594e-16
8.174657743e-16
8.443428628e-16
8.159611377e-16
8.413195452e-16
8.701793556e-16
8.674426252e-16
8.089246939e-16
7.973596072e-16
8.322974968e-16
8.213293707e-16
8.397975345e-16
8.482134108e-16
8.427106604e-16
7.900294442e-16
8.195765483e-16
8.248949628e-16
8.559696881e-16
8.172537012e-16
8.314614548e-16
8.171157503e-16
8.202323944e-16
7.789867119e-16
7.952264792e-16
7.857175676e-16
7.633843873e-16
7.761063998e-16
7.983672102e-16
7.740340044e-16
7.956605843e-16
7.535545395e-16
7.743230959e-16
7.490985303e-16
7.53424532e-16
8.287980326e-16
8.342592521e-16
7.837170669e-16
8.340571481e-16
7.948142533e-16
8.022567594e-16
7.953174879e-16
7.763646039e-16
8.013118964e-16
8.250838532e-16
8.273707938e-16
8.119281837e-16
7.858279021e-16
7.952827437e-16
8.157941105e-16
8.20233228e-16
7.994989406e-16
8.462765882e-16
8.790001313e-16
8.276687559e-16
8.290288069e-16
7.885226325e-16
8.291016304e-16
7.909528398e-16
8.39351421e-16
8.285962297e-16
8.106907613e-16
8.212685014e-16
8.644524344e-16
8.380755519e-16
8.204968924e-16
7.990990212e-16
8.232419223e-16
8.064114644e-16
8.147321822e-16
8.105349905e-16
8.281726206e-16
8.332086294e-16
8.305816443e-16
8.359337886e-16
8.315346359e-16
8.734898583e-16
8.085446869e-16
8.400561685e-16
8.626623231e-16
8.341492744e-16
8.384807914e-16
8.22674836e-16
8.327970151e-16
7.985791432e-16
8.367472382e-16
8.259895781e-16
8.250671308e-16
8.036256667e-16
8.339726387e-16
8.23308387e-16
8.51923876e-16
8.271093903e-16
8.310539811e-16
8.118282788e-16
8.116906646e-16
8.164924682e-16
8.623269169e-16
8.291570026e-16
8.332836839e-16
8.238510892e-16
8.148692109e-16
8.430924839e-16
8.478186014e-16
8.576769284e-16
8.414821228e-16
8.21756889e-16
8.384075527e-16
7.999990106e-16
8.517236154e-16
8.323049452e-16
8.218186232e-16
8.232696105e-16
7.957509295e-16
8.326340929e-16
7.961016543e-16
8.263842268e-16
7.954267494e-16
8.155462792e-16
8.606091539e-16
7.434847819e-16
7.995043341e-16
7.619700958e-16
7.764159474e-16
7.583354236e-16
7.673155774e-16
7.974885112e-16
7.799936256e-16
8.009010495e-16
8.988135669e-16
7.910062298e-16
7.906289639e-16
7.974814147e-16
7.875464722e-16
7.756780617e-16
7.691905341e-16
8.182886071e-16
7.8860236e-16
7.899814286e-16
7.811850838e-16
8.001866966e-16
8.200318512e-16
7.944154634e-16
7.977712586e-16
8.145127104e-16
8.511699414e-16
8.154230064e-16
8.044445592e-16
8.252184117e-16
8.157314215e-16
7.907247772e-16
8.256752933e-16
8.031987093e-16
8.227674778e-16
8.151255415e-16
8.570127804e-16
8.080420284e-16
7.993644918e-16
8.437132434e-16
8.678124396e-16
8.418936118e-16
8.385894849e-16
8.196333207e-16
8.193127276e-16
8.019663881e-16
8.64739071e-16
8.256701859e-16
8.729385852e-16
8.452109765e-16
8.323537213e-16
8.389705466e-16
7.919952442e-16
8.536825715e-16
8.046190098e-16
8.28621307e-16
8.090579647e-16
8.348493665e-16
8.180736739e-16
8.340168707e-16
8.459464108e-16
8.398435032e-16
8.576425909e-16
8.059591915e-16
8.353532701e-16
8.262522865e-16
8.402756078e-16
8.31912287e-16
8.282436534e-16
8.446492156e-16
8.418179914e-16
8.258852342e-16
8.280000902e-16
8.09638876e-16
8.19979113e-16
8.440640268e-16
8.253276979e-16
8.40911159e-16
8.523433605e-16
8.198488363e-16
8.373672382e-16
8.123178479e-16
8.225275457e-16
8.319339252e-16
8.240239184e-16
8.291783591e-16
8.512895404e-16
8.043668458e-16
8.008337652e-16
8.152814676e-16
8.186042481e-16
7.88839012e-16
8.06163916e-16
8.011515212e-16
7.878899708e-16
7.826287032e-16
7.31388861e-16
7.9181438e-16
7.62730825e-16
8.019874641e-16
7.837984797e-16
7.770627647e-16
7.684217877e-16
7.894126437e-16
7.725390225e-16
7.909182695e-16
8.147081761e-16
8.030179545e-16
7.75574202e-16
7.979798112e-16
7.618196262e-16
8.315365602e-16
7.773707326e-16
7.5933138e-16
8.161546533e-16
7.956129483e-16
7.803302822e-16
7.8320716e-16
7.939865506e-16
7.990361573e-16
7.834222377e-16
8.084436358e-16
8.025138151e-16
7.901989065e-16
8.050555689e-16
8.366788861e-16
8.176757244e-16
7.827942557e-16
8.297232598e-16
7.997895329e-16
8.052675108e-16
8.141677515e-16
8.120701828e-16
8.109582394e-16
8.16906045e-16
8.072246381e-16
8.008769067e-16
8.033368054e-16
7.930641065e-16
8.100564798e-16
8.101975495e-16
8.220170503e-16
8.101662259e-16
7.905051234e-16
8.371301451e-16
8.399420865e-16
8.429120391e-16
8.118663536e-16
8.324935338e-16
9.237934792e-16
8.03622177e-16
8.367334916e-16
8.168679398e-16
7.957616639e-16
8.348882273e-16
8.545301784e-16
8.116940349e-16
8.301267369e-16
8.228022508e-16
8.218030562e-16
7.854870321e-16
8.226903604e-16
8.020685481e-16
8.164967069e-16
8.065750849e-16
8.126515971e-16
8.199256388e-16
8.497767644e-16
8.479617672e-16
8.129933789e-16
8.218567755e-16
8.392463393e-16
8.161436856e-16
8.458671262e-16
8.305738375e-16
7.999679731e-16
8.547500894e-16
8.025821302e-16
8.301793842e-16
8.074225421e-16
8.412826932e-16
8.182218278e-16
8.262742264e-16
8.215444807e-16
7.999179825e-16
8.098174951e-16
8.142941087e-16
8.411960605e-16
8.384323491e-16
8.217387628e-16
7.81082076e-16
7.19006162e-16
7.585609899e-16
7.513400636e-16
7.702367168e-16
7.659002125e-16
7.38884658e-16
7.501717908e-16
7.816918839e-16
7.678743049e-16
7.607890001e-16
7.881682747e-16
7.627151472e-16
7.737122091e-16
7.511270799e-16
7.934018899e-16
7.617056125e-16
7.354688033e-16
7.775378308e-16
7.976307856e-16
7.818442616e-16
7.696925001e-16
7.726880825e-16
7.81665694e-16
7.969135332e-16
8.015201926e-16
7.740738412e-16
7.954166849e-16
8.144718301e-16
8.014652875e-16
7.987862895e-16
7.911822475e-16
7.956274594e-16
7.919497618e-16
8.016502247e-16
7.950345197e-16
8.014038592e-16
8.040630456e-16
8.096101541e-16
7.804911451e-16
7.984538583e-16
8.309187614e-16
7.809380631e-16
7.889168826e-16
8.211102273e-16
7.954028967e-16
8.009264735e-16
8.194503399e-16
8.697965729e-16
8.436854672e-16
8.07800521e-16
8.106800335e-16
8.033607771e-16
8.144957097e-16
8.380635967e-16
8.149465764e-16
8.420429812e-16
8.068393169e-16
7.882795485e-16
8.554229104e-16
8.047334847e-16
7.871331315e-16
7.880010248e-16
8.005897766e-16
7.848018596e-16
8.292251524e-16
8.480021737e-16
8.033726888e-16
8.510207162e-16
8.142921737e-16
8.190645281e-16
8.065590387e-16
8.663120093e-16
7.979305256e-16
8.044635554e-16
8.098877846e-16
7.974328409e-16
8.113687906e-16
8.901305451e-16
8.076201597e-16
8.236609086e-16
8.532801981e-16
8.160113563e-16
8.068032413e-16
8.427091897e-16
8.210477547e-16
8.06573922e-16
8.255979747e-16
8.099292616e-16
8.136635535e-16
8.014847414e-16
8.070871549e-16
8.029433741e-16
8.04548749e-16
7.899698305e-16
7.730688937e-16
7.238563016e-16
7.423729223e-16
7.298932951e-16
7.816875734e-16
7.31747486e-16
7.493305594e-16
7.570818788e-16
7.520497886e-16
7.437963021e-16
7.611460145e-16
7.532363131e-16
7.580048364e-16
8.190998394e-16
7.828212164e-16
7.824030122e-16
7.70190653e-16
8.256476485e-16
7.874638234e-16
7.658568575e-16
7.620891781e-16
7.773659247e-16
8.433757306e-16
7.968398369e-16
7.75496456e-16
7.790424357e-16
7.916328958e-16
7.537619743e-16
7.794125737e-16
7.997857224e-16
7.754572294e-16
7.724249665e-16
7.788819203e-16
8.182129559e-16
8.016240755e-16
7.770709313e-16
7.693731812e-16
8.43120764e-16
7.988222073e-16
8.450700057e-16
7.94451793e-16
7.84700174e-16
8.097178462e-16
7.66289795e-16
8.001526841e-16
7.753513076e-16
8.538278756e-16
8.141867874e-16
8.12967243e-16
7.768965517e-16
7.920150454e-16
8.059373838e-16
8.082871372e-16
7.785638488e-16
7.752387815e-16
7.873943541e-16
8.420222537e-16
7.883888309e-16
8.091090297e-16
8.038963833e-16
8.048552759e-16
7.817665562e-16
7.835090011e-16
7.900533704e-16
8.328503375e-16
8.310196738e-16
7.954265722e-16
9.381510643e-16
8.201469977e-16
8.071607819e-16
8.016278454e-16
8.292651728e-16
8.12413959e-16
8.26789822e-16
8.391165509e-16
8.264732525e-16
8.693203736e-16
8.036759611e-16
8.716594179e-16
8.248610326e-16
8.323109432e-16
7.9786682e-16
8.587177989e-16
7.989850146e-16
8.210840278e-16
7.867736374e-16
8.105773791e-16
7.846839698e-16
8.148001029e-16
8.098994387e-16
8.226901636e-16
8.317577497e-16
7.767348897e-16
7.852308652e-16
7.886954249e-16
7.958356494e-16
6.965804394e-16
6.924765662e-16
8.026002541e-16
7.444357538e-16
7.405336357e-16
7.589035464e-16
7.770388293e-16
7.498726237e-16
7.679383526e-16
7.433120917e-16
7.709899257e-16
7.513437823e-16
7.477886498e-16
7.242487317e-16
7.584047701e-16
7.460785323e-16
7.448211067e-16
7.634072728e-16
7.539433469e-16
8.02067172e-16
7.860187524e-16
7.79472438e-16
7.545195214e-16
7.962213542e-16
7.954315728e-16
7.760842532e-16
7.626429526e-16
8.020804162e-16
7.819318534e-16
7.686251132e-16
7.71047002e-16
7.782299578e-16
7.529297175e-16
7.679699485e-16
7.796062017e-16
8.301692677e-16
8.26400795e-16
8.316570134e-16
7.717152708e-16
8.238099381e-16
7.622999357e-16
8.408098985e-16
7.796814792e-16
7.752372312e-16
7.878240977e-16
7.804456349e-16
7.68848594e-16
8.124562273e-16
8.045499257e-16
8.219693926e-16
7.917418091e-16
7.8796679e-16
8.031053234e-16
8.113038238e-16
8.051825036e-16
7.912594113e-16
7.772891126e-16
7.865434163e-16
8.041360245e-16
8.022502973e-16
8.495875836e-16
8.269869605e-16
8.011730037e-16
7.83980516e-16
8.091976051e-16
7.798536027e-16
8.272203444e-16
8.148573962e-16
8.09719167e-16
8.037133613e-16
8.389894569e-16
8.545436862e-16
7.905055765e-16
8.181712195e-16
8.708213487e-16
8.029632518e-16
8.034699363e-16
7.957672189e-16
8.313872461e-16
8.214379814e-16
8.059541191e-16
8.535343343e-16
7.878216744e-16
7.85835582e-16
8.200052705e-16
8.082633545e-16
8.126200938e-16
7.975006018e-16
8.119061633e-16
8.075287724e-16
7.954088852e-16
7.880117195e-16
7.753589682e-16
7.896179993e-16
7.778896489e-16
7.061462653e-16
6.967938253e-16
7.61886528e-16
7.214666169e-16
7.194716202e-16
7.098504425e-16
7.352555179e-16
8.300775754e-16
7.598027264e-16
7.384391452e-16
7.599807521e-16
7.761027122e-16
7.525375324e-16
7.372379894e-16
7.407501495e-16
7.388758451e-16
7.442489667e-16
7.865260652e-16
7.680811718e-16
7.528035508e-16
7.427733306e-16
7.521388267e-16
7.498163171e-16
7.657654353e-16
7.402071082e-16
7.342331113e-16
7.544798673e-16
7.883031373e-16
7.677991899e-16
7.709116307e-16
7.748552414e-16
7.785716157e-16
7.820645795e-16
7.704199828e-16
7.865860164e-16
7.928421765e-16
7.908537613e-16
7.66772126e-16
7.922178954e-16
7.594693934e-16
7.505525349e-16
8.163133479e-16
8.068301919e-16
8.006236739e-16
7.806555057e-16
7.888159058e-16
7.812263748e-16
7.994397943e-16
8.068424547e-16
8.100197341e-16
7.981042843e-16
8.04679114e-16
7.763225636e-16
7.851295986e-16
7.849152558e-16
8.135397261e-16
8.010674964e-16
8.416204154e-16
7.833486371e-16
8.002170278e-16
8.096715733e-16
7.899644809e-16
7.964826612e-16
8.162583592e-16
8.219437427e-16
7.924371051e-16
7.795253585e-16
7.925132793e-16
7.943516143e-16
8.126283278e-16
7.759809124e-16
8.175302245e-16
8.301538641e-16
8.094687956e-16
8.26236214e-16
8.240305452e-16
7.908129702e-16
7.759242539e-16
8.055197614e-16
8.190317673e-16
8.204343661e-16
8.001201699e-16
8.285755466e-16
8.053885717e-16
8.313962432e-16
8.013556015e-16
8.033197668e-16
7.976782097e-16
8.0436426e-16
7.832580909e-16
8.462385077e-16
8.112177107e-16
7.943174488e-16
7.803461828e-16
7.90595941e-16
7.336641522e-16
7.304608889e-16
6.933414404e-16
7.147498739e-16
7.081090099e-16
7.575367191e-16
7.815142075e-16
7.600492631e-16
7.241532255e-16
7.490011778e-16
7.820425087e-16
7.526937512e-16
7.529461255e-16