/*--------------------------------*- C++ -*----------------------------------*\
| =========                 |                                                 |
| \\      /  F ield         | OpenFOAM: The Open Source CFD Toolbox           |
|  \\    /   O peration     | Version:  v1706                                 |
|   \\  /    A nd           | Web:      www.OpenFOAM.com                      |
|    \\/     M anipulation  |                                                 |
\*---------------------------------------------------------------------------*/
FoamFile
{
    version     2.0;
    format      ascii;
    class       volScalarField;
    location    "0.04";
    object      dsmcNMean_N2cold;
}
// * * * * * * * * * * * * * * * * * * * * * * * * * * * * * * * * * * * * * //

dimensions      [0 0 0 0 0 0 0];


internalField   nonuniform List<scalar> 
6000
(
47.57775
40.0945
33.904
28.860875
25.80475
48.08225
40.534125
34.290625
29.2415
25.72875
48.784875
40.9995
34.727625
29.606625
25.6885
49.210875
41.60175
35.164875
29.896375
25.563375
49.8365
41.924125
35.402375
29.98025
25.552875
50.34725
42.3425
35.647875
30.135
25.562125
51.080875
43.01125
36.281125
30.62575
25.878625
51.69875
43.431375
36.553125
30.806125
26.04275
52.265
44.031875
37.153875
31.2935
26.3435
52.801
44.551875
37.410125
31.46375
26.523125
53.462
44.912375
37.880375
31.903625
26.88825
54.13025
45.542125
38.279
32.222375
27.125
54.822625
46.0375
38.75725
32.54375
27.368875
55.370625
46.51575
39.156125
32.943625
27.717125
55.9925
47.069625
39.6205
33.25025
28.02
56.809625
47.708875
40.16025
33.801125
28.39625
57.399
48.220375
40.574
34.01175
28.69025
58.016125
48.8065
41.07375
34.639375
29.105375
58.66525
49.3615
41.53
34.923375
29.298
59.437
49.9505
41.991625
35.2765
29.665875
60.035625
50.568125
42.534125
35.716375
30.1595
60.90125
51.18025
43.077625
36.183
30.435625
61.522375
51.7445
43.44275
36.497375
30.674125
62.269
52.30575
43.86875
36.894375
31.085375
63.043125
53.0485
44.6855
37.63325
31.596125
63.747375
53.660375
45.174
37.99
31.895625
64.5465
54.328875
45.75625
38.377
32.28575
65.182875
54.75175
46.09175
38.751875
32.655875
66.107625
55.538875
46.668
39.214
32.95075
66.81975
56.102375
47.18125
39.597375
33.38625
67.684125
56.953375
47.83425
40.21975
33.888
68.3815
57.46025
48.342625
40.747625
34.138125
69.251875
58.358
49.039375
41.29325
34.710375
70.048375
58.915125
49.57925
41.611875
34.99625
70.9225
59.667375
50.15875
42.285625
35.583375
71.71025
60.16575
50.597125
42.516
35.72525
72.567875
60.877375
51.1885
42.998
36.245
73.53175
62.02725
52.2255
43.857125
36.846375
74.294
62.472625
52.587
44.1975
37.184375
75.087125
63.103125
53.000625
44.565
37.521125
76.173125
64.003125
53.891875
45.241125
38.1225
76.9105
64.774
54.323
45.7455
38.36275
77.67825
65.235625
54.98325
46.304125
38.90275
78.874125
66.318125
55.729125
46.848
39.39225
79.797625
67.123375
56.433375
47.436625
39.846875
80.475
67.69225
56.834375
47.835875
40.271
81.577375
68.626
57.659
48.46725
40.782
82.561625
69.388375
58.44475
49.134375
41.278125
83.624875
70.305125
59.1765
49.648125
41.760875
84.522625
71.039
59.677625
50.358375
42.269875
85.53
72.004125
60.525375
50.869625
42.79
86.50925
72.77125
61.21075
51.477625
43.273875
87.658375
73.79475
61.93825
52.132125
43.923125
88.531
74.4925
62.588
52.674
44.3275
89.533625
75.288125
63.291375
53.267
44.772125
90.8295
76.454125
64.33125
54.007625
45.435625
91.76475
77.048
64.842625
54.5335
45.893875
92.84625
78.142625
65.6655
55.1985
46.405625
94.04425
79.03725
66.438625
55.894625
47.0615
95.095375
79.950375
67.25025
56.54675
47.4495
31.4645
32.932125
32.769
32.424
32.146875
31.97525
31.899375
31.923125
31.74825
31.873375
31.8155
31.803125
31.881375
32.145125
32.3455
32.360375
32.365375
32.11675
32.173125
32.165
32.460375
32.4825
32.357375
32.300125
32.355
32.6075
32.697125
32.724125
32.843125
32.60925
32.664875
33.182
33.096875
33.272
33.469375
33.806
33.854125
33.8725
33.751375
34.05375
34.312
34.142375
34.04175
34.27975
34.59575
34.664875
34.732875
34.629125
34.933875
35.136875
35.262125
35.24925
35.54575
35.7305
35.73725
36.333
36.189625
36.424875
36.68275
36.6575
37.00175
37.343
37.482125
37.700875
37.813
37.857
38.212875
38.30275
38.51975
38.616
38.514875
38.52625
39.08225
39.77
39.665375
39.543
39.593125
39.90425
40.135875
40.02925
40.446
40.05825
40.384
40.144625
40.107625
39.927125
39.63625
39.40025
39.074125
38.1335
36.980625
35.932
34.570125
31.980625
27.727
28.27175
31.0815
33.111875
33.94225
34.2145
34.244
33.986875
33.72575
33.47175
33.23025
33.131
33.00575
32.740875
32.827625
32.50325
32.5145
32.53775
32.448375
32.269625
32.219375
32.458625
32.4545
32.232125
32.33525
32.347625
32.408875
32.56375
32.52275
32.579125
32.793375
32.655375
32.75575
32.6665
32.69725
33.03525
33.00225
33.24475
33.16425
33.33175
33.367375
33.386125
33.518375
33.726625
33.797875
34.041125
34.07925
33.957875
34.2625
34.339875
34.49475
34.646375
34.664625
34.920875
35.064625
35.561375
35.765125
35.695375
35.863875
36.014875
36.24175
36.096
36.539375
36.914625
37.11275
37.154625
37.182375
37.422625
37.854
37.762875
37.741
37.99425
38.255875
38.5735
38.6315
38.91225
38.9695
38.947125
39.427375
39.43375
39.43275
39.5885
39.850625
39.606
39.510875
39.337
39.192125
38.824625
38.849
38.439375
37.717625
36.782
35.687125
33.900125
31.51825
27.399625
27.020625
28.829625
30.704
32.34225
33.674
34.579
35.03775
35.121125
35.20925
35.067875
34.956875
34.706125
34.5045
34.282375
34.033875
33.9245
33.829875
33.729875
33.576
33.502
33.334375
33.344125
33.24225
33.00175
32.871875
32.920875
33.009875
33.124125
32.93425
33.10275
33.185375
33.220375
32.966125
33.119375
33.225625
33.346125
33.349625
33.62025
33.456375
33.39175
33.5285
33.654125
33.879125
33.916
33.948875
34.154
34.453625
34.409625
34.324625
34.20825
34.588
34.632625
34.80175
34.865
35.318375
35.504125
35.653375
35.795125
35.858
36.055625
36.15025
36.487125
36.774125
36.858375
36.83875
37.061
37.397625
37.49025
37.657375
37.7305
37.680125
38.020375
38.120375
38.32275
38.546375
38.86
38.973125
39.023
39.524875
39.351125
39.389375
39.702
39.374
39.123125
39.076875
39.034375
38.838
38.59625
38.29325
37.7185
36.667375
35.503625
34.206625
31.728375
28.067
26.323375
27.61675
29.08475
30.55725
32.1265
33.43275
34.484625
35.263375
35.865
36.2565
36.3725
36.261125
36.249625
35.94825
35.855375
35.670875
35.667625
35.501125
35.27625
34.858875
34.746875
34.61225
34.351625
34.198875
34.081
33.971875
33.98775
33.98275
33.85
33.621375
33.978125
33.962125
33.857875
33.67475
33.8565
34.040875
34.029625
34.0545
34.228875
34.19475
34.096875
33.927125
34.0255
34.31525
34.284625
34.3815
34.567375
34.772875
34.6865
34.925375
34.933
34.923375
35.096375
35.09825
35.22125
35.64275
35.701625
35.816
35.95825
36.1505
36.233125
36.503875
36.89075
36.701875
37.0165
37.18875
37.244125
37.628375
38.028125
37.913
37.847625
37.8805
38.23925
38.380375
38.51775
38.444125
38.662875
39.0105
39.305
39.12275
39.426
39.391125
39.377
39.122375
39.191
39.09125
38.921
38.83825
38.450875
37.535875
36.817625
35.95675
34.429375
32.087375
28.990375
26.289625
27.03675
28.114125
29.34125
30.48425
31.95725
33.30125
34.49125
35.545875
36.203375
36.808875
37.139125
37.392625
37.476625
37.603875
37.500875
37.4695
37.2295
37.058625
36.7785
36.727875
36.3275
36.141125
36.052125
35.9045
35.89125
35.56975
35.363125
35.199875
35.174875
35.152625
35.105
35.060875
35.1165
35.136625
35.00575
34.99575
34.90975
35.051625
35.00875
34.912375
34.7615
34.792375
34.770375
34.866625
34.914625
35.32075
35.2835
35.433125
35.4375
35.40225
35.484625
35.527375
35.75125
35.784
35.998625
35.923
36.079
35.971375
36.348
36.318875
36.75625
36.927625
37.07925
37.1735
37.557625
37.546875
37.813125
38.0785
38.18025
38.181
38.2425
38.242125
38.579375
38.50325
38.627375
39.108625
39.124875
39.50225
39.462125
39.494125
39.59675
39.784
39.506375
39.226375
38.95625
39.036
39.027625
38.706
38.19525
37.3015
36.13775
34.823
32.910625
30.15725
26.086
26.75075
27.581875
28.478375
29.5765
30.788
32.099125
33.2655
34.4585
35.634125
36.596625
37.35875
37.951875
38.50375
38.583
38.66475
38.83075
38.90825
38.869125
38.72025
38.6915
38.46225
38.28625
37.99525
37.817875
37.632625
37.2995
37.20225
37.0345
36.874
36.702625
36.686125
36.570125
36.51
36.677375
36.437125
36.147125
36.045375
36.148625
36.10775
36.02875
36.05775
35.962125
35.968
35.99925
35.96575
36.018125
36.1465
36.141
35.998625
36.14825
36.337625
36.216375
36.182125
36.454875
36.67875
36.594875
36.613125
36.728625
36.827125
37.061875
37.362875
37.449125
37.674625
37.807375
37.830875
38.134
38.0845
38.406625
38.605625
38.362125
38.60875
38.478
38.931
38.98025
38.999
39.505625
39.514375
39.83375
39.881875
39.823625
40.104
40.099375
40.0175
39.75775
39.517625
39.59025
39.331625
39.163125
38.556125
37.773625
36.604125
35.453625
33.705625
31.3695
26.320125
26.811375
27.214625
28.0085
28.817375
29.77125
30.910375
32.064625
33.288875
34.532125
35.715875
36.851375
37.713
38.408125
39.161
39.607125
39.95675
40.220125
40.399375
40.498875
40.41525
40.31225
40.183625
40.0905
39.874375
39.625625
39.52475
39.245625
39.184875
39.012375
38.805
38.559125
38.388875
38.178
38.103125
37.8395
37.75125
37.4735
37.738375
37.5625
37.384125
37.391125
37.24925
37.28175
37.237625
37.0865
37.08
37.189375
37.137625
36.915375
37.09875
37.184
37.196875
37.395625
37.541
37.6405
37.6005
37.57525
37.5935
37.616875
37.9015
38.185375
38.226625
38.39275
38.38075
38.45025
38.620375
38.6515
38.848625
38.86725
38.84475
39.17225
39.3935
39.657
39.614625
39.60775
39.75375
40.083125
39.782
40.321
40.56725
40.805625
40.780625
40.6
40.382625
40.17525
39.894375
39.782125
39.308625
39.089875
38.107
37.315625
36.190875
34.55875
32.661125
26.291875
26.8015
27.2815
27.7665
28.451
29.223875
30.077625
31.08575
32.21975
33.316625
34.552
35.7705
37.061
38.199375
38.976625
39.788875
40.5085
40.9405
41.508125
41.700375
41.845
41.989
41.924875
41.951625
41.816875
41.609
41.45725
41.437125
41.045875
40.7975
40.591
40.321
40.212625
40.124625
39.921125
39.711625
39.786
39.76825
39.3145
39.26425
39.287625
39.01125
38.79125
38.591
38.530375
38.67175
38.62425
38.584
38.529875
38.52725
38.6405
38.655
38.5965
38.566125
38.509875
38.551625
38.578375
38.705
38.756625
38.955875
39.056125
39.238125
39.29875
39.396625
39.522375
39.441625
39.483125
39.59725
39.631875
39.7855
39.7425
39.783375
39.875375
40.132875
40.189875
40.152875
40.4235
40.7455
40.447125
40.645625
40.77175
41.140375
40.905375
41.126
41.108
40.832625
40.815875
40.399375
39.886125
39.511875
39.0975
38.33675
37.4815
36.140125
34.41225
26.691875
27.078125
27.41975
27.854875
28.338625
28.95875
29.67225
30.4225
31.325625
32.31625
33.388625
34.519625
35.7215
36.951125
38.076125
39.083
40.017
40.765625
41.420625
42.084375
42.64875
43.160125
43.3185
43.31525
43.472625
43.5575
43.503
43.353625
43.377
43.15525
42.83825
42.668125
42.631625
42.366125
42.26275
41.9645
41.931625
41.734875
41.311625
41.064125
40.97425
40.932375
40.710875
40.59275
40.410125
40.32325
40.2625
40.128875
40.104125
40.121375
40.005125
39.902375
39.976
39.711875
39.66775
39.685875
39.92475
39.843125
39.972375
40.21425
40.1585
40.222125
40.223375
40.406875
40.445
40.33725
40.260875
40.39775
40.419375
40.680625
40.757625
40.736875
41.05025
41.178875
41.21
41.319875
41.38175
41.3675
41.51575
41.54525
41.648
41.878125
41.749875
41.548375
41.70925
41.83375
41.483
41.398625
40.979625
40.407375
40.1955
39.42825
38.60625
37.0635
35.3805
26.913125
27.084
27.436875
27.789875
28.197625
28.720125
29.342125
30.061125
30.80175
31.667
32.591625
33.53725
34.717
35.809
36.869125
38.112375
39.195875
40.3695
41.380125
42.142
42.829625
43.520125
44.184625
44.637375
44.936875
45.05925
45.192375
45.262
45.149625
45.0225
45.007875
44.785875
44.596875
44.578375
44.38675
44.035125
43.711875
43.67575
43.601125
43.438625
43.156625
42.96375
42.703375
42.49675
42.341375
42.147625
42.138875
41.95025
41.92875
41.9635
41.850625
41.64775
41.483375
41.511875
41.675125
41.331875
41.3905
41.35075
41.348375
41.402375
41.432875
41.47675
41.38175
41.442375
41.55825
41.6735
41.9495
41.87475
41.65675
41.791
41.78975
41.855125
41.959875
42.0855
42.043125
42.03025
42.197375
42.392875
42.47525
42.498625
42.46525
42.6495
42.592375
42.7305
42.7905
42.457375
42.244875
42.148125
41.9315
41.464125
40.977625
40.640625
39.56625
38.46025
36.85375
27.20375
27.450375
27.725375
28.033875
28.389
28.735125
29.2195
29.712375
30.293375
30.947
31.630375
32.502
33.476625
34.644875
35.81175
36.952875
38.20575
39.30375
40.581
41.651
42.717875
43.635125
44.211
44.999375
45.683625
46.24025
46.389375
46.655125
46.824875
46.852625
46.84975
46.885
46.720375
46.493375
46.54275
46.538875
46.33675
46.19375
46.054375
45.832
45.507875
45.18175
45.038
44.92225
44.632125
44.308375
44.067125
44.192625
44.153125
43.858625
43.60125
43.326625
43.34725
43.378
43.29175
43.261125
43.077875
43.111125
43.2235
43.070375
43.03225
42.79675
42.890625
42.94225
43.008625
43.0815
42.99
43.334125
43.368
42.821875
43.014125
42.99
43.027625
43.146375
43.347
43.534125
43.658875
43.632625
43.6825
43.6315
43.694125
43.774875
43.8695
43.416125
43.484625
43.37125
43.58375
43.308875
42.97575
42.750875
42.381
41.82475
41.12225
40.0295
38.694125
27.346125
27.663125
27.9345
28.31525
28.588625
28.93925
29.30975
29.6825
30.222125
30.646875
31.3935
32.08325
32.886125
33.83225
34.6955
35.731625
36.925625
38.0695
39.238625
40.458
41.608125
42.788875
43.9215
44.749
45.62225
46.31475
47.12625
47.56475
48.0225
48.339375
48.594
48.642625
48.56925
48.772625
48.57875
48.553625
48.44325
48.349375
48.2125
48.045125
47.837375
47.639625
47.471
47.212625
47.080875
46.922375
46.890375
46.532875
46.260625
46.21425
46.003
45.778375
45.506
45.439625
45.24825
44.957
45.052
44.896625
45.026875
44.759625
44.599125
44.549125
44.469375
44.424
44.596125
44.7
44.581625
44.542
44.555375
44.631
44.5315
44.454375
44.49325
44.615375
44.6175
44.666375
44.6805
45.005
45.032875
45.0105
44.768875
44.856125
44.914125
44.853375
44.81925
44.75675
44.761
44.569125
44.3425
44.074
43.9385
43.196
42.632
41.713625
40.21
27.665
27.873375
28.09475
28.3175
28.665375
28.923375
29.267375
29.717875
30.193125
30.68575
31.175375
31.746125
32.465625
33.2945
34.20325
35.116375
36.151
37.218875
38.368125
39.518625
40.65975
41.933875
43.154125
44.258875
45.364125
46.253625
47.2835
47.97725
48.51825
49.188125
49.699125
50.089
50.429625
50.459375
50.542
50.494625
50.584125
50.460125
50.469875
50.3045
50.1125
50.0055
49.886625
49.840625
49.534875
49.16325
48.743125
48.539
48.458375
48.3715
48.38225
48.168125
47.975625
47.64175
47.516125
47.132875
47.01975
47.018
46.886625
46.87425
46.67075
46.405625
46.607625
46.64375
46.5905
46.4155
46.3525
46.2365
46.071875
46.201625
46.36825
46.178625
46.053875
45.88125
46.182375
46.32425
46.40625
46.1815
46.233
46.514125
46.38475
46.4225
46.3415
46.413375
46.294125
46.180375
46.292875
46.129625
46.025625
45.39125
45.0885
44.746625
44.25475
43.308375
42.376875
27.989625
28.203125
28.401375
28.672
28.911375
29.199
29.529625
29.90975
30.29575
30.661
31.20875
31.748375
32.261375
32.879
33.551
34.400875
35.348125
36.215
37.2955
38.4255
39.6555
40.81825
41.98675
43.175375
44.47175
45.65325
46.815125
47.873625
48.8565
49.580125
50.26325
50.96
51.4475
51.7825
51.969
52.269625
52.524
52.586375
52.38
52.473375
52.3975
52.403125
52.32375
52.178125
51.990625
51.907875
51.752625
51.425
51.005125
50.70875
50.57375
50.4335
50.2145
50.068625
49.870875
49.686
49.530875
49.089125
49.008
48.8065
48.823
48.970125
48.902375
48.72325
48.5915
48.701375
48.569875
48.435375
48.288125
48.09075
48.14425
48.182625
48.046125
47.940125
47.88325
47.995625
48.1885
48.0415
48.035125
48.039125
48.21525
48.202125
48.042125
47.9785
47.86075
47.798625
47.55775
47.45375
47.46425
46.95775
46.761125
46.433375
45.829625
45.254625
44.228875
28.32525
28.522875
28.786875
29.02125
29.238375
29.504625
29.778125
30.111
30.438
30.802875
31.213625
31.56375
32.083625
32.606875
33.18675
33.841125
34.629875
35.4245
36.299625
37.28025
38.43
39.52025
40.777625
41.96125
43.1935
44.306875
45.707375
46.921625
48.049375
49.165
50.183
50.960125
51.76425
52.72825
53.32325
53.675875
53.884875
53.996875
54.4785
54.49425
54.555125
54.48925
54.3905
54.365625
54.5645
54.403625
54.38625
53.975625
53.868
53.618375
53.305875
53.23375
52.887625
52.71925
52.252
52.1915
52.196875
51.91075
51.720375
51.64125
51.4585
51.148
51.158625
50.864375
50.5715
50.53825
50.68075
50.659
50.53275
50.486625
50.456125
50.364875
50.37775
50.290125
50.216125
50.087375
49.90075
49.98075
49.793625
49.684625
49.79875
49.802125
49.928
49.7405
49.60425
49.35075
49.19725
49.292875
49.084875
49.149125
48.514
47.93125
47.5285
46.971
45.965
28.7115
28.806375
29.0965
29.290125
29.59725
29.8455
30.09025
30.3875
30.636
30.999
31.373875
31.78625
32.284375
32.726875
33.27925
33.75275
34.311125
34.986625
35.752875
36.55975
37.3455
38.29075
39.449
40.574125
41.94875
43.22225
44.44625
45.64475
47.058125
48.288625
49.49675
50.722625
51.65
52.459625
53.320125
54.08575
54.681625
55.216125
55.56925
55.95775
56.307
56.4295
56.55475
56.61375
56.54875
56.33975
56.2395
56.382
56.252375
56.07625
55.71075
55.507375
55.376125
55.3025
55.315875
54.875
54.56475
54.617125
54.470875
54.13925
53.92975
53.831
53.509625
53.519125
53.241375
53.1065
53.03475
52.856
52.913
52.74275
52.763
52.647625
52.509
52.48925
52.45825
52.335125
52.01325
51.97325
51.917
51.924
51.905
51.84625
51.668125
51.529625
51.29425
51.110125
50.93525
50.82025
50.798625
50.688125
50.499875
49.9725
49.341375
49.074375
47.990875
29.002125
29.19225
29.43675
29.715875
30.019375
30.243875
30.46875
30.77625
31.01675
31.254125
31.556375
31.848625
32.075375
32.560375
32.905375
33.567625
34.00575
34.65775
35.239375
36.022
36.8855
37.697625
38.7245
39.77775
40.73625
41.865
43.1585
44.4745
45.783625
47.119625
48.30475
49.565125
50.6405
51.745875
52.85875
53.949375
54.992625
55.780125
56.451
56.9775
57.395875
57.976875
58.035375
58.287875
58.5525
58.752625
58.8095
58.63425
58.57
58.5315
58.5115
58.2395
58.315375
58.12675
57.977125
57.99975
57.745875
57.310375
56.945625
56.74825
56.41525
56.169875
56.049
55.777375
55.5955
55.53875
55.4245
55.333125
55.2425
55.179375
55.081625
54.982375
54.9
54.702875
54.52825
54.40725
54.28
54.32325
54.232625
53.937625
53.682
53.818625
53.868875
53.751625
53.7595
53.6195
53.154
52.762875
52.646
52.391
52.33825
52.188375
51.908125
50.978
50.38075
29.4225
29.69925
29.883375
30.066375
30.24825
30.454875
30.695
30.8495
31.143
31.446875
31.74875
32.081875
32.424375
32.70025
33.108
33.510875
33.903125
34.438625
35.02825
35.651375
36.277625
37.032
37.8625
38.645
39.72725
40.745
41.880375
43.203625
44.351875
45.662875
47.005625
48.363375
49.778
51.079
52.344375
53.38675
54.595
55.689625
56.627125
57.52625
58.309875
58.863125
59.59725
59.829125
60.233125
60.20625
60.487
60.83875
60.98075
61.004375
60.9345
60.645875
60.722625
60.603
60.587875
60.497875
60.256375
60.079125
59.83525
59.698125
59.395625
59.274875
59.066375
58.729625
58.83725
58.434
58.389375
58.381
58.168375
57.79675
57.601
57.519875
57.26375
57.05625
56.86325
56.558
56.489375
56.325125
56.463875
56.4
56.254625
55.918875
55.86475
55.867
55.81725
55.57475
55.46775
55.466875
55.212
55.107
54.82175
54.239125
53.871625
53.28675
52.66325
29.57925
29.800625
30.042125
30.234625
30.4345
30.7575
31.016875
31.318875
31.571
31.83025
32.119125
32.317
32.730375
33.174875
33.365375
33.75375
34.145375
34.447625
34.93775
35.383875
36.059125
36.636625
37.326625
38.106875
38.93025
39.88875
40.779625
41.825
43.03075
44.22975
45.639375
46.980875
48.49175
49.800875
51.148125
52.624
53.73725
54.99325
56.209125
57.29125
58.24125
59.111
59.854625
60.725125
61.282625
61.7475
62.120375
62.49825
62.863875
63.184375
63.29075
63.471375
63.27
63.1135
62.90075
62.93575
62.8845
62.7315
62.677625
62.35175
62.212375
61.873625
61.913125
61.806625
61.4175
61.297125
61.0915
60.6855
60.693375
60.744125
60.426875
60.172375
59.9435
59.802125
59.623375
59.606625
59.445625
59.1495
59.019125
58.63325
58.414125
58.414
58.417375
58.236625
58.23625
58.01025
57.89325
57.60575
57.344125
57.220375
56.865375
56.639375
56.358375
55.917375
55.059375
29.96725
30.165375
30.379
30.693875
30.892125
31.245375
31.479
31.72325
32.005625
32.238625
32.492
32.689125
32.964125
33.23325
33.5555
33.880125
34.273
34.675
35.15575
35.5195
35.8995
36.514875
37.01025
37.685875
38.274125
38.993375
39.949625
40.8865
41.766375
42.92725
44.05875
45.392
46.682125
48.157375
49.556625
50.947
52.35525
53.86
55.039625
56.4805
57.6615
58.914125
59.901625
60.93175
61.6825
62.71625
63.3295
63.682875
64.072625
64.575
64.878625
65.155375
65.4255
65.46625
65.530875
65.327625
65.330625
65.3365
65.3345
65.354375
65.1465
65.03875
64.701875
64.3795
64.2945
64.0055
63.86075
63.53225
63.1975
62.973125
62.951625
62.92225
63.055625
62.768625
62.63175
62.370625
62.103
61.94325
61.69
61.74675
61.6825
61.408375
60.98475
60.968625
60.695
60.905125
60.64425
60.458625
60.153
59.8555
59.54625
59.163625
58.95625
58.50775
58.0125
30.424125
30.697375
30.8725
31.145
31.322375
31.57175
31.851375
32.046375
32.26225
32.502125
32.7525
32.965125
33.24125
33.514
33.881
34.2435
34.522375
34.96375
35.33425
35.7995
36.114125
36.663875
37.074
37.561125
38.14
38.7875
39.466125
40.33675
41.18975
42.06475
43.0655
44.126125
45.340125
46.563
48.030375
49.44975
50.885625
52.275375
53.863875
55.254125
56.59975
58.02725
59.209875
60.4675
61.767875
62.62475
63.639625
64.520125
65.09475
65.585625
66.0025
66.507
66.81125
67.1095
67.316625
67.5605
67.6185
67.79
67.90625
68.029375
67.929375
67.730875
67.544625
67.377875
67.1035
66.83325
66.52925
66.461
66.513625
66.385875
66.228125
66.060375
65.58625
65.55325
65.381875
65.201375
65.13825
65.026875
64.795625
64.490125
64.32075
64.355125
64.25375
64.0975
63.8195
63.528375
63.482375
63.154125
62.839
62.453875
62.220875
62.00275
61.682125
61.207
60.734625
30.7545
30.963375
31.2035
31.400125
31.702375
31.902625
32.122375
32.298875
32.606375
32.88575
33.202625
33.514625
33.786125
34.027125
34.324875
34.60075
34.873625
35.18625
35.42275
35.719875
36.15475
36.5225
37.112625
37.508125
38.054
38.5765
39.22675
39.73575
40.500125
41.34175
42.21475
43.151125
44.28175
45.416875
46.670625
47.953375
49.250875
50.7665
52.22425
53.795375
55.3415
56.7705
58.358125
59.6905
60.858625
62.064125
63.277125
64.338375
65.43775
66.4235
67.257
67.738125
68.221125
68.755625
69.205875
69.594
69.9765
69.933875
70.006875
70.393875
70.46875
70.79475
70.553375
70.491
70.197625
70.008875
69.973
69.655875
69.569625
69.423
69.160875
68.974125
69.081125
68.842
68.45225
68.333625
68.131375
67.845125
67.81525
67.652
67.430625
67.065
66.917125
66.605375
66.392375
66.44275
66.244625
66.104875
65.7275
65.70125
65.244875
64.959875
64.37775
64.001875
63.50925
30.881125
31.136625
31.37125
31.566125
31.84575
32.006875
32.294
32.60825
32.84075
33.16475
33.365125
33.646125
33.963375
34.281875
34.539375
34.716625
35.021
35.35325
35.717625
36.022625
36.381625
36.67325
37.03275
37.49
37.90475
38.411875
38.98575
39.6605
40.18425
40.956625
41.69025
42.579125
43.384
44.426375
45.476875
46.75125
47.976875
49.344625
50.742625
52.068625
53.515
55.09675
56.646625
58.268
59.748625
61.33075
62.541125
63.917375
65.140125
66.225875
67.238875
68.465625
69.2285
69.967875
70.563625
71.09825
71.360125
71.909
72.166875
72.424375
72.543375
72.734125
72.944
73.181
73.12225
73.039125
73.008375
72.873
72.534625
72.492375
72.246875
72.21875
71.944625
71.949375
71.74
71.4785
71.22575
71.091375
70.788375
70.60675
70.287
70.07075
69.84325
69.76075
69.548
69.407375
69.375375
68.94925
68.868125
68.64
68.347375
68.036375
67.706375
67.114375
66.62025
31.39775
31.616375
31.8175
32.04975
32.296875
32.566625
32.907
33.1715
33.387125
33.662875
33.894
34.128375
34.361125
34.68625
34.905125
35.24
35.49675
35.766125
35.99625
36.400625
36.7165
37.095375
37.44725
37.772375
38.171
38.642375
39.163125
39.64025
40.1895
40.756875
41.365875
42.022125
42.67825
43.476375
44.443375
45.39625
46.455125
47.60825
48.994625
50.307
51.792375
53.312125
54.867125
56.509625
58.188
59.704125
61.2895
62.8265
64.361875
65.658375
67.0025
68.037125
69.231875
70.14025
71.004875
71.8925
72.47775
72.940625
73.45775
73.800625
74.233625
74.65825
74.873
75.199
75.486
75.62275
75.62525
75.511875
75.4915
75.26
75.137125
74.939875
74.82075
74.774375
74.716875
74.479125
74.18275
74.132625
73.9055
73.691
73.553875
73.416125
73.447875
73.286125
72.87075
72.7855
72.4535
72.300875
72.158625
71.798625
71.4535
71.0525
71.0005
70.604125
70.15
31.95425
32.10725
32.431125
32.592375
32.9345
33.048875
33.22425
33.4075
33.66
33.888375
34.154
34.507375
34.69525
34.98375
35.186875
35.53925
35.88725
36.258375
36.525625
36.76325
37.150375
37.43225
37.823625
38.221125
38.5285
38.8385
39.239
39.73475
40.180875
40.611875
41.14725
41.793125
42.527875
43.140375
43.771625
44.676375
45.62425
46.692125
47.772875
49.058375
50.28075
51.583375
52.9535
54.459875
56.098
57.870375
59.4755
61.09875
62.61225
64.285
65.922875
67.39775
68.725375
70.049
71.098875
71.956625
73.046125
73.973625
74.75625
75.490875
75.90475
76.3995
76.881875
77.147625
77.294375
77.52625
77.55625
77.764625
77.91725
78.2265
78.113625
77.911875
77.787875
77.6865
77.709875
77.62825
77.65475
77.398
77.2015
77.069
77.05875
76.883
76.6335
76.395125
76.28175
75.952
75.691125
75.570875
75.167125
74.9345
74.662625
74.52
74.059875
73.869625
73.33275
32.289625
32.493375
32.756
32.945875
33.182
33.480125
33.77025
33.979
34.204875
34.468375
34.718625
34.9185
35.188125
35.432
35.776875
35.938
36.137625
36.3585
36.661375
37.00325
37.2415
37.540375
37.862875
38.218125
38.586625
39.02975
39.412
39.7515
40.1965
40.728875
41.18425
41.69925
42.356125
43.097625
43.77425
44.49325
45.22825
46.023375
46.822875
47.868875
48.994625
50.350875
51.54975
52.973375
54.37075
55.83975
57.59625
59.32125
61.1335
62.7375
64.269
65.94025
67.64875
69.285625
70.756625
72.092
73.323625
74.392
75.41975
76.25025
77.080375
77.68
78.2865
78.89275
79.36325
79.690125
80.1125
80.453625
80.41225
80.381
80.615375
80.661
80.735
80.797625
80.588
80.611875
80.45475
80.6135
80.46675
80.2625
80.1895
80.0145
79.73275
79.36
79.35675
79.065125
78.885
78.70925
78.69225
78.428125
78.158125
77.819375
77.53025
77.127875
76.962125
32.56825
32.860375
33.10275
33.328125
33.610875
33.830875
34.07025
34.3375
34.543
34.82175
35.117
35.34525
35.585
35.885125
36.049
36.3725
36.632125
36.973
37.22825
37.504375
37.79625
38.1395
38.4405
38.786125
39.129125
39.411875
39.768875
40.15375
40.580625
40.949125
41.391875
41.86
42.233875
42.71825
43.20175
43.879375
44.610875
45.34
46.352375
47.166875
48.076125
49.122375
50.253125
51.47575
52.834625
54.22075
55.69175
57.160625
58.829125
60.529625
62.438125
64.13575
65.818375
67.51175
69.263125
70.89875
72.285
73.719875
74.862875
76.242625
77.208
78.28225
78.986
79.76225
80.4225
80.88375
81.528625
81.802875
82.336875
82.905875
83.12175
83.249375
83.200125
83.249
83.380125
83.57325
83.73975
83.410875
83.483375
83.378375
83.22925
83.207
83.112875
82.93475
82.659625
82.7375
82.654875
82.251375
82.081
81.97775
81.70625
81.5
81.217
80.96725
80.346375
32.904
33.165125
33.374125
33.654875
33.918
34.238125
34.5005
34.6965
34.966375
35.218875
35.494125
35.761375
36.05925
36.369625
36.60525
36.90175
37.25675
37.477875
37.74
38.075625
38.246
38.61375
38.823125
39.129625
39.448625
39.811625
40.16775
40.458125
40.784375
41.193
41.52
41.990375
42.485125
42.958
43.5305
44.01975
44.520875
45.108875
45.669375
46.380875
47.1705
48.179625
49.10175
50.2025
51.405375
52.5115
53.972625
55.4355
57.064
58.798
60.366375
62.06575
63.85975
65.701625
67.464125
69.18525
70.941875
72.608
74.11
75.43425
76.821375
78.16975
79.329875
80.18625
81.16125
82.068875
82.6875
83.538375
83.977375
84.4735
84.827625
85.413375
85.9185
86.089875
86.205875
86.206625
86.16675
86.375875
86.308125
86.495625
86.52525
86.163375
86.250875
86.136875
86.041
85.872125
85.800125
85.884375
85.52625
85.287
85.196125
84.807625
84.6115
84.58875
84.2475
33.2525
33.536375
33.804375
34.05925
34.3225
34.468
34.819625
35.054125
35.297625
35.595375
35.81625
36.1085
36.30975
36.578875
36.825875
37.160875
37.49425
37.82775
38.215125
38.555
38.842875
39.170875
39.446
39.722125
40.025375
40.349875
40.695375
41.094125
41.443375
41.728625
42.053375
42.41
42.844875
43.17175
43.5455
44.081125
44.665875
45.319625
45.855375
46.477
47.302375
47.93175
48.854625
49.790375
50.633
51.731625
52.899375
54.110875
55.44975
56.8495
58.401375
60.105125
61.851125
63.498625
65.238125
67.2145
69.104625
70.99025
72.801875
74.603875
76.123
77.581125
78.8015
80.1595
81.619625
82.628875
83.747875
84.42025
85.16825
85.90575
86.599625
87.033375
87.691125
88.053875
88.4375
88.8025
88.911
88.987375
89.094875
89.15325
89.217875
89.5485
89.509875
89.439625
89.431875
89.375125
89.205875
89.019875
88.95575
88.702375
88.4065
88.589125
88.309125
87.8935
87.615625
33.62325
33.880875
34.103625
34.41825
34.6865
34.928125
35.155375
35.514625
35.78175
36.07825
36.285625
36.597
36.877
37.217125
37.48925
37.781875
38.0445
38.340875
38.618625
38.810875
39.13275
39.367625
39.6265
40.038625
40.305375
40.599625
40.899625
41.115375
41.433125
41.826125
42.20425
42.65675
43.0445
43.48125
43.89225
44.359125
44.685375
45.164125
45.76475
46.3185
46.991625
47.597625
48.132625
48.92275
49.829625
50.812
51.735375
52.881
54.03075
55.2295
56.67725
58.16775
59.753625
61.425
63.2725
64.93275
66.7645
68.593125
70.50575
72.339875
74.190375
76.1265
78.066
79.786875
81.122125
82.570125
83.710875
85.081625
86.120125
87.01075
87.871625
88.697375
89.196625
89.676
90.11675
90.494
90.87875
91.474875
91.799875
91.84275
92.125875
92.342875
92.296875
92.4895
92.366125
92.230625
92.28275
92.25975
92.29625
92.22625
92.069625
91.71275
91.506875
91.438625
91.30525
34.194
34.393875
34.71425
34.878
35.04975
35.31375
35.608875
35.830125
36.13575
36.333875
36.677125
36.9395
37.302625
37.594
37.7145
37.983125
38.303
38.63725
38.8605
39.219875
39.449625
39.806125
40.1265
40.475875
40.76575
41.002125
41.38275
41.700125
42.112375
42.403875
42.7375
43.07175
43.4165
43.759125
44.172375
44.53375
44.993875
45.43125
45.83225
46.3115
46.691875
47.318
47.925875
48.60775
49.27275
50.116125
50.9885