/*--------------------------------*- C++ -*----------------------------------*\
| =========                 |                                                 |
| \\      /  F ield         | OpenFOAM: The Open Source CFD Toolbox           |
|  \\    /   O peration     | Version:  v1706                                 |
|   \\  /    A nd           | Web:      www.OpenFOAM.com                      |
|    \\/     M anipulation  |                                                 |
\*---------------------------------------------------------------------------*/
FoamFile
{
    version     2.0;
    format      ascii;
    class       volScalarField;
    location    "0.04";
    object      Ma_N2cold;
}
// * * * * * * * * * * * * * * * * * * * * * * * * * * * * * * * * * * * * * //

dimensions      [0 0 0 0 0 0 0];


internalField   nonuniform List<scalar> 
6000
(
3.993462994
3.954843217
3.857129946
3.564088646
2.73386493
3.984308972
3.934622536
3.785203404
3.439178516
2.863517209
3.976903938
3.931098858
3.782594759
3.524977424
3.138850307
3.981479291
3.924331697
3.809951683
3.608190946
3.356702931
3.979905991
3.948446485
3.860553118
3.725311546
3.557017657
3.990198156
3.965739643
3.890010148
3.79358909
3.659824696
3.987441799
3.961815222
3.920704703
3.851344025
3.754701002
3.977674312
3.967108611
3.928977364
3.881917128
3.811473656
3.989875917
3.979096571
3.955797811
3.915708062
3.875632654
3.99356919
3.979431627
3.966026575
3.943190703
3.912518389
3.999398
3.987584458
3.968689864
3.958831414
3.943150025
3.991739043
3.986891605
3.977727648
3.961764645
3.947868572
3.98742523
3.985074203
3.980585674
3.979803871
3.971628272
3.991267058
3.996130487
3.986838528
3.981871966
3.965890033
4.002598436
3.996094095
3.992604705
3.99294249
3.990232977
4.001373727
4.001673141
4.0046139
3.999681105
3.996230994
4.004483479
4.00394701
4.003147458
4.001245925
3.99336903
4.006301125
4.007453656
4.001312414
3.997859183
3.998756776
4.007763828
4.00712075
4.00409679
4.005614393
4.001499474
3.998069225
3.998357035
4.004087464
4.001832773
4.003251871
3.998643646
4.001456501
4.007862366
4.006508372
4.001452522
4.006141328
4.006908159
4.00636586
4.006757086
4.010493288
4.004686931
4.005585788
4.008299835
4.00268709
4.003594378
3.99862618
3.994837204
3.998232023
4.005328914
4.000330355
4.004649109
4.006855263
4.002134353
3.996235088
3.998991944
4.001836715
3.996734665
3.998277435
3.99207091
3.997117037
4.003770798
4.006595002
4.001955894
4.003012681
3.99967934
3.997540577
3.998797151
4.001014948
3.997040041
3.994779323
3.992970481
3.996403378
3.999375554
4.004187046
4.004004455
3.997651849
3.998888656
4.002937507
4.003220471
4.002368739
4.00146245
4.002774839
4.002576957
4.000026693
4.001769543
4.001096586
4.001635932
4.000939296
3.998693052
4.003284519
4.004836256
3.999843879
4.000146278
4.001474693
3.994898901
4.003120016
4.002787709
3.996228761
3.993442698
3.997498914
3.997482467
3.999823542
3.998145518
3.999235171
3.997942587
4.003674408
4.000789734
3.996008674
4.00107415
3.99883726
3.996449963
4.000852845
4.003771343
3.997975234
3.998859585
3.99321492
3.996381812
3.995284851
4.000114091
4.002982049
3.995877706
3.998485759
3.996179487
3.998121061
3.993023139
4.001740484
4.00185488
3.999913634
4.001130379
4.0013261
3.992777527
3.998068127
3.999261046
3.99981029
3.998965405
4.001362461
3.993233557
3.993562681
3.996864194
3.997952604
4.002832662
4.007790411
4.002297724
4.002271579
4.000056072
3.996158401
3.997832907
4.000410379
4.00197928
4.002282475
4.004975163
4.002222937
4.001156637
4.001573496
4.004536283
4.005729695
4.003744304
4.010686646
4.008464396
4.00333966
4.01214118
4.010281438
4.003392857
4.006971315
4.006347422
3.995268794
4.000403537
4.000575098
4.000371238
4.004468751
3.996656603
3.998843042
3.996368667
4.002201609
4.000109235
3.998817129
4.001330852
3.999689675
3.9962564
3.996659651
3.998430966
3.999940248
4.002864783
4.004579155
4.000174617
4.002049164
4.001821845
3.996256902
3.99659471
3.996598688
4.004526872
3.99915849
4.000594196
4.002196735
4.001197518
4.000678482
4.001139405
4.001620152
3.999326078
4.001511614
4.00340495
4.007650119
4.007896651
4.006846003
4.004637003
3.999089463
3.998798374
3.997254365
3.997791358
4.00439743
4.005663792
4.00577775
4.004382454
3.999356631
4.00004814
3.999710581
4.002075115
4.005122689
4.001626298
4.003903568
4.001538724
3.999520197
4.001038847
4.002321678
4.002096568
3.998517656
3.999560618
4.000834257
4.001428442
3.999990395
1.756270217
1.518305082
1.379738342
1.267024715
1.183823048
1.110646064
1.051200237
0.9999903488
0.9592862684
0.9217546912
0.8859792689
0.8613448278
0.8346344412
0.8035347637
0.7784505689
0.7574961118
0.7398328089
0.7235995974
0.7057804774
0.6932360726
0.6688620867
0.6572859872
0.6475885896
0.6359246478
0.6230153584
0.6093112251
0.5974448298
0.5879450365
0.5776187506
0.5676103988
0.5593347625
0.5473682537
0.5408045122
0.5340741731
0.526333646
0.5153931594
0.508250262
0.5010173307
0.4998934464
0.4927923792
0.4824209382
0.4795961437
0.475829393
0.4686944866
0.4629090122
0.45898313
0.4565119074
0.4520801712
0.4447157818
0.4427323631
0.4421701811
0.4358183398
0.430978129
0.4283565279
0.4228003722
0.4181521292
0.4143993417
0.411853348
0.4103613036
0.4053446636
0.400438948
0.3944016841
0.3890612681
0.3898692872
0.3860986006
0.3804048527
0.3773854708
0.3717408725
0.3718086345
0.3666996321
0.3656753278
0.3660508948
0.362033866
0.3585177437
0.3581084793
0.3601914771
0.3569986572
0.3525575118
0.3480138685
0.346780132
0.3432245287
0.3495137677
0.3529704679
0.3509453174
0.352626502
0.3596744754
0.3607162382
0.3640410842
0.3751409813
0.3889102752
0.4080577204
0.4383976552
0.470682111
0.532232366
0.6847568948
2.361846056
2.102568109
1.970411944
1.875415858
1.775604105
1.686627918
1.604026207
1.533678258
1.46622671
1.401664773
1.344507901
1.29221907
1.247703139
1.206261945
1.172795176
1.141315119
1.101513628
1.074573862
1.047474708
1.019118485
0.9932076796
0.971829901
0.9490090648
0.9317570202
0.9230048631
0.9039427484
0.8816685326
0.8626552893
0.8467861846
0.8296815995
0.8138872912
0.799348581
0.7910907149
0.7807660624
0.7631700847
0.7510493301
0.7339416002
0.7268050432
0.718469846
0.7098857374
0.7065779449
0.6942668097
0.6822151272
0.6762939166
0.670780507
0.6619683921
0.6587212326
0.6472967197
0.6382351043
0.6297179933
0.6243751546
0.6228251355
0.6127297658
0.6087199913
0.6017285704
0.5930203281
0.5935963054
0.5876388645
0.5789502207
0.5714716632
0.5652804614
0.5595656327
0.5524627068
0.5470669419
0.5393650395
0.5366931827
0.5334848718
0.5316088806
0.5230031243
0.5187197338
0.5232077175
0.5137518568
0.5127733773
0.508689435
0.5081041396
0.5045846678
0.5014407929
0.4950367286
0.4895067224
0.490109134
0.4916982319
0.4898676746
0.487410242
0.4907842033
0.4967564673
0.4969662657
0.5057810186
0.5097283662
0.5181232235
0.5374624852
0.5636410868
0.5926172586
0.6407208705
0.7261969183
0.9402093045
2.791497612
2.519618992
2.346861468
2.243234152
2.152645598
2.071814403
1.996764819
1.93197955
1.857305845
1.792304496
1.7270115
1.669694691
1.621729893
1.566951458
1.521884571
1.468693512
1.425194453
1.388462013
1.353288426
1.321795564
1.286502714
1.256191214
1.228330503
1.206571995
1.177884912
1.151710221
1.130780878
1.106950813
1.088091321
1.064240857
1.045154814
1.026226443
1.011961748
0.9938115883
0.9737380074
0.9547278319
0.9447993681
0.926786704
0.9146427528
0.9056354341
0.8896216468
0.8828235481
0.8806316576
0.8646669209
0.8527819557
0.8450707234
0.8226156134
0.8143919121
0.8117567936
0.8029664665
0.7898514247
0.784386341
0.7760537528
0.7672596732
0.7616645325
0.7521614043
0.7445229103
0.7340618291
0.7239325772
0.7152884301
0.712141138
0.6981159012
0.6877828012
0.6786727994
0.6799188656
0.6771919654
0.6676154246
0.6557234554
0.652775218
0.6507701304
0.6462163472
0.6441000312
0.6410640962
0.63747595
0.6333714321
0.628802187
0.6250687327
0.6215509528
0.6137670726
0.6156151951
0.613972246
0.6037636955
0.6028904616
0.6114922261
0.6113403999
0.6157870153
0.6243899983
0.6341977726
0.6424895592
0.6625811383
0.6893351934
0.7233978462
0.7785634241
0.8788925518
1.084265576
3.112046245
2.867982035
2.680544281
2.547758938
2.43574665
2.363066154
2.294101255
2.236384642
2.161548231
2.110671498
2.046941339
1.995226089
1.931766359
1.88697095
1.836890182
1.782421015
1.731701732
1.68586835
1.640546864
1.606713054
1.568746459
1.52712753
1.49676851
1.467490259
1.430216485
1.396294373
1.369131093
1.342096598
1.319441303
1.301027339
1.263019656
1.240955258
1.219887041
1.20243043
1.176023359
1.155826945
1.140866342
1.127385103
1.109149931
1.089079977
1.0805706
1.06940573
1.052627415
1.035095786
1.021350358
1.004676227
0.9889379934
0.9787191526
0.9720743621
0.9611812276
0.9533755613
0.947449036
0.9308526574
0.9209515414
0.9070026143
0.8906484021
0.8878238147
0.8753682313
0.8678969063
0.8616677953
0.8576129663
0.8397900924
0.8274161306
0.8225148434
0.8135812139
0.8020732567
0.7998035024
0.7917517658
0.7839480351
0.7758431517
0.774500563
0.766330591
0.7597844557
0.7536495773
0.7508482151
0.7468190183
0.7438058048
0.7384114741
0.7339588418
0.7342902953
0.7258166813
0.720422993
0.7147718812
0.7181454454
0.7227515789
0.7306696741
0.7337815509
0.7406094626
0.7547947415
0.7776700068
0.8049329668
0.8445471222
0.8964507734
1.007134219
1.181505101
3.350933155
3.16030451
2.984038007
2.826406054
2.710995818
2.608561864
2.529891102
2.473444286
2.405104218
2.356906918
2.294987425
2.253350431
2.200654083
2.146719933
2.096246477
2.05750662
1.998581084
1.947053548
1.906021675
1.869610499
1.823595453
1.786419393
1.750828549
1.712796165
1.671760105
1.633515785
1.605060891
1.568836498
1.544247245
1.518578488
1.486693711
1.457231899
1.4314592
1.413914177
1.384034097
1.359731448
1.341836872
1.321899986
1.29382865
1.27753349
1.266259934
1.242485244
1.223391665
1.204933889
1.191639323
1.181249618
1.154439872
1.143177819
1.129807264
1.120049561
1.102645198
1.085922442
1.078358522
1.063970467
1.05115629
1.03263564
1.024238697
1.015285469
1.008697825
0.9938901698
0.987647339
0.9694860006
0.9602754291
0.9491057352
0.9425791937
0.9334530493
0.9237030906
0.9159535625
0.9038307998
0.9002344365
0.8970967705
0.8912646467
0.8853840364
0.8731441191
0.8637462096
0.8644281546
0.8560551856
0.8478498545
0.8419136923
0.8380019054
0.8337906722
0.8276019006
0.8289344263
0.8330993234
0.8306404123
0.8405307088
0.846235403
0.8532059982
0.8657042433
0.8879634757
0.9154480575
0.9519267757
1.014497314
1.111112719
1.266211315
3.541729057
3.371365461
3.223073263
3.089377488
2.960925967
2.845475877
2.747572724
2.679130824
2.62342333
2.56006472
2.516569257
2.473513178
2.426790872
2.378253106
2.33700117
2.290413661
2.235982257
2.194764916
2.150209432
2.108166222
2.060411323
2.02460686
1.982757152
1.949475984
1.908893531
1.867925481
1.838699392
1.797364637
1.766563429
1.725791689
1.699973003
1.67335124
1.646078932
1.613833561
1.572063869
1.551185053
1.537393469
1.510683399
1.476208666
1.463366607
1.441438809
1.422513191
1.404215418
1.385391349
1.365076253
1.345290982
1.319424376
1.308146951
1.285432801
1.277182747
1.256223868
1.237708594
1.225064582
1.213376004
1.198295862
1.183412532
1.173868911
1.15464398
1.148491004
1.133260837
1.11355329
1.097750384
1.096898549
1.080777234
1.069311786
1.061912778
1.048861386
1.040149482
1.030818385
1.021460536
1.018805981
1.007685382
0.9975523087
0.9829685259
0.9830098702
0.9752632392
0.9640869359
0.961199981
0.9562080315
0.9465495805
0.9463674968
0.9337428146
0.9323063749
0.9334622986
0.9353036172
0.9477320275
0.9494551068
0.9614708111
0.9729108803
0.9947783259
1.019389892
1.060952828
1.119020294
1.207536511
1.338815879
3.677906851
3.552116091
3.43790125
3.31463489
3.191636165
3.062544244
2.967167463
2.890680034
2.813377646
2.743434786
2.687671628
2.640693597
2.599894277
2.553141557
2.518410082
2.478212692
2.441302842
2.39503038
2.352863136
2.312341745
2.278799603
2.235698112
2.195380772
2.156055131
2.12095835
2.086290164
2.046330537
2.004056177
1.971287931
1.93597415
1.906012157
1.875599313
1.843307733
1.808870483
1.772678884
1.754467198
1.722437901
1.694794949
1.658244218
1.642109969
1.615990092
1.596427193
1.574016811
1.551012505
1.524976591
1.50931307
1.488346598
1.463421047
1.442268952
1.425869721
1.404938198
1.392080678
1.376827002
1.361607201
1.34143127
1.325360739
1.312611186
1.298009493
1.283975945
1.266006947
1.251515907
1.237130896
1.222164549
1.210910355
1.198434192
1.187671472
1.175102249
1.166634464
1.153339926
1.142453637
1.138131626
1.128824033
1.122857069
1.104090644
1.098898925
1.090864526
1.079733796
1.068678891
1.065122808
1.056916118
1.057172658
1.049435668
1.046773106
1.047097128
1.051239922
1.050461984
1.049975605
1.059038359
1.074794556
1.092733036
1.117885835
1.156383571
1.209473911
1.295115833
1.415532583
3.769168489
3.681956892
3.590208359
3.485850941
3.382072982
3.271201485
3.166238951
3.073699885
2.989907367
2.926019459
2.862299442
2.805256398
2.760237666
2.710922092
2.676946463
2.640547994
2.602680519
2.568819011
2.530025687
2.498212279
2.459546084
2.422069086
2.389871824
2.352906563
2.305471739
2.279531971
2.237431768
2.199523811
2.164540145
2.130255598
2.102075979
2.072711972
2.03577004
1.993428916
1.969259044
1.944331859
1.902565281
1.870373435
1.8505657
1.823776498
1.785557823
1.762988595
1.7456351
1.71954351
1.700524246
1.67718964
1.652541068
1.634223364
1.605301867
1.58991852
1.567790337
1.547261169
1.530833555
1.517812925
1.496971586
1.479284012
1.459956261
1.447540696
1.428918374
1.406428513
1.387502086
1.372903565
1.361955193
1.343857519
1.327597379
1.319888559
1.306040398
1.288123968
1.275950861
1.265416379
1.262902468
1.250489938
1.236014173
1.214763562
1.206712826
1.199610204
1.185206736
1.172229923
1.174896509
1.161804816
1.156888479
1.147106628
1.154583559
1.15458713
1.152900877
1.155384018
1.156448241
1.160047078
1.177084027
1.186369115
1.214574139
1.246163182
1.294215708
1.379599054
1.487075507
3.829213107
3.767166023
3.709549179
3.621100245
3.540919554
3.447268012
3.343417389
3.258714563
3.168960239
3.10115787
3.024342158
2.964809984
2.899697472
2.848523711
2.817594562
2.779682202
2.742690827
2.709160995
2.679971945
2.645583033
2.619620943
2.579718548
2.549094145
2.522023395
2.485521755
2.44676798
2.411777575
2.379065221
2.34734693
2.315506485
2.287692577
2.256929013
2.217474602
2.18690334
2.146270732
2.123638392
2.088208746
2.054202588
2.030163156
1.997541302
1.967562077
1.94078523
1.922913368
1.891112453
1.867650373
1.84325546
1.818605256
1.792535308
1.768462857
1.740271224
1.718334574
1.701963791
1.676449738
1.658397237
1.632661967
1.621108764
1.601104644
1.587033522
1.565833533
1.541204179
1.526179757
1.510596232
1.495898752
1.475572774
1.455218003
1.444617182
1.431921712
1.41173626
1.406370185
1.390922679
1.380294383
1.373145901
1.351145953
1.333229512
1.326217059
1.316332016
1.30223529
1.292286071
1.284621643
1.277850354
1.270742052
1.259199173
1.262482756
1.25853246
1.255765022
1.257294165
1.262556591
1.260767204
1.270715645
1.28652183
1.311164176
1.344434845
1.38658455
1.460210964
1.559356978
3.880067709
3.83233125
3.783277741
3.733914278
3.669055545
3.592458821
3.501677372
3.419022021
3.348841816
3.264112409
3.19811974
3.135882893
3.054213786
2.990543754
2.957221313
2.905091351
2.875557709
2.842120281
2.804877171
2.776373378
2.749215778
2.715197813
2.688747523
2.659546428
2.632198506
2.600225534
2.568293418
2.542343754
2.504573971
2.476107369
2.450693841
2.416382357
2.384229558
2.351211109
2.321148304
2.290741278
2.261975962
2.228552885
2.197363789
2.167549034
2.14091906
2.115521439
2.089943475
2.061635795
2.038521055
2.006148176
1.982829742
1.958575208
1.923803676
1.898653676
1.876630178
1.859708625
1.833541038
1.814670805
1.782977056
1.771997356
1.739708531
1.720217379
1.698163752
1.679981343
1.661786108
1.642190741
1.627836261
1.605450567
1.588852755
1.573312291
1.559551442
1.54470822
1.532902071
1.520864776
1.504938569
1.488322
1.468648995
1.453101271
1.449004187
1.43531613
1.421423134
1.402405506
1.39330829
1.3881953
1.380756763
1.368107944
1.367646346
1.363878879
1.35617703
1.364723908
1.358248623
1.364270548
1.374206264
1.388828815
1.408984317
1.432572028
1.4782966
1.539993251
1.627698404
3.916265487
3.891214418
3.853336405
3.807828878
3.757073143
3.701364816
3.629997664
3.554048854
3.484987563
3.419744808
3.35639997
3.282672964
3.220848613
3.141839561
3.091211952
3.0388317
2.999772137
2.960264151
2.914798827
2.893240179
2.858155546
2.826095678
2.80879656
2.78279592
2.748838416
2.72252011
2.700431767
2.678829813
2.648088079
2.624552978
2.584207994
2.558443065
2.537641415
2.503355637
2.48203069
2.446079045
2.417204318
2.384859532
2.351444503
2.32843882
2.305770233
2.274147804
2.243285556
2.211719547
2.184749226
2.161608949
2.138691414
2.103815801
2.076635447
2.048919306
2.025358247
2.006510717
1.978406106
1.950831728
1.932019864
1.913745462
1.888533636
1.86587702
1.837185091
1.819174786
1.803481672
1.784740878
1.759853291
1.740582071
1.724509446
1.704370936
1.689963018
1.667910586
1.65308442
1.643725316
1.614088658
1.606530485
1.592151649
1.57776424
1.565812293
1.551089225
1.539320747
1.524914642
1.512864437
1.503024212
1.490885563
1.480277359
1.469495931
1.473824545
1.462631104
1.46255276
1.456753562
1.463823086
1.473768678
1.485862342
1.503280177
1.525864184
1.563806225
1.619665906
1.697463748
3.951559782
3.926360002
3.895999489
3.855955155
3.815195085
3.764667733
3.733228269
3.676221699
3.615556807
3.560097272
3.496075187
3.426741273
3.358628958
3.287162111
3.230534093
3.178393229
3.124237166
3.079394621
3.037349662
2.999160474
2.964136145
2.934661996
2.903268698
2.882695281
2.8502734
2.829026456
2.800802094
2.787324768
2.764216243
2.740334394
2.713707754
2.688802554
2.671578662
2.636835108
2.614626733
2.588226003
2.560079299
2.529213461
2.501322994
2.468864918
2.455993785
2.423261639
2.389972627
2.357658759
2.336527763
2.309884192
2.279213
2.258003994
2.233465391
2.206433448
2.175020602
2.150493437
2.127052575
2.094703972
2.071630142
2.060490311
2.027228528
2.005883841
1.980165416
1.962891394
1.944744176
1.923001923
1.902991361
1.878717866
1.849642129
1.828168862
1.812776483
1.790966347
1.776452249
1.761416833
1.744338655
1.726954082
1.712414885
1.701851911
1.686092282
1.667365483
1.651673594
1.640666279
1.624783297
1.612140751
1.605219269
1.589635174
1.581652089
1.580478107
1.575500667
1.573536672
1.564334517
1.566365661
1.56563629
1.583898008
1.596340242
1.618562741
1.645974081
1.691022106
1.768489186
3.962223256
3.943012524
3.935322832
3.90508163
3.874861168
3.849340286
3.80834673
3.761476538
3.724642138
3.663901751
3.62034187
3.560577022
3.499196941
3.431372703
3.362539676
3.306945628
3.255708074
3.194610784
3.147185866
3.105977824
3.07277075
3.037628777
3.006346162
2.978723947
2.958696073
2.926607708
2.903118518
2.878980692
2.862878777
2.845415465
2.821881402
2.801236197
2.781357501
2.759509375
2.737254763
2.710318724
2.680769524
2.663302766
2.635759475
2.609795514
2.586428755
2.56268261
2.533418233
2.499622703
2.478090051
2.450048744
2.419608962
2.394319062
2.376767337
2.34754846
2.323380766
2.300255086
2.272421131
2.245420105
2.214831427
2.196566646
2.167274514
2.144158876
2.120572257
2.09569689
2.084048751
2.064270009
2.03713349
2.010342235
1.984179786
1.960496992
1.943767568
1.921877182
1.907451607
1.886740551
1.866459081
1.849294784
1.83406771
1.825573552
1.800241156
1.785940977
1.760745465
1.752673599
1.74136292
1.723104608
1.717785271
1.701556996
1.691528245
1.687709931
1.683748123
1.680143224
1.678160073
1.676636038
1.669685498
1.686162565
1.691485481
1.707578234
1.731511585
1.771518364
1.832845299
3.968438121
3.956509135
3.953772317
3.943566939
3.920624967
3.896930816
3.864552419
3.823428273
3.790158056
3.757269064
3.706805439
3.659214971
3.610225515
3.55690715
3.492894498
3.441539385
3.380012162
3.331651728
3.272863084
3.221464584
3.181147523
3.14816588
3.107443821
3.079626994
3.046214464
3.022704579
2.99233339
2.963990152
2.942256037
2.92733435
2.910973564
2.892290976
2.873475445
2.847835816
2.837578706
2.818112049
2.791848192
2.770742623
2.751764366
2.728182084
2.706887746
2.684683539
2.655925593
2.628090809
2.604160186
2.579241769
2.56095182
2.529162892
2.505566516
2.486411454
2.460779393
2.433794348
2.409057873
2.384339923
2.358427693
2.338348071
2.302894321
2.280598405
2.254477443
2.229072896
2.210824513
2.191776762
2.160768597
2.143481876
2.123950484
2.097466422
2.078319713
2.053328654
2.031418655
2.017592958
1.993326539
1.974055264
1.963380938
1.943209356
1.924194072
1.902898824
1.879628288
1.871016019
1.860247103
1.843931358
1.822553359
1.812810051
1.805864659
1.794576278
1.791167063
1.786365722
1.785308252
1.777179903
1.772565546
1.780722066
1.783431329
1.804444098
1.824259995
1.858350977
1.905509636
3.981554499
3.978028441
3.970096934
3.956643123
3.952556733
3.936810816
3.906883536
3.89021561
3.858187189
3.813853352
3.78064767
3.750491252
3.701621587
3.653911949
3.613183396
3.558534387
3.504688294
3.452249785
3.407985429
3.351505141
3.298392812
3.254609126
3.202059778
3.171115534
3.136900705
3.106099127
3.078831117
3.054108147
3.030950966
3.006376679
2.98715934
2.966346645
2.955263452
2.933743216
2.916986346
2.907203859
2.888999137
2.873721512
2.850859635
2.835522605
2.812165244
2.792151278
2.772986926
2.747045369
2.723416544
2.701041799
2.68021774
2.662538556
2.634043122
2.606451792
2.587027295
2.561071399
2.541352286
2.515514039
2.496421869
2.471353921
2.438082699
2.420450502
2.391708992
2.36690515
2.346516157
2.320838757
2.294487631
2.27368572
2.257462178
2.227070724
2.201439075
2.183086705
2.159680041
2.142751288
2.120529024
2.098147784
2.081337912
2.069353188
2.044230514
2.023633183
2.013342501
1.993189361
1.980272782
1.961719086
1.943197032
1.930003473
1.914310128
1.902046813
1.89440592
1.887611989
1.887121734
1.877119068
1.879793298
1.869996525
1.88710739
1.900899335
1.910802084
1.937476793
1.988081461
3.996937147
3.990520201
3.98311939
3.969602232
3.951089405
3.943628501
3.936471572
3.906941414
3.89175834
3.876485795
3.848448037
3.820992503
3.791185248
3.747943608
3.71094949
3.664324202
3.61978542
3.561866641
3.503283743
3.462006606
3.414057316
3.366955996
3.319426427
3.275026336
3.238620984
3.202098096
3.17094368
3.143496439
3.11112151
3.088032007
3.068854738
3.045524091
3.031977505
3.014310019
2.994915613
2.980084727
2.96281014
2.951284941
2.930735788
2.911887342
2.891460783
2.87838594
2.861736518
2.840046955
2.822105806
2.8067904
2.786087671
2.763888575
2.741668668
2.718240165
2.706040056
2.687445124
2.655959875
2.635384446
2.607420567
2.58573946
2.564757956
2.541735871
2.514973906
2.49711249
2.474548871
2.444205776
2.43022112
2.402655206
2.377911684
2.359423831
2.33169059
2.305131854
2.285695779
2.267816173
2.247252003
2.219836422
2.201645611
2.185405211
2.166273593
2.145389925
2.132036516
2.110868798
2.092661263
2.0777785
2.057886265
2.043265534
2.026797634
2.007320279
2.001721837
1.991913572
1.983236104
1.983291083
1.975280775
1.970316746
1.97420156
1.986004685
1.998500345
2.015904848
2.065988802
3.996511346
3.995714925
3.988074004
3.983244863
3.977588565
3.965440304
3.951913014
3.944135546
3.931484149
3.900985813
3.895774117
3.871816979
3.843087936
3.809079707
3.78264476
3.741797803
3.704571874
3.660183687
3.626827106
3.583758424
3.529949707
3.487441922
3.437574463
3.391015608
3.341661386
3.301477547
3.258919437
3.226544148
3.195657066
3.164214897
3.142160079
3.1196119
3.096862352
3.088238248
3.07316252
3.050022041
3.031843788
3.02306836
3.006440113
2.988711879
2.976363519
2.956115964
2.947534836
2.933317988
2.913201362
2.898178449
2.878609875
2.862388565
2.841113809
2.821370176
2.80802754
2.792560485
2.771509989
2.746871284
2.720995074
2.695182833
2.672560688
2.652981635
2.626399278
2.606861749
2.589794159
2.561879928
2.541338652
2.520008631
2.499399682
2.47751073
2.457664169
2.434388453
2.40878659
2.383295878
2.362349964
2.34203066
2.318749881
2.299778048
2.28649636
2.272427796
2.253285051
2.23207266
2.205542158
2.191613417
2.176965157
2.15587502
2.135856134
2.125349958
2.112444324
2.09952371
2.095456854
2.090110795
2.079316197
2.08110511
2.074705
2.080154124
2.08803408
2.110819178
2.142110715
3.992671627
3.986646441
3.993912064
3.986169067
3.987838498
3.976585335
3.969235736
3.966684571
3.94549243
3.934119944
3.920032106
3.908892529
3.888868262
3.86826093
3.845613153
3.812136583
3.78795126
3.745848883
3.710159338
3.67290435
3.627587418
3.578055742
3.535839519
3.503368985
3.449826846
3.415578421
3.366551787
3.326338579
3.290427888
3.25693349
3.227634026
3.195532181
3.174409256
3.152538659
3.132760767
3.114744132
3.098951064
3.086927726
3.072046796
3.057561578
3.047597326
3.032317731
3.016356289
3.001764394
2.985402994
2.98002403
2.966546397
2.945876535
2.930499698
2.9090461
2.894200324
2.875968758
2.862496133
2.844638782
2.827070763
2.801240421
2.778317585
2.75871816
2.742643588
2.715126706
2.701197194
2.675379727
2.656156028
2.642972466
2.612228724
2.592592214
2.570743113
2.544812525
2.520798949
2.502618845
2.482462381
2.457853246
2.436849285
2.417780944
2.399654682
2.380566689
2.359121768
2.33927138
2.318007783
2.304094224
2.29342714
2.264565887
2.2497316
2.238020873
2.220180379
2.210712749
2.200753109
2.192072098
2.187437767
2.174637688
2.172357581
2.174832692
2.177237129
2.190175122
2.22232989
4.008687352
4.003186959
3.99401005
3.990165149
3.990646734
3.987645103
3.969610651
3.973197204
3.963354599
3.966541823
3.949340865
3.935234861
3.918494792
3.895599051
3.889571761
3.869267411
3.840105666
3.811934868
3.777336416
3.751276958
3.715900417
3.675905784
3.634553818
3.593002069
3.560994596
3.507857804
3.463801972
3.429298921
3.387483669
3.339550063
3.309476823
3.278187129
3.244267862
3.218680907
3.201155497
3.177427199
3.162832991
3.147303548
3.12945704
3.11310663
3.100058835
3.090380568
3.083034225
3.065642622
3.054669605
3.041041389
3.03184387
3.020506842
3.002307057
2.988871321
2.978185718
2.95546724
2.944192111
2.929132041
2.912842303
2.895921569
2.878165001
2.861335088
2.835966937
2.814674936
2.792641923
2.780143951
2.756871025
2.737487199
2.720501566
2.696579289
2.677559806
2.660124168
2.635697448
2.618343238
2.59609545
2.570899297
2.552888592
2.529182121
2.512136489
2.491388905
2.472211218
2.452668059
2.432230925
2.417571435
2.396351127
2.382866851
2.36423175
2.348145998
2.328869456
2.31478438
2.301492054
2.289712894
2.281918574
2.268943993
2.269682468
2.273373836
2.270269756
2.282421681
2.305297066
3.996845524
3.995865565
3.997154848
3.996318012
3.997166746
3.980821723
3.981658289
3.974320733
3.96721094
3.962759933
3.964405425
3.958726225
3.948474844
3.94141891
3.920072241
3.909281166
3.883258808
3.86157841
3.832360036
3.818547504
3.787046537
3.749719131
3.719416371
3.682648963
3.650412467
3.613400626
3.562377365
3.523372594
3.48794646
3.450267902
3.41558353
3.373730583
3.335608437
3.299516603
3.266273848
3.252940502
3.22528979
3.20359293
3.187381786
3.169947151
3.159489161
3.147148815
3.130598755
3.120400753
3.110560685
3.095969291
3.087357217
3.083143933
3.068152827
3.048784918
3.033474569
3.031002267
3.016610319
3.004703023
2.987438765
2.981546892
2.965307526
2.95030752
2.926028995
2.905709473
2.893425409
2.865212226
2.846786576
2.831186607
2.816593182
2.796329643
2.779158739
2.756699497
2.741228311
2.720125306
2.692773529
2.676160381
2.653253782
2.634553807
2.619512234
2.59873298
2.578092157
2.559366435
2.545012167
2.522302835
2.505398407
2.489945174
2.478155285
2.454911672
2.442630384
2.419148911
2.402683968
2.394164059
2.387992248
2.373396407
2.370339245
2.368512788
2.365207471
2.368724997
2.380989742
4.005283956
4.003835623
3.995459325
3.99960187
3.997862752
3.996796334
3.992443198
3.983951234
3.980380897
3.971516035
3.971059029
3.972813215
3.96744582
3.950704727
3.940405483
3.928704669
3.921905524
3.906717996
3.890301053
3.87257834
3.856546998
3.825360271
3.798721973
3.774931093
3.738649301
3.70359657
3.6678009
3.624304646
3.587181038
3.551427805
3.505576328
3.46670756
3.430559931
3.392145299
3.357505129
3.323497565
3.30030831
3.271806175
3.247966182
3.227171287
3.207846782
3.194387247
3.183454962
3.168692277
3.151044957
3.14599954
3.134134683
3.122537843
3.120105516
3.109633663
3.096776806
3.085475861
3.074051482
3.066719993
3.055589805
3.046097988
3.034908117
3.02269598
2.998586718
2.984179166
2.968922761
2.955705651
2.938383154
2.916456664
2.904837849
2.893223117
2.879766966
2.8634155
2.840659416
2.816326759
2.801046448
2.777171846
2.758589857
2.737352316
2.724436169
2.702345101
2.684069125
2.667648281
2.64931931
2.62958688
2.610370409
2.596470374
2.582171221
2.563961372
2.544601935
2.530671136
2.505680186
2.493924471
2.487102176
2.475676517
2.467908163
2.465374993
2.460773784
2.463589553
2.473250663
4.013090608
4.008126101
4.007925609
4.004848729
4.002860361
3.999612293
3.999135049
4.003678168
4.002201399
3.998804804
3.990312219
3.97582474
3.977621244
3.973732359
3.965945158
3.953913224
3.942678029
3.930431561
3.922821186
3.902880661
3.888810326
3.869497706
3.852435369
3.825341169
3.805540622
3.774630664
3.733932684
3.715505087
3.676256369
3.631285321
3.597551807
3.567844658
3.526836067
3.481261426
3.445080866
3.409131998
3.374713791
3.346382768
3.321697572
3.2950399
3.27053859
3.250897672
3.227734379
3.216453329
3.206233831
3.192350838
3.178565418
3.170191858
3.163789779
3.152409352
3.140241111
3.140890439
3.131277799
3.122382234
3.111639863
3.101216847
3.087211702
3.080538034
3.069251631
3.052755578
3.039746466
3.028199968
3.012465008
2.999946343
2.986477182
2.974008886
2.953038845
2.941464439
2.921895273
2.907669981
2.891401919
2.874820013
2.85265195
2.827943871
2.823893267
2.796931719
2.783055637
2.7675073
2.74498847
2.72583189
2.708963012
2.69268874
2.671721766
2.657998139
2.645347138
2.624886488
2.60782805
2.59441284
2.583641101
2.569470672
2.566606945
2.559254572
2.554499107
2.555015821
2.55699926
4.00243661
4.001012308
4.007578374
4.001194302
4.001160351
4.005235913
4.002197264
3.997829915
3.995261475
3.986220751
3.990523543
3.991527439
3.976770858
3.972719633
3.970499959
3.96798922
3.964814148
3.953318731
3.946329895
3.932268492
3.920973663
3.913152125
3.896635127
3.870386066
3.853627611
3.829961666
3.809873527
3.775683364
3.754382898
3.722437594
3.68318599
3.649310404
3.613827945
3.57887086