/*--------------------------------*- C++ -*----------------------------------*\
| =========                 |                                                 |
| \\      /  F ield         | OpenFOAM: The Open Source CFD Toolbox           |
|  \\    /   O peration     | Version:  v1706                                 |
|   \\  /    A nd           | Web:      www.OpenFOAM.com                      |
|    \\/     M anipulation  |                                                 |
\*---------------------------------------------------------------------------*/
FoamFile
{
    version     2.0;
    format      ascii;
    class       volScalarField;
    location    "0.04";
    object      mctTimeStepRatio_N2cold;
}
// * * * * * * * * * * * * * * * * * * * * * * * * * * * * * * * * * * * * * //

dimensions      [0 0 0 0 0 0 0];


internalField   nonuniform List<scalar> 
6000
(
6.937197452
6.894716062
6.78274109
6.483838004
5.513598295
6.939055453
6.886240681
6.733988713
6.383804837
5.691399504
6.916048656
6.884268782
6.722055366
6.441236806
5.966817445
6.940391733
6.861668271
6.741487701
6.51751157
6.22574465
6.935169263
6.90531632
6.809688571
6.661744287
6.451344247
6.952256632
6.934135731
6.868654187
6.761182799
6.602872872
6.930996025
6.90409917
6.8520263
6.77526856
6.669441363
6.923365231
6.919981055
6.884861296
6.835045944
6.745891761
6.934816175
6.914146323
6.873806379
6.830835516
6.794159219
6.948739091
6.915901274
6.91565727
6.897157981
6.857181103
6.949952434
6.946238391
6.909929272
6.892717899
6.867777004
6.941700489
6.934799493
6.929777794
6.909783227
6.892582444
6.930488453
6.938660713
6.929328883
6.938074216
6.931297325
6.947516083
6.957719534
6.942787623
6.935173039
6.918304678
6.957345927
6.954441521
6.94583988
6.961519911
6.94459502
6.939678119
6.948905271
6.941874435
6.931736415
6.935363887
6.950136283
6.955769659
6.952126612
6.972509055
6.943302742
6.957626725
6.956760533
6.94696224
6.923524927
6.930496502
6.962524374
6.956132357
6.950438297
6.95268416
6.965908357
6.946111453
6.954041917
6.958498733
6.963175861
6.962770502
6.959577946
6.949924838
6.952232705
6.96079171
6.929600692
6.948585565
6.951539867
6.944977358
6.954597234
6.955515901
6.957842837
6.958032529
6.969611207
6.972233008
6.975871722
6.950606769
6.955498478
6.977490388
6.981781436
6.964366432
6.951181907
6.948086568
6.93351186
6.91884004
6.933165191
6.955940606
6.944794506
6.937288627
6.93179415
6.945822042
6.950016692
6.945900494
6.931575757
6.950574838
6.94501318
6.958400784
6.967557208
6.960832858
6.959938624
6.942230956
6.939384072
6.947948948
6.954348938
6.964578781
6.97027335
6.950373867
6.961903586
6.963286821
6.977165978
6.958941412
6.94521699
6.940867499
6.949288198
6.947694591
6.934027428
6.953357367
6.958763988
6.95595357
6.938008904
6.968266343
6.952161471
6.934379677
6.939218376
6.931109211
6.928572617
6.952570099
6.951254415
6.940722849
6.951741804
6.953861041
6.944167823
6.941417318
6.943686648
6.926790743
6.921705919
6.953140003
6.968385884
6.964689904
6.972075399
6.975945559
6.948771254
6.968402941
6.96940215
6.971591193
6.955595434
6.936174678
6.915727542
6.906265103
6.921363458
6.929837635
6.947200794
6.949489134
6.941190265
6.944965749
6.936179936
6.959011452
6.962336479
6.969628033
6.971161715
6.964145189
6.935680452
6.944858155
6.935300786
6.948019881
6.93359885
6.95430115
6.937403868
6.957174494
6.9490731
6.967146678
6.965772353
6.978665684
6.959622172
6.948965468
6.954602442
6.940125104
6.940314915
6.947199693
6.951189035
6.95121389
6.94800299
6.944846817
6.942982818
6.945481129
6.954795774
6.968151795
6.964242387
6.979996109
6.97214967
6.961357319
6.962967226
6.957490086
6.959920075
6.96405963
6.959123513
6.948080367
6.955967794
6.943868062
6.945299901
6.954321678
6.941637306
6.943702721
6.937088288
6.956342573
6.952961382
6.949084347
6.955612254
6.96029048
6.933929573
6.946643183
6.949946444
6.941805015
6.947662951
6.953018021
6.947555407
6.956089033
6.952421549
6.946459341
6.944795983
6.946840581
6.94583373
6.935039566
6.949245231
6.944513228
6.929965067
6.954229738
6.952064383
6.958159929
6.950771603
6.946968357
6.961943443
6.963196333
6.965067064
6.957985482
6.959685809
6.941826968
6.93452406
6.92885001
6.94086382
6.942707696
6.957014224
6.968322465
6.962074499
6.957224021
6.952240506
6.951792966
6.947025101
6.954447271
6.953791053
6.956959378
6.946614526
6.949010424
6.952256898
6.950837843
6.941724812
6.949544235
6.951217268
6.950042454
6.950427685
6.963390759
4.078996367
3.869741439
3.902744186
3.96556211
4.032798109
4.08675634
4.131340705
4.170160711
4.236877936
4.266772658
4.31956942
4.365237664
4.402352128
4.410526221
4.430846873
4.473137931
4.521345231
4.601774559
4.636844529
4.681873915
4.684158152
4.728161698
4.789993081
4.840601588
4.879916996
4.889001594
4.923936355
4.96148453
4.98499897
5.059733634
5.095703125
5.066638972
5.114453131
5.144842783
5.15386218
5.150542231
5.189457638
5.233952421
5.294621499
5.294130583
5.299875992
5.368399244
5.420508998
5.427419609
5.433178872
5.460179351
5.497858972
5.5541325
5.550026771
5.567156096
5.600866269
5.642869405
5.641466243
5.662105161
5.706976127
5.65470258
5.722577667
5.736893461
5.743865996
5.781601598
5.7749549
5.771207987
5.793595548
5.80548049
5.832032087
5.877040755
5.871765525
5.901567128
5.923597096
5.94924101
6.003299124
6.050359645
6.017235669
5.968119803
6.026926778
6.088896748
6.128558502
6.126899037
6.141981358
6.20596959
6.199957907
6.297934068
6.294981812
6.379510996
6.435588034
6.514929549
6.619138344
6.710197977
6.816822811
7.032186301
7.306092092
7.573044741
7.9307141
8.634513265
10.1088827
4.918040018
4.389360904
4.108662906
4.014736793
3.987200604
3.993734749
4.035527061
4.08832232
4.140778728
4.19508543
4.23329728
4.284243317
4.3477811
4.373751436
4.454305965
4.494640702
4.52889638
4.58365259
4.643479734
4.688666326
4.700064587
4.744095476
4.818425281
4.845920299
4.894388067
4.926592354
4.945373941
4.996317827
5.029503178
5.03843939
5.104610842
5.128571564
5.186966092
5.228852419
5.219786822
5.26733412
5.278137204
5.330998962
5.35580461
5.402412754
5.440375404
5.464365239
5.479492598
5.507421339
5.519657088
5.5636118
5.622713056
5.61629209
5.650104506
5.673599831
5.701327458
5.739472014
5.738794498
5.764594837
5.732372262
5.743424847
5.806349126
5.828131697
5.842908104
5.855278114
5.923401641
5.902114526
5.890968783
5.904779301
5.944322579
5.993711606
6.002528218
5.976454059
6.041505114
6.089421239
6.094076988
6.098228083
6.099621817
6.13731342
6.149365789
6.185749555
6.2454481
6.219644404
6.256940955
6.308029027
6.331894535
6.348382359
6.428473518
6.494899338
6.571670078
6.651306901
6.771540149
6.825833389
6.952561823
7.1479249
7.38526908
7.670855953
8.151623227
8.883204546
10.46480557
5.493318514
5.024074976
4.666423497
4.423004652
4.249950776
4.145468944
4.099718179
4.106638082
4.104581618
4.138477352
4.167510491
4.218440919
4.266698529
4.315953716
4.37891109
4.416707332
4.456512912
4.504992789
4.56036208
4.602270777
4.657067669
4.694472012
4.744274042
4.818475173
4.87445443
4.909606246
4.93597137
4.956940506
5.026922576
5.041686491
5.072118868
5.11430211
5.193527132
5.208669548
5.240417925
5.263326469
5.30411491
5.304338868
5.375981097
5.428948066
5.455758117
5.477525461
5.497314172
5.53342514
5.57218172
5.582947191
5.574234264
5.63029304
5.696749693
5.757221111
5.74182853
5.778074159
5.795940702
5.82561309
5.808403259
5.825131246
5.842128764
5.8644635
5.899612354
5.918301309
5.951378607
5.937420358
5.933629712
5.971209206
6.024481166
6.04114334
6.037500742
6.071757889
6.095450334
6.115922792
6.173729676
6.173110025
6.203256337
6.228687117
6.237624
6.241684636
6.27436424
6.312996137
6.281251004
6.359288613
6.405296964
6.397416413
6.496077138
6.594479191
6.649734782
6.722722534
6.820268313
6.912499055
7.035939364
7.199022565
7.466739729
7.787554951
8.174027217
8.936389912
10.3686279
5.931626263
5.535947188
5.183999119
4.899365667
4.641672282
4.467364447
4.339854088
4.258557159
4.191399331
4.165831785
4.163641084
4.195968731
4.209553452
4.268783427
4.300430318
4.340562607
4.361907901
4.405856665
4.460591898
4.545883222
4.589099445
4.63504441
4.702587347
4.759193287
4.803801218
4.851096441
4.885518003
4.920932847
4.976943497
5.052005011
5.033992546
5.074241149
5.129589871
5.199035631
5.211510817
5.220019487
5.264613997
5.308703982
5.32769734
5.371794245
5.429017698
5.495586476
5.531749488
5.525999814
5.573520618
5.596941591
5.613128906
5.63104969
5.691284235
5.697373399
5.740984276
5.788116663
5.797946261
5.84119795
5.873614889
5.84897549
5.885166342
5.909607527
5.934175799
5.95058417
5.989843267
5.985662025
5.973844279
6.045917043
6.041490372
6.062291744
6.105176042
6.09435462
6.079894064
6.14569814
6.199928834
6.239673064
6.23950561
6.262296739
6.295381356
6.353099406
6.370114589
6.356527576
6.364207343
6.445219388
6.445644602
6.503565088
6.552024926
6.644454612
6.685830483
6.774563926
6.859065158
6.930341964
7.054922976
7.290308707
7.504791424
7.779364535
8.212155876
8.957005298
10.17027328
6.182758279
5.923042741
5.620956546
5.33106233
5.10329269
4.853534175
4.657423568
4.510102253
4.383574868
4.321814979
4.262435953
4.24534825
4.232829184
4.236342346
4.240741334
4.277037135
4.294521082
4.338441689
4.380438233
4.439872965
4.470035903
4.545613138
4.598013107
4.634467204
4.678642783
4.7056416
4.783807393
4.839806079
4.896058374
4.93495415
4.971752673
5.011184834
5.053798713
5.085830758
5.114124268
5.169735688
5.216730281
5.265462719
5.277882785
5.328117848
5.387825862
5.44399744
5.47965837
5.521696658
5.553493131
5.591308197
5.564354134
5.615117908
5.637508448
5.686855945
5.730101488
5.76356223
5.799599052
5.809692845
5.849121731
5.852025714
5.910026239
5.932397455
5.988221384
5.979572558
6.03177187
6.005968384
6.027521137
6.03701236
6.071480555
6.06614217
6.115196522
6.1149493
6.120693759
6.155263253
6.206814045
6.248348732
6.297498447
6.293942168
6.350815604
6.373181089
6.34692966
6.401139934
6.394833245
6.44425121
6.4963197
6.528437072
6.54749671
6.646485652
6.750913946
6.856246044
6.8993695
6.963538658
7.078424492
7.252032492
7.504696844
7.823422263
8.236870836
8.857967881
9.889462653
6.445165123
6.209128551
5.965795659
5.732770191
5.479374559
5.234594317
5.005638777
4.831219233
4.676847206
4.529873147
4.430393063
4.358667508
4.309348088
4.263570148
4.272482645
4.282637124
4.278333807
4.290040162
4.315881733
4.352609171
4.372902895
4.423130595
4.465974625
4.528403691
4.571483641
4.615830493
4.688637162
4.72337632
4.776030187
4.820556983
4.875109926
4.91125662
4.960353239
4.999775514
5.001928651
5.070665797
5.151203038
5.19941396
5.21087743
5.262585156
5.313050402
5.347709514
5.400130364
5.435826283
5.473306567
5.519969093
5.54396356
5.569159017
5.610854135
5.676799472
5.692479496
5.704104806
5.763803697
5.811646237
5.819352097
5.824151407
5.886630039
5.919766474
5.953442828
5.97556332
5.977676323
5.975886632
6.022260574
6.025309848
6.044930913
6.096491752
6.090970079
6.143697317
6.144173333
6.156369133
6.247189644
6.259828749
6.325248293
6.293663556
6.338636535
6.382012069
6.360631598
6.410262361
6.404705547
6.441834519
6.508349236
6.509749665
6.56968406
6.639381724
6.735468832
6.830187846
6.874535349
6.984676236
7.080406797
7.268684026
7.492858846
7.812749906
8.184442527
8.755936617
9.602028074
6.564028306
6.401047977
6.271554969
6.054836881
5.844933237
5.616038511
5.392364822
5.191902809
4.99873463
4.82055775
4.67039704
4.543387433
4.458129959
4.39222927
4.330537021
4.300852222
4.283201085
4.27065663
4.272506644
4.283402773
4.31596165
4.347696346
4.382087431
4.414124507
4.462189849
4.51526142
4.546555981
4.599530902
4.633837406
4.678312505
4.73128109
4.793041879
4.841772993
4.896211878
4.929317248
5.002080476
5.041419239
5.111406066
5.105869674
5.166911045
5.221909709
5.261856621
5.312815236
5.346431088
5.387368344
5.449762984
5.486328419
5.510087317
5.550184452
5.625612199
5.636846933
5.663423154
5.70418752
5.722585087
5.738767504
5.76371021
5.814379836
5.861681755
5.902261278
5.93600684
5.938930298
5.93989673
5.980512471
5.997592792
6.041616285
6.075187021
6.094455614
6.139988254
6.150369961
6.197917622
6.24723109
6.248476588
6.258572996
6.255935117
6.314438662
6.364206604
6.391501142
6.390852006
6.486394353
6.451970255
6.471121846
6.475503652
6.535631453
6.61951105
6.704720485
6.799208033
6.900574842
6.981659972
7.129607994
7.245845328
7.509144811
7.757413675
8.114067389
8.631806347
9.328981148
6.713775709
6.572783725
6.438190027
6.295975439
6.121214324
5.928413668
5.734477141
5.531361055
5.327164139
5.155310394
4.974672897
4.813440215
4.661790568
4.536622783
4.467945835
4.398102432
4.33916176
4.316484284
4.27498281
4.278315998
4.283989486
4.290387913
4.319757959
4.338771314
4.368059311
4.416971142
4.452955543
4.474806202
4.540109804
4.590822134
4.643429505
4.701277296
4.7379514
4.770763265
4.825538133
4.885480774
4.899389118
4.927237314
5.017692119
5.054341716
5.076883075
5.147152818
5.213418313
5.272349164
5.317663104
5.335515538
5.375595028
5.418682156
5.457504258
5.496385748
5.51986297
5.556935888
5.601611193
5.646836991
5.692601686
5.727827244
5.76351459
5.793113889
5.822289893
5.828523552
5.852077066
5.871958596
5.908752955
5.930864589
5.951326431
6.016338121
6.054834258
6.07377889
6.113329048
6.137881611
6.194086195
6.23661896
6.265958405
6.264288754
6.310227205
6.36402635
6.366478985
6.361506722
6.456965145
6.47253809
6.504691947
6.493985968
6.59930126
6.615066082
6.672873089
6.776220277
6.835419904
6.960596892
7.120556902
7.250077724
7.42231504
7.654381983
7.925104882
8.363307009
8.962003628
6.73659081
6.643471192
6.566961361
6.449648884
6.328398987
6.173035548
5.998726302
5.840046055
5.656115163
5.483385562
5.300462933
5.132892852
4.964798382
4.810891323
4.691377409
4.587930341
4.501628758
4.43804189
4.391312031
4.343818093
4.311477474
4.279571287
4.285156645
4.31147389
4.314536169
4.32577462
4.35261277
4.390356401
4.41160514
4.457775707
4.518838768
4.562405751
4.586903272
4.639957505
4.675337644
4.735505388
4.765520629
4.812910337
4.892608479
4.947037324
4.985487638
5.021812238
5.086513185
5.12952569
5.186120887
5.229224585
5.27037842
5.321008607
5.355073632
5.384606034
5.436985695
5.492231103
5.515727272
5.587589552
5.630190664
5.669344589
5.669761225
5.723328108
5.744132569
5.747936009
5.794287668
5.821776513
5.863338923
5.879268275
5.910992092
5.973493309
6.026874153
6.045523495
6.093016862
6.098218681
6.13339662
6.180309208
6.171470333
6.191802621
6.245033206
6.269244059
6.304371357
6.350622212
6.376123802
6.418734638
6.457880838
6.474320877
6.554407578
6.634725212
6.659768353
6.701781673
6.81383668
6.888780088
7.023639278
7.18997471
7.31270174
7.542272882
7.798066535
8.257903292
8.815239159
6.797334088
6.770845633
6.698222743
6.625588232
6.531880502
6.405202791
6.251529639
6.088882963
5.940617955
5.764838809
5.602548552
5.447392676
5.252394625
5.095078997
4.969363823
4.817789528
4.70882277
4.593857683
4.498598919
4.440854962
4.392942171
4.343532328
4.303066414
4.282418534
4.276997179
4.286884034
4.296272439
4.315199388
4.34645841
4.380957361
4.407772976
4.451468528
4.494872567
4.521110919
4.563974899
4.624248562
4.682806897
4.712138384
4.749187448
4.792945319
4.854266865
4.903067023
4.962246339
5.013587067
5.064745862
5.11710732
5.151185171
5.206910156
5.233010363
5.260744303
5.30796555
5.372234438
5.424040812
5.45779114
5.465549205
5.552990427
5.575295635
5.61601478
5.652269443
5.679599351
5.71485972
5.749099761
5.802533677
5.825937591
5.853939582
5.877826826
5.882482931
5.934164379
6.007543782
6.034697897
6.07485297
6.108715023
6.134524344
6.164364436
6.216068855
6.263019758
6.277321849
6.287347261
6.324647959
6.372800783
6.427705533
6.44417621
6.507777288
6.539986608
6.581061677
6.692477044
6.784526737
6.86140917
6.969458917
7.111151872
7.276096344
7.410335584
7.709041615
8.0512566
8.559761533
6.833499737
6.803340801
6.756500137
6.697946368
6.62707692
6.555225578
6.444152645
6.329808901
6.207080382
6.075597769
5.948029668
5.782405222
5.616382557
5.418415617
5.251602192
5.100152518
4.949727357
4.827562351
4.68867206
4.595561027
4.500610048
4.426864945
4.397165185
4.343823256
4.299598184
4.270761568
4.281878531
4.283928835
4.288913814
4.313949294
4.331615593
4.351759929
4.39654626
4.437682935
4.461412895
4.48417366
4.528589587
4.565713078
4.600926118
4.652584717
4.715019293
4.773636749
4.815703502
4.852048577
4.91178598
4.976237042
5.032543682
5.045256725
5.079589737
5.140878051
5.204257056
5.272738104
5.302624495
5.330919301
5.376910591
5.415512884
5.467069908
5.497292152
5.515171491
5.571531372
5.614421609
5.682288798
5.701917731
5.737229459
5.767086346
5.793886829
5.847751441
5.832705313
5.873537338
5.991856937
5.996577552
6.046571033
6.083632831
6.110712782
6.124216213
6.146379841
6.172196573
6.218629875
6.2562013
6.31161528
6.345877537
6.3775299
6.413573862
6.534404805
6.569028878
6.651797454
6.670184935
6.773299792
6.889858889
6.996119863
7.129260913
7.297576021
7.519971644
7.845490995
8.25263659
6.903254519
6.856780208
6.8189292
6.747286353
6.702500557
6.632501861
6.576252612
6.49775001
6.384731931
6.302713226
6.155267634
6.022029969
5.872799967
5.70490193
5.570591308
5.41860984
5.250920415
5.105330075
4.967929965
4.835962904
4.721368418
4.613011478
4.516773572
4.459058976
4.392867559
4.353414657
4.302202707
4.292931716
4.276323594
4.27255837
4.27333639
4.293068227
4.327139912
4.329417667
4.372130852
4.398944023
4.433313023
4.464748066
4.501860042
4.538852288
4.592828032
4.634796029
4.673616854
4.721123553
4.765659288
4.808563454
4.838171527
4.905324898
4.964861754
5.000937861
5.047466411
5.100320538
5.16242542
5.195011539
5.250295044
5.324282493
5.338213536
5.388245004
5.403491616
5.472583826
5.528923607
5.571635365
5.617231235
5.656192806
5.663053559
5.684741078
5.742023045
5.783796853
5.822625347
5.854353716
5.90552258
5.949758384
5.987032444
6.013193341
6.05253948
6.086718529
6.127175302
6.129942356
6.170630992
6.214586453
6.295271332
6.324918738
6.369098343
6.433154832
6.492492168
6.552762021
6.601541197
6.685199427
6.772155944
6.888873237
6.983532475
7.178159652
7.361256306
7.621121663
8.038962121
6.914520949
6.897701152
6.887275565
6.860883347
6.804512087
6.773713706
6.714313689
6.627540641
6.545704141
6.444211536
6.358354307
6.247835025
6.113363453
5.960503526
5.800843894
5.657601635
5.506007523
5.352561395
5.204240342
5.066088187
4.94402046
4.812476366
4.69796224
4.602800383
4.517827133
4.451371583
4.377999086
4.338845896
4.317704482
4.286819451
4.26620443
4.258366557
4.255537692
4.277976976
4.297761591
4.324798917
4.338675268
4.377080732
4.399610782
4.439381881
4.481072658
4.517261021
4.551430842
4.577046079
4.634161441
4.69399859
4.756950722
4.806348574
4.845726299
4.880101864
4.909280703
4.961332753
5.007210735
5.070990744
5.106579359
5.181614058
5.223464961
5.256862561
5.30225673
5.336125742
5.396249461
5.461766182
5.469148859
5.496293919
5.530674784
5.581476693
5.627372462
5.679229633
5.737609977
5.756644664
5.772228441
5.834197572
5.889755515
5.957860601
5.953545392
5.975335198
5.997558899
6.071506959
6.111975105
6.118430449
6.182988574
6.21848381
6.276017073
6.318932554
6.385199123
6.456041701
6.494388485
6.572145727
6.633473303
6.797047072
6.906597258
7.029571625
7.182517407
7.436728726
7.717022702
6.917640298
6.908118707
6.908274612
6.886022278
6.862687111
6.828792121
6.777773334
6.710374704
6.650594949
6.597101633
6.493260244
6.396038273
6.304633277
6.195958592
6.073287841
5.933565569
5.776887422
5.651832263
5.491499096
5.341070838
5.190756769
5.062932069
4.935962144
4.822801097
4.70221109
4.603197977
4.509735432
4.432156498
4.36760022
4.332961522
4.301232573
4.268332574
4.254890574
4.250391578
4.263463675
4.265771174
4.268647616
4.287898066
4.329816039
4.346393834
4.380766711
4.405854661
4.435240143
4.470261719
4.513185727
4.54694209
4.589960179
4.638651722
4.704220827
4.76040678
4.800626959
4.841110604
4.890238867
4.932978849
4.981271338
5.029507106
5.064552067
5.140749826
5.178367865
5.229026184
5.261448703
5.281711663
5.315560793
5.367967337
5.417974138
5.435014638
5.486152692
5.533149015
5.581991668
5.642628274
5.672768966
5.706178001
5.761346667
5.809907159
5.852386763
5.876659398
5.88735531
5.949452668
5.993933668
6.036366043
6.051195957
6.097960804
6.167228071
6.219263314
6.281332508
6.338629361
6.423274394
6.483862467
6.540396835
6.674591792
6.76014936
6.883630726
7.047171378
7.227987792
7.495910884
6.929140184
6.929964337
6.911931269
6.896760031
6.891333556
6.86751907
6.832587333
6.795413997
6.748618439
6.683917433
6.622948367
6.575240125
6.482420331
6.392017394
6.296538533
6.181704447
6.049349311
5.921742286
5.794848097
5.647331239
5.48627012
5.348416296
5.19399462
5.069012447
4.943845246
4.839266732
4.713889259
4.614667781
4.530960544
4.449474479
4.38539029
4.343419878
4.305190181
4.251607818
4.230388546
4.233107917
4.240442435
4.261346392
4.247986101
4.274082194
4.292719205
4.324243812
4.359034257
4.38432533
4.393409438
4.432738121
4.460944147
4.523593466
4.555038794
4.599929097
4.655703242
4.68546728
4.745326934
4.785671909
4.85897188
4.894782546
4.91572754
4.974916306
5.018360751
5.056596995
5.104683533
5.16414344
5.190459394
5.252884829
5.319127731
5.348680269
5.362220081
5.400158741
5.444117356
5.486669554
5.526192043
5.56631279
5.604934193
5.655814157
5.694420319
5.741506867
5.803636355
5.833827449
5.894338832
5.94338311
5.96805462
6.01034761
6.033776916
6.102329736
6.168074727
6.247907186
6.31971978
6.352890909
6.432474362
6.471844228
6.625555603
6.771840848
6.89994156
7.064488501
7.322474925
6.924435891
6.948215725
6.924205739
6.918293627
6.884404889
6.873016651
6.861436361
6.82264144
6.807117804
6.765653769
6.714402137
6.655332836
6.580769615
6.509215124
6.422445117
6.346111953
6.25747072
6.142138754
6.01665083
5.899780738
5.786632597
5.655166066
5.499126787
5.360300281
5.202930768
5.069635231
4.951332325
4.843738906
4.716196094
4.622366241
4.536637932
4.449147943
4.397686528
4.354409433
4.308166196
4.275364522
4.254911539
4.242168645
4.240318279
4.236626522
4.234987875
4.254010945
4.270895675
4.291949614
4.323457117
4.366146949
4.399800072
4.413204691
4.450483666
4.489274185
4.549352095
4.594938376
4.628169757
4.661350466
4.684193437
4.749556445
4.80358723
4.828761449
4.866773243
4.927952626
4.97638153
5.010787357
5.074539821
5.100556418
5.155024921
5.201268843
5.237938431
5.282468025
5.312942858
5.361604373
5.392752622
5.434709835
5.482559691
5.520966063
5.5602531
5.608757653
5.681569671
5.720729902
5.764695137
5.799488983
5.838098849
5.881514137
5.942611648
5.997228912
6.072852794
6.13770853
6.203231373
6.267624567
6.319066293
6.383208093
6.468340865
6.599837061
6.747578742
6.857598503
7.117712105
6.937510475
6.942760991
6.930160063
6.913249803
6.889934635
6.879315902
6.871027179
6.845269824
6.833354272
6.808640467
6.790081554
6.758170766
6.738525005
6.662519354
6.621904746
6.511026159
6.44829588
6.343405452
6.260546496
6.141076311
6.007211654
5.894310396
5.748595886
5.609584327
5.485883194
5.352761776
5.206215745
5.073384389
4.948945911
4.828912148
4.735631449
4.638846934
4.563758306
4.497502365
4.430087034
4.364331266
4.307684678
4.275356182
4.250091179
4.236664736
4.232850301
4.214967951
4.240981717
4.248706322
4.255577178
4.269401316
4.29020841
4.331450233
4.360534049
4.389942361
4.42181871
4.471054169
4.491094601
4.530350588
4.566223605
4.589488704
4.635181944
4.697367044
4.752897698
4.797795573
4.857115259
4.903216806
4.944355079
4.996298885
5.042966028
5.078363458
5.119434404
5.160943269
5.195251581
5.229611383
5.268653149
5.310601623
5.350190592
5.402523856
5.457893083
5.508095393
5.55636105
5.582485429
5.621401646
5.692799493
5.755082119
5.776658843
5.805800875
5.860364631
5.903158733
5.955606909
6.057293713
6.15223549
6.208927466
6.290910552
6.346400031
6.426462345
6.52351138
6.713717093
6.875980926
6.91625047
6.898910101
6.912442856
6.915490375
6.925107354
6.920338076
6.91001605
6.924954719
6.894527622
6.87027627
6.845122226
6.816508211
6.780538231
6.758093765
6.708260301
6.651484343
6.606762748
6.521906737
6.434350834
6.34106612
6.246640679
6.130973354
6.013332379
5.913392824
5.762024813
5.637761034
5.494673675
5.3429754
5.223586184
5.092267089
4.967175063
4.847720848
4.735355612
4.639054565
4.552640235
4.489376561
4.416019418
4.358825293
4.31308519
4.272456545
4.243453852
4.230061964
4.204498196
4.214686002
4.212106794
4.245294528
4.252744243
4.253037789
4.26997408
4.291794191
4.324045858
4.370621062
4.3944202
4.431474306
4.459857476
4.489862613
4.533883325
4.572945543
4.620159152
4.654533126
4.710483676
4.744896436
4.791248661
4.850725071
4.865389663
4.926657914
4.958966602
4.986662915
5.032162949
5.096265072
5.146521508
5.18006067
5.233225789
5.286826951
5.338752879
5.398106939
5.434886414
5.48709225
5.504397779
5.547437136
5.606758146
5.665914562
5.709806632
5.750919222
5.792499497
5.863002984
5.915468547
5.961162436
6.037606794
6.088948966
6.169770633
6.288428971
6.387431869
6.521311239
6.677312554
6.969683041
6.966454062
6.954165978
6.957546954
6.963747712
6.942500643
6.921053921
6.908548589
6.896374358
6.893492773
6.869640688
6.867562989
6.817813937
6.760048327
6.766453016
6.724701409
6.675745562
6.646128407
6.577415463
6.522772345
6.422768105
6.340563891
6.239727283
6.127867594
6.021229283
5.885290708
5.771994903
5.647630424
5.503736202
5.367228364
5.223464662
5.094265582
4.9545616
4.84623302
4.74689043
4.636603055
4.568307975
4.490922436
4.418652141
4.362268361
4.319476402
4.2845157
4.260900058
4.224913121
4.214537915
4.208091491
4.212013314
4.214841845
4.215820498
4.222342839
4.243637469
4.256465759
4.297891109
4.335911294
4.377795879
4.401264781
4.431569189
4.470451692
4.497801777
4.547163092
4.58060698
4.637286552
4.65933061
4.697048059
4.754915427
4.790828788
4.837109128
4.898663443
4.925476066
4.953769809
5.004833779
5.054931115
5.105331236
5.146061975
5.192377344
5.224026667
5.272006811
5.330562433
5.374147374
5.444366464
5.494710196
5.536216267
5.570401338
5.621578581
5.659399136
5.717827874
5.771683725
5.840780224
5.912954635
5.966822814
6.051877393
6.128810138
6.212880198
6.324071047
6.492192167
6.954121723
6.958769114
6.962806296
6.942954067
6.948827242
6.910333644
6.90903575
6.902462575
6.887569611
6.88408793
6.881331597
6.885449293
6.870897991
6.860998986
6.82922487
6.806619757
6.759487591
6.713500458
6.649543935
6.620835403
6.57589269
6.48703875
6.42599349
6.332384329
6.258814563
6.161692145
6.024144293
5.905139326
5.800794291
5.65982742
5.535158616
5.386913337
5.255750817
5.114385263
4.987533017
4.882239532
4.772154715
4.664102422
4.591105692
4.499814366
4.436048235
4.369410706
4.323355136
4.278502208
4.25579393
4.211546456
4.19940661
4.207196823
4.208123175
4.199059654
4.206607203
4.220021803
4.22995353
4.254790924
4.275185541
4.321703316
4.34807663
4.374737753
4.396917719
4.421515942
4.467224874
4.495824501
4.546032143
4.596713274
4.632766942
4.680279776
4.719789215
4.771065682
4.826142207
4.872802902
4.89858925
4.932180578
4.949830772
5.003548038
5.046866535
5.096330613
5.146742305
5.193672794
5.248279775
5.274485406
5.311735435
5.369481912
5.444733664
5.477498132
5.540801583
5.5550986
5.612211851
5.673060829
5.745914804
5.81205165
5.891146278
5.974726863
6.04323959
6.144978545
6.25761818
6.936898925
6.925023021
6.930480961
6.923228567
6.933879745
6.929041392
6.916102359
6.917175957
6.920028726
6.912859205
6.912047783
6.919305695
6.910611445
6.891218903
6.860219969
6.826930549
6.815208261
6.767606466
6.734148467
6.684214058
6.663450081
6.589531936
6.546011465
6.491697898
6.415275945
6.331336208
6.24395528
6.124391312
6.015762085
5.912214976
5.787111815
5.666913736
5.53437296
5.405228791
5.259662806
5.127495878
5.007862553
4.896256602
4.775254073
4.680653065
4.592707783
4.507737685
4.446273297
4.38103929
4.31287378
4.284846875
4.244344253
4.213369185
4.207128344
4.203596313
4.203481604
4.199542988
4.208261268
4.21901216
4.234569656
4.248594075
4.272915771
4.291699795
4.307202862
4.325866005
4.360097243
4.40118782
4.439635914
4.475323509
4.523549512
4.571104255
4.621856485
4.656090508
4.677363447
4.712238482
4.75265894
4.790770207
4.85243879
4.884235684
4.931918004
4.973292922
5.009093861
5.048685135
5.0977097
5.15247806
5.197400009
5.230944707
5.272840465
5.31743074
5.370955843
5.431004506
5.466040139
5.532578805
5.602159059
5.674383343
5.738726738
5.8063688
5.880264951
5.974383735
6.080373678
6.950637649
6.95191771
6.948001241
6.951943494
6.935492606
6.9407891
6.94316713
6.960501011
6.944563315
6.93364899
6.91383087
6.887936458
6.88325707
6.881065167
6.866902872
6.856133676
6.845165028
6.825432251
6.824406632
6.801511147
6.759929056
6.727182533
6.657124529
6.617103955
6.556449306
6.492362413
6.401516516
6.352213471
6.251238441
6.140551926
6.035583169
5.927872945
5.7927123
5.660819037
5.527715339
5.399357047
5.27653003
5.140698688
5.02038237
4.896404054
4.783586241
4.687907407
4.584020309
4.509501007
4.453264268
4.393243199
4.335321415
4.29379829
4.251582543
4.215763292
4.190392229
4.194152775
4.192167127
4.188583882
4.188695017
4.193206385
4.195434548
4.227639131
4.250729726
4.252889725
4.277134892
4.285679792
4.327711961
4.359226767
4.406692647
4.448481371
4.474570024
4.525247338
4.556682645
4.595825468
4.642229581
4.682404229
4.701635483
4.742138208
4.804485776
4.83694395
4.884208797
4.935379876
4.966441401
5.006940222
5.055769297
5.114157382
5.156112992
5.214333631
5.265565019
5.291634451
5.340435834
5.385716421
5.456142028
5.49642249
5.578333592
5.644356871
5.736482093
5.818108357
5.91210515
6.992040144
6.985630937
6.990468427
6.991735167
6.983595267
7.002109365
6.988137904
6.967635248
6.967354969
6.945171239
6.956203833
6.953000049
6.928920073
6.911851475
6.909086676
6.920925841
6.910583555
6.887178144
6.861974786
6.844124625
6.818858073
6.808159607
6.778425148
6.726705275
6.690286971
6.634874183
6.571419394
6.484066382
6.432281894
6.334259928
6.242293175
6.133054133
6.041945182
5.921512291
5.801528187
5.661925223
5.535053585
5.399176927
5.268666266
5.160416431
5.043153392
4.923419686
4.811249218
4.700761807
4.611673208
4.518360167
4.46038168
4.390722943
4.336640613
4.293954378
4.259292126
4.20924678
4.191946088
4.175794962
4.1695873
4.167464847
4.181331669
4.178450267
4.193778226
4.205122634
4.224523248
4.241280816