/*--------------------------------*- C++ -*----------------------------------*\
| =========                 |                                                 |
| \\      /  F ield         | OpenFOAM: The Open Source CFD Toolbox           |
|  \\    /   O peration     | Version:  v1706                                 |
|   \\  /    A nd           | Web:      www.OpenFOAM.com                      |
|    \\/     M anipulation  |                                                 |
\*---------------------------------------------------------------------------*/
FoamFile
{
    version     2.0;
    format      ascii;
    class       volScalarField;
    location    "0.04";
    object      meanCollisionTime_N2cold;
}
// * * * * * * * * * * * * * * * * * * * * * * * * * * * * * * * * * * * * * //

dimensions      [0 0 1 0 0 0 0];


internalField   nonuniform List<scalar> 
6000
(
2.774878981e-05
2.757886425e-05
2.713096436e-05
2.593535201e-05
2.205439318e-05
2.775622181e-05
2.754496272e-05
2.693595485e-05
2.553521935e-05
2.276559802e-05
2.766419462e-05
2.753707513e-05
2.688822146e-05
2.576494722e-05
2.386726978e-05
2.776156693e-05
2.744667309e-05
2.696595081e-05
2.607004628e-05
2.49029786e-05
2.774067705e-05
2.762126528e-05
2.723875428e-05
2.664697715e-05
2.580537699e-05
2.780902653e-05
2.773654292e-05
2.747461675e-05
2.70447312e-05
2.641149149e-05
2.77239841e-05
2.761639668e-05
2.74081052e-05
2.710107424e-05
2.667776545e-05
2.769346093e-05
2.767992422e-05
2.753944518e-05
2.734018378e-05
2.698356704e-05
2.77392647e-05
2.765658529e-05
2.749522552e-05
2.732334207e-05
2.717663688e-05
2.779495636e-05
2.766360509e-05
2.766262908e-05
2.758863192e-05
2.742872441e-05
2.779980974e-05
2.778495357e-05
2.763971709e-05
2.75708716e-05
2.747110801e-05
2.776680196e-05
2.773919797e-05
2.771911118e-05
2.763913291e-05
2.757032978e-05
2.772195381e-05
2.775464285e-05
2.771731553e-05
2.775229687e-05
2.77251893e-05
2.779006433e-05
2.783087813e-05
2.777115049e-05
2.774069216e-05
2.767321871e-05
2.782938371e-05
2.781776608e-05
2.778335952e-05
2.784607965e-05
2.777838008e-05
2.775871248e-05
2.779562108e-05
2.776749774e-05
2.772694566e-05
2.774145555e-05
2.780054513e-05
2.782307864e-05
2.780850645e-05
2.789003622e-05
2.777321097e-05
2.78305069e-05
2.782704213e-05
2.778784896e-05
2.769409971e-05
2.772198601e-05
2.78500975e-05
2.782452943e-05
2.780175319e-05
2.781073664e-05
2.786363343e-05
2.778444581e-05
2.781616767e-05
2.783399493e-05
2.785270345e-05
2.785108201e-05
2.783831178e-05
2.779969935e-05
2.780893082e-05
2.784316684e-05
2.771840277e-05
2.779434226e-05
2.780615947e-05
2.777990943e-05
2.781838894e-05
2.78220636e-05
2.783137135e-05
2.783213012e-05
2.787844483e-05
2.788893203e-05
2.790348689e-05
2.780242708e-05
2.782199391e-05
2.790996155e-05
2.792712574e-05
2.785746573e-05
2.780472763e-05
2.779234627e-05
2.773404744e-05
2.767536016e-05
2.773266076e-05
2.782376242e-05
2.777917802e-05
2.774915451e-05
2.77271766e-05
2.778328817e-05
2.780006677e-05
2.778360198e-05
2.772630303e-05
2.780229935e-05
2.778005272e-05
2.783360313e-05
2.787022883e-05
2.784333143e-05
2.78397545e-05
2.776892382e-05
2.775753629e-05
2.779179579e-05
2.781739575e-05
2.785831512e-05
2.78810934e-05
2.780149547e-05
2.784761435e-05
2.785314729e-05
2.790866391e-05
2.783576565e-05
2.778086796e-05
2.776346999e-05
2.779715279e-05
2.779077836e-05
2.773610971e-05
2.781342947e-05
2.783505595e-05
2.782381428e-05
2.775203562e-05
2.787306537e-05
2.780864589e-05
2.773751871e-05
2.77568735e-05
2.772443685e-05
2.771429047e-05
2.78102804e-05
2.780501766e-05
2.77628914e-05
2.780696722e-05
2.781544416e-05
2.777667129e-05
2.776566927e-05
2.777474659e-05
2.770716297e-05
2.768682368e-05
2.781256001e-05
2.787354353e-05
2.785875962e-05
2.78883016e-05
2.790378224e-05
2.779508502e-05
2.787361176e-05
2.78776086e-05
2.788636477e-05
2.782238174e-05
2.774469871e-05
2.766291017e-05
2.762506041e-05
2.768545383e-05
2.771935054e-05
2.778880317e-05
2.779795653e-05
2.776476106e-05
2.7779863e-05
2.774471975e-05
2.783604581e-05
2.784934592e-05
2.787851213e-05
2.788464686e-05
2.785658076e-05
2.774272181e-05
2.777943262e-05
2.774120315e-05
2.779207953e-05
2.77343954e-05
2.78172046e-05
2.774961547e-05
2.782869797e-05
2.77962924e-05
2.786858671e-05
2.786308941e-05
2.791466273e-05
2.783848869e-05
2.779586187e-05
2.781840977e-05
2.776050042e-05
2.776125966e-05
2.778879877e-05
2.780475614e-05
2.780485556e-05
2.779201196e-05
2.777938727e-05
2.777193127e-05
2.778192452e-05
2.78191831e-05
2.787260718e-05
2.785696955e-05
2.791998444e-05
2.788859868e-05
2.784542927e-05
2.78518689e-05
2.782996034e-05
2.78396803e-05
2.785623852e-05
2.783649405e-05
2.779232147e-05
2.782387118e-05
2.777547225e-05
2.77811996e-05
2.781728671e-05
2.776654922e-05
2.777481089e-05
2.774835315e-05
2.782537029e-05
2.781184553e-05
2.779633739e-05
2.782244901e-05
2.784116192e-05
2.773571829e-05
2.778657273e-05
2.779978578e-05
2.776722006e-05
2.77906518e-05
2.781207209e-05
2.779022163e-05
2.782435613e-05
2.78096862e-05
2.778583736e-05
2.777918393e-05
2.778736232e-05
2.778333492e-05
2.774015826e-05
2.779698092e-05
2.777805291e-05
2.771986027e-05
2.781691895e-05
2.780825753e-05
2.783263972e-05
2.780308641e-05
2.778787343e-05
2.784777377e-05
2.785278533e-05
2.786026826e-05
2.783194193e-05
2.783874324e-05
2.776730787e-05
2.773809624e-05
2.771540004e-05
2.776345528e-05
2.777083078e-05
2.78280569e-05
2.787328986e-05
2.784829799e-05
2.782889608e-05
2.780896202e-05
2.780717186e-05
2.77881004e-05
2.781778908e-05
2.781516421e-05
2.782783751e-05
2.77864581e-05
2.77960417e-05
2.780902759e-05
2.780335137e-05
2.776689925e-05
2.779817694e-05
2.780486907e-05
2.780016981e-05
2.780171074e-05
2.785356303e-05
1.631598547e-05
1.547896576e-05
1.561097674e-05
1.586224844e-05
1.613119244e-05
1.634702536e-05
1.652536282e-05
1.668064284e-05
1.694751174e-05
1.706709063e-05
1.727827768e-05
1.746095066e-05
1.760940851e-05
1.764210488e-05
1.772338749e-05
1.789255173e-05
1.808538092e-05
1.840709823e-05
1.854737812e-05
1.872749566e-05
1.873663261e-05
1.891264679e-05
1.915997233e-05
1.936240635e-05
1.951966798e-05
1.955600638e-05
1.969574542e-05
1.984593812e-05
1.993999588e-05
2.023893453e-05
2.03828125e-05
2.026655589e-05
2.045781252e-05
2.057937113e-05
2.061544872e-05
2.060216892e-05
2.075783055e-05
2.093580969e-05
2.1178486e-05
2.117652233e-05
2.119950397e-05
2.147359697e-05
2.168203599e-05
2.170967843e-05
2.173271549e-05
2.18407174e-05
2.199143589e-05
2.221653e-05
2.220010708e-05
2.226862438e-05
2.240346507e-05
2.257147762e-05
2.256586497e-05
2.264842065e-05
2.282790451e-05
2.261881032e-05
2.289031067e-05
2.294757385e-05
2.297546399e-05
2.312640639e-05
2.30998196e-05
2.308483195e-05
2.317438219e-05
2.322192196e-05
2.332812835e-05
2.350816302e-05
2.34870621e-05
2.360626851e-05
2.369438839e-05
2.379696404e-05
2.40131965e-05
2.420143858e-05
2.406894268e-05
2.387247921e-05
2.410770711e-05
2.435558699e-05
2.451423401e-05
2.450759615e-05
2.456792543e-05
2.482387836e-05
2.479983163e-05
2.519173627e-05
2.517992725e-05
2.551804398e-05
2.574235214e-05
2.60597182e-05
2.647655338e-05
2.684079191e-05
2.726729125e-05
2.812874521e-05
2.922436837e-05
3.029217897e-05
3.17228564e-05
3.453805306e-05
4.043553078e-05
1.967216007e-05
1.755744361e-05
1.643465162e-05
1.605894717e-05
1.594880242e-05
1.5974939e-05
1.614210824e-05
1.635328928e-05
1.656311491e-05
1.678034172e-05
1.693318912e-05
1.713697327e-05
1.73911244e-05
1.749500574e-05
1.781722386e-05
1.797856281e-05
1.811558552e-05
1.833461036e-05
1.857391893e-05
1.875466531e-05
1.880025835e-05
1.89763819e-05
1.927370113e-05
1.938368119e-05
1.957755227e-05
1.970636941e-05
1.978149577e-05
1.998527131e-05
2.011801271e-05
2.015375756e-05
2.041844337e-05
2.051428625e-05
2.074786437e-05
2.091540968e-05
2.087914729e-05
2.106933648e-05
2.111254882e-05
2.132399585e-05
2.142321844e-05
2.160965101e-05
2.176150162e-05
2.185746096e-05
2.191797039e-05
2.202968536e-05
2.207862835e-05
2.22544472e-05
2.249085222e-05
2.246516836e-05
2.260041803e-05
2.269439932e-05
2.280530983e-05
2.295788806e-05
2.295517799e-05
2.305837935e-05
2.292948905e-05
2.297369939e-05
2.322539651e-05
2.331252679e-05
2.337163242e-05
2.342111246e-05
2.369360657e-05
2.36084581e-05
2.356387513e-05
2.36191172e-05
2.377729031e-05
2.397484642e-05
2.401011287e-05
2.390581624e-05
2.416602046e-05
2.435768496e-05
2.437630795e-05
2.439291233e-05
2.439848727e-05
2.454925368e-05
2.459746315e-05
2.474299822e-05
2.49817924e-05
2.487857762e-05
2.502776382e-05
2.523211611e-05
2.532757814e-05
2.539352943e-05
2.571389407e-05
2.597959735e-05
2.628668031e-05
2.660522761e-05
2.70861606e-05
2.730333355e-05
2.781024729e-05
2.85916996e-05
2.954107632e-05
3.068342381e-05
3.260649291e-05
3.553281818e-05
4.185922227e-05
2.197327405e-05
2.00962999e-05
1.866569399e-05
1.769201861e-05
1.69998031e-05
1.658187577e-05
1.639887271e-05
1.642655233e-05
1.641832647e-05
1.655390941e-05
1.667004196e-05
1.687376368e-05
1.706679412e-05
1.726381487e-05
1.751564436e-05
1.766682933e-05
1.782605165e-05
1.801997115e-05
1.824144832e-05
1.840908311e-05
1.862827068e-05
1.877788805e-05
1.897709617e-05
1.927390069e-05
1.949781772e-05
1.963842498e-05
1.974388548e-05
1.982776202e-05
2.01076903e-05
2.016674597e-05
2.028847547e-05
2.045720844e-05
2.077410853e-05
2.083467819e-05
2.09616717e-05
2.105330588e-05
2.121645964e-05
2.121735547e-05
2.150392439e-05
2.171579226e-05
2.182303247e-05
2.191010184e-05
2.198925669e-05
2.213370056e-05
2.228872688e-05
2.233178877e-05
2.229693706e-05
2.252117216e-05
2.278699877e-05
2.302888444e-05
2.296731412e-05
2.311229664e-05
2.318376281e-05
2.330245236e-05
2.323361304e-05
2.330052498e-05
2.336851506e-05
2.3457854e-05
2.359844942e-05
2.367320524e-05
2.380551443e-05
2.374968143e-05
2.373451885e-05
2.388483682e-05
2.409792466e-05
2.416457336e-05
2.415000297e-05
2.428703156e-05
2.438180134e-05
2.446369117e-05
2.469491871e-05
2.46924401e-05
2.481302535e-05
2.491474847e-05
2.4950496e-05
2.496673854e-05
2.509745696e-05
2.525198455e-05
2.512500402e-05
2.543715445e-05
2.562118786e-05
2.558966565e-05
2.598430855e-05
2.637791676e-05
2.659893913e-05
2.689089014e-05
2.728107325e-05
2.764999622e-05
2.814375746e-05
2.879609026e-05
2.986695892e-05
3.115021981e-05
3.269610887e-05
3.574555965e-05
4.147451159e-05
2.372650505e-05
2.214378875e-05
2.073599648e-05
1.959746267e-05
1.856668913e-05
1.786945779e-05
1.735941635e-05
1.703422864e-05
1.676559732e-05
1.666332714e-05
1.665456434e-05
1.678387492e-05
1.683821381e-05
1.707513371e-05
1.720172127e-05
1.736225043e-05
1.74476316e-05
1.762342666e-05
1.784236759e-05
1.818353289e-05
1.835639778e-05
1.854017764e-05
1.881034939e-05
1.903677315e-05
1.921520487e-05
1.940438576e-05
1.954207201e-05
1.968373139e-05
1.990777399e-05
2.020802004e-05
2.013597018e-05
2.02969646e-05
2.051835948e-05
2.079614253e-05
2.084604327e-05
2.088007795e-05
2.105845599e-05
2.123481593e-05
2.131078936e-05
2.148717698e-05
2.171607079e-05
2.19823459e-05
2.212699795e-05
2.210399926e-05
2.229408247e-05
2.238776637e-05
2.245251563e-05
2.252419876e-05
2.276513694e-05
2.27894936e-05
2.29639371e-05
2.315246665e-05
2.319178504e-05
2.33647918e-05
2.349445955e-05
2.339590196e-05
2.354066537e-05
2.363843011e-05
2.37367032e-05
2.380233668e-05
2.395937307e-05
2.39426481e-05
2.389537711e-05
2.418366817e-05
2.416596149e-05
2.424916698e-05
2.442070417e-05
2.437741848e-05
2.431957626e-05
2.458279256e-05
2.479971534e-05
2.495869226e-05
2.495802244e-05
2.504918696e-05
2.518152542e-05
2.541239762e-05
2.548045835e-05
2.542611031e-05
2.545682937e-05
2.578087755e-05
2.578257841e-05
2.601426035e-05
2.62080997e-05
2.657781845e-05
2.674332193e-05
2.70982557e-05
2.743626063e-05
2.772136785e-05
2.82196919e-05
2.916123483e-05
3.00191657e-05
3.111745814e-05
3.28486235e-05
3.582802119e-05
4.068109314e-05
2.473103312e-05
2.369217097e-05
2.248382618e-05
2.132424932e-05
2.041317076e-05
1.94141367e-05
1.862969427e-05
1.804040901e-05
1.753429947e-05
1.728725992e-05
1.704974381e-05
1.6981393e-05
1.693131674e-05
1.694536938e-05
1.696296534e-05
1.710814854e-05
1.717808433e-05
1.735376675e-05
1.752175293e-05
1.775949186e-05
1.788014361e-05
1.818245255e-05
1.839205243e-05
1.853786882e-05
1.871457113e-05
1.88225664e-05
1.913522957e-05
1.935922432e-05
1.95842335e-05
1.97398166e-05
1.988701069e-05
2.004473934e-05
2.021519485e-05
2.034332303e-05
2.045649707e-05
2.067894275e-05
2.086692112e-05
2.106185087e-05
2.111153114e-05
2.131247139e-05
2.155130345e-05
2.177598976e-05
2.191863348e-05
2.208678663e-05
2.221397253e-05
2.236523279e-05
2.225741653e-05
2.246047163e-05
2.255003379e-05
2.274742378e-05
2.292040595e-05
2.305424892e-05
2.319839621e-05
2.323877138e-05
2.339648692e-05
2.340810286e-05
2.364010496e-05
2.372958982e-05
2.395288554e-05
2.391829023e-05
2.412708748e-05
2.402387354e-05
2.411008455e-05
2.414804944e-05
2.428592222e-05
2.426456868e-05
2.446078609e-05
2.44597972e-05
2.448277503e-05
2.462105301e-05
2.482725618e-05
2.499339493e-05
2.518999379e-05
2.517576867e-05
2.540326242e-05
2.549272435e-05
2.538771864e-05
2.560455974e-05
2.557933298e-05
2.577700484e-05
2.59852788e-05
2.611374829e-05
2.618998684e-05
2.658594261e-05
2.700365578e-05
2.742498417e-05
2.7597478e-05
2.785415463e-05
2.831369797e-05
2.900812997e-05
3.001878738e-05
3.129368905e-05
3.294748334e-05
3.543187152e-05
3.955785061e-05
2.578066049e-05
2.48365142e-05
2.386318264e-05
2.293108076e-05
2.191749823e-05
2.093837727e-05
2.002255511e-05
1.932487693e-05
1.870738882e-05
1.811949259e-05
1.772157225e-05
1.743467003e-05
1.723739235e-05
1.705428059e-05
1.708993058e-05
1.71305485e-05
1.711333523e-05
1.716016065e-05
1.726352693e-05
1.741043668e-05
1.749161158e-05
1.769252238e-05
1.78638985e-05
1.811361476e-05
1.828593456e-05
1.846332197e-05
1.875454865e-05
1.889350528e-05
1.910412075e-05
1.928222793e-05
1.950043971e-05
1.964502648e-05
1.984141296e-05
1.999910206e-05
2.00077146e-05
2.028266319e-05
2.060481215e-05
2.079765584e-05
2.084350972e-05
2.105034062e-05
2.125220161e-05
2.139083805e-05
2.160052145e-05
2.174330513e-05
2.189322627e-05
2.207987637e-05
2.217585424e-05
2.227663607e-05
2.244341654e-05
2.270719789e-05
2.276991798e-05
2.281641922e-05
2.305521479e-05
2.324658495e-05
2.327740839e-05
2.329660563e-05
2.354652016e-05
2.367906589e-05
2.381377131e-05
2.390225328e-05
2.391070529e-05
2.390354653e-05
2.40890423e-05
2.410123939e-05
2.417972365e-05
2.438596701e-05
2.436388032e-05
2.457478927e-05
2.457669333e-05
2.462547653e-05
2.498875857e-05
2.5039315e-05
2.530099317e-05
2.517465422e-05
2.535454614e-05
2.552804828e-05
2.544252639e-05
2.564104944e-05
2.561882219e-05
2.576733808e-05
2.603339694e-05
2.603899866e-05
2.627873624e-05
2.655752689e-05
2.694187533e-05
2.732075138e-05
2.74981414e-05
2.793870495e-05
2.832162719e-05
2.90747361e-05
2.997143539e-05
3.125099962e-05
3.273777011e-05
3.502374647e-05
3.84081123e-05
2.625611323e-05
2.560419191e-05
2.508621988e-05
2.421934752e-05
2.337973295e-05
2.246415405e-05
2.156945929e-05
2.076761124e-05
1.999493852e-05
1.9282231e-05
1.868158816e-05
1.817354973e-05
1.783251984e-05
1.756891708e-05
1.732214809e-05
1.720340889e-05
1.713280434e-05
1.708262652e-05
1.709002657e-05
1.713361109e-05
1.72638466e-05
1.739078538e-05
1.752834972e-05
1.765649803e-05
1.78487594e-05
1.806104568e-05
1.818622393e-05
1.839812361e-05
1.853534963e-05
1.871325002e-05
1.892512436e-05
1.917216752e-05
1.936709197e-05
1.958484751e-05
1.971726899e-05
2.00083219e-05
2.016567696e-05
2.044562426e-05
2.04234787e-05
2.066764418e-05
2.088763884e-05
2.104742649e-05
2.125126094e-05
2.138572435e-05
2.154947338e-05
2.179905194e-05
2.194531368e-05
2.204034927e-05
2.220073781e-05
2.25024488e-05
2.254738773e-05
2.265369262e-05
2.281675008e-05
2.289034035e-05
2.295507001e-05
2.305484084e-05
2.325751934e-05
2.344672702e-05
2.360904511e-05
2.374402736e-05
2.375572119e-05
2.375958692e-05
2.392204988e-05
2.399037117e-05
2.416646514e-05
2.430074808e-05
2.437782246e-05
2.455995302e-05
2.460147985e-05
2.479167049e-05
2.498892436e-05
2.499390635e-05
2.503429199e-05
2.502374047e-05
2.525775465e-05
2.545682641e-05
2.556600457e-05
2.556340803e-05
2.594557741e-05
2.580788102e-05
2.588448738e-05
2.590201461e-05
2.614252581e-05
2.64780442e-05
2.681888194e-05
2.719683213e-05
2.760229937e-05
2.792663989e-05
2.851843198e-05
2.898338131e-05
3.003657924e-05
3.10296547e-05
3.245626956e-05
3.452722539e-05
3.731592459e-05
2.685510284e-05
2.62911349e-05
2.575276011e-05
2.518390176e-05
2.44848573e-05
2.371365467e-05
2.293790856e-05
2.212544422e-05
2.130865655e-05
2.062124157e-05
1.989869159e-05
1.925376086e-05
1.864716227e-05
1.814649113e-05
1.787178334e-05
1.759240973e-05
1.735664704e-05
1.726593714e-05
1.709993124e-05
1.711326399e-05
1.713595794e-05
1.716155165e-05
1.727903184e-05
1.735508526e-05
1.747223724e-05
1.766788457e-05
1.781182217e-05
1.789922481e-05
1.816043922e-05
1.836328854e-05
1.857371802e-05
1.880510919e-05
1.89518056e-05
1.908305306e-05
1.930215253e-05
1.95419231e-05
1.959755647e-05
1.970894926e-05
2.007076848e-05
2.021736686e-05
2.03075323e-05
2.058861127e-05
2.085367325e-05
2.108939666e-05
2.127065241e-05
2.134206215e-05
2.150238011e-05
2.167472862e-05
2.183001703e-05
2.198554299e-05
2.207945188e-05
2.222774355e-05
2.240644477e-05
2.258734796e-05
2.277040674e-05
2.291130898e-05
2.305405836e-05
2.317245555e-05
2.328915957e-05
2.331409421e-05
2.340830826e-05
2.348783438e-05
2.363501182e-05
2.372345836e-05
2.380530572e-05
2.406535249e-05
2.421933703e-05
2.429511556e-05
2.445331619e-05
2.455152644e-05
2.477634478e-05
2.494647584e-05
2.506383362e-05
2.505715501e-05
2.524090882e-05
2.54561054e-05
2.546591594e-05
2.544602689e-05
2.582786058e-05
2.589015236e-05
2.601876779e-05
2.597594387e-05
2.639720504e-05
2.646026433e-05
2.669149236e-05
2.710488111e-05
2.734167962e-05
2.784238757e-05
2.848222761e-05
2.90003109e-05
2.968926016e-05
3.061752793e-05
3.170041953e-05
3.345322804e-05
3.584801451e-05
2.694636324e-05
2.657388477e-05
2.626784545e-05
2.579859554e-05
2.531359595e-05
2.469214219e-05
2.399490521e-05
2.336018422e-05
2.262446065e-05
2.193354225e-05
2.120185173e-05
2.053157141e-05
1.985919353e-05
1.924356529e-05
1.876550963e-05
1.835172137e-05
1.800651503e-05
1.775216756e-05
1.756524812e-05
1.737527237e-05
1.724590989e-05
1.711828515e-05
1.714062658e-05
1.724589556e-05
1.725814467e-05
1.730309848e-05
1.741045108e-05
1.75614256e-05
1.764642056e-05
1.783110283e-05
1.807535507e-05
1.8249623e-05
1.834761309e-05
1.855983002e-05
1.870135058e-05
1.894202155e-05
1.906208252e-05
1.925164135e-05
1.957043392e-05
1.978814929e-05
1.994195055e-05
2.008724895e-05
2.034605274e-05
2.051810276e-05
2.074448355e-05
2.091689834e-05
2.108151368e-05
2.128403443e-05
2.142029453e-05
2.153842414e-05
2.174794278e-05
2.196892441e-05
2.206290909e-05
2.235035821e-05
2.252076266e-05
2.267737836e-05
2.26790449e-05
2.289331243e-05
2.297653027e-05
2.299174404e-05
2.317715067e-05
2.328710605e-05
2.345335569e-05
2.35170731e-05
2.364396837e-05
2.389397323e-05
2.410749661e-05
2.418209398e-05
2.437206745e-05
2.439287472e-05
2.453358648e-05
2.472123683e-05
2.468588133e-05
2.476721048e-05
2.498013283e-05
2.507697624e-05
2.521748543e-05
2.540248885e-05
2.550449521e-05
2.567493855e-05
2.583152335e-05
2.589728351e-05
2.621763031e-05
2.653890085e-05
2.663907341e-05
2.680712669e-05
2.725534672e-05
2.755512035e-05
2.809455711e-05
2.875989884e-05
2.925080696e-05
3.016909153e-05
3.119226614e-05
3.303161317e-05
3.526095664e-05
2.718933635e-05
2.708338253e-05
2.679289097e-05
2.650235293e-05
2.612752201e-05
2.562081117e-05
2.500611856e-05
2.435553185e-05
2.376247182e-05
2.305935524e-05
2.241019421e-05
2.17895707e-05
2.10095785e-05
2.038031599e-05
1.987745529e-05
1.927115811e-05
1.883529108e-05
1.837543073e-05
1.799439568e-05
1.776341985e-05
1.757176868e-05
1.737412931e-05
1.721226566e-05
1.712967414e-05
1.710798871e-05
1.714753614e-05
1.718508976e-05
1.726079755e-05
1.738583364e-05
1.752382944e-05
1.76310919e-05
1.780587411e-05
1.797949027e-05
1.808444368e-05
1.82558996e-05
1.849699425e-05
1.873122759e-05
1.884855354e-05
1.899674979e-05
1.917178128e-05
1.941706746e-05
1.961226809e-05
1.984898536e-05
2.005434827e-05
2.025898345e-05
2.046842928e-05
2.060474068e-05
2.082764062e-05
2.093204145e-05
2.104297721e-05
2.12318622e-05
2.148893775e-05
2.169616325e-05
2.183116456e-05
2.186219682e-05
2.221196171e-05
2.230118254e-05
2.246405912e-05
2.260907777e-05
2.27183974e-05
2.285943888e-05
2.299639905e-05
2.321013471e-05
2.330375036e-05
2.341575833e-05
2.35113073e-05
2.352993172e-05
2.373665751e-05
2.403017513e-05
2.413879159e-05
2.429941188e-05
2.443486009e-05
2.453809738e-05
2.465745774e-05
2.486427542e-05
2.505207903e-05
2.51092874e-05
2.514938904e-05
2.529859183e-05
2.549120313e-05
2.571082213e-05
2.577670484e-05
2.603110915e-05
2.615994643e-05
2.632424671e-05
2.676990818e-05
2.713810695e-05
2.744563668e-05
2.787783567e-05
2.844460749e-05
2.910438538e-05
2.964134233e-05
3.083616646e-05
3.22050264e-05
3.423904613e-05
2.733399895e-05
2.72133632e-05
2.702600055e-05
2.679178547e-05
2.650830768e-05
2.622090231e-05
2.577661058e-05
2.531923561e-05
2.482832153e-05
2.430239108e-05
2.379211867e-05
2.312962089e-05
2.246553023e-05
2.167366247e-05
2.100640877e-05
2.040061007e-05
1.979890943e-05
1.931024941e-05
1.875468824e-05
1.838224411e-05
1.800244019e-05
1.770745978e-05
1.758866074e-05
1.737529303e-05
1.719839274e-05
1.708304627e-05
1.712751412e-05
1.713571534e-05
1.715565525e-05
1.725579718e-05
1.732646237e-05
1.740703971e-05
1.758618504e-05
1.775073174e-05
1.784565158e-05
1.793669464e-05
1.811435835e-05
1.826285231e-05
1.840370447e-05
1.861033887e-05
1.886007717e-05
1.9094547e-05
1.926281401e-05
1.940819431e-05
1.964714392e-05
1.990494817e-05
2.013017473e-05
2.01810269e-05
2.031835895e-05
2.05635122e-05
2.081702822e-05
2.109095242e-05
2.121049798e-05
2.13236772e-05
2.150764236e-05
2.166205154e-05
2.186827963e-05
2.198916861e-05
2.206068596e-05
2.228612549e-05
2.245768644e-05
2.272915519e-05
2.280767092e-05
2.294891783e-05
2.306834539e-05
2.317554732e-05
2.339100576e-05
2.333082125e-05
2.349414935e-05
2.396742775e-05
2.398631021e-05
2.418628413e-05
2.433453132e-05
2.444285113e-05
2.449686485e-05
2.458551936e-05
2.468878629e-05
2.48745195e-05
2.50248052e-05
2.524646112e-05
2.538351015e-05
2.55101196e-05
2.565429545e-05
2.613761922e-05
2.627611551e-05
2.660718982e-05
2.668073974e-05
2.709319917e-05
2.755943556e-05
2.798447945e-05
2.851704365e-05
2.919030408e-05
3.007988658e-05
3.138196398e-05
3.301054636e-05
2.761301808e-05
2.742712083e-05
2.72757168e-05
2.698914541e-05
2.681000223e-05
2.653000744e-05
2.630501045e-05
2.599100004e-05
2.553892772e-05
2.521085291e-05
2.462107053e-05
2.408811988e-05
2.349119987e-05
2.281960772e-05
2.228236523e-05
2.167443936e-05
2.100368166e-05
2.04213203e-05
1.987171986e-05
1.934385162e-05
1.888547367e-05
1.845204591e-05
1.806709429e-05
1.783623591e-05
1.757147024e-05
1.741365863e-05
1.720881083e-05
1.717172686e-05
1.710529438e-05
1.709023348e-05
1.709334556e-05
1.717227291e-05
1.730855965e-05
1.731767067e-05
1.748852341e-05
1.759577609e-05
1.773325209e-05
1.785899227e-05
1.800744017e-05
1.815540915e-05
1.837131213e-05
1.853918412e-05
1.869446741e-05
1.888449421e-05
1.906263715e-05
1.923425381e-05
1.935268611e-05
1.962129959e-05
1.985944702e-05
2.000375144e-05
2.018986565e-05
2.040128215e-05
2.064970168e-05
2.078004615e-05
2.100118017e-05
2.129712997e-05
2.135285414e-05
2.155298002e-05
2.161396647e-05
2.18903353e-05
2.211569443e-05
2.228654146e-05
2.246892494e-05
2.262477122e-05
2.265221423e-05
2.273896431e-05
2.296809218e-05
2.313518741e-05
2.329050139e-05
2.341741487e-05
2.362209032e-05
2.379903354e-05
2.394812978e-05
2.405277336e-05
2.421015792e-05
2.434687412e-05
2.450870121e-05
2.451976942e-05
2.468252397e-05
2.485834581e-05
2.518108533e-05
2.529967495e-05
2.547639337e-05
2.573261933e-05
2.596996867e-05
2.621104808e-05
2.640616479e-05
2.674079771e-05
2.708862378e-05
2.755549295e-05
2.79341299e-05
2.871263861e-05
2.944502523e-05
3.048448665e-05
3.215584848e-05
2.765808379e-05
2.759080461e-05
2.754910226e-05
2.744353339e-05
2.721804835e-05
2.709485482e-05
2.685725476e-05
2.651016257e-05
2.618281656e-05
2.577684614e-05
2.543341723e-05
2.49913401e-05
2.445345381e-05
2.38420141e-05
2.320337557e-05
2.263040654e-05
2.202403009e-05
2.141024558e-05
2.081696137e-05
2.026435275e-05
1.977608184e-05
1.924990547e-05
1.879184896e-05
1.841120153e-05
1.807130853e-05
1.780548633e-05
1.751199635e-05
1.735538358e-05
1.727081793e-05
1.71472778e-05
1.706481772e-05
1.703346623e-05
1.702215077e-05
1.71119079e-05
1.719104636e-05
1.729919567e-05
1.735470107e-05
1.750832293e-05
1.759844313e-05
1.775752752e-05
1.792429063e-05
1.806904408e-05
1.820572337e-05
1.830818432e-05
1.853664577e-05
1.877599436e-05
1.902780289e-05
1.92253943e-05
1.93829052e-05
1.952040745e-05
1.963712281e-05
1.984533101e-05
2.002884294e-05
2.028396298e-05
2.042631744e-05
2.072645623e-05
2.089385984e-05
2.102745025e-05
2.120902692e-05
2.134450297e-05
2.158499785e-05
2.184706473e-05
2.187659544e-05
2.198517568e-05
2.212269914e-05
2.232590677e-05
2.250948985e-05
2.271691853e-05
2.295043991e-05
2.302657865e-05
2.308891376e-05
2.333679029e-05
2.355902206e-05
2.38314424e-05
2.381418157e-05
2.390134079e-05
2.39902356e-05
2.428602784e-05
2.444790042e-05
2.447372179e-05
2.473195429e-05
2.487393524e-05
2.510406829e-05
2.527573022e-05
2.554079649e-05
2.58241668e-05
2.597755394e-05
2.628858291e-05
2.653389321e-05
2.718818829e-05
2.762638903e-05
2.81182865e-05
2.873006963e-05
2.97469149e-05
3.086809081e-05
2.767056119e-05
2.763247483e-05
2.763309845e-05
2.754408911e-05
2.745074844e-05
2.731516849e-05
2.711109334e-05
2.684149882e-05
2.66023798e-05
2.638840653e-05
2.597304098e-05
2.558415309e-05
2.521853311e-05
2.478383437e-05
2.429315136e-05
2.373426227e-05
2.310754969e-05
2.260732905e-05
2.196599638e-05
2.136428335e-05
2.076302708e-05
2.025172828e-05
1.974384858e-05
1.929120439e-05
1.880884436e-05
1.841279191e-05
1.803894173e-05
1.772862599e-05
1.747040088e-05
1.733184609e-05
1.720493029e-05
1.70733303e-05
1.70195623e-05
1.700156631e-05
1.70538547e-05
1.706308469e-05
1.707459046e-05
1.715159227e-05
1.731926416e-05
1.738557534e-05
1.752306685e-05
1.762341864e-05
1.774096057e-05
1.788104688e-05
1.805274291e-05
1.818776836e-05
1.835984072e-05
1.855460689e-05
1.881688331e-05
1.904162712e-05
1.920250784e-05
1.936444242e-05
1.956095547e-05
1.97319154e-05
1.992508535e-05
2.011802842e-05
2.025820827e-05
2.05629993e-05
2.071347146e-05
2.091610473e-05
2.104579481e-05
2.112684665e-05
2.126224317e-05
2.147186935e-05
2.167189655e-05
2.174005855e-05
2.194461077e-05
2.213259606e-05
2.232796667e-05
2.25705131e-05
2.269107586e-05
2.2824712e-05
2.304538667e-05
2.323962864e-05
2.340954705e-05
2.350663759e-05
2.354942124e-05
2.379781067e-05
2.397573467e-05
2.414546417e-05
2.420478383e-05
2.439184321e-05
2.466891228e-05
2.487705326e-05
2.512533003e-05
2.535451744e-05
2.569309758e-05
2.593544987e-05
2.616158734e-05
2.669836717e-05
2.704059744e-05
2.753452291e-05
2.818868551e-05
2.891195117e-05
2.998364354e-05
2.771656074e-05
2.771985735e-05
2.764772508e-05
2.758704013e-05
2.756533422e-05
2.747007628e-05
2.733034933e-05
2.718165599e-05
2.699447376e-05
2.673566973e-05
2.649179347e-05
2.63009605e-05
2.592968133e-05
2.556806958e-05
2.518615413e-05
2.472681779e-05
2.419739724e-05
2.368696915e-05
2.317939239e-05
2.258932496e-05
2.194508048e-05
2.139366519e-05
2.077597848e-05
2.027604979e-05
1.977538099e-05
1.935706693e-05
1.885555703e-05
1.845867112e-05
1.812384218e-05
1.779789792e-05
1.754156116e-05
1.737367951e-05
1.722076072e-05
1.700643127e-05
1.692155418e-05
1.693243167e-05
1.696176974e-05
1.704538557e-05
1.699194441e-05
1.709632878e-05
1.717087682e-05
1.729697525e-05
1.743613703e-05
1.753730132e-05
1.757363775e-05
1.773095248e-05
1.784377659e-05
1.809437387e-05
1.822015518e-05
1.839971639e-05
1.862281297e-05
1.874186912e-05
1.898130774e-05
1.914268764e-05
1.943588752e-05
1.957913018e-05
1.966291016e-05
1.989966522e-05
2.007344301e-05
2.022638798e-05
2.041873413e-05
2.065657376e-05
2.076183758e-05
2.101153932e-05
2.127651092e-05
2.139472107e-05
2.144888032e-05
2.160063496e-05
2.177646942e-05
2.194667822e-05
2.210476817e-05
2.226525116e-05
2.241973677e-05
2.262325663e-05
2.277768127e-05
2.296602747e-05
2.321454542e-05
2.33353098e-05
2.357735533e-05
2.377353244e-05
2.387221848e-05
2.404139044e-05
2.413510767e-05
2.440931894e-05
2.467229891e-05
2.499162874e-05
2.527887912e-05
2.541156364e-05
2.572989745e-05
2.588737691e-05
2.650222241e-05
2.708736339e-05
2.759976624e-05
2.8257954e-05
2.92898997e-05
2.769774356e-05
2.77928629e-05
2.769682296e-05
2.767317451e-05
2.753761956e-05
2.749206661e-05
2.744574544e-05
2.729056576e-05
2.722847121e-05
2.706261508e-05
2.685760855e-05
2.662133134e-05
2.632307846e-05
2.60368605e-05
2.568978047e-05
2.538444781e-05
2.502988288e-05
2.456855501e-05
2.406660332e-05
2.359912295e-05
2.314653039e-05
2.262066426e-05
2.199650715e-05
2.144120112e-05
2.081172307e-05
2.027854092e-05
1.98053293e-05
1.937495563e-05
1.886478438e-05
1.848946496e-05
1.814655173e-05
1.779659177e-05
1.759074611e-05
1.741763773e-05
1.723266478e-05
1.710145809e-05
1.701964615e-05
1.696867458e-05
1.696127311e-05
1.694650609e-05
1.69399515e-05
1.701604378e-05
1.70835827e-05
1.716779846e-05
1.729382847e-05
1.74645878e-05
1.759920029e-05
1.765281876e-05
1.780193467e-05
1.795709674e-05
1.819740838e-05
1.83797535e-05
1.851267903e-05
1.864540186e-05
1.873677375e-05
1.899822578e-05
1.921434892e-05
1.93150458e-05
1.946709297e-05
1.97118105e-05
1.990552612e-05
2.004314943e-05
2.029815928e-05
2.040222567e-05
2.062009968e-05
2.080507537e-05
2.095175372e-05
2.11298721e-05
2.125177143e-05
2.144641749e-05
2.157101049e-05
2.173883934e-05
2.193023876e-05
2.208386425e-05
2.22410124e-05
2.243503061e-05
2.272627868e-05
2.288291961e-05
2.305878055e-05
2.319795593e-05
2.335239539e-05
2.352605655e-05
2.377044659e-05
2.398891565e-05
2.429141118e-05
2.455083412e-05
2.481292549e-05
2.507049827e-05
2.527626517e-05
2.553283237e-05
2.587336346e-05
2.639934824e-05
2.699031497e-05
2.743039401e-05
2.847084842e-05
2.77500419e-05
2.777104396e-05
2.772064025e-05
2.765299921e-05
2.755973854e-05
2.751726361e-05
2.748410872e-05
2.738107929e-05
2.733341709e-05
2.723456187e-05
2.716032622e-05