/*--------------------------------*- C++ -*----------------------------------*\
| =========                 |                                                 |
| \\      /  F ield         | OpenFOAM: The Open Source CFD Toolbox           |
|  \\    /   O peration     | Version:  v1706                                 |
|   \\  /    A nd           | Web:      www.OpenFOAM.com                      |
|    \\/     M anipulation  |                                                 |
\*---------------------------------------------------------------------------*/
FoamFile
{
    version     2.0;
    format      ascii;
    class       volScalarField;
    location    "0.04";
    object      mfpCellRatio_N2cold;
}
// * * * * * * * * * * * * * * * * * * * * * * * * * * * * * * * * * * * * * //

dimensions      [0 0 0 0 0 0 0];


internalField   nonuniform List<scalar> 
6000
(
0.9647547722
1.149032419
1.372439082
1.66186162
2.021079116
0.9667454139
1.152204628
1.382696154
1.681501709
1.995412995
0.9645821897
1.153246662
1.382526349
1.665539085
1.936890937
0.967122031
1.15046513
1.376823058
1.653916512
1.900480638
0.9661490167
1.152647273
1.377314296
1.648962445
1.860572193
0.9668380195
1.152246731
1.379167406
1.647339297
1.839699334
0.9645208095
1.148180258
1.366767404
1.630306494
1.799524568
0.9649912596
1.15022442
1.371993526
1.635517593
1.778354235
0.9651057409
1.146738016
1.362051674
1.624068834
1.746948693
0.9661871454
1.146486646
1.367198771
1.629338732
1.728275656
0.9647453706
1.149993586
1.366289918
1.623626688
1.699357773
0.9645532932
1.146934716
1.366035537
1.625563301
1.683556331
0.96420903
1.148396913
1.364363063
1.625134258
1.664242298
0.9653670374
1.148611021
1.365880032
1.624311228
1.64482001
0.9651833851
1.148914851
1.365216904
1.625716296
1.622672028
0.9623675407
1.145916059
1.361261751
1.598636562
1.600787167
0.9636719077
1.147261349
1.363331698
1.588254974
1.584827902
0.9646678278
1.146374868
1.362973093
1.560216869
1.561112131
0.9651946818
1.147443109
1.364182773
1.546643848
1.550927492
0.9648453004
1.147511026
1.364544289
1.531415679
1.531300162
0.9663259359
1.146945357
1.362824436
1.512134155
1.506266281
0.9629708665
1.14607322
1.361651898
1.492162746
1.491088209
0.9647539704
1.146813397
1.36587026
1.48008109
1.480888639
0.965097137
1.149319141
1.369678144
1.463561476
1.461406109
0.9638975044
1.145258934
1.360062104
1.43611894
1.437704783
0.9644737633
1.146377216
1.361669599
1.423214381
1.424849071
0.9639162374
1.144814786
1.359934575
1.407442001
1.40725203
0.9664380926
1.150333088
1.366280715
1.394703445
1.392265798
0.9645341098
1.147741332
1.365678759
1.377284321
1.378187
0.9650426337
1.149265834
1.361620756
1.364218599
1.36051744
0.9636546588
1.145175611
1.343051814
1.343586642
1.340890723
0.9653895597
1.148818995
1.329195387
1.32630806
1.330413673
0.963873811
1.14425519
1.310125368
1.30810872
1.309491315
0.9644007426
1.146634656
1.296556352
1.299398388
1.298677848
0.9642654228
1.146062508
1.281222861
1.277847799
1.276949575
0.9644184535
1.149526043
1.270153082
1.270687523
1.271835541
0.9647176539
1.149501139
1.254843935
1.257075093
1.25385906
0.963650064
1.142181536
1.230827844
1.231534998
1.23225951
0.9648979011
1.147147626
1.222147758
1.222742304
1.222978411
0.9654807612
1.148957771
1.212413964
1.212326532
1.210558904
0.9636269787
1.146294266
1.192374004
1.194225715
1.191730486
0.9651618587
1.146936754
1.183600438
1.181614472
1.184966145
0.9670648233
1.150914616
1.168649002
1.166956354
1.168056723
0.9637988894
1.146355033
1.15307226
1.153143735
1.153256197
0.9629896137
1.137783462
1.138469969
1.138922481
1.139843917
0.9665248301
1.128763385
1.129760155
1.128931708
1.12806593
0.9637410753
1.112396761
1.113832487
1.114016363
1.113376104
0.9651925319
1.101108664
1.09938712
1.099677248
1.100346341
0.9640749275
1.087139661
1.086075737
1.088054741
1.087944476
0.9651051119
1.075561565
1.076932405
1.073472721
1.075382304
0.9648096253
1.061380993
1.061317784
1.061603741
1.06170995
0.9646984168
1.049826476
1.050075129
1.050082675
1.050426137
0.9633276985
1.035538132
1.037293368
1.036090657
1.034219881
0.9656699195
1.025730143
1.026553838
1.025911931
1.024911449
0.9655856872
1.014444961
1.014752503
1.014037636
1.014675878
0.9632995146
0.9994403807
0.9989628551
1.000504632
0.9993786589
0.9641430338
0.990957581
0.9902131204
0.9905859025
0.9897113018
0.9648700811
0.9777097173
0.9780155961
0.9787614173
0.9787795886
0.9635450862
0.9667134289
0.9669545412
0.9662510718
0.965054956
0.9554908676
0.9556229356
0.9552182219
0.955290979
0.9575358741
1.856020721
1.797116008
1.812487529
1.835141296
1.849500535
1.858459564
1.860988193
1.854935442
1.859986101
1.846554026
1.84461568
1.840648347
1.830123861
1.810556216
1.79364067
1.788542901
1.78249843
1.792078888
1.78568541
1.782779664
1.76288372
1.757366323
1.761299786
1.762199366
1.755296921
1.738075299
1.729330008
1.726232078
1.718415615
1.730164675
1.724965008
1.693990933
1.699210017
1.684304605
1.673920265
1.654211915
1.64945932
1.645970086
1.651010323
1.634158151
1.619964793
1.627236928
1.633049841
1.620414035
1.601375827
1.598803093
1.593519648
1.598562361
1.583668795
1.572338037
1.563543881
1.564501483
1.550372347
1.540275964
1.538978163
1.513803497
1.518953746
1.506910722
1.495081042
1.498203539
1.483137726
1.468015297
1.462274181
1.453126202
1.448604868
1.444949971
1.430060649
1.426655225
1.415999749
1.413198798
1.418153099
1.416779456
1.394736491
1.368247492
1.372113379
1.37665725
1.374425163
1.363479188
1.354519214
1.35771328
1.341227519
1.355871034
1.344616074
1.352609234
1.353287573
1.358942822
1.367421422
1.375209039
1.386585268
1.421623414
1.465756043
1.508884556
1.568130137
1.695430516
1.941947516
1.939874273
1.821337318
1.732929211
1.699501417
1.695760265
1.701940377
1.721955373
1.738637023
1.755366858
1.770713147
1.778146254
1.783574328
1.79918182
1.792394988
1.808702631
1.804764224
1.801921308
1.803729212
1.81360347
1.8151718
1.797718138
1.794922745
1.805143794
1.796879684
1.791289864
1.786129419
1.775668925
1.775259198
1.770588117
1.757468635
1.762523758
1.756509612
1.759327195
1.755062624
1.735222615
1.735844589
1.720010601
1.723919611
1.711608768
1.706062252
1.704804658
1.69654372
1.683604007
1.680333245
1.665223111
1.660786989
1.667300185
1.651844764
1.646778144
1.637454961
1.627451189
1.626863315
1.615114536
1.606683168
1.582649508
1.573247688
1.574038673
1.565082336
1.559441715
1.54822018
1.554236681
1.533628989
1.516703958
1.508160891
1.505865676
1.502455932
1.492071063
1.475430056
1.477568986
1.478498375
1.468537519
1.458266488
1.444760291
1.442206525
1.429385706
1.427291715
1.425929717
1.407597421
1.40897331
1.408056524
1.402071252
1.390503066
1.400376149
1.403098019
1.409343429
1.413271801
1.425174929
1.422651934
1.437252514
1.462886275
1.49985899
1.545377425
1.623773837
1.737288318
1.968326544
1.931695569
1.878324472
1.806868026
1.742400564
1.686132019
1.650733225
1.637097884
1.638210275
1.64222843
1.65368567
1.664386874
1.680170526
1.692838815
1.707513937
1.72024685
1.728979551
1.735729153
1.740095201
1.747635228
1.752194788
1.76190622
1.759898758
1.765098419
1.776511116
1.783145472
1.778354163
1.772443862
1.765808069
1.774519096
1.764407961
1.758168691
1.753137551
1.766144408
1.757687438
1.748987059
1.741688749
1.740781561
1.725573586
1.732176645
1.734733174
1.725045614
1.718054717
1.70208897
1.699828362
1.697281832
1.686184788
1.671831479
1.671877251
1.67310043
1.679119215
1.659168582
1.656712316
1.64777127
1.645467871
1.620470328
1.610880574
1.604530032
1.597571681
1.594245379
1.583627447
1.578286413
1.564359095
1.552404589
1.547101704
1.546532774
1.535268928
1.519954724
1.515139194
1.507067044
1.507038228
1.508081654
1.492496734
1.488410565
1.477803265
1.469395036
1.455680239
1.450443731
1.448532126
1.429658814
1.435218884
1.432758252
1.422394468
1.434727535
1.442237977
1.444228366
1.442529268
1.447164732
1.456478537
1.464694225
1.486440505
1.527815646
1.574342109
1.628245966
1.744782561
1.938704872
1.912970259
1.88574387
1.839579532
1.787589091
1.730857499
1.681372224
1.638162153
1.607841331
1.590167737
1.576828825
1.578642136
1.587451721
1.594504476
1.61047191
1.618485313
1.631735443
1.635744095
1.646494716
1.659105189
1.67949014
1.686662486
1.695246332
1.708841751
1.716260686
1.724578533
1.731370375
1.730299976
1.731031039
1.737771693
1.748267362
1.73053572
1.731161362
1.735849857
1.744242262
1.734229584
1.725332633
1.724625416
1.720668637
1.709842108
1.711751543
1.716101171
1.724970393
1.716683432
1.702084816
1.703139867
1.69890374
1.688356201
1.675683322
1.678648389
1.666307869
1.665221841
1.664870954
1.657789684
1.657530272
1.649214647
1.629232474
1.625877681
1.620731948
1.613220053
1.603575389
1.597727146
1.586795679
1.568427857
1.577248018
1.563222073
1.554968178
1.550990226
1.533570997
1.516304687
1.520404809
1.523472932
1.522313334
1.505214816
1.499741135
1.492368262
1.495448063
1.485649713
1.473169744
1.460304864
1.466258053
1.454424997
1.454789837
1.455726717
1.465002105
1.461645312
1.460969055
1.46646932
1.468460561
1.482681795
1.516916319
1.543226945
1.573044812
1.637741371
1.742740212
1.896848784
1.865804872
1.865625645
1.842188613
1.807337698
1.773312624
1.720475876
1.674694488
1.627566362
1.587624485
1.563452614
1.544308631
1.534054194
1.528619531
1.531259665
1.530234074
1.536696919
1.543860069
1.559019884
1.569596137
1.583719845
1.588804988
1.608643296
1.618515593
1.625423092
1.635107371
1.638716841
1.653371713
1.665431784
1.673843391
1.675298212
1.67725264
1.680814843
1.683184747
1.679697243
1.680678255
1.687413742
1.685732177
1.690721528
1.685374233
1.686075676
1.689149359
1.698569695
1.696994946
1.69863934
1.692180512
1.688625419
1.670197928
1.670954361
1.662612666
1.660161025
1.663031552
1.657987926
1.655896319
1.644545026
1.642576582
1.634137001
1.636994545
1.628807278
1.635182346
1.615856229
1.616381632
1.596691248
1.588020328
1.584014543
1.578747598
1.559680159
1.559559577
1.549076226
1.537487477
1.532078929
1.530655164
1.526917467
1.526296125
1.511779107
1.5152623
1.511285512
1.491475933
1.488729827
1.472821455
1.475261205
1.472047963
1.468025482
1.460766568
1.47017834
1.479165697
1.487775978
1.483447181
1.481481002
1.492806291
1.507787016
1.539366106
1.585241478
1.634399617
1.715316609
1.84548994
1.842497081
1.842918157
1.828680407
1.809484527
1.779252204
1.74256502
1.699991405
1.663465723
1.623851009
1.578643276
1.541283639
1.51414645
1.494618684
1.478123086
1.479491007
1.48029768
1.479551755
1.480217812
1.484958948
1.494440116
1.500341832
1.511928162
1.522135473
1.535382006
1.54626837
1.557657533
1.572461823
1.580364603
1.588706563
1.599215627
1.607838783
1.609210002
1.615199435
1.619507861
1.615647227
1.626746369
1.639201887
1.64516054
1.643965067
1.643747855
1.647383175
1.646160212
1.650955957
1.651634484
1.649643438
1.650898906
1.650906284
1.643952683
1.644304798
1.650254213
1.644133265
1.635728752
1.641666725
1.643302337
1.628809075
1.619505804
1.621709381
1.622790384
1.615525811
1.612673389
1.60344448
1.589917153
1.582362226
1.574146373
1.569495965
1.56600246
1.55398371
1.556080216
1.541425828
1.533795828
1.542188066
1.530844625
1.536570824
1.519638817
1.516303505
1.515677009
1.493235483
1.492050558
1.480348896
1.479089619
1.479289624
1.469141536
1.467040277
1.468502055
1.47743793
1.485684531
1.481681072
1.488718761
1.492441362
1.511397191
1.539154301
1.583963395
1.624578353
1.693813433
1.798178734
1.800230896
1.803522962
1.81136302
1.795757086
1.781444653
1.7609555
1.725202108
1.68875491
1.6505583
1.613304124
1.573588003
1.530244609
1.49971418
1.478022048
1.452428901
1.439951209
1.430910511
1.426452651
1.423396671
1.423005302
1.428411253
1.435501636
1.443677791
1.450253605
1.460740198
1.472365682
1.480238608
1.494730301
1.499110871
1.508847316
1.518935544
1.529695294
1.538868529
1.549800392
1.55657482
1.566932197
1.573316069
1.586399452
1.577322626
1.584943418
1.594779818
1.593842499
1.602185432
1.601076039
1.604350522
1.610777292
1.612342154
1.607759498
1.61225399
1.621777632
1.614392609
1.611248955
1.610476682
1.600180596
1.59497032
1.591326966
1.592555857
1.593542556
1.592753276
1.593308851
1.580385884
1.568274108
1.565829616
1.55932142
1.560346274
1.557559752
1.550401556
1.547902195
1.540897356
1.539012748
1.539943989
1.525348978
1.516960023
1.508451612
1.508859617
1.508699146
1.502346736
1.488934896
1.500309854
1.479212335
1.467956807
1.460510948
1.459713178
1.464936152
1.47275652
1.478348547
1.48819502
1.490342338
1.506038115
1.509974569
1.544845486
1.571550461
1.609997801
1.673112699
1.747876203
1.786043464
1.780431583
1.778905667
1.780528455
1.768696299
1.754917149
1.736597681
1.709151565
1.675304727
1.642248356
1.605048125
1.570034036
1.522221977
1.482782315
1.456550833
1.430118883
1.408532314
1.396252495
1.381316388
1.377455244
1.375975743
1.374356567
1.379104082
1.381210282
1.390611571
1.399136281
1.40803972
1.412583722
1.429175115
1.440979145
1.44972001
1.461674923
1.468721979
1.475566119
1.484515854
1.492747188
1.493619543
1.497257786
1.515458221
1.51932535
1.521689095
1.53344193
1.542476395
1.552355306
1.555355068
1.550183897
1.553694604
1.55593741
1.560481811
1.561082175
1.556760379
1.556614451
1.560242157
1.561643859
1.565024872
1.563505305
1.563097842
1.556510016
1.555897065
1.549620198
1.546742813
1.538621127
1.535657006
1.533470665
1.529640241
1.530728071
1.529040196
1.526553595
1.525233067
1.518638227
1.519355366
1.517097788
1.51411557
1.506073003
1.502061242
1.503175303
1.493485955
1.481985809
1.492683461
1.485488799
1.479964589
1.466731719
1.471099244
1.462679146
1.462119213
1.470250134
1.469612745
1.484055907
1.499603308
1.512096376
1.520296584
1.545087741
1.573325032
1.61672666
1.677999799
1.748361044
1.747313073
1.74864616
1.749593787
1.747125319
1.739275485
1.728548414
1.712902397
1.691561285
1.662942714
1.634454353
1.601723597
1.568593716
1.531456738
1.489695078
1.456108709
1.425733476
1.403516482
1.383899412
1.365031378
1.34886591
1.336435504
1.33451107
1.336246034
1.335146665
1.336020771
1.340711861
1.348040464
1.349811996
1.359365225
1.370868092
1.378569431
1.383415789
1.394813611
1.40109454
1.413227819
1.416739115
1.426287809
1.442422202
1.454226463
1.459870269
1.462897994
1.470854989
1.47766876
1.485594445
1.490512613
1.494198699
1.500749283
1.503907821
1.505266551
1.510469907
1.514129997
1.513102356
1.524654953
1.527605866
1.526889697
1.519575549
1.522712551
1.518499012
1.510312307
1.513427751
1.512510026
1.51278286
1.506064613
1.506103219
1.509462097
1.512845682
1.508959556
1.506779513
1.497210596
1.49401091
1.495135572
1.485286518
1.481954744
1.47818345
1.475398919
1.47358741
1.474651358
1.469099332
1.468060161
1.462848827
1.453898955
1.455872852
1.462977304
1.456987402
1.450112103
1.461309454
1.462222931
1.474665549
1.492833238
1.494765631
1.517866221
1.543174516
1.593904651
1.652146032
1.72523381
1.734945596
1.733629361
1.733041183
1.731858949
1.726584897
1.718648707
1.704884939
1.688141583
1.669055911
1.644524306
1.620205867
1.590258723
1.562973058
1.533765374
1.494209487
1.45588338
1.416939625
1.386937459
1.364441337
1.345061465
1.327013542
1.308964705
1.298069414
1.291745054
1.291028848
1.289885619
1.28961294
1.295979371
1.302385942
1.304730503
1.3141716
1.322057248
1.325011218
1.333492792
1.346882409
1.359548042
1.363132212
1.367044546
1.374613237
1.385095645
1.393691984
1.404074356
1.413418479
1.419763777
1.428497259
1.430039479
1.437929385
1.442505033
1.442987377
1.448390918
1.455712362
1.463818095
1.46346685
1.46046633
1.472285694
1.472846067
1.475702097
1.47714498
1.476915029
1.476438879
1.47534274
1.479297065
1.479705049
1.475288927
1.471932004
1.462222017
1.465386836
1.473468659
1.468256086
1.469346479
1.467392876
1.464619281
1.459616657
1.461126416
1.46178369
1.457506352
1.452333542
1.448871521
1.447057835
1.447635057
1.44202694
1.442486307
1.436760875
1.43436196
1.443484503
1.449047148
1.450227871
1.453557342
1.467848012
1.48013696
1.488765275
1.521654143
1.554312138
1.605379682
1.700043058
1.701586966
1.703950807
1.705545117
1.705189579
1.706790685
1.703055443
1.700568378
1.692108305
1.680123292
1.666344465
1.646421982
1.620698421
1.590734187
1.558208491
1.528684008
1.493842994
1.457523633
1.417638088
1.383014554
1.352163039
1.326981638
1.310899546
1.290198679
1.27382894
1.260811913
1.258563441
1.2527617
1.251195394
1.251564272
1.255515759
1.256869231
1.262057764
1.27165592
1.271455796
1.274344656
1.282114928
1.288817994
1.295959466
1.303508806
1.314176265
1.326365867
1.33279581
1.339228656
1.349947106
1.361842902
1.371299526
1.369940942
1.373048808
1.384915847
1.394385678
1.404026675
1.404973504
1.405719061
1.4095263
1.41173284
1.420546291
1.42087896
1.419179331
1.425218588
1.427259501
1.436234559
1.43538719
1.433657775
1.432289596
1.431246118
1.434618382
1.425825812
1.424207654
1.442507465
1.438855847
1.439174981
1.438432128
1.434706865
1.428762003
1.421903604
1.418260767
1.419743603
1.418394789
1.419690532
1.418344048
1.416449325
1.412844684
1.426409851
1.424836961
1.425220611
1.417912818
1.424753488
1.433193164
1.437165766
1.445981767
1.461499489
1.478656084
1.507747791
1.546461844
1.685538105
1.682593721
1.683463627
1.679924457
1.683035813
1.683758816
1.679685989
1.681304597
1.674140723
1.672929103
1.655857342
1.643626879
1.626965059
1.605003542
1.585413992
1.558886059
1.527999048
1.499941857
1.466488278
1.427147532
1.39196354
1.356816306
1.324674747
1.30206315
1.280685658
1.26308729
1.2434447
1.232287777
1.222427292
1.216296496
1.212089918
1.212854872
1.215784685
1.213701614
1.220278258
1.222914273
1.227814917
1.232754234
1.238459559
1.245838474
1.251116773
1.259119692
1.266603667
1.276734499
1.281228612
1.28767482
1.290836505
1.30224678
1.311335409
1.314029564
1.323351135
1.332119567
1.341625753
1.346740928
1.353697127
1.36226288
1.36271954
1.369330214
1.367452018
1.376406068
1.382282721
1.384856633
1.388641151
1.391963266
1.38953078
1.387870287
1.391554931
1.394097574
1.394171621
1.392122341
1.396396916
1.400944786
1.400049647
1.396568949
1.397539605
1.396845542
1.396962186
1.386487694
1.385807223
1.387485545
1.39478987
1.393013268
1.390086035
1.390325421
1.390040713
1.391376999
1.391068263
1.395867017
1.402416039
1.406225949
1.406409491
1.426534457
1.439188172
1.463368677
1.505127183
1.663842091
1.667170185
1.667776763
1.672014284
1.669200187
1.671099201
1.670387083
1.665070738
1.65699653
1.652829253
1.646427002
1.638998037
1.624583549
1.606928952
1.586900816
1.565768098
1.540007985
1.515999634
1.488416462
1.462154637
1.426341279
1.387460137
1.351682792
1.321061323
1.290472595
1.268901262
1.243526009
1.227573303
1.215057169
1.19943999
1.189146703
1.181415155
1.174802078
1.175763414
1.175059511
1.178379258
1.178902717
1.182907871
1.184915764
1.190630803
1.197236057
1.201424772
1.206755991
1.210866294
1.219607165
1.231182035
1.244816838
1.251483034
1.254580276
1.259271431
1.260375749
1.267454729
1.275096269
1.286049076
1.293049609
1.304629652
1.309861621
1.311165736
1.316751095
1.318644321
1.325030485
1.333834775
1.33011453
1.331107867
1.335437339
1.342941354
1.345440683
1.349696258
1.355411571
1.353165021
1.349635375
1.356170179
1.360598702
1.365254413
1.35830297
1.354959773
1.354931082
1.36149299
1.359494693
1.351597556
1.354945898
1.354889255
1.357145751
1.353805592
1.356684286
1.358520788
1.353992268
1.3575362
1.361034312
1.37610357
1.382886899
1.390030621
1.401468156
1.42445876
1.445219038
1.643985318
1.645364831
1.646498946
1.644723772
1.646905105
1.646433801
1.645528437
1.643568975
1.639926398
1.637614093
1.629078013
1.621177849
1.615743125
1.60569621
1.595661239
1.575932044
1.555025632
1.536154109
1.512086212
1.485732938
1.456223732
1.426311068
1.392449064
1.357431643
1.321653083
1.290345719
1.261525717
1.236332203
1.213389322
1.196379498
1.181252372
1.166485018
1.156506581
1.151085726
1.147704669
1.142225853
1.138631602
1.139053891
1.145208322
1.145041246
1.147698633
1.14922495
1.153353026
1.159025495
1.164728461
1.168217947
1.172753477
1.183686024
1.195123229
1.203583468
1.208609289
1.213933373
1.221062107
1.226408494
1.233079034
1.239326011
1.247296283
1.260147318
1.264258644
1.271540899
1.272114246
1.268902637
1.273443529
1.279580418
1.284008291
1.283449168
1.287770923
1.293275935
1.2991731
1.305306689
1.304981578
1.30479112
1.30920979
1.313545713
1.316655826
1.314653748
1.311260508
1.315195977
1.315440869
1.315618347
1.3123387
1.31263263
1.316279547
1.318386672
1.321508824
1.322728624
1.328398363
1.331524451
1.329352608
1.340955814
1.345144616
1.350028518
1.3640078
1.374553362
1.398539873
1.621760214
1.622896016
1.621060146
1.622057615
1.622987402
1.62289549
1.624752366
1.621244274
1.620899877
1.621154862
1.616565318
1.615600274
1.608970286
1.602601663
1.5932915
1.58315966
1.567174038
1.551940212
1.532271755
1.512059355
1.485793487
1.462024975
1.434498683
1.40085047
1.365205617
1.334965328
1.297055769
1.26632558
1.238808368
1.213572468
1.190477369
1.174081013
1.156438267
1.136812542
1.125327967
1.118079673
1.115550398
1.113627084
1.1054481
1.106108842
1.106820661
1.10945373
1.112673765
1.115287368
1.112918919
1.117668458
1.119420012
1.128984502
1.133793517
1.14140003
1.149328891
1.153390846
1.162228558
1.168199056
1.17981659
1.182481816
1.185639913
1.193167885
1.20016391
1.203462242
1.209358607
1.218774485
1.220866821
1.229275722
1.237098736
1.240762462
1.239594423
1.240988772
1.246114213
1.247829962
1.249507399
1.254026638
1.253942069
1.256217409
1.260444199
1.265676018
1.270812875
1.26946223
1.275181024
1.279488488
1.277660917
1.27786278
1.275769982
1.280388699
1.283195592
1.289355658
1.292257785
1.289985431
1.294439618
1.292704468
1.305894764
1.318871111
1.326457198
1.336767238
1.357421679
1.598294617
1.605779018
1.60273794
1.606290657
1.604129498
1.603561863
1.603611858
1.604430545
1.605427043
1.600887302
1.597821722
1.59339417
1.584936128
1.58191671
1.573052529
1.569985835
1.563110979
1.553542766
1.540504311
1.524214722
1.510803629
1.491774691
1.466189092
1.442487593
1.409143045
1.371948801
1.337941816
1.306105382
1.271050829
1.240557975
1.211824804
1.185140638
1.164817763
1.148652332
1.131973927
1.116733091
1.105800644
1.095749502
1.090229756
1.083938517
1.078746512
1.077119223
1.075920428
1.076202635
1.07864222
1.083894612
1.087307813
1.086364587
1.090139069
1.095413404
1.103230604
1.108357341
1.113587192
1.116677221
1.118721654
1.129291443
1.137529636
1.137685176
1.14307357
1.151124878
1.15716752
1.161771994
1.169525556
1.171568012
1.179806848
1.183873405
1.187337339
1.193867751
1.193180259
1.198667409
1.199532421
1.204174445
1.208741249
1.210055091
1.211747261
1.215762551
1.224014482
1.226398339
1.228635088
1.229855439
1.231560608
1.234205749
1.239010637
1.243383986
1.248422306
1.253321103
1.257835899
1.259876211
1.259976887
1.262085256
1.264273567
1.274961058
1.288821966
1.291804906
1.311821526
1.581972424
1.583423046
1.583134568
1.580424443
1.576884207
1.578897756
1.580552553
1.577925345
1.579218841
1.583747482
1.580886568
1.582153198
1.587263531
1.580596604
1.579894507
1.566441439
1.563592198
1.552369453
1.543565123
1.527784639
1.511025002
1.495709392
1.474330784
1.452628303
1.436699772
1.414312999
1.3825516
1.345588943
1.310976507
1.277531903
1.248537069
1.219335783
1.195900783
1.17079213
1.147411094
1.126194318
1.106141228
1.091218098
1.079589856
1.070853315
1.063988687
1.05482045
1.053963996
1.050573739
1.047012231
1.044138277
1.044616855
1.048504581
1.051379047
1.053343486
1.054171157
1.060033726
1.06021892
1.065537197
1.070324515
1.071786712
1.078342469
1.088160224
1.097160252
1.102444629
1.109946473
1.117150133
1.120772383
1.128083391
1.133177686
1.135803013
1.139593212
1.142474925
1.146873773
1.150228191
1.154088812
1.15750373
1.160789054
1.166302956
1.170442702
1.173521544
1.177349158
1.17846243
1.18271843
1.18941451
1.196450596
1.194614525
1.195052954
1.197879342
1.197650412
1.202037246
1.211628076
1.21971664
1.222897101
1.227842026
1.22862508
1.229546077
1.233642067
1.252347467
1.261681572
1.559984531
1.557636619
1.558393928
1.561565491
1.563596744
1.56629581
1.567008905
1.570981319
1.571037665
1.569090622
1.567826233
1.564653821
1.562531821
1.564014326
1.559611999
1.557689666
1.554622007
1.548378115
1.539131637
1.529544981
1.521219786
1.508878042
1.492988178
1.478593679
1.456582354
1.435843601
1.4145468
1.386817355
1.356094908
1.321672455
1.287792198
1.255388914
1.221961142
1.1931698
1.166161202
1.145133985
1.121310671
1.099837207
1.082856201
1.066999626
1.05329713
1.044448983
1.032575096
1.02959023
1.023871038
1.024301534
1.02045897
1.015970787
1.014605043
1.01598257
1.018118285
1.024294275
1.023640718
1.026560303
1.027991636
1.031571081
1.037252599
1.041986112
1.047363336
1.051957279
1.057807819
1.062048738
1.066955451
1.073820687
1.074357035
1.08350712
1.085939236
1.088049518
1.093983638
1.10216191
1.106881177
1.110785371
1.117429061
1.122335571
1.127172852
1.135036345
1.138302583
1.142387224
1.1414378
1.143487218
1.145720925
1.155651836
1.157439548
1.157562906
1.159729507
1.164392088
1.167060814
1.166750574
1.171311799
1.174421043
1.179853634
1.191436749
1.197961625
1.208371133
1.217613273
1.549912342
1.5503299
1.55077755
1.553025926
1.554093292
1.54897216
1.550347391
1.546037568
1.546639736
1.544845428
1.544854573
1.548951925
1.543461619
1.537444625
1.540977329
1.537342682
1.535408794
1.537463065
1.532252016
1.528396583
1.516353232
1.509569775
1.499185142
1.485893298
1.470043985
1.453213244
1.438244794
1.417697319
1.394286559
1.369260091
1.330834715
1.296957009
1.26064562
1.230731241
1.199854953
1.168828665
1.145966602
1.121194792
1.098693687
1.079083943
1.062252872
1.047277706
1.034647798
1.02115064
1.012509291
1.006137178
1.000487372
0.9950241471
0.9904326171
0.9860844336
0.9850280166
0.9835909591
0.9875109419
0.9909133343
0.995308929
0.9961071053
0.9981405984
1.001567659
1.004404915
1.011213762
1.015617929
1.021683635
1.022912228
1.025652447
1.033528336
1.037290815
1.041859016
1.050182378
1.0517783
1.05168576
1.059507958
1.065595666
1.070912785
1.075218357
1.079843904
1.081721886
1.085589137
1.09235634
1.096222843
1.104407406
1.11051024
1.110359489
1.111485162
1.116301869
1.11700495
1.122382838
1.124669786
1.130754263
1.13554064
1.138485353
1.145004247
1.148219801
1.152585873
1.158988613
1.173360801
1.531189096
1.532554845
1.532668831
1.52805681
1.529614639
1.52570803
1.525751384
1.526049494
1.524726176
1.525790912
1.525020867
1.528068743
1.528103962
1.527912708
1.52777196
1.525827084
1.523422536
1.520465187
1.515209303
1.512755078
1.51276023
1.503790568
1.499277547
1.488725229
1.481569329
1.470960475
1.454037493
1.436722081
1.421988225
1.399652633
1.37841123
1.346106218
1.313744282
1.277651517
1.245994533
1.213156155
1.183704076
1.152696492
1.129536893
1.102365029
1.080735969
1.058752442
1.042594584
1.025679913
1.013616832
0.9980189006
0.9888381791
0.9833113091
0.9782796037
0.9722111489
0.9684540976
0.9642813142
0.9610856685
0.9612827235
0.9617588807
0.9644468144
0.96551059
0.9664678929
0.9685939041
0.969632865
0.9729737557
0.9769703724
0.9833825814
0.9894771034
0.9915924954
0.9976114057
1.00101014
1.007789976
1.014231397
1.019075479
1.021719759
1.023147073
1.02257149
1.028330454
1.031469149
1.037508656
1.043742136
1.04727694
1.05255849
1.053022553
1.055460615
1.061166039
1.068911106
1.070812391
1.076018422
1.073634204
1.079684558
1.082655251
1.087836137
1.094138889
1.098843969
1.105677421
1.109037523
1.115802472
1.12295202
1.506939101
1.504781956
1.508569129
1.505927291
1.508701406
1.508060128
1.506475349
1.509943866
1.51128674
1.512635294
1.511926936
1.513088277
1.51202955
1.513632817
1.509699121
1.50699114
1.507245898
1.501558517
1.499284573
1.493142111
1.493478622
1.486660005
1.485033036
1.48024149
1.473890444
1.465021215
1.455753458
1.441363258
1.427673806
1.413161772
1.39729273
1.378923725
1.355114941
1.324861236
1.288715815
1.256007789
1.2232265
1.193972549
1.16139864
1.134164589
1.109533393
1.083377872
1.062648405
1.041639267
1.021385051
1.007517981
0.9921793054
0.9795047091
0.9708486875
0.9642062424
0.9590587306
0.9523959632
0.9487030004
0.9448079137
0.9424327549
0.9394220375
0.9393160978
0.9373328309
0.9375046091
0.9368785033
0.9390920531
0.9426446479
0.9464921634
0.9504470149
0.9549818671
0.9596860707
0.9648647548
0.9667659415
0.9678074957
0.9713432972
0.9747466982
0.9789581672
0.9876626567
0.9893881904
0.9922346957
0.9966215877
0.9986650923
1.001495731
1.006251659
1.012338411
1.016244503
1.016082618
1.018600245
1.022391981
1.028462766
1.033965591
1.036309115
1.042136354
1.047244657
1.054394995
1.05818338
1.061090528
1.066519491
1.0740322
1.079926939
1.489333324
1.49081419
1.490582513
1.492934985
1.489870109
1.491907996
1.492897991
1.494901779
1.492026381
1.490871253
1.488460081
1.487950836
1.486897631
1.488096193
1.487096419
1.487446038
1.488267152
1.487795095
1.489934399
1.491752023
1.486644063
1.485456937
1.475124076
1.47418214
1.466675639
1.462315192
1.455084077
1.45003559
1.438956118
1.42623166
1.411913708
1.395926668
1.376151673
1.358059265
1.330537809
1.299441526
1.269521628
1.235199861
1.203769396
1.171570318
1.141311
1.114725183
1.086605664
1.063518247
1.043627363
1.024612674
1.006168724
0.989906132
0.9735551049
0.9598891814
0.9488164541
0.9415111692
0.9354861743
0.9285777792
0.9232351946
0.9186838531
0.9148112445
0.915653149
0.9154447452
0.9115497779
0.911107674
0.9075507757
0.9115214199
0.9131727846
0.917594354
0.920601813
0.9228090283
0.9275704137
0.9301705573
0.9329358549
0.9374321515
0.9412386624
0.941278453
0.9465237951
0.9519039409
0.9556494436
0.9590295748
0.9641093191
0.9659065147
0.9697244855
0.973758487
0.9802683938
0.9837149781
0.9890633278
0.9929692675
0.9937533268
0.9978118455
1.000884134
1.00673051
1.007521299
1.014148951
1.018584678
1.027971273
1.033150292
1.040274534
1.485556438
1.484341277
1.483013203
1.486137235
1.483606305
1.486623034
1.484914075
1.482347348
1.4831698
1.48056851
1.482244756
1.479989851
1.47900628
1.476800046
1.477035082
1.481112247
1.479297628
1.478046216
1.474865454
1.475209244
1.47303375
1.47344122
1.472647617
1.469193222
1.46630704
1.460891369
1.452926322
1.443562169
1.438306556
1.426479794
1.41729328
1.403059747
1.39185703
1.374027072
1.357817771
1.335619196
1.306667317
1.27528822
1.24463218
1.21555599
1.185938727
1.154311881
1.125509091
1.096602495