/*--------------------------------*- C++ -*----------------------------------*\
| =========                 |                                                 |
| \\      /  F ield         | OpenFOAM: The Open Source CFD Toolbox           |
|  \\    /   O peration     | Version:  v1706                                 |
|   \\  /    A nd           | Web:      www.OpenFOAM.com                      |
|    \\/     M anipulation  |                                                 |
\*---------------------------------------------------------------------------*/
FoamFile
{
    version     2.0;
    format      ascii;
    class       volScalarField;
    location    "0.04";
    object      overallT_N2cold;
}
// * * * * * * * * * * * * * * * * * * * * * * * * * * * * * * * * * * * * * //

dimensions      [0 0 0 1 0 0 0];


internalField   nonuniform List<scalar> 
6000
(
301.0733208
304.4164901
312.6402943
340.1941645
450.8702863
301.9476371
305.6696874
318.4223543
353.7545617
430.5979933
301.5784302
305.5262671
318.9051312
344.2051546
390.644378
301.6570858
306.5926257
316.4940286
336.1448072
364.1502035
301.8106922
304.7180459
312.4819979
324.7678053
341.3177878
300.3742188
302.7735726
309.0256293
317.5867924
330.6037755
300.7156528
302.6565212
306.562157
312.5140346
321.8731266
301.8058225
302.8942425
306.0100368
310.0717905
316.3464632
301.1767411
302.1578708
304.1115393
307.6351979
310.9079917
300.5917089
301.4157457
302.4966836
304.4233182
307.5518954
299.892329
300.7181491
302.779168
303.8155412
304.9179539
300.6385032
300.8860427
301.3240125
302.8348261
304.0953372
300.8573335
301.0777869
301.2433167
301.6349643
302.1942629
300.2677466
299.9665195
300.7250378
301.5568484
302.6152815
300.0065524
300.76003
300.7719871
300.7096462
301.1108404
299.8778677
299.8091346
300.096699
300.4840234
300.6434301
299.6401233
299.8188407
299.6444877
300.0311589
300.6345236
299.4901271
299.3939849
299.6784619
300.1581727
300.1722742
299.2567511
299.509131
299.6953886
299.5742521
300.1696887
300.2259728
299.987844
299.7723256
300.0258862
299.931168
300.543016
300.280633
299.8055745
300.0287525
300.3578412
299.4320326
299.769152
299.7212485
299.3725871
299.1741924
299.6132363
299.3731612
299.4810784
299.7617454
300.003805
300.3212347
300.2279954
299.89461
299.3337041
299.6151565
299.787693
299.7768857
299.8805949
300.1560138
299.6290109
299.4352416
299.7808898
299.5755073
300.1778351
299.7604474
299.5041845
299.087341
299.2880415
299.2680125
299.1532179
300.1028035
300.0627914
299.9118308
300.3462166
300.6627848
300.2074284
300.1175563
300.071616
299.6421209
299.6077247
300.118148
300.1467264
299.7011592
299.6331273
299.6494972
299.8133528
299.6184974
299.6032379
299.9883609
300.0544252
300.4178611
300.4775146
300.3593136
300.3640519
299.7484369
299.952437
300.1640227
300.30216
300.0286024
300.5025261
299.4570367
299.6852107
300.0926177
300.3737445
300.0442425
300.2118785
300.0552857
300.0655436
300.1022534
300.3664407
299.8018124
299.8856166
299.9881972
299.617284
299.6631165
300.2367802
299.9861451
299.9151005
300.6183897
300.5299239
300.859512
300.7844828
300.7322079
300.0049996
299.8379995
300.4610865
300.2075561
300.3930282
300.3224115
300.4321438
299.7971367
299.9068789
299.9164711
300.0156102
299.7304082
300.7897661
300.352928
300.3187982
300.1332642
300.1923293
299.911163
300.5175345
300.4651932
300.2171265
300.0449781
300.0658135
299.7504149
300.2113403
300.2421194
300.4985597
299.8016592
300.0261394
299.9021761
299.8798912
300.0258556
299.8168676
299.7858395
299.9853374
299.7228825
299.5670964
300.1399016
300.5379589
299.8186632
300.2612976
300.2644742
299.0401818
299.5509655
299.9442851
299.817782
299.8382038
300.2085579
299.9049126
300.0328475
299.8231366
299.6073708
300.1766491
300.1771793
300.4079378
299.7060145
299.9821838
300.6569762
300.2548389
300.3370377
300.3677744
300.4621085
299.9721003
299.959379
299.5314016
299.6339267
300.0042577
299.50226
299.9577957
300.3822602
300.3940464
300.2919283
300.1482666
300.3957097
300.3017202
300.0266622
299.894992
299.9551349
299.9181498
299.768776
300.0140314
300.0556686
299.5499443
299.3841235
299.3095152
299.5178979
299.5287783
300.2678881
300.3024418
300.5814066
300.6212367
300.0752294
299.6576149
299.7452111
299.5796536
300.1176456
299.8426177
300.1315209
300.2314119
300.2461121
300.3653324
300.3555769
299.6637788
299.9039625
299.5826574
299.2697484
299.2721581
300.1865634
300.1107083
300.1006207
300.1511779
300.4103637
646.9988129
688.8941097
704.557718
716.001398
721.6892709
724.6240192
725.8420529
724.031019
721.2411693
717.4372057
713.8242858
710.2555671
706.4120054
701.3570921
695.5544352
693.5134339
686.9866238
684.756902
681.9324481
677.7706337
673.6909345
670.7336288
667.8826664
666.4367739
662.695475
658.3897644
655.7997442
652.8718496
651.1874181
650.9642541
649.4790468
644.382073
645.4271824
639.2707712
640.4068532
636.4990464
633.2879659
631.0653503
630.4595522
629.380527
626.0918559
626.0742734
625.7316329
627.2333461
622.6555706
621.5767814
619.6182815
620.2204163
618.228408
616.6220575
611.031147
613.9436255
611.8107954
608.0440666
609.4341084
607.2277776
606.7098093
604.7465213
603.4546264
604.7065535
604.185962
601.9895834
603.083191
602.405014
600.2204446
598.5369132
597.9480587
595.7527244
592.5269615
592.5569717
595.2305149
593.432086
593.4863556
589.4091385
589.6813409
589.5038339
589.2735111
590.0701711
586.9148365
586.9423618
584.6466176
586.4915599
585.3057255
586.2954278
583.3203415
582.6945502
581.7343933
582.213273
579.718887
582.2395706
581.9484343
580.7857754
579.257631
581.8675445
570.443993
520.3027796
571.3959716
596.9649557
614.425365
632.7275796
648.0321636
661.2961404
670.4184381
680.40031
687.1297108
693.1542842
694.504906
698.9009692
698.126299
698.0655729
697.8117739
698.5439871
697.911488
698.4473075
698.8222194
694.738652
692.1005146
692.7036997
690.1395165
686.1899669
682.768899
681.4354616
680.2344336
678.1577608
677.374451
675.1795965
674.3888998
671.6373736
667.9482852
667.0300407
666.1305354
662.5924319
663.0728684
659.7856247
655.4060514
655.6998238
654.8326666
652.4184395
653.7105843
650.577174
646.1540928
647.7685437
645.2151438
644.9644372
642.7812644
637.4965543
637.9845125
639.1089361
637.6931699
634.376103
634.3281004
632.2556599
629.470884
631.238098
629.7228034
629.6431132
627.9199014
625.9728432
625.9375363
625.1235635
623.3220411
622.200453
622.4486595
619.9641904
618.0313515
619.2572936
617.6767906
616.317542
616.5803046
612.9332088
612.639249
609.5179271
610.4643244
610.2223213
609.1426501
608.882932
604.6560848
608.0549559
605.9711292
605.0057686
603.8636648
601.7704336
602.9143366
601.0164509
596.2034071
597.6666579
596.6198359
592.5909468
581.8712048
560.9290289
442.2892513
489.8023006
523.5117091
543.0319795
560.6246592
576.063827
589.7028466
600.6665792
614.8972319
625.5461018
635.8370287
644.504965
651.8703723
658.5586573
661.488243
668.1787261
674.2984183
674.8610848
677.5084169
680.30549
683.5130352
683.2560885
685.4528871
684.6485979
685.5985198
683.1916917
682.4255715
683.4222138
682.9593825
681.8336636
681.0295042
679.0646241
679.455881
678.3015478
674.5829434
674.6463586
673.9507431
673.0405346
670.6357693
670.0283427
668.6434291
667.5744577
663.0368185
663.1310385
661.7487962
662.2915767
660.6363837
660.4387011
655.2654342
656.3918571
653.9889277
652.7849163
652.1114937
652.8295198
648.8763227
648.2976411
649.5104428
646.8033895
646.3471101
644.6174444
643.6244883
646.3339569
645.4292787
643.1932594
641.3302471
640.3153011
638.6639917
634.6784066
633.9039152
636.7644987
635.106898
632.5974707
633.1851441
628.9556258
629.7208055
626.4588693
625.9724334
625.2856768
623.5962851
624.0400828
622.2450742
623.8111049
623.4134838
621.4738149
622.7680512
617.8400429
613.6182717
613.9058114
609.5007939
608.3168926
606.7169143
601.8215856
595.4853031
586.6234988
560.1889102
395.6741588
431.2656471
462.2680917
486.6999084
507.4374919
521.5668137
534.3170567
545.58482
560.1435669
569.445261
580.5089334
589.5841903
601.5263616
607.7294519
615.9080588
625.1517318
631.397289
638.5929368
642.9060357
645.7975672
650.7650844
656.000425
658.2550743
661.5455313
665.2178921
667.0215065
668.0649554
667.5884661
669.8010554
669.1506637
671.2679932
673.2007918
673.7539251
672.1250924
673.3619905
673.3664478
672.6627726
670.2822446
668.3688383
669.3391549
670.3475701
669.6001896
667.4897854
667.4467343
667.6700306
665.9896916
665.3656779
664.546376
662.9848833
660.8268467
660.634907
658.6331679
660.9024375
662.127979
658.3176227
657.8228361
658.2178974
657.2032644
655.3266514
654.735003
653.2364451
654.0424624
652.2533292
652.6063871
652.9382401
650.7990594
647.8911067
644.0422376
644.8301012
641.0770826
642.0838132
644.3312786
640.7798219
640.7369629
637.6993031
637.838572
637.0926002
635.8711269
635.3290256
634.6442974
633.6374242
632.8405735
631.9402479
631.7694065
631.948143
625.0398277
622.4779651
621.0201849
620.6558715
618.1473428
613.9672319
605.6563675
598.5004859
585.4401163
560.4672452
365.1069151
389.8963207
415.0183435
439.034904
458.7301432
477.0208287
492.4866714
502.3930395
515.3575037
523.6923177
535.2706695
542.3043674
551.4480243
562.981139
571.3518754
577.2757368
587.445399
596.0982491
603.1435076
609.1625996
614.5036801
620.0407086
625.1311375
630.1780626
634.7193899
641.1174459
642.4627264
646.416001
647.9708294
648.5895872
651.0846299
655.1639989
656.6053661
655.9903144
659.880094
662.3778535
659.8940928
661.340619
664.305084
663.0011699
661.4939519
663.9797315
664.9841383
666.2344176
665.0895522
663.8122156
665.6559827
664.959936
664.11745
661.0787797
662.8716001
661.7725603
662.340714
660.6463659
660.0557155
662.1287658
660.1800143
660.3292443
662.8015952
658.3443008
656.993198
657.6007355
655.3694326
657.9687918
657.7862589
654.7539714
654.4999197
654.2175639
651.8894246
649.9417547
648.539068
647.696156
647.5266588
645.9940995
646.2859545
645.5483569
645.5016918
643.0920086
639.2640882
642.7486564
640.0078509
640.1161122
637.5764077
637.4361691
634.3723087
631.7677906
631.2019058
628.2000119
627.5537663
620.9464115
614.2498127
609.5917972
598.8426347
585.2438612
563.6851551
342.8480206
362.1958196
380.9921196
399.8987683
418.7728252
437.8109325
453.7089726
467.1788772
476.5866625
488.1780955
496.8507125
505.3499688
513.1303305
521.9832424
529.8343852
538.3813934
547.0806092
554.767926
561.7264669
568.4715612
576.9253154
583.0319185
589.4484482
594.3984477
600.7802945
607.9417862
611.2748193
617.0265592
619.8376211
625.4217897
627.7938183
630.0120703
632.9678062
635.2836588
640.1999913
643.3808072
643.4084519
646.6608549
652.3258241
650.659611
650.5636584
649.4502526
650.7215352
652.9111414
652.8256019
653.3123125
657.8166633
657.339323
657.6270019
655.02379
657.1551416
657.8273219
659.3066684
659.6076144
657.4917941
658.0489866
657.6390728
661.2061647
658.4542895
657.8153336
659.5068439
659.2489027
655.153599
655.1966349
657.8271633
654.6033878
655.5272702
655.2069824
652.6878377
651.9402139
652.2340732
649.8634896
650.1328506
652.1455576
648.9541227
649.8030784
647.4995981
646.7727221
646.6187441
645.9650437
644.167574
642.617116
642.1985583
639.7439305
638.4504562
636.2042568
635.0755748
631.7617925
630.4099624
623.2136123
617.8718284
611.3658251
600.3732875
584.5766198
567.6498372
329.2745577
342.0157413
354.771518
370.1565045
386.4409409
403.9798123
418.9198943
431.8822999
445.2956914
457.3448495
467.1419954
476.1104397
483.3312642
492.5270738
498.4058764
506.0314837
513.5200262
521.0396214
527.3714006
534.2962331
540.9513465
547.1575547
554.4442056
561.1799868
567.2493565
572.1521372
578.7323671
585.1976458
589.7240913
594.9843529
599.4218863
602.1369499
607.1149094
610.8596437
616.1958706
618.2649905
622.3146956
625.4201447
628.2844745
629.9079839
632.168832
633.3431219
635.9250795
638.1041521
640.4060329
642.2951301
642.9525359
643.95061
646.0499319
646.981253
648.2218273
648.7236062
649.3739767
649.0817852
652.0037497
651.8705474
651.3284486
651.0119597
651.4265642
653.3272814
652.3526658
652.225159
652.1124473
651.6855756
653.2219968
652.5961926
652.8234236
652.1165795
653.2110972
652.5469225
651.7098769
647.7925173
650.2485937
651.3608243
649.8287736
649.0807729
649.8243727
648.4679151
649.2662295
647.7840568
643.6527455
644.162671
643.4046073
642.3559616
639.7995211
638.4999579
637.0682292
634.1421771
632.6310728
625.3226731
619.9671264
614.0150015
603.0218175
588.3695653
569.6083905
320.3864983
329.180986
338.8408849
350.8193009
362.4929391
376.1179513
390.7346823
404.1600195
416.4193883
427.5742441
438.1343245
448.714656
457.0517676
465.7887711
472.3539349
478.1340074
485.2205081
491.1617688
499.0254866
504.1573153
511.1314274
517.6556009
523.512552
528.8396354
536.9292708
542.0352011
548.1561878
555.1027419
561.2793821
566.962335
570.0168356
575.1419151
580.4347607
585.7670987
589.5456574
591.9336714
597.0122209
603.0055545
603.9693406
608.0700739
612.7775181
616.1237774
618.0855995
619.9727507
620.4939809
623.1157472
626.42588
628.8354657
632.0812862
633.0207715
633.6477807
632.8824836
635.1162678
635.4684378
637.908907
639.8545757
639.512552
639.9150887
642.2281125
644.3386405
645.5881353
644.1862962
645.4907496
644.9656916
646.5227841
645.4857667
645.2397054
648.0916269
649.3248983
648.4111144
646.347357
645.920318
646.6153753
648.5254993
646.2775709
646.1282383
646.9599015
647.962411
647.6949057
647.6859643
648.0814981
646.6853165
641.5296313
641.3431972
639.3939797
636.0152928
635.1035062
634.5060649
630.4358324
627.6393916
618.3270271
610.4588607
604.0590429
587.9126797
568.1481323
315.2571001
320.7934415
326.972688
335.9784542
345.5037223
356.0246614
368.0830654
379.3670716
391.8011897
401.5369837
413.694029
422.4522667
432.6765913
441.7249039
448.0680836
455.4077083
461.6541774
468.1276752
474.0831786
480.595758
485.8544771
491.8878387
497.2898883
501.4377926
508.5733528
515.7384074
520.9838825
527.3722697
531.8774495
538.5405277
542.0654825
546.025684
552.2503521
557.5600071
562.7937296
567.3590192
571.81432
576.4899435
580.4376614
584.9924188
589.058775
591.5615095
592.5227705
597.7221245
600.2212615
603.667151
605.7644967
608.6355094
611.5748297
613.7627166
615.4536155
616.7268808
619.0805518
621.1732919
623.5271324
625.4057264
627.9144874
627.8885227
630.2043384
632.3689178
633.9018641
634.9148131
635.8750497
636.2960241
637.9273405
636.7408309
638.3417294
640.5067988
638.3577652
640.2269098
639.8158972
641.2828624
641.4830639
644.3574916
641.1167936
642.5082366
643.745235
643.2131742
643.300185
644.8952557
642.0855263
640.3419479
639.4795935
638.1875931
638.2264343
634.8465442
633.6450829
631.2950564
628.0391296
623.2084748
616.5202677
608.7785701
600.1187142
586.3961242
569.792023
310.5659291
314.979686
319.2928337
324.070777
330.6443614
339.1905566
349.2096627
358.9178935
367.4511009
378.4258751
387.7851526
397.7724862
409.5217058
419.5368394
426.147673
434.9748198
440.0105041
446.7085856
453.3771114
458.6567185
464.0685277
470.3151209
475.2083006
480.0698758
485.4589504
491.1020568
496.4331703
501.0634668
507.199501
512.4040708
516.1843714
521.9203703
526.7197935
531.7943103
536.1463318
541.2963277
547.528349
552.82188
555.6762169
560.1025641
562.8521968
566.8412839
570.5747411
574.8545159
577.5335966
581.6112894
583.9123037
587.7079085
592.6718953
595.3004277
596.7129532
598.3286619
602.6996834
604.0681621
608.1940765
608.5876027
612.3376765
615.1373942
617.997038
620.371708
621.6357712
622.1222421
623.9697443
626.4049637
625.99729
627.1583015
627.1232917
627.5987617
630.2661955
630.8166136
632.0394054
631.9523117
633.2259749
632.6309932
633.4118583
634.658256
635.6814963
638.505749
636.6684748
638.5334094
637.6486061
636.9140161
635.2809704
634.5798611
633.9248632
632.0196067
629.3342985
626.5105548
622.6834537
620.7003585
613.4713955
607.0720564
598.6183463
585.5891118
569.8177706
307.1538138
309.2566163
312.7640311
317.207342
321.9311234
327.4562416
335.1082826
343.4054487
351.3853275
359.216924
367.1320359
377.2207959
386.217593
397.1918806
405.2800602
413.3870756
420.3471476
427.10114
435.2038383
439.6009702
445.9186811
451.9941604
455.881992
460.6883088
465.425157
470.4520024
474.7642366
479.1591795
484.9607979
488.3206353
495.3902637
500.3932463
504.1042353
509.30444
513.1932857
518.2364687
522.387155
526.6553
532.3126365
536.4638655
539.1144369
543.6999623
547.9524016
553.002804
556.6981949
559.9476817
563.341321
568.150208
571.5667707
576.4641159
579.5519908
580.8652719
583.0271379
586.0064112
588.113126
590.826319
595.5330145
597.8163252
599.9511117
601.8422175
603.2875468
605.4616685
608.3758583
609.1894092
611.1585987
613.6780021
614.7316546
617.8009129
617.8804873
618.1584349
622.1487212
622.0780018
624.5754738
625.4663367
626.2937951
625.3519022
625.5529587
626.6891783
626.8928342
626.4690133
629.6838601
630.0656024
627.9348698
626.8396813
628.8287326
625.6639781
624.0120605
621.3826513
618.0822189
613.5743098
609.1641081
603.5173352
595.2594737
582.1469914
568.5329379
303.999407
306.3257658
308.6753773
312.282933
316.0922276
320.6600611
323.8564765
329.9152548
336.8630866
343.278287
350.5855789
358.8362589
367.866428
377.0192158
384.9128942
392.5934615
400.9900697
408.4963589
415.7171552
421.7863771
428.3171673
433.4622022
439.48861
443.6234578
449.7309696
453.3780669
458.0684267
461.3019607
465.6112747
470.0387129
474.8975753
479.4383229
482.7576086
488.4542753
492.2932846
496.8960545
500.9494893
505.9447647
509.9997516
515.005877
516.2188595
521.4329257
526.4166753
531.9153893
534.1709607
538.5267389
542.7944119
546.0425999
548.5213216
551.8676613
556.6439314
559.7941662
563.1616614
568.2285616
570.9212838
571.707989
576.0611426
579.2585666
581.814725
583.3815356
586.0572608
588.3655289
590.8207402
593.9472537
597.8518131
600.9881137
601.882407
603.0925881
605.0074504
604.7805877
606.7979599
610.2663113
611.7054586
612.5474841
613.5380427
614.9622333
616.5305173
616.4286808
617.183344
619.0872577
619.4899578
621.6187725
619.0624788
616.3287778
615.9232345
614.7074738
615.0926469
612.2012623
611.5447669
606.0798826
603.3451499
597.4259227
589.9385713
579.5267922
567.431495
302.8326834
304.4498936
305.1916034
307.7761562
311.0852316
313.8431098
317.484773
322.1549687
326.0945776
332.6084652
337.4347606
344.0011645
350.8297077
359.0671568
367.1810937
374.942437
381.5886145
390.5009612
397.5480371
404.9706435
410.1217757
416.6584771
421.5667693
427.1742951
430.9357289
436.5952947
441.1312731
445.5691584
449.1720106
453.1167775
457.3221831
461.2692305
464.4107937
468.7500791
472.0362223
476.9794228
482.2385914
484.8313789
490.0219734
493.572352
497.5314392
501.215785
505.4034934
510.6662966
513.5867162
517.5678003
522.7849628
526.4006347
529.0054048
532.6527898
535.7035082
539.3374766
542.849303
546.7255618
551.6720414
553.6063501
557.3076065
559.503927
563.4443517
566.5397728
567.87044
569.5521245
573.5014891
577.20917
580.7863551
583.4826995
586.3443851
588.5675211
590.8092361
592.5132154
594.8352947
595.7741149
597.7430731
597.4903696
600.3902094
601.8549957
606.7162455
607.7034228
608.5174733
608.1298881
607.9401544
608.5813188
608.6084041
608.2698308
606.583563
605.0349363
604.3641657
602.3653739
603.2143782
598.4312424
595.8590114
591.3696007
585.5961457
576.9973725
564.8451973
302.6428289
303.9734946
304.2372194
305.309145
307.2127958
309.4502717
312.3277425
316.0981659
318.8867964
322.4483079
327.5179013
332.7027626
338.1246613
344.2402462
351.7787667
357.5843029
365.8089697
371.5591998
380.0381779
387.0801169
393.7324685
399.3916588
406.2758925
410.7832462
416.2416229
421.289542
426.6644274
431.7928718
435.7462171
438.4798349
441.9617795
445.7227179
449.649128
453.5394734
456.2998707
459.3929513
463.5846618
468.2531571
471.35835
475.3972354
478.9164345
482.3525513
486.9009045
491.0230913
494.5419837
498.1137628
500.7126705
506.2453847
509.8034095
513.9670087
516.9062115
520.6882555
523.4026733
526.6830697
530.2285656
533.5484836
540.3971426
543.5035014
546.3091098
549.521221
551.6029994
554.0845114
557.7587253
559.9401963
562.9259772
566.7895424
569.3408154
571.5772408
573.773544
576.1442607
577.8594304
580.3976567
581.9430824
582.9987737
586.9617313
588.58539
590.7845086
592.747332
592.396595
594.4909924
595.9102927
595.4326336
595.4553601
595.9119375
596.183538
595.3960904
594.6648318
595.6724402
593.2808425
590.0603581
587.5654352
580.1003109
576.6788437
569.173239
560.3014548
301.6227901
301.6696905
302.6684665
303.6619011
304.4430847
305.4986051
308.1082788
309.6411331
312.7639316
317.0671439
319.8828364
323.0846196
328.359038
333.4148694
338.2001016
344.5769469
350.6625329
357.4446897
362.7256302
370.0424219
377.3485388
384.0540457
391.594907
396.1855132
401.5482162
406.7406793
411.922544
416.7096829
420.9200962
425.7143254
429.6323476
433.6042059
436.0064704
440.2101668
443.5155574
445.596869
449.993119
451.8057757
455.9460726
458.3196091
462.4624412
465.598514
468.4121465
472.9925767
475.9278252
479.4266999
483.1180635
485.6886956
490.2697554
494.6473503
497.7514648
501.9830839
505.2455888
509.0233947
511.591374
514.3089924
518.9502585
521.2720467
526.1131925
528.9279921
531.7903643
535.5406073
539.7003518
542.2444349
544.0432166
548.9819
553.1746447
554.9817788
558.5866803
558.8600068
561.2663536
564.7039166
566.9646143
567.2663002
569.7836038
572.9788252
574.3728166
575.4566989
577.7032668
580.273576
582.4434466
583.9965885
585.9671109
586.0881856
585.2452113
585.0273162
581.8483028
582.7922218
582.9302714
582.7133649
577.0501091
573.6891155
568.8454194
562.252316
552.5271925
300.7079373
301.5621336
301.7552108
303.0899165
304.4805809
305.1056754
305.8754198
308.6115924
310.407194
311.4985714
314.216889
316.8723728
319.5239357
323.7392046
327.2849963
332.1239484
337.442064
343.7219223
350.4010998
355.626238
361.9347945
368.4284859
374.9973538
381.3747106
387.2297075
392.28893
397.0747056
401.8470594
407.3891637
411.3664345
414.7636205
419.4957411
422.5996486
426.3162902
430.472617
433.4494429
437.2600043
439.7079681
442.8683282
445.989019
449.5714306
452.2861082
455.2589516
458.7076326
462.0974736
464.6112598
467.4594684
471.6950774
474.3788279
478.2224507
480.4646894
483.5289776
488.4464313
491.3887386
495.5396726
498.4368327
501.2650468
504.4165733
508.6719738
511.4422298
514.212135
517.5022596
519.8091435
523.6344469
526.7572599
528.6078889
532.7028738
536.5288655
538.5152877
541.7547395
544.4253785
546.9309444
549.8242444
551.9608792
554.5644467
555.9596334
557.4514781
561.1733098
562.5265298
564.2856953
567.6288891
569.5663838
570.4286695
572.1037863
572.1588402
573.0518743
572.7066925
572.0928484
572.6581595
572.0373313
568.0768655
564.9645631
561.9961769
556.9453492
547.4126186
300.1728448
300.21081
300.725128
301.1687872
301.547099
302.7402001
303.5500846
304.5601366
305.5593257
308.4983232
309.0729967
311.1988415
314.0494183
317.2804602
320.3825025
324.0685772
327.8512274
332.8643151
336.6062076
341.7059715
347.2014369
352.324492
358.3306266
364.4639388
371.5274427
377.251745
384.0164661
389.1438527
394.0896528
399.0872171
402.6506967
406.7634219
411.3159873
414.039159
417.830831
420.9263827
424.4568512
427.0052232
430.2526433
433.9417922
436.7195105
440.1959386
442.4570644
445.0997618
447.959371
450.1678069
453.5481649
456.1051696
459.6953391
462.7868612
465.2675594
467.532711
470.5400392
474.1204719
478.0027622
481.4469236
485.3376767
488.2833677
491.9008055
495.0915565
497.0696885
501.1179345
503.429968
506.9681875
509.2873173
511.9001586
514.8892866
517.9081425
521.9312014
525.4929709
529.4882308
531.5916006
533.1948709
536.4785131
538.2078071
539.4403794
540.8502844
544.1302451
547.8565965
548.915807
550.5289499
554.1704264
557.0107955
557.5927833
557.8790439
560.1526332
559.6264646
557.6339236
558.9389816
558.4738499
558.7884148
554.9192393
551.9270283
546.9691136
540.1589466
300.3743357
300.9228663
300.7443151
300.9714145
301.2651604
302.2686666
302.7411917
302.7774624
304.1677738
305.0039514
306.5677655
307.8571675
309.6093191
311.3751226
313.7907695
316.8781846
319.4399338
323.1754811
327.187219
331.0039728
335.8886059
341.6518625
346.4953837
350.7450872
356.8196609
362.0145057
368.3011346
374.1571935
379.3289465
384.7552084
389.8513059
394.6570389
398.2175123
402.1586874
405.8762966
409.8998097
413.5656174
416.185023
419.0990028
421.870821
424.7522223
427.3384812
430.352228
433.7925007
436.4245007
437.7437938
439.8538086
443.0058634
445.595346
449.2444799
452.1432481
454.9293864
457.8319677
460.0147505
462.3124969
466.2485213
469.6724792
472.5535047
475.5303918
479.0259739
481.3355992
484.5834279
487.2422292
488.8495406
493.31619
496.4856081
499.6265287
502.6654898
506.0145223
509.0590395
510.5616529
514.6121068
518.5985487
520.6615022
522.9625769
525.7979369
529.0796113
530.317066
533.5385691
534.9898218
534.6703629
539.5624265
541.38053
542.462293
544.1311905
544.4183048
546.2338829
546.7216698
545.3027637
547.0958876
546.1772703
544.550458
542.4048643
539.3363568
533.2150243
299.5296387
299.6706736
300.7574273
300.916677
301.0746106
300.8273736
302.2896016
302.1851971
303.328206
302.9517714
304.3102011
305.540854
307.283194
309.292724
310.0618933
311.8038683
314.5710396
317.3483686
320.6105192
323.397745
327.0157076
331.0824904
336.0487626
340.7490258
344.6545979
350.6874721
355.9369093
360.417365
366.0800456
372.0171463
376.6077289
381.743438
387.1097213
391.3900575
394.9411016
399.0553708
401.8323725
404.8650228
408.5871256
411.3919925
414.1630676
416.554443
419.1204567
422.0205512
424.712426
428.2178068
429.6250166
432.0011107
435.025407
437.0225763
439.5067605
442.5144082
444.5919571
447.2957142
450.0193586
452.5120154
455.4247203
458.0074381
461.4039773
464.3702668
467.8176642
470.0951334
473.5836118
475.9307327
478.8262542
481.727112
483.8738506
487.141664
489.7382274
491.937987
495.4743112
498.4152725
501.0805393
504.1692959
507.4989456
510.7460497
513.2706901
515.2360649
518.1531391
520.3179553
524.0226347
523.8557589
525.9372139
528.4055656
531.2628978
532.1969178
532.3526773
534.4880704
534.9473452
535.2479255
534.837268
532.9179098
531.3077843
527.9066392
523.5431316
300.5397862
300.50143
300.0320228
300.1742172
300.3822242
301.223991
301.5917175
302.1089865
302.9040723
303.2851215
303.4306759
303.7125341
304.8830553
305.1503604
307.2082786
308.4663062
310.6641589
312.7015303
314.9764892
316.8437484
319.9547124
323.481411
326.3813291
330.2617322
333.9537682
338.2373237
344.3058973
349.0623542
353.7582951
359.1008599
363.7987549
369.3762202
374.7235573
379.4671451
384.4664921
387.1338934
391.6458745
395.3321766
398.4776282
402.2244282
404.796826
407.2512062
410.1877715
412.9834273
414.8129547
418.0547032
420.9539696
422.2655949
424.3720595
427.7473864
429.8253026
431.432748
434.2308797
436.4287951
439.1885891
440.189112
442.8396393
445.1937955
448.624306
451.9499955
453.2710168
456.9075471
459.6797799
461.3127656
463.8691717
467.4303449
469.9094962
472.670085
475.7656091
477.6537689
482.2700474
484.211311
487.1419065
489.5614191
491.5478279
494.9534193
497.7392647
499.7650514
501.7097487
505.0996271
507.1027456
509.0286234
511.315907
513.3503445
514.4980851
517.6653781
519.6641467
519.1653841
519.2519905
521.3059126
521.1847181
520.8398569
519.9490035
518.1660001
514.8598508
299.8085445
299.9762719
300.7366415
300.493419
300.399477
300.7012722
300.7093552
301.2097027
301.3859957
302.2508972
302.0134073
302.4314161
302.997712
304.8626442
305.4459452
306.3750002
307.3020808
308.9143316
310.2351507
311.80894
313.3374118
316.2797593
319.1266002
321.3965513
324.9040723
328.9106719
332.4585272
337.6340316
341.77405
345.8716663
351.2953542
356.4631139
360.9420625
366.4881543
371.1663368
376.0760925
379.9991491
384.4795958
388.6214635
391.8336114
395.7618633
398.6526741
401.0998335
404.1658247
407.7378754
409.498438
411.5680815
414.6494863
416.4538272
418.5290696
420.845441
423.1275408
425.071421
426.3352332
428.3237001
430.7874064
432.2964674
434.0900111
437.1650184
439.578385
441.8547237
443.9274421
446.3006953
450.2522726
451.8139404
453.9707065
456.0064444
458.644957
461.7251915
464.7831148
467.1596117
470.2330367
473.5735695
475.9490816
477.0584294
479.4671385
481.700292
484.155322
487.1706617
489.4029254
491.8918754
493.2784532
495.7224998
497.7584572
500.3058111
502.0559106
505.1500927
506.5822768
506.2228591
508.2075293
509.0523921
508.9140193
508.8892357
507.7629796
504.592273
299.1494087
299.2684428
299.5322053
299.8898673
299.7823582
300.1492465
300.4780329
300.5022513
300.6124661
301.0238987
301.6019818
302.361446
302.2116712
302.7220674
303.1878109
303.8474399
305.1239595
306.0589769
307.2213601
308.7366573
310.2986981
312.4692308
313.9799985
316.6504048
319.0443187
322.0809541
326.1008283
327.7052465
332.3123952
336.7100417
340.4325909
344.5269172
349.4495895
355.220801
359.9671332
365.1520717
369.9749997
373.9749747
377.3599909
381.6248763
385.6802224
389.6036609
393.6345274
396.2449815
398.1071354
401.1081591
404.3353692
405.9050793
407.8279491
410.3449712
412.6607697
413.5343022
415.2894814
417.3317948
419.2175906
421.2082328
424.0781649
425.2506131
427.3808572
429.6307056
431.9935878
434.1470202
436.1468619
437.4632933
439.6173101
441.8146122
445.5215831
447.1547391
449.4870187
451.2785928
453.1886807
455.9806147
458.9367755
462.8265331
463.9840453
466.9616397
468.322988
470.4969324
472.5704408
475.8664896
477.7943608
480.3793923
483.0370616
484.7894694
485.6423771
488.6099167
491.202372
492.7924351
494.4081009
495.8353642
495.703851
496.751585
496.9978223
495.9467891
494.9054353
300.3013792
300.1520557
299.5163704
300.5273737
300.4156641
300.1381906
299.9094228
300.4607193
300.6426025
301.3673273
301.2488361
300.7593737
302.3477321
302.9424319
303.1858129
303.6540431
303.6400228
304.699958
305.3236999
306.6440937
307.6298386
308.2654366
309.9485464
312.1750975
313.59514
315.9285065
318.1390481
321.7737254
323.8206052
327.3337096
331.4580584
334.76689
338.322743
342.757521
347.2384441
351.7833764
356.516186
361.68833
366.636368
370.6269558
374.6997998
378.0985906
381.9911897
386.1526732
389.2887521
392.7291591
394.7248586
397.5909127
399.5168466
401.7463396
404.0276368
406.2882898
408.3666311
410.0691884
411.5777848
413.4621724
415.1619836
416.6178504
418.2187762
420.1945179
422.0264602
424.1198117
426.4094693