/*--------------------------------*- C++ -*----------------------------------*\
| =========                 |                                                 |
| \\      /  F ield         | OpenFOAM: The Open Source CFD Toolbox           |
|  \\    /   O peration     | Version:  v1706                                 |
|   \\  /    A nd           | Web:      www.OpenFOAM.com                      |
|    \\/     M anipulation  |                                                 |
\*---------------------------------------------------------------------------*/
FoamFile
{
    version     2.0;
    format      ascii;
    class       volScalarField;
    location    "0.04";
    object      p_N2cold;
}
// * * * * * * * * * * * * * * * * * * * * * * * * * * * * * * * * * * * * * //

dimensions      [1 -1 -2 0 0 0 0];


internalField   nonuniform List<scalar> 
6000
(
0.4162143864
0.4235517925
0.4439755402
0.5099291398
0.798774721
0.4172088687
0.4265828231
0.4569980737
0.5392719083
0.737185204
0.4192669371
0.4274574197
0.4589292841
0.5200325802
0.6384049639
0.4172501401
0.4294201339
0.4528763761
0.4998623173
0.5684566639
0.4174075037
0.4239072295
0.4419443897
0.4713537665
0.513179704
0.4153058184
0.4193355688
0.4334567057
0.4536865159
0.4848016309
0.4169888487
0.4216624063
0.4302799793
0.44446128
0.4657140396
0.4184314522
0.4203716717
0.4276172858
0.4369423553
0.4526769126
0.4167932218
0.4193636371
0.4247285924
0.4330845123
0.4407661472
0.4154131559
0.418963817
0.4207248404
0.4248621085
0.4314272551
0.4143166041
0.4163181894
0.4211755872
0.423335105
0.426530523
0.4154166874
0.4163787559
0.4180749581
0.4214898964
0.4242419583
0.416865079
0.4165891469
0.4173846787
0.4170774361
0.4185195113
0.4150725567
0.4138790417
0.4160646744
0.4171973707
0.4204772348
0.413503242
0.4145252479
0.4153127975
0.4140739538
0.4154271721
0.4143235132
0.4137413103
0.4141193894
0.4153845874
0.4156722123
0.4136073625
0.4134467708
0.4135354299
0.4125696479
0.4155562962
0.4131350364
0.4128281851
0.4141369836
0.4160961483
0.4154114162
0.4127480944
0.4134902444
0.4141669485
0.4136207088
0.4133646951
0.4149486184
0.4138348233
0.4131401626
0.4132088124
0.4132223387
0.4138985099
0.4141407379
0.4132920867
0.4129957499
0.4152250665
0.4133908359
0.4134364459
0.413836162
0.4129619422
0.4123867833
0.4131578106
0.4128746863
0.4121004229
0.4125799411
0.4123792054
0.4144434296
0.414584867
0.4126440342
0.4115011445
0.413155623
0.4135963399
0.4135110261
0.4148175556
0.4163989399
0.4149457406
0.413260365
0.4145957448
0.4149825623
0.4161448107
0.4147676685
0.413780231
0.4135963539
0.4150473561
0.4137315557
0.4144709098
0.4141433105
0.4133468018
0.4135743572
0.4139767108
0.4155232014
0.4157484339
0.4148586223
0.4142610302
0.4127918413
0.4123556457
0.4144432295
0.4136111769
0.4131715086
0.4122976737
0.4133154793
0.4143233029
0.4145338189
0.4140218211
0.4145015456
0.4152943002
0.4142226485
0.4138358753
0.4138815892
0.4152030064
0.4126293867
0.4134367894
0.4150021745
0.4146993039
0.4149564696
0.4159831885
0.4137110318
0.4137783671
0.4152975078
0.415009605
0.4143557225
0.4148674142
0.4149275304
0.414766832
0.4156545698
0.4159791158
0.4136381845
0.4127959164
0.4135469227
0.4127182446
0.412701847
0.4144736616
0.4127801751
0.4126229463
0.4133871407
0.4141755988
0.4156611861
0.4166634958
0.4173357003
0.4154345943
0.4145365228
0.4148207434
0.414313248
0.4150065262
0.4147456704
0.4161686491
0.4134463083
0.4133833515
0.4131072851
0.412837861
0.4129773875
0.4157199063
0.4145419239
0.4151634304
0.4142314129
0.4150844358
0.4139387094
0.4159923012
0.414602387
0.4147699935
0.4138379523
0.413453756
0.412025071
0.4136500457
0.414335276
0.4140801
0.4151695405
0.4152478139
0.414461051
0.413909372
0.4139654459
0.4134887161
0.413828498
0.4144739297
0.4143479156
0.413467607
0.4127623626
0.4132871891
0.4115149879
0.4122167009
0.4133338248
0.4117634914
0.412534289
0.4129647564
0.412457003
0.4128315184
0.4148779425
0.4137054858
0.4145345192
0.4144844431
0.4135243073
0.4151211786
0.4148938134
0.4152733744
0.4135413596
0.4139781763
0.4146737147
0.413771332
0.4138614053
0.4157895932
0.4149951156
0.4143583305
0.4148786691
0.4139752021
0.4133497157
0.4142175142
0.4133809619
0.4138003259
0.4148270742
0.4150779347
0.4149758291
0.4140240817
0.4151739689
0.4141090303
0.4140975551
0.4151449372
0.414271788
0.4140223318
0.4136145175
0.414321981
0.4142860736
0.4130810548
0.412801179
0.4127113745
0.4133225482
0.4134570093
0.4145990304
0.4151053649
0.4156548061
0.4148185753
0.4138551286
0.4128925848
0.4120919932
0.4125506395
0.4134945957
0.413688898
0.4141238348
0.414182253
0.4132781465
0.4138415059
0.413385614
0.4140469271
0.4141569589
0.4138302099
0.4135940416
0.4141819148
0.4141218078
0.4139593333
0.4138733431
0.4138631061
0.4133885865
1.48734432
1.633586788
1.637606849
1.620821228
1.58992336
1.56641418
1.544663012
1.518470006
1.48183055
1.456487571
1.426020525
1.400084528
1.374325164
1.361199616
1.3417673
1.319338012
1.292333036
1.260574254
1.244038456
1.224947957
1.216517564
1.196113704
1.174777415
1.157986678
1.140796335
1.131376535
1.115413148
1.103674151
1.095395458
1.078109866
1.066199384
1.064369282
1.056069946
1.038456681
1.035777341
1.030593712
1.018288028
1.004740244
0.991621339
0.9876223753
0.9830040822
0.9690310559
0.961534919
0.9579431388
0.9491626087
0.9456002212
0.9352174896
0.9262215754
0.9251974926
0.9184166592
0.9071356643
0.901069528
0.8993622096
0.892363232
0.8835634474
0.891840081
0.8797484047
0.8735558857
0.8702746798
0.8683287815
0.867294361
0.8650034653
0.8611302805
0.8581586524
0.8538655207
0.8437720446
0.8419269024
0.8375850684
0.8297301099
0.8274679575
0.8222383297
0.8141496862
0.8152253761
0.817560959
0.8100512062
0.8023414601
0.796274742
0.7960765182
0.7921521681
0.7832479646
0.7795256825
0.7703044153
0.7701038357
0.7598573756
0.7522598274
0.742319068
0.7281762375
0.7176460451
0.7062613038
0.6858742666
0.6599016903
0.6370986841
0.6081312883
0.5588952853
0.4672326892
1.015621692
1.22657452
1.348896934
1.403157273
1.438275884
1.455983486
1.45948168
1.449224973
1.43979021
1.427578209
1.419926656
1.399845704
1.382177721
1.369178257
1.340802363
1.321278136
1.307805071
1.28523727
1.268425633
1.253516031
1.24177834
1.223884573
1.200564774
1.188632058
1.166985696
1.155811976
1.147501397
1.130592845
1.120011073
1.114986575
1.095979013
1.089685307
1.073684779
1.060214923
1.058510403
1.046884109
1.038822942
1.028032897
1.016576631
1.001062447
0.9935388948
0.9864235272
0.9792742508
0.9748062783
0.9670784492
0.9548690945
0.9458413344
0.9458071997
0.9377840804
0.9305156849
0.9210296047
0.915374928
0.9158136916
0.9085550912
0.9108374336
0.9083978897
0.8945465572
0.8884680657
0.8878374963
0.8833918487
0.8728252638
0.8729014143
0.8721834376
0.8693502235
0.8625150481
0.8514074467
0.8488594921
0.8532086828
0.8415233043
0.8350286459
0.8342051141
0.8332355699
0.8303868532
0.8246088131
0.8187194276
0.8139142292
0.8023426338
0.80397317
0.8019916048
0.7938394004
0.7900727612
0.7839358961
0.7763629241
0.767326824
0.7584350688
0.7472633398
0.7316587979
0.7232828046
0.7092470653
0.6871518896
0.6647421881
0.6393595649
0.5981619213
0.5400370996
0.4374576964
0.7805875579
0.934510069
1.059724701
1.14694484
1.217438747
1.268698397
1.302325221
1.312439367
1.333315621
1.334392228
1.338565119
1.33156723
1.323365092
1.317058119
1.298739988
1.294970587
1.287776196
1.27215906
1.255750056
1.245847624
1.233130408
1.2201124
1.206895967
1.185324135
1.170932856
1.158251834
1.149832249
1.143924432
1.125124342
1.119717974
1.109403789
1.094124845
1.076467907
1.072802642
1.06053491
1.054092585
1.044645707
1.042373086
1.025104221
1.01366832
1.003991928
0.9990128337
0.9872465406
0.9800746954
0.9716675598
0.9681936844
0.9702626453
0.956905372
0.9406764323
0.9313550431
0.9312272067
0.92483753
0.9204529107
0.9169426253
0.9129116708
0.9083556451
0.9063968526
0.9018924611
0.8956093704
0.8895217208
0.882514526
0.885713938
0.8867277013
0.8780732761
0.8678960351
0.8620532382
0.8599628586
0.853268503
0.8476122986
0.8497931195
0.8401665327
0.8366352035
0.8322745914
0.8241433682
0.8232478941
0.8194866909
0.8134685694
0.8083911404
0.8116356998
0.8003812961
0.7928105173
0.795369101
0.784104534
0.7696207052
0.7636875667
0.750138356
0.7352373674
0.7258105247
0.7081325879
0.6912695722
0.6648247592
0.6330217057
0.5965274956
0.535501951
0.4376572107
0.6471889304
0.7519211247
0.8530772757
0.9405529309
1.025292874
1.083014761
1.131954002
1.166614813
1.20693333
1.223484889
1.240633491
1.240594431
1.252383621
1.241174078
1.24110146
1.24103201
1.243987884
1.238707399
1.228328109
1.206433229
1.198922724
1.191417872
1.175861418
1.161429863
1.155558713
1.146848106
1.138236927
1.13100491
1.118181408
1.099004959
1.104164763
1.095036691
1.081987137
1.065560749
1.061784093
1.0609938
1.049607239
1.035875536
1.028356259
1.020287689
1.008511326
0.9967991192
0.9844366436
0.9852764717
0.9760533133
0.9729622483
0.9676585662
0.9598112711
0.9475495221
0.9450334192
0.9366013411
0.9275827452
0.9279510334
0.9207872616
0.911392379
0.9144024085
0.9076289195
0.903954825
0.8983217954
0.8940118953
0.8844066127
0.886606534
0.8853511476
0.8760786217
0.8756492826
0.8708934778
0.8619182478
0.8607098923
0.8607505218
0.8506640249
0.8439778584
0.838878237
0.8340790481
0.8311477281
0.8233319381
0.8162250605
0.8117896861
0.81481816
0.8107036741
0.7990853182
0.7980929562
0.7894400899
0.7842904998
0.7730564061
0.7669909106
0.7499493762
0.7393253324
0.7299831526
0.716239012
0.6904317989
0.6663208349
0.6339019688
0.5947789417
0.5315283729
0.4445381863
0.5726313712
0.6368455905
0.7116889851
0.7889422249
0.8547876131
0.9256802382
0.9852544363
1.030275948
1.077383637
1.102887085
1.133058528
1.145608462
1.160581134
1.17389901
1.182556472
1.177853762
1.186933275
1.187100374
1.183578144
1.172678589
1.171350243
1.15702921
1.147286105
1.144572313
1.140205808
1.14009951
1.121142803
1.113108106
1.101714247
1.093564474
1.08725639
1.081251194
1.072634129
1.064272998
1.062166771
1.051609195
1.038022215
1.029985754
1.030379515
1.018125654
1.003943188
0.997361528
0.9907494427
0.9842257447
0.9754417483
0.9666742154
0.9731318637
0.962544781
0.9564395445
0.9441952511
0.9391877529
0.9316839702
0.9257283453
0.9224205532
0.9154061236
0.9172924714
0.9072941887
0.9019775937
0.8961041764
0.8933320166
0.8843008872
0.8873176554
0.8819837338
0.884875468
0.8777060673
0.873425677
0.8654485555
0.8663417121
0.8641536201
0.8570368143
0.8475370555
0.839737349
0.8321133993
0.8305922103
0.8239824219
0.8225874697
0.8239227593
0.8133572998
0.8112922061
0.8066581976
0.7968200391
0.7925548736
0.7896652228
0.7765135324
0.7621054724
0.7478427422
0.7411804643
0.7308698572
0.7175467202
0.6932829213
0.6638759076
0.6322719909
0.5885808742
0.5337119541
0.4575331581
0.5159148751
0.5661211104
0.6179919349
0.6716044814
0.7327824828
0.7958041655
0.857191767
0.9063922665
0.948686251
0.9956454415
1.026518514
1.052611717
1.073793883
1.096553625
1.104370895
1.110831375
1.12498461
1.130400883
1.131251842
1.13048028
1.136386161
1.129560557
1.12613755
1.11416335
1.111813418
1.109406226
1.094093054
1.094121187
1.084548329
1.082010511
1.072277932
1.065708786
1.056945287
1.051909428
1.058571493
1.045105466
1.027614128
1.020630445
1.025106231
1.011087269
1.001541871
0.9952408382
0.9863504764
0.9816098549
0.9738731581
0.9651338673
0.965291369
0.9589617953
0.9520175647
0.9399853059
0.9386449801
0.9370215236
0.9281207949
0.9206212985
0.9155867415
0.9159451506
0.903629753
0.9018049839
0.8930148322
0.8922118191
0.8935892201
0.8928006391
0.8792386414
0.8809580028
0.879612724
0.8678626324
0.8693897329
0.8620594011
0.8592341602
0.8580762424
0.8433345466
0.8391072012
0.8313029638
0.8370830546
0.8287564528
0.8232954666
0.8209593892
0.8131668238
0.8143151907
0.8105118642
0.7989542633
0.7991075653
0.7880504248
0.7772621853
0.765122224
0.7533683693
0.7465211143
0.7306479754
0.716789199
0.6917950422
0.6663444074
0.6336592596
0.5926653415
0.5391089292
0.4736941553
0.4847644026
0.5173507337
0.5477535873
0.590065244
0.6364399474
0.6907942053
0.7412048666
0.7888899503
0.837815433
0.8862707879
0.9287069369
0.9646310698
0.9920885808
1.018509763
1.039232543
1.055151931
1.067666917
1.082253203
1.089490763
1.094064976
1.091601284
1.09168126
1.091440037
1.090975404
1.085227884
1.078006367
1.079815554
1.076153869
1.072732303
1.069310766
1.061697367
1.050289186
1.044711403
1.038110305
1.038792268
1.022700682
1.02015042
1.008968444
1.014136107
1.002614388
0.9964288612
0.9876432412
0.9824600228
0.9768231225
0.9719709272
0.9606389264
0.956580562
0.952746906
0.9499529968
0.936890145
0.9361510176
0.9327529313
0.9257067766
0.9196496683
0.91880717
0.9158471281
0.9070508743
0.8995859572
0.8933739517
0.8909568801
0.8888561746
0.8880776263
0.8807412191
0.8786970473
0.8732210718
0.8684539568
0.8651969722
0.8566446272
0.8566539707
0.8481329505
0.8415051423
0.8384184681
0.8373688917
0.8404177759
0.8305833919
0.8233772966
0.8184970774
0.8167748028
0.8049170863
0.8074569501
0.8012299416
0.8026001027
0.792378936
0.7802488679
0.7702276197
0.7563486631
0.7443714369
0.7326119496
0.714105296
0.6962442972
0.6663962873
0.63746243
0.5974698472
0.5484676917
0.487901893
0.4610004982
0.4836575756
0.5084766946
0.5381644822
0.5714109479
0.6114926614
0.6538363886
0.698346257
0.7442648436
0.7838563146
0.8277996304
0.8694297784
0.9078481457
0.9444822029
0.96580674
0.9881621729
1.010004983
1.021124243
1.040665131
1.045711731
1.052043091
1.057812981
1.056859189
1.05927179
1.063802917
1.055688074
1.055877314
1.059624206
1.051459285
1.046779532
1.038030141
1.030132898
1.02885688
1.029555117
1.020893398
1.009200503
1.013983134
1.014447248
0.9980261105
0.9946753537
0.9968445496
0.9851604856
0.9732954671
0.9660095813
0.9588366187
0.9566076513
0.9525046311
0.9460964176
0.9437578004
0.9379966395
0.9344762746
0.929047802
0.9239522086
0.9168650847
0.911467917
0.9061757075
0.9017678293
0.8945456393
0.8926437981
0.8946785083
0.8930347456
0.8883235376
0.8817459618
0.8813417653
0.8801707643
0.8670850908
0.8614350762
0.862087544
0.8565330734
0.8518861241
0.8425718661
0.8356421363
0.8326073477
0.8356870196
0.8264170328
0.8189770553
0.8192940339
0.820450567
0.8079292276
0.8061444937
0.8006091176
0.801975992
0.7825017288
0.7797682995
0.7710596386
0.7565523032
0.748051005
0.7335189357
0.7118332618
0.6966831033
0.6698280463
0.642599282
0.6121885343
0.5638331129
0.5073794801
0.4507052707
0.4661214955
0.4802475977
0.5026061899
0.5257279258
0.5554416243
0.5908979036
0.6230775655
0.6621414907
0.6972485148
0.7393051058
0.777000954
0.8181815519
0.8565089394
0.8846980508
0.9138872537
0.9387178376
0.9605102201
0.9763267835
0.9936271079
1.005436418
1.021277131
1.026956987
1.024548432
1.032709952
1.038333365
1.039124819
1.036601515
1.03751736
1.032891094
1.022249301
1.01756682
1.020447188
1.014887458
1.013593736
1.00547998
1.004391193
1.000696775
0.9876047615
0.9832088211
0.9807000086
0.9767613421
0.9643320913
0.9613189529
0.9532946816
0.9488037831
0.9441922964
0.9382409961
0.9365524039
0.9352521433
0.9278116003
0.918049931
0.9174273227
0.9083605635
0.9037746971
0.8974994829
0.9007584216
0.8923710695
0.8904223174
0.8915548354
0.8862609712
0.8847361694
0.8790376048
0.8769283655
0.8748310755
0.864504071
0.8577560035
0.8572796885
0.8482125259
0.8476767915
0.8421697482
0.8364042412
0.8403287314
0.8398521205
0.8281040253
0.8268850238
0.822956903
0.8179144577
0.814154129
0.8087561383
0.8011665114
0.7975895946
0.7837000514
0.774284339
0.770806394
0.761853435
0.7476452513
0.7363009794
0.7183895772
0.6978471665
0.6778009706
0.6492421699
0.6192314254
0.5697352921
0.5165789194
0.439760958
0.4477443425
0.4593639813
0.4717174992
0.4881858306
0.5101736816
0.5381611921
0.5677234749
0.5947632882
0.6300662079
0.6616445438
0.6939008506
0.7388691883
0.7765964079
0.803486717
0.841088901
0.8660039051
0.8942406957
0.9225860914
0.9400480171
0.9558249165
0.9741323322
0.9877263333
0.998123746
1.004960811
1.009358393
1.013583213
1.01327817
1.013583719
1.012170699
1.010594566
1.007688505
1.003368203
1.003149386
1.000099567
0.9932846901
0.9869064634
0.9862400665
0.9820401176
0.9784518113
0.9693250312
0.9647444609
0.9571949271
0.9526144994
0.945368952
0.9401666321
0.9364596505
0.9293436894
0.9323365116
0.9307523173
0.925446959
0.9148911024
0.9106290319
0.9062454414
0.9101990328
0.8952861498
0.8966613638
0.8928440607
0.8896368039
0.8884992845
0.8841450607
0.8797352221
0.8726655965
0.8738347071
0.8691272905
0.8669075615
0.866174543
0.8596337054
0.8498681066
0.8451931966
0.8414528582
0.8373890879
0.8354296956
0.8302788362
0.8234397959
0.8176284419
0.818380668
0.8197680023
0.8138149808
0.8059184883
0.7980819995
0.7971424118
0.7868688946
0.7812106873
0.7756938273
0.7593175486
0.7463150798
0.7345964684
0.7168590628
0.6994946338
0.6763722332
0.6591307813
0.6240120407
0.5845217068
0.5325442788
0.4321139726
0.437467443
0.4459427589
0.4563046987
0.4683577171
0.481861422
0.5010950243
0.5227129976
0.5446853737
0.5683774889
0.5918330913
0.6235689631
0.6548463574
0.696295916
0.7297848449
0.7628105673
0.7949226643
0.8244430367
0.860017857
0.880963654
0.9071593342
0.9292542016
0.938181972
0.9548635139
0.9716176749
0.9837413861
0.985537886
0.988388104
0.9945128904
0.9914499002
0.996861556
0.997860307
0.9895310786
0.9885716622
0.9860582554
0.9876887823
0.9832213287
0.981633448
0.9816707052
0.9736732575
0.9639052933
0.9580781822
0.9545512779
0.9539718185
0.9467155395
0.9387662695
0.9324519496
0.9354306531
0.9330463365
0.9273778517
0.9187117548
0.9083800896
0.9064689893
0.9051107065
0.8993477509
0.8952985417
0.892282679
0.890133204
0.8911031967
0.883988172
0.8787115787
0.8703097096
0.8716054958
0.8662338283
0.8633175363
0.8618826358
0.8545422795
0.8615817364
0.8546584382
0.8380258595
0.842402558
0.8345640941
0.8303973361
0.8271326934
0.8265488148
0.8222890205
0.8195978749
0.8145913861
0.8101786709
0.8024341826
0.7992971096
0.7965807845
0.7911550576
0.7745338023
0.7715763484
0.7564943995
0.7538205442
0.7388874314
0.7223326245
0.7059462899
0.6872862787
0.6662016986
0.6360826683
0.5958466571
0.5516678155
0.4233537709
0.4293931598
0.4356616983
0.4458333376
0.4545008894
0.4667865143
0.475045181
0.4901041888
0.5086771902
0.5246895502
0.5480314512
0.5722823378
0.5999121189
0.6318194002
0.6582031213
0.6875547788
0.7216095308
0.7527920751
0.7833782942
0.8132614009
0.8409195785
0.8670871113
0.8914568282
0.9070364037
0.9286065386
0.9405775198
0.9567647293
0.9595664357
0.9678892554
0.9733798093
0.9785860303
0.9789993189
0.9739992042
0.9809100948
0.9755924129
0.9745629491
0.9721601637
0.9715114619
0.9688125363
0.9682412408
0.9565506693
0.9544405351
0.9534849829
0.951220624
0.9444237648
0.9407608528
0.9401207886
0.9305363866
0.9224644498
0.9187780349
0.9173165938
0.9126075799
0.9048123719
0.9056636693
0.8987045759
0.8858067916
0.8901836612
0.8856911773
0.8873529365
0.8777009218
0.8705488961
0.8658449586
0.8613023399
0.8589866026
0.8635672505
0.863277429
0.8546645193
0.8509447622
0.846191603
0.8421894112
0.8370417805
0.8347166041
0.8301209784
0.8271514508
0.8236576252
0.8205442221
0.8161314492
0.8150342684
0.8099802969
0.8060222744
0.7953678432
0.7932827141
0.7858116675
0.7751586052
0.7657900663
0.7577305728
0.7518372765
0.7404807563
0.7300334772
0.7102667772
0.6942983685
0.6695945919
0.6443169219
0.6126079748
0.5656111281
0.4208924703
0.4246965119
0.4265222169
0.4322230527
0.4400592682
0.4457876015
0.455344971
0.468060149
0.4792470001
0.4963312163
0.5101797213
0.5293001626
0.5513895584
0.577708296
0.6065837834
0.6327083795
0.660380093
0.6920492319
0.7221064611
0.7518599001
0.7776877616
0.8069106111
0.8331283553
0.856571385
0.8760216794
0.8961488324
0.9162983154
0.9292938787
0.9366265645
0.9456341093
0.9552453549
0.9608209012
0.9649166691
0.9640306635
0.9626666756
0.9622199736
0.9657155305
0.9600123573
0.9606758706
0.9565699237
0.9526750379
0.9489998084
0.947840273
0.9497640846
0.9410692611
0.9345758606
0.9291477188
0.9228486277
0.9176364997
0.9166332716
0.9142774058
0.9079417048
0.9052057963
0.8981566171
0.8995982198
0.8888083202
0.8860455267
0.8830205239
0.8793909599
0.8769748924
0.8684894195
0.8605239915
0.8634804326
0.8632556904
0.8634754402
0.8604847506
0.8547865548
0.8486866138
0.8417591399
0.8419649218
0.8422540465
0.8351915196
0.8287301786
0.8183999642
0.822629969
0.8211554907
0.8225324491
0.8124553494
0.8061948936
0.8059315037
0.7967521122
0.7940914774
0.7866122624
0.7790702863
0.7699195496
0.7588756099
0.7522906347
0.7412872029
0.735150793
0.711142825
0.6960433683
0.6787021023
0.6584204779
0.6255190787
0.5894296184
0.4202615559
0.4222233899
0.4226305301
0.4253460514
0.4297841353
0.4349097785
0.4427133512
0.4530234161
0.461670913
0.4700280183
0.485123954
0.5000074388
0.5156097856
0.5333830494
0.5553254091
0.5775890227
0.6051418591
0.6274521472
0.6583037468
0.6871325701
0.7159653612
0.7411960597
0.770165613
0.794205092
0.821819952
0.8453348362
0.8696468525
0.8908520941
0.9084655744
0.917381273
0.9268864672
0.9374543606
0.9431158381
0.9493453855
0.9483436712
0.9507074956
0.9550690561
0.955358651
0.950367563
0.951527997
0.9466009815
0.9453884668
0.945137296
0.943880023
0.9386824521
0.9357402095
0.9294875866
0.9280723737
0.9191455092
0.9117381633
0.9082940495
0.9052043238
0.9002741385
0.8964997518
0.8918330867
0.886935263
0.8897607213
0.8800705634
0.8780070294
0.8738644966
0.8705943748
0.8685417987
0.8688521724
0.8633936993
0.8573965552
0.8595263782
0.8532434435
0.849898952
0.8463800756
0.838871923
0.8366374604
0.8334097353
0.8268144188
0.8226835488
0.81968353
0.8183704149
0.8204835341
0.8117735806
0.805882278
0.8007558662
0.8016644754
0.7953980908
0.7851310037
0.7792207404
0.7713023089
0.7634440303
0.7515856342
0.7449328848
0.7352874636
0.7159910476
0.7045852886
0.684710046
0.6630991707
0.6367690473
0.6034479277
0.4173815139
0.4176909931
0.4196951338
0.4223728219
0.4235572011
0.4271732942
0.433342726
0.4378425791
0.4452706142
0.4561429405
0.4646740152
0.4726625018
0.486654352
0.5009536242
0.515539671
0.5345470201
0.5556147631
0.5773749989
0.5978475331
0.6249256578
0.6542275766
0.6804126033
0.7113941368
0.7354317435
0.761455184
0.7852608967
0.8119125954
0.8351218012
0.8552336544
0.8772872617
0.8936277419
0.9064412627
0.9159447655
0.9313142553
0.9390708166
0.9388418159
0.9419152913
0.9383090029
0.9456479565
0.942446981
0.9434606956
0.939961411
0.9355818295
0.9356177456
0.938085377
0.9335135254
0.9311830477
0.9209209174
0.9209433248
0.917715062
0.9097379573
0.9100386917
0.9016395184
0.8993890487
0.8885381999
0.8850286326
0.8888170297
0.8804995875
0.8787427996
0.8753670422
0.8707175859
0.8652245931
0.8659571111
0.8585617652
0.8493587133
0.8506758219
0.8534445576
0.8492665674
0.8466441048
0.8412773728
0.837166266
0.8357581557
0.8304809516
0.823192715
0.822381434
0.8196075216
0.8116273794
0.8087688428
0.8023039168
0.798585571
0.7974081267
0.7923483457
0.7914288856
0.7821794195
0.7725235236
0.7618665172
0.7511985692
0.7476953263
0.7366671524
0.7321107318
0.7088590406
0.6888639671
0.670464366
0.646708144
0.6118879031
0.4163397047
0.4156791147
0.4180883215
0.4203501834
0.4246534791
0.4261773281
0.427983105
0.4343718429
0.4372342447
0.4420533819
0.4491927225
0.4572632915
0.4665307231
0.4780020715
0.4900856627
0.5033795153
0.5178748916
0.5374210959
0.5586376658
0.5773303169
0.5978615642
0.6211626131
0.6489656937
0.6749722099
0.7030568523
0.7286006489
0.7525366845
0.7752656064
0.8043478129
0.8245554232
0.8434515763
0.8658891301
0.8782429832
0.8912986061
0.905442616
0.9143650067
0.9219359238
0.9264069231
0.9306048044
0.9348097599
0.9392762872
0.9369911719
0.9364678261
0.9356310766
0.9320126785
0.926192092
0.9229788859
0.9249050864
0.9204629724
0.9172787418
0.9067623436
0.9004805264
0.9004888122
0.8980590134
0.8994043655
0.8908687111
0.885200999
0.8835672929
0.8822080931
0.873709498
0.8688383394
0.8685807323
0.8594257103
0.8601252209
0.8557852025
0.8505449623
0.848688114
0.8470236647
0.8434691962
0.8393403342
0.837341027
0.8351745011
0.8308229661
0.8268519343
0.8230542512
0.8183509227
0.809347478
0.8067279965
0.8024023767
0.8003662102
0.7975763334
0.794165486
0.7870772102
0.7819301925
0.7709218852
0.7635293465
0.7558567666
0.7466173884
0.7397504541
0.7311761226
0.7171425082
0.6983606755
0.6790862213
0.6618060127
0.6241025614
0.4153073401
0.4150915469
0.4168534221
0.4183246254
0.4204463002
0.4228554985
0.4247797233
0.4277003542
0.4300735593
0.4357984384
0.4375859325
0.4432531061
0.448600797
0.4585344657
0.4652347922
0.4790299076
0.4893499606
0.5042585614
0.5166052868
0.5337106869
0.5545662622
0.5725854655
0.5964136395
0.6199845287
0.6446300293
0.6693826267
0.697500889
0.7222754497
0.7472045651
0.7727056935
0.7925136701
0.8142823809
0.832947718
0.8461935179
0.8620055894
0.8797509258
0.8945864516
0.9031189615
0.9119733316
0.9181360108
0.9214742086
0.9294372602
0.9242952857
0.9258049951
0.9275473752
0.926436982
0.9260058851
0.9192567168
0.9177583979
0.9150153304
0.9096627137
0.902107623
0.9021804878
0.8992402907
0.897432573
0.8977289927
0.8935816892
0.8858207488
0.8804848817
0.8758371352
0.8675350039
0.8649878938
0.8606598363
0.8560403551
0.8513665924
0.8488091347
0.8453089082
0.840776845
0.8409190893
0.8399843878
0.837825731
0.8341631447
0.8314057846
0.826255883
0.8187462412
0.8122990377
0.8075173532
0.8080660543
0.8072748055
0.7976203658
0.7917851464
0.7912784868
0.7904692801
0.7835522904
0.777764994
0.7734121056
0.7586198357
0.7452290003
0.739305242
0.7278281478
0.7206422234
0.7070311412
0.6921056062
0.6662395078
0.6418318232
0.417090416
0.4187606271
0.4170303076
0.4178300331
0.4171943725
0.4189758762
0.4208131036
0.4201367299
0.4247726156
0.427715123
0.4311089945
0.434307083
0.4391603632
0.4434082543
0.4497420541
0.4584851504
0.4648622314
0.4771562027
0.4890665171
0.5024365475
0.5172878444
0.5353362943
0.5529543162
0.568215069
0.5926538421
0.6124428708
0.6384828792
0.6646267087
0.6870958972
0.7122849372
0.7370383798
0.7621984172
0.784728741
0.8058661114
0.8251595752
0.8407248398
0.8582723891
0.8709173395
0.8832369131
0.894394127
0.9021879838
0.9078599517
0.9160900292
0.9166646023
0.920511137
0.9132420451
0.9141582506
0.9180227907
0.917166072
0.9174234537
0.9132626679
0.907159082
0.903990639
0.8988567538
0.8962914865
0.8957795189
0.8911742402
0.8879511832
0.8818081424
0.8809337063
0.8717220388
0.8706619002
0.8651300382
0.8563588874
0.8599341321
0.8534490555
0.8517619225
0.8517398755
0.8487109321
0.840723612
0.8347759727
0.8347885572
0.8301396372
0.8236284272
0.8179153601
0.8128461265
0.8114867751
0.8054284009
0.8069388565
0.8023141869
0.7922864749
0.7904325565
0.7857539086
0.7804899647
0.7772300616
0.7670752618
0.7611212853
0.7546314899
0.7434613632
0.738893307
0.727923196
0.7121758056
0.6982527462
0.679159582
0.6548581101
0.4124098773
0.4130487379
0.4150384618
0.4154282718
0.4149331964
0.416052225
0.419807915
0.4199611969
0.4220453446
0.4217578049
0.4254025444
0.4273939595
0.4328891308
0.4395725196
0.4400335598
0.4452812067
0.4525795404
0.4585041852
0.4681170099
0.4761242079
0.4889632396
0.5014970462
0.5165327889
0.5331596138
0.5481160058
0.5702506622
0.5893143784
0.6089169524
0.6333633868
0.6587933606
0.6830241061
0.7072565297
0.7345371253
0.757055292
0.7759683552
0.7999509999
0.8148707295
0.8321142741
0.8498953444
0.8636970693
0.8742068298
0.8830410302
0.8889449693
0.9001392735
0.9041388763
0.9090034862
0.9092480791
0.9102895386
0.9134741362
0.913992911
0.9111192359
0.9122743766
0.9057119625
0.9004394873
0.8947150741
0.8936780426
0.890924745
0.885880072
0.8858567472
0.8804200138
0.8796912359
0.8702656478
0.8710761646
0.8666258318
0.8596069683
0.857572664
0.8520801264
0.8447245809
0.8444067095
0.8415219905
0.8385376345
0.8340984262
0.828839882
0.826476614
0.8223924321
0.821089542
0.8157872731
0.8098677366
0.8065925099
0.7983497672
0.7953553167
0.7890568169
0.7868085273
0.7825967364
0.7788619657
0.7730803105
0.7659058336
0.7578189499
0.7478121846
0.7420430336
0.7304560522
0.7186722173
0.7063764493
0.6890190063
0.6647122921
0.4144535421
0.4143137659
0.4137637984
0.4148496059
0.4146053631
0.4187687097
0.4189814523
0.4200931029
0.421807531
0.4227733531
0.4228773882
0.4235000641
0.4257423744
0.42718822
0.4320754512
0.4348223343
0.4413489108
0.4475954676
0.4560051446
0.4598200452
0.4676555706
0.4794640532
0.488660891
0.5015021263
0.5125806702
0.52721476
0.5481071327
0.5657896392
0.5824132318
0.604716961
0.6247584204
0.650614395
0.6744828004
0.7001181145
0.7258308712
0.7436855018
0.7671766895
0.789297056
0.8052384726
0.8253638358
0.839499259
0.8547767088
0.8672020378
0.8781705321
0.8839870267
0.8963432333
0.9002912422
0.8985120136
0.9010084979
0.90738424
0.9080462157
0.9049882926
0.9051428198
0.9021583797
0.9019664548
0.8913903482
0.8891260856
0.8866576483
0.8880983971
0.8869131743
0.8785254266
0.8795394887
0.8734507101
0.8669783103
0.862394123
0.8577195995
0.8535266153
0.8485105805
0.8416469792
0.8366983305
0.8380879026
0.8347683559
0.8357886624
0.8295074609
0.8245827971
0.8207704051
0.8169772038
0.8116076242
0.8054785055
0.8048452258
0.8023405067
0.7960081757
0.7858535109
0.784804709
0.7766806363
0.7776438941
0.7728861668
0.7638471185
0.7534787797
0.7467884983
0.7347454236
0.723915737
0.71465696
0.6994628618
0.682410458
0.4144163268
0.4152996729
0.4160338597
0.4160348883
0.415582228
0.4160404091
0.4173234883
0.4185851656
0.418707859
0.4203401379
0.4201711441
0.4195554791
0.4204299847
0.4240348252
0.4271542975
0.4311912704
0.4331412689
0.4382771563
0.4427032299
0.448218888
0.4518413518
0.4613805206
0.4682657664
0.4757611212
0.4868327438
0.4985236739
0.511181411
0.5284622368
0.5446975443
0.5601299206
0.5808516563
0.6000194329
0.6212466329
0.6440534811
0.6687831039
0.6932843152
0.7146275831
0.7371156708
0.7611107207
0.7807050854
0.8008351473
0.818582716
0.8320921056
0.8472181062
0.8649747544
0.8709209144
0.8812251876
0.8901267268
0.8914204484
0.8939516743
0.8966902378
0.8993128172
0.8993310784
0.8979802527
0.8962398606
0.8944293689
0.8913844004
0.8886314952
0.890626149
0.8899157145
0.885352095
0.8793864283
0.8753252193
0.8729030741
0.8654080515
0.8587274862
0.8514550066
0.8476533286
0.8486729103
0.8468823772
0.8425808691
0.8404656271
0.8340147178
0.831765069
0.8243718768
0.8216755701
0.8185233176
0.8149116564
0.8100039979
0.8046245074
0.8006792755
0.7964650521
0.7923280238
0.788792861
0.7847304787
0.7778846148