/*--------------------------------*- C++ -*----------------------------------*\
| =========                 |                                                 |
| \\      /  F ield         | OpenFOAM: The Open Source CFD Toolbox           |
|  \\    /   O peration     | Version:  v1706                                 |
|   \\  /    A nd           | Web:      www.OpenFOAM.com                      |
|    \\/     M anipulation  |                                                 |
\*---------------------------------------------------------------------------*/
FoamFile
{
    version     2.0;
    format      ascii;
    class       volScalarField;
    location    "0.04";
    object      rhoM_N2cold;
}
// * * * * * * * * * * * * * * * * * * * * * * * * * * * * * * * * * * * * * //

dimensions      [1 -3 0 0 0 0 0];


internalField   nonuniform List<scalar> 
6000
(
4.653674396e-06
4.663740684e-06
4.689840049e-06
4.747599599e-06
5.048027882e-06
4.648091539e-06
4.659809812e-06
4.687921049e-06
4.754031269e-06
4.974375579e-06
4.660933253e-06
4.65826023e-06
4.692213537e-06
4.757174551e-06
4.908586269e-06
4.646720719e-06
4.671480954e-06
4.695799655e-06
4.747626148e-06
4.827626584e-06
4.650833749e-06
4.652697174e-06
4.672299532e-06
4.70534019e-06
4.769282488e-06
4.643621689e-06
4.644244462e-06
4.649751262e-06
4.67438812e-06
4.715285858e-06
4.656259778e-06
4.662495624e-06
4.677078047e-06
4.695027106e-06
4.717914507e-06
4.657541283e-06
4.653050309e-06
4.657106609e-06
4.66752057e-06
4.692383594e-06
4.653561115e-06
4.662288514e-06
4.678359384e-06
4.685987257e-06
4.691135067e-06
4.646376646e-06
4.662252058e-06
4.655608166e-06
4.656453213e-06
4.667958126e-06
4.649596459e-06
4.645084091e-06
4.659070989e-06
4.666406722e-06
4.676948557e-06
4.652730419e-06
4.655203246e-06
4.653111279e-06
4.657983027e-06
4.663023449e-06
4.657206347e-06
4.65087733e-06
4.656221227e-06
4.649494583e-06
4.649996175e-06
4.64882155e-06
4.644307605e-06
4.649199196e-06
4.65165324e-06
4.654163391e-06
4.646127299e-06
4.644719412e-06
4.649392341e-06
4.640114079e-06
4.650068735e-06
4.658874025e-06
4.652814299e-06
4.65768861e-06
4.661897246e-06
4.657469626e-06
4.652229916e-06
4.647773183e-06
4.650714355e-06
4.636158963e-06
4.650730475e-06
4.647328303e-06
4.649323859e-06
4.65301003e-06
4.666563499e-06
4.662918556e-06
4.644440021e-06
4.647274016e-06
4.649747418e-06
4.649873491e-06
4.638957599e-06
4.650579915e-06
4.647801474e-06
4.64652106e-06
4.642032932e-06
4.642344746e-06
4.642555056e-06
4.650315047e-06
4.651580352e-06
4.645023308e-06
4.664468442e-06
4.654489267e-06
4.651636058e-06
4.655995755e-06
4.650748939e-06
4.652196459e-06
4.647043236e-06
4.647991383e-06
4.640619146e-06
4.636366373e-06
4.63389084e-06
4.648505057e-06
4.643530997e-06
4.631393417e-06
4.632058877e-06
4.641170495e-06
4.651327809e-06
4.654465575e-06
4.662521367e-06
4.669640402e-06
4.662330263e-06
4.648355281e-06
4.653162405e-06
4.65844051e-06
4.658850762e-06
4.651554571e-06
4.6516551e-06
4.65610772e-06
4.663373821e-06
4.65134258e-06
4.653456764e-06
4.642651831e-06
4.637544687e-06
4.6427019e-06
4.641921815e-06
4.651830953e-06
4.653523977e-06
4.649272251e-06
4.645843628e-06
4.642415872e-06
4.639014185e-06
4.648716344e-06
4.641591822e-06
4.64208022e-06
4.633051141e-06
4.645429111e-06
4.653854624e-06
4.656964826e-06
4.651360074e-06
4.650909164e-06
4.660171802e-06
4.646890212e-06
4.643535807e-06
4.645890991e-06
4.656917952e-06
4.639737906e-06
4.651072668e-06
4.661004122e-06
4.657807253e-06
4.664156894e-06
4.662414594e-06
4.649619859e-06
4.650543221e-06
4.654085242e-06
4.645250779e-06
4.645911026e-06
4.652658943e-06
4.654913479e-06
4.653491073e-06
4.665330692e-06
4.668682232e-06
4.649392528e-06
4.638972632e-06
4.63933587e-06
4.635962048e-06
4.632551422e-06
4.650045282e-06
4.639019442e-06
4.638741563e-06
4.633759917e-06
4.645055161e-06
4.656777332e-06
4.671438074e-06
4.677439454e-06
4.671143677e-06
4.666973484e-06
4.650098049e-06
4.650028582e-06
4.654807896e-06
4.652416316e-06
4.654776685e-06
4.644849405e-06
4.642100383e-06
4.636626902e-06
4.636311098e-06
4.642073458e-06
4.656994623e-06
4.653317026e-06
4.659531534e-06
4.651680272e-06
4.66138884e-06
4.647157498e-06
4.654360011e-06
4.641950453e-06
4.648604866e-06
4.635979253e-06
4.63872887e-06
4.632782192e-06
4.643494772e-06
4.650415258e-06
4.646327882e-06
4.65513097e-06
4.654650613e-06
4.651516565e-06
4.650085109e-06
4.649841322e-06
4.654629471e-06
4.656144319e-06
4.655283898e-06
4.653518326e-06
4.648570395e-06
4.63931573e-06
4.64076303e-06
4.633605231e-06
4.637876325e-06
4.64317822e-06
4.647939501e-06
4.64982839e-06
4.645931945e-06
4.644207503e-06
4.647177446e-06
4.649077346e-06
4.646572898e-06
4.654242873e-06
4.65314378e-06
4.648774675e-06
4.653951105e-06
4.652976061e-06
4.657475806e-06
4.646882414e-06
4.648211915e-06
4.648973887e-06
4.646634029e-06
4.642059036e-06
4.658309446e-06
4.649915806e-06
4.649437359e-06
4.654754761e-06
4.653014603e-06
4.650642561e-06
4.652155371e-06
4.647744755e-06
4.649401552e-06
4.650743858e-06
4.651261119e-06
4.64981318e-06
4.654477534e-06
4.659727152e-06
4.651054745e-06
4.655383336e-06
4.664453303e-06
4.645908851e-06
4.648848182e-06
4.644953674e-06
4.648834779e-06
4.65241609e-06
4.64364793e-06
4.643624534e-06
4.642294045e-06
4.646263667e-06
4.644198991e-06
4.655837704e-06
4.660465857e-06
4.66345615e-06
4.655844703e-06
4.657977768e-06
4.648839965e-06
4.641812341e-06
4.645626559e-06
4.646271449e-06
4.650005151e-06
4.648693061e-06
4.652774443e-06
4.649633886e-06
4.648001691e-06
4.646940652e-06
4.653680353e-06
4.651077994e-06
4.649432381e-06
4.651648028e-06
4.65757721e-06
4.650733908e-06
4.649862392e-06
4.651264079e-06
4.650956125e-06
4.64112999e-06
6.097175226e-06
6.334686832e-06
6.256999726e-06
6.145639643e-06
6.048348626e-06
5.97185915e-06
5.913918494e-06
5.87484097e-06
5.79973372e-06
5.779814156e-06
5.726933329e-06
5.682647552e-06
5.654777525e-06
5.659670564e-06
5.653110298e-06
5.614158655e-06
5.573773753e-06
5.490322324e-06
5.459552426e-06
5.418073738e-06
5.427657546e-06
5.391454053e-06
5.331228418e-06
5.282697813e-06
5.252795883e-06
5.254896637e-06
5.230627486e-06
5.196486685e-06
5.177067266e-06
5.102437518e-06
5.073590821e-06
5.116047307e-06
5.065432487e-06
5.05482364e-06
5.04745265e-06
5.060762923e-06
5.030733916e-06
4.996484705e-06
4.942040938e-06
4.949682692e-06
4.950579092e-06
4.88991435e-06
4.83968346e-06
4.837714964e-06
4.846441016e-06
4.820447717e-06
4.794419417e-06
4.744979702e-06
4.75157033e-06
4.744069915e-06
4.7260029e-06
4.689569109e-06
4.694272437e-06
4.684003983e-06
4.650469981e-06
4.693259061e-06
4.640394544e-06
4.636245708e-06
4.634766043e-06
4.59754857e-06
4.606629653e-06
4.614958438e-06
4.59812048e-06
4.590977075e-06
4.570801755e-06
4.54250063e-06
4.551515916e-06
4.528703284e-06
4.520900208e-06
4.498899597e-06
4.454152267e-06
4.422734398e-06
4.453600267e-06
4.498677039e-06
4.453878297e-06
4.407516538e-06
4.38068138e-06
4.382668201e-06
4.375722075e-06
4.332035423e-06
4.344978962e-06
4.271708672e-06
4.274807281e-06
4.21824854e-06
4.183398727e-06
4.133975566e-06
4.073708788e-06
4.019702857e-06
3.957143372e-06
3.833511306e-06
3.690301735e-06
3.55931625e-06
3.399254557e-06
3.121528031e-06
2.686462171e-06
5.414499648e-06
5.908879869e-06
6.248625805e-06
6.358269398e-06
6.362181414e-06
6.320885046e-06
6.227334457e-06
6.134089797e-06
6.043165367e-06
5.955486261e-06
5.894075781e-06
5.828654694e-06
5.739400851e-06
5.71233007e-06
5.614333088e-06
5.575014641e-06
5.538013464e-06
5.482226812e-06
5.411971607e-06
5.363845546e-06
5.363975933e-06
5.323891309e-06
5.248566974e-06
5.226676069e-06
5.190262429e-06
5.161886217e-06
5.148449206e-06
5.10419001e-06
5.075473295e-06
5.071317446e-06
5.012875403e-06
4.991342101e-06
4.941171676e-06
4.909487119e-06
4.923795932e-06
4.882739468e-06
4.882481674e-06
4.834875414e-06
4.823594381e-06
4.793273983e-06
4.760732521e-06
4.74447624e-06
4.738880528e-06
4.714002649e-06
4.71304821e-06
4.683662182e-06
4.632693755e-06
4.639911381e-06
4.616224338e-06
4.602976369e-06
4.589243499e-06
4.557926969e-06
4.557886668e-06
4.543025319e-06
4.57353552e-06
4.565946434e-06
4.523562236e-06
4.511525151e-06
4.497235587e-06
4.492317464e-06
4.441379757e-06
4.462903543e-06
4.475611687e-06
4.466574959e-06
4.438762717e-06
4.409442911e-06
4.405329489e-06
4.423372214e-06
4.380304566e-06
4.345604669e-06
4.34262411e-06
4.340403018e-06
4.344287104e-06
4.318854698e-06
4.318281216e-06
4.292862377e-06
4.258876894e-06
4.279717475e-06
4.248962221e-06
4.217639033e-06
4.20318924e-06
4.199935176e-06
4.143487059e-06
4.103167097e-06
4.055097926e-06
4.0104811e-06
3.943687438e-06
3.917171749e-06
3.847393778e-06
3.747418663e-06
3.627611476e-06
3.493771879e-06
3.294441762e-06
3.040466234e-06
2.623736775e-06
5.11444868e-06
5.416764831e-06
5.72655582e-06
5.987786734e-06
6.188542179e-06
6.30817351e-06
6.344902657e-06
6.313275311e-06
6.282617657e-06
6.211419558e-06
6.146269078e-06
6.057349673e-06
5.977916045e-06
5.895797089e-06
5.810059541e-06
5.748839511e-06
5.690686739e-06
5.632180642e-06
5.565296974e-06
5.512234479e-06
5.444359765e-06
5.405941977e-06
5.349830383e-06
5.272105942e-06
5.212777535e-06
5.182193653e-06
5.158028021e-06
5.137854298e-06
5.070872674e-06
5.059371295e-06
5.034736677e-06
5.003018589e-06
4.928253467e-06
4.914788421e-06
4.894331749e-06
4.875994116e-06
4.8406792e-06
4.844108284e-06
4.785081565e-06
4.740751475e-06
4.725194479e-06
4.708053843e-06
4.704709996e-06
4.675228593e-06
4.645379103e-06
4.639112515e-06
4.645428778e-06
4.605410788e-06
4.560282997e-06
4.511431815e-06
4.528001341e-06
4.500534168e-06
4.489286113e-06
4.464403346e-06
4.489231709e-06
4.479687054e-06
4.465468858e-06
4.450285271e-06
4.425349613e-06
4.417047853e-06
4.396103743e-06
4.404471736e-06
4.406503132e-06
4.384150678e-06
4.349624133e-06
4.343717055e-06
4.350968788e-06
4.329700354e-06
4.317050187e-06
4.293655233e-06
4.256420194e-06
4.263302119e-06
4.243111394e-06
4.234298635e-06
4.227717082e-06
4.230802238e-06
4.211945175e-06
4.186351471e-06
4.209040387e-06
4.159750592e-06
4.133203454e-06
4.135401036e-06
4.071105317e-06
4.015446926e-06
3.981234265e-06
3.947686799e-06
3.898969804e-06
3.846233774e-06
3.788003264e-06
3.703736549e-06
3.574069918e-06
3.435211473e-06
3.285402313e-06
3.024988413e-06
2.656252983e-06
4.924280713e-06
5.128275556e-06
5.361195851e-06
5.591240303e-06
5.835188078e-06
6.027831424e-06
6.171803046e-06
6.264811124e-06
6.324882884e-06
6.346950182e-06
6.320477898e-06
6.25483113e-06
6.206909137e-06
6.110083948e-06
6.049524631e-06
5.974179793e-06
5.929748512e-06
5.858706692e-06
5.778825709e-06
5.6684995e-06
5.608775378e-06
5.545997677e-06
5.463798624e-06
5.399540155e-06
5.341396779e-06
5.285177561e-06
5.248800053e-06
5.209471741e-06
5.150998195e-06
5.078620316e-06
5.09480115e-06
5.054989279e-06
5.002448531e-06
4.938839022e-06
4.929014558e-06
4.919447278e-06
4.881691239e-06
4.849368746e-06
4.838390133e-06
4.79805518e-06
4.749172426e-06
4.690811413e-06
4.669850587e-06
4.675016927e-06
4.636528942e-06
4.615470172e-06
4.606330355e-06
4.599671649e-06
4.554537373e-06
4.552211327e-06
4.519753785e-06
4.485311987e-06
4.474414982e-06
4.441779703e-06
4.424598524e-06
4.444653024e-06
4.419286917e-06
4.400873098e-06
4.385891341e-06
4.376945926e-06
4.354719807e-06
4.355027966e-06
4.368848819e-06
4.314548309e-06
4.319564801e-06
4.307782545e-06
4.28250144e-06
4.294897116e-06
4.308635583e-06
4.264032991e-06
4.225407403e-06
4.198007532e-06
4.206631132e-06
4.191136727e-06
4.175236508e-06
4.136639804e-06
4.129613636e-06
4.136131586e-06
4.136739613e-06
4.087307485e-06
4.088727884e-06
4.05509869e-06
4.023863342e-06
3.968472372e-06
3.94622687e-06
3.907264521e-06
3.861666824e-06
3.825145999e-06
3.759171516e-06
3.642755435e-06
3.546800742e-06
3.438420655e-06
3.26817473e-06
3.023485374e-06
2.711596535e-06
4.860527672e-06
4.961934954e-06
5.121753893e-06
5.306037311e-06
5.47223521e-06
5.694507832e-06
5.890401301e-06
6.05606932e-06
6.195390129e-06
6.263629603e-06
6.32160136e-06
6.331458719e-06
6.327841915e-06
6.295463264e-06
6.270430777e-06
6.207314132e-06
6.156555201e-06
6.072180058e-06
5.999903744e-06
5.910803958e-06
5.859302155e-06
5.752851452e-06
5.681288748e-06
5.625661809e-06
5.56146478e-06
5.518568607e-06
5.428954776e-06
5.35776424e-06
5.293850141e-06
5.251225095e-06
5.209348194e-06
5.164070435e-06
5.11968781e-06
5.090137472e-06
5.055636979e-06
4.999801698e-06
4.961651383e-06
4.913095848e-06
4.896820811e-06
4.854899083e-06
4.805964417e-06
4.750039486e-06
4.719329954e-06
4.681695809e-06
4.660164846e-06
4.63229605e-06
4.651750299e-06
4.612705069e-06
4.598233736e-06
4.565015017e-06
4.526969359e-06
4.504166815e-06
4.476462141e-06
4.471575626e-06
4.442790017e-06
4.436600956e-06
4.394754404e-06
4.381411593e-06
4.33624844e-06
4.349458479e-06
4.314044385e-06
4.333920828e-06
4.322138763e-06
4.308001269e-06
4.287221195e-06
4.299699552e-06
4.266888911e-06
4.265575848e-06
4.2639537e-06
4.243937409e-06
4.212840848e-06
4.18862599e-06
4.1578123e-06
4.163663276e-06
4.124918361e-06
4.107813509e-06
4.128436605e-06
4.099808677e-06
4.108942036e-06
4.074611449e-06
4.047956007e-06
4.02865783e-06
4.017971395e-06
3.960619564e-06
3.903657237e-06
3.84829359e-06
3.827841243e-06
3.798903691e-06
3.73991734e-06
3.663453005e-06
3.551445171e-06
3.415367824e-06
3.266932103e-06
3.064838605e-06
2.787794587e-06
4.766551773e-06
4.852106672e-06
4.966102929e-06
5.089846536e-06
5.247274899e-06
5.422081838e-06
5.611453104e-06
5.772630439e-06
5.935722847e-06
6.093136455e-06
6.211741772e-06
6.294514592e-06
6.347470623e-06
6.392460391e-06
6.358556963e-06
6.325215484e-06
6.305702175e-06
6.271868315e-06
6.219529637e-06
6.150189414e-06
6.100472245e-06
6.019773223e-06
5.948203555e-06
5.859625426e-06
5.789422251e-06
5.718737616e-06
5.626472716e-06
5.570574232e-06
5.504714551e-06
5.440591508e-06
5.375520816e-06
5.333629169e-06
5.277703276e-06
5.230315857e-06
5.215691309e-06
5.143459106e-06
5.065035551e-06
5.013671117e-06
4.991092675e-06
4.948821908e-06
4.901716032e-06
4.869620651e-06
4.821025281e-06
4.786388022e-06
4.755351427e-06
4.716022219e-06
4.688191836e-06
4.670335456e-06
4.635318153e-06
4.583137037e-06
4.568375181e-06
4.558569508e-06
4.509979524e-06
4.472611899e-06
4.473220552e-06
4.467625676e-06
4.424661747e-06
4.394345053e-06
4.375821357e-06
4.355322128e-06
4.350882996e-06
4.353994334e-06
4.33198356e-06
4.326050805e-06
4.309399519e-06
4.280398178e-06
4.282996282e-06
4.246011368e-06
4.250466416e-06
4.241100717e-06
4.183388575e-06
4.179350983e-06
4.134596657e-06
4.152539456e-06
4.127246277e-06
4.098894969e-06
4.121637625e-06
4.09226303e-06
4.095030784e-06
4.069856505e-06
4.034055541e-06
4.032610982e-06
4.00252261e-06
3.965004606e-06
3.910327172e-06
3.85815512e-06
3.836848474e-06
3.783779726e-06
3.739890149e-06
3.654874285e-06
3.554391636e-06
3.419040138e-06
3.287247233e-06
3.102213332e-06
2.86598839e-06
4.753161485e-06
4.806304278e-06
4.842750363e-06
4.947401218e-06
5.052883122e-06
5.181785809e-06
5.340528228e-06
5.499252513e-06
5.667273366e-06
5.835739625e-06
5.991443236e-06
6.136509377e-06
6.2338499e-06
6.302109147e-06
6.378435141e-06
6.403703794e-06
6.412769493e-06
6.407615552e-06
6.388887211e-06
6.357569188e-06
6.297830322e-06
6.235629175e-06
6.170067296e-06
6.110543194e-06
6.03295089e-06
5.951268994e-06
5.892507392e-06
5.807909039e-06
5.756315385e-06
5.688870601e-06
5.617057977e-06
5.540461522e-06
5.475473824e-06
5.405390257e-06
5.355154768e-06
5.279032979e-06
5.228027588e-06
5.151436479e-06
5.149734562e-06
5.088077116e-06
5.026711619e-06
4.990715768e-06
4.935252676e-06
4.903268782e-06
4.86148484e-06
4.806183718e-06
4.77003753e-06
4.748959884e-06
4.707510603e-06
4.644960358e-06
4.633738917e-06
4.610265601e-06
4.577979507e-06
4.568627383e-06
4.552692651e-06
4.531222963e-06
4.493153182e-06
4.457147776e-06
4.426550994e-06
4.396762197e-06
4.397483441e-06
4.397870428e-06
4.370276132e-06
4.357021425e-06
4.323659534e-06
4.299666284e-06
4.286961851e-06
4.258896093e-06
4.249167913e-06
4.219972389e-06
4.186544172e-06
4.190823963e-06
4.183531318e-06
4.180573495e-06
4.145425463e-06
4.114255783e-06
4.09908353e-06
4.102681409e-06
4.04194489e-06
4.066610905e-06
4.0613877e-06
4.055239124e-06
4.022979921e-06
3.975736321e-06
3.925397491e-06
3.876548611e-06
3.821165667e-06
3.782419824e-06
3.709942316e-06
3.662192278e-06
3.543881332e-06
3.444789484e-06
3.316412949e-06
3.143584206e-06
2.949142564e-06
4.692604762e-06
4.748419413e-06
4.79795057e-06
4.847370517e-06
4.93037743e-06
5.027105338e-06
5.135955802e-06
5.269102452e-06
5.421194711e-06
5.564567299e-06
5.728502963e-06
5.886952239e-06
6.054526574e-06
6.194651342e-06
6.274258353e-06
6.357953869e-06
6.425389086e-06
6.446202874e-06
6.487561487e-06
6.469726067e-06
6.444467747e-06
6.419135891e-06
6.362244593e-06
6.319532183e-06
6.252954551e-06
6.176159882e-06
6.108425636e-06
6.060604836e-06
5.959275033e-06
5.879697902e-06
5.806959081e-06
5.725954119e-06
5.668609525e-06
5.614649675e-06
5.545133408e-06
5.475508293e-06
5.44546046e-06
5.403042302e-06
5.302152341e-06
5.256471308e-06
5.220959478e-06
5.146144385e-06
5.079528842e-06
5.01618147e-06
4.971506298e-06
4.9530891e-06
4.910660683e-06
4.869503322e-06
4.826947515e-06
4.791158461e-06
4.769938913e-06
4.736672016e-06
4.694756902e-06
4.656597957e-06
4.615645019e-06
4.586702097e-06
4.556163825e-06
4.537535362e-06
4.510206826e-06
4.50008817e-06
4.478522527e-06
4.466336214e-06
4.44037302e-06
4.41872821e-06
4.400265303e-06
4.359013132e-06
4.331541179e-06
4.312146563e-06
4.284209077e-06
4.269218791e-06
4.233273484e-06
4.206494455e-06
4.185246412e-06
4.181326436e-06
4.156502187e-06
4.122166782e-06
4.119460813e-06
4.121769187e-06
4.061525911e-06
4.05147281e-06
4.034187038e-06
4.040754604e-06
3.988156225e-06
3.980208357e-06
3.949237377e-06
3.893962303e-06
3.863768601e-06
3.796244678e-06
3.720479764e-06
3.658493573e-06
3.593529344e-06
3.497720124e-06
3.394566165e-06
3.249035968e-06
3.070969429e-06
4.708356051e-06
4.741397392e-06
4.765942647e-06
4.806003556e-06
4.853546581e-06
4.923316916e-06
5.007558292e-06
5.096452603e-06
5.209192193e-06
5.334443929e-06
5.470969356e-06
5.614736343e-06
5.767539004e-06
5.922240943e-06
6.057713193e-06
6.172220063e-06
6.273293307e-06
6.343701349e-06
6.398273722e-06
6.453043768e-06
6.491537734e-06
6.521110037e-06
6.496953993e-06
6.448738465e-06
6.424618725e-06
6.389869573e-06
6.334988118e-06
6.266853842e-06
6.224166768e-06
6.146853961e-06
6.05687391e-06
5.988498219e-06
5.939416787e-06
5.859063666e-06
5.801827032e-06
5.718559339e-06
5.672099237e-06
5.604008706e-06
5.50642236e-06
5.433220891e-06
5.381500146e-06
5.33650403e-06
5.268632296e-06
5.214749821e-06
5.153149577e-06
5.104293517e-06
5.059159847e-06
5.005324044e-06
4.965486649e-06
4.931126329e-06
4.880715671e-06
4.832414497e-06
4.805762657e-06
4.738936924e-06
4.698894084e-06
4.666503565e-06
4.660101792e-06
4.616407538e-06
4.59735729e-06
4.59119596e-06
4.551147284e-06
4.524868623e-06
4.491764962e-06
4.479105911e-06
4.450394025e-06
4.405928664e-06
4.365278282e-06
4.347939194e-06
4.318306143e-06
4.31428673e-06
4.290696631e-06
4.257005433e-06
4.258237258e-06
4.240197407e-06
4.212227015e-06
4.192428921e-06
4.167859898e-06
4.135814857e-06
4.12014268e-06
4.092779016e-06
4.072758179e-06
4.065175093e-06
4.02295116e-06
3.97412182e-06
3.960199532e-06
3.942838931e-06
3.881056371e-06
3.844707131e-06
3.777834056e-06
3.69771208e-06
3.651299346e-06
3.555290246e-06
3.455594154e-06
3.293131659e-06
3.120499998e-06
4.691936657e-06
4.68703687e-06
4.71322055e-06
4.738787827e-06
4.772992537e-06
4.825719822e-06
4.894010468e-06
4.97709713e-06
5.06225275e-06
5.166220214e-06
5.278002109e-06
5.391238485e-06
5.539886146e-06
5.672159011e-06
5.797177412e-06
5.948634961e-06
6.072803477e-06
6.208687358e-06
6.31736199e-06
6.386408124e-06
6.442929035e-06
6.49870414e-06
6.549457857e-06
6.567958238e-06
6.563449659e-06
6.532972108e-06
6.504135193e-06
6.466297573e-06
6.402854789e-06
6.337918671e-06
6.289311676e-06
6.212311535e-06
6.140647106e-06
6.093004574e-06
6.022241516e-06
5.930640643e-06
5.843854038e-06
5.796126463e-06
5.743713036e-06
5.68026576e-06
5.601929183e-06
5.53592089e-06
5.461946603e-06
5.395584753e-06
5.336362321e-06
5.272917981e-06
5.233092332e-06
5.171393254e-06
5.130769276e-06
5.097295617e-06
5.046236745e-06
4.984880751e-06
4.928728112e-06
4.895879073e-06
4.879022226e-06
4.803287102e-06
4.774761326e-06
4.735130313e-06
4.700072392e-06
4.671635045e-06
4.640729709e-06
4.611513441e-06
4.567148837e-06
4.540236762e-06
4.519482118e-06
4.498719841e-06
4.495244426e-06
4.454267642e-06
4.398524498e-06
4.380280768e-06
4.347969712e-06
4.322778017e-06
4.301758563e-06
4.282938978e-06
4.247192452e-06
4.214698177e-06
4.200369454e-06
4.188827547e-06
4.166132791e-06
4.137800955e-06
4.104175807e-06
4.09169985e-06
4.056198826e-06
4.039456209e-06
4.015409533e-06
3.954878774e-06
3.906174321e-06
3.868596216e-06
3.820437444e-06
3.750099199e-06
3.678871214e-06
3.621810596e-06
3.500159213e-06
3.37732275e-06
3.212474603e-06
4.687211851e-06
4.694957255e-06
4.707153307e-06
4.724562511e-06
4.749261857e-06
4.771848693e-06
4.816636887e-06
4.86190032e-06
4.920552733e-06
4.989790863e-06
5.062507524e-06
5.163794819e-06
5.279564664e-06
5.423666775e-06
5.565152899e-06
5.700295047e-06
5.85026298e-06
5.974178653e-06
6.123003472e-06
6.238278436e-06
6.351064344e-06
6.439774384e-06
6.476827239e-06
6.543890351e-06
6.594587655e-06
6.625899051e-06
6.59843149e-06
6.587476816e-06
6.562871906e-06
6.518516654e-06
6.470229458e-06
6.427526554e-06
6.357901981e-06
6.28052777e-06
6.241006828e-06
6.19463972e-06
6.122422412e-06
6.058686723e-06
5.996029042e-06
5.923238106e-06
5.838139836e-06
5.753717554e-06
5.693274747e-06
5.636922934e-06
5.559371708e-06
5.478498253e-06
5.408638736e-06
5.384192843e-06
5.339859291e-06
5.265273385e-06
5.195919451e-06
5.125259817e-06
5.090027464e-06
5.0562164e-06
5.009089867e-06
4.968771715e-06
4.911374633e-06
4.879054809e-06
4.855833955e-06
4.803083119e-06
4.763575525e-06
4.702700771e-06
4.678390652e-06
4.649609251e-06
4.622583614e-06
4.596397542e-06
4.552938287e-06
4.55566635e-06
4.525731884e-06
4.435909336e-06
4.423088469e-06
4.388130475e-06
4.359704133e-06
4.339618035e-06
4.327766228e-06
4.314516381e-06
4.29509123e-06
4.260972665e-06
4.234503016e-06
4.198485487e-06
4.173622007e-06
4.1506158e-06
4.129028288e-06
4.056334721e-06
4.032886595e-06
3.992820362e-06
3.982905316e-06
3.928708822e-06
3.869848428e-06
3.821316901e-06
3.760423837e-06
3.683803928e-06
3.595320194e-06
3.474068874e-06
3.333502951e-06
4.656712218e-06
4.676085e-06
4.687266142e-06
4.71624833e-06
4.726798465e-06
4.749617569e-06
4.775084247e-06
4.800284265e-06
4.851645094e-06
4.883686557e-06
4.96591035e-06
5.037731813e-06
5.12586243e-06
5.234590089e-06
5.328715136e-06
5.447530454e-06
5.588204762e-06
5.71898802e-06
5.85131311e-06
5.988823709e-06
6.113822341e-06
6.241128048e-06
6.35926518e-06
6.431476149e-06
6.508809853e-06
6.559062399e-06
6.624954048e-06
6.637472853e-06
6.652116757e-06
6.646816347e-06
6.632738132e-06
6.590597051e-06
6.532308732e-06
6.511469257e-06
6.437937409e-06
6.387334036e-06
6.325994197e-06
6.267349859e-06
6.203692797e-06
6.13673693e-06
6.065310995e-06
5.995861906e-06
5.930744618e-06
5.855129993e-06
5.795894485e-06
5.733944537e-06
5.687936766e-06
5.603101507e-06
5.529395559e-06
5.483269855e-06
5.418105047e-06
5.352038086e-06
5.281107824e-06
5.234662234e-06
5.174319787e-06
5.103244249e-06
5.076456434e-06
5.021781735e-06
4.999349518e-06
4.933165499e-06
4.879363083e-06
4.838085414e-06
4.793943717e-06
4.753867995e-06
4.737226372e-06
4.713376018e-06
4.666357521e-06
4.62795778e-06
4.595336594e-06
4.569318134e-06
4.525636354e-06
4.484607024e-06
4.455552539e-06
4.434958255e-06
4.402585278e-06
4.3750277e-06
4.344258642e-06
4.343661461e-06
4.314420115e-06
4.280595069e-06
4.226336232e-06
4.203462435e-06
4.177975741e-06
4.141671505e-06
4.108115662e-06
4.072247565e-06
4.042713501e-06
3.995810138e-06
3.946285141e-06
3.893572908e-06
3.853085275e-06
3.760144045e-06
3.683784441e-06
3.577947702e-06
3.423636783e-06
4.655990403e-06
4.656595483e-06
4.659096224e-06
4.661535223e-06
4.684133265e-06
4.691569304e-06
4.712490561e-06
4.749873336e-06
4.79037915e-06
4.832769979e-06
4.873810296e-06
4.926576233e-06
5.001218258e-06
5.091222666e-06
5.191759012e-06
5.291202398e-06
5.407077176e-06
5.525900397e-06
5.654678673e-06
5.781449566e-06
5.904690928e-06
6.044982084e-06
6.175183733e-06
6.286739952e-06
6.396394184e-06
6.473900354e-06
6.569425632e-06
6.616840827e-06
6.642292909e-06
6.684527486e-06
6.704350972e-06
6.707302823e-06
6.703302848e-06
6.657980639e-06
6.619887894e-06
6.565093525e-06
6.52841203e-06
6.464563314e-06
6.418309534e-06
6.350279087e-06
6.279565572e-06
6.220121366e-06
6.159745421e-06
6.108852943e-06
6.026772713e-06
5.937612941e-06
5.843623403e-06
5.776399559e-06
5.724437352e-06
5.672193823e-06
5.631772785e-06
5.565656012e-06
5.502687e-06
5.424246636e-06
5.370197915e-06
5.287748132e-06
5.236302174e-06
5.197638687e-06
5.145036538e-06
5.10588907e-06
5.046373312e-06
4.980842123e-06
4.965770856e-06
4.933109024e-06
4.891276146e-06
4.837103663e-06
4.795049282e-06
4.747909401e-06
4.696246762e-06
4.674873101e-06
4.657263739e-06
4.60414167e-06
4.557969493e-06
4.507523785e-06
4.503774162e-06
4.484420126e-06
4.459353712e-06
4.40515339e-06
4.377666067e-06
4.371927608e-06
4.327737205e-06
4.29943848e-06
4.260404696e-06
4.235663687e-06
4.19374244e-06
4.152703096e-06
4.132236169e-06
4.087412395e-06
4.048235595e-06
3.963106869e-06
3.907751861e-06
3.849630364e-06
3.779341973e-06
3.671349597e-06
3.565991757e-06
4.655606626e-06
4.656654137e-06
4.654935525e-06
4.664765804e-06
4.669153561e-06
4.680960126e-06
4.699183982e-06
4.724706723e-06
4.750521933e-06
4.772473146e-06
4.82204329e-06
4.869381289e-06
4.911709911e-06
4.968965601e-06
5.033272174e-06
5.122854029e-06
5.225242266e-06
5.314055627e-06
5.432398049e-06
5.555872097e-06
5.691591105e-06
5.815434905e-06
5.937964867e-06
6.061205936e-06
6.19733106e-06
6.315238128e-06
6.42838335e-06
6.525434666e-06
6.610480713e-06
6.659104933e-06
6.701258345e-06
6.744236142e-06
6.758731187e-06
6.752762424e-06
6.727293372e-06
6.716498873e-06
6.699600447e-06
6.658277649e-06
6.583422367e-06
6.54670497e-06
6.489210954e-06
6.442227639e-06
6.385211655e-06
6.320660379e-06
6.251677638e-06
6.195870682e-06
6.131955994e-06
6.048372046e-06
5.954915077e-06
5.876817556e-06
5.81811119e-06
5.759350695e-06
5.692212537e-06
5.633978471e-06
5.570498471e-06
5.509074681e-06
5.45152717e-06
5.363212705e-06
5.315012205e-06
5.254271424e-06
5.217432658e-06
5.194708214e-06
5.149409735e-06
5.092854865e-06
5.041768642e-06
5.016044496e-06
4.965748202e-06
4.915615828e-06
4.864667476e-06
4.809189848e-06
4.779168564e-06
4.747838454e-06
4.699605451e-06
4.654786258e-06
4.615106817e-06
4.59195204e-06
4.576533544e-06
4.529052503e-06
4.495181956e-06
4.462528376e-06
4.445983838e-06
4.412118769e-06
4.365166085e-06
4.327357563e-06
4.285023128e-06
4.248020715e-06
4.195561357e-06
4.155629946e-06
4.126012156e-06
4.051993278e-06
4.005381965e-06
3.948087726e-06
3.868124095e-06
3.791531068e-06
3.678367326e-06
4.656404986e-06
4.654444385e-06
4.663012954e-06
4.666440872e-06
4.666813426e-06
4.674711988e-06
4.683382855e-06
4.700943676e-06
4.71708311e-06
4.738558295e-06
4.766468588e-06
4.784523282e-06
4.827597609e-06
4.870284873e-06
4.920479949e-06
4.980639177e-06
5.059280623e-06
5.137349732e-06
5.225587032e-06
5.327326616e-06
5.451279407e-06
5.564745372e-06
5.699609325e-06
5.821958895e-06
5.948900018e-06
6.057409681e-06
6.202969655e-06
6.320973544e-06
6.425341723e-06
6.526225574e-06
6.612416656e-06
6.665483069e-06
6.720918361e-06
6.795784689e-06
6.821979574e-06
6.816642075e-06
6.792908834e-06
6.757018213e-06
6.767202338e-06
6.719427113e-06
6.677512008e-06
6.620449951e-06
6.559900969e-06
6.508728677e-06
6.484545079e-06
6.417926352e-06
6.368740555e-06
6.274218994e-06
6.215705133e-06
6.141447551e-06
6.060796917e-06
6.008129328e-06
5.925211074e-06
5.862954687e-06
5.768299287e-06
5.719291072e-06
5.677857383e-06
5.605247971e-06
5.543662059e-06
5.494515225e-06
5.434846834e-06
5.362365329e-06
5.324074912e-06
5.254562463e-06
5.185925083e-06
5.144440552e-06
5.121044357e-06
5.081239626e-06
5.031338612e-06
4.989815721e-06
4.950164292e-06
4.904909893e-06
4.870119245e-06
4.825930827e-06
4.783426777e-06
4.736109772e-06
4.683797508e-06
4.656840478e-06
4.605320834e-06
4.561479367e-06
4.538367855e-06
4.505330759e-06
4.483534636e-06
4.433881259e-06
4.389250368e-06
4.334737227e-06
4.289507197e-06
4.266269383e-06
4.217055977e-06
4.191553594e-06
4.106992095e-06
4.027848193e-06
3.964660456e-06
3.889369918e-06
3.778107091e-06
4.664774721e-06
4.64580477e-06
4.658119758e-06
4.654667646e-06
4.668919289e-06
4.673491073e-06
4.677199643e-06
4.68870209e-06
4.692316253e-06
4.713032746e-06
4.734983691e-06
4.761975656e-06
4.801067522e-06
4.831116636e-06
4.876565609e-06
4.909612881e-06
4.954166542e-06
5.014587938e-06
5.086765488e-06
5.163349514e-06
5.235571985e-06
5.328651103e-06
5.449503779e-06
5.563750923e-06
5.709986693e-06
5.840109595e-06
5.96137305e-06
6.077144456e-06
6.219291385e-06
6.335029991e-06
6.44581851e-06
6.556931775e-06
6.627760687e-06
6.68219636e-06
6.741907056e-06
6.788471721e-06
6.812838866e-06
6.8288911e-06
6.822072882e-06
6.81929707e-06
6.811445879e-06
6.776113588e-06
6.741260622e-06
6.698715052e-06
6.641866497e-06
6.568702683e-06
6.508841445e-06
6.477393323e-06
6.415022949e-06
6.347955322e-06
6.260246865e-06
6.191568757e-06
6.131547853e-06
6.078408417e-06
6.035210923e-06
5.943123469e-06
5.866106527e-06
5.828598777e-06
5.770284592e-06
5.693019469e-06
5.629325905e-06
5.57773643e-06
5.503703135e-06
5.464238536e-06
5.395944385e-06
5.342732523e-06
5.29631527e-06
5.239684727e-06
5.206798816e-06
5.151915562e-06
5.116029012e-06
5.067337799e-06
5.016864536e-06
4.978133553e-06
4.938641834e-06
4.890852357e-06
4.82506122e-06
4.785929163e-06
4.745626282e-06
4.711396321e-06
4.675071388e-06
4.63547192e-06
4.585607298e-06
4.539716082e-06
4.485779785e-06
4.436839925e-06
4.389174164e-06
4.347090897e-06
4.313317549e-06
4.272314925e-06
4.225176785e-06
4.150335587e-06
4.067812603e-06
4.016076905e-06
3.898553214e-06
4.656958966e-06
4.65304994e-06
4.657550332e-06
4.667171643e-06
4.680200408e-06
4.680559727e-06
4.680718764e-06
4.693222751e-06
4.695148169e-06
4.696322542e-06
4.706902827e-06
4.715593517e-06