/*--------------------------------*- C++ -*----------------------------------*\
| =========                 |                                                 |
| \\      /  F ield         | OpenFOAM: The Open Source CFD Toolbox           |
|  \\    /   O peration     | Version:  v1706                                 |
|   \\  /    A nd           | Web:      www.OpenFOAM.com                      |
|    \\/     M anipulation  |                                                 |
\*---------------------------------------------------------------------------*/
FoamFile
{
    version     2.0;
    format      ascii;
    class       volScalarField;
    location    "0.04";
    object      rhoN_N2cold;
}
// * * * * * * * * * * * * * * * * * * * * * * * * * * * * * * * * * * * * * //

dimensions      [0 -3 0 0 0 0 0];


internalField   nonuniform List<scalar> 
6000
(
1.000790193e+20
1.002954986e+20
1.008567752e+20
1.020989161e+20
1.085597394e+20
9.995895783e+19
1.002109637e+20
1.008155064e+20
1.022372316e+20
1.069758189e+20
1.002351237e+20
1.001776393e+20
1.00907818e+20
1.023048291e+20
1.05560995e+20
9.992947783e+19
1.00461956e+20
1.009849388e+20
1.02099487e+20
1.038199265e+20
1.000179301e+20
1.000580037e+20
1.004795598e+20
1.011901116e+20
1.025652148e+20
9.986283201e+19
9.987622498e+19
9.99946508e+19
1.005244757e+20
1.01403997e+20
1.001346189e+20
1.002687231e+20
1.005823236e+20
1.009683249e+20
1.01460527e+20
1.001621781e+20
1.00065598e+20
1.001528303e+20
1.003767864e+20
1.009114751e+20
1.000765831e+20
1.002642691e+20
1.006098792e+20
1.007739195e+20
1.008846251e+20
9.992207841e+19
1.002634851e+20
1.001206057e+20
1.001387788e+20
1.003861963e+20
9.999132169e+19
9.989428153e+19
1.00195075e+20
1.003528327e+20
1.005795389e+20
1.000587187e+20
1.001118978e+20
1.000669092e+20
1.00171678e+20
1.002800742e+20
1.001549752e+20
1.000188673e+20
1.001337898e+20
9.998913082e+19
9.999991774e+19
9.997465699e+19
9.987758291e+19
9.998277842e+19
1.000355535e+20
1.000895353e+20
9.99167161e+19
9.988643896e+19
9.998693207e+19
9.978739955e+19
1.000014782e+20
1.001908393e+20
1.000605226e+20
1.001653464e+20
1.002558547e+20
1.001606371e+20
1.000479552e+20
9.995211145e+19
1.000153625e+20
9.970234329e+19
1.000157091e+20
9.994254415e+19
9.998545934e+19
1.000647318e+20
1.003562043e+20
1.002778184e+20
9.988043057e+19
9.994137669e+19
9.999456813e+19
9.999727937e+19
9.976252902e+19
1.000124713e+20
9.995271987e+19
9.992518409e+19
9.98286652e+19
9.983537088e+19
9.983989368e+19
1.000067752e+20
1.000339861e+20
9.989297436e+19
1.003111493e+20
1.000965434e+20
1.00035184e+20
1.00128941e+20
1.000161062e+20
1.000472357e+20
9.993641367e+19
9.995680392e+19
9.979826119e+19
9.970680372e+19
9.965356646e+19
9.996785068e+19
9.986088166e+19
9.959985843e+19
9.96141694e+19
9.981011817e+19
1.00028555e+20
1.000960339e+20
1.002692767e+20
1.004223742e+20
1.002651669e+20
9.996462969e+19
1.000680087e+20
1.001815163e+20
1.00190339e+20
1.000334316e+20
1.000355935e+20
1.001313488e+20
1.00287609e+20
1.000288727e+20
1.00074339e+20
9.984197487e+19
9.97321438e+19
9.984305161e+19
9.982627558e+19
1.000393753e+20
1.000757844e+20
9.998434949e+19
9.991061566e+19
9.983690048e+19
9.976374592e+19
9.997239449e+19
9.981917897e+19
9.982968215e+19
9.96355084e+19
9.990170132e+19
1.000828951e+20
1.001497812e+20
1.000292489e+20
1.000195519e+20
1.002187484e+20
9.993312284e+19
9.98609851e+19
9.99116342e+19
1.001487732e+20
9.977930981e+19
1.000230681e+20
1.002366478e+20
1.001678979e+20
1.003044493e+20
1.002669805e+20
9.999182494e+19
1.000116822e+20
1.000878547e+20
9.989786621e+19
9.991206508e+19
1.000571816e+20
1.001056662e+20
1.000750768e+20
1.003296923e+20
1.004017684e+20
9.998693609e+19
9.976285231e+19
9.977066387e+19
9.969810857e+19
9.962476176e+19
1.000009738e+20
9.976385898e+19
9.975788308e+19
9.96507509e+19
9.989365937e+19
1.001457491e+20
1.004610338e+20
1.005900958e+20
1.004547027e+20
1.003650212e+20
1.000021086e+20
1.000006147e+20
1.001033956e+20
1.000519638e+20
1.001027244e+20
9.988923451e+19
9.983011577e+19
9.971240648e+19
9.970561501e+19
9.982953673e+19
1.00150422e+20
1.000713339e+20
1.002049792e+20
1.000361349e+20
1.002449213e+20
9.993887093e+19
1.000937637e+20
9.982689145e+19
9.996999711e+19
9.969847857e+19
9.97576101e+19
9.962972457e+19
9.986010263e+19
1.000089303e+20
9.992102972e+19
1.001103434e+20
1.001000132e+20
1.000326143e+20
1.000018303e+20
9.999658757e+19
1.000995585e+20
1.001321359e+20
1.001136322e+20
1.000756629e+20
9.996925581e+19
9.977023075e+19
9.980135548e+19
9.964742432e+19
9.97392758e+19
9.985329505e+19
9.995568819e+19
9.999630946e+19
9.991251495e+19
9.987543016e+19
9.993929991e+19
9.998015799e+19
9.992629889e+19
1.000912446e+20
1.000676082e+20
9.997364892e+19
1.0008497e+20
1.000640013e+20
1.0016077e+20
9.993295514e+19
9.996154657e+19
9.997793306e+19
9.992761353e+19
9.982922659e+19
1.001786978e+20
9.999818937e+19
9.998790018e+19
1.001022529e+20
1.000648302e+20
1.000138185e+20
1.000463521e+20
9.99515001e+19
9.998713016e+19
1.000159969e+20
1.000271208e+20
9.999598236e+19
1.000962911e+20
1.002091861e+20
1.000226827e+20
1.001157707e+20
1.003108237e+20
9.99120183e+19
9.997522973e+19
9.989147685e+19
9.997494148e+19
1.000519589e+20
9.986339634e+19
9.98628932e+19
9.983428054e+19
9.991964876e+19
9.987524711e+19
1.00125542e+20
1.002250722e+20
1.002893796e+20
1.001256925e+20
1.001715649e+20
9.997505301e+19
9.982392132e+19
9.990594752e+19
9.991981611e+19
1.000001108e+20
9.997189378e+19
1.000596654e+20
9.999212658e+19
9.995702561e+19
9.993420757e+19
1.000791474e+20
1.000231827e+20
9.998779314e+19
1.000354415e+20
1.001629508e+20
1.00015783e+20
9.999704069e+19
1.000271845e+20
1.000205618e+20
9.980924709e+19
1.311220479e+20
1.362298244e+20
1.345591339e+20
1.321642934e+20
1.300720135e+20
1.284270785e+20
1.271810429e+20
1.26340666e+20
1.247254563e+20
1.242970786e+20
1.231598565e+20
1.222074742e+20
1.216081188e+20
1.217133455e+20
1.215722645e+20
1.207345947e+20
1.198661022e+20
1.180714478e+20
1.174097296e+20
1.165177148e+20
1.167238182e+20
1.159452485e+20
1.146500735e+20
1.136064046e+20
1.129633523e+20
1.130085298e+20
1.124866126e+20
1.117524018e+20
1.113347799e+20
1.097298391e+20
1.0910948e+20
1.100225227e+20
1.08934032e+20
1.087058847e+20
1.085473688e+20
1.088336112e+20
1.081878262e+20
1.07451284e+20
1.062804503e+20
1.064447891e+20
1.064640665e+20
1.051594484e+20
1.040792142e+20
1.04036881e+20
1.04224538e+20
1.036655423e+20
1.031057939e+20
1.020425742e+20
1.021843082e+20
1.020230089e+20
1.01634471e+20
1.008509486e+20
1.009520954e+20
1.007312684e+20
1.000101071e+20
1.009303024e+20
9.979343105e+19
9.970420877e+19
9.967238803e+19
9.887201227e+19
9.906730437e+19
9.924641802e+19
9.888431141e+19
9.873068978e+19
9.829681194e+19
9.768818559e+19
9.788206271e+19
9.739146848e+19
9.722366039e+19
9.675052898e+19
9.578822079e+19
9.51125677e+19
9.577634982e+19
9.674574276e+19
9.578232898e+19
9.47853019e+19
9.420820173e+19
9.425092905e+19
9.410155e+19
9.31620521e+19
9.344040778e+19
9.186470262e+19
9.193133937e+19
9.071502237e+19
8.996556401e+19
8.890270035e+19
8.760664061e+19
8.644522273e+19
8.509985747e+19
8.244110336e+19
7.936132764e+19
7.654443549e+19
7.310224854e+19
6.712963507e+19
5.777338002e+19
1.164408526e+20
1.270726854e+20
1.343790496e+20
1.367369763e+20
1.368211057e+20
1.359330117e+20
1.339211711e+20
1.319159096e+20
1.299605455e+20
1.280749733e+20
1.267543179e+20
1.253474128e+20
1.234279753e+20
1.22845808e+20
1.20738346e+20
1.19892788e+20
1.190970637e+20
1.178973508e+20
1.163864862e+20
1.153515171e+20
1.153543211e+20
1.144922862e+20
1.12872408e+20
1.124016359e+20
1.116185469e+20
1.110083057e+20
1.107193378e+20
1.097675271e+20
1.091499633e+20
1.090605902e+20
1.078037721e+20
1.073406903e+20
1.062617565e+20
1.055803681e+20
1.058880846e+20
1.050051499e+20
1.049996059e+20
1.039758154e+20
1.037332125e+20
1.030811609e+20
1.023813445e+20
1.020317471e+20
1.019114092e+20
1.013764011e+20
1.013558755e+20
1.007239179e+20
9.962782268e+19
9.978304045e+19
9.927364167e+19
9.898873912e+19
9.869340857e+19
9.801993481e+19
9.801906813e+19
9.769946922e+19
9.835560258e+19
9.819239643e+19
9.728090831e+19
9.702204626e+19
9.671474382e+19
9.660897771e+19
9.551354315e+19
9.597642028e+19
9.624971371e+19
9.605537546e+19
9.545726274e+19
9.482672928e+19
9.473826857e+19
9.512628417e+19
9.42000982e+19
9.345386386e+19
9.338976581e+19
9.33420004e+19
9.342552911e+19
9.287859566e+19
9.286626272e+19
9.231962102e+19
9.158875042e+19
9.203693495e+19
9.137553164e+19
9.07019147e+19
9.039116644e+19
9.032118658e+19
8.910724858e+19
8.824015262e+19
8.720640701e+19
8.624690538e+19
8.481048254e+19
8.424025267e+19
8.273965113e+19
8.058964867e+19
7.801315003e+19
7.513487911e+19
7.084820993e+19
6.538637062e+19
5.642444678e+19
1.099881437e+20
1.164895663e+20
1.231517381e+20
1.287696072e+20
1.330869286e+20
1.356596454e+20
1.364495195e+20
1.357693615e+20
1.351100571e+20
1.335789152e+20
1.321778296e+20
1.302655844e+20
1.285573343e+20
1.267913352e+20
1.24947517e+20
1.236309572e+20
1.2238036e+20
1.211221643e+20
1.196838059e+20
1.18542677e+20
1.170830057e+20
1.162568167e+20
1.150501158e+20
1.133786224e+20
1.121027427e+20
1.114450248e+20
1.109253338e+20
1.104914903e+20
1.090510252e+20
1.088036838e+20
1.08273907e+20
1.075917976e+20
1.059839455e+20
1.056943747e+20
1.052544462e+20
1.048600885e+20
1.04100628e+20
1.041743717e+20
1.029049799e+20
1.019516446e+20
1.016170856e+20
1.012484697e+20
1.01176559e+20
1.005425504e+20
9.990062587e+19
9.976586053e+19
9.990169415e+19
9.904109221e+19
9.80706021e+19
9.702003903e+19
9.737637293e+19
9.678568102e+19
9.654378738e+19
9.600867411e+19
9.654261741e+19
9.633735601e+19
9.603158835e+19
9.570505959e+19
9.516880888e+19
9.49902764e+19
9.453986544e+19
9.471982227e+19
9.476350822e+19
9.428281027e+19
9.354030393e+19
9.341327e+19
9.356922125e+19
9.311183556e+19
9.283978896e+19
9.233667169e+19
9.153591815e+19
9.168391654e+19
9.12497074e+19
9.106018571e+19
9.091864693e+19
9.098499437e+19
9.057946614e+19
9.00290639e+19
9.051699756e+19
8.945700198e+19
8.888609578e+19
8.893335561e+19
8.755065199e+19
8.635369734e+19
8.561794117e+19
8.48964903e+19
8.384881298e+19
8.271470483e+19
8.146243578e+19
7.965024836e+19
7.686171866e+19
7.387551554e+19
7.065381318e+19
6.505351425e+19
5.712372006e+19
1.0589851e+20
1.102854958e+20
1.152945344e+20
1.202417269e+20
1.254879157e+20
1.296307833e+20
1.327269472e+20
1.347271209e+20
1.360189868e+20
1.364935523e+20
1.359242559e+20
1.345124974e+20
1.334819169e+20
1.313996548e+20
1.300973039e+20
1.284769848e+20
1.275214734e+20
1.259936923e+20
1.242758217e+20
1.219032151e+20
1.206188253e+20
1.192687672e+20
1.175010457e+20
1.161191431e+20
1.148687479e+20
1.136597325e+20
1.128774205e+20
1.120316503e+20
1.107741547e+20
1.092176412e+20
1.095656161e+20
1.087094469e+20
1.075795383e+20
1.062115919e+20
1.060003131e+20
1.057945651e+20
1.049826073e+20
1.042874999e+20
1.040514007e+20
1.031839824e+20
1.021327403e+20
1.008776648e+20
1.004268943e+20
1.005379984e+20
9.971029983e+19
9.925742305e+19
9.906086786e+19
9.891766987e+19
9.794704027e+19
9.789701778e+19
9.719900612e+19
9.645832229e+19
9.622397811e+19
9.552214414e+19
9.515265642e+19
9.558393599e+19
9.503842833e+19
9.464243222e+19
9.43202439e+19
9.412786938e+19
9.364988831e+19
9.36565154e+19
9.395373805e+19
9.278598514e+19
9.289386669e+19
9.264048484e+19
9.209680517e+19
9.236337884e+19
9.265882975e+19
9.169963421e+19
9.08689764e+19
9.027973188e+19
9.046518563e+19
9.013197262e+19
8.979003244e+19
8.895999579e+19
8.880889539e+19
8.894906637e+19
8.896214222e+19
8.789908569e+19
8.792963192e+19
8.720642343e+19
8.653469553e+19
8.534349187e+19
8.486509397e+19
8.402719401e+19
8.304659837e+19
8.226120427e+19
8.08423982e+19
7.833882656e+19
7.627528478e+19
7.394453021e+19
7.028332753e+19
6.502119085e+19
5.831390398e+19
1.045274768e+20
1.067082786e+20
1.10145245e+20
1.141083293e+20
1.176824776e+20
1.22462534e+20
1.266752968e+20
1.302380499e+20
1.332341963e+20
1.347017119e+20
1.359484163e+20
1.361604026e+20
1.360826218e+20
1.353863068e+20
1.348479737e+20
1.334906265e+20
1.323990366e+20
1.305845174e+20
1.29030188e+20
1.271140636e+20
1.26006498e+20
1.237172355e+20
1.221782526e+20
1.209819744e+20
1.196013931e+20
1.186788948e+20
1.167517156e+20
1.152207363e+20
1.138462396e+20
1.129295719e+20
1.120289934e+20
1.110552782e+20
1.101008131e+20
1.09465322e+20
1.087233759e+20
1.075226172e+20
1.067021803e+20
1.056579752e+20
1.053079744e+20
1.044064319e+20
1.033540735e+20
1.021513868e+20
1.014909668e+20
1.006816303e+20
1.002185988e+20
9.96192699e+19
1.000376408e+20
9.919795847e+19
9.888674701e+19
9.817236595e+19
9.735417976e+19
9.686380248e+19
9.626800304e+19
9.616291669e+19
9.554387134e+19
9.541077325e+19
9.451084739e+19
9.422390523e+19
9.325265461e+19
9.353674148e+19
9.277514806e+19
9.320259846e+19
9.294922072e+19
9.264518857e+19
9.219830528e+19
9.246665703e+19
9.176105184e+19
9.173281394e+19
9.169792903e+19
9.126747117e+19
9.059872792e+19
9.007797828e+19
8.941531828e+19
8.954114572e+19
8.870792175e+19
8.834007546e+19
8.878358289e+19
8.816792854e+19
8.836434486e+19
8.762605266e+19
8.705281736e+19
8.663780279e+19
8.640798699e+19
8.517461428e+19
8.3949618e+19
8.275900194e+19
8.231916652e+19
8.169685357e+19
8.04283299e+19
7.878393559e+19
7.637516497e+19
7.344877041e+19
7.025660437e+19
6.591050763e+19
5.995257177e+19
1.025064897e+20
1.0434638e+20
1.067979125e+20
1.094590653e+20
1.128446215e+20
1.166039105e+20
1.206764108e+20
1.241425901e+20
1.276499537e+20
1.310351926e+20
1.335858446e+20
1.353659052e+20
1.365047446e+20
1.374722665e+20
1.367431605e+20
1.360261394e+20
1.356064984e+20
1.348788885e+20
1.337533255e+20
1.322621379e+20
1.311929515e+20
1.294574887e+20
1.27918356e+20
1.2601345e+20
1.245037043e+20
1.229836046e+20
1.209994132e+20
1.197972953e+20
1.183809581e+20
1.170019679e+20
1.156025982e+20
1.147017026e+20
1.134989952e+20
1.124799109e+20
1.121654045e+20
1.106120238e+20
1.089254957e+20
1.078208842e+20
1.073353263e+20
1.064262776e+20
1.05413248e+20
1.047230248e+20
1.03677963e+20
1.029330758e+20
1.022656221e+20
1.014198327e+20
1.008213298e+20
1.004373216e+20
9.968426136e+19
9.856208683e+19
9.824462755e+19
9.803375287e+19
9.698880696e+19
9.618520212e+19
9.619829144e+19
9.607797152e+19
9.515401606e+19
9.450204415e+19
9.41036851e+19
9.366284146e+19
9.356737626e+19
9.363428675e+19
9.316093677e+19
9.303335065e+19
9.267525847e+19
9.205157373e+19
9.210744692e+19
9.131207243e+19
9.140787991e+19
9.120646703e+19
8.996534569e+19
8.987851576e+19
8.891605715e+19
8.930192377e+19
8.875798446e+19
8.814827891e+19
8.863736827e+19
8.800565657e+19
8.806517815e+19
8.75237958e+19
8.675388259e+19
8.672281681e+19
8.607575505e+19
8.526891626e+19
8.409305746e+19
8.297107785e+19
8.251287041e+19
8.137160702e+19
8.042774515e+19
7.859944698e+19
7.64385298e+19
7.35277449e+19
7.069348888e+19
6.671426521e+19
6.163415892e+19
1.022185266e+20
1.033613823e+20
1.041451691e+20
1.063957251e+20
1.086641532e+20
1.11436254e+20
1.148500694e+20
1.182634949e+20
1.218768466e+20
1.254997769e+20
1.288482416e+20
1.319679436e+20
1.340612882e+20
1.35529229e+20
1.371706482e+20
1.377140601e+20
1.379090214e+20
1.377981839e+20
1.373954239e+20
1.36721918e+20
1.354372112e+20
1.340995521e+20
1.326896193e+20
1.314095311e+20
1.297408794e+20
1.279842794e+20
1.267205891e+20
1.249012697e+20
1.237917287e+20
1.223413032e+20
1.207969457e+20
1.191497102e+20
1.177521253e+20
1.162449518e+20
1.151646187e+20
1.135275909e+20
1.124307008e+20
1.107835802e+20
1.107469798e+20
1.094210132e+20
1.081013251e+20
1.073272208e+20
1.061344662e+20
1.054466405e+20
1.045480611e+20
1.033587896e+20
1.025814523e+20
1.021281695e+20
1.012367872e+20
9.989162061e+19
9.965029929e+19
9.914549679e+19
9.845117219e+19
9.825005125e+19
9.790736883e+19
9.744565512e+19
9.662695015e+19
9.585264034e+19
9.519464504e+19
9.455402574e+19
9.456953636e+19
9.457785866e+19
9.398443295e+19
9.369938548e+19
9.298192546e+19
9.246594159e+19
9.219272798e+19
9.158916328e+19
9.137995513e+19
9.075209438e+19
9.003320801e+19
9.012524651e+19
8.996841544e+19
8.990480635e+19
8.914893469e+19
8.847861899e+19
8.815233398e+19
8.822970773e+19
8.692354602e+19
8.745399795e+19
8.734167097e+19
8.720944353e+19
8.651569722e+19
8.549970582e+19
8.441715035e+19
8.336663679e+19
8.217560573e+19
8.13423618e+19
7.978370572e+19
7.875682319e+19
7.621250176e+19
7.408149429e+19
7.132070859e+19
6.760396141e+19
6.342242073e+19
1.009162314e+20
1.021165465e+20
1.031817327e+20
1.042445273e+20
1.060296222e+20
1.081097922e+20
1.104506624e+20
1.133140312e+20
1.165848325e+20
1.19668114e+20
1.231936121e+20
1.266011234e+20
1.302048726e+20
1.332183084e+20
1.349302872e+20
1.367301907e+20
1.381804105e+20
1.386280188e+20
1.395174513e+20
1.391338939e+20
1.385907042e+20
1.380459331e+20
1.368224644e+20
1.359039179e+20
1.344721409e+20
1.328206426e+20
1.313639922e+20
1.303355879e+20
1.281564523e+20
1.264451162e+20
1.248808404e+20
1.231387983e+20
1.219055812e+20
1.207451543e+20
1.192501808e+20
1.177528665e+20
1.171066765e+20
1.161944581e+20
1.140247815e+20
1.130423937e+20
1.122786985e+20
1.106697717e+20
1.092371794e+20
1.078748703e+20
1.069141139e+20
1.065180452e+20
1.056056061e+20
1.047205016e+20
1.038053229e+20
1.030356658e+20
1.025793315e+20
1.018639143e+20
1.00962514e+20
1.001418915e+20
9.92611832e+19
9.863875478e+19
9.798201773e+19
9.758140564e+19
9.699369518e+19
9.677608969e+19
9.63123124e+19
9.605024116e+19
9.54918929e+19
9.502641311e+19
9.462936135e+19
9.37422179e+19
9.31514232e+19
9.273433469e+19
9.213352854e+19
9.181115679e+19
9.103813944e+19
9.046224634e+19
9.000529918e+19
8.992099862e+19
8.93871438e+19
8.8648748e+19
8.859055511e+19
8.864019756e+19
8.734464326e+19
8.712844754e+19
8.67567105e+19
8.689794848e+19
8.576680053e+19
8.559587865e+19
8.492983606e+19
8.37411248e+19
8.309179786e+19
8.163967048e+19
8.00103175e+19
7.867728114e+19
7.728020095e+19
7.521978762e+19
7.300142291e+19
6.987174125e+19
6.60423533e+19
1.012549688e+20
1.019655353e+20
1.024933903e+20
1.033549152e+20
1.043773458e+20
1.058777831e+20
1.076894256e+20
1.096011312e+20
1.120256386e+20
1.147192243e+20
1.17655255e+20
1.207470181e+20
1.240330969e+20
1.273600203e+20
1.30273402e+20
1.327359153e+20
1.349095335e+20
1.364236849e+20
1.375972843e+20
1.387751348e+20
1.39602962e+20
1.402389255e+20
1.397194407e+20
1.386825476e+20
1.381638435e+20
1.3741655e+20
1.362363036e+20
1.347710504e+20
1.338530488e+20
1.321904078e+20
1.302553529e+20
1.287849079e+20
1.277293933e+20
1.260013692e+20
1.247704738e+20
1.229797707e+20
1.219806288e+20
1.205163163e+20
1.184176852e+20
1.1684346e+20
1.157311859e+20
1.147635275e+20
1.133039203e+20
1.121451574e+20
1.10820421e+20
1.097697531e+20
1.087991365e+20
1.076413773e+20
1.067846591e+20
1.060457275e+20
1.049616273e+20
1.039228924e+20
1.033497346e+20
1.01912622e+20
1.010514857e+20
1.003549154e+20
1.002172428e+20
9.927758146e+19
9.886789871e+19
9.873539699e+19
9.787413515e+19
9.730900264e+19
9.659709595e+19
9.632485831e+19
9.570739839e+19
9.475115407e+19
9.387695229e+19
9.350406869e+19
9.286679878e+19
9.278035979e+19
9.227304583e+19
9.154850393e+19
9.157499479e+19
9.118704101e+19
9.05855272e+19
9.015976173e+19
8.963139567e+19
8.894225499e+19
8.860521892e+19
8.801675303e+19
8.758619741e+19
8.742312028e+19
8.65150787e+19
8.546498538e+19
8.516558134e+19
8.479223508e+19
8.346357788e+19
8.268187379e+19
8.124374315e+19
7.95206899e+19
7.852256658e+19
7.645785475e+19
7.431385278e+19
7.082003567e+19
6.710752683e+19
1.009018636e+20
1.007964918e+20
1.013595817e+20
1.019094156e+20
1.026450008e+20
1.037789209e+20
1.052475369e+20
1.070343469e+20
1.088656505e+20
1.1110151e+20
1.135054217e+20
1.159406126e+20
1.191373365e+20
1.219819142e+20
1.24670482e+20
1.279276336e+20
1.305979242e+20
1.335201582e+20
1.358572471e+20
1.373421102e+20
1.385576137e+20
1.397570783e+20
1.408485561e+20
1.412464137e+20
1.41149455e+20
1.404940238e+20
1.398738751e+20
1.390601629e+20
1.376958019e+20
1.362993263e+20
1.352540145e+20
1.335980975e+20
1.32056927e+20
1.310323564e+20
1.295105702e+20
1.27540659e+20
1.256742804e+20
1.246478809e+20
1.235207104e+20
1.221562529e+20
1.204715953e+20
1.190520622e+20
1.174612173e+20
1.160340807e+20
1.1476048e+20
1.133960856e+20
1.1253962e+20
1.112127582e+20
1.103391242e+20
1.096192606e+20
1.085212203e+20
1.072017366e+20
1.059941529e+20
1.05287722e+20
1.049252092e+20
1.032964968e+20
1.026830393e+20
1.018307594e+20
1.010768256e+20
1.004652698e+20
9.98006389e+19
9.917233207e+19
9.821825455e+19
9.763950025e+19
9.719316384e+19
9.674666325e+19
9.667192314e+19
9.579070199e+19
9.459192469e+19
9.419958641e+19
9.350472499e+19
9.296296811e+19
9.251093684e+19
9.210621457e+19
9.133747209e+19
9.063867048e+19
9.033052588e+19
9.008231284e+19
8.959425356e+19
8.898496677e+19
8.82618453e+19
8.799354517e+19
8.723008228e+19
8.687002601e+19
8.635289317e+19
8.505115644e+19
8.400374884e+19
8.319561756e+19
8.215994504e+19
8.064729461e+19
7.911550997e+19
7.788839991e+19
7.527224113e+19
7.263059677e+19
6.908547533e+19
1.008002549e+20
1.009668227e+20
1.012291034e+20
1.016034949e+20
1.021346636e+20
1.02620402e+20
1.03583589e+20
1.045569961e+20
1.058183384e+20
1.073073304e+20
1.088711296e+20
1.110493509e+20
1.13539025e+20
1.166379952e+20
1.196807075e+20
1.225869903e+20
1.258121071e+20
1.284769603e+20
1.31677494e+20
1.341565255e+20
1.365820289e+20
1.384897717e+20
1.392866073e+20
1.407288248e+20
1.418190894e+20
1.424924527e+20
1.419017525e+20
1.416661681e+20
1.411370302e+20
1.401831538e+20
1.391447195e+20
1.382263775e+20
1.367290749e+20
1.350651133e+20
1.342152006e+20
1.332180585e+20
1.316649981e+20
1.302943381e+20
1.289468611e+20
1.273814646e+20
1.255513943e+20
1.237358614e+20
1.224360161e+20
1.212241491e+20
1.195563808e+20
1.178171667e+20
1.163148115e+20
1.157890934e+20
1.148356837e+20
1.132316857e+20
1.117402032e+20
1.102206412e+20
1.094629562e+20
1.087358366e+20
1.077223627e+20
1.068553057e+20
1.056209598e+20
1.049259099e+20
1.044265367e+20
1.032921101e+20
1.024424844e+20
1.011333499e+20
1.006105516e+20
9.999159679e+19
9.94104003e+19
9.884725896e+19
9.791265133e+19
9.797131935e+19
9.732756741e+19
9.539589969e+19
9.512018214e+19
9.436839731e+19
9.375707812e+19
9.332511903e+19
9.307024146e+19
9.278529852e+19
9.236755334e+19
9.163382075e+19
9.106458099e+19
9.029001048e+19
8.975531198e+19
8.926055483e+19
8.879630727e+19
8.723300474e+19
8.672874399e+19
8.586710455e+19
8.565387776e+19
8.448836176e+19
8.322254685e+19
8.217885809e+19
8.086932984e+19
7.922158984e+19
7.731871385e+19
7.471115858e+19
7.16882355e+19
1.001443488e+20
1.005609677e+20
1.008014224e+20
1.014246953e+20
1.016515799e+20
1.021423133e+20
1.026899838e+20
1.032319197e+20
1.043364536e+20
1.050255174e+20
1.06793771e+20
1.083383186e+20
1.102336006e+20
1.125718299e+20
1.145960244e+20
1.171511926e+20
1.201764465e+20
1.229889897e+20
1.258346905e+20
1.287919077e+20
1.314800503e+20
1.342178075e+20
1.36758391e+20
1.38311315e+20
1.399744054e+20
1.410551054e+20
1.424721301e+20
1.427413517e+20
1.430562743e+20
1.42942287e+20
1.426395297e+20
1.417332699e+20
1.404797577e+20
1.400315969e+20
1.384502669e+20
1.373620223e+20
1.360428859e+20
1.347817174e+20
1.334127483e+20
1.319728372e+20
1.304367956e+20
1.289432668e+20
1.27542895e+20
1.25916774e+20
1.246428922e+20
1.233106352e+20
1.223212208e+20
1.204968066e+20
1.189117324e+20
1.179197818e+20
1.165183881e+20
1.150975932e+20
1.135722113e+20
1.125733814e+20
1.112756943e+20
1.097471881e+20
1.091711061e+20
1.079953061e+20
1.075128929e+20
1.060895806e+20
1.049325394e+20
1.040448476e+20
1.030955638e+20
1.022337203e+20
1.01875836e+20
1.013629251e+20
1.003517747e+20
9.952597376e+19
9.882444289e+19
9.826490611e+19
9.732551298e+19
9.644316181e+19
9.581833416e+19
9.537544634e+19
9.467925329e+19
9.40866172e+19
9.342491703e+19
9.341207442e+19
9.278322827e+19
9.205580793e+19
9.088895122e+19
9.03970416e+19
8.984894067e+19
8.906820442e+19
8.834657337e+19
8.757521644e+19
8.69400753e+19
8.593140081e+19
8.486634712e+19
8.373275071e+19
8.286204892e+19
8.086331279e+19
7.922117078e+19
7.694511186e+19
7.362659747e+19
1.001288259e+20
1.001418383e+20
1.001956177e+20
1.002480693e+20
1.007340487e+20
1.008939635e+20
1.01343883e+20
1.021478137e+20
1.030189065e+20
1.039305372e+20
1.048131246e+20
1.05947876e+20
1.075530808e+20
1.094886595e+20
1.116507314e+20
1.137892989e+20
1.162812296e+20
1.188365677e+20
1.21605993e+20
1.243322487e+20
1.269826006e+20
1.299996147e+20
1.327996502e+20
1.351987086e+20
1.375568642e+20
1.392236635e+20
1.412779706e+20
1.422976522e+20
1.428450088e+20
1.437532793e+20
1.441795908e+20
1.442430715e+20
1.441570505e+20
1.431823793e+20
1.423631805e+20
1.41184807e+20
1.403959576e+20
1.39022867e+20
1.38028162e+20
1.365651416e+20
1.350444209e+20
1.337660509e+20
1.324676435e+20
1.313731816e+20
1.296080153e+20
1.276906009e+20
1.256693205e+20
1.242236464e+20
1.231061796e+20
1.219826629e+20
1.211133932e+20
1.196915271e+20
1.183373548e+20
1.166504653e+20
1.154881272e+20
1.137150136e+20
1.126086489e+20
1.117771761e+20
1.106459471e+20
1.09804066e+20
1.085241572e+20
1.071148844e+20
1.067907711e+20
1.060883661e+20
1.051887343e+20
1.040237347e+20
1.031193394e+20
1.021055785e+20
1.00994554e+20
1.005349054e+20
1.001562094e+20
9.901379935e+19
9.802084932e+19
9.693599537e+19
9.685535833e+19
9.643914249e+19
9.590007983e+19
9.473448151e+19
9.414335627e+19
9.401994856e+19
9.306961732e+19
9.246104259e+19
9.162160637e+19
9.108954165e+19
9.018800945e+19
8.930544292e+19
8.886529395e+19
8.790134182e+19
8.705883e+19
8.522810472e+19
8.403767443e+19
8.278774977e+19
8.127617146e+19
7.895375477e+19
7.668799477e+19
1.001205726e+20
1.001430997e+20
1.001061403e+20
1.003175442e+20
1.004119045e+20
1.006658092e+20
1.0105772e+20
1.016065962e+20
1.02161762e+20
1.026338311e+20
1.036998557e+20
1.047178772e+20
1.056281701e+20
1.068594753e+20
1.082424123e+20
1.101689039e+20
1.123708014e+20
1.142807662e+20
1.168257645e+20
1.194811204e+20
1.223998087e+20
1.250631162e+20
1.276981692e+20
1.303485148e+20
1.332759368e+20
1.358115726e+20
1.382448032e+20
1.403319283e+20
1.421608756e+20
1.432065577e+20
1.441130827e+20
1.450373364e+20
1.453490578e+20
1.452206973e+20
1.446729757e+20
1.44440836e+20
1.44077429e+20
1.431887666e+20
1.415789756e+20
1.407893542e+20
1.395529237e+20
1.385425299e+20
1.373163797e+20
1.359281802e+20
1.344446804e+20
1.332445308e+20
1.318700214e+20
1.300725171e+20
1.280626898e+20
1.263831732e+20
1.251206707e+20
1.238570042e+20
1.224131728e+20
1.211608273e+20
1.197956661e+20
1.184747243e+20
1.172371434e+20
1.153379076e+20
1.143013377e+20
1.129950844e+20
1.122028529e+20
1.117141551e+20
1.107399943e+20
1.095237605e+20
1.084251321e+20
1.078719246e+20
1.067902839e+20
1.057121684e+20
1.046165049e+20
1.034234376e+20
1.027778186e+20
1.021040528e+20
1.010667839e+20
1.001029303e+20
9.924960897e+19
9.875165677e+19
9.842007622e+19
9.739897855e+19
9.667057971e+19
9.596835218e+19
9.561255565e+19
9.488427461e+19
9.387453945e+19
9.306145296e+19
9.215103501e+19
9.135528419e+19
9.022712596e+19
8.936838593e+19
8.873144421e+19
8.713964038e+19
8.613724655e+19
8.490511238e+19
8.318546442e+19
8.153830253e+19
7.910467367e+19
1.001377416e+20
1.000955782e+20
1.002798485e+20
1.003535671e+20
1.003615791e+20
1.005314406e+20
1.007179109e+20
1.010955629e+20
1.014426475e+20
1.019044795e+20
1.025047008e+20
1.028929738e+20
1.038193034e+20
1.047373091e+20
1.058167731e+20
1.071105199e+20
1.088017338e+20
1.104806394e+20
1.123782157e+20
1.145661638e+20
1.172318152e+20
1.196719435e+20
1.225722435e+20
1.252034171e+20
1.279333337e+20
1.302668749e+20
1.333971969e+20
1.359349149e+20
1.381793919e+20
1.403489371e+20
1.422025087e+20
1.433437219e+20
1.445358787e+20
1.461459073e+20
1.467092382e+20
1.465944532e+20
1.46084061e+20
1.453122196e+20
1.455312331e+20
1.445038089e+20
1.436024088e+20
1.423752678e+20
1.410731391e+20
1.399726597e+20
1.394525823e+20
1.380199216e+20
1.369621625e+20
1.349294407e+20
1.336710781e+20
1.320741409e+20
1.303397187e+20
1.292070823e+20
1.274238941e+20
1.26085047e+20
1.24049447e+20
1.229955069e+20
1.221044599e+20
1.205429671e+20
1.192185389e+20
1.181616177e+20
1.168784265e+20
1.153196845e+20
1.144962347e+20
1.130013433e+20
1.115252706e+20
1.106331301e+20
1.101299862e+20
1.092739705e+20
1.082008304e+20
1.07307865e+20
1.064551461e+20
1.054819332e+20
1.047337472e+20
1.037834587e+20
1.028693931e+20
1.018518231e+20
1.007268281e+20
1.00147107e+20
9.903915771e+19
9.809633047e+19
9.759930871e+19
9.688883352e+19
9.642009971e+19
9.535228515e+19
9.439248102e+19
9.322015542e+19
9.22474666e+19
9.174772867e+19
9.068937584e+19
9.01409375e+19
8.832241064e+19
8.662039124e+19
8.526151519e+19
8.364236384e+19
8.124961487e+19
1.003177359e+20
9.990977999e+19
1.001746185e+20
1.001003795e+20
1.004068664e+20
1.005051844e+20
1.005849386e+20
1.00832303e+20
1.009100269e+20
1.013555429e+20
1.018276062e+20
1.024080786e+20
1.032487639e+20
1.038949814e+20
1.048723787e+20
1.055830727e+20
1.065412159e+20
1.078406008e+20
1.093928062e+20
1.110397745e+20
1.125929459e+20
1.145946474e+20
1.171936296e+20
1.196505575e+20
1.227954127e+20
1.255937547e+20
1.28201571e+20
1.306912786e+20
1.337482018e+20
1.362372041e+20
1.386197529e+20
1.410092855e+20
1.425324879e+20
1.437031475e+20
1.449872485e+20
1.459886392e+20
1.465126638e+20
1.468578731e+20
1.467112448e+20
1.466515499e+20
1.464827071e+20
1.457228729e+20
1.449733467e+20
1.440583882e+20
1.428358386e+20
1.412624233e+20
1.399750848e+20
1.392987811e+20
1.379574828e+20
1.365151682e+20
1.346289648e+20
1.331520163e+20
1.318612442e+20
1.307184606e+20
1.297894822e+20
1.278091069e+20
1.261528285e+20
1.253462103e+20
1.240921418e+20
1.224305262e+20
1.210607722e+20
1.199513211e+20
1.183592072e+20
1.175105061e+20
1.160418147e+20
1.148974736e+20
1.138992531e+20
1.12681392e+20
1.119741681e+20
1.107938831e+20
1.100221293e+20
1.089750064e+20
1.078895599e+20
1.070566355e+20
1.062073513e+20
1.051796206e+20
1.037647574e+20
1.029232078e+20
1.020564792e+20
1.01320351e+20
1.005391696e+20
9.968756817e+19
9.861521071e+19
9.762830284e+19
9.646838247e+19
9.541591236e+19
9.439084224e+19
9.348582574e+19
9.275951718e+19
9.187774032e+19
9.086401688e+19
8.925452874e+19
8.747984093e+19
8.636724526e+19
8.383985406e+19
1.001496552e+20
1.000655901e+20
1.001623727e+20
1.003692826e+20
1.006494711e+20
1.006571984e+20
1.006606186e+20
1.009295215e+20
1.009709284e+20
1.009961837e+20
1.012237167e+20
1.014106133e+20