/*--------------------------------*- C++ -*----------------------------------*\
| =========                 |                                                 |
| \\      /  F ield         | OpenFOAM: The Open Source CFD Toolbox           |
|  \\    /   O peration     | Version:  v1706                                 |
|   \\  /    A nd           | Web:      www.OpenFOAM.com                      |
|    \\/     M anipulation  |                                                 |
\*---------------------------------------------------------------------------*/
FoamFile
{
    version     2.0;
    format      ascii;
    class       volScalarField;
    location    "0.04";
    object      rotationalT_N2cold;
}
// * * * * * * * * * * * * * * * * * * * * * * * * * * * * * * * * * * * * * //

dimensions      [0 0 0 1 0 0 0];


internalField   nonuniform List<scalar> 
6000
(
300.8463885
302.2313635
303.3434132
307.864707
327.7774865
301.4085808
301.6912039
303.5689716
311.3181138
327.810811
299.5041966
300.2302909
303.147169
308.2548035
319.5578858
300.5035572
302.0856018
304.008773
308.456495
315.5024418
301.1178191
301.5102961
303.348423
305.8425499
309.6974837
299.1089427
300.7843882
301.6121011
303.6333101
307.0918396
299.3628207
299.7561343
301.6364098
303.0334735
305.9937135
300.6479572
300.8243902
301.151459
302.2476734
303.4999068
300.4655488
300.9801154
301.6318744
302.1790815
302.6009364
299.8038605
299.5544905
299.6980157
300.1087712
301.9610672
299.5596391
299.0099669
300.2547918
301.2257122
301.5631395
300.5338202
300.3482055
299.3983798
299.946373
300.6101773
299.9432384
300.1787364
300.2487619
300.9065461
300.7869404
299.6016354
299.7084386
299.7034363
300.7913045
300.1215566
300.3934743
301.0292654
300.6565703
300.9471655
301.4450855
300.4124536
300.2876339
301.0665894
301.0693438
300.7279474
299.9541329
300.1447994
299.8968162
300.5055703
300.1782482
299.6188718
299.9047045
299.5502504
299.9345002
300.3594971
299.177036
299.274995
299.2445047
299.5473397
300.2572863
299.802383
300.1482461
300.2407709
300.3656628
300.1443528
300.9585427
300.7910175
300.6474536
300.8940648
301.1747925
299.886945
300.4049898
300.2719642
299.8433674
300.1115412
299.8743361
299.6735044
300.0732787
299.8409326
300.4247607
300.3883766
299.5189247
299.6204622
299.5293588
299.3131714
300.2479189
300.6163391
300.2354223
299.8983363
299.4491417
299.4446701
299.3229645
298.9000191
299.1851485
298.9295459
299.3710386
298.9581895
298.5872507
298.8032822
297.9177836
299.6010166
299.8723838
299.7475532
300.3199929
300.3916317
299.1729006
299.5023505
299.7046482
299.8971002
299.9567399
299.9013488
300.1870879
299.599024
299.5054869
299.6374544
299.7668225
299.3516934
299.3277705
299.7258889
299.9265602
300.7134456
300.9580609
300.8410907
300.485098
300.0805043
300.808439
300.5975776
300.9626941
300.6125859
300.5169335
299.1316486
299.7181863
299.4297809
299.588361
299.5397811
300.0567429
299.8181964
299.8806534
300.1538425
300.786238
300.0507641
300.1679804
299.6418268
299.2898562
299.0911975
300.293585
300.4409803
300.4076757
300.8496156
300.8668682
301.2130844
301.3567615
301.0781929
300.7087446
300.8619238
300.4823833
300.3931871
300.5666026
300.441782
299.4000845
299.8081585
299.8847293
299.6784249
300.1891918
299.8827535
300.9960595
300.8264488
300.6675213
300.4561623
300.6163143
299.7812743
299.7645381
299.9392727
299.7828764
299.140581
299.8784064
300.069875
300.490823
300.4930925
301.0156834
298.9425288
299.3722768
299.6132012
300.0182777
300.298689
300.756312
300.4560842
300.1714103
299.4814232
299.569865
300.8734772
301.4374673
300.8764411
301.6318492
300.9370371
300.043834
300.6651432
300.8044474
300.8737845
300.8044403
299.6899614
299.9626043
300.1238124
299.5476212
299.6286785
299.8182754
299.9720333
300.5724345
299.6737526
300.0180102
301.0229054
300.7717475
300.4358516
299.9927943
300.2778261
299.6983239
299.6161057
299.3586944
300.0652195
300.1946827
299.4221312
300.2654142
300.3410214
300.1481269
299.8633789
300.989074
300.8672712
300.9497295
300.692767
300.1029963
299.4080716
299.8715217
299.5644026
299.7842944
300.2739701
299.4711989
299.3588697
299.1413655
299.3815065
299.0626442
300.7955446
300.7798148
301.1705448
301.4413685
301.3274122
300.4471031
300.8581071
300.3136881
300.6945582
300.1568939
300.2796276
300.8607048
301.5760362
301.1040799
301.4726136
299.6760743
299.905524
299.2980787
298.986478
298.9266741
300.6169273
300.5194999
300.7232164
300.8309641
301.0436788
385.1203917
419.4354913
439.1730693
457.6218551
476.2173247
486.4325551
495.0758657
504.295427
512.3262616
520.5193816
526.6081524
530.9404649
538.2103343
538.3507592
539.8000145
546.5613858
546.1191401
551.9637912
553.6666437
552.2497666
551.9141625
556.0365228
556.4663833
558.6820146
559.5578673
558.2882469
562.1846685
559.1995248
559.0422947
559.9645725
562.042144
559.9172373
560.3051047
560.3068489
564.3131497
562.444881
560.6337679
561.7659719
562.4706028
565.4196478
562.0933709
564.0405094
560.6180033
567.7147237
567.2243497
562.9256414
563.5897649
564.4051962
561.8818274
563.5316512
557.8745697
564.1569451
561.6348577
557.644986
563.7393792
558.0653749
558.9979831
559.9804671
560.0234036
557.6123623
559.326236
558.0596744
561.5816467
561.6840802
556.7994998
557.9363369
560.3709425
555.018721
554.1192795
552.2003501
555.4808779
553.5993445
558.9600755
555.410256
555.3742504
554.1025471
554.8894791
557.5259204
552.7117241
553.9414277
555.2510465
555.2226099
553.1554148
555.6984618
549.8546281
549.5775589
551.2956721
553.5946109
547.6342335
551.7239254
551.4754711
547.6889782
544.3400452
550.1370989
547.465664
353.1368731
379.7944567
401.839081
421.1836262
439.7383224
456.3853999
469.2257139
482.4804917
497.3642659
506.8266344
515.8290109
522.9503678
530.6240362
534.4184367
538.6642654
547.213256
553.3347478
560.4100066
562.0680695
566.424382
567.2991045
568.8778328
576.1647446
576.4481569
579.5834674
575.7222964
577.5912084
581.5605041
580.5702111
582.7036871
583.4229933
583.0513336
581.3332682
578.8866602
581.5103972
582.158715
581.5972604
583.489118
584.757438
583.425071
584.9313523
586.7275045
587.0732828
589.5824377
589.8208959
585.4287182
587.9781713
583.2363018
586.1058104
585.67142
579.8461009
580.3673379
582.6830996
583.8948406
579.8210749
580.7280127
581.5988819
578.7780725
580.7432544
580.8626158
581.2889328
581.6828895
580.4313594
581.5557979
581.1392548
582.8341652
582.0413186
581.6652861
579.3503307
574.3185997
577.6752256
574.3558467
575.1375944
576.8668951
574.5110629
573.7596212
572.0393121
577.1152321
571.9968085
571.9806885
572.589719
568.6686872
573.5528325
570.1671831
567.6322074
568.3380108
567.1517452
574.4695095
571.2370079
564.1456374
568.4179896
567.0403914
564.2066217
557.3648746
560.0039276
334.6715788
352.9310442
373.8900059
389.8886791
407.7149956
424.108877
437.3135958
451.4347186
465.0994942
478.5566324
489.3497367
500.7048636
511.2931342
517.8408717
524.4390275
532.4518666
542.5088958
546.0481164
553.8481456
558.9431623
564.5276212
567.919116
573.9325071
575.7907675
579.1856152
578.8335601
579.8746133
583.753311
586.4686192
586.5045891
589.3729898
592.8317642
595.1490336
593.0075353
591.7647635
594.4812108
594.6337839
595.5001715
594.310274
594.8581057
598.1849509
596.9473117
597.4760758
598.7764354
597.6587324
601.3712897
596.4168651
601.4063332
596.0643349
598.0344483
595.986252
593.8077768
594.4572724
594.4513682
594.8433455
596.3457806
598.3321301
593.179253
593.4423124
594.1592258
594.8823821
599.9131234
596.9575081
596.1569909
595.2883478
598.1756156
598.1455583
591.0877627
592.853218
592.0340681
590.5690184
590.0897395
592.0332235
589.0984397
590.5506976
587.6044451
589.2257419
587.6710672
584.8119381
588.0465161
586.5692725
587.8736395
585.5126446
585.3989494
587.8424242
584.6264897
581.3848374
581.4236865
579.3326904
577.8871672
577.0586851
573.6052872
571.4319945
572.2284227
568.085316
325.214731
337.4313654
351.7974639
366.9126488
380.9193305
396.2346807
409.2245604
423.1992869
436.3270128
449.7585187
459.6319644
471.9440218
484.4675966
493.0902557
503.3242131
513.4207324
518.6527731
528.3437903
533.4353956
539.2777338
547.0121699
554.7129608
558.406075
567.1959535
570.1010302
571.310512
574.6097318
572.1611226
577.8186973
579.6391567
583.2881243
588.6197134
591.6869752
590.344203
595.1347974
593.8410688
595.4386083
596.5527115
597.1717258
599.0665699
603.0573348
600.455391
603.7347813
603.8965245
605.6660516
599.9961816
602.1398177
607.1741494
606.424587
603.2847754
604.6983245
601.8130986
604.5260103
608.0397251
605.1741313
605.2111764
607.9763319
605.3160947
603.5684192
604.9491064
607.079257
606.6149228
606.8474025
605.702583
608.2256716
605.6540279
602.9426693
597.6764362
602.8266763
594.8375429
596.1353871
601.3049388
600.2594235
599.9824756
598.0300019
597.7624519
599.6275197
594.4397766
598.2555969
598.9302981
597.9823764
598.5923764
595.1723672
595.3026575
597.9669151
592.9389701
588.9835258
588.4430191
589.0827028
587.8405714
585.8284736
582.7677804
576.8375992
575.4648625
572.9502032
317.5818025
326.3397749
335.5538751
346.4219631
357.6853196
371.3209251
386.2022388
396.5272111
409.8521596
419.6905566
432.6820986
441.6623096
452.045227
465.4251824
475.6161558
484.5654169
494.6355089
502.5948329
511.2762414
520.6172893
526.3054359
534.0361015
542.6274516
547.5939966
551.0491177
559.0906246
562.8661448
566.4628678
568.5513686
569.4046072
573.3023499
580.130713
583.0673164
583.6834063
588.3042421
593.3632329
592.8179088
594.2524549
597.7373676
598.0496973
598.402652
599.1920835
601.878695
603.5184853
605.2718523
605.2785188
607.2837226
608.1928997
609.4766128
607.783748
609.0723408
609.4350555
611.1092885
609.4688594
609.2162027
610.7987511
607.4744705
610.8016264
612.9932644
608.2407748
606.9210883
609.6726889
607.50947
607.2336146
610.195894
610.646058
611.5644281
609.4852952
605.8670701
604.6407551
604.99541
606.4198476
607.7535708
607.188696
606.5475062
602.2169328
605.5198687
605.4746484
600.671706
606.7243449
605.5647587
606.4203
601.0609656
603.1085885
599.6421621
597.6654288
599.7980014
598.5534808
599.6054353
596.3162802
591.2540396
588.7308743
586.9279206
583.3583159
580.0832917
310.3126933
316.0495215
323.8031059
333.1404701
341.4241703
353.0450892
362.5461901
374.710033
384.0278714
394.9312819
407.2661003
418.5502856
428.1904992
438.3506051
447.1468271
458.7291859
466.3924532
476.3858059
485.428606
492.5651441
501.240761
509.6198171
517.162397
525.4026535
531.7596064
539.7981254
545.8089797
550.3050446
554.246574
558.8323283
561.7470105
565.5998594
570.6813062
572.1685855
575.1575486
581.936681
583.5581418
588.2255589
593.2052638
594.4880599
594.1670233
591.1170439
593.203924
596.2018348
597.4451389
599.3955591
604.3492891
606.0256969
606.4769068
601.4185292
604.8810191
606.127846
608.6085556
609.1457585
609.6836298
609.3763725
612.3557983
616.2533654
615.1332597
609.6146994
611.1882101
612.1998005
612.5140574
609.20758
613.3858241
612.2078544
613.3376332
612.3261969
610.4613852
607.7163662
612.1525657
610.3522019
609.5822122
611.9709125
607.9434665
609.7799194
612.483727
613.0635381
611.9403686
608.8132
609.8646414
605.4380252
610.822253
609.0195133
607.6223575
604.0305801
604.7465528
603.86926
607.7621633
601.7968706
597.5833723
592.1206474
590.1022739
583.5002487
584.1289405
307.9473494
311.2453396
315.5109977
322.8545429
329.7776351
336.4615598
346.1437241
354.9805272
366.3867802
376.1222892
384.7718819
396.1299059
404.330612
414.8483261
422.9021685
432.655122
442.693988
449.3161425
456.9212327
466.3545976
476.7220249
483.4379743
492.4540628
500.9723593
509.358022
515.2723262
521.0460932
526.9093433
532.8382621
537.8657081
543.6666871
547.6554334
553.880033
556.9138298
560.5094877
566.9507647
569.9909539
574.0639162
575.8281727
579.2708811
578.9866729
583.5929306
584.1181187
588.8135293
590.9602429
595.9725591
594.2625494
596.3394008
595.6619312
598.4693467
599.9089671
599.6904161
601.8835649
605.7598624
610.4402906
608.5766182
608.4600003
607.8913445
608.9696934
609.5908123
609.7355347
610.4009648
612.158564
610.3643225
612.7421949
611.0852805
612.4675741
614.1263708
614.5251158
616.0192507
613.8172868
608.7818364
614.4276495
612.8083994
612.3523238
611.6622203
615.7936699
615.4079506
617.1113855
616.3528884
612.4803384
610.5370934
613.4597592
614.4276416
608.2194461
610.566537
608.5360933
606.8463137
609.1535866
602.8426126
599.9387995
600.1647087
597.4149563
589.4964732
588.2306298
304.6619522
308.3764523
311.7052563
316.1689298
320.7295089
325.777911
333.692407
340.8319073
347.4739766
357.2868833
365.2990985
375.6736293
385.1102347
394.2116075
403.2271867
410.1509715
418.9338921
427.6368256
437.1810728
443.8359197
453.1075012
461.6223344
469.5776972
475.2947168
482.8417042
491.5574662
497.1280266
504.4806775
511.8251053
517.989392
521.9712612
528.9759158
534.1508708
538.0411981
543.7655003
548.6970767
551.8184373
558.9824793
558.9894807
564.1976785
567.3649546
573.1777137
577.1994494
577.0305198
576.8799199
582.084831
586.1511019
590.5411077
592.4496813
593.4948343
594.3909501
591.3164014
593.5374325
593.9592116
597.1420376
601.5400228
598.8826404
603.8249731
605.7030193
606.4468497
606.5882882
605.6640158
610.5335374
604.7689458
605.7781688
608.7882469
608.3892776
610.2358168
613.2826613
612.9506917
610.347168
611.2008597
611.5065972
611.6187685
611.2357446
611.6139721
612.645089
614.2965311
614.2866827
613.9961673
617.6097096
614.0398635
612.5956291
613.6196785
612.1251888
608.4986236
609.6644909
610.1124883
609.5048164
607.057446
604.1388681
598.0022256
599.0570869
593.07026
585.6941488
304.5453534
305.3302307
308.3623064
311.6172449
316.5386787
320.1057655
324.0693284
330.7786388
337.3462481
343.5154554
351.5505796
357.0089397
365.0205999
373.6672167
382.3560631
390.5016424
398.1732234
405.39239
414.3168982
423.5971618
432.1662915
438.5261286
444.6729493
450.9590198
459.3668391
468.4173342
473.7879669
482.783617
487.572102
497.440141
502.5174209
506.6327461
512.6506222
518.8149305
524.3927937
530.1226066
534.9547585
539.1048537
544.9980355
548.2646233
551.9993119
554.222131
556.6314395
562.9945062
565.9762669
570.0904918
571.5611101
574.6043812
576.0731623
576.2354039
578.267755
582.0569973
583.2730337
584.570742
587.1336398
591.8791611
593.2833066
593.1545075
597.038864
599.8910373
600.9670501
599.4883953
601.0183304
601.6555486
601.7335108
600.5861095
603.1670679
605.1744584
603.5741305
607.9498325
607.9490489
610.6108911
606.7425226
610.2548762
609.5987751
609.8561055
611.8362349
608.9364973
609.9644439
613.9408118
611.4234602
609.6559087
614.5389379
611.1861415
612.2597101
610.9518628
610.9034236
610.7337292
609.4200125
604.5933185
603.4895843
599.3914105
595.0002208
591.9637243
588.1588543
302.9091958
304.8436207
305.852779
307.2842349
309.8911915
313.8837899
317.4934142
321.0309178
325.0727854
329.9325134
336.1536907
344.1974903
350.009966
357.1583133
365.1681854
373.1295701
379.5971748
389.1336615
395.654494
403.0167933
410.6989706
418.5159627
426.131415
432.4338915
440.1166264
447.2150608
453.8006686
461.0079407
468.2628589
474.2067882
478.688202
485.3297308
491.3190018
497.7321127
501.3972712
507.1192878
515.6475879
522.4368916
525.4225426
530.0317203
532.9674766
536.6971296
541.0897858
545.1888087
548.8471694
553.2571483
555.7331816
561.3877739
563.6625316
565.7754012
565.2842986
568.6177644
573.3503931
575.0322714
578.0224547
579.831097
582.1256158
585.2572689
588.7484066
590.0943257
591.595795
591.5451195
594.6221411
593.6875172
593.4652082
594.3766966
594.3603146
594.0123374
599.5411735
602.2434691
602.4023872
601.2362387
601.9396006
602.2167303
604.0610267
606.5913688
604.9014745
607.576752
604.8165494
612.362888
611.7354935
608.063733
608.1625258
609.424181
608.8766837
610.0956033
608.1048588
606.9728447
608.7676469
609.4225707
604.8579711
598.2759622
595.8756842
589.6159775
587.0602017
302.1436741
302.4084703
303.3004969
305.0923605
306.6181079
308.4926984
312.1931666
315.3660237
319.2307738
322.5823115
327.2290906
332.986964
338.9273516
344.4028208
350.7116345
357.4158786
364.4159785
370.5758306
378.4259821
385.5683462
393.1947902
400.9904912
407.9168091
414.5537473
419.2280035
426.0687335
432.3515508
439.8982646
446.8457499
452.4099881
460.1241356
466.6754086
473.9824053
478.0679477
484.7890828
490.0927698
494.6545501
498.1141596
503.6726454
510.7074145
513.6815488
518.0232488
522.8530652
527.5307366
531.436603
534.1908389
537.3915137
542.6643901
546.1744733
551.3520798
555.6208177
556.7729831
557.8767117
560.6657761
563.2365396
566.7764766
571.0072583
572.8613312
572.7816056
574.8110573
576.3090031
578.7069447
579.7349365
581.7792023
584.3867262
586.8870986
588.6237767
589.0583877
590.6660641
590.9852245
593.1954801
594.3777837
599.185084
600.7589469
600.8722075
600.5422837
599.8557345
600.9129853
600.6494836
600.6167283
606.6990241
605.5968268
601.839386
602.4548956
605.5236427
606.9954948
603.8744877
603.313456
602.2224896
600.6401717
599.5706079
595.1644064
594.3563966
588.89116
585.2723971
300.7109945
301.9048359
302.1292137
303.137934
304.4632803
305.1489865
307.0504389
308.9872643
312.4773755
315.4264527
318.9352545
323.1910586
328.4022515
332.7712449
338.262898
343.8543721
350.1103072
356.2488272
362.9314943
368.4262467
375.9249949
381.7797316
390.5246676
396.5753779
403.5672729
408.9867765
415.5742991
422.901754
428.962043
435.2713289
441.8827493
448.1518849
453.6208249
460.0898345
465.1678437
471.4238497
476.0021123
481.7486029
486.0482883
490.4259323
493.8091679
499.3937954
503.8374551
509.0489813
512.2241996
517.4469563
521.9801929
526.0996928
528.4876495
533.1601162
536.2823124
538.0445088
542.3502678
546.5161314
549.8493231
552.3635201
554.2633241
557.1312418
557.8443791
559.6157171
563.798995
566.7914498
569.391612
572.0171527
573.6867676
577.1780589
579.4151415
578.8236997
582.242237
580.8028685
582.6050837
585.3466421
588.0235171
589.1404753
588.6976695
589.8999528
592.2414137
593.1324334
594.512299
596.4487777
597.9786949
600.6331282
597.4602504
595.291456
598.0753214
596.7396822
598.1997736
594.3011938
594.2852622
593.6180872
598.0343766
593.9262302
591.2256027
583.8305939
583.9547229
300.3936092
300.3689495
300.4908766
301.015924
303.0968935
304.575471
305.5648861
307.5583521
309.8191136
312.6780213
314.7579953
317.2309122
320.0894682
324.4138478
327.7015258
333.2547142
336.9617969
343.5571834
348.7301753
355.4335277
359.9260227
367.287402
372.3278074
379.6025959
385.4442318
392.1701713
398.1836248
404.4055724
410.5543823
418.1096373
423.4939131
429.4787926
433.8140697
440.384286
445.4313616
452.0014084
458.2839313
461.8418516
468.8894672
472.9311127
477.3927653
482.2639995
486.1293677
491.2191005
495.1114147
498.7434518
503.6894245
508.8894845
512.6748849
515.2278895
519.1084156
524.201366
526.0618203
530.2998149
532.8906858
534.839378
538.4150098
540.4870629
545.1271706
548.6358419
550.2237777
551.0680841
555.2847238
558.9677903
560.1228593
559.9991823
565.2748991
568.3818054
571.5041328
571.4016401
573.4529004
573.0079998
575.8086277
576.4749335
578.2159985
579.5565709
584.9497894
587.5092426
590.9186924
589.032907
589.7647077
588.3721587
588.7598105
591.4604887
588.9796463
589.3777064
591.1787566
589.6957716
590.6094774
589.5491858
589.7979115
587.7458938
583.8584814
581.7465973
577.0634653
300.565955
301.8668265
301.9151528
302.6206351
303.0106986
304.2453929
304.8699542
305.842877
306.2505584
308.5660294
310.5390869
313.0007096
314.9781591
318.3078205
322.05875
324.3639267
329.4476433
332.3915711
337.8925805
342.8889422
348.8262263
354.5893881
360.4396023
364.994313
370.6691634
376.9857325
383.2188916
389.7876613
395.0833171
400.2230056
406.1400098
412.0790567
419.1693069
423.6115288
428.5758684
433.3859868
438.7726505
445.7545005
449.1054679
454.2169486
460.3450752
464.511652
469.4612884
473.13467
477.807535
482.3036904
485.9996314
490.4309574
494.7335154
501.1476952
503.5778304
507.696491
509.4928801
512.8195643
516.7546656
520.5279397
526.4453862
529.7615067
531.2189697
533.5846172
536.0229406
540.5352289
541.9857918
543.388311
548.1838516
551.2917435
555.2937656
555.4691175
555.4662201
559.1406383
560.2550142
564.199112
566.0511335
564.6157236
570.1303637
571.1096957
571.2415286
576.3689184
575.2902851
579.7025489
578.844958
577.8341332
579.97723
580.0795466
581.1067412
580.5626805
581.6611853
583.5717582
582.9020589
582.4633188
580.2236811
574.0966309
575.6556144
574.4798031
571.9620789
301.2187504
300.8093406
301.9680542
301.8867502
302.5940864
302.0996913
302.8236034
303.5660699
305.0276191
306.3554582
307.2002508
308.6281872
311.6251688
313.8957391
316.1839902
319.2399528
321.8446176
325.8325521
328.8298696
332.4814937
337.0665303
342.4207972
348.4281527
352.2975052
357.2220136
361.9326243
368.5494293
374.3123334
379.8670101
385.1754512
391.338199
396.9916663
401.5204008
408.188875
413.3667038
418.1951778
424.4690286
427.9761029
433.9038053
437.2248885
442.36727
446.7255158
450.5119096
456.2703177
458.9776138
463.7373897
469.1393482
472.7010391
477.1548945
481.7039454
486.0679378
489.7467181
494.3558321
497.5763857
500.782545
504.008357
506.5358745
509.5923921
514.4800647
517.4579778
520.0993533
523.7098918
527.5517251
530.1519114
532.6889783
537.0699842
541.0038869
543.0802249
546.3511573
545.3937927
548.7826417
550.9440414
555.9206338
556.4162499
555.9090956
558.1786451
560.5065421
561.2497567
564.1427349
566.2276824
568.4589839
571.5064918
573.149575
574.0045331
573.9488188
574.6423855
569.8964364
571.5856745
574.8097468
574.3897822
570.6651369
570.2083717
567.7743828
565.6106594
563.1203494
300.8724033
301.8851128
300.9499346
301.4954848
301.708415
302.0733884
302.4125652
303.5033464
305.2710415
304.9029859
306.2781887
307.0714292
307.8985156
309.494358
310.4991903
312.3347469
315.50674
317.8776016
321.1865758
324.1891641
327.9415363
332.1616098
335.8690477
340.5520089
346.0376327
350.4486453
354.9492117
360.1344908
365.0962813
370.8615292
375.8462863
381.5912773
387.0640137
391.9385908
397.6988321
403.1548367
409.5009284
413.9202321
418.0275015
422.4335361
427.2785423
432.1364149
436.3490042
441.1444237
446.3317408
449.1967665
452.2600339
457.8686301
461.0627206
465.5473494
469.4118912
474.0815034
479.1760298
482.0650023
485.9737014
488.8067098
490.8158467
495.204891
499.2938889
503.2784059
505.8022134
507.0490056
510.6373907
513.8563152
515.6618201
517.2634455
522.2235353
524.643889
527.9006127
531.3297372
534.207247
534.6859915
537.9242542
540.7865542
544.4703351
544.5898005
546.2202179
551.3610705
552.1168763
552.4920835
557.1965424
558.3948409
558.947902
560.097884
562.1705951
563.2437936
561.770631
562.5513086
565.2135205
565.4851145
562.7176994
562.3365392
561.6079217
559.8536726
559.783745
299.8978638
299.8485767
299.6587661
300.1075232
300.0236416
300.4408636
300.4042384
301.0069752
301.1401862
302.4449823
303.0169112
303.1256752
304.3886104
305.5576748
307.7510914
308.6762861
310.1865078
313.2621502
314.816245
318.0084074
319.8090218
322.8991904
325.920074
330.148067
334.5589749
338.2447581
344.1129993
349.3461216
353.9966899
358.7615804
362.6378891
367.2835928
373.0715741
378.8578596
385.3054177
388.1953224
393.7301802
398.3313955
402.9779697
408.947267
413.3947793
418.0669072
423.1614938
426.5749721
430.4745167
434.0873979
438.4189341
442.6918532
446.8802269
451.0615413
455.9570572
459.0031336
462.1406128
465.8233447
469.7943689
473.0811344
477.58053
480.3532904
483.6615756
487.4836245
489.6216068
493.0918259
495.4363722
499.036425
500.8550843
503.2154456
506.5609741
511.2550261
514.0851219
517.1122781
521.8463627
523.249535
522.7635818
527.1088461
530.2581877
531.9608649
532.3670683
534.5966014
537.2269784
539.2113869
539.2511223
544.8384806
547.3731885
548.1823264
549.0552639
551.036446
552.4497439
550.0464449
551.9484203
553.6690389
555.7526796
553.4720713
553.113356
551.097661
548.766122
299.6612594
300.1254077
301.0097236
300.1394004
300.9549371
301.2754963
300.6831802
300.4340948
299.8385865
299.8206779
301.0743071
302.2799289
302.9688428
303.3490638
305.0139933
305.7138338
307.450102
307.9656555
310.4122781
311.4006665
313.6647699
316.861461
319.4440935
322.2804965
325.2077639
329.6722982
332.867614
337.7884287
342.0551158
346.9211837
351.8923596
356.0955116
360.1387527
364.7900146
369.8665133
375.8218985
381.3087532
386.4540378
390.6407952
394.8220215
400.3604764
404.0433882
408.9126752
414.7612767
418.0976998
421.4685845
424.2328658
428.1883833
431.8650523
436.0127283
440.5234415
443.7424461
449.1860459
452.0997939
454.5101957
458.5132023
462.6615915
465.0833674
469.2955964
471.764663
476.1277158
478.2654564
481.5881851
483.4666093
487.4264794
490.3500633
493.5634567
495.4797927
498.1526587
502.4380747
503.3650991
506.6597429
511.7347371
514.4322473
517.1865139
519.0903596
521.7758465
522.6301919
525.2142292
526.6089204
527.9339386
531.2045303
533.7803509
535.9830765
536.8027391
538.6920327
541.9891977
544.1745877
543.0366855
544.961178
544.6322921
543.6885156
542.8673197
542.8319238
541.339139
299.733115
299.427061
300.2924342
299.8201841
300.399395
300.0028092
300.0442876
300.6712506
301.5660637
301.3030999
301.5211526
301.8790308
302.7853546
303.5048571
304.1595403
304.894653
306.0368747
307.3913154
308.6976214
309.8926213
311.3622828
312.9557767
315.8875992
317.9200705
320.3384651
323.0257583
325.9971078
328.8002462
332.3793988
335.8901048
340.1210444
344.9281482
350.0187939
353.9300498
359.453572
363.8305982
367.6478561
371.9022917
376.9364843
381.0974025
386.0651924
390.3496218
395.7639651
399.4513882
404.4292327
409.7769665
412.2220883
416.5360779
420.7490974
423.8346708
428.3426033
431.9679685
434.9111397
438.9506007
442.7827708
445.1432863
448.9147866
452.5163892
455.3011554
458.2125634
460.6315119
464.8623479
468.1164312
471.1342171
474.3676943
476.5676396
478.7920164
483.0246959
484.4520859
487.6424056
489.7300742
492.3593746
495.3504536
497.8439558
502.0286854
505.4788124
509.0083652
509.9750403
512.9542792
515.496032
518.9563983
518.9936278
520.6609455
522.7668125
527.8346906
527.1136467
527.4475177
531.3887457
533.636181
532.9479554
533.6432181
532.7781606
532.6685241
531.8061661
531.1349752
300.6120595
300.3146572
299.596912
300.0951122
300.4589212
299.8542884
300.5775487
300.8292352
301.6407556
301.4951997
301.9543843
301.3801819
302.3437323
301.7994969
302.7295754
303.9707711
304.4193611
304.8778567
304.7025877
306.7513867
307.8684491
309.0922297
309.8560077
311.7940049
313.9173049
315.7437995
319.1244052
322.3099582
325.7099897
329.1811885
332.9322712
336.3368271
340.6072092
344.3243207
347.8117514
352.0187293
356.3587379
360.9090801
365.1834636
370.614816
374.7170544
378.3516365
382.3685783
387.4951899
390.9525011
396.0556018
401.9795007
405.3683156
407.9974057
412.1021926
415.0503632
419.2377605
423.9826333
427.1919065
429.9795951
433.358454
436.7852493
439.6448183
442.1145843
446.5214697
449.1010114
451.1909036
454.2265467
454.8735741
458.8905197
463.2631423
466.1116856
468.2941236
472.7904543
473.8946172
478.6514701
480.6841955
483.2674205
486.0826804
488.3860111
491.7597958
493.4553439
495.9960579
497.9211369
502.0967372
503.06384
504.8871025
509.4857918
509.7109188
511.4450103
515.356996
516.0355951
515.8253501
516.9993106
519.4635262
522.0583833
521.9991833
521.3207053
521.891613
520.4085633
300.3463361
300.5131859
300.860222
300.8882857
300.3803042
300.8887918
300.1710676
299.4808182
299.4890046
299.8968782
299.6229806
300.9244739
301.8325679
302.9544649
302.6586725
302.1432519
302.706749
303.7214602
303.7881331
304.5629152
305.2039958
306.2269189
307.9546293
308.6073085
309.8543707
312.6501769
313.7646659
316.8843997
318.3526517
320.8803507
323.3495564
327.5951192
330.2755383
334.4406906
337.9194632
341.7376413
346.0915315
350.3612541
354.9017796
358.4081697
362.7571397
367.2302351
371.099061
375.996897
380.5735693
384.6890037
387.9044813
393.2423441
397.7792269
401.2299917
404.3728303
408.3399504
411.3590569
413.5952688
417.0303679
422.0540108
423.789599
427.1242934
429.5904789
432.4560297
435.6738858
438.4837979
440.7153466
445.8016594
447.7785039
450.6706878
453.4104089
457.3062145
459.6199462
462.2558462
464.9282877
467.3930921
470.8610416
473.0992601
475.1100701
476.1909452
478.5162364
481.261796
485.221635
486.8081556
489.2723029
491.5809469
494.9102812
496.0167804
497.4618848
499.4348535
502.3067965
504.5450046
504.0034612
506.8777083
509.4708789
511.5640486
511.7594321
511.2002065
510.4241091
300.4757184
300.0482248
300.3417157
300.3292359
299.7780222
300.1521487
300.6851622
301.7825895
301.7280584
302.0378459
302.36099
301.168775
300.8202408
301.0726699
300.9699732
300.9666802
302.1787764
302.1428964
303.5768087
303.0911123
304.4558439
306.042436
306.4928224
307.9821216
309.9811834
310.8509439
311.7865128
311.4937636
314.4570017
316.0912242
317.8237439
320.952848
323.667883
327.2129692
330.5224586
335.2031305
339.0098279
341.8814629
344.045982
348.3622527
353.0038753
357.8929023
362.7298262
366.4066667
369.7585655
374.055695
378.9962922
382.0315615
386.0807193
390.2183572
393.7055195
397.4851243
400.053548
404.1159674
406.8108794
410.046763
413.8456762
415.9398728
419.062192
421.2984673
425.6317454
429.0932708
431.4892939
432.2345453
435.7988949
439.6881214
443.721136
446.1155463
447.564784
449.6202873
451.4911548
454.6312234
457.4594694
461.1510966
464.0726701
465.1301186
466.8735016
469.1556669
470.1377329
473.8146977
476.0236562
478.8064016
481.5210728
483.621893
483.5101559
486.2021725
489.33807
490.3450314
494.0778084
496.4525288
497.4039866
500.0648128
500.1503354
500.0863576
500.113235
300.4199767
299.9577224
299.7962203
300.5934485
300.8003185
300.6612256
299.3268088
299.6152708
299.5324179
300.0461643
300.162991
299.9001858
301.3287365
301.9295329
302.028326
302.2454825
301.9640618
302.2799199
302.447873
303.1257776
303.5251283
303.3914218
303.9983419
304.5365714
304.7798187
306.1679106
307.6703042
309.9644569
310.7399364
312.3893663
314.3707838
314.8066657
316.3879644
319.7518778
321.6316714
324.3206566
327.2022501
331.1252005
334.8212559
339.5435442
343.0039825
346.2866357
349.8150882
354.641009
359.1491801
363.768695
366.9827491
370.9272405
373.7780448
377.5816575
382.5644903
385.5243045
389.7214378
392.4936027
395.3323778
399.2261211
402.5587081
405.2175426