/*--------------------------------*- C++ -*----------------------------------*\
| =========                 |                                                 |
| \\      /  F ield         | OpenFOAM: The Open Source CFD Toolbox           |
|  \\    /   O peration     | Version:  v1706                                 |
|   \\  /    A nd           | Web:      www.OpenFOAM.com                      |
|    \\/     M anipulation  |                                                 |
\*---------------------------------------------------------------------------*/
FoamFile
{
    version     2.0;
    format      ascii;
    class       volScalarField;
    location    "0.04";
    object      surfaceHeatTransfer_N2cold;
}
// * * * * * * * * * * * * * * * * * * * * * * * * * * * * * * * * * * * * * //

dimensions      [1 0 -3 0 0 0 0];


internalField   uniform 0;

boundaryField
{
    plate
    {
        type            calculated;
        value           nonuniform List<scalar> 
95
(
487.4148639
500.8551941
489.7955747
467.684276
462.4691957
442.3000132
425.6081014
432.7999393
411.5367241
405.5715192
392.1833568
376.473848
363.7747851
367.7298292
356.9142614
350.3834923
337.8800433
326.9096667
315.7002226
305.6005241
297.9743098
300.099855
286.6369018
284.7116914
272.6444907
270.9340337
260.3569848
252.5487507
251.6090513
248.0365244
240.7708318
238.951521
234.6464273
228.6631029
227.393818
223.3921667
218.4976385
209.4531819
210.4642874
207.9236272
199.4941654
198.5115064
199.8575639
193.497577
194.315426
183.4225677
184.8179406
181.5496591
179.581081
180.3743661
176.4406334
170.5750738
172.821057
165.7564564
164.4419683
163.4743775
159.7337736
161.9140985
158.4699405
154.144879
156.2552235
151.7569426
154.5214224
147.9358759
150.4513839
146.24653
143.7301123
141.0863099
143.1448371
138.2609293
136.2228632
136.8457066
132.4352424
132.5611024
130.7074086
130.1149449
127.7679427
128.2355999
123.3708077
121.8277039
121.5432808
122.6439672
120.757195
117.7368701
113.4117071
118.0366046
115.9351197
113.7858259
111.056989
110.541852
107.2746892
106.4235845
106.3921726
107.7387342
106.5633945
)
;
    }
    inlet
    {
        type            calculated;
        value           uniform 0;
    }
    defaultFaces
    {
        type            calculated;
        value           uniform 0;
    }
}


// ************************************************************************* //
