/*--------------------------------*- C++ -*----------------------------------*\
| =========                 |                                                 |
| \\      /  F ield         | OpenFOAM: The Open Source CFD Toolbox           |
|  \\    /   O peration     | Version:  v1706                                 |
|   \\  /    A nd           | Web:      www.OpenFOAM.com                      |
|    \\/     M anipulation  |                                                 |
\*---------------------------------------------------------------------------*/
FoamFile
{
    version     2.0;
    format      ascii;
    class       volScalarField;
    location    "0.04";
    object      translationalT_N2cold;
}
// * * * * * * * * * * * * * * * * * * * * * * * * * * * * * * * * * * * * * //

dimensions      [0 0 0 1 0 0 0];


internalField   nonuniform List<scalar> 
6000
(
301.2246091
305.8732413
318.838215
361.7471361
532.9321528
302.307008
308.3220098
328.3246094
382.0455271
499.1227816
302.9612526
309.0569179
329.4104393
368.1720553
438.0353728
302.4261048
309.5973083
324.8175324
354.603682
396.5820446
302.2726075
306.8565458
318.5710478
337.3846423
362.3979905
301.2177362
304.0996956
313.9679814
326.8891139
346.2783994
301.6175408
304.5901125
309.8459884
318.8344086
332.459402
302.5777327
304.274144
309.2490887
315.2878685
324.9108342
301.6508694
302.943041
305.7646493
311.2726088
316.4460287
301.1169412
302.6565825
304.3624622
307.2996829
311.2791143
300.1141223
301.8569372
304.4620855
305.5420938
307.1544968
300.7082919
301.2446009
302.6077677
304.7604615
306.4187771
301.4667303
301.6771539
301.9063533
302.1205765
303.1324779
300.7118207
300.1385734
301.4061055
302.0672111
304.2777648
299.7486044
300.5805398
300.8489316
300.5513
300.8880104
299.5214771
299.490135
299.4501054
300.0938098
300.5870853
299.4307836
299.601535
299.4762687
299.7148846
300.9387072
299.4042973
299.0535051
299.7639362
300.3072877
300.0474589
299.3098944
299.6652217
299.9959778
299.5921936
300.1112903
300.5083659
299.8809093
299.4600287
299.7993684
299.7890449
300.2659981
299.9403766
299.2443217
299.4518776
299.8132069
299.1287577
299.3452601
299.3541048
299.0587335
298.5492932
299.4391697
299.1729324
299.0862782
299.7089539
299.7231679
300.2764735
300.7007091
300.0773752
299.2032676
299.8164799
299.4808757
299.2172501
299.6440433
300.3277988
299.7489237
299.428956
300.0861733
300.0258327
300.8396261
300.3143818
299.5929485
299.173442
299.7552354
299.5778327
299.9768407
300.437328
300.1897298
300.0213492
300.363699
300.8435535
300.8971136
300.5276935
300.3162611
299.4721346
299.3750478
300.2626808
300.1198187
299.7692493
299.7182209
299.6575257
299.8443729
299.7963667
299.7868828
300.1633423
300.1396686
300.2208048
300.1571504
300.0381288
300.2833545
299.5270586
299.3817689
299.8749862
299.8618039
299.63928
300.4929212
299.6739621
299.6632271
300.534509
300.8973335
300.3805501
300.3153022
300.2133452
300.1888036
300.0678607
300.0865758
299.6358446
299.697374
300.2191108
299.8355691
300.0443958
300.1989103
299.6829216
299.5867171
300.464239
300.3052943
300.6237971
300.4029636
300.5015513
299.5358362
299.1553834
300.4468886
300.0838021
300.277312
300.2428311
301.1201833
299.7897888
299.9216454
300.0751686
299.8998892
299.6288446
300.6522372
300.0372475
300.0863162
299.9179987
299.9096727
299.9977555
301.019532
300.8158069
300.5066265
300.6479095
300.1907516
299.5374415
300.0250186
300.0748039
300.1538106
300.3744128
300.4620478
300.094826
299.7876336
299.8439668
299.1905713
299.3390096
299.8612888
299.8838553
299.5652507
299.6508512
299.9382867
299.1134779
299.3475965
299.8160989
298.3710804
298.8081804
299.3708436
299.1137804
299.1940461
300.5542889
299.8664515
299.9722042
300.0068135
299.5931656
300.4155649
300.3139432
300.2982732
299.7275224
299.9582996
300.4130233
299.9102332
300.2711618
300.6177611
300.5849635
300.1546179
300.1882279
299.6465397
299.3463982
299.8773077
299.5556792
299.7527166
300.4097528
300.5579927
300.5776279
299.5877283
300.0813354
299.8697139
299.5825923
299.7563225
300.3198438
299.9492352
299.9050249
300.1671893
299.9101342
299.6024412
299.4009594
299.4216151
299.6088256
299.8395344
299.916117
299.9841932
300.1886479
300.0744822
299.2404408
299.1312894
299.0032805
299.0902973
299.7330372
299.6331002
300.0327831
299.8118833
299.359496
299.872834
299.6108858
299.6555818
299.9029214
299.7723766
299.4585954
299.5024808
299.8996541
299.8381806
299.685557
299.697987
299.9881536
821.5844271
868.5331887
881.4808172
888.2544265
885.337235
883.4183286
879.6861777
870.5214137
860.5177745
848.7157551
838.6350414
829.7989686
818.5464528
810.0279807
799.3907157
791.481466
780.8982797
773.2856425
767.4429844
761.4512118
754.8754492
747.1983661
742.1601884
738.2732801
731.4538801
725.1241093
718.2097947
715.3200661
712.6175004
711.6307085
707.7703153
700.6919635
702.1752342
691.913386
691.1359888
685.86849
681.7240979
677.2649359
675.7855185
672.0211131
668.7575125
667.430116
669.1407193
666.9124277
659.609718
660.6775414
656.970626
657.430563
655.792795
652.0156616
646.4688653
647.1347458
645.2614205
641.6434537
639.8972612
640.0027127
638.5176935
634.5905574
632.4087749
636.1026809
634.0924461
631.2761893
630.7508871
629.5523033
629.167741
625.603964
622.9994695
622.9087266
618.1320828
619.4613861
621.730273
619.9872471
616.5038757
612.0750601
612.5527345
613.1046917
612.1961991
611.7663382
609.7169114
608.9429845
604.243665
607.3375266
606.7392659
606.6934051
605.6308171
604.7725443
602.026874
601.2923811
601.108656
602.583334
602.2637432
602.8503069
602.5360216
603.0211749
585.762879
631.7467172
699.1303149
727.0488722
743.2531909
761.3870844
775.7966727
789.3430914
795.7104023
802.4243393
807.3317616
811.3711331
808.8745982
811.0855911
807.2648738
804.3331113
798.2107859
795.3501467
789.5791423
789.3667995
787.0874443
779.6983503
774.2489691
770.3963365
765.9337563
757.2609665
754.1333006
750.6649638
746.0170532
743.2161272
740.4882936
736.3506652
735.2806105
731.8401106
727.3227019
724.0431364
722.111749
716.5892128
716.128702
709.8044158
703.3933716
702.8788048
700.236108
695.9818772
696.4626821
691.0813594
686.6376758
687.628792
686.5343718
684.2035218
680.854494
675.9301899
676.3959622
676.7261604
673.5587228
670.7461217
670.0614921
666.0268452
663.2660917
664.9013271
662.2962618
661.8792335
658.7445759
656.3338325
655.5253619
654.4464359
650.3139583
648.9732093
649.6375751
647.0400969
647.173186
646.9786723
646.5574199
643.7708404
643.055911
638.5479728
638.5590008
634.5036705
632.6970527
635.7059966
633.9172912
633.0784074
628.6476832
631.0563715
629.8404266
629.921476
627.5474341
624.8495591
621.8775547
620.8694129
617.5752536
617.1657701
616.3394655
611.5138302
598.2087582
561.5457631
514.0343663
581.0498049
623.2595112
645.127513
662.564435
677.3671271
691.2956805
700.1544862
714.7623903
723.5390814
733.4952233
740.3716992
745.588531
752.3705144
752.8543867
758.663299
762.1581
760.7363971
759.9485977
761.2137085
762.8366446
760.1474036
759.799807
757.2204848
756.5404563
752.7637794
750.7928769
749.868149
747.286558
745.38638
742.1338471
736.5531974
735.6604459
735.1642227
729.7950633
728.0897904
726.8287159
724.73411
721.5194329
720.141834
715.615748
714.6592217
706.7439804
706.0341072
704.4755054
702.9051014
703.4493961
699.7936131
694.7328337
695.2967963
692.6573781
692.1030094
690.5476413
691.7482874
684.8983075
682.9322148
683.6293179
682.5528139
681.6169753
678.2562568
676.1192257
677.2811792
677.7437924
674.5507718
672.0248466
668.4084247
665.6762806
663.7388358
661.2710466
666.5847857
664.7988178
660.9359581
660.6197578
655.5270832
655.8342108
652.3618188
650.4702277
650.3620832
649.4525165
648.0357939
646.0289421
647.7694152
648.6807099
645.5237252
646.0518026
639.9824116
635.1072279
635.5605613
629.6128628
628.6033762
626.4890671
620.6324512
611.5208421
596.2202162
554.9246397
442.6471107
493.821835
535.9151768
566.5580815
591.7829328
605.121569
617.7120542
627.1751754
642.6879363
649.2364225
661.0935794
668.0109693
679.5655383
684.1555827
690.9639559
699.6390648
706.5602996
712.0923678
715.8864625
716.8107894
719.9336941
723.5254011
724.8210738
724.4452497
728.6291333
730.8288362
730.3684378
731.2066951
731.1226275
728.8250017
729.9212391
729.5881774
728.465225
726.6456854
725.5134526
726.3833671
724.1455488
719.4352666
715.83358
716.1875449
715.207727
715.696722
709.9931215
709.8135408
709.0060167
709.985365
707.5162514
702.7945271
700.6917474
699.1882275
697.925962
696.5132141
698.4867223
698.1868149
693.7466169
692.8972759
691.7122745
691.7947108
689.8321396
687.9256008
684.0079039
685.660822
682.523947
683.8755898
682.7466192
680.8957471
677.8567316
674.9527719
672.8323845
671.9034423
672.7160973
673.0155052
667.7934208
667.9066211
664.1455038
664.5559853
662.0693205
663.492027
660.0446448
658.4536303
657.4074561
655.6727049
656.4521683
656.0805726
654.602295
646.4403994
644.8075913
642.7382955
641.7046505
638.351857
632.726404
620.9154256
612.9424104
592.0902854
552.1452732
396.7903235
432.2673513
467.9946557
500.7768646
526.093359
547.4874311
563.3429599
572.9702584
585.6943998
593.026825
603.6630501
609.3990727
617.7165559
628.0184434
635.1756885
639.0826168
649.3186591
658.4338598
664.3883516
668.1928065
673.3025096
677.3771133
680.1335947
685.2341066
690.4995715
695.8019935
695.5271141
699.7180899
700.9171365
701.3795739
702.9394831
705.1861895
705.6307325
704.1949197
707.5973286
708.3876005
704.6115487
706.0660618
708.6835616
706.3021517
703.5548186
707.1714967
707.0544339
708.0450392
704.9680187
702.8346802
704.5708228
702.804627
700.5446749
696.6088008
698.737773
696.6642302
696.4949976
694.7647036
693.9487241
696.3487756
695.3170435
693.3476563
696.0071491
691.7466515
690.3746044
689.5527665
687.2760743
691.7922433
689.5131688
684.159247
683.1235807
684.0390764
682.5709942
680.1424211
677.5681733
675.2136949
674.0420509
671.8643685
672.7782533
674.435973
672.1562406
668.1702488
664.992343
666.7648641
662.9699124
662.579987
661.9200358
660.3212229
657.5257399
654.5026985
652.1378421
647.964366
646.185987
637.3664991
629.5803281
623.4990791
606.7857775
586.5008914
552.753064
364.5382387
392.9600183
419.1181287
444.4043005
470.3385951
494.3214947
514.484161
528.8247734
538.2925233
550.3426379
556.5737874
563.2164242
569.7568846
577.7383339
584.959424
591.4828651
600.8727133
607.0226727
612.5917074
619.0758393
627.381685
631.9733194
637.639149
640.3956439
646.7940865
653.3708933
654.9187123
661.5075689
663.5649859
669.814764
671.8250234
672.9535441
674.4921395
677.3603744
683.5616197
684.343558
683.3086586
685.6177188
691.739531
688.1073118
688.1614151
688.3390585
689.0666093
690.7173458
689.7459105
689.2568147
693.4615795
691.548407
691.7270654
690.7606306
692.0045565
692.2936391
693.1054102
693.2488517
689.3639036
690.497396
687.8279225
691.1746976
687.3349761
689.9490896
691.7192664
690.6149709
683.5799601
685.8560047
687.4547227
682.8670767
683.6536949
683.7941727
680.8388059
681.422779
678.9550782
676.2043481
677.1666096
678.9286542
676.2945601
676.4851844
670.8435122
669.2455114
669.7376612
670.7329395
667.0361958
667.4031766
663.1160952
660.2268753
659.0025221
657.6533746
655.2949228
650.3568142
645.5084952
637.49144
631.3974658
624.1959436
607.22063
585.2942004
556.6637683
343.4926965
362.5293424
380.9451983
401.6911455
424.2164781
448.9919806
467.4373411
483.1501485
497.9016322
511.493223
522.0554045
529.4307955
535.9983657
544.3129056
548.7416817
554.9490582
560.737385
568.855274
574.3381792
579.5906568
583.7708942
589.637275
595.7709675
601.3184051
605.8435795
610.0720112
617.1898831
624.0565141
627.6479774
633.0634495
636.5920192
638.457961
642.6048271
646.8235196
653.320126
652.4744743
657.19719
659.6576304
663.2553424
663.6660524
667.6236047
666.5099161
670.4630533
670.9645674
673.3698929
673.176844
675.4125269
675.6914162
679.6419323
679.3225239
680.4304007
681.4123995
681.0342512
677.963067
679.7127225
680.7331669
679.9074141
679.7590366
679.7311448
682.4849274
680.7640865
680.107955
678.7483695
679.2330776
680.2085314
680.270134
679.7273232
677.4433854
679.0017515
676.8987038
676.9716036
673.7996379
674.1292231
677.0624408
674.8130735
674.0264746
672.5115079
670.5078915
670.7027921
668.7381691
664.4343503
666.5797228
663.3678395
660.9748416
660.8529045
657.1222386
656.0896531
652.3394194
648.2827303
640.3093801
633.3193444
623.24853
606.759725
587.6182933
557.1935642
330.8695291
343.0506751
356.931304
373.9195482
390.3352258
409.6779781
428.7628659
446.378761
462.382996
474.4324846
486.6911418
497.4086738
505.0127895
513.5068801
518.4384338
523.4560313
529.4115854
533.511731
540.2550958
544.371579
549.8140449
555.011112
559.4691218
564.5362478
572.9876485
575.6870244
582.1749619
588.8507849
594.2488999
599.6109636
602.0472185
605.919248
611.2906873
617.5843658
620.0657622
620.758068
627.14141
632.3542713
633.9559138
637.3183374
643.0525604
644.7544864
645.3430329
648.6009046
649.5700215
650.4696913
653.275732
654.3650377
658.5023562
659.3713963
659.8190011
660.5932051
662.8354912
663.1412552
665.0868199
665.397611
666.5991598
663.9751657
666.5781746
669.5998344
671.5880334
669.8678164
668.7955578
671.7635222
673.685861
669.9507798
669.8066573
673.3288335
673.3530563
672.0513962
670.347483
669.0666235
670.0212274
673.1299866
669.6387884
669.137749
669.8364431
670.406331
669.9670544
670.145829
668.3960238
668.4489519
660.8189662
659.8255431
657.5731737
654.359739
652.0628496
650.7684492
644.389843
641.3606886
627.7857997
618.7632842
607.3936803
584.4742927
556.4507879
322.3982645
331.1022488
339.379609
352.2192604
364.8137513
379.970592
397.4255568
411.7593602
428.1044841
440.2180026
455.1229953
466.0811514
477.7805856
487.0966955
491.8760973
498.6784189
503.9748133
509.9511987
513.9273656
518.5948221
521.6466008
527.4623122
532.3678476
535.0903078
541.3776953
547.2857895
552.4478262
557.0980381
561.4143479
565.9407855
568.4308569
572.2876427
578.6501721
583.3900582
588.3943535
592.1832943
596.387361
601.4133367
604.0640787
609.4776159
613.7650838
616.4544285
616.4503245
620.8738699
623.0512579
626.0515904
628.5667544
631.3229281
635.2426079
638.7809251
640.2441892
639.8401365
642.9522305
645.5749919
647.7894608
647.75677
651.0019412
651.0445329
652.3146547
654.0208381
655.8584068
658.5324249
659.1128625
659.3896744
662.0565603
660.8439785
661.7915038
664.0616924
661.546855
661.7449614
661.0604628
661.7308433
664.6434248
667.0925686
662.1288059
664.276324
665.0179017
666.0642921
665.5240123
665.5315517
662.5269037
660.7993075
656.1066972
656.1885609
655.5375838
650.7763318
648.8061891
645.0026079
640.4518743
635.6185789
625.20739
615.0366765
603.5310431
582.6843908
557.5474688
315.670418
321.7370628
328.2528702
335.261805
344.479808
356.0617345
370.3538284
384.1758773
395.7033113
410.7547829
422.2061272
433.4891501
449.196199
461.1225235
466.8006648
476.2049863
480.2860569
485.0918684
491.8588564
495.750002
499.6482324
504.847893
507.9262243
511.8271988
515.6871664
520.3600542
524.854838
527.7671508
533.1572623
537.8689259
541.1818177
546.3141299
550.3203212
554.502442
559.3123723
564.081021
568.7821897
573.078539
575.8453332
580.1497934
582.7753436
586.9373867
590.231378
594.6316541
596.6578814
600.5140502
602.698385
605.2546649
612.0114711
614.9837788
617.6653896
618.1359268
622.2658769
623.4254226
628.308491
627.7586064
632.4790504
635.0574777
637.4961256
640.5566295
641.6624221
642.5069904
643.534813
648.2165946
647.6853445
649.0127048
648.9652765
649.9897113
650.7495434
649.8653766
651.7974175
652.4296937
654.0835578
652.9071684
652.9790794
653.3695141
656.2015109
659.1250804
657.9030918
655.9804237
654.9240145
656.1475382
653.3599335
651.3503145
650.6236496
646.635609
643.4872584
639.5356948
631.9606583
628.2188837
619.2136784
612.9361192
600.4467877
582.9045347
558.3228165
310.493907
313.8220469
319.0730538
325.2839963
332.1398005
340.0986038
350.3850266
362.0983987
372.8216967
383.639999
393.7339994
406.7100172
417.7444207
432.3845871
441.6590106
450.701207
457.6345936
464.7846796
473.0557425
475.6227195
481.0679417
485.9966066
487.8587807
491.4446831
496.2232593
500.0408484
503.0393605
505.3331227
510.3708299
512.2610668
518.9010157
522.8718048
524.1854553
530.1287682
532.129421
536.9989346
540.8755583
545.6827268
551.4059638
553.6348329
556.0696956
560.8177713
564.6852924
569.9841822
573.5392562
577.1189102
580.6411925
585.1407532
588.494969
593.2054734
595.5061061
596.9267977
599.7940887
602.900168
604.6975169
606.8595473
611.8835187
614.4529879
618.0641158
619.8629909
621.2732426
623.298151
627.4698063
627.4628804
629.0065137
631.5386045
632.1369066
636.9625964
636.0234361
636.2739085
641.4508818
640.5448139
641.5024003
641.9379299
643.2415201
641.8916479
642.6844415
643.8733069
644.3884013
643.7038699
645.007084
646.3781194
645.3318591
643.096205
644.3654592
638.1096336
637.437109
633.4287815
628.6553718
622.1970686
615.5597749
609.0859544
595.8615251
577.6508791
557.3732984
306.191682
309.2730523
313.0394864
318.379599
323.8448591
331.0007775
335.0605016
343.8672485
353.1202273
361.8461766
371.6857952
382.5997258
394.1758789
406.5178631
416.0128916
425.0861879
434.9099114
443.3280467
450.9075958
457.3597974
463.2452822
467.9171826
472.1312382
474.9888445
480.5067675
482.9722605
486.3978452
486.9020986
490.0440958
493.2169688
496.9074594
500.2959482
502.1821311
507.3639026
510.3769119
513.8775243
517.581074
522.0755392
525.9673938
531.3925068
531.1586539
536.1256791
541.4694888
547.1596613
548.8021347
552.5799273
556.6705579
559.3378713
561.8771029
564.339358
570.218344
574.2939378
577.0359238
582.7035151
584.9692576
584.6043016
590.5930215
594.0101164
597.7949555
599.2254147
600.8961047
602.7482483
605.1068256
608.567321
613.9618434
616.8614836
616.8605839
619.271847
620.1842594
620.7657339
622.9265441
626.8794242
627.4934196
628.1521567
630.0982915
631.6704203
632.7232531
631.9595124
632.2973741
634.1795777
633.8307998
635.609202
633.4639645
630.3536591
627.8218433
626.6860015
626.3545624
624.1346412
623.0511034
614.3877462
606.8856655
599.759051
589.0805504
576.6575912
556.4160097
304.4587329
307.170523
308.3254213
312.2829777
316.4107903
320.0215357
325.4313642
331.8860465
336.9448868
345.8954278
352.5526041
361.8479993
371.3232008
382.1693629
393.5008056
402.7342521
411.3398263
421.796813
430.0932784
437.9953873
443.585611
449.5725272
454.3927439
458.8887612
461.2633937
466.2120437
469.7630386
473.0115491
474.9170961
476.4548709
479.8743631
482.4628558
484.8086097
487.6606079
489.7727961
493.6314324
498.2083648
500.1577305
504.1103108
507.3331783
510.9572218
513.8503086
518.2529106
523.6310941
525.9035838
530.117366
535.5153216
538.0747348
539.892418
544.2693901
546.7669033
549.428217
554.0409581
557.6760597
564.1929452
566.1176648
569.9026709
572.1818365
575.6558058
578.4757266
579.6348816
581.874818
585.6459992
589.3700897
594.5620189
599.1383777
600.3907091
602.0246649
603.6793049
606.5875989
609.0902243
610.9515249
612.3660367
611.5006604
615.1730166
616.7206123
621.2272162
621.1662095
620.2499938
620.8612088
620.0571189
622.0540922
621.8407998
619.4760589
618.3195074
615.4730896
613.1544384
610.8117754
611.6176454
604.3526136
599.8997447
593.7854054
586.7545885
573.8312226
556.6996853
304.0274116
305.37794
305.7852637
307.101485
310.014194
312.9201909
317.2996013
322.9350251
327.3109551
331.7031602
338.837111
345.8374646
353.5556628
361.5285301
371.5921112
379.7312205
390.049854
397.6709523
408.1352428
416.5409
423.6699633
429.2598393
436.8334192
441.3092016
446.6232625
450.8254151
455.6281179
459.7963455
462.8548171
463.9843877
465.8429593
468.1518253
469.9690087
473.4914365
474.782539
476.7309276
480.1260027
483.2522615
486.1936048
489.5174266
491.2973408
494.2464843
498.5273152
502.9487054
505.6982828
508.6538111
510.5213633
516.7883362
519.8500055
522.5132177
525.7917989
529.3494318
532.6758687
535.9254067
539.2111657
542.2288461
549.6983135
552.6648313
556.3692032
560.1456235
561.9897052
563.1173664
568.2740142
570.9747864
572.754061
577.1214083
578.7055153
582.3159896
585.9784267
587.480009
589.5957078
591.1966865
592.5377151
595.2541405
598.1826429
600.2358529
603.8131619
603.6662744
603.8008015
604.3499546
607.2871825
607.1649672
605.7741135
606.4668647
606.2347358
605.2850304
603.3339296
603.7395615
600.2000316
595.1250509
592.459938
584.1027642
577.3609966
565.6355297
552.5277054
301.8921498
302.2432571
303.1354079
304.8453351
305.6757503
307.7645476
311.6313958
313.6911752
317.9214732
324.2082677
328.3378935
332.7222412
339.5149508
346.4276229
352.8775093
361.4682764
369.8744763
378.5194481
385.3228039
395.0830408
404.2032112
411.8095447
420.3727433
425.4441852
431.0990179
436.6127159
440.8379537
444.9745826
448.2888202
452.7402416
455.16178
458.0125657
458.9971835
461.5576947
463.6147932
463.8646631
467.0091793
467.6922242
470.6409175
472.3827562
475.859222
478.1805128
480.3456378
484.1407494
487.2279661
489.8862401
492.4372069
494.3471332
499.012996
503.2762869
505.5404828
510.140661
512.5054266
516.654734
518.79726
521.1760827
527.2265145
529.0584831
533.8686111
536.5746683
539.5843717
543.427751
547.7994363
550.3061172
551.6127088
556.9231772
561.2884833
562.916148
566.7436957
567.8374829
569.5888281
573.8771668
574.327268
574.4996671
579.0332759
582.8456119
583.6169995
584.9279937
586.7436214
589.6375051
591.7664217
592.3233196
594.5121349
594.1439538
592.7761397
591.9506034
589.8162137
590.2632533
588.3439544
588.26242
581.3067573
576.0096113
569.5594439
560.0134205
545.4650878
300.5982933
301.3468142
302.2920615
304.1528709
306.3286915
307.1272001
308.1839895
312.0170897
313.8312956
315.8956284
319.5093559
323.4063351
327.2742158
333.235769
338.4755337
345.3167495
352.0656133
360.9514694
369.8774492
376.5842873
384.5969666
392.6064033
401.0828912
408.5898451
414.6910906
420.1824531
425.1583681
429.6554385
435.5844186
438.3697047
440.7085099
444.7653837
446.2900718
449.2347565
452.3218069
453.6458471
455.7660549
456.8997921
459.4288794
461.6926742
464.4333562
465.719237
467.8655832
470.4164386
472.6079621
474.8875886
477.5924246
480.9127089
483.2562328
486.6725182
487.8332215
489.8272937
494.626699
497.6045629
501.9169868
504.8569146
508.2311802
510.5576948
514.9240305
516.8847791
519.8187493
524.4710956
525.9236454
530.1532014
534.1542197
536.1708511
539.6890994
544.4521832
545.5917377
548.704741
551.2374662
555.0942463
557.7575712
559.4104292
561.2938545
563.5395221
564.938985
567.7148027
569.4662987
572.1481033
574.5837869
577.0140791
578.0825146
580.1077212
578.8176703
579.5905947
579.9974001
578.4538749
577.6212523
576.4054758
571.6496429
566.716579
562.2550137
555.006467
539.165201
300.3561655
300.4522988
301.436036
301.8762965
302.5627374
304.273091
305.6473154
306.9289108
308.5054187
312.5338838
313.110387
316.5809524
320.4899569
325.0956505
328.8034432
334.3301046
339.6277072
345.932425
351.1328493
357.5043476
365.4630469
371.9413597
379.9376617
387.3411867
396.1730879
403.2564029
410.6187772
415.6756735
420.8182947
425.9709749
429.3259019
433.083308
436.8122628
437.4933586
439.5144399
442.7470896
444.9412985
446.1211084
448.435759
450.604809
452.2693313
454.9486262
455.3207781
457.4496216
459.6159405
460.8880795
463.6343188
465.0473805
468.2387473
470.6037411
471.4745609
473.2190959
476.1396569
479.6518899
483.4750243
487.0241164
490.5091079
493.5700858
497.3936254
500.1635111
502.0350763
506.4686736
508.7590318
512.2560291
514.908806
517.6899673
520.441495
522.3435535
527.1619211
531.0800994
534.5828095
537.1529777
540.1490636
542.7249577
543.5075533
544.4267223
546.5057618
550.4860075
554.9430085
555.3854204
558.0475016
560.3917236
563.4358669
563.8664212
563.761564
566.2300914
564.4109451
562.6922428
563.5993557
561.6770573
560.8122383
555.884018
551.1361431
544.2167487
534.4208296
300.8497199
301.4545054
300.5673761
301.5260905
301.471976
302.9307801
304.1131995
304.3397074
307.0538986
308.459467
310.2300711
311.5753265
314.0363033
316.7258285
319.6419536
324.3210851
327.433155
333.3153649
338.3705129
344.0728436
350.7044966
358.1787968
364.5295771
369.721481
377.8942588
383.5759774
391.9234816
398.4030368
404.178167
409.9778915
415.1572701
420.3647238
423.603352
427.071136
429.8828188
432.6184173
435.0701936
436.0056799
438.0711412
439.9033539
441.0133862
442.8685432
444.6452632
446.4799833
448.6423679
448.5939333
450.2677705
452.8841835
454.7488751
458.0656477
459.8897858
462.3873466
463.5959156
465.2913882
467.514031
471.4054007
474.3464043
477.5335962
479.6869221
483.8668479
484.8075214
488.7954088
491.011592
492.4381615
497.2426638
500.5759713
503.6685768
507.4559545
511.2557646
513.473016
515.3593554
519.9136828
523.1744231
524.8143387
526.8132856
530.269655
533.9487878
535.4416487
539.0881289
540.5770894
539.1613123
545.1343573
546.4473161
546.7817708
549.0168248
548.2358196
549.063673
548.4197246
546.8134825
548.5190273
547.2072558
545.1250862
542.0965607
537.0059788
527.7989479
299.3939879
299.833082
301.0674227
301.6476723
301.5247544
301.3770832
303.7864776
303.1944947
304.5029675
304.0508858
306.1695667
307.9820696
310.2817535
313.151302
313.9967954
316.4100119
320.2604828
323.986404
328.552451
332.4011609
337.4513242
343.1669661
349.4895381
355.9683294
360.8653532
369.1286147
375.896777
381.4954442
388.5471434
396.1018406
400.9321853
406.2869645
411.8370062
416.363396
418.5994546
422.5385525
424.6220501
426.8401768
429.6875532
431.5883858
432.8949844
434.0243238
434.6914511
437.0666599
438.2345549
440.5117003
441.2269688
442.3111325
444.5429468
445.8145134
446.949532
449.545368
451.0458354
452.8591233
454.8437505
457.4245015
459.7646761
461.6681374
465.4725253
468.4754024
472.6084324
473.5836571
477.2283988
479.1284098
481.7986275
485.1667603
487.2617401
489.8863095
493.2623218
494.8017079
499.3038025
502.4525378
504.9005965
508.3861893
511.1457858
514.2575412
516.11224
518.7434147
521.6190457
523.5325708
527.4001255
527.0971797
529.4547262
532.1647343
533.5483693
535.5857651
535.6227837
536.5542868
535.8214547
536.7812389
535.6333013
533.0110759
530.4006245
525.3069546
518.4819025
300.491604
300.6259451
300.3220967
300.2269539
300.3310929
302.137126
302.26783
302.962154
303.7462834
304.4784027
304.4148702
305.2674355
306.5759373
307.3842695
310.1940807
311.4633296
314.8273575
317.9173126
321.8257568
323.5719896
328.0122212
333.0741985
337.39821
342.5735505
347.3114103
353.2330064
361.0935587
366.8972848
372.4571654
379.0473074
384.3764107
391.4024822
397.4677893
402.8956948
408.9029859
410.5440027
415.1706323
418.2809076
420.6737379
423.297503
424.8500071
426.517586
428.7339003
429.9755855
430.7199237
432.7207707
433.6036155
433.5304478
435.2884953
438.1775156
439.6752622
439.5627397
441.063044
442.5867209
445.3279184
444.742884
446.8758993
448.8931136
452.9641205
455.5690127
456.0510204
460.7186428
463.3152687
465.6055599
467.188273
470.2084799
472.4413698
475.5873927
477.7490457
480.1598699
484.6824322
486.5627213
489.7248972
491.8805783
493.6557058
497.0825017
500.5952119
502.2777138
504.23549
507.1015537
509.7953493
511.7896374
512.5359838
515.7766284
516.5334684
519.2042995
522.0831811
521.3920735
520.7537771
522.5341702
520.6022747
520.0669726
519.0345356
515.6822581
511.1607092
299.4500167
299.6183293
300.6542546
300.2301746
300.4122588
300.5762592
301.0682137
302.3622923
302.6506564
303.8202432
303.6070251
303.4360443
303.7744748
306.1347638
307.304127
309.1961658
310.3656354
312.3762459
314.5331624
316.6396232
318.7596892
322.9816529
326.5745808
329.9227132
334.9372066
339.751002
344.9211014
351.4671196
357.3883156
362.5325434
369.9258861
375.7084437
381.386412
387.8531301
393.3309192
398.9683934
402.6042275
407.225157
411.1012528
414.1172393
417.7650124
419.6009667
421.1003485
422.9451098
425.8474128
426.0380608
427.343815
428.9209144
428.9035608
430.0617882
431.8271815
432.9859344
434.212997
434.8285427
435.8525882
436.6096702
437.9677129
438.733823
442.2147114
444.326622
445.9752823
447.5565383
450.024261
453.2193481
454.5042313
456.170719
457.7371348
459.537452
463.1286884
466.4679606
468.6471611
472.1263332
475.3819214
477.8489625
478.3573356
481.6512674
483.8229958
486.0843393
488.4700129
491.132772
493.6382571
494.410124
496.2639789
498.9195751
502.2017621
503.803282
507.0456235
507.9404582
507.7024578
509.0940766
508.7734009
507.1473331
506.9757714
505.471495
500.7043823
298.2652022
298.7485881
298.9925316
299.5969549
299.7852488
300.1473117
300.3399467
299.6486925
299.8687378
300.3479339
301.0959764
303.15656
303.1392914
303.8216658
304.6663694
305.7679464
307.0874149
308.6696972
309.651061
312.5003539
314.1939342
316.7537607
318.9714493
322.4292603
325.0864089
329.5676275
335.6437052
338.5129018
344.2159908
350.45592
355.5051555
360.2429633
366.6373939
373.8926889
379.5969163
385.1180325
390.6184475
395.3706492
399.5693301
403.7999588
407.4644538
410.7441666
414.2376615
416.1371913
417.006182
419.1431352
421.2280873
421.8207578
422.3261023
423.762714
425.2976031
424.233754
425.4467703
426.1423464
427.4887314
428.6492127
430.8998241
431.4577733
432.9266341
435.1855311
436.2348161
437.5161865
439.2519073
440.9491253
442.1629202
443.2322727
446.7218812
447.8475344
450.7685085
452.3841298
454.3203647
456.8802089
459.9216462
463.9434907
463.9249622
468.1826538
469.2893123
471.3911094
474.1922461
477.2343509
478.9748306
481.4280527
484.0477209
485.5678537
487.0638579
490.2150795
492.44524
494.4240375
494.6282959
495.4239211
494.5704272
494.5427665
494.8961468
493.1870767
491.4335688
300.2223142
300.2816112
299.3298038
300.4833238
300.1592278
299.7895007
300.2978322
301.0243516
301.3827257
302.2481026
301.9727329
301.3321657
303.0270625
303.617698
303.9574708
304.5930835
304.7573301
306.3133168
307.2409178
308.9896378
310.3663122
311.5147798
313.9153494
317.2674482
319.4720209
322.4355704
325.1182107
329.646571
332.541051
337.2966051
342.8495748
348.0737062
352.9459287
358.0946165
364.3096259
370.0918563
376.0588099
382.0637496
387.8464427
391.3492301
395.8303446
399.3065606
403.441924
407.1604494
409.3818001
412.0361353
413.2195982
415.3666941
416.6760478
417.8561277
418.3364011
420.1309467
420.79676
421.7862455
422.4080561
422.9528733
423.5641673
424.2180556
424.4343973
426.2514846
428.1067668
429.4078832