/*--------------------------------*- C++ -*----------------------------------*\
| =========                 |                                                 |
| \\      /  F ield         | OpenFOAM: The Open Source CFD Toolbox           |
|  \\    /   O peration     | Version:  v1706                                 |
|   \\  /    A nd           | Web:      www.OpenFOAM.com                      |
|    \\/     M anipulation  |                                                 |
\*---------------------------------------------------------------------------*/
FoamFile
{
    version     2.0;
    format      ascii;
    class       volVectorField;
    location    "0.04";
    object      UMean_N2cold;
}
// * * * * * * * * * * * * * * * * * * * * * * * * * * * * * * * * * * * * * //

dimensions      [0 1 -1 0 0 0 0];


internalField   nonuniform List<vector> 
6000
(
(1413.104261 -0.02299102699 0.4618721892)
(1410.195149 -0.6090626319 0.9429279825)
(1404.197179 -2.516621094 0.1044931038)
(1382.06756 -3.113173266 0.3369385876)
(1286.726817 6.676507893 -1.09328397)
(1412.395913 0.01767480675 0.2061252574)
(1408.590104 -0.6475570188 0.06137156056)
(1398.364106 -0.3314304865 0.0373797045)
(1370.536628 2.899584428 -0.05869723338)
(1304.186746 18.36296265 0.2357437408)
(1411.295537 0.06733255806 0.3810859297)
(1409.004895 0.5789277578 0.1207237096)
(1399.708209 1.533860665 0.7664907933)
(1378.97693 5.925565304 -0.8412175308)
(1339.263052 17.85818259 -0.5878482836)
(1411.670763 -0.4152536843 -0.03399050572)
(1407.80859 0.4397269625 -0.1992271638)
(1399.96712 2.519814719 -0.02663371745)
(1385.273652 6.576072813 0.215768644)
(1362.790508 15.92188561 0.5315685383)
(1410.754441 -1.034262644 -0.2571317901)
(1410.175756 -0.3623882372 0.5592317439)
(1404.854069 2.668810565 -0.4972780772)
(1395.082907 6.278921203 1.259605885)
(1380.51021 12.73391654 1.161465193)
(1411.93279 0.6717751421 0.05605377867)
(1409.975193 0.7021195724 0.2310963399)
(1405.311642 0.9866044001 -0.1798332178)
(1398.387065 4.70453304 0.08900220151)
(1388.488853 9.365160955 0.6537011172)
(1411.893624 0.3748291361 -0.1449872025)
(1409.714683 1.462707288 -0.02436260252)
(1407.069947 2.549931198 -0.3318333042)
(1402.079831 3.690384661 -0.01988704914)
(1395.785064 6.954985438 0.7938961393)
(1410.674986 0.6636361331 -0.5181881046)
(1410.866135 1.060356324 0.4627213067)
(1408.681247 1.767075948 -0.2384166179)
(1405.327134 4.044105513 -0.01764828838)
(1400.719646 5.289761201 0.6162535432)
(1412.833586 0.2066769477 0.216689758)
(1412.030922 0.3471200249 -0.906036839)
(1410.284948 1.2841335 -0.3265314143)
(1408.509674 1.549174097 -0.09909353705)
(1405.624386 4.752973679 0.2212409967)
(1412.889077 -0.8556415217 -0.0958701029)
(1411.481944 0.816502732 -0.6740008823)
(1410.686245 0.6051006644 -0.5456123144)
(1409.313784 1.671567356 1.255118898)
(1407.374952 2.701259793 -0.9807543791)
(1412.593413 0.1937529699 -0.06214015165)
(1412.504391 -0.08603274425 -0.2687850274)
(1411.864514 0.8838702743 0.1654244512)
(1410.852637 1.353992607 -0.4152999632)
(1408.966388 1.967243505 0.4677232744)
(1411.282985 0.2509452307 -0.8088032462)
(1410.825487 -0.8668520967 -0.4837063128)
(1410.76386 -0.92799791 0.0341642189)
(1410.091538 -0.3936748011 -0.02936917258)
(1408.963356 0.375529381 -0.03864527433)
(1411.534316 -1.115005535 0.3244035253)
(1411.194745 -0.3371681144 0.07283064405)
(1410.140476 0.7406213137 -0.1712334399)
(1410.363686 0.4235939923 0.4853275245)
(1409.821571 -0.3256233617 0.224370312)
(1411.124344 -0.5741358603 0.7264575072)
(1411.496578 -0.633470317 0.5630202431)
(1411.18502 0.3506609668 -0.5913338208)
(1410.971713 0.9340374157 -0.4499886333)
(1410.44028 1.84163901 -0.6359394812)
(1412.862143 1.045064633 0.5992834015)
(1412.522466 1.003898164 -0.1485255218)
(1411.919273 -0.4729642294 -0.03110423124)
(1411.339984 -0.603411778 -0.3781449868)
(1411.171932 0.2109599915 0.958133803)
(1411.895081 -0.3753850381 -0.01955196274)
(1411.926888 0.1721523537 -0.1021700725)
(1412.869908 0.5389692835 0.4128484093)
(1412.644855 1.425066305 -0.332175939)
(1412.585842 1.368654835 0.5201562464)
(1412.778417 -0.2649161183 0.30974317)
(1412.99185 0.2732024032 0.3499210508)
(1412.414224 0.6621802144 -0.1986347246)
(1412.305443 0.643034649 -0.7595062742)
(1412.400195 0.4101237918 -0.4692165078)
(1413.357163 -0.158631641 -0.3927455689)
(1412.93528 0.2246523019 -0.4535942141)
(1412.444561 -0.2982796016 0.8166494064)
(1412.503919 -0.2320884036 -0.964620595)
(1412.209935 0.3442722945 -0.5265589312)
(1413.650214 -0.1821898351 0.5366652541)
(1414.262062 -0.3378792242 0.585133292)
(1413.974254 -0.818748723 0.6684497246)
(1413.556942 -0.4563359206 -1.90613002)
(1413.328851 -0.6434691916 0.127310955)
(1413.05124 -0.4547908142 -0.01575383303)
(1411.676943 0.01173584602 -0.01123489734)
(1412.707704 -0.3271833827 -0.1051057918)
(1412.711916 0.454884786 -0.1548715575)
(1413.188104 1.081376923 -0.5618339436)
(1412.684295 -0.1553609512 0.05278061422)
(1412.911286 -0.2142773099 0.2594497413)
(1413.530113 0.1852994582 -0.5203271137)
(1413.542354 0.1301959685 -0.8951950922)
(1412.610154 -0.3094658176 -0.7045897779)
(1412.649617 -1.465446984 0.03055421082)
(1413.431398 -1.239152713 0.4273479252)
(1413.261477 -0.5471216135 0.1223932453)
(1412.70128 -1.306143229 0.8267202485)
(1412.814493 -0.3527871928 -0.1511606141)
(1412.869814 0.6894947325 -0.396944565)
(1412.558703 -0.2088323604 -0.3900036644)
(1413.310783 -1.011241067 0.1084296191)
(1412.799525 -1.373330007 -0.929020072)
(1413.154235 0.02073494664 0.1756573823)
(1412.702621 0.6367860055 -0.1805491335)
(1412.360513 0.8363370431 -0.2868704997)
(1412.094913 0.7198648934 -0.3629974944)
(1412.539675 0.5224299873 0.2530832133)
(1412.221641 0.1070553326 0.8814774178)
(1412.954742 0.06193230583 0.9799715178)
(1413.1111 -0.03104119894 0.09161595979)
(1412.452185 0.6741447173 -0.4692538344)
(1411.978155 1.150968847 0.3463577815)
(1411.590288 0.3345144085 -0.3251262295)
(1411.840352 0.2261505492 -0.2440587131)
(1411.586734 0.7763494806 0.3831405602)
(1411.989768 -0.5519481654 0.2712571909)
(1411.708454 -0.4791105681 -0.7811508265)
(1412.258588 -0.6422687227 -0.08354957949)
(1412.909003 -1.133906653 0.2874301406)
(1412.915215 -1.347612036 -0.205263102)
(1412.651455 -0.1171665806 -0.190675014)
(1412.606275 -0.04345624898 -0.3302399737)
(1412.36912 0.05828794425 -1.228560116)
(1412.697257 -0.6359948145 0.4302091055)
(1412.558824 -0.8861554322 0.1054560718)
(1412.945579 -1.203579539 0.1175558978)
(1412.347429 -0.3825032078 0.1077053542)
(1412.67554 0.6372953952 0.4111874673)
(1412.161763 0.05672284148 0.1328226915)
(1412.507339 -0.3600410737 -1.284058868)
(1413.060842 -0.5884843028 -0.6951219806)
(1412.77086 -1.268711228 0.1277580372)
(1412.477471 -1.187752897 0.2849605244)
(1412.326042 0.4367678652 0.02318148716)
(1412.426725 0.6116854009 0.4554756554)
(1413.030961 0.2217703826 -0.2513628304)
(1413.010545 0.3969716212 0.130878571)
(1412.566769 0.3179699333 0.5780611205)
(1412.68714 0.2694050965 0.5902972381)
(1413.037345 0.5296166199 0.3495193564)
(1412.944807 1.046697724 -0.5009185528)
(1412.931178 0.3057010744 -0.5836203893)
(1413.491214 -0.06292414614 0.004277320695)
(1413.444473 0.3182355818 0.2095845554)
(1413.484934 0.552959025 -0.6343876551)
(1412.958878 -0.09361860729 0.1591207558)
(1412.742572 0.187065442 -0.1073252571)
(1412.582317 0.7184208542 0.2421391475)
(1412.787196 -0.5137459736 -0.0329307519)
(1412.187938 -0.1560546048 0.07052348372)
(1412.263455 0.6654733576 -0.4095334397)
(1412.208207 0.5172749864 0.4944694291)
(1411.894336 -0.03177952521 0.7402770753)
(1412.870651 0.2150018513 0.6565493131)
(1412.728173 0.04108143343 0.3989445006)
(1412.461961 -0.5799251636 0.7259341067)
(1412.329141 -0.5397349529 -0.3692282478)
(1412.549175 0.2263246521 0.3965018968)
(1412.389869 -0.6386544844 0.06066332611)
(1412.977087 -0.6293097799 0.2487597439)
(1412.326689 -0.09507672716 0.3666626381)
(1412.426927 0.3770710021 -0.4299061067)
(1412.014266 0.5879178203 0.7091240249)
(1412.97659 -0.2469731502 -0.1231810246)
(1412.103314 -0.598178706 0.4766037876)
(1411.64298 0.2572938984 0.6742949435)
(1412.529456 0.1237169415 0.09185583376)
(1412.231281 0.161685615 0.03724975707)
(1411.751443 0.5682964732 -0.008339965936)
(1412.091644 0.5358458205 0.0554433915)
(1412.89495 0.2218120032 -0.2245321646)
(1412.914135 -0.6704188479 -0.3802390932)
(1412.85266 -0.691115701 -0.7643528288)
(1411.606587 0.4964712066 0.002156219891)
(1412.207044 -0.5126980174 0.4075120584)
(1412.051183 -0.2741689986 -0.05819635651)
(1411.484152 -0.3510462749 -0.9233291121)
(1411.598677 -0.7614430469 0.8987482048)
(1412.132052 -0.7285400632 -0.3736859128)
(1412.19987 0.175722959 -0.02099743665)
(1411.840235 0.5364958309 -0.03030663228)
(1412.444794 0.7871801274 -0.7036132726)
(1412.703559 0.7400403249 0.09720502265)
(1412.656485 -0.9962579736 -0.1774696472)
(1413.007216 -1.186441977 0.6635662512)
(1412.683775 -0.4868762536 -0.06427119707)
(1412.700806 0.1684139582 0.02054277911)
(1412.131348 0.1558542231 0.01178012116)
(1411.518622 0.7442458878 0.006316580497)
(1411.94258 0.5435760866 -0.6693930913)
(1412.479427 -0.3030786592 -0.6649052223)
(1412.277061 -0.8132835332 -0.4405237962)
(1411.958975 -1.117094394 0.2945366077)
(1413.013241 0.1412193148 0.1474226755)
(1412.542042 0.1824680923 -0.1858017438)
(1412.180316 0.07126203694 0.4043370761)
(1412.621183 0.4658797568 0.4329814906)
(1413.338025 0.4555413972 0.2943440437)
(1413.986999 -0.3385287772 0.03552253537)
(1414.196874 -0.2283473039 -0.4418797556)
(1413.407672 0.3938457478 -0.2449629817)
(1413.515566 0.7252723122 0.2691496142)
(1412.918936 0.8830048955 -0.4236153169)
(1412.061027 0.3966725033 -0.4115681925)
(1412.858801 0.4958493907 -0.1333223151)
(1412.905475 -0.4292864609 0.3202961022)
(1412.73597 -0.4244264076 0.3049593314)
(1412.975789 -0.3086512936 0.1883317984)
(1412.384956 -0.3268449811 -0.4680291318)
(1411.764549 -0.04777197009 -0.1680861657)
(1412.619064 0.5195803409 -0.1595689304)
(1412.81941 0.4994433968 0.0854395192)
(1413.113962 0.9717322284 -0.02341091819)
(1413.737337 -0.09800921189 -0.2865762044)
(1413.714137 0.2295848824 0.4330846898)
(1414.21686 0.2132639122 0.6638795675)
(1413.986447 -0.1536917283 0.2840262323)
(1413.283378 0.008071691288 -0.1488555704)
(1412.972831 0.952550146 -0.0318555543)
(1413.352242 0.2508186862 -0.3656385538)
(1412.252321 0.171220982 -0.02963467573)
(1412.907637 0.03232138784 -0.329405218)
(1412.877087 -0.4387545877 0.4067800345)
(1412.16934 0.1447511104 0.5036720963)
(1412.365405 -0.269569053 0.1803023287)
(1412.674957 -0.4236685173 -0.2819048321)
(1412.684368 -0.6195401732 -0.3575375216)
(1413.156303 0.02059927741 0.01215935274)
(1412.333872 0.0476279666 0.3692862318)
(1412.867371 0.67645257 0.0902662517)
(1411.956197 0.6819417142 0.5085351758)
(1412.672797 0.1981092501 -0.5043799196)
(1412.477802 -0.118200408 0.01102523772)
(1413.091403 0.2427518371 -0.0955322506)
(1412.795876 -0.4914882813 0.008368998688)
(1413.065947 0.05620981765 -0.4090051022)
(1412.667475 0.7199807827 -0.04776053423)
(1412.732317 1.195642085 0.9404776193)
(1412.346939 0.7391519343 -0.2013705826)
(1412.959077 0.5809894846 -0.6908514139)
(1412.715985 0.4761251672 -0.2934670811)
(1412.612999 -0.3705012537 0.5042123426)
(1412.309987 -0.0584881528 -0.7470609853)
(1412.213984 0.2840959689 -0.4499555736)
(1412.598192 0.2746115607 0.04655133768)
(1412.178831 0.3831185987 -0.6098279252)
(1412.646658 0.1061305058 -0.6246315358)
(1412.694107 -0.1393963869 0.8153108047)
(1413.16396 -0.2412519499 0.1636572188)
(1412.43166 -0.0886374097 -0.1737151104)
(1412.440431 -0.1383251763 -0.05086102523)
(1412.329482 -0.2609627598 0.507211497)
(1412.385924 -0.3452463743 -1.018925464)
(1413.529637 -0.8909800302 0.02752951298)
(1412.82009 -0.5162640249 0.3289464142)
(1412.88575 -0.01328279035 -0.5063692204)
(1412.692799 -0.01775316042 -0.5502378108)
(1412.859459 0.4851571366 0.1762707299)
(1412.802684 -0.308034581 -0.3600451755)
(1413.825047 -0.6722499387 0.3430023478)
(1413.960697 -0.798969045 0.4429233626)
(1414.03148 -1.404360603 -0.0319318572)
(1413.796267 -1.016136975 -0.0643973424)
(1412.018416 0.09541242612 -0.03372358793)
(1412.075707 -0.3208577232 -0.604160989)
(1412.011568 -0.06616669184 -0.1541062313)
(1411.932689 0.05676915578 -0.1969283529)
(1412.299011 -0.1006540441 -0.08406390745)
(1412.487859 -0.327718596 0.4406940806)
(1412.225672 -0.2805612722 0.7169691932)
(1411.939313 -0.3936386541 0.2071722505)
(1411.681544 -0.3076127969 -0.5502906595)
(1411.69032 -0.3710870091 0.03348116208)
(1412.512357 0.1918017613 -0.1499170876)
(1412.826902 -0.6140111125 0.04869099726)
(1412.835511 -0.633947101 -0.589761948)
(1412.811662 -0.7475095238 0.9519715403)
(1412.998279 -0.6230978962 0.7932894211)
(1412.269221 -0.5090052383 -0.50181441)
(1412.139182 -0.8507339041 -0.04348560993)
(1412.367905 -0.7431221347 -0.3523731791)
(1412.081277 -0.4950935793 -0.1108549385)
(1412.105364 -0.1386459284 -0.3171235138)
(1411.777368 -1.059363388 -0.1539182524)
(1412.001191 -0.2174741108 0.4515690849)
(1412.091166 0.01292517855 0.8047560173)
(1412.330381 -0.2335345721 -0.0650453937)
(1412.505552 -1.186395794 -0.4706259755)
(1024.611604 59.76214379 -0.3501596777)
(910.6077152 55.33009065 -0.3967380568)
(834.097192 42.59865736 0.797294695)
(769.2401886 31.81589759 -0.08698696732)
(717.7253017 24.93453758 0.863027664)
(672.7177325 20.68438418 -0.5653801016)
(635.4578775 16.22023701 -0.9377015952)
(601.3445533 15.35278375 0.04856649019)
(573.594143 12.45416929 0.813164369)
(547.3731677 11.27532088 0.5312805916)
(522.976695 11.60652408 -0.4190198183)
(505.8071632 8.224124911 -0.7369136193)
(486.7946181 7.449055025 -0.8729793828)
(466.1962742 8.072306208 0.3577605145)
(448.6667553 7.824319947 0.09901461291)
(434.4346701 6.949027396 0.2858878864)
(421.4580199 6.689795842 -0.9631311921)
(410.2133589 5.414412677 -0.05387152099)
(398.5972663 4.997752053 -1.620929583)
(389.9893551 4.487786356 0.1405709763)
(374.6349379 5.403304466 0.2869640998)
(366.289585 4.056803381 -0.5363758042)
(359.6686409 3.827588162 -0.3366034828)
(352.2450849 5.172791494 1.016423828)
(343.5139526 3.80702681 0.5296065573)
(334.512161 2.403797085 0.8988660103)
(326.4058786 4.639681915 -0.6888133825)
(320.5955526 2.010221606 -0.3382477319)
(314.3635372 2.74765826 -0.223279785)
(308.686194 4.134877055 0.6139099466)
(303.3820985 1.759176594 -0.1738043778)
(295.3991576 2.248910931 0.5211614981)
(292.1649127 2.247196822 0.7668414834)
(286.4098032 2.608299879 0.5817681083)
(282.1047482 1.566779218 1.371660012)
(275.1826918 2.332718843 0.7694247124)
(270.5482848 2.325037246 -0.3906818613)
(265.822038 2.250103413 -1.255415932)
(264.9419723 1.739352832 -0.5963136165)
(260.448112 2.012904314 -0.4322449228)
(254.3525793 0.9219758028 -0.4962634386)
(252.6032651 2.3485007 0.2382746276)
(250.9470598 1.262919535 0.7070785237)
(246.7726132 1.158838589 -0.7186207502)
(242.3877375 0.9785205315 1.080506185)
(240.5257776 1.428625771 0.6420777623)
(238.5566188 0.7086793984 -1.700935151)
(236.3233721 1.824620521 -0.178979867)
(232.1865194 1.410051374 0.2186416589)
(230.4813623 1.073610424 1.492016796)
(229.2146915 0.04200602725 0.1845300632)
(226.0304644 1.387532258 -1.287137664)
(223.2006019 1.259853339 -0.1802665087)
(221.2176821 1.394454495 0.8423078223)
(218.0560925 -0.4300236381 -0.4070604758)
(215.6764965 0.5903849109 0.1553593187)
(213.4833944 2.07492264 -0.2305762049)
(211.5270044 -0.5269463536 0.5700237532)
(210.3911799 1.852807549 0.253524772)
(208.4277825 0.8007979097 1.311661552)
(205.5796429 -0.1837772232 -1.506503102)
(202.0274197 1.64784139 0.7561743867)
(199.2117281 0.6290886402 1.297025593)
(199.4390418 -0.2612332173 0.8255935979)
(197.4428589 1.825713907 -0.3776668204)
(193.9859728 0.7129890497 -0.5698578008)
(192.0441374 1.105156882 0.13637461)
(189.1549442 1.500593395 -0.2865386813)
(188.4655447 -0.462848623 1.005439858)
(186.0730003 1.419583721 0.3861803336)
(185.8981559 -0.3498321716 0.1576024443)
(185.8276911 0.4761998553 -0.2305409753)
(183.271865 -0.2742905657 0.1562631195)
(180.837783 0.6895289562 0.02885709106)
(180.6992879 0.8850156901 0.7790466777)
(181.8303256 1.056385204 -0.9907453638)
(180.0904393 0.2937768105 0.0158890806)
(177.783025 0.7190184739 -1.096345567)
(175.1978149 1.01777998 -0.7517661421)
(174.4684118 0.8374450712 -0.08594357099)
(172.009012 0.6737114647 1.118276521)
(175.6129287 -0.5590053451 -0.0001488203675)
(177.2611176 -0.6218516442 -0.6140858819)
(176.2303619 1.801614162 -0.02105250155)
(176.9278686 -0.4357347399 -0.3197573345)
(180.3360162 -0.07966905765 0.6092401871)
(180.4459347 -0.05559645812 0.9365509958)
(181.9982358 0.156309484 0.8950097314)
(187.5176789 -0.5009783763 -1.03165482)
(194.6421534 -0.1058017136 -0.2473980483)
(204.1614871 -1.663260205 1.079159271)
(219.454196 -1.186233389 -0.6779535014)
(235.5546002 -1.312095792 -0.2332336341)
(266.4462116 -3.490456025 0.1726075799)
(337.4569343 -17.11250089 0.579144759)
(1209.141493 53.5377403 0.008923536945)
(1130.387542 83.48098234 -0.006309599425)
(1079.218029 93.05891529 -1.475781064)
(1038.575585 89.51393797 -0.6141576608)
(995.6615097 80.54654399 0.4515164064)
(955.1826592 70.68684421 -0.8858858302)
(916.6471626 62.94426729 -0.1021417064)
(880.2361427 56.4188526 -2.444710729)
(845.2754491 50.83954639 -0.7006458791)
(810.7843742 44.18818661 0.5765241233)
(779.8094052 39.76813547 -0.00288442227)
(748.3881491 36.96141637 -0.6571681987)
(723.7139893 33.20914696 -0.7503094086)
(698.1078659 30.19824536 1.080086831)
(677.5294063 28.769846 0.5643522785)
(656.8329733 27.74958847 -1.744384947)
(632.7758118 27.11516653 -0.5491842859)
(615.192952 22.92773002 1.096282695)
(599.6744382 20.17746121 1.334223906)
(582.5869684 19.8972295 -1.583812009)
(565.1440743 18.11019543 -0.9890441619)
(551.0664221 16.97405544 -0.2355741575)
(536.7666313 17.08271275 -1.397569428)
(525.561943 13.85954988 1.871634326)
(517.6866679 12.9950066 1.703557743)
(505.9318405 13.39689892 -0.3567869484)
(492.299139 14.10261794 0.7879072999)
(480.2148681 12.80990738 -1.00119987)
(470.5292147 11.2410112 0.4210794799)
(460.1307135 12.82503485 -0.201784928)
(450.1675637 10.21225802 0.1612361003)
(441.8397226 8.273911033 -1.045371628)
(436.2568424 7.886872052 0.6756794965)
(429.2322017 7.791742853 0.0138156479)
(418.610379 7.57914636 1.183672403)
(411.3619969 9.903159195 0.1464099457)
(400.4890343 7.927880432 -0.449330513)
(396.4957824 6.260924566 -0.272526787)
(390.2083674 6.336981742 1.542853696)
(383.7973389 6.637165863 0.1572843577)
(381.8902845 5.20989417 -0.6457182343)
(374.4888316 7.45520396 -1.411249899)
(366.9045545 5.360810957 0.3489986962)
(363.845863 5.103652457 1.478393497)
(359.4867828 4.697510492 1.610978137)
(353.6261451 4.378258736 -1.260165414)
(352.1316532 5.476842425 0.501203985)
(345.7546074 4.681427838 -1.833931544)
(340.342527 4.275923548 -1.080574197)
(334.9941358 2.719053576 -0.7495366842)
(330.9190214 5.212917266 -0.3656467807)
(330.2396432 2.816629377 -0.6987942794)
(324.9592087 3.513457698 0.5264545151)
(322.0564413 5.007374179 0.2763178814)
(317.7267422 1.412689418 -0.6801839893)
(312.9450461 4.119994452 0.4918513159)
(312.2986532 4.471938057 0.8903104782)
(308.5477731 2.160368503 -0.5488379264)
(304.3599544 2.211979213 0.2802990233)
(299.8040769 5.093032295 -0.02111791194)
(296.4958833 2.330807538 -0.4951302498)
(292.7785064 4.428501009 0.1146194571)
(288.5633423 1.138383506 -0.2505456108)
(285.5639586 1.848297431 -0.8819511426)
(281.2671878 5.387411331 0.4110153346)
(279.0336023 1.736876944 -0.854722809)
(277.0770049 1.749175993 1.418943608)
(276.2263581 3.842546728 0.02320745766)
(271.2322631 1.427881353 -0.7927690098)
(269.0166829 3.778162582 0.3305362992)
(271.3291228 0.772325258 -0.3153818863)
(266.3357303 1.497111169 -0.008502822928)
(265.2583107 0.6673946585 -0.1665023442)
(262.993878 1.479698935 -1.116310775)
(261.7712186 1.352101693 -0.6025348531)
(259.9521755 2.520996257 0.09256959904)
(257.5060462 2.957300601 0.02598146004)
(253.8546049 2.964600249 0.05067942989)
(251.6245556 1.947182287 -0.1949783631)
(251.5821486 1.188643679 1.047791841)
(252.2338707 0.9867520698 -0.05257948709)
(250.415823 -0.03037218618 0.05794754314)
(249.6329068 1.312473302 0.258382741)
(251.1129331 1.978563113 -0.8724157498)
(254.1941775 -0.3763410711 0.03005759641)
(253.8176039 1.471086727 -0.3830783393)
(257.7666164 0.3923487713 -0.8617220775)
(259.1592415 -0.5014657206 -0.9745290088)
(263.2146617 -0.8801969814 -0.09119034409)
(272.3117437 -0.8045207228 -1.193659373)
(285.4561194 -3.851410593 1.22774743)
(299.9298259 -4.113222006 1.139346418)
(322.9673656 -6.673251316 -0.1082253256)
(361.9832245 -10.13095848 -1.000470899)
(452.3651228 -41.30591625 2.032165605)
(1289.764834 39.34471001 -1.138156703)
(1236.518502 66.13005062 -0.7312264859)
(1191.261909 88.45620779 -0.145454608)
(1157.274391 100.7722474 -0.7538825476)
(1124.696514 106.2841542 -0.1246436301)
(1094.176728 106.6891794 0.0316340555)
(1065.548183 101.5943098 0.1533452641)
(1037.962919 94.61254185 -1.011352189)
(1008.341563 90.33440261 -0.7149642425)
(979.3285682 84.04329193 1.27401768)
(950.6271373 75.43275147 -0.3223031107)
(923.6022487 70.33939025 -1.427615005)
(900.4721171 65.24665133 0.6645567814)
(874.1260402 61.62882376 0.1056455318)
(849.5724215 55.23800826 -0.5879611073)
(823.0425166 53.41671763 -0.3315435815)
(800.5104828 51.84293256 -0.618088984)
(779.3998148 46.45012846 0.8145048474)
(759.3695162 43.41345625 -0.4590226874)
(742.5446881 38.21336099 0.0004207339704)
(723.4573783 37.82493188 0.4728144379)
(705.2937381 34.32671883 0.6881669023)
(689.4879305 33.67693583 0.396445555)
(676.2493922 30.34344828 0.5026870688)
(659.899756 29.04655939 0.05724256946)
(643.6698211 27.24422231 -0.424214918)
(631.1687266 26.06886654 -2.046822858)
(617.4960029 25.35998723 -0.1849915854)
(605.9643671 23.9782724 1.560207796)
(591.9193627 23.6786881 -0.614511969)
(580.1119637 21.17226723 0.5715156503)
(567.4832437 20.04886891 -1.012621596)
(559.3240233 17.75317301 0.1248599524)
(549.1067108 17.43570209 -0.003522771385)
(536.0394889 17.25876908 -0.4489783088)
(524.8849264 19.04173403 1.467839066)
(519.1081458 14.8288742 -0.07694367922)
(508.4672587 14.7252853 -2.027540837)
(500.7044427 14.14949934 0.2811643829)
(495.343815 12.33169034 0.7382433647)
(485.0551788 12.00186277 -0.7910391562)
(481.0201721 12.17999647 -0.5450013287)
(477.2006414 10.42740085 0.1318575993)
(468.314075 10.24040808 -0.1091661684)
(461.3464385 10.95968257 0.7723270389)
(456.7098744 8.731450387 0.9747735729)
(444.6766688 11.53818028 1.424503069)
(439.0890267 11.27869062 1.322631375)
(436.1254114 9.415692639 1.185134973)
(431.6053555 8.020477894 0.2356638918)
(423.7451492 8.093481919 -0.1736766493)
(420.6555352 7.45126736 0.01643576079)
(415.7261637 6.834414279 -1.239488491)
(411.3776318 6.54865477 -0.2249796972)
(406.3774076 4.483296084 0.3214461795)
(400.6822381 7.647710231 0.01760342953)
(396.8313183 6.662796929 -0.6598481088)
(390.9064273 8.444159478 2.055056897)
(385.3044591 5.46149533 -0.01152516073)
(379.7001821 8.751308464 -0.9362956856)
(377.4814959 6.319138778 0.5983974648)
(370.3711445 5.849712471 -0.2075373248)
(365.0182361 5.449959116 0.5323674223)
(359.3194543 5.997909702 -1.869563907)
(359.2914333 6.948095807 -0.7875808157)
(356.9192165 4.940347612 -0.5752023619)
(351.1702421 3.308987071 -0.3821402466)
(344.3524286 7.195927868 -0.6267678749)
(342.1991984 5.384829836 0.02443848056)
(342.5431805 3.129106907 0.8067235374)
(339.691931 3.020222964 -0.04343912183)
(337.5850174 3.83517921 0.7811710513)
(335.9244766 2.780910448 -0.1501837914)
(332.7524971 2.954968283 -0.09429022124)
(330.6883352 2.793296074 0.48949343)
(327.4116414 4.397685678 -1.467569721)
(324.9912975 4.867542303 -0.4351310494)
(323.126284 5.425275145 -0.3034206827)
(318.8731732 4.241440407 0.32717483)
(319.5085404 1.622400755 0.2146865566)
(318.159464 1.973765949 0.6345816685)
(313.2796573 3.308258802 0.2565651182)
(313.0572132 2.044106617 -0.3503719261)
(316.7514306 1.888403342 -0.194291605)
(316.7995222 1.221622177 1.965834231)
(317.604765 1.751891191 -0.3542281462)
(320.8118465 1.902578889 -0.6046327233)
(325.9730439 -0.5087840897 0.3866213681)
(328.6826182 -1.569547278 -0.5092108677)
(338.6730423 -3.574712774 1.013234371)
(351.7437334 -4.752667007 -0.5499312342)
(367.3746033 -6.231290025 1.168799564)
(392.3779579 -11.10511382 0.5953022023)
(437.1604818 -18.15806197 1.695841045)
(517.9820314 -53.64212654 1.056529894)
(1334.596407 29.24089918 0.5142113264)
(1298.468575 49.03075603 0.728894738)
(1263.331729 68.25427558 0.5006105386)
(1233.262496 88.06087169 -0.4137775586)
(1203.682834 102.87839 -0.8013728885)
(1179.761479 112.9783153 -0.2737493779)
(1156.554465 117.201097 -1.459769865)
(1135.775782 117.9013634 -1.184742829)
(1111.222672 115.7456998 -0.2656609471)
(1090.772445 111.7463888 -0.7317728636)
(1067.577115 108.1436177 -0.6843368338)
(1046.446457 101.8204368 0.5831404681)
(1022.095113 97.27322754 -1.326590385)
(1001.974843 93.05103122 1.43173808)
(980.6202073 86.66193765 0.4414430874)
(957.8827865 80.12602417 -0.8384501147)
(935.2956119 77.29704624 -0.4586180391)
(914.3203738 72.81217803 0.2308079141)
(892.3347594 68.12588813 -0.9451346675)
(874.7323569 63.59383169 -0.4000440008)
(856.0671778 60.1571543 1.696684892)
(835.4655364 58.24867647 0.3011410206)
(819.7523943 54.75520827 -0.3139189908)
(803.6757361 51.11121282 -0.0842956489)
(785.6960147 47.12411721 -0.5117848918)
(768.3395608 43.98939534 -0.9874631915)
(753.2532818 41.37940135 -0.2593690803)
(738.7119814 42.20119879 -1.145460543)
(726.320116 39.3492067 -0.3490968856)
(715.1297354 37.38019117 -0.4217318461)
(694.8035883 35.4765112 -0.1446018408)
(682.5711172 33.62266458 -0.6474095534)
(670.5756574 30.73051404 -0.2453575966)
(660.1526066 30.25973879 -1.043449105)
(645.1801156 28.95849183 0.2097499934)
(634.5103573 27.78699374 0.7900686691)
(625.4240598 25.16821769 1.403060675)
(616.0738552 23.4431792 -0.9481864076)
(604.5320398 24.49794421 0.09187651011)
(593.7912437 22.75548055 0.2458637861)
(588.872015 19.06094971 -0.6677439306)
(582.9866683 18.86255863 -0.9165404448)
(571.5907173 17.17298208 -0.007688143863)
(561.9356836 18.88678293 0.6007787269)
(554.1739151 18.14964694 0.4984434779)
(545.5106222 17.63630702 0.3774353208)
(536.0145295 17.78759505 -1.179692895)
(528.7225131 16.93741997 1.181718161)
(524.3716945 16.01939359 0.8152101245)
(518.0212331 12.86580271 0.5057283564)
(513.3204573 13.90330838 0.5154757878)
(509.6536287 12.18697258 0.8677585078)
(501.3989589 13.43641003 -0.2400002425)
(496.0433042 9.629220761 -0.78035893)
(486.9487073 10.53813391 -1.934619128)
(477.8387161 12.06115456 -0.6666454036)
(475.9582917 10.19023074 -0.692943151)
(469.245164 12.69715881 -0.05727887842)
(464.5987645 11.81471225 -0.8707904184)
(460.6458503 10.95348937 -0.1704853992)
(457.1653457 11.07986996 0.6395462628)
(448.233407 9.51697933 1.570166459)
(440.5886034 10.73465265 0.3613769891)
(438.4300212 9.898877717 0.7786641858)
(433.3413959 8.300866046 -0.40470888)
(426.6144961 8.929762867 1.5752298)
(424.4922313 7.159750435 -0.2668867866)
(419.2576493 9.977583553 0.9569270256)
(414.5162866 7.762187957 -1.357776245)
(409.9418032 8.076324559 0.4227522629)
(409.525856 5.196637708 0.7346049756)
(405.3037497 4.40755475 -1.146570847)
(400.2297837 7.73816394 -0.4296687616)
(397.0911164 3.159707519 1.414354666)
(394.4614245 6.398480479 -1.017802901)
(392.4565885 6.989466697 -0.0747304513)
(390.1431078 6.777610728 0.9069150997)
(387.7608317 4.682300786 0.1495332067)
(384.3890884 6.730862598 0.2339201871)
(384.1181158 5.411907435 -1.117129024)
(379.3883939 5.118679986 -0.147503269)
(376.0568211 6.022041698 -0.923702668)
(373.351202 4.424328494 -0.4367406666)
(375.0241768 2.65611113 -0.3421928452)
(377.0111717 1.111060911 0.8272343407)
(378.7452612 3.385997175 -0.2637055524)
(379.889356 1.598950611 0.3883907855)
(382.8099288 0.6592159138 1.11665724)
(389.8289327 -0.9704819096 0.5187526902)
(400.5663889 -4.700356192 -0.5082156409)
(412.7853824 -4.204877701 0.3889251868)
(428.9554406 -9.510000396 0.6925328169)
(452.2819443 -13.93785434 0.4865078924)
(499.004647 -25.26262022 0.5192201296)
(563.0601776 -57.93385497 0.2619132567)
(1360.719821 22.0245234 0.6395458997)
(1339.160121 35.43299736 0.3151442042)
(1315.139049 51.46937494 1.014100467)
(1287.699995 68.9288705 -0.4162543018)
(1264.771534 87.10494312 -0.07564016835)
(1240.297058 101.2339156 0.3725167424)
(1218.919929 114.0391479 0.141851583)
(1201.175403 119.5630646 -1.155218184)
(1180.005743 126.0713232 -0.4016885441)
(1163.204484 127.7344317 -0.1030161851)
(1142.58772 127.0244355 0.5335816318)
(1127.224416 124.8720471 -0.1883339957)
(1108.540467 121.0543286 -0.4367934407)
(1090.624526 116.5462584 0.2610996977)
(1071.295428 111.961899 -1.527318325)
(1055.090885 106.6914553 -0.6216879386)
(1033.299055 101.9324539 2.33957017)
(1013.731896 99.6979059 0.05111449659)
(997.1270989 95.13250888 0.4129025195)
(981.3307525 88.6753547 0.6090644636)
(961.0140174 84.75975682 1.600154813)
(944.456128 81.1240783 0.2404419245)
(927.7896755 76.47351033 0.9728135391)
(911.3256549 71.4506564 0.8475420167)
(893.0177782 68.51511879 -1.249098746)
(876.106772 64.8939116 -1.123038784)
(861.0011905 59.19095931 0.9981854658)
(843.982265 59.73282454 -0.922752657)
(831.6372084 56.37638741 -0.07957019036)
(818.2476748 52.94080368 1.970309476)
(802.0676725 50.19347292 -0.4030235503)
(787.4556139 48.81146273 1.758401041)
(773.9891366 44.32292958 1.865123234)
(763.7051728 44.10692685 0.1594666914)
(749.4593987 41.69174974 0.6566822707)
(736.8002799 39.34028589 -0.02536978359)
(725.2593325 36.87330987 -0.3207958804)
(715.2745303 35.28579708 0.2740671605)
(701.2697783 36.7811939 -1.187453879)
(691.4918374 31.83498719 -0.4256570361)
(684.085244 30.8401238 0.3863388677)
(673.0291321 28.86629093 -0.05828809278)
(662.5850846 29.46087568 -1.232328836)
(653.1237733 27.2426284 -0.2738284573)
(644.5125818 26.84793977 -1.383169759)
(638.0033048 24.65642352 -1.069947959)
(624.1924568 26.60943456 -0.5978752601)
(617.428211 23.852638 -0.4711173142)
(609.2374751 23.17583419 -1.311768581)
(602.366249 20.46200952 -0.06920298511)