/*--------------------------------*- C++ -*----------------------------------*\
| =========                 |                                                 |
| \\      /  F ield         | OpenFOAM: The Open Source CFD Toolbox           |
|  \\    /   O peration     | Version:  v1706                                 |
|   \\  /    A nd           | Web:      www.OpenFOAM.com                      |
|    \\/     M anipulation  |                                                 |
\*---------------------------------------------------------------------------*/
FoamFile
{
    version     2.0;
    format      ascii;
    class       volScalarField;
    location    "0.008";
    object      p_Ar;
}
// * * * * * * * * * * * * * * * * * * * * * * * * * * * * * * * * * * * * * //

dimensions      [1 -1 -2 0 0 0 0];


internalField   nonuniform List<scalar> 
4000
(
1.413930482
1.442551249
1.463577082
1.48316883
1.52417031
1.565266295
1.624034872
1.666942106
1.779658066
1.893522855
2.009217501
2.251308545
2.502339687
2.781398006
3.072149723
3.56007141
4.110666323
4.872809117
5.808246892
7.007725933
8.614780657
10.44243583
12.7455382
15.53263449
19.08427601
23.17057738
27.61388462
32.37243364
37.05786304
41.70603289
45.87277425
49.07651713
51.8072258
53.82062058
55.67693943
56.83319354
57.84954426
58.6850099
59.49601763
59.64377037
1.434528545
1.449395602
1.458377904
1.478823498
1.507757761
1.546405994
1.618517022
1.662639654
1.736808546
1.841724143
1.942696867
2.12359935
2.325039872
2.594511929
2.92155385
3.38968055
3.944186501
4.609363978
5.496937934
6.697711229
8.13644434
10.03399369
12.2263511
15.00996003
18.42915611
22.36408971
26.78912121
31.47880038
36.21280537
40.82720812
44.92335291
48.30931472
50.96701298
53.15431068
55.02736548
56.38280182
57.38963241
58.34470649
58.98146924
59.32105479
1.422529767
1.441876303
1.455173718
1.471514892
1.497634744
1.538429162
1.601250644
1.658056546
1.727550432
1.814196997
1.932056923
2.081146335
2.285401626
2.565090145
2.849905493
3.259151099
3.801884854
4.52363458
5.370222271
6.530271214
7.944024222
9.788272149
12.0068366
14.8111264
18.18522955
22.02454018
26.40806474
31.02863912
35.72432985
40.27109152
44.4723621
47.8587661
50.58835662
52.96232196
54.67836774
56.08346687
57.09540748
58.14755214
58.78135448
59.20946654
1.415886645
1.437437985
1.464130855
1.477547791
1.506236729
1.540189699
1.589568305
1.661876718
1.725983837
1.809545804
1.903528038
2.040386037
2.266946932
2.496267605
2.796912654
3.193312238
3.733008846
4.436686733
5.304709746
6.463873442
7.798013449
9.605433916
11.76509089
14.51556644
17.82737715
21.70573107
26.1196859
30.74807486
35.49486059
40.05474782
44.18835762
47.66051863
50.39987645
52.73144318
54.46994911
55.94784283
56.97071639
58.01237423
58.64095606
59.10332651
1.414166329
1.434254883
1.457973224
1.481700448
1.509579466
1.531713905
1.582199162
1.631771218
1.715015245
1.790380367
1.898257433
2.035063691
2.225365798
2.461180532
2.761395247
3.16102286
3.629996347
4.32711514
5.186838629
6.245746025
7.712988113
9.468922232
11.61652888
14.30153145
17.54750845
21.39338206
25.68609262
30.33265238
35.11545973
39.67245215
43.82079562
47.28757376
50.07327088
52.52640802
54.36468038
55.74174541
56.91063883
57.86987648
58.54737381
58.88102718
1.419072568
1.431386239
1.451385642
1.469581493
1.500560291
1.544782053
1.586822343
1.629632267
1.691071984
1.782138827
1.888981127
2.02037961
2.228965751
2.432314182
2.721681165
3.089456357
3.597291783
4.240860663
5.115346424
6.137815372
7.523048124
9.206634117
11.36544129
14.01770713
17.2631247
21.02018904
25.36143776
29.92174185
34.7449041
39.23926889
43.5120539
46.97911463
50.02154287
52.28341185
54.08136715
55.50822476
56.8321325
57.66208542
58.36827848
58.69116172
1.419982653
1.433184343
1.447024171
1.471606834
1.500299463
1.52876034
1.56996782
1.62257939
1.683634177
1.755382237
1.86637207
1.99195077
2.182463006
2.393724491
2.671064756
3.04840316
3.540756521
4.176836344
5.036591932
6.070532639
7.355559085
9.093031114
11.1856325
13.78301946
16.89557927
20.69159019
24.9646622
29.4834136
34.19221135
38.7198054
43.05082407
46.6228329
49.57920992
52.00020682
53.84862625
55.22763184
56.48779388
57.50509558
58.26566184
58.60609059
1.420103377
1.433563081
1.452613417
1.471337151
1.493413995
1.524468951
1.563788077
1.624146262
1.687459927
1.76823348
1.862602948
1.986299259
2.138271138
2.366946434
2.633116509
2.972222585
3.465977432
4.061392573
4.862119882
5.888887434
7.186578176
8.877026317
10.87151521
13.43502383
16.63751214
20.26335104
24.45578431
28.9442112
33.60816998
38.21337824
42.50119839
46.15637399
49.17661341
51.67147504
53.54092858
55.01281843
56.17883882
57.24030301
58.10732821
58.45833642
1.415024394
1.424321507
1.443367651
1.466842556
1.482427096
1.515803812
1.559004771
1.599949607
1.674639947
1.742412541
1.844619463
1.9530439
2.117077673
2.332572803
2.583162518
2.942657613
3.371099952
3.958752319
4.737580357
5.692963238
7.000801999
8.599121589
10.60943568
13.09649376
16.20328115
19.77469952
23.93363127
28.2926564
32.95951336
37.64615535
41.9390185
45.56034683
48.71642141
51.1404907
53.17150957
54.74070604
55.93352487
56.96547708
57.88038427
58.26141191
1.414024351
1.424482453
1.439645488
1.452922874
1.478606775
1.511969549
1.54761692
1.59687657
1.642606049
1.729693084
1.817658083
1.934040638
2.079422653
2.302848126
2.543546066
2.881614325
3.332248653
3.879773138
4.613793254
5.556293302
6.791168745
8.318013494
10.30605383
12.76822698
15.70186107
19.18060863
23.22496571
27.68360422
32.27253408
36.94736561
41.2337764
44.97936362
48.07709072
50.645371
52.71415442
54.33330673
55.56030755
56.60544102
57.60895159
58.0932559
1.413356201
1.423727105
1.43618983
1.460322724
1.482545937
1.50774629
1.537833618
1.585834157
1.641390963
1.727705377
1.829049023
1.922200453
2.07931106
2.251387805
2.51069276
2.856455345
3.242243642
3.810310839
4.452057896
5.395923429
6.568253965
7.98565413
9.916265348
12.31769184
15.16376411
18.57510258
22.50088512
26.9108538
31.46073581
36.06760075
40.39449384
44.26615967
47.50643712
50.09372127
52.08873587
53.80447125
55.09562525
56.34750539
57.18069361
57.74736379
1.412350646
1.41748263
1.429443121
1.45054116
1.477109007
1.511824636
1.541432612
1.572409021
1.628198851
1.720067819
1.79330639
1.896544508
2.034418292
2.234324697
2.473394182
2.806304328
3.208807805
3.710372173
4.377662233
5.212425186
6.300190999
7.738596175
9.564272477
11.87309403
14.63510935
17.94054227
21.7234425
25.95978666
30.5451732
35.19932606
39.53518456
43.3866392
46.77217111
49.48470765
51.62847949
53.32835689
54.71172422
55.83885336
56.84343326
57.51784452
1.405384022
1.419560946
1.434681323
1.451656304
1.477718676
1.50566594
1.534648798
1.573512655
1.629315825
1.690768284
1.774115556
1.88376912
2.025894187
2.187305447
2.426223562
2.737536756
3.105384273
3.593669659
4.200735429
5.030144277
6.12399064
7.467392224
9.197409063
11.35162784
14.06507193
17.25686464
20.9077833
25.13678735
29.61580721
34.17514924
38.58680386
42.51421511
45.8845702
48.67847617
50.87778417
52.67640736
54.17594979
55.3619659
56.37817653
57.1195467
1.40059856
1.415757143
1.428399797
1.450548632
1.467687741
1.503153559
1.525642809
1.558529431
1.605718821
1.668371574
1.762096276
1.857903093
1.990273889
2.147091472
2.358437882
2.645165146
2.993176344
3.476063493
4.06738732
4.844458092
5.893641211
7.202447065
8.81098477
10.88915125
13.45793517
16.44006954
20.05832392
24.13208839
28.54612637
33.07630307
37.47207825
41.47260767
44.8330898
47.7782063
49.97798247
51.80993653
53.32109467
54.62611306
55.77183763
56.59074469
1.405241715
1.424613396
1.437219233
1.449257467
1.472770063
1.496857148
1.517517718
1.5463533
1.598852984
1.649451275
1.742927792
1.834196661
1.967389365
2.111938251
2.2953898
2.587830998
2.935363223
3.384128314
3.960586153
4.704157546
5.646571051
6.859373
8.43876169
10.36110562
12.83644095
15.72573659
19.17789117
23.08649426
27.32963998
31.75041436
36.15100859
40.15432718
43.65634063
46.56202943
48.86971266
50.91174542
52.38870433
53.74845854
55.0201244
55.96498047
1.407345535
1.417460318
1.425733294
1.43951005
1.468769323
1.485355617
1.5005967
1.545451964
1.586515926
1.658339106
1.724860899
1.80164121
1.92057878
2.096429341
2.266037923
2.55267871
2.848878736
3.255419021
3.828229296
4.515396279
5.435617326
6.548634094
8.081013879
9.832174891
12.14742259
14.93035357
18.22070115
21.93770384
26.08877549
30.42749645
34.71151299
38.79237932
42.2836068
45.2220649
47.7237459
49.66150953
51.29696656
52.680755
54.03421902
55.17167904
1.410834876
1.419385295
1.428385507
1.441643438
1.456309375
1.479477062
1.506658013
1.532887448
1.575528123
1.632822703
1.692566634
1.780665914
1.903121952
2.057302827
2.232264766
2.455137105
2.75753671
3.14727977
3.682549306
4.317219986
5.15566338
6.24693041
7.644886395
9.390719344
11.47465999
14.09657735
17.19942768
20.83041865
24.78364721
29.0314832
33.26408215
37.31692507
40.82122627
43.89677475
46.31288363
48.30803893
49.92026956
51.26037145
52.61524755
54.04754754
1.406088611
1.408830589
1.420008588
1.434479797
1.450122575
1.479006812
1.509252803
1.53300807
1.566940632
1.629394633
1.687515526
1.767077322
1.868842922
2.02509631
2.179257532
2.40364519
2.688508198
3.02461468
3.486569267
4.151297024
4.895574745
5.913884637
7.189086725
8.789222406
10.7776546
13.25976339
16.19925553
19.54457118
23.41482257
27.51983489
31.71029383
35.65012258
39.25957374
42.21846071
44.6077808
46.53108735
48.04964603
49.37621639
50.8385712
52.35941914
1.399610952
1.405586748
1.421199533
1.435957562
1.445400734
1.478254086
1.497136933
1.529426012
1.567408623
1.605478474
1.680321803
1.752606495
1.855519695
1.972942403
2.131045793
2.339888791
2.568096679
2.904626727
3.404220326
3.961745103
4.645392205
5.613126913
6.78064389
8.25004433
10.16209065
12.39410737
15.08147217
18.29359189
21.90182041
25.90755918
29.92780632
33.83394226
37.39044128
40.37105951
42.69498135
44.5329518
45.75526097
46.83391836
47.90460316
49.84437685
1.402412609
1.414674917
1.420813287
1.433621058
1.44616916
1.472212037
1.490807461
1.525063512
1.556455141
1.589482471
1.65206843
1.723860826
1.818664902
1.944596968
2.070694792
2.258694855
2.501008806
2.837811906
3.250430504
3.760438677
4.429928257
5.253815472
6.395196473
7.720458114
9.447840155
11.57644183
14.07430262
17.05192967
20.49733458
24.23783467
28.124803
31.91988075
35.42565159
38.35362847
40.58756511
42.08420003
43.00682265
43.19449879
42.99737285
44.06296553
1.401524091
1.40964388
1.414524909
1.423594084
1.44251791
1.46323045
1.485117221
1.515047775
1.542775103
1.576105503
1.642121604
1.699847296
1.772505655
1.905317137
2.025069364
2.203321398
2.449887477
2.733296706
3.092618949
3.547440029
4.194209965
4.999890151
5.958130474
7.195763259
8.785306624
10.70362287
13.06119539
15.8307865
19.05720083
22.54427083
26.19363768
29.84602183
33.24582346
36.09533678
38.17462814
39.59056736
39.90183195
39.10690963
36.35302672
28.70097547
1.398401988
1.407303083
1.410107245
1.424872081
1.437349573
1.45397858
1.469152458
1.501431617
1.530748502
1.571396242
1.616885915
1.681823071
1.747523512
1.844363617
1.97049858
2.143417819
2.375541465
2.644250771
2.973807105
3.386561686
3.971559413
4.642467474
5.569225578
6.741849641
8.123647794
9.877673228
12.07789834
14.6245064
17.51322246
20.77779546
24.20439528
27.72384917
30.99527345
33.76540031
35.79680515
36.86762877
36.83749846
35.19418966
31.39131361
24.33113748
1.397069719
1.404077451
1.419293334
1.424223721
1.432608489
1.451540549
1.473397672
1.49800377
1.52245838
1.558295811
1.608748148
1.659963376
1.727983611
1.825825164
1.955406725
2.126150749
2.30996534
2.539420041
2.837870768
3.205005699
3.732793399
4.341746131
5.195729121
6.248763892
7.482204622
9.102384465
11.02597025
13.36706309
16.09404724
19.08627399
22.28161146
25.6256463
28.66770993
31.34073788
33.25956391
34.22976801
33.98299452
32.1880109
28.61022604
23.16828563
1.395916608
1.402655193
1.409568931
1.424372141
1.431827284
1.446064436
1.460706218
1.483801554
1.505862568
1.540525232
1.582532391
1.639827295
1.701670875
1.784828892
1.922419187
2.062777667
2.225614017
2.438365858
2.731480418
3.076826311
3.52483461
4.125704891
4.838671505
5.756679305
6.921904423
8.359144853
10.1699017
12.25166048
14.61756913
17.43409818
20.38346987
23.43410201
26.45425745
28.97721446
30.81817151
31.65844812
31.42716155
29.7937235
26.82935995
22.68569037
1.393798782
1.398961268
1.406003391
1.416810914
1.423871908
1.439675188
1.462035013
1.479562717
1.503446525
1.530068626
1.567244699
1.618546987
1.67264091
1.751088081
1.8761835
1.996364808
2.146574795
2.348495364
2.621282203
2.941747688
3.315766486
3.854871072
4.516140999
5.32504973
6.387324275
7.642905485
9.235763244
11.14497661
13.33131373
15.85077726
18.59521942
21.44620013
24.18221661
26.63200578
28.39711452
29.38494925
29.27233785
28.04112336
25.63236469
22.38056505
1.397330197
1.406515512
1.409708245
1.417435249
1.42559551
1.439874574
1.452980573
1.47687134
1.491244351
1.513746584
1.545825003
1.589964824
1.648954219
1.74234747
1.822729849
1.938303039
2.081689725
2.242479482
2.491431722
2.792209306
3.134675386
3.607485315
4.194502135
4.939632764
5.849214475
7.026907577
8.414244707
10.05742288
12.02499523
14.34649392
16.79004549
19.45031482
21.99497418
24.29204219
26.04793767
27.10161645
27.33388452
26.43693148
24.58887116
22.04776993
1.393417188
1.401862828
1.406017539
1.413738437
1.425829135
1.433036495
1.445727822
1.465143367
1.490062621
1.50610424
1.53090254
1.576879919
1.633384057
1.688817132
1.79268157
1.885912798
1.99948241
2.172982749
2.390343465
2.640028367
2.946915055
3.352272085
3.880183526
4.535387892
5.356183985
6.396247026
7.609912024
9.080973353
10.86836923
12.88684811
15.10553089
17.53031768
19.9110365
22.11508038
23.9189564
24.97955196
25.41378712
24.93776316
23.62308939
21.5874207
1.394658039
1.397566355
1.404826698
1.415061053
1.41905011
1.424096892
1.438548372
1.456892565
1.477653023
1.498834218
1.521962768
1.568841537
1.614838621
1.669290087
1.735973413
1.846895994
1.947449618
2.111878369
2.293045432
2.50678016
2.794801404
3.159813175
3.640838216
4.216473496
4.933925021
5.844107961
6.891557216
8.189036634
9.758089673
11.56597905
13.54449067
15.67313858
17.94986292
19.93688095
21.74305589
22.99339866
23.6037732
23.4868228
22.66153563
21.2034621
1.393482473
1.40020089
1.406145666
1.410200157
1.4127352
1.422460091
1.433562637
1.452843512
1.471394506
1.491199214
1.51374674
1.538007635
1.597139313
1.636213468
1.709236896
1.806645418
1.910281059
2.02366658
2.201455313
2.39367566
2.646600541
2.976498792
3.37785409
3.881778867
4.482520815
5.275527263
6.240658747
7.379097856
8.726033647
10.29669659
12.08107432
13.97252206
16.01239162
17.9271899
19.68375459
21.0231163
21.8847772
22.08877828
21.57168956
20.60806421
1.394208394
1.397860816
1.404432258
1.407436845
1.410675243
1.422236493
1.432068588
1.44482578
1.459147461
1.480934988
1.503014212
1.535635228
1.574979157
1.616437001
1.681001367
1.753970407
1.866046092
1.975075383
2.119542201
2.295282742
2.506747973
2.806582838
3.147219374
3.594264655
4.140105351
4.806016221
5.614721843
6.617933486
7.764685122
9.144027778
10.74896457
12.4489269
14.27818544
16.0445259
17.74361788
19.10157604
20.08988547
20.6191677
20.51758634
19.86697077
1.389191069
1.390792546
1.397910971
1.404569843
1.413422811
1.424965525
1.43597675
1.446036016
1.462038663
1.475669055
1.490088958
1.514967533
1.553691299
1.594667359
1.652931149
1.714943903
1.821910049
1.914276394
2.033929903
2.187000504
2.38227945
2.615248676
2.952271546
3.361368901
3.812584009
4.384827985
5.086929173
5.946983395
6.965978679
8.17302356
9.536015956
11.06082431
12.68448481
14.31093241
15.88123672
17.27738887
18.35918597
19.10769101
19.30530864
19.05945707
1.390291881
1.395112434
1.402359634
1.406775913
1.414771814
1.425358225
1.431739789
1.436877062
1.452166857
1.469504172
1.487674148
1.506666724
1.540109499
1.582180345
1.637160489
1.696194767
1.766060145
1.846355441
1.959803791
2.102031058
2.279027012
2.482839017
2.775442531
3.120797913
3.513172508
3.997305971
4.588676458
5.378394976
6.228474707
7.263002613
8.477575739
9.797375592
11.23845173
12.68280593
14.19589848
15.52355091
16.70149213
17.53835202
17.95564091
18.06072029
1.386292228
1.388011789
1.393933316
1.400868305
1.405470811
1.411054975
1.421751837
1.430738054
1.441195086
1.454499434
1.47403514
1.490515827
1.530894511
1.56154255
1.602426311
1.654565584
1.722627821
1.80596004
1.896395838
2.006620294
2.163145635
2.34256102
2.616436
2.886444181
3.274000576
3.657898315
4.160782529
4.837376766
5.593721721
6.428024662
7.50706393
8.633484125
9.913141474
11.2300785
12.60296945
13.9005389
15.07217514
16.00329266
16.58770359
16.96628472
1.387258093
1.38861161
1.391978291
1.393122105
1.397930796
1.407447524
1.415798056
1.427994665
1.443659764
1.455504285
1.467016408
1.481848116
1.51782481
1.551930965
1.584139154
1.621497274
1.688608699
1.753086798
1.840122836
1.943431662
2.070307657
2.252966185
2.45028471
2.695031038
3.01284768
3.358188464
3.826901671
4.341293304
4.956053373
5.718395397
6.617833837
7.637067158
8.6839523
9.911898426
11.17821037
12.34588584
13.46645219
14.52970256
15.25934698
15.758386
1.38343704
1.389061629
1.392965395
1.396209646
1.403745147
1.40843593
1.410978505
1.424631287
1.42986181
1.444148495
1.453879198
1.481351144
1.50311067
1.536631812
1.557332504
1.607632475
1.666681062
1.713808567
1.789268674
1.890121082
2.013090205
2.161062367
2.323316782
2.528054166
2.79328098
3.09511385
3.484554972
3.925246291
4.467417457
5.117737807
5.854976669
6.736071658
7.704567649
8.730813836
9.873673192
10.97858482
12.04473864
13.06930689
13.88660808
14.54190769
1.385744963
1.391366107
1.391860272
1.393251934
1.398260531
1.405847575
1.409894374
1.415554425
1.42724677
1.436905828
1.453175128
1.468548891
1.491154823
1.511283607
1.535318489
1.57677261
1.624104286
1.675778123
1.74257659
1.817777206
1.927787753
2.058896628
2.202429516
2.393041793
2.595669462
2.867806269
3.203598601
3.566217751
4.065717961
4.590753355
5.219868406
5.961754383
6.776307442
7.674052042
8.682162872
9.693690723
10.68058717
11.70127616
12.53000218
13.27842125
1.384365915
1.387694006
1.390567828
1.391903645
1.39554421
1.403697999
1.409070096
1.416028176
1.422292567
1.430087656
1.442426121
1.456930796
1.475427168
1.501192759
1.521605677
1.562426219
1.59464091
1.646469776
1.705907897
1.760646951
1.846131414
1.966939289
2.101340799
2.260567795
2.452527155
2.680983894
2.952463227
3.262864185
3.679063044
4.150513999
4.643386984
5.302567779
5.996396337
6.782445654
7.632041609
8.536198303
9.439827169
10.39592088
11.2601518
12.04269027
1.382327107
1.384066216
1.385003223
1.391244452
1.394709868
1.402130746
1.405885626
1.415284257
1.418285601
1.420895232
1.432814783
1.44740384
1.46141605
1.475012771
1.506803815
1.541433003
1.571628846
1.615566787
1.661157947
1.723103017
1.800797337
1.890457664
2.006309288
2.161664465
2.3220582
2.515325078
2.740848726
3.008082856
3.328906841
3.765363719
4.17739949
4.726631162
5.315635923
5.970440447
6.72990799
7.513123891
8.320121812
9.183771432
10.02806086
10.86561692
1.384337864
1.388279805
1.390140265
1.390418478
1.392560588
1.398365232
1.404021339
1.409394584
1.415962363
1.423141093
1.431913743
1.446900871
1.463398016
1.476311328
1.495571137
1.517330756
1.543200867
1.576529461
1.630702503
1.68674365
1.756881696
1.840244034
1.934725008
2.05264535
2.182689111
2.34355888
2.558921548
2.747537109
3.048057561
3.361609694
3.771868207
4.220945141
4.742409088
5.315358551
5.957297107
6.65449355
7.35308237
8.141904101
8.925527868
9.682768657
1.384245298
1.385097645
1.387899813
1.392204242
1.391335994
1.39205522
1.397541678
1.400429275
1.411168505
1.419685
1.423096735
1.437789859
1.444342638
1.466278197
1.487323454
1.499936473
1.52942009
1.559952846
1.599264512
1.645881568
1.70631112
1.774018792
1.852249102
1.954289821
2.080210001
2.201675191
2.39437882
2.569574661
2.800106235
3.08469526
3.422733569
3.761739233
4.202908792
4.703880406
5.247347226
5.856710664
6.504809351
7.179265742
7.889605107
8.581049272
1.383767318
1.385731223
1.386655806
1.387334191
1.389965744
1.39152454
1.394859182
1.400772765
1.40688807
1.410991755
1.420559987
1.430310112
1.436303122
1.454040304
1.473134809
1.491699743
1.514700142
1.544882271
1.582648031
1.619428248
1.661733242
1.727038411
1.79283275
1.875428837
1.98649463
2.095182614
2.22708157
2.393332077
2.591889556
2.845652749
3.101774716
3.413443707
3.785168316
4.208397482
4.646720092
5.169347876
5.739596585
6.318659752
6.972616792
7.607984181
1.38308685
1.384976211
1.389141629
1.391532924
1.395270379
1.396376215
1.399104146
1.399177397
1.405404436
1.410665113
1.417467536
1.427750744
1.437195879
1.45283702
1.4662955
1.488708712
1.510165954
1.526973923
1.551970867
1.588709156
1.623838947
1.680077611
1.740526952
1.816625611
1.901791363
2.000687833
2.110790406
2.261007917
2.414997918
2.62750301
2.843346675
3.100161907
3.411022604
3.77633604
4.161318843
4.60119503
5.08628054
5.558188847
6.147557433
6.725000842
1.382765349
1.388774812
1.386452987
1.385870027
1.386939533
1.387917516
1.392613065
1.39671231
1.402501572
1.410054732
1.418501134
1.426294049
1.435268046
1.444353555
1.455696034
1.471981922
1.488694549
1.505301793
1.535886055
1.564793176
1.603063106
1.647320627
1.69402233
1.757129114
1.830596648
1.904117137
2.010045643
2.127426434
2.275699708
2.443113397
2.645426665
2.830709182
3.104510276
3.400369338
3.718858759
4.087634234
4.539209286
4.932814973
5.427834534
5.95803456
1.381057603
1.382057224
1.385692739
1.387116701
1.393187217
1.396350655
1.396452972
1.395163301
1.399754236
1.405944163
1.410913554
1.420449076
1.427599293
1.431374563
1.44379892
1.456583325
1.469667049
1.493792087
1.513847829
1.539922811
1.570793971
1.614383269
1.653303514
1.707010006
1.763213603
1.839330468
1.932414189
2.028595124
2.134122071
2.267356327
2.434501533
2.606009733
2.844407053
3.0994294
3.359568484
3.663581978
4.057594442
4.407313666
4.812747655
5.289330985
1.385284788
1.385518116
1.386446344
1.388848075
1.390545002
1.394034881
1.39614816
1.397153155
1.39981848
1.40865847
1.405639188
1.409465464
1.419395932
1.423580529
1.433593792
1.446581667
1.458813704
1.46949295
1.489294599
1.512891783
1.541137154
1.580957413
1.620362652
1.663242935
1.712976063
1.771666792
1.8500868
1.940294828
2.01991053
2.128549743
2.292030067
2.446586797
2.625690689
2.824095975
3.038456602
3.289042706
3.590215417
3.953782595
4.290043234
4.70578174
1.380409245
1.380439756
1.384177754
1.386528562
1.388309166
1.388345455
1.392552569
1.394737947
1.40018092
1.403002199
1.403897918
1.410539001
1.420149779
1.425440991
1.426864536
1.436974777
1.449101526
1.460014444
1.479109973
1.501120132
1.529181445
1.546823995
1.58416115
1.620235996
1.662789833
1.722043842
1.776277674
1.850029984
1.937269829
2.020656704
2.139999065
2.28089931
2.432178076
2.593783154
2.790902304
2.999127027
3.226770355
3.512087271
3.832750611
4.171563296
1.382165952
1.383395521
1.385782128
1.383608563
1.384550838
1.38545455
1.386430028
1.388175026
1.390338621
1.393842211
1.402091339
1.405666763
1.410534405
1.415547679
1.421670305
1.432383137
1.438395063
1.455041173
1.474615408
1.490565516
1.512084506
1.53496611
1.560711928
1.592559343
1.632895213
1.672287846
1.73604619
1.796128651
1.851356261
1.93422051
2.040367589
2.148952505
2.282499554
2.419786678
2.576121393
2.742542639
2.936542995
3.188956518
3.420472226
3.73174141
1.379829844
1.382952183
1.380431835
1.383542188
1.382615072
1.383645589
1.38741768
1.388738655
1.388988351
1.391302704
1.394332534
1.397039849
1.407789129
1.415538553
1.417659352
1.42380785
1.431115808
1.45201977
1.461873585
1.473755313
1.494913484
1.524396155
1.54141345
1.568223198
1.595372665
1.637299338
1.683059812
1.728478248
1.777167801
1.844066821
1.927751816
2.013547513
2.1338841
2.249263868
2.385204918
2.543263
2.699467117
2.898161667
3.092441416
3.345866363
1.379760332
1.379569185
1.37993261
1.380941631
1.382006417
1.382917572
1.383190902
1.383525318
1.388107583
1.390794391
1.392979519
1.397845307
1.405552605
1.404687673
1.405972529
1.412916478
1.424283873
1.438404717
1.451279128
1.467151761
1.483138314
1.498583199
1.517698671
1.541032725
1.565206299
1.600423922
1.642671282
1.679838377
1.725564355
1.776571335
1.839382311
1.921241972
2.024920652
2.101230992
2.219205255
2.354629624
2.506182042
2.66318204
2.828332187
3.017965528
1.381416676
1.379268157
1.380116208
1.38130564
1.385017717
1.384512266
1.389097032
1.390280059
1.390993976
1.391592656
1.39044045
1.392855515
1.398406383
1.403622173
1.409690678
1.417818327
1.422664861
1.427773101
1.437109808
1.452438603
1.46302375
1.478537618
1.498254588
1.522554079
1.547034238
1.563331883
1.599378349
1.636649784
1.676437113
1.72128632
1.778220043
1.841564504
1.919745251
1.996947766
2.090192561
2.200463084
2.317681479
2.456629892
2.609000838
2.768171427
1.380735176
1.38577778
1.385867356
1.388802199
1.389051797
1.389664818
1.385907663
1.38536732
1.385493611
1.386646708
1.393968012
1.398339501
1.39798852
1.401958282
1.407054397
1.410674069
1.415045274
1.421424806
1.431093995
1.444161043
1.458877251
1.467878495
1.484286084
1.50188128
1.521637467
1.540381023
1.573808335
1.602264087
1.643624933
1.673729346
1.718309005
1.770046125
1.836700189
1.895923039
1.986820302
2.072147681
2.160082745
2.276187983
2.406781594
2.536356089
1.382857385
1.382555199
1.383148326
1.384461589
1.386301912
1.384587996
1.388111142
1.392446464
1.392853062
1.394675347
1.396779573
1.398683677
1.4035806
1.401471827
1.402966974
1.409428168
1.416281713
1.422128406
1.430089455
1.437962613
1.452982419
1.457128487
1.474040376
1.48409459
1.503392847
1.532590971
1.545720161
1.568621587
1.599265084
1.625699242
1.662368096
1.698171036
1.759605024
1.815119083
1.887418545
1.963083496
2.045402807
2.121289065
2.242380759
2.349513242
1.382495968
1.382812831
1.380003557
1.38096264
1.381293042
1.383991535
1.385222816
1.386715176
1.386519332
1.391674178
1.3929147
1.39093286
1.395357239
1.396304108
1.401431734
1.406723749
1.411959321
1.413370862
1.418554678
1.42562658
1.439510578
1.4468493
1.453956088
1.468724509
1.485322524
1.503516358
1.517134217
1.543940148
1.571089101
1.599298274
1.621749355
1.670974897
1.708120539
1.750093226
1.809661005
1.860463987
1.943507194
2.023277409
2.103703833
2.206259612
1.383013881
1.383184095
1.384131106
1.384697297
1.383284398
1.383019593
1.382944897
1.382250025
1.38322218
1.385562938
1.386983823
1.389318922
1.390735203
1.388831969
1.394992187
1.396559031
1.401825503
1.402432819
1.409743987
1.414505526
1.421878153
1.429439761
1.442084948
1.45243328
1.461666353
1.479920018
1.492564411
1.514496309
1.533091365
1.562032992
1.58815426
1.612904097
1.65464975
1.691030204
1.735489071
1.793781175
1.850863767
1.915496132
1.980139953
2.072931451
1.379719014
1.378676329
1.379532056
1.382014979
1.38477117
1.385548574
1.385218061
1.383609617
1.38568051
1.385876866
1.388611171
1.389709665
1.391661358
1.391158298
1.396716362
1.39485364
1.401780331
1.401944636
1.404395446
1.411683776
1.415011056
1.423654217
1.436679756
1.442943298
1.449002023
1.458083439
1.478991506
1.488671821
1.508196932
1.531734089
1.552413194
1.571084778
1.602605256
1.644215166
1.69243224
1.727324979
1.777896694
1.828706433
1.895787658
1.956909811
1.38302906
1.382937407
1.38330724
1.384679651
1.381962917
1.38153033
1.386037651
1.38700307
1.388514134
1.386665871
1.388010196
1.389254372
1.392101675
1.392851185
1.395355732
1.396604888
1.398555962
1.399172478
1.401853184
1.406995005
1.408398246
1.413304679
1.425590176
1.429169899
1.435200284
1.441637524
1.460487986
1.476582964
1.491207409
1.503368837
1.525710602
1.539847427
1.5658958
1.59679032
1.634318831
1.670760018
1.712348156
1.759685195
1.80795873
1.864189965
1.382175909
1.384459838
1.385951551
1.384592814
1.387605198
1.388914652
1.387344017
1.385071261
1.384434408
1.383188165
1.383089216
1.38276613
1.388482825
1.38904387
1.391032345
1.392901386
1.394810126
1.395845277
1.401980752
1.403539774
1.409834399
1.412883866
1.419644157
1.422352651
1.428785797
1.437801799
1.455410037
1.464089113
1.473869669
1.48921011
1.499866843
1.517676435
1.540847926
1.560557377
1.588356422
1.618752846
1.653874271
1.692876438
1.735719718
1.783900702
1.382614089
1.383795534
1.385753976
1.385688926
1.384869607
1.383482803
1.381183474
1.381453283
1.381870934
1.382325807
1.381912066
1.382239637
1.383792933
1.385441834
1.384778504
1.385357148
1.385513486
1.389689851
1.396434878
1.402332192
1.407117446
1.410244406
1.415928494
1.416610249
1.421611709
1.428670602
1.441481397
1.455021359
1.463253885
1.470277041
1.48435795
1.499830495
1.51796533
1.535478391
1.551542626
1.574243024
1.601077845
1.634672408
1.67611258
1.713008553
1.381429024
1.381978371
1.38078453
1.379763969
1.380539341
1.380942433
1.38228775
1.386400903
1.38605871
1.385400803
1.384220501
1.384109316
1.387168965
1.384378492
1.385104792
1.387635103
1.388776237
1.393434779
1.392192978
1.396496114
1.401587478
1.404318105
1.407824094
1.412465048
1.419795938
1.425825847
1.429339639
1.440719638
1.445671363
1.455673142
1.468631802
1.475877339
1.492879624
1.506678853
1.522567244
1.543682262
1.56792829
1.591024249
1.614385062
1.65471267
1.380445854
1.379435637
1.381179795
1.382752252
1.382919108
1.380970626
1.380062013
1.380529725
1.381002214
1.380778795
1.38061091
1.380162624
1.381848377
1.383147897
1.383896887
1.384493865
1.382300645
1.383784944
1.38386837
1.390230736
1.39289194
1.395459604
1.397418863
1.401587945
1.408099463
1.412118646
1.418771326
1.430319096
1.432460907
1.441974293
1.458608926
1.45879866
1.472506024
1.486144525
1.499710516
1.515857046
1.539356046
1.554784966
1.574738782
1.597631013
12.48917301
8.290203498
7.234526031
6.721541556
6.404794487
6.202747867
6.025582728
5.860215447
5.711291025
5.591837596
5.496060112
5.390647178
5.300602224
5.222878895
5.123130197
5.040570381
4.97323202
4.910665405
4.866568896
4.776140943
4.682438518
4.631768221
4.572555674
4.528737788
4.472348757
4.416998059
4.382808864
4.333777891
4.265740847
4.203395787
4.123167303
4.06819323
3.990511679
3.917511957
3.835518921
3.75024999
3.627006171
3.483610005
3.276386343
2.80322762
15.91767633
11.03971922
8.889142831
7.857291399
7.217662248
6.786753716
6.528733573
6.286966869
6.092794341
5.927982106
5.757967994
5.624865116
5.535798918
5.412056152