/*--------------------------------*- C++ -*----------------------------------*\
| =========                 |                                                 |
| \\      /  F ield         | OpenFOAM: The Open Source CFD Toolbox           |
|  \\    /   O peration     | Version:  v1706                                 |
|   \\  /    A nd           | Web:      www.OpenFOAM.com                      |
|    \\/     M anipulation  |                                                 |
\*---------------------------------------------------------------------------*/
FoamFile
{
    version     2.0;
    format      ascii;
    class       volScalarField;
    location    "0.008";
    object      rhoN_Ar;
}
// * * * * * * * * * * * * * * * * * * * * * * * * * * * * * * * * * * * * * //

dimensions      [0 -3 0 0 0 0 0];


internalField   nonuniform List<scalar> 
4000
(
1.001619009e+21
1.003019996e+21
1.00306065e+21
1.00352087e+21
1.003976921e+21
1.005031831e+21
1.007015e+21
1.008922073e+21
1.014174212e+21
1.019218914e+21
1.023596479e+21
1.032867597e+21
1.044612854e+21
1.053668195e+21
1.063114437e+21
1.079502551e+21
1.09737348e+21
1.12220296e+21
1.15203284e+21
1.192684931e+21
1.246303974e+21
1.313177151e+21
1.399748066e+21
1.514282962e+21
1.670396645e+21
1.869237839e+21
2.116242147e+21
2.409961153e+21
2.721296743e+21
3.055599042e+21
3.382398135e+21
3.691776616e+21
3.99151966e+21
4.291390919e+21
4.65221243e+21
5.068269228e+21
5.637672654e+21
6.433580001e+21
7.678180691e+21
9.870310702e+21
1.001086029e+21
1.001436729e+21
1.001990975e+21
1.001982092e+21
1.002667271e+21
1.003670707e+21
1.006327612e+21
1.006869885e+21
1.007456574e+21
1.009825348e+21
1.011281451e+21
1.015468615e+21
1.019945841e+21
1.027589414e+21
1.037236384e+21
1.05095851e+21
1.065983404e+21
1.086409782e+21
1.112712326e+21
1.150795397e+21
1.200529994e+21
1.266597659e+21
1.349340209e+21
1.463195078e+21
1.614799312e+21
1.808924833e+21
2.050178642e+21
2.339643354e+21
2.653240746e+21
2.992009017e+21
3.322711947e+21
3.639375266e+21
3.935200481e+21
4.253107088e+21
4.611937131e+21
5.038459341e+21
5.600219885e+21
6.409769706e+21
7.640760827e+21
9.845241161e+21
1.001033692e+21
1.000596231e+21
1.000320958e+21
1.001018069e+21
1.001675376e+21
1.003510407e+21
1.004261085e+21
1.005483075e+21
1.007798346e+21
1.010109897e+21
1.013362957e+21
1.01696048e+21
1.02284612e+21
1.030524011e+21
1.037384638e+21
1.048142613e+21
1.063123428e+21
1.083805376e+21
1.108668872e+21
1.142453452e+21
1.186794761e+21
1.249647451e+21
1.332227187e+21
1.444591858e+21
1.593559312e+21
1.783077489e+21
2.025041911e+21
2.307300754e+21
2.619028339e+21
2.953545944e+21
3.295684525e+21
3.609170512e+21
3.908158155e+21
4.233197805e+21
4.588556569e+21
5.022617808e+21
5.585252476e+21
6.396529545e+21
7.624518573e+21
9.820392444e+21
1.000646082e+21
1.002022668e+21
1.002195613e+21
1.002281535e+21
1.0042302e+21
1.004782083e+21
1.006828786e+21
1.009232397e+21
1.010235186e+21
1.013029116e+21
1.01506664e+21
1.018173415e+21
1.023175612e+21
1.029009121e+21
1.036708311e+21
1.046804134e+21
1.060557146e+21
1.079227901e+21
1.10417169e+21
1.140464513e+21
1.183744182e+21
1.243702614e+21
1.32177955e+21
1.429268215e+21
1.576670172e+21
1.767902946e+21
2.005825461e+21
2.282987847e+21
2.603366745e+21
2.939406929e+21
3.274387777e+21
3.5985902e+21
3.900233351e+21
4.221138429e+21
4.57560372e+21
5.006210503e+21
5.566644542e+21
6.382591585e+21
7.606318092e+21
9.801618969e+21
1.000543271e+21
1.000764009e+21
1.001686731e+21
1.002296041e+21
1.002755031e+21
1.003044362e+21
1.004213727e+21
1.005538156e+21
1.007732767e+21
1.009221746e+21
1.012170516e+21
1.015659273e+21
1.020465162e+21
1.027594092e+21
1.036596925e+21
1.048020216e+21
1.061016402e+21
1.081339636e+21
1.106280128e+21
1.136386987e+21
1.182257469e+21
1.241464913e+21
1.318203709e+21
1.423395835e+21
1.56559535e+21
1.750158712e+21
1.981121233e+21
2.262243852e+21
2.58032351e+21
2.916966334e+21
3.249491754e+21
3.572108767e+21
3.873126278e+21
4.202538742e+21
4.563607611e+21
4.992989647e+21
5.555639512e+21
6.362283475e+21
7.589608742e+21
9.756814787e+21
1.000883808e+21
1.001118265e+21
1.001618075e+21
1.001986662e+21
1.003447199e+21
1.005699435e+21
1.00699458e+21
1.007082183e+21
1.009603045e+21
1.012582278e+21
1.015232545e+21
1.017646901e+21
1.023827101e+21
1.028741237e+21
1.036494658e+21
1.045253152e+21
1.059278012e+21
1.076971297e+21
1.102027607e+21
1.132327017e+21
1.176978436e+21
1.232037178e+21
1.310210785e+21
1.414873248e+21
1.554099685e+21
1.733477431e+21
1.964954678e+21
2.238881634e+21
2.554075474e+21
2.88724104e+21
3.22443635e+21
3.542203032e+21
3.866317488e+21
4.180876661e+21
4.537440257e+21
4.958752736e+21
5.539553054e+21
6.326895718e+21
7.553372462e+21
9.714917991e+21
1.000585348e+21
1.002298706e+21
1.00341955e+21
1.004016053e+21
1.003309315e+21
1.003281756e+21
1.004356911e+21
1.006062291e+21
1.006689616e+21
1.008406237e+21
1.011206353e+21
1.015726354e+21
1.020311626e+21
1.026037323e+21
1.032380555e+21
1.042438418e+21
1.05635596e+21
1.073809364e+21
1.098324704e+21
1.129968337e+21
1.169024917e+21
1.226757277e+21
1.303195516e+21
1.403721571e+21
1.536609963e+21
1.716317079e+21
1.945615841e+21
2.212564597e+21
2.521328349e+21
2.853435104e+21
3.197442534e+21
3.519041058e+21
3.82906381e+21
4.153810923e+21
4.510461665e+21
4.93450049e+21
5.495816804e+21
6.302609603e+21
7.521008959e+21
9.688701352e+21
1.000421572e+21
1.000916423e+21
1.001740691e+21
1.002112825e+21
1.003526787e+21
1.004539656e+21
1.005218402e+21
1.007501521e+21
1.008624075e+21
1.011287291e+21
1.013321356e+21
1.016470735e+21
1.020089624e+21
1.025985117e+21
1.033797025e+21
1.04342978e+21
1.056140239e+21
1.072350852e+21
1.094558318e+21
1.125296256e+21
1.165441425e+21
1.22129186e+21
1.291656225e+21
1.391900956e+21
1.526857272e+21
1.6993169e+21
1.919770167e+21
2.184464605e+21
2.488702573e+21
2.821906862e+21
3.162443051e+21
3.481680388e+21
3.801554117e+21
4.124556953e+21
4.480874788e+21
4.907748485e+21
5.461291288e+21
6.270242206e+21
7.480775859e+21
9.653692742e+21
1.000591237e+21
1.000273803e+21
9.999748077e+20
1.001577885e+21
1.002086214e+21
1.003188555e+21
1.004405145e+21
1.005892529e+21
1.008580233e+21
1.009481195e+21
1.012431379e+21
1.015483156e+21
1.020297089e+21
1.025684066e+21
1.031815097e+21
1.040692401e+21
1.051843082e+21
1.068422679e+21
1.091779022e+21
1.120334701e+21
1.161307181e+21
1.21444483e+21
1.285670791e+21
1.381242635e+21
1.512209812e+21
1.675802185e+21
1.893550309e+21
2.147492774e+21
2.449832709e+21
2.783861085e+21
3.121960063e+21
3.441051328e+21
3.767003577e+21
4.089538891e+21
4.444201921e+21
4.876339443e+21
5.439336764e+21
6.220025808e+21
7.435159375e+21
9.593448155e+21
1.000615176e+21
1.000546189e+21
1.000430607e+21
1.000108423e+21
1.000485869e+21
1.001718259e+21
1.002295446e+21
1.003545173e+21
1.004722662e+21
1.008395271e+21
1.010892198e+21
1.013729368e+21
1.018225497e+21
1.024228884e+21
1.03039878e+21
1.040252122e+21
1.053221114e+21
1.068537498e+21
1.090517891e+21
1.118233305e+21
1.15577461e+21
1.205000866e+21
1.274605263e+21
1.3688264e+21
1.491185546e+21
1.652884377e+21
1.860619046e+21
2.117056603e+21
2.412138909e+21
2.737026491e+21
3.072897226e+21
3.403697174e+21
3.720940108e+21
4.048844373e+21
4.411694772e+21
4.844966586e+21
5.386914838e+21
6.176633463e+21
7.387891275e+21
9.548231068e+21
1.00063671e+21
1.00115607e+21
1.002036346e+21
1.00275421e+21
1.002404842e+21
1.002567616e+21
1.002962098e+21
1.003989268e+21
1.005031956e+21
1.007023135e+21
1.009547388e+21
1.011500309e+21
1.015825537e+21
1.020574121e+21
1.028368483e+21
1.038858533e+21
1.049404886e+21
1.065783295e+21
1.083838524e+21
1.112253151e+21
1.148544429e+21
1.196362671e+21
1.262921523e+21
1.353440566e+21
1.470610074e+21
1.624963408e+21
1.823827541e+21
2.075721195e+21
2.361394145e+21
2.68319993e+21
3.021795209e+21
3.350920028e+21
3.675184018e+21
4.005436342e+21
4.356147601e+21
4.785126218e+21
5.329315647e+21
6.119261338e+21
7.296879789e+21
9.453765786e+21
1.000699988e+21
1.000395202e+21
1.000150652e+21
1.00120568e+21
1.00182968e+21
1.002848639e+21
1.004038206e+21
1.005178358e+21
1.005250858e+21
1.007917104e+21
1.009931577e+21
1.01219601e+21
1.015497798e+21
1.019952723e+21
1.026679656e+21
1.035353973e+21
1.047250364e+21
1.060515227e+21
1.079820262e+21
1.105041391e+21
1.138492102e+21
1.18318671e+21
1.247773923e+21
1.336697484e+21
1.449586962e+21
1.596906793e+21
1.788112919e+21
2.02806929e+21
2.313831566e+21
2.634592649e+21
2.965912673e+21
3.295453756e+21
3.621178342e+21
3.948164994e+21
4.308146801e+21
4.725267862e+21
5.268775188e+21
6.037301487e+21
7.22789684e+21
9.371777583e+21
1.000369365e+21
1.000739608e+21
1.00178977e+21
1.001929287e+21
1.00254071e+21
1.00227141e+21
1.002431836e+21
1.003275427e+21
1.006609053e+21
1.007703198e+21
1.009775043e+21
1.01298898e+21
1.017644232e+21
1.022734978e+21
1.029171144e+21
1.038687137e+21
1.04816672e+21
1.061526099e+21
1.079990645e+21
1.104626383e+21
1.138385159e+21
1.18128464e+21
1.23944194e+21
1.318143201e+21
1.427873465e+21
1.568845794e+21
1.749659045e+21
1.984146667e+21
2.258213483e+21
2.571376049e+21
2.903584662e+21
3.233266469e+21
3.556772036e+21
3.887779434e+21
4.233944069e+21
4.655769793e+21
5.198465147e+21
5.955854381e+21
7.124657481e+21
9.264062003e+21
1.000139499e+21
1.000684715e+21
1.000193192e+21
1.000921107e+21
1.001513889e+21
1.003669887e+21
1.00468068e+21
1.006144438e+21
1.006449298e+21
1.009050333e+21
1.011845599e+21
1.014385735e+21
1.016739207e+21
1.021104175e+21
1.025752381e+21
1.032135332e+21
1.042833161e+21
1.057704972e+21
1.074581431e+21
1.097637601e+21
1.130488194e+21
1.173415366e+21
1.227838911e+21
1.303653792e+21
1.405699922e+21
1.536534735e+21
1.714368359e+21
1.934399078e+21
2.200877987e+21
2.508659592e+21
2.833958727e+21
3.169317864e+21
3.488343595e+21
3.82313049e+21
4.163310444e+21
4.576779556e+21
5.100824378e+21
5.854528218e+21
7.01447391e+21
9.134109363e+21
1.000543324e+21
1.001303032e+21
1.001587248e+21
1.001953594e+21
1.002479878e+21
1.003291099e+21
1.002946366e+21
1.002672597e+21
1.004345829e+21
1.005191991e+21
1.007602958e+21
1.010158374e+21
1.013835161e+21
1.016594823e+21
1.022351533e+21
1.030929864e+21
1.040126695e+21
1.053104059e+21
1.069789549e+21
1.091613248e+21
1.121168755e+21
1.159666777e+21
1.212357552e+21
1.283041423e+21
1.381893946e+21
1.506495149e+21
1.672310088e+21
1.88126127e+21
2.136659497e+21
2.433292713e+21
2.756599659e+21
3.080457385e+21
3.409319677e+21
3.738252933e+21
4.073530782e+21
4.493445347e+21
5.002667989e+21
5.731514835e+21
6.879861991e+21
8.988488279e+21
1.000792511e+21
1.000017197e+21
1.000295201e+21
1.000897662e+21
1.001795773e+21
1.001681259e+21
1.001891202e+21
1.004109471e+21
1.005040711e+21
1.006714496e+21
1.008473266e+21
1.010798848e+21
1.013133792e+21
1.017779913e+21
1.021787561e+21
1.030038369e+21
1.03780447e+21
1.049252322e+21
1.066202993e+21
1.086279766e+21
1.114299454e+21
1.149020403e+21
1.201340578e+21
1.263877394e+21
1.352488231e+21
1.47029055e+21
1.628118577e+21
1.823851993e+21
2.067299795e+21
2.353170549e+21
2.664316603e+21
2.987525214e+21
3.312712261e+21
3.637741941e+21
3.981453694e+21
4.375186689e+21
4.879754982e+21
5.581469397e+21
6.709779235e+21
8.790460304e+21
1.000972535e+21
1.002136087e+21
1.002098646e+21
1.002178208e+21
1.002006843e+21
1.002788065e+21
1.003658928e+21
1.003573966e+21
1.0040985e+21
1.005844547e+21
1.007011339e+21
1.009846416e+21
1.01368628e+21
1.018440568e+21
1.022836647e+21
1.029863317e+21
1.039437417e+21
1.050878886e+21
1.065351638e+21
1.084192748e+21
1.108928658e+21
1.14263997e+21
1.188658216e+21
1.250254443e+21
1.330173727e+21
1.440346069e+21
1.583606187e+21
1.771448472e+21
2.00190727e+21
2.274421327e+21
2.576030651e+21
2.89444595e+21
3.214315689e+21
3.545109203e+21
3.872580547e+21
4.247866586e+21
4.726659386e+21
5.392962183e+21
6.472193998e+21
8.520559807e+21
1.000414537e+21
9.997965496e+20
1.000286765e+21
1.000831328e+21
1.001687225e+21
1.002371079e+21
1.003326314e+21
1.004877582e+21
1.00661745e+21
1.00801611e+21
1.009458682e+21
1.010646787e+21
1.014086211e+21
1.018817759e+21
1.023068809e+21
1.02811169e+21
1.034789701e+21
1.04306253e+21
1.056904808e+21
1.076623548e+21
1.099141768e+21
1.132848915e+21
1.174753306e+21
1.23113632e+21
1.307704533e+21
1.408514638e+21
1.543445801e+21
1.712136299e+21
1.930851771e+21
2.191979846e+21
2.486790592e+21
2.794549208e+21
3.111456345e+21
3.422342331e+21
3.738232326e+21
4.094693198e+21
4.539099089e+21
5.167125082e+21
6.182893933e+21
8.150365706e+21
9.996051981e+20
1.0000694e+21
1.001041344e+21
1.001438255e+21
1.001965069e+21
1.003579699e+21
1.003643752e+21
1.004214468e+21
1.005459536e+21
1.006641271e+21
1.009156235e+21
1.011182529e+21
1.013789615e+21
1.016425488e+21
1.020859873e+21
1.026157528e+21
1.032115861e+21
1.042654677e+21
1.05647205e+21
1.073582017e+21
1.094544856e+21
1.124558187e+21
1.163586384e+21
1.215710104e+21
1.285251818e+21
1.376469587e+21
1.496597758e+21
1.654876102e+21
1.851889369e+21
2.101655366e+21
2.378971187e+21
2.678490597e+21
2.991113087e+21
3.290981548e+21
3.594071352e+21
3.92524787e+21
4.317492085e+21
4.877967989e+21
5.762039532e+21
7.616383052e+21
1.000267431e+21
1.000970796e+21
1.000765723e+21
1.001149246e+21
1.00080314e+21
1.001235593e+21
1.000918629e+21
1.001287401e+21
1.001832104e+21
1.001939318e+21
1.003839304e+21
1.00468838e+21
1.00766734e+21
1.011113291e+21
1.015048181e+21
1.022271439e+21
1.030262462e+21
1.039601933e+21
1.052325833e+21
1.066951159e+21
1.088038453e+21
1.114028798e+21
1.15156585e+21
1.195972499e+21
1.259553504e+21
1.344362115e+21
1.453342396e+21
1.597188019e+21
1.782609919e+21
2.008714769e+21
2.274895623e+21
2.557370092e+21
2.860532501e+21
3.15333475e+21
3.439374977e+21
3.725053267e+21
4.057126337e+21
4.471068635e+21
5.109594282e+21
6.52286535e+21
1.000592538e+21
9.999137342e+20
9.995284673e+20
9.999453901e+20
1.001028526e+21
1.001403721e+21
1.002007701e+21
1.002479303e+21
1.002844785e+21
1.003522869e+21
1.006646013e+21
1.008504719e+21
1.01097496e+21
1.015700685e+21
1.018739653e+21
1.022822907e+21
1.02863033e+21
1.036651508e+21
1.046270231e+21
1.060442371e+21
1.079091305e+21
1.105117507e+21
1.135856124e+21
1.17947906e+21
1.238421304e+21
1.312373129e+21
1.412402597e+21
1.545091982e+21
1.714770948e+21
1.920497014e+21
2.164397601e+21
2.437678119e+21
2.723685036e+21
3.003848198e+21
3.269021563e+21
3.524997084e+21
3.774875244e+21
4.034362774e+21
4.26823383e+21
4.019113973e+21
1.000073738e+21
1.000928361e+21
1.00075499e+21
1.001035188e+21
1.001579759e+21
1.002195188e+21
1.002318921e+21
1.003094412e+21
1.004735317e+21
1.005849995e+21
1.005660079e+21
1.007646645e+21
1.009056988e+21
1.011182755e+21
1.014001643e+21
1.018767172e+21
1.024738381e+21
1.033358345e+21
1.042875016e+21
1.055410202e+21
1.074937757e+21
1.095815947e+21
1.125839967e+21
1.165148658e+21
1.214922881e+21
1.285021731e+21
1.377500115e+21
1.493959733e+21
1.641820982e+21
1.82960779e+21
2.053221851e+21
2.314123507e+21
2.582139466e+21
2.851029112e+21
3.097235285e+21
3.314323136e+21
3.498846119e+21
3.630341486e+21
3.62660467e+21
3.225060737e+21
1.001243325e+21
1.001752599e+21
1.002425876e+21
1.001613412e+21
1.001465233e+21
1.002165484e+21
1.004406864e+21
1.005639407e+21
1.006309088e+21
1.007387339e+21
1.008755113e+21
1.009400337e+21
1.01048542e+21
1.013545019e+21
1.017107777e+21
1.021495228e+21
1.026061069e+21
1.031910164e+21
1.040849069e+21
1.050260203e+21
1.065108626e+21
1.084027642e+21
1.111949941e+21
1.149328692e+21
1.192855772e+21
1.254310295e+21
1.33492768e+21
1.440410645e+21
1.578190052e+21
1.74719916e+21
1.948291436e+21
2.184577908e+21
2.433948327e+21
2.690060509e+21
2.920676635e+21
3.114020109e+21
3.256195959e+21
3.315949306e+21
3.244564305e+21
2.939019841e+21
1.000538506e+21
1.000179599e+21
1.000244332e+21
1.002048937e+21
1.002293124e+21
1.002619305e+21
1.002353541e+21
1.001933497e+21
1.001856897e+21
1.002655268e+21
1.004866971e+21
1.006128541e+21
1.007728879e+21
1.010350916e+21
1.015102661e+21
1.018901396e+21
1.0238851e+21
1.029542025e+21
1.038374093e+21
1.048336107e+21
1.06281503e+21
1.081640759e+21
1.105631084e+21
1.136563999e+21
1.177124116e+21
1.230441983e+21
1.302099365e+21
1.394492451e+21
1.512444913e+21
1.66677108e+21
1.847135646e+21
2.057797306e+21
2.297103219e+21
2.52931442e+21
2.749453318e+21
2.918296888e+21
3.033990536e+21
3.068239927e+21
2.997128818e+21
2.779537514e+21
9.995171359e+20
9.996962162e+20
9.997393681e+20
9.994822548e+20
9.992014079e+20
9.99555613e+20
1.000928922e+21
1.001985784e+21
1.002856013e+21
1.004077212e+21
1.005296612e+21
1.007344889e+21
1.007790791e+21
1.009836551e+21
1.013883838e+21
1.017464366e+21
1.02176625e+21
1.027585282e+21
1.035691724e+21
1.045715548e+21
1.056688714e+21
1.073855614e+21
1.093780639e+21
1.120124508e+21
1.158582191e+21
1.206167936e+21
1.270224758e+21
1.352810281e+21
1.457844856e+21
1.592081752e+21
1.756078708e+21
1.949199594e+21
2.159170572e+21
2.377818676e+21
2.577733107e+21
2.744803556e+21
2.854138217e+21
2.889143748e+21
2.829008355e+21
2.678701695e+21
1.001153821e+21
1.002145886e+21
1.002143369e+21
1.001916118e+21
1.002613692e+21
1.003200876e+21
1.002797434e+21
1.003343986e+21
1.003452578e+21
1.003656816e+21
1.004768618e+21
1.006437041e+21
1.009149308e+21
1.01153616e+21
1.013268227e+21
1.016961411e+21
1.021307222e+21
1.026782454e+21
1.033887995e+21
1.0419349e+21
1.051676478e+21
1.067021655e+21
1.086317472e+21
1.110922757e+21
1.142453077e+21
1.186250262e+21
1.240154352e+21
1.311093976e+21
1.402840347e+21
1.522947393e+21
1.664532869e+21
1.837692174e+21
2.031256581e+21
2.231634915e+21
2.420945562e+21
2.578801041e+21
2.699156193e+21
2.739688446e+21
2.703383344e+21
2.592863258e+21
1.000225863e+21
9.992061771e+20
9.991335479e+20
1.000083481e+21
1.000967976e+21
1.001531752e+21
1.001681685e+21
1.002814989e+21
1.003707754e+21
1.00394254e+21
1.0034629e+21
1.004275844e+21
1.006179666e+21
1.007678633e+21
1.010663984e+21
1.013313154e+21
1.016692932e+21
1.022068937e+21
1.027618963e+21
1.035723599e+21
1.045692146e+21
1.058508696e+21
1.076323361e+21
1.098302704e+21
1.12820511e+21
1.166271477e+21
1.214103964e+21
1.276753541e+21
1.357667582e+21
1.458500021e+21
1.583282141e+21
1.73842797e+21
1.910740555e+21
2.097855848e+21
2.279605563e+21
2.427772511e+21
2.545938896e+21
2.605425145e+21
2.593740821e+21
2.516730064e+21
1.000188168e+21
1.000554888e+21
1.000397414e+21
1.000803323e+21
9.99769316e+20
9.997340821e+20
1.000493049e+21
1.00036254e+21
1.00108088e+21
1.001461981e+21
1.002599892e+21
1.004587371e+21
1.005411413e+21
1.006672643e+21
1.008039574e+21
1.011170717e+21
1.013991945e+21
1.018652167e+21
1.024645524e+21
1.031515774e+21
1.040610434e+21
1.052897356e+21
1.067464414e+21
1.087614606e+21
1.112963956e+21
1.147263793e+21
1.188139066e+21
1.242246104e+21
1.314101678e+21
1.404097314e+21
1.512473899e+21
1.642786099e+21
1.801333592e+21
1.962802263e+21
2.13391819e+21
2.286365905e+21
2.405597405e+21
2.477618722e+21
2.497110616e+21
2.458180398e+21
1.000053884e+21
1.000127943e+21
1.000569062e+21
1.001119471e+21
1.000984295e+21
1.000419146e+21
1.00057769e+21
1.001696844e+21
1.002526233e+21
1.002678665e+21
1.003035658e+21
1.003116548e+21
1.004820984e+21
1.007509758e+21
1.010435449e+21
1.013609921e+21
1.016135837e+21
1.018747676e+21
1.023836538e+21
1.028582427e+21
1.036543053e+21
1.046448987e+21
1.06048461e+21
1.077169461e+21
1.097011168e+21
1.125860754e+21
1.164094624e+21
1.210642159e+21
1.270721285e+21
1.347372735e+21
1.442258164e+21
1.554292571e+21
1.690674782e+21
1.840770495e+21
1.998927138e+21
2.14784258e+21
2.274963818e+21
2.363686889e+21
2.396933279e+21
2.391143373e+21
1.000987661e+21
1.000562382e+21
1.000589704e+21
9.999918692e+20
9.998886951e+20
1.000688923e+21
1.000880173e+21
9.997912729e+20
1.001084004e+21
1.001800471e+21
1.002422032e+21
1.003576e+21
1.005212046e+21
1.005841156e+21
1.006782305e+21
1.008811635e+21
1.013002947e+21
1.01780144e+21
1.023277215e+21
1.029102416e+21
1.035751212e+21
1.045125673e+21
1.055568542e+21
1.070702417e+21
1.089679616e+21
1.114162428e+21
1.143632466e+21
1.184641105e+21
1.233418714e+21
1.297534031e+21
1.380069334e+21
1.477800345e+21
1.597255071e+21
1.728067931e+21
1.872674483e+21
2.011498253e+21
2.141615497e+21
2.245204782e+21
2.304051031e+21
2.317434182e+21
9.99811539e+20
9.995688937e+20
9.991932428e+20
1.000024707e+21
1.000550978e+21
1.001523716e+21
1.002677629e+21
1.00351197e+21
1.002289397e+21
1.001523716e+21
1.001833583e+21
1.002172927e+21
1.002448285e+21
1.0031906e+21
1.005616334e+21
1.007938899e+21
1.010436887e+21
1.012663472e+21
1.016338021e+21
1.021239456e+21
1.028110452e+21
1.036015657e+21
1.048125275e+21
1.062483407e+21
1.078355645e+21
1.098846053e+21
1.126849118e+21
1.160999558e+21
1.204888163e+21
1.260412239e+21
1.328653446e+21
1.414156619e+21
1.515011152e+21
1.630373718e+21
1.758123057e+21
1.889961778e+21
2.013689316e+21
2.1249075e+21
2.203532847e+21
2.242151915e+21
1.000141605e+21
1.001120052e+21
1.001883901e+21
1.001910861e+21
1.001945009e+21
1.001125084e+21
1.001144495e+21
1.000163173e+21
1.00099496e+21
1.002977734e+21
1.003329644e+21
1.00399644e+21
1.005488193e+21
1.006537094e+21
1.007735888e+21
1.009080264e+21
1.011162608e+21
1.01361124e+21
1.016349596e+21
1.021398193e+21
1.026648087e+21
1.032791954e+21
1.042030761e+21
1.05360497e+21
1.067278059e+21
1.084056152e+21
1.107830747e+21
1.139643558e+21
1.175323065e+21
1.223555228e+21
1.283783965e+21
1.355284247e+21
1.442962685e+21
1.539917313e+21
1.655670191e+21
1.774987102e+21
1.89568721e+21
2.006160719e+21
2.090303522e+21
2.155182216e+21
9.998591501e+20
1.000146346e+21
1.00069306e+21
1.000579116e+21
1.000821381e+21
1.001172917e+21
1.000872782e+21
1.001815962e+21
1.002208475e+21
1.00223076e+21
1.002714572e+21
1.003407939e+21
1.004462188e+21
1.004983381e+21
1.00599917e+21
1.007088284e+21
1.009714381e+21
1.012165428e+21
1.015808751e+21
1.017955709e+21
1.024477099e+21
1.03033136e+21
1.038413455e+21
1.048506637e+21
1.063243834e+21
1.077903032e+21
1.095080853e+21
1.121198041e+21
1.154622723e+21
1.191913942e+21
1.243570334e+21
1.302455141e+21
1.377891258e+21
1.463529829e+21
1.562437628e+21
1.670881472e+21
1.782801497e+21
1.889034402e+21
1.981644386e+21
2.060500252e+21
1.000673425e+21
1.000522824e+21
9.990523959e+20
9.988964033e+20
9.98777432e+20
1.000069223e+21
1.001594644e+21
1.001736259e+21
1.002496813e+21
1.002730802e+21
1.003577259e+21
1.004231422e+21
1.005049125e+21
1.006784812e+21
1.007920251e+21
1.008139144e+21
1.010043404e+21
1.013077711e+21
1.014573659e+21
1.017037551e+21
1.02013368e+21
1.026347146e+21
1.033275158e+21
1.041960063e+21
1.052339681e+21
1.06551782e+21
1.083022417e+21
1.102838508e+21
1.128563628e+21
1.162291814e+21
1.204422034e+21
1.257239904e+21
1.315080806e+21
1.391120725e+21
1.479008173e+21
1.571504591e+21
1.672836157e+21
1.78104182e+21
1.877089765e+21
1.959675981e+21
1.000015677e+21
1.000386236e+21
1.000799925e+21
1.001442203e+21
1.001590642e+21
1.000951958e+21
9.998241079e+20
1.000783392e+21
1.000772968e+21
1.001491802e+21
1.001056189e+21
1.001913758e+21
1.003167044e+21
1.004175568e+21
1.00580157e+21
1.007920333e+21
1.009316308e+21
1.010686765e+21
1.01291479e+21
1.016919772e+21
1.020186153e+21
1.025063081e+21
1.030850412e+21
1.036886459e+21
1.047404794e+21
1.058354789e+21
1.072340778e+21
1.089611119e+21
1.111745809e+21
1.139599539e+21
1.173720782e+21
1.218978557e+21
1.272945003e+21
1.334090082e+21
1.408838013e+21
1.491036296e+21
1.58136423e+21
1.678619925e+21
1.772016201e+21
1.860178648e+21
9.997249261e+20
9.998223247e+20
9.997058776e+20
9.996483729e+20
1.000604749e+21
1.001422035e+21
1.001585923e+21
1.001107196e+21
1.002290716e+21
1.002580396e+21
1.002977897e+21
1.002459995e+21
1.002468621e+21
1.001510089e+21
1.001607847e+21
1.003134598e+21
1.004166448e+21
1.006429619e+21
1.008287382e+21
1.01087222e+21
1.014950743e+21
1.019647084e+21
1.024938957e+21
1.031866481e+21
1.038443586e+21
1.049270291e+21
1.062072283e+21
1.076938696e+21
1.098089299e+21
1.121878291e+21
1.150885837e+21
1.186219625e+21
1.22914835e+21
1.281714511e+21
1.346735838e+21
1.418443889e+21
1.497824869e+21
1.586278299e+21
1.672091903e+21
1.76033652e+21
9.992924053e+20
9.993987856e+20
9.999774085e+20
9.993768627e+20
9.987921301e+20
9.991389445e+20
1.000251266e+21
1.000430963e+21
9.996165778e+20
1.000792153e+21
1.000944895e+21
1.001198267e+21
1.002318854e+21
1.003480413e+21
1.004129836e+21
1.005876127e+21
1.006876318e+21
1.007935808e+21
1.010021726e+21
1.012198569e+21
1.014294909e+21
1.017427739e+21
1.02147127e+21
1.027447617e+21
1.03484177e+21
1.042201062e+21
1.052844128e+21
1.065511655e+21
1.083050755e+21
1.104242007e+21
1.12744658e+21
1.159665449e+21
1.197022201e+21
1.240672645e+21
1.292205297e+21
1.352963569e+21
1.421783746e+21
1.50187449e+21
1.584423841e+21
1.667984166e+21
9.997296219e+20
9.997321376e+20
9.996735583e+20
1.0008358e+21
1.001521861e+21
1.00213281e+21
1.001433093e+21
1.001130853e+21
1.000984225e+21
9.999042816e+20
1.000659703e+21
1.002059856e+21
1.002575569e+21
1.003758655e+21
1.005411454e+21
1.006809091e+21
1.007714375e+21
1.009610834e+21
1.010659511e+21
1.012372686e+21
1.0150986e+21
1.01765201e+21
1.021957767e+21
1.028223595e+21
1.034455641e+21
1.042371751e+21
1.050498101e+21
1.060982715e+21
1.074338434e+21
1.091657779e+21
1.110732705e+21
1.135986848e+21
1.165249899e+21
1.201920175e+21
1.245822299e+21
1.297865865e+21
1.356177416e+21
1.423108388e+21
1.497744873e+21
1.579602064e+21
1.00004772e+21
1.000140438e+21
9.992509924e+20
9.989645731e+20
9.988930581e+20
9.985419518e+20
9.992290707e+20
1.000073235e+21
1.000354264e+21
1.001059711e+21
1.002228388e+21
1.002151842e+21
1.003387722e+21
1.003605501e+21
1.003078302e+21
1.003098427e+21
1.004591977e+21
1.005998917e+21
1.008356756e+21
1.010976936e+21
1.013174135e+21
1.016319717e+21
1.018884913e+21
1.022275946e+21
1.027689523e+21
1.033266615e+21
1.042155317e+21
1.050800366e+21
1.06204583e+21
1.076115956e+21
1.094645886e+21
1.116193821e+21
1.14322613e+21
1.173859704e+21
1.21129403e+21
1.254049935e+21
1.303278485e+21
1.361525472e+21
1.42518424e+21
1.495911132e+21
1.000074085e+21
9.996579437e+20
9.995512132e+20
9.999605266e+20
9.995630722e+20
9.997830017e+20
9.998286407e+20
1.000510351e+21
1.001146062e+21
1.001188107e+21
1.000505679e+21
1.000860729e+21
1.000823355e+21
1.000795325e+21
1.0019133e+21
1.0026004e+21
1.00293281e+21
1.003875417e+21
1.005315021e+21
1.005865205e+21
1.008775319e+21
1.011900691e+21
1.016188958e+21
1.019518807e+21
1.02413625e+21
1.028892407e+21
1.03539183e+21
1.043920569e+21
1.053275842e+21
1.066055835e+21
1.08069984e+21
1.09649488e+21
1.118152913e+21
1.144617773e+21
1.175382401e+21
1.212785883e+21
1.255470909e+21
1.303982632e+21
1.359644582e+21
1.418874278e+21
1.000636932e+21
1.000331123e+21
1.000590575e+21
1.000258893e+21
9.996458369e+20
9.992882808e+20
9.994334594e+20
9.999721292e+20
1.000108683e+21
1.000525533e+21
1.000561108e+21
1.00052158e+21
1.000424554e+21
1.001766018e+21
1.002816407e+21
1.004286519e+21
1.00448596e+21
1.00547993e+21
1.006793364e+21
1.008407936e+21
1.009299131e+21
1.010839317e+21
1.012179703e+21
1.015674769e+21
1.019625853e+21
1.024089374e+21
1.029770023e+21
1.035599444e+21
1.044833733e+21
1.05512991e+21
1.06634603e+21
1.081559231e+21
1.099801057e+21
1.122335353e+21
1.147836825e+21
1.179089738e+21
1.215068141e+21
1.256210803e+21
1.305006961e+21
1.357315434e+21
9.997942199e+20
1.000245915e+21
1.000929747e+21
1.001283701e+21
1.002053416e+21
1.002675081e+21
1.001930161e+21
1.000856081e+21
1.000223995e+21
1.000532672e+21
1.000672097e+21
1.001468044e+21
1.001920818e+21
1.002051619e+21
1.00216086e+21
1.003450545e+21
1.004330579e+21
1.003919489e+21
1.003701367e+21
1.005049267e+21
1.006894858e+21
1.009846869e+21
1.012221055e+21
1.015089698e+21
1.018540838e+21
1.0230312e+21
1.028463045e+21
1.034993044e+21
1.040902097e+21
1.050146581e+21
1.06100452e+21
1.073736797e+21
1.088482119e+21
1.106544186e+21
1.127474537e+21
1.153198897e+21
1.183230714e+21
1.215840823e+21
1.25672986e+21
1.301646783e+21
9.99962845e+20
1.001034743e+21
1.000332601e+21
1.000054116e+21
9.992998707e+20
9.99196382e+20
9.998449829e+20
1.001219082e+21
1.002833937e+21
1.002801597e+21
1.003168119e+21
1.003397734e+21
1.003502301e+21
1.003274123e+21
1.003571294e+21
1.004453822e+21
1.005588245e+21
1.007175789e+21
1.009381032e+21
1.009610289e+21
1.009774864e+21
1.010715964e+21
1.0132173e+21
1.015351035e+21
1.018359034e+21
1.020642252e+21
1.023666421e+21
1.028568119e+21
1.03593414e+21
1.043487735e+21
1.052099933e+21
1.060391962e+21
1.073299658e+21
1.088676349e+21
1.106170246e+21
1.127259656e+21
1.153067861e+21
1.180666995e+21
1.215072306e+21
1.254203599e+21
1.000250799e+21
9.998508672e+20
1.000327695e+21
1.000555509e+21
1.001407834e+21
1.001495869e+21
1.001074019e+21
9.997768457e+20
9.998634437e+20
1.000286372e+21
1.001205533e+21
1.002882874e+21
1.003768976e+21
1.003622371e+21
1.004614834e+21
1.004512066e+21
1.004583213e+21
1.005518543e+21
1.005705393e+21
1.007227146e+21
1.009086308e+21
1.010197708e+21
1.010536914e+21
1.012014469e+21
1.015088158e+21
1.018210356e+21
1.022710217e+21
1.026597065e+21
1.03025538e+21
1.034943169e+21
1.0425911e+21
1.052000455e+21
1.063502894e+21
1.076980557e+21
1.091595851e+21
1.108690148e+21
1.132164307e+21
1.15311383e+21
1.180877285e+21
1.214443881e+21
1.000779087e+21
1.001584683e+21
1.001886512e+21
1.002207025e+21
1.002970221e+21
1.002740256e+21
1.002852724e+21
1.002376984e+21
1.002361892e+21
1.002915964e+21
1.001398555e+21
1.000213517e+21
9.99814672e+20
1.000891914e+21
1.000426594e+21
1.001149546e+21
1.001519287e+21
1.000787352e+21
1.002073718e+21
1.002541552e+21
1.00371581e+21
1.006367952e+21
1.008919484e+21
1.010741597e+21
1.01224068e+21
1.014271198e+21
1.017509031e+21
1.020732492e+21
1.024564641e+21
1.030080923e+21
1.037236424e+21
1.044705971e+21
1.053832701e+21
1.062518187e+21
1.073505837e+21
1.089642184e+21
1.10736493e+21
1.130329797e+21
1.152828625e+21
1.180325956e+21
9.997596839e+20
9.992695811e+20
9.995915255e+20
9.997198002e+20
9.99114358e+20
9.996569204e+20
1.000528613e+21
1.00181172e+21
1.00217247e+21
1.001521395e+21
1.001698895e+21
1.00145061e+21
1.002206605e+21
1.002165643e+21
1.002017965e+21
1.001218853e+21
1.000944698e+21
1.001715783e+21
1.001954367e+21
1.003568041e+21
1.004407755e+21
1.003693441e+21
1.004831026e+21
1.006422063e+21
1.0088503e+21
1.011562752e+21
1.01345166e+21
1.016953883e+21
1.021453558e+21
1.025605418e+21
1.030840607e+21
1.036771425e+21
1.044497011e+21