/*--------------------------------*- C++ -*----------------------------------*\
| =========                 |                                                 |
| \\      /  F ield         | OpenFOAM: The Open Source CFD Toolbox           |
|  \\    /   O peration     | Version:  v1706                                 |
|   \\  /    A nd           | Web:      www.OpenFOAM.com                      |
|    \\/     M anipulation  |                                                 |
\*---------------------------------------------------------------------------*/
FoamFile
{
    version     2.0;
    format      ascii;
    class       volScalarField;
    location    "0.008";
    object      surfaceHeatTransfer_Ar;
}
// * * * * * * * * * * * * * * * * * * * * * * * * * * * * * * * * * * * * * //

dimensions      [1 0 -3 0 0 0 0];


internalField   uniform 0;

boundaryField
{
    flow
    {
        type            calculated;
        value           uniform 0;
    }
    cylinder
    {
        type            calculated;
        value           nonuniform List<scalar> 
60
(
953.0003167
932.5646934
955.3526727
924.2813232
916.1516
902.3134604
920.7935245
898.5366593
888.9384773
880.0580349
863.5273949
845.1815401
843.8671505
836.3825647
842.9415523
813.9504464
818.4915079
800.3959592
798.9935897
793.7976762
778.0814128
770.8656302
769.6478548
750.1565998
756.8509234
735.7786293
732.314877
738.7427808
737.8040802
728.0945663
720.2331676
707.1531412
697.460862
695.3316017
688.9923727
680.3467279
677.4550261
671.2857363
665.7759043
665.4468964
6797.249838
6796.549479
6738.825703
6760.398649
6716.333918
6714.684836
6762.365653
6787.203447
6888.764791
6874.020413
6982.702591
7076.733788
7179.618411
7292.600222
7430.012131
7630.264201
7891.945627
8247.064471
8851.163733
10074.1529
)
;
    }
    wedgeFront
    {
        type            symmetry;
    }
    wedgeBack
    {
        type            symmetry;
    }
    defaultFaces
    {
        type            empty;
    }
}


// ************************************************************************* //
