/*--------------------------------*- C++ -*----------------------------------*\
| =========                 |                                                 |
| \\      /  F ield         | OpenFOAM: The Open Source CFD Toolbox           |
|  \\    /   O peration     | Version:  v1706                                 |
|   \\  /    A nd           | Web:      www.OpenFOAM.com                      |
|    \\/     M anipulation  |                                                 |
\*---------------------------------------------------------------------------*/
FoamFile
{
    version     2.0;
    format      ascii;
    class       volVectorField;
    location    "0.008";
    object      UMean_Ar;
}
// * * * * * * * * * * * * * * * * * * * * * * * * * * * * * * * * * * * * * //

dimensions      [0 1 -1 0 0 0 0];


internalField   nonuniform List<vector> 
4000
(
(998.7157592 -0.3743172087 -0.04534015247)
(998.2434032 -0.210879377 0.03777366602)
(997.6379399 -0.1470276425 -0.01787209609)
(996.9270656 -0.3174156988 0.08688911691)
(995.6167641 -0.1074315451 0.03369763458)
(994.7328616 -0.237865809 -0.08371765586)
(993.0725598 -0.3721618466 0.08037251953)
(991.6099259 -0.7948849361 0.004707934707)
(988.7570964 -1.11967225 -0.1396906528)
(985.3549194 -1.293513368 -0.04594277647)
(982.0987339 -1.000997972 0.002624368176)
(975.9323049 -0.8423134052 0.008315568135)
(969.7872769 -1.473278965 -0.0117743816)
(962.584318 -1.198688264 0.09256728104)
(954.6175179 -0.7190605838 0.01272125881)
(941.9069256 -0.05187852585 0.01889447263)
(928.0828675 -0.5139078937 -0.2005054972)
(908.7107919 -0.06947121325 0.02315363792)
(885.1077641 0.6366365367 -0.07494805418)
(855.373841 0.3916009815 -0.1156647414)
(817.0301301 0.6501606711 -0.0008335179742)
(774.004825 0.1294697218 -0.1369177344)
(720.917722 1.572231509 -0.09031435566)
(661.3512612 2.14245229 0.06936479967)
(591.8239566 3.020874635 -0.1998432755)
(520.0324825 2.623033701 0.1730750419)
(448.7546292 4.376793637 -0.03596880062)
(381.3931785 5.577324054 0.09629893918)
(322.5812359 5.558731905 -0.06752507886)
(272.5440635 5.798911796 0.1041665719)
(226.4992275 7.748350165 0.3118060885)
(186.570685 7.492395125 0.04600671981)
(151.5894264 7.153363357 -0.03324230309)
(121.0786211 6.616996267 -0.1028055975)
(93.92140029 5.92265173 -0.06501275686)
(68.71615331 6.213287947 -0.050260084)
(45.31545698 5.518787454 0.1238419722)
(26.25220294 4.032724827 0.2452342373)
(12.13630786 3.174926941 -0.03591483319)
(2.568377855 1.962034822 0.1094696136)
(998.8883442 -0.005753380038 0.02187270123)
(998.3584262 -0.02524778357 0.03697442613)
(997.9901522 -0.03884754728 0.02083934876)
(997.2864412 0.1651615094 0.02781491532)
(996.5694339 0.3257490834 -0.0114144486)
(995.4146954 0.1717157449 -0.0425175495)
(993.2235289 0.07514157213 -0.0679205091)
(991.7711209 0.2901322467 0.02728451731)
(989.7000972 -0.1867486984 0.07962815917)
(986.9084353 -0.3338520917 0.02598589345)
(984.010264 -0.386676116 0.02335260512)
(979.2267134 -0.7678025587 -0.08166879439)
(973.6611623 -0.9127979472 0.05015378695)
(966.5318291 -0.7460088238 -0.0709153776)
(957.3676302 -0.3493381845 0.06758541222)
(944.8217895 -0.1516279577 -0.1566886262)
(929.9091452 -0.2874800548 -0.1269879411)
(911.8000626 -0.4785836275 -0.02592023767)
(888.6154361 0.3882120963 0.07611021763)
(858.2370947 0.3219674793 -0.06521063543)
(821.6364744 1.873391406 0.04226374632)
(775.1145024 3.01416251 -0.1678675886)
(723.5272492 4.17214805 0.2134266411)
(660.976393 5.832861359 -0.1467880314)
(590.9220525 6.384756225 0.01862873517)
(518.075677 8.491173545 0.02998914913)
(444.8091709 10.89100392 0.1941457067)
(376.7740961 11.43319135 -0.1879306249)
(317.8555838 12.60425557 0.1266276852)
(265.1726892 14.30159937 -0.02934206219)
(221.0288317 15.65515333 -0.01812957021)
(183.1649179 16.33880952 -0.003363622145)
(150.1079598 15.89106246 -0.009339244502)
(119.9983495 15.12198845 -0.008456959267)
(92.3701626 14.25259369 -0.03357540104)
(67.30246094 14.0841964 0.1065136959)
(44.94051672 12.24246722 -0.07788885769)
(25.40149411 10.49731528 0.03934956625)
(10.85336381 7.346456126 0.04120821738)
(2.227692125 4.107612988 -0.01954048385)
(998.8365014 0.06808642503 0.01283396396)
(998.6172345 0.1418015842 0.09169421348)
(998.2241635 0.3069865875 0.07560808844)
(997.7818545 0.3803796279 -0.003165097397)
(996.9534582 -0.02348643934 -0.147055661)
(995.8861413 0.1220449844 0.0137850909)
(994.2698877 0.3230368828 0.02446503835)
(992.9069026 0.3795372577 0.04978045454)
(990.8013792 0.3673677553 0.02342427121)
(988.5600594 0.3484294547 -0.1584137765)
(985.4964979 0.5175869531 0.01604894021)
(981.2861296 0.07305967405 0.2080602052)
(975.563502 0.04544943805 -0.02076620055)
(968.0163819 -0.04489354326 -0.01953492695)
(960.0242682 -0.07387307048 -0.02721246891)
(948.8455032 0.7216344156 -0.008015330076)
(934.4476347 1.148699686 -0.08787068326)
(915.1702931 1.310605455 0.289865962)
(892.2280419 2.606318035 0.04475032688)
(861.9235364 2.589715681 -0.08456773391)
(825.5185045 3.828756032 0.04174124133)
(779.2909491 5.75445884 0.03174993889)
(726.1584952 7.180245365 -0.04473679507)
(661.9793796 9.871131064 0.113714559)
(591.3163744 11.80656596 0.01932050738)
(517.8413874 14.66271892 0.04869001848)
(444.3583436 17.73392916 0.03563236913)
(376.5981824 18.7648815 0.005840931706)
(315.9033569 21.24919861 -0.02814649532)
(263.3340738 22.69590622 -0.06572031931)
(218.9623725 24.5782103 -0.1133887448)
(181.6599677 25.84799616 0.002739315662)
(149.1473425 25.11330285 0.01161340266)
(119.225521 24.62717996 0.007159750131)
(92.01780541 23.66188565 -0.07625112569)
(66.78260352 22.12466709 0.04042859176)
(43.98500602 20.29507565 -0.02303610069)
(25.23616508 16.57915074 -0.02335005491)
(10.46428223 12.39783352 -0.03776569222)
(1.699151286 6.171319686 0.02295508406)
(999.0954867 -0.1151528235 -0.1572689859)
(998.3943151 -0.1139593585 -0.09382620052)
(997.6033078 -0.03614515838 0.05547748494)
(997.2905904 -0.00218832979 0.0767255999)
(996.5033919 0.07992087673 0.1583164133)
(995.4695753 0.07644961651 0.05608496718)
(994.4719887 -0.01794493838 -0.1765087542)
(992.4768046 0.01654694322 0.08214983134)
(990.6618965 0.4751915286 -0.02429952559)
(988.4356954 0.3728107233 -0.03486584565)
(986.0731036 0.5450584408 0.09198911668)
(982.4152936 0.653614927 -0.1068531622)
(976.2529176 0.5317484405 0.1437354595)
(969.997916 0.8362112296 -0.05105803195)
(961.4381895 1.414126918 0.01426486362)
(950.5892334 2.128050359 0.1241481288)
(935.8507358 2.641973009 -0.04524954947)
(916.5743591 3.025118805 -0.08434972993)
(893.4256606 3.873932836 0.03344230124)
(862.9462634 5.201696275 -0.1175670523)
(827.8616899 6.875915398 -0.1555587685)
(782.8712375 8.876809582 0.1867593009)
(729.5078918 12.03036626 -0.3020590513)
(666.7830982 14.47867527 -0.02377704057)
(596.3421389 17.91663914 0.0592178583)
(522.190381 20.69157892 0.1246318467)
(448.6526491 24.31367959 0.05638165821)
(380.8268796 27.29304365 -0.1630904815)
(318.4287185 30.34375117 -0.2082223963)
(264.3584985 32.25553032 0.01812972051)
(219.5982839 33.88142767 -0.1419013881)
(182.3343851 34.95090531 0.2235584934)
(149.3503558 34.40787488 0.03091468486)
(119.3376553 33.97054756 -0.02522694931)
(91.81867883 33.30864039 -0.1454259812)
(66.42097926 30.52108313 0.1017226776)
(43.88180969 28.20732027 -0.01707874973)
(24.80329646 23.18074101 -0.07817660981)
(10.54361267 17.5175724 0.07423134921)
(1.972295562 8.212239152 0.004709754376)
(999.4427602 0.06908519496 -0.09591910959)
(999.184022 0.01578860382 -0.1932711976)
(998.7832484 0.09405305384 0.08785772546)
(998.4139527 -0.07966619212 -0.0379311468)
(997.5071658 -0.1223490254 0.3356377049)
(996.7846062 0.08266383999 0.07584511711)
(995.3412563 0.2207399565 -0.234533383)
(993.8667115 0.3153592465 -0.1017681997)
(991.5580506 0.3622971905 0.09534083794)
(989.0912095 0.4402069642 0.08784175087)
(986.0919399 0.6146497497 -0.2698552493)
(982.3028789 1.011234393 0.1538891355)
(976.8712798 1.079913968 -0.06873607242)
(970.1681452 1.581550572 0.08096325533)
(962.1190305 2.292486521 0.0226047426)
(951.4655838 2.754950753 -0.01496642264)
(938.6551475 3.570451168 0.02813521986)
(919.5274793 4.751832406 -0.1949618309)
(896.4384391 5.725127849 -0.05017734035)
(868.7653873 7.124700686 0.274589132)
(830.4414369 9.387700579 -0.196742337)
(786.3118974 11.82117571 -0.08017339675)
(733.7770507 15.62274496 0.2436220744)
(672.573975 18.77132149 -0.1541337056)
(602.8413564 22.85036216 0.09421327515)
(528.2620873 26.63667587 -0.07715810527)
(454.9589993 31.39828096 -0.08715325724)
(384.5107965 35.34063126 -0.09356995097)
(321.3630381 39.05582988 -0.1465930922)
(268.2250619 41.97505663 -0.1599503481)
(223.2095928 42.96034482 0.1113968485)
(184.0258514 45.01646736 -0.1202831617)
(150.4537027 44.8786168 0.03865699401)
(119.9097269 43.60434715 0.2194347218)
(91.81893335 42.45487201 0.03897091438)
(66.66533364 39.61838329 0.01725577515)
(44.50619583 35.8844398 -0.1625682764)
(25.52567083 29.4976663 -0.011568295)
(10.89314125 21.75014138 -0.1749545341)
(2.384346684 10.83593312 0.03905823991)
(999.1763058 0.05455673309 -0.05177911971)
(998.851105 0.1318777308 0.2351321797)
(998.2720624 -0.1028919477 -0.03482788226)
(997.7219062 -0.1719219554 0.05715143801)
(996.8945484 0.01171067114 0.05685827375)
(995.7059927 0.1731770096 -0.1147358945)
(994.4542943 0.2591436907 -0.1535921465)
(993.3182659 0.481306683 -0.01419585584)
(991.5349752 0.5480114177 0.1210342428)
(989.1526463 0.4601239601 0.1902650222)
(986.1831407 0.6633776507 0.1845646712)
(982.5631162 1.15264308 0.003898418623)
(976.5798155 1.456448293 -0.2711709718)
(971.1699557 1.650417622 0.2498663498)
(963.101515 2.253898395 -0.01936037073)
(952.9966854 3.298350237 -0.09509618287)
(939.0696955 3.977254141 -0.03017683294)
(921.531041 5.14256886 0.2303401326)
(897.9017068 6.664246145 0.2957335514)
(871.1108731 9.84587088 0.07132186139)
(834.9761247 11.91748352 -0.2992265878)
(792.8517098 15.23662246 0.05081949155)
(740.8774143 19.18048614 -0.008899416026)
(679.0472427 22.67352536 0.05670402183)
(609.1919428 27.88727763 -0.1024838774)
(535.5813786 33.11941412 -0.3134713135)
(460.9278571 38.26265568 -0.00788009614)
(390.6235654 44.24311795 -0.3023231324)
(327.0975373 48.16754753 0.1345712161)
(272.7456975 50.91098256 0.2845247126)
(226.2553724 53.48125465 0.1635237983)
(187.6619185 54.59462234 -0.1757222309)
(153.2209165 54.9166686 -0.08037384565)
(122.6387141 53.58878499 -0.03729896255)
(94.51872542 52.44465908 -0.0703380459)
(68.86599973 48.81129976 -0.1117589422)
(44.79248278 43.72400945 0.2193580593)
(25.55743531 36.63651799 -0.07967429626)
(10.95746678 26.84809351 0.03579191642)
(2.040069851 13.36404552 0.01085819115)
(999.200845 -0.1542596556 -0.4644282882)
(998.4548843 -0.1553997867 0.06777503335)
(997.947589 0.04546832664 0.3058580163)
(997.1966741 0.1651678425 0.02467312133)
(996.4603947 0.1117301694 -0.06566441808)
(995.7201713 -0.02347817913 0.1737661365)
(994.6850194 0.1679314345 0.2278312155)
(993.0959879 0.3900711506 0.008306838452)
(991.5336335 0.6356739197 0.1162855062)
(989.7271248 0.8831124439 -0.29426443)
(986.6805134 1.382035597 0.2588132492)
(983.1587333 1.504962737 0.1700656019)
(978.0680736 1.715223682 -0.1574914893)
(972.2375401 2.115372419 0.08382920325)
(964.7096069 2.946432423 -0.1487159072)
(954.2919946 3.725809535 -0.1975564006)
(940.8689235 5.001740698 0.02478402907)
(923.6145217 6.380581109 -0.2666914302)
(900.6078523 8.278760688 -0.03412332269)
(872.8684061 11.08953495 0.03385910203)
(839.5129782 13.8640361 -0.3925190772)
(795.7167655 17.3304762 0.02474893239)
(744.721441 21.13874689 0.3426068383)
(684.1229775 26.51200648 -0.1907895559)
(617.5542379 32.72113608 0.3513435344)
(543.1293105 39.04797248 0.04594223475)
(467.7895395 45.67219835 -0.04852226938)
(398.0834468 51.95714514 0.2671423218)
(335.2863102 56.89984824 -0.1098061438)
(279.7242752 60.75019029 0.0570900354)
(231.4580898 63.50279456 0.05110439868)
(191.7398844 64.64795275 -0.04223627022)
(157.0377116 65.39583505 0.06951647632)
(125.6511805 64.19785012 -0.05100808242)
(96.61361671 62.08029322 0.1042087678)
(69.54061345 58.65573908 0.09218598988)
(45.95000069 52.68661265 -0.1643611886)
(25.94967053 43.60350157 0.09401468602)
(10.76901815 31.85344649 0.09718494899)
(1.899076605 15.70713721 -0.05880851911)
(999.1032239 -0.1635437586 0.04851740058)
(998.8016338 0.01547868421 0.1758155944)
(998.3958329 0.1151228432 0.01888603395)
(997.8609237 0.1681276128 -0.2131122741)
(997.1116655 0.2695733919 0.08412478455)
(996.3014036 0.3000977939 -0.1010162407)
(995.2624313 0.5170360071 -0.07437867626)
(993.8227155 0.5506694429 -0.02960705874)
(992.098834 0.7472932032 0.03271880849)
(989.798795 0.6951571198 0.03138586279)
(987.1692405 1.163684919 0.01981111237)
(983.6839888 1.406753154 0.3375401213)
(979.1994369 1.990708509 0.2485074677)
(972.9618349 2.439140124 0.3557435643)
(965.5525647 3.435237536 -0.1268891922)
(956.1719356 4.587734345 -0.4267814784)
(942.8118479 5.890914483 -0.2833438266)
(926.6599084 7.554445745 -0.04215405307)
(905.0990884 9.651836073 0.5719371925)
(877.9601317 12.35892403 0.2520226837)
(844.3691673 14.98032054 0.1293194389)
(801.9980023 19.06761219 0.1495162445)
(752.9890358 24.43575162 -0.1874100567)
(692.6719445 29.828422 -0.1575504493)
(623.0912023 37.59610946 -0.1973727359)
(550.7245742 44.25940478 0.1652139291)
(476.7114998 52.21462628 -0.09934622937)
(406.5550417 59.14611714 -0.0398902535)
(341.5097796 65.5289972 0.1321718155)
(285.6439602 70.25701927 0.01178145846)
(237.4344177 73.36302406 0.1668914693)
(197.725806 74.53377929 -0.1548269624)
(162.0328124 76.02491996 0.06133171607)
(129.8084498 74.89241381 0.1443573335)
(99.46144646 73.22417797 -0.2502955205)
(72.08232801 68.26460824 0.1218793142)
(47.86225985 61.75877111 -0.08425519137)
(26.55647969 51.238444 0.1638199956)
(10.8798328 37.53307373 -0.0368925747)
(2.117890763 18.00695525 0.02788084654)
(999.2378854 -0.06285558466 -0.1445257182)
(999.0668496 0.06346742315 0.2103441198)
(998.432463 0.09752936475 0.1590616121)
(997.945881 0.1600240979 -0.005494130085)
(997.5611427 0.2576883297 -0.3064072505)
(996.7881221 0.4276721009 -0.186200476)
(995.4773931 0.2918989355 -0.1965789817)
(994.2244641 0.7672059539 0.01741781479)
(992.0362938 0.7557600469 0.1920033617)
(990.2320168 1.053388161 0.3391006144)
(987.5446961 1.409694664 -0.0450102066)
(984.6963885 1.677972825 -0.2913078637)
(980.2167576 2.047700398 -0.1293309732)
(974.4330843 2.644268935 0.118602906)
(967.4376865 3.806887163 0.06107154076)
(957.5016737 5.002236659 0.03236106783)
(945.8461926 6.186802094 -0.08761646288)
(930.2620595 7.967223264 -0.1949747972)
(908.946067 10.2890279 -0.02561860637)
(883.6010889 13.46299829 0.01245064074)
(849.7995207 17.20053716 0.06090098119)
(809.2980071 21.33494619 -0.3732637328)
(759.2837369 26.62054705 -0.151866626)
(701.0965227 33.39977859 -0.1123114459)
(632.772321 41.24938086 -0.04142492532)
(561.1338226 49.90903218 0.5897405962)
(485.9377837 58.53741504 0.05342836243)
(415.9844781 66.93906324 -0.2426539698)
(350.8295089 73.4847908 -0.1864426822)
(293.7008031 79.72062785 0.1262393909)
(244.3889199 83.91432427 0.09345665701)
(202.8013029 84.64122023 0.01245434139)
(166.4724052 86.76846152 0.2118353551)
(132.8508126 87.0506877 0.02859184534)
(102.6934694 83.9838295 0.02152065306)
(74.68989925 79.05921622 0.1242059001)
(49.23395006 70.98483973 -0.04754933237)
(28.23694338 59.40713012 0.08302710705)
(12.03790198 43.23022454 0.219870351)
(2.189848615 20.6051255 -0.1009062248)
(999.554084 -0.02474961558 0.06953792016)
(999.2517819 -0.09995336679 0.01294950147)
(998.9420678 0.07943540537 -0.1607221426)
(998.4162493 -0.1214146168 0.01496282374)
(997.5970544 -0.0279451922 0.4835729864)
(996.5720937 -0.01729472991 0.3214760078)
(995.6376812 0.04283469937 0.2376586366)
(994.3733651 0.289758454 -0.03211018106)
(993.2706251 0.8077683254 -0.1531611203)
(990.9933105 0.9767272664 -0.2035115316)
(988.6171096 1.306616329 -0.2334003288)
(985.3195681 1.792269909 -0.03313026908)
(981.3090875 2.303521183 0.1298652431)
(975.2185302 3.206925826 0.104626061)
(968.6850922 3.835017125 -0.03653504962)
(959.5377532 5.092875804 -0.07512522155)
(946.8444448 6.602173586 -0.5081711243)
(931.963683 8.419170294 -0.09137430637)
(912.1650815 10.77250948 0.08768602072)
(887.400775 13.95740536 -0.02477288252)
(855.3493358 18.00631671 0.00428740592)
(816.4011077 23.47836139 -0.1460156249)
(766.6946665 29.71599638 0.5337443527)
(708.4252376 36.29503157 -0.05799786776)
(643.6974552 45.80028756 -0.2801396174)
(573.5967578 54.86031299 0.1846690495)
(499.3615357 64.87745722 0.3631797985)
(426.5723833 73.86312856 0.1135520687)
(361.6044225 81.38808866 0.01685606371)
(302.6525508 88.51746051 -0.1097627616)
(253.0855223 94.04516907 -0.4884941921)
(209.98477 96.81971344 0.03137991865)
(171.2718317 98.24033209 0.2154644278)
(137.717188 98.03185931 0.02574272567)
(106.8748347 95.18353915 -0.03878430861)
(77.35051871 89.91355752 -0.2381207951)
(51.42922783 80.92432029 -0.0743487484)
(29.55399049 67.58834651 -0.1180625417)
(12.73751162 49.01040345 -0.08714824771)
(2.645146051 24.00768701 0.01108310267)
(998.9700296 0.3153761895 0.1232273023)
(998.7427262 0.1678182334 0.1035468821)
(998.4541289 0.1272612009 0.07079842862)
(997.8995724 0.3490768165 0.084585095)
(997.5171043 0.6667381137 0.168371308)
(997.0962667 0.4229522983 0.134356844)
(996.0575898 0.2482256348 -0.0753115107)
(994.5185531 0.48190842 0.08428942124)
(993.0202257 0.4717770419 -0.08862879596)
(990.6634195 0.8966197679 -0.1055904595)
(988.0307737 1.534857748 -0.120017985)
(985.4283749 1.534758709 0.1542718552)
(981.0571323 2.243108443 0.2427005194)
(976.401173 2.769953072 0.1310850495)
(969.2285776 3.66285866 -0.03715189172)
(959.6239404 4.845761645 -0.1446630148)
(949.3116719 6.460673486 -0.1507142024)
(933.7940423 8.597106867 -0.06560760968)
(916.4610096 11.79798496 -0.2459632846)
(891.3683953 15.33590387 -0.4099386623)
(861.0079535 19.80506953 -0.2994407382)
(824.2280321 24.70801544 0.1553972466)
(776.3975603 31.77987831 -0.410108554)
(719.0890236 39.3247385 0.02706139778)
(655.1501456 49.22147937 0.2152625966)
(585.2095365 59.21563459 -0.0419313508)
(511.7863474 70.17747314 -0.04754360865)
(439.127575 80.97979623 -0.3967120293)
(372.4290901 90.21229437 0.281016821)
(313.318593 97.69725675 0.3187545389)
(261.8065391 104.0469149 -0.6187055239)
(218.0933479 107.6635099 0.212702881)
(179.7354599 110.3678944 -0.2728429596)
(144.8032522 109.3513788 0.1165530851)
(112.5474676 107.4698179 0.181880783)
(82.87974181 101.9667569 0.4687619361)
(55.34374088 91.59351989 0.09372010259)
(31.57020561 76.85490127 0.137394104)
(13.64894259 55.99942911 0.02349538289)
(2.384298629 27.22214474 -0.03937213786)
(999.2432266 0.1852807853 0.02716219153)
(999.126685 0.3004025056 0.02281127685)
(998.8487122 0.2456464493 0.244610454)
(998.3410869 0.1708767469 0.2010555728)
(997.6342375 0.1994890749 0.245347154)
(996.7559543 0.6902475637 0.3231919536)
(996.0076561 0.6352375126 0.1495503088)
(995.2139513 0.7157473445 -0.03244764697)
(993.7296883 0.9721745363 -0.1940241692)
(990.9727085 1.347556087 -0.1798250314)
(988.8201042 1.537191116 -0.285586161)
(985.9113481 1.779476337 0.05550141955)
(982.1299253 2.140813948 0.02703091447)
(976.6889529 2.815309499 0.2235517049)
(970.1241829 4.127519029 0.3439377744)
(960.8446646 5.345303061 -0.296011547)
(949.6689768 7.566006388 0.2106596655)
(936.2053701 9.784166616 0.2270937361)
(917.9952849 11.94551817 0.06431588693)
(895.2941009 15.74802952 -0.03520523098)
(866.8050785 20.2001562 -0.2305726943)
(830.1030607 26.48075946 0.1824728341)
(784.9347732 32.95489661 0.3740291263)
(728.7915102 42.28188027 0.388648972)
(666.1818399 52.46129539 -0.3020814299)
(596.9951113 62.80882789 0.1080117301)
(525.3387008 75.08340334 -0.3299915456)
(453.5143982 87.27435213 -0.1411775676)
(385.5593751 98.22320731 0.1791019602)
(324.0899724 106.66696 -0.0615603867)
(271.8764541 114.3728497 0.07832949115)
(227.105546 118.8205925 -0.1084361056)
(188.1479604 120.9781093 0.02593079831)
(152.9893156 121.9695034 0.3249199807)
(119.2342703 119.8766945 0.1040512553)
(87.98415692 114.6927116 0.01204237936)
(59.30795501 103.4928596 -0.204849542)
(34.22846345 86.95543107 -0.2856369344)
(14.96906115 63.50456977 0.3349179653)
(2.883129882 30.97378142 -0.1363305278)
(999.1941923 -0.1922701481 0.05478665193)
(998.8338735 -0.04022621758 0.1465647828)
(998.3757733 0.3431789942 -0.06150570941)
(997.8107309 0.4331235201 -0.02559206311)
(997.3335085 0.3824873197 -0.2468571738)
(996.492601 0.4672555235 -0.2818463567)
(995.5474654 0.6101745677 -0.3092383919)
(994.6061322 0.8277707139 0.1198871953)
(993.1428443 0.9840453108 -0.3269103358)
(991.6137585 1.252597078 -0.327704527)
(989.3384753 1.686104268 0.1538273794)
(986.3887311 1.935602336 0.1884515114)
(982.5175729 2.654047496 0.2000688128)
(978.1560745 3.341545499 -0.05236848382)
(971.6315915 4.523206018 -0.2289418682)
(962.9974151 5.906151818 -0.3319812153)
(952.8336393 7.467102932 0.216314501)
(939.5973484 9.739415437 0.0548448686)
(923.1467401 12.40844768 -0.03067863285)
(901.0113113 15.94984178 -0.2838723363)
(872.1567558 21.36181272 -0.3465759532)
(837.4555895 26.98500754 -0.00123078913)
(794.2772045 34.63281631 -0.05936637401)
(742.5199399 43.51694667 0.1406806288)
(680.2610704 55.41401641 0.003283423056)
(612.4146651 67.10030382 0.1964841943)
(540.5824193 80.16162038 0.1300083349)
(467.0008908 92.95642019 0.1906205187)
(399.4310144 105.1730747 -0.054881247)
(337.6503583 115.3592663 0.1559938721)
(284.6780218 124.218713 -0.001033634305)
(238.5714422 130.1811239 0.05509512789)
(197.2158769 133.1525356 -0.4319286783)
(160.262077 134.6894266 -0.4883979989)
(126.2630824 133.2379402 -0.08743424158)
(94.10309127 127.6886032 -0.2732593059)
(63.94589931 116.4895794 -0.0146880995)
(37.54335738 98.38408151 -0.07504132065)
(16.63297175 72.25532081 -0.1052745128)
(3.579922707 35.70804485 0.1078103183)
(999.4226522 -0.2464688683 -0.1588412921)
(998.9031133 -0.006904552236 0.05554521932)
(998.8088326 -0.2408953933 0.0790448823)
(998.258701 0.1818004419 -0.1348655422)
(997.6155028 0.3665191144 0.008233858546)
(996.6059454 0.5567581907 0.006937420392)
(996.1100774 0.6559103092 -0.01654098141)
(995.115618 0.6875108152 0.1309524836)
(993.9507232 0.7235785055 0.2615030929)
(992.0384761 0.8188220355 0.2913250957)
(989.436017 1.208793139 0.0465344283)
(986.6010232 1.856257288 0.1944944914)
(983.0545937 2.454953058 0.06526584925)
(978.5859362 3.183655016 0.1468029661)
(973.1063919 3.970664346 0.1703392059)
(965.257843 6.121960762 0.07293124456)
(955.5319392 7.625759427 0.2063185057)
(942.152942 10.10539583 0.1653832916)
(926.412388 13.2746134 0.08231190476)
(905.1847283 16.33768769 -0.1066926952)
(877.5550988 21.8162429 -0.03581434214)
(844.1806365 28.05741728 0.05404625539)
(804.1593784 35.89423833 -0.7192879239)
(753.4923346 46.21976654 0.2512470685)
(693.7819176 57.35277271 -0.01546442628)
(629.1235645 71.04382378 -0.09647637499)
(557.3200527 83.40527261 -0.2818170202)
(485.7328891 98.49197146 -0.2735693686)
(416.1421743 111.8316659 -0.1386342673)
(352.8593461 123.9920495 0.2211732223)
(297.3878516 133.5622478 -0.1137308655)
(249.935253 141.8015366 0.2089939411)
(208.5699908 146.2866846 0.3310921288)
(169.6241282 148.1266269 0.144797379)
(134.5565029 146.5948599 -0.3940978534)
(100.9694576 141.9185877 -0.1968746112)
(69.6495031 130.5907664 0.2518121929)
(41.37984659 110.8950169 0.07507324791)
(18.03871027 82.2695813 -0.1030402671)
(3.322519196 41.12187973 -0.1825666934)
(999.3064387 0.2679366774 0.2681392719)
(998.9584126 0.1760109587 0.08649349642)
(998.5353811 0.07550290871 -0.002744498216)
(998.169882 0.1536228647 0.07575871111)
(997.5770383 0.3124123153 0.04350180321)
(996.8077827 0.1919221712 0.0319449373)
(996.2510011 0.2579531191 0.2490526271)
(995.5256774 0.7703187387 0.08996433263)
(993.9020671 1.10565338 -0.1210486257)
(992.447793 1.324258513 -0.2061343854)
(989.8824146 1.676140968 -0.2183347228)
(987.3735078 1.901381752 -0.2833222343)
(983.692294 2.731951518 -0.09674533203)
(979.7700465 3.734107455 -0.0101812067)
(974.7941316 4.778042208 0.2559774458)
(966.802279 6.02365828 0.1871068474)
(957.4627377 8.029250561 0.04445725129)
(945.1647461 9.777626519 -0.09605068332)
(929.4350868 13.18103607 0.133548229)
(909.6053966 16.95803753 0.5336342833)
(884.6305458 21.94351136 -0.07555188352)
(852.8432422 28.84277164 0.02744519839)
(812.2294587 36.77999676 0.08926874996)
(765.0717962 46.97009733 -0.1336283513)
(707.4513983 58.84613326 -0.2165800903)
(644.5995264 72.27423208 -0.08429799382)
(574.2708375 87.53991659 -0.1576910238)
(502.9644168 103.601677 0.09724653084)
(434.0327089 118.9428703 0.08799659891)
(369.9659887 131.8615529 -0.09660807935)
(313.9353936 143.5861741 0.2394976408)
(265.2488916 152.9132133 0.1828849349)
(221.9422966 158.9314076 0.3779493067)
(182.4060798 162.4504652 0.4678869617)
(145.8111165 161.8838738 -0.3581530731)
(110.0171997 156.5698008 0.1880696673)
(76.64729655 146.1369315 0.1131791664)
(45.48831366 125.6618325 0.153667961)
(20.40610958 94.05741932 -0.07065545335)
(4.184569224 47.15151662 0.2018391911)
(998.9515622 0.2185906923 0.04445467539)
(998.6887365 0.3851151579 0.2749447787)
(998.4102366 0.398247533 0.2581911186)
(998.0464597 0.3439525589 0.1765257657)
(997.2871229 0.5044816618 -0.09511102827)
(996.9358386 0.3087230723 -0.1870402917)
(996.5584414 0.4244275168 -0.2647542623)
(995.3065372 0.4683931352 -0.3014810885)
(994.2767141 0.987290269 -0.07580783442)
(992.4482341 1.668496341 0.09398956932)
(990.5981058 2.023189874 0.2736581672)
(988.4083874 2.338450116 0.2427457491)
(985.1541637 3.019718869 0.2765028575)
(980.3158378 3.850603679 -0.04460880756)
(975.5736379 4.573129131 -0.02858130167)
(967.5499248 5.965143573 -0.006713640966)
(959.4233463 7.59626628 0.000595816295)
(948.0546868 10.17938314 -0.2442142213)
(932.5518168 13.2562727 0.3148429238)
(914.0661543 17.10499655 0.2183292742)
(889.3376381 22.3019142 -0.03242615353)
(860.7502986 28.99880732 -0.1564925483)
(821.6153855 37.18224626 -0.1215916389)
(778.0749506 47.36411858 -0.07961218254)
(723.2136804 60.45474024 -0.005604506527)
(660.2429925 74.81588871 -0.2785325496)
(591.8511219 90.23983924 -0.1445642804)
(522.4024092 107.4436947 0.0973069075)
(452.8092742 124.6478814 -0.05329030992)
(388.4713573 139.6640417 0.4130521456)
(330.9225298 153.5610439 -0.06249262127)
(280.8787139 163.8091857 0.01885582903)
(237.1769254 171.9487629 -0.2456359616)
(197.0537721 176.5508316 0.2484055202)
(159.4634904 178.0644228 -0.09302407307)
(121.8337366 174.2189213 -0.001614283774)
(86.06560748 163.1555749 -0.05924053524)
(52.57389954 143.0928589 0.3657320936)
(23.74223111 107.8472339 -0.0895744733)
(4.713412681 54.96120727 0.154526611)
(999.5121995 0.143344651 -0.2033292896)
(999.1919664 0.06588934806 -0.02528119906)
(998.8660753 0.3328429584 0.2063342976)
(998.4592276 0.5632290969 0.09730379087)
(998.086474 0.6689508412 0.04496692404)
(997.3833739 0.8873928774 0.03532021203)
(996.6408494 1.072443114 -0.05779970075)
(995.8186319 0.9103628957 -0.03808354254)
(994.7633551 0.8857697803 0.004288498701)
(993.2374485 1.273572513 0.3186797894)
(991.5912886 1.544477731 0.119848079)
(989.1450994 2.309652468 0.0001127275657)
(985.8249047 2.999956722 -0.1959627721)
(981.5323908 4.161279572 -0.07207750366)
(976.9159394 5.002749881 -0.0308700887)
(970.7830532 6.24122261 -0.1074460462)
(962.5811347 7.643323814 -0.01070795008)
(951.8868944 9.872855484 0.1783351681)
(937.4515685 13.69649752 0.08894055071)
(920.1132628 17.87855367 0.06426796119)
(897.6326476 22.88966445 -0.09769416713)
(869.4005686 29.30731754 0.3658816763)
(833.3377961 37.47751809 -0.2380578733)
(789.4191061 48.56370381 -0.1659195591)
(739.2644241 60.91490024 -0.252917936)
(679.4473122 76.28031269 -0.128234822)
(612.5313324 92.72848092 -0.1488990352)
(542.4596572 110.5144163 0.4201759779)
(474.112501 128.7985662 0.08407889295)
(409.7852556 146.0255733 0.063296442)
(351.7474045 161.666989 -0.03312820033)
(300.7084321 173.8399231 -0.4029032455)
(256.1682166 183.7244168 -0.3845395205)
(214.6560536 189.9460733 0.1690027273)
(176.0569296 193.9626298 0.30961535)
(138.378633 192.9756073 -0.3028540043)
(100.3251387 183.3356244 -0.1911816697)
(63.31562364 163.9492228 -0.06564957377)
(29.76392605 126.1646286 0.1935126981)
(6.290852235 65.10293698 -0.1562974755)
(999.5083965 0.02685490022 0.2658046393)
(999.4750023 0.06455702794 0.1200177428)
(999.189702 0.2176569357 0.2946220497)
(998.8118189 0.3386240282 0.02024992398)
(998.3850896 0.315265125 -0.06286288284)
(997.5182663 0.4713488762 -0.09340285596)
(996.766609 0.5802662427 0.1691650554)
(996.154242 0.9697798668 0.07721599791)
(995.0459243 1.033145451 -0.04601397874)
(993.1722426 1.571198333 -0.03078696362)
(991.6320136 1.804779221 -0.01062753859)
(989.5726545 2.248458136 -0.0655275656)
(986.8060666 2.592579416 0.1310196826)
(982.5399809 3.627421513 0.321833737)
(978.2608904 4.577752449 0.2892450558)
(972.1190178 6.224643737 -0.1533614755)
(964.1131661 7.903069398 0.03963048594)
(954.8959034 10.38832666 0.007419910001)
(942.4082587 13.70873788 0.08386006622)
(924.4676115 17.52216966 -0.03979448625)
(904.6082806 22.74864013 -0.1684209245)
(877.3196473 29.50741996 -0.1063376803)
(844.8113206 38.40385583 0.0002959233565)
(804.6008266 48.84551903 -0.04842554794)
(756.5299844 61.40463133 0.2131713952)
(698.7455064 77.61229324 0.4293547458)
(635.2325478 93.46632206 -0.04564262082)
(568.5007087 112.792418 -0.3501719455)
(499.9567591 131.9284025 -0.09191606972)
(433.799523 150.9563075 -0.2514129229)
(374.4538737 168.5141692 0.07393230741)
(323.212195 182.7538391 -0.545309581)
(276.6632003 195.1226679 -0.03407154263)
(235.2142266 204.6906715 0.4002599638)
(196.1428645 211.1177232 -0.2268563004)
(157.7624565 212.5675492 -0.1247326439)
(118.6105893 205.8543009 -0.2395985482)
(78.63547728 188.6646576 -0.2656920974)
(39.40270361 150.3306824 0.02816089074)
(8.478332033 80.21883291 0.1575778372)
(999.4380681 0.05200801038 -0.1688162995)
(999.2622713 0.2139215172 -0.3017671044)
(999.004098 0.2355761427 -0.1402064046)
(998.6173496 0.2100606134 0.002177860189)
(998.3038922 -0.06767651247 0.07400863947)