/*--------------------------------*- C++ -*----------------------------------*\
| =========                 |                                                 |
| \\      /  F ield         | OpenFOAM: The Open Source CFD Toolbox           |
|  \\    /   O peration     | Version:  v1706                                 |
|   \\  /    A nd           | Web:      www.OpenFOAM.com                      |
|    \\/     M anipulation  |                                                 |
\*---------------------------------------------------------------------------*/
FoamFile
{
    version     2.0;
    format      ascii;
    class       labelField;
    location    "0.02/lagrangian/dsmc";
    object      origId;
}
// * * * * * * * * * * * * * * * * * * * * * * * * * * * * * * * * * * * * * //


127861
(
101217
121336
96589
78540
54023
86431
85510
60028
66849
76980
74122
55706
54390
126127
62648
3284
58124
111688
37371
83815
80024
29512
76457
110754
4950
118512
126375
70151
123231
60359
47154
55718
113358
21345
2750
90586
71082
28921
47953
20754
119392
19574
39875
67731
2726
114516
63521
28753
32125
90522
64652
114535
84665
492
37802
16307
52179
116241
103239
117644
106982
67371
88286
44615
36933
108461
46716
118704
24912
1082
52620
75760
91311
116308
115975
104144
116215
62058
111681
106358
32715
124442
60207
17335
113090
30161
38131
2901
49873
85276
72168
55553
73869
8726
29780
6579
27304
15934
111815
127456
71733
98940
113336
49257
74002
82214
27132
115109
35820
94612
39072
13114
18776
45184
81501
48751
5337
51119
44208
119397
24826
91160
76518
21464
55952
99798
53216
4654
10151
77628
121341
27695
101869
27473
82980
18548
51377
13626
49951
19949
45788
20257
14174
36184
106905
67540
46951
8227
121899
86159
80289
19128
93468
73318
78829
97682
69895
56764
31659
42930
80323
68601
6287
44057
31718
95358
70674
119754
118785
115142
51766
95411
73981
40087
85452
60080
53389
100430
34720
86675
124120
11115
53101
119794
111933
110587
34145
95901
104885
14553
58179
64127
84734
25332
26604
78262
14534
75205
70883
103054
90929
50857
20684
107247
81921
123128
123014
29171
74525
107802
102922
65795
31001
108424
54448
30820
27902
87460
27369
125048
78444
78035
120403
92112
122543
68886
100642
73997
57681
86613
106422
48704
27416
40618
3955
53463
119715
110670
21765
41054
81463
85155
94875
95760
99519
59519
95981
26102
22260
126629
85755
61433
61110
58570
42491
30926
54472
50550
1119
86332
62100
70049
51775
73389
20404
84723
31599
33114
75425
63098
5183
27014
56496
61977
77528
100752
109691
41366
49119
99200
82747
68193
120531
64779
27159
66698
106390
87860
38410
127118
81529
121849
24559
50765
70268
53827
5810
96475
32529
36282
95123
12716
39823
50115
42892
14727
114045
109567
60910
85237
70531
97101
2574
51940
46759
123899
15651
92486
113404
121875
127045
57301
73934
99051
23723
5287
6214
117233
77927
45631
29889
118817
25081
49287
114824
96140
104418
104008
14939
83604
106197
9104
53702
86522
120281
68519
19084
20179
26264
74152
114858
101263
92695
13886
81467
39996
114081
43859
42486
44857
93494
69602
107081
107939
2217
96413
95958
63448
21542
109423
108369
2874
13255
100030
63445
115019
77354
86990
5043
31867
98943
86821
82973
17165
39822
71087
111362
8001
101194
75699
32238
12259
29790
38847
118202
62425
107809
118534
33587
6754
69450
117942
92580
35025
107426
47886
124065
82235
93986
95724
20343
106002
95899
76514
6865
45170
68981
31576
101336
45593
33956
42695
51518
123624
64770
101481
79534
27268
99062
49419
86583
64001
111109
61557
61026
78703
97459
80993
48738
79835
116174
96704
122514
64287
72374
102784
45780
55990
2281
95839
11715
93730
44316
11001
69699
86682
19067
108035
120160
56176
16467
9212
29056
46695
82749
32473
85078
47333
92979
11643
127789
80584
11724
73782
337
16475
114638
27969
92991
39472
47031
46723
62963
65694
97420
49197
110658
120355
18010
116676
39927
98832
61331
43049
41409
20614
41311
13766
103160
56154
64481
125256
13062
93797
80676
35494
111393
30973
75309
102652
81898
2160
9227
60904
108330
15148
32036
1789
46870
16195
38109
33553
120140
106959
7146
16544
28004
13720
59496
50903
111938
112079
23665
106103
102240
35771
2949
15548
606
85219
101111
31367
102316
7980
92051
125352
111196
53541
114184
61550
64319
28650
97230
92313
34149
78159
21493
117158
82255
76872
25294
22761
44131
44527
85900
5329
83935
30222
104696
89818
48007
65386
120578
88250
51022
83812
11703
98315
20972
27172
63258
41419
72106
30547
51440
9650
111595
29925
11522
48419
120671
26276
38683
15760
56686
46368
43043
26118
65811
84610
77309
14837
40254
99407
23349
2886
81507
82583
87260
127696
93124
95325
70247
51900
56716
48519
127049
33348
90883
72016
75605
122068
84528
100547
5249
78686
101153
19819
85268
6652
30094
13275
41647
63354
35490
51741
21863
51633
72737
11056
91387
103289
108167
95011
59168
67106
109455
32906
37567
116371
51817
89663
55664
32201
88854
126259
73849
81951
26501
107078
66306
6431
115600
124067
35498
77404
126576
15377
66422
91726
113347
96120
66034
69528
105566
103031
97906
40523
36561
86016
80321
111404
88869
58145
42577
119277
53272
119326
66819
93250
40350
103941
95321
94415
47833
6451
68427
28475
20793
93136
110573
58506
60389
3183
86484
119973
116382
112580
10548
127769
57818
122139
117319
79382
118769
83547
80302
122617
57847
34830
3104
74160
90901
75885
107576
17099
111040
74114
80814
63635
16707
37733
30744
29456
4056
119991
31874
33542
10597
33060
106375
40300
26999
66743
63013
90554
77494
87896
112197
69044
39557
63366
104756
121033
54205
35048
121536
52505
41024
116851
121161
85340
85498
30196
45705
12663
36662
111105
26641
112202
80017
28095
25782
35421
69042
1822
20877
10114
87252
84915
109257
38652
10329
50378
23970
13593
65772
67753
14877
100648
8509
8483
106442
29143
74232
2154
7099
110372
85087
31041
80450
31698
77035
112875
95790
58610
20988
16562
106663
103369
92367
122516
110839
2771
101870
97602
101006
46936
8905
110559
120999
8499
33718
49029
86580
116657
101574
77989
26613
52608
35817
93876
99497
3900
42889
47171
95242
79196
20317
125249
70018
78619
109243
108130
86951
45888
55925
92585
87869
6711
119587
101475
32892
31251
97672
73051
41711
113501
5562
40259
5087
65901
59597
72107
27890
85494
16364
98745
44200
62675
126479
18161
43691
80840
20227
110353
34110
112787
13132
113826
48436
60879
120339
87694
76469
88713
1240
106740
105747
77853
103342
49959
73698
19325
120391
103740
28997
110494
14869
117590
49900
100902
5483
87230
82734
16612
117659
54496
45735
91100
89595
14790
70576
37271
5768
47281
60111
14913
88624
26734
60627
5873
74301
57239
66535
75640
49842
101836
115843
48673
89464
846
82775
16700
120778
32390
45307
88375
79440
20459
72248
121605
60178
68312
123671
50916
75631
44443
102967
35914
107164
29295
28943
87606
90289
35898
59200
39191
25559
60573
14446
64131
97603
83925
31926
75913
51758
31465
15312
76897
1538
102659
111982
98897
18979
62779
107924
53492
1542
74350
61729
107132
35521
27917
321
41690
6369
45054
29811
68644
124807
15612
58763
112744
97402
33875
8739
116733
52728
61386
27988
64367
41475
116690
53271
120124
104951
1569
63283
23955
93657
22416
106531
5667
121582
22834
58646
28895
32700
23894
42777
41632
60261
16579
115337
94662
118290
6028
25687
75685
1741
83419
56654
5427
18615
18304
96931
115493
106416
121739
18370
124121
52300
106387
20113
121685
25138
90020
33330
74660
16431
57053
39725
16669
7181
65453
82644
109389
103914
77844
50666
3622
101100
100288
1614
29844
9880
88125
37326
12367
66207
110226
24823
13991
61600
8958
101816
80035
56546
22637
20060
70376
3234
73685
4503
54882
61940
30361
46107
73995
7568
94930
21751
5286
48099
52625
80857
70567
57049
51124
49043
59588
1124
12748
127484
49225
55521
41565
41337
50603
32863
93033
22180
83126
74572
116809
107457
49324
113038
83224
38561
31403
97828
14683
75430
16037
72660
123263
1644
43993
72581
1301
108600
40804
11776
62763
82573
23059
77975
118218
78975
113605
36495
85770
106833
35177
40216
59
116279
22946
779
116652
61403
97809
9063
120373
98323
38501
49365
125514
27920
89863
6306
83920
23186
58721
32
102994
78277
1298
95134
12606
74685
42900
38375
70152
83562
102811
29522
2647
85950
27989
77002
51664
110306
33143
12989
76643
109591
23680
57317
110863
52080
115125
92178
20369
1083
62993
7808
96244
6634
88520
99364
125927
95798
48253
67034
25999
15733
41895
123386
105052
112876
985
124630
19973
112514
3461
37882
3423
18415
35801
33546
36700
14875
112275
2452
42097
65237
58007
4372
112190
88045
19403
13283
2988
70430
121736
109971
26452
88679
116420
3877
77243
6663
118696
47088
2074
21160
47049
56299
94349
46438
127413
9088
98813
74811
110902
66111
31589
66033
39179
98400
1565
95833
83656
43360
6747
42064
59563
81608
41480
32992
81956
8313
67045
39225
62647
77499
18869
114453
60670
62669
85574
107336
78049
109334
80685
50538
82457
35765
113982
70225
66424
28563
67184
83803
44551
44392
11698
35655
84315
117489
7910
54812
775
51163
27080
14090
59728
108119
68712
104978
121538
97102
88483
58297
93303
104841
65809
102411
110303
24804
101015
65143
82717
14117
79197
70419
114440
65415
115949
24913
82662
28258
48823
122620
31582
12308
32023
88450
32399
8713
12112
24663
2263
110962
107500
115154
12395
109196
25965
25969
39983
105907
31267
121746
31268
92370
101125
24478
121714
72201
84698
49422
41552
81946
64060
104828
17932
88214
6818
34550
103865
24013
31925
19700
89484
81904
50463
104176
62786
117520
9201
4886
91398
118281
28178
66304
107318
15297
52979
20041
19032
90009
3246
66441
47039
120363
116807
125940
67881
121943
83509
82589
36494
29633
20207
26310
6504
4748
127478
80712
90590
15248
52671
73483
108240
23050
100355
9281
75171
91205
14882
45320
64682
99207
64372
43987
21564
52007
63201
55172
70134
101850
24549
81400
59885
27367
36646
103938
107278
19766
111189
91105
114352
117552
17660
125521
61505
111928
44465
39886
4763
5649
109916
65844
103346
104330
13698
71653
33585
95731
2407
90742
106515
83612
107046
97923
114688
28618
49049
4001
110078
47085
12405
34086
97865
76613
5185
52553
93099
79638
119621
1971
45294
26687
110390
67439
66139
51458
3846
86343
80267
121220
55387
18214
66421
70723
23368
108419
33689
87820
59895
64014
88407
114299
41401
118422
21945
3870
109060
68547
115332
121884
24293
123610
52856
127794
84266
119593
51347
108321
69117
71796
113681
111574
55534
60388
73729
19627
5268
16908
55032
125148
58653
70013
38780
123081
33942
88593
6506
48067
45379
117792
104480
118804
102021
4635
66188
100863
87313
52130
64152
101422
33214
9794
92845
33162
117767
270
31676
110497
64100
65762
79754
44143
29995
76270
77010
89788
116893
118246
14216
27396
78557
62027
79806
117129
72339
103318
100236
88947
48625
26540
117102
84238
98244
114482
44518
114280
38916
36458
55274
1147
124381
53324
77480
102222
114230
20955
122256
124554
83363
113127
108134
1570
106802
119184
27028
106799
38829
18613
76987
60021
65738
89211
85053
64350
21325
76941
2299
79490
62216
23878
1426
69227
98561
122238
18987
88462
46747
74161
59208
28418
24327
57291
18501
13689
101943
18842
27898
85098
38746
47316
39928
88007
101244
104741
79238
94450
48446
55586
112535
57357
63287
653
13691
118752
95138
3777
80413
32469
123427
63142
49462
107489
55678
6185
101442
98938
69554
36271
47379
120969
60818
109248
39964
60868
27497
20822
118916
80582
64877
86278
40980
62856
88245
74931
89887
90656
102057
52335
43956
100965
65827
76425
71062
103971
40725
120782
63319
110305
119602
102890
101761
23329
28579
56679
61994
13039
77323
88449
92553
85992
88728
56873
78988
88016
22443
79424
9899
28494
126624
105852
93466
4367
102898
54467
121826
24736
108203
59491
51697
125820
86190
11530
69737
23897
63278
60715
86524
25736
89375
3273
18189
36706
56684
3578
24053
20943
100912
121299
8880
15119
52985
121780
94808
105958
48975
90715
114431
95846
77318
52148
114860
89436
79428
100511
7143
101463
87181
17906
88626
9983
34735
80498
42315
99934
91693
48964
54018
120200
106154
100595
46749
107137
23123
98383
88546
2883
113812
73631
25593
36265
32796
43562
25961
109291
88155
53036
71054
22148
12086
76722
55702
24782
13054
65162
61884
43129
46807
31598
722
96241
63601
96941
69627
122858
54909
117553
10239
63580
46288
23587
98886
98359
89469
39712
106169
2185
121805
77855
96814
61897
21131
32130
116059
97053
119824
106767
105264
65883
25847
15432
127708
43315
59535
22105
52764
98206
43756
86989
47715
53423
104914
62327
69489
50874
15726
126796
116233
125869
70078
25358
99950
114109
65191
71221
85986
117541
41400
31571
35517
94652
95335
56309
14294
69129
86917
23039
60407
36634
5022
80344
67629
7497
33302
31779
16456
45610
77615
9364
112718
76819
20959
104822
54888
16533
62127
84773
77683
6090
82243
28965
85014
84439
18982
4997
67266
61617
22604
106687
17468
2946
43991
100761
119311
45198
88473
124295
109703
4948
94598
37194
121755
101611
96349
91970
110379
85550
15538
77637
55904
105693
21755
127298
59235
28784
71317
23403
54801
10456
90610
28415
19576
98398
72022
10475
63042
26806
125680
34484
52022
72386
24067
96034
64548
92116
108577
34136
113777
20473
73283
23157
51587
92824
98847
125529
4728
73564
80617
87482
88472
67416
14760
36011
82058
98875
45099
65840
59802
32770
70354
18899
58718
77074
109403
112843
8384
112520
17691
80322
123708
52668
58405
37834
62518
39837
38508
94171
38650
95976
13839
63564
115483
63920
95695
115316
79511
75483
102531
81555
539
47120
119884
117562
108336
99017
22164
38337
74806
67721
23983
16805
47418
41687
104282
15090
23827
95799
29232
57336
417
88689
13702
79662
51630
46100
22182
125414
76205
64056
14135
71874
36571
89340
93693
104720
76481
68734
98405
125437
50526
40572
87329
69899
56033
111705
70489
49907
8931
53558
25256
4576
78760
103212
126191
14219
18701
13827
36241
44079
60742
18384
24089
103809
33654
48324
37821
25009
98831
121435
121178
49562
104289
94649
81927
61979
60391
94734
101894
72157
14612
72685
33237
61355
82191
51820
82332
124183
124760
14416
64399
62849
124851
102105
119
59159
70390
37883
91822
37175
127486
119119
39787
10444
34812
83919
64180
97950
77420
104923
17821
5443
45680
4591
83936
121157
26496
80550
94852
26108
75376
118068
50439
73470
113383
25445
79108
61311
45549
55136
85739
117117
55110
15648
115359
70405
18542
112443
95649
10209
3692
33759
101539
98412
1446
23583
51208
74044
117340
37386
92646
86017
29469
87854
45668
23538
87436
26235
102582
73406
44402
3135
38604
27858
24101
77769
6946
27732
39086
74380
120949
116695
100733
22149
47643
36666
101292
41124
26223
65417
53626
117891
52490
68268
14779
90391
63505
78430
59375
79565
53861
50945
30581
48583
8504
90798
75840
64141
90992
102751
54586
127017
85329
2326
91252
36100
109529
24433
118743
51724
16569
34169
23997
594
104549
13026
58863
102279
52917
18721
20897
120155
75337
36298
70521
65991
45848
11096
65985
28333
23056
27285
5871
68069
4536
85826
48654
103820
51055
23498
120556
41214
4238
125534
124368
62557
105770
75708
123431
27176
66292
110724
62952
115840
113843
74424
60082
96004
6263
122821
83640
102009
41343
50682
170
113758
5219
50055
66650
71157
105492
44511
20828
89386
9786
47204
23381
19896
91445
94650
32242
19659
30988
74582
108618
93997
105188
35977
39302
40831
16315
31717
123197
28479
110785
29264
66130
67556
28871
120258
100711
54105
8568
38031
50960
110339
57562
25824
1468
113279
18340
96506
126816
37942
50652
93791
42726
37817
109618
58854
36650
72948
73270
75348
111960
117595
77735
88490
68629
69372
9879
43741
124050
21155
54170
45681
5515
32538
115937
105606
126293
31577
109131
19877
9728
26845
84996
90619
57761
32629
1185
36461
124053
24468
7801
104100
84020
60746
45543
65065
15768
20485
4831
97451
9092
107953
37515
55924
101357
80859
124459
67003
7215
84650
69856
12681
5685
117624
46997
26119
83887
15005
78093
73663
83646
71787
106666
101600
60076
89765
25763
87187
45068
58985
29966
109685
125151
24934
122823
3204
77962
99871
94234
96776
121182
117695
83209
102093
106594
126979
58589
66012
51140
64800
93700
27069
120380
64620
22643
6801
60485
45048
107362
40712
75647
4469
84465
87133
73209
2293
62340
26656
1682
119539
15062
76070
94581
61872
118167
42594
512
118881
41743
21698
80549
25115
60822
48443
102958
13457
16130
23519
31613
70374
123660
89253
113991
107432
61564
22453
6986
26502
89143
121562
46013
8971
74263
31772
72836
73538
84663
6795
78776
59466
39933
110501
16301
76794
125383
125033
108857
23573
10205
30595
63703
83433
97115
24760
80074
63823
4209
85596
115877
59417
108327
15063
34809
5470
62896
126708
106279
124608
62017
65413
78096
121708
77665
56276
88033
111328
48179
96586
96453
17534
41880
102997
64873
123579
77792
84298
32258
51582
52455
30132
77938
26281
117757
108935
75736
43359
11780
40253
68694
69303
55550
35417
42446
66528
24398
79107
17425
47291
18327
110358
92617
52114
72826
52933
123536
29641
80966
39912
52907
119666
36984
35563
118261
81196
35310
34079
100291
78957
3484
83222
41010
45717
78890
37486
16160
58485
39980
18025
70060
91752
80250
107799
37165
98189
62171
89394
60081
42584
52647
80813
42769
124819
5606
3108
17321
64650
100605
43213
115813
38473
65580
84180
23344
11862
57408
30075
116812
24427
48097
55872
61528
71945
26528
60046
29640
124353
81175
9759
115672
82493
98697
61051
59854
90753
111897
50746
83084
90454
93878
58909
116825
93281
53416
127170
104677
113443
64694
18739
70118
18691
125442
86683
11671
60164
36141
97403
29957
58024
37180
94422
81709
13930
95480
6848
98654
118233
20964
2551
61515
1995
4738
4011
98169
58594
23544
25343
99630
68660
95940
99581
23294
15650
10675
80219
41756
102352
7741
66486
76032
34505
20859
114247
72098
9781
94674
85534
68257
71251
2973
11036
69051
40396
107168
97493
37590
13360
95768
29113
44858
30258
110089
77793
69758
95508
45207
80045
96191
37668
70100
124136
15010
39519
67870
9225
87991
33885
73175
115015
39232
77308
54403
40757
28804
1953
28423
40761
65288
112691
97507
47903
70968
44699
17863
114501
119803
97289
114795
21415
101774
89221
84771
7459
61691
21198
99589
85355
53691
17567
59599
61112
687
82190
34902
119882
2332
82155
1194
94573
97713
82810
102078
55497
127811
72561
127010
64354
23852
2400
115759
83450
14699
65284
11413
110057
53654
87063
63253
69604
89882
127733
117532
84453
50301
10669
11945
95764
77835
21448
99028
68689
9661
107366
31344
56177
72797
116454
108965
112113
89174
81623
57730
39094
66759
76604
45388
84988
122646
38951
98669
67185
116051
95636
35116
122531
54412
47009
61667
9689
75104
74045
101144
56844
2309
107827
111392
116735
80197
47656
37332
29179
118111
10138
119204
46692
115569
105813
85148
87822
116171
124195
41832
4783
40544
16209
46199
53382
69812
67056
13330
124550
111454
82231
70736
118008
21176
51168
115351
28529
88586
12582
52658
109431
115721
50123
44155
71475
18554
18795
80443
78272
22156
68594
21164
27151
332
986
78406
71069
4282
115427
76609
109159
4342
87655
63494
3826
45742
64049
70208
100119
54090
84410
77943
74373
60592
82845
50910
47388
113784
90393
109435
93094
13297
69446
21388
8309
47338
10391
91012
33289
14601
53945
5892
127138
119896
50749
19963
11109
30635
110615
42339
108875
47848
1693
48827
19577
126926
118952
109143
73289
51444
6307
103046
52485
13667
46577
55784
110018
37983
59564
33700
64193
34344
14757
43137
119376
44343
9351
40326
9831
50360
112199
39911
60533
61395
5633
30020
72819
59277
4713
56325
28862
6988
97528
71451
45256
103733
11612
17960
77587
86397
51584
123935
82410
93590
3143
97063
59713
34699
87204
24905
68032
110778
77564
126453
46130
120794
107082
114143
102415
66208
12264
95483
94853
96587
80473
6385
125021
115568
9414
50143
111498
14734
49202
23170
12047
90413
52773
8337
122354
92496
105380
37190
10129
123457
73080
2408
35522
5473
25002
33083
14669
29802
103446
13532
38579
59573
79879
29765
748
101527
57747
98457
125201
32219
39559
99019
109213
94991
56472
6300
89937
87007
70110
96394
72115
51214
73693
106968
2623
89953
37968
7098
25879
66507
72379
63508
16319
111161
101471
85325
113417
93752
70447
69068
48758
68294
6704
59483
51288
110913
90080
86204
73085
14965
54940
69309
72850
2327
8720
56812
15518
78603
8406
13218
117961
45380
31164
12594
87136
98586
66983
9876
91968
115236
108868
109345
60845
20601
119911
91750
96543
64550
33880
102746
8000
4123
71643
51085
115922
115410
113756
103195
40986
91667
17557
30155
92125
68564
80489
53379
78989
91492
705
123425
126005
50083
68616
8510
75311
26757
63574
89480
58451
98991
17407
80305
29494
60858
13175
81406
1978
76415
112767
105374
73479
30156
98168
89941
59718
122382
68265
39743
62533
13542
65394
9774
988
46813
124227
57564
106853
32132
25418
35527
38522
41998
110175
94471
34688
116907
89992
58662
21377
97761
102317
31204
12354
107610
16223
79661
20348
101755
11878
28749
15158
48888
29006
101401
108453
105242
97774
96637
84413
71805
84550
93762
115185
84747
104736
27562
42124
99378
102347
23004
102149
52670
8711
74191
105975
9141
118664
14940
17219
49838
32398
78037
68830
14828
89736
23226
16931
112566
119837
60325
1917
125719
4631
63773
67117
8234
20389
38882
42588
82167
103128
84031
94871
96495
53943
115089
107412
4698
80551
106883
2579
37419
86685
23682
19433
79898
16440
103224
83266
79557
114657
103833
28174
13697
29281
85080
42239
48116
37681
40610
49688
20360
69921
32558
80789
2983
123397
96206
52170
22548
1974
4449
20633
59792
22200
33620
17917
75808
49814
838
93120
98103
79099
65806
11774
16794
51476
72507
73402
54838
61720
4069
97039
19768
23352
53098
56430
121877
199
91961
17466
47461
125859
107218
81769
115926
122807
4929
113481
12971
122456
101177
116113
126408
79551
68114
51544
109909
89920
6498
64819
14410
21361
43469
11502
119564
50532
26037
92265
83429
33975
41966
85983
22222
22123
63266
64219
17631
26744
81706
36143
124757
52408
78593
66257
113096
87658
124477
112269
18307
62689
26172
25828
85877
92899
581
3290
86442
6013
89810
51949
108323
20727
127432
72424
110568
122117
82143
81480
14581
124872
87924
113209
26219
19327
68628
96804
123786
4975
114315
31463
13248
65034
29648
111730
6288
2065
45541
42484
22571
121664
23711
84828
37353
121140
55752
54875
58369
63295
32005
14456
126122
11506
37241
25118
29372
17286
119750
71810
101221
125043
119995
92912
78218
64297
108681
46302
103676
108762
106851
25729
35673
125280
3602
116107
52021
12601
111257
54304
107795
86303
64522
82650
81566
25337
46072
69111
6655
47618
77605
31452
121854
106459
112599
42222
44106
28935
106038
34257
19704
78065
26954
109002
116816
28835
86687
95155
68456
57417
116654
74272
75096
46826
6514
62098
7494
45578
78460
921
63247
57631
114753
18330
70444
87513
107770
409
75628
117898
19918
64277
83021
70442
17872
53543
124342
104411
80803
34528
28549
50536
118577
10661
39425
74967
67396
1626
69010
61438
2721
24414
107096
108027
100063
93470
60631
68709
61151
78285
50066
59536
115966
102969
91339
12432
21850
46472
87857
102538
91739
12811
123585
3632
28946
28077
67813
112257
65481
69715
105998
69289
125362
75100
124726
32779
126429
47990
42886
65222
51012
17218
10371
112714
78231
90493
82200
59056
86984
109084
7145
112519
100241
108016
35298
75540
76741
66107
40502
96598
51065
112899
82041
77876
48224
102707
125887
118247
87858
81042
116940
25149
109121
85341
76109
107646
8842
126735
112324
72920
76698
53059
103059
83379
88818
7687
27021
112102
56981
67452
113684
59324
52473
41626
3696
31652
42065
15794
116557
122251
106380
29319
82545
56985
3708
39971
91553
29078
19764
30589
111734
17768
33669
63850
68245
44279
99749
94320
30692
69671
32032
114407
101854
116459
110834
72692
63245
31929
46770
2235
3658
59438
35928
56582
92908
42988
56357
113450
7327
126106
107776
54796
13451
32707
37650
91157
78837
113363
46789
30521
37651
105840
103338
72215
83832
127737
41349
120588
108900
6930
6242
10429
105006
99850
120277
122515
28384
66622
58677
66607
65573
92777
24681
125092
102807
61359
94278
126846
60044
124674
88702
125460
46234
86823
38904
116550
23045
11276
11389
39001
92710
113200
39637
66965
89743
61305
64970
76586
101299
36233
81063
92963
71631
86170
76542
61988
115594
24908
125109
74723
59645
79993
61418
64852
15307
45501
87157
118143
14821
102988
54717
76813
74535
44651
118313
45871
18778
63178
2125
48877
120525
81678
116276
50806
116410
24818
106782
50640
88555
91210
101680
80944
82862
20236
123242
121016
4373
99499
10941
90303
93777
24797
79963
16724
13070
31351
28156
109117
11716
7190
70587
120493
39571
38880
18900
65226
17375
74098
23765
118317
19244
68283
19731
74930
8823
112869
26182
3300
95188
110713
77218
94040
93032
46699
90821
43644
53239
66336
76979
117914
87256
123809
102291
81917
123927
96458
70935
50116
113689
2402
36802
97440
73843
108235
87444
25485
124294
86271
78462
50426
83914
112334
99035
92340
83198
16308
2971
95305
32748
91501
67436
88364
24422
9971
80376
51025
123583
110848
92122
68074
74877
17654
82711
1504
103638
107222
36480
6842
75846
59292
82406
82073
32002
101853
100203
92294
62130
108809
10739
28341
76665
120103
108237
126105
24611
127355
91815
48075
41621
66685
78600
15944
43400
118170
66533
94564
125592
22860
78874
31719
74365
100233
23115
119041
126421
23820
53641
106114
35211
31802
104871
84912
10447
61848
36389
111355
117290
28052
116867
61109
108281
30417
126521
20687
119072
120795
14909
48178
118117
26526
121571
12656
87186
52194
71023
111319
61901
69796
29781
73646
105732
121480
54367
40308
77107
29793
76171
86359
99393
104867
65381
99885
123679
69108
92075
79868
49409
99692
45665
123211
113748
22766
41727
33403
35164
60119
86295
31257
55355
74324
13687
783
77490
7179
14284
85897
4494
69769
23032
34336
88990
77352
91037
97240
18730
126987
6063
73494
60362
33255
82946
74764
28757
85064
29616
19868
50295
64832
13087
53666
98063
75023
84305
118091
92752
43955
62862
18440
81415
72285
47456
56610
10727
39315
104887
68846
116830
73719
105967
61168
94601
5281
109148
55058
16894
18620
87995
30273
37620
81782
50762
87454
90132
105460
10885
19757
80663
39620
38499
112592
107080
26967
24755
93338
104782
111880
63594
82448
122977
9608
39788
68516
20703
59697
126196
53251
65804
100271
101214
68724
78857
107254
115023
71393
4750
63757
38632
79359
26625
2902
91974
124007
116582
60785
53794
31333
123789
61544
20987
3800
42309
4046
78846
109483
124278
47410
127740
113123
86031
35988
54060
11791
47831
74271
26268
104225
85670
16275
104269
90906
8347
29867
80961
14643
108120
87189
105419
119402
2066
81405
85775
55848
8282
34686
6120
48771
102772
58146
19784
52040
37762
56504
69776
79916
81801
32200
119223
87406
62427
43308
19000
121074
87162
106756
59087
27769
12250
31704
124344
20474
65969
116005
64518
37865
95285
88867
104667
936
35075
19531
46670
31133
36499
119790
105960
61860
22757
48548
107950
103230
112809
71477
80827
35704
108876
75183
95950
64409
31533
64839
51346
60955
70361
50887
125701
77517
72440
114349
72300
10503
83946
116901
16620
123595
43994
100833
106054
57888
42984
50435
109825
36209
100852
23055
57368
49534
36333
18279
28834
124268
96920
57100
9304
43338
46769
118481
95938
43649
104094
123985
82309
84805
63627
63911
126001
8290
77746
83010
105475
44724
35449
84236
44940
108100
84847
92126
105921
106816
89324
94025
113386
120972
107181
117241
36560
88675
105703
42878
53886
54860
121842
101705
99830
92155
2435
115473
86198
90585
66902
122216
90325
82198
3609
23617
66559
77556
85970
86242
74519
53076
26338
9809
19615
99312
33802
24200
31147
124056
2580
127480
51680
56280
91684
36168
33545
58981
106149
9594
115226
86552
93464
42193
74392
42985
20276
24852
101171
120983
52841
101021
30435
93263
62633
5664
32149
56547
43366
41036
62790
50958
74372
103464
74398
9078
119732
64429
67358
73521
3536
105590
66624
22566
86464
16453
56782
104387
120904
24225
87962
116947
87756
35725
65825
65891
119665
69547
87838
103456
19395
74807
29565
39167
26647
106583
82606
61972
31625
85581
6192
70840
40098
100800
72974
57698
79914
27322
94624
94331
50800
18592
100554
4855
34072
108116
21999
31542
107891
100889
20918
71840
71348
101135
58511
34172
22219
106193
6523
96635
80249
96555
101546
56802
118797
122252
33636
28305
12799
43861
59313
56533
15139
86888
73547
18846
112633
101264
66560
123748
34309
48042
44915
38901
29121
67298
76526
53709
73315
21382
34495
91356
10808
80578
60755
45839
55017
71842
7696
119255
9747
87913
125821
36311
69957
101662
42551
72482
116542
87223
52560
35455
4559
107917
2418
107047
86585
37764
38350
63865
73604
122060
113193
70602
121195
67750
95643
23670
50793
87078
72455
114320
9953
82663
95360
47306
55482
34177
84212
62075
41752
86964
91607
105556
54511
7353
121711
96199
76738
97239
78103
31379
82371
106251
39612
59639
116836
31311
100495
60705
111896
71880
99496
16691
14417
4310
9049
113974
69783
30423
79659
9636
89290
33013
98914
16208
58895
114649
74713
34044
78095
2186
123996
34231
55825
37143
51129
20052
17143
8571
101389
53432
56890
108262
126994
85073
3121
39277
12303
26294
53561
71123
1132
26435
6177
95099
121535
36747
79830
113627
5910
43397
58603
66090
40320
92778
109528
49645
28905
74279
104832
100540
44625
73442
46026
6654
60217
100037
5426
72042
24637
50934
31651
60798
42805
12314
69792
117284
80059
83234
73277
41014
96557
107380
81128
96249
78274
28413
59260
26227
8068
59556
61422
125893
95829
76989
37557
96570
78812
85841
39575
25867
6852
37695
125674
107103
34991
23938
29912
42337
30284
63513
103887
37441
56197
5388
110202
6286
43657
73013
81749
71512
28858
75380
89610
116090
74451
70364
58235
50820
112075
105587
64941
90291
2182
7500
22027
31853
109369
46787
78028
80415
84060
40587
74829
95749
63898
71738
11215
48318
53786
124160
8963
78178
86518
83058
102123
28694
87738
71897
120628
109080
67023
6040
122137
79591
17374
9450
12398
98111
69094
65536
33619
44727
69603
100319
29199
13696
68158
124588
115404
40123
76295
5397
95882
51365
45956
47757
122672
106744
32217
75393
13331
30046
89341
22918
98107
109882
84290
38550
94382
40452
81551
106860
125265
94499
45003
30193
93007
96301
5270
122579
56841
111679
603
127301
125882
52055
76224
86832
27153
55312
93139
31475
91701
16698
36964
90430
5289
3772
81726
68993
127842
67195
75684
14170
65203
65287
28722
79777
34055
114502
39102
30545
103570
110233
100501
112440
22992
22110
102513
122876
109178
22002
88674
18040
94104
44204
26594
70019
114556
63625
3449
13484
100113
95281
71613
6996
93982
45494
117648
44706
52493
72213
36693
25267
123284
95265
24657
33494
62042
162
88619
76779
103924
4410
393
78595
126673
84016
64899
83827
43113
108548
38724
72396
97469
80786
46398
77078
93070
70720
56719
62751
69083
91453
110461
127476
8758
1817
81428
53976
40306