/*--------------------------------*- C++ -*----------------------------------*\
| =========                 |                                                 |
| \\      /  F ield         | OpenFOAM: The Open Source CFD Toolbox           |
|  \\    /   O peration     | Version:  v1706                                 |
|   \\  /    A nd           | Web:      www.OpenFOAM.com                      |
|    \\/     M anipulation  |                                                 |
\*---------------------------------------------------------------------------*/
FoamFile
{
    version     2.0;
    format      ascii;
    class       labelField;
    location    "0.1/lagrangian/dsmc";
    object      origId;
}
// * * * * * * * * * * * * * * * * * * * * * * * * * * * * * * * * * * * * * //


97053
(
1687688
1691355
1694365
1697228
1698570
1702198
1708772
1710975
1714079
1718069
1722832
1728712
1733165
1733724
1739614
1739837
1740820
1741151
1741326
1742375
1743386
1744384
1744409
1748283
1748750
1748827
1749799
1750766
1751573
1753637
1753648
1754376
1754640
1755716
1756116
1756844
1756914
1756993
1758842
1761725
1762316
1763021
1763867
1764138
1764446
1764925
1765942
1765959
1765966
1766065
1766248
1766871
1767133
1767174
1767509
1767549
1767784
1768044
1768283
1769316
1770136
1770306
1771500
1772174
1772359
1772871
1773012
1773737
1773962
1775173
1775179
1776379
1776554
1776980
1777198
1777319
1777545
1777715
1777977
1778116
1778723
1779012
1779518
1779822
1779942
1780140
1780142
1780195
1780557
1780721
1780793
1781570
1781734
1782314
1782425
1783260
1783405
1783406
1783615
1783963
1784803
1785448
1785573
1786131
1786165
1786265
1786616
1787248
1787626
1788077
1788345
1788437
1788969
1788985
1789029
1789153
1789274
1789438
1789466
1789564
1789964
1790034
1790281
1790684
1791378
1791495
1791795
1791802
1791996
1792418
1792429
1792461
1792563
1793043
1793080
1793422
1793644
1793830
1794398
1794438
1794776
1795005
1795025
1795283
1796026
1796049
1796415
1796728
1796872
1797076
1797264
1797453
1797599
1797633
1797917
1798077
1798078
1798107
1798205
1798238
1798298
1798411
1798467
1798660
1799008
1799124
1799125
1799250
1799513
1800041
1800488
1800623
1801087
1801294
1801408
1801415
1801433
1801668
1801875
1802024
1802045
1802299
1802316
1802623
1803127
1803306
1803617
1803710
1803737
1803893
1803906
1803910
1803912
1803924
1804019
1804245
1804265
1804347
1804507
1804510
1804557
1804662
1804764
1804959
1805087
1805248
1805252
1805269
1805327
1805659
1805696
1805838
1805965
1806119
1806127
1806233
1806306
1806555
1806557
1806682
1806752
1806961
1807080
1807086
1807257
1807497
1807499
1807724
1807837
1807914
1808042
1808052
1808148
1808158
1808178
1808268
1808279
1808373
1808520
1808579
1808687
1808731
1808763
1808893
1808908
1809090
1809145
1809248
1809271
1809376
1809494
1809549
1809560
1809665
1809679
1809700
1809704
1809707
1809926
1809930
1809954
1810055
1810300
1810511
1810772
1810781
1810892
1810897
1810914
1810951
1811138
1811295
1811304
1811331
1811495
1811531
1811706
1811774
1812095
1812110
1812306
1812334
1812404
1812549
1812586
1812735
1812763
1812780
1813070
1813391
1813589
1813720
1813751
1813775
1813791
1813866
1813900
1813908
1813926
1813966
1813987
1813993
1814268
1814342
1814403
1814484
1814610
1814777
1814778
1814788
1814877
1814881
1814902
1814981
1815011
1815108
1815129
1815143
1815175
1815183
1815302
1815367
1815407
1815531
1815618
1815685
1815744
1815911
1815941
1815945
1816016
1816092
1816214
1816218
1816282
1816395
1816416
1816556
1816587
1816807
1816912
1817028
1817132
1817291
1817362
1817364
1817377
1817548
1817558
1817590
1817920
1817938
1817997
1818151
1818184
1818191
1818206
1818318
1818410
1818426
1818499
1818619
1818753
1818789
1819023
1819158
1819204
1819318
1819404
1819624
1819711
1819715
1819720
1819789
1819811
1819814
1819827
1819931
1819948
1819977
1819988
1820020
1820162
1820187
1820227
1820370
1820536
1820576
1820586
1820622
1820628
1820638
1820964
1820984
1821041
1821133
1821227
1821247
1821357
1821619
1821645
1821709
1821745
1821755
1821771
1821798
1821840
1822052
1822142
1822183
1822191
1822193
1822197
1822205
1822212
1822419
1822545
1822547
1822615
1822628
1822714
1822741
1822768
1822820
1822996
1823005
1823159
1823183
1823230
1823236
1823351
1823391
1823447
1823451
1823569
1823583
1823645
1823773
1823800
1823957
1823984
1824251
1824385
1824402
1824417
1824435
1824534
1824546
1824554
1824737
1824743
1824801
1824850
1824970
1825024
1825044
1825060
1825325
1825364
1825376
1825400
1825407
1825776
1825795
1825809
1825844
1825852
1825933
1825970
1825977
1826195
1826256
1826357
1826401
1826540
1826597
1826625
1826657
1826675
1826868
1826958
1826962
1826970
1826971
1827064
1827066
1827183
1827218
1827368
1827374
1827432
1827439
1827537
1827558
1827645
1827741
1827758
1827776
1827803
1827834
1827998
1828003
1828158
1828376
1828451
1828555
1828593
1828674
1828770
1828838
1828858
1829002
1829008
1829047
1829054
1829069
1829156
1829249
1829361
1829426
1829452
1829491
1829577
1829600
1829681
1829764
1829954
1830014
1830019
1830051
1830064
1830090
1830212
1830224
1830230
1830231
1830290
1830418
1830473
1830553
1830560
1830573
1830594
1830605
1830619
1830672
1830676
1830692
1830694
1830768
1830968
1831077
1831088
1831172
1831186
1831198
1831283
1831294
1831561
1831591
1831593
1831595
1831627
1831640
1831652
1831682
1831687
1831688
1831824
1831838
1831862
1831984
1832008
1832041
1832072
1832098
1832293
1832365
1832413
1832461
1832623
1832638
1832780
1832789
1832817
1832837
1832846
1832878
1832990
1832992
1833002
1833063
1833081
1833087
1833096
1833170
1833215
1833256
1833296
1833376
1833378
1833471
1833475
1833478
1833479
1833575
1833577
1833581
1833590
1833647
1833648
1833781
1833788
1833844
1833984
1833996
1834056
1834058
1834062
1834102
1834175
1834195
1834212
1834245
1834255
1834277
1834292
1834383
1834402
1834486
1834516
1834580
1834602
1834639
1834661
1834663
1834682
1834689
1834695
1834702
1834713
1834793
1834825
1834834
1834870
1834970
1834980
1834997
1835005
1835055
1835056
1835069
1835257
1835270
1835271
1835300
1835319
1835389
1835395
1835412
1835491
1835498
1835593
1835615
1835677
1835679
1835698
1835709
1835784
1835791
1835797
1835808
1835813
1835821
1835845
1835849
1835863
1835867
1835883
1835885
1836056
1836094
1836120
1836178
1836203
1836240
1836272
1836395
1836406
1836408
1836417
1836419
1836426
1836446
1836463
1836477
1836504
1836524
1836581
1836669
1836683
1836700
1836710
1836724
1836794
1836829
1836883
1836914
1836918
1836922
1836979
1836988
1837048
1837073
1837088
1837096
1837098
1837117
1837181
1837189
1837197
1837251
1837254
1837278
1837279
1837289
1837295
1837324
1837627
1837633
1837635
1837677
1837727
1837729
1837795
1837815
1837816
1837823
1837889
1837910
1837931
1837932
1838025
1838071
1838220
1838229
1838238
1838248
1838258
1838269
1838280
1838321
1838405
1838407
1838413
1838425
1838434
1838484
1838499
1838504
1838524
1838528
1838532
1838658
1838683
1838801
1838837
1838850
1838901
1839008
1839017
1839022
1839023
1839026
1839032
1839083
1839105
1839107
1839194
1839208
1839209
1839229
1839242
1839277
1839319
1839322
1839408
1839430
1839461
1839476
1839486
1839533
1839596
1839652
1839664
1839831
1839868
1839906
1839996
1840010
1840018
1840031
1840270
1840271
1840280
1840322
1840492
1840493
1840528
1840621
1840640
1840656
1840685
1840692
1840714
1840738
1840802
1840835
1840850
1840853
1840900
1840944
1840946
1841004
1841053
1841067
1841075
1841089
1841116
1841118
1841215
1841255
1841281
1841290
1841316
1841444
1841523
1841524
1841530
1841531
1841624
1841656
1841687
1841691
1841697
1841704
1841712
1841801
1841811
1841823
1841830
1841835
1841905
1841913
1841916
1842024
1842057
1842065
1842075
1842095
1842105
1842208
1842209
1842240
1842299
1842317
1842417
1842465
1842477
1842489
1842493
1842507
1842535
1842555
1842621
1842664
1842677
1842685
1842829
1842849
1842861
1842907
1842924
1842927
1843082
1843097
1843121
1843129
1843145
1843212
1843222
1843278
1843281
1843317
1843335
1843337
1843432
1843436
1843438
1843445
1843559
1843660
1843668
1843687
1843709
1843742
1843761
1843824
1843853
1843896
1843925
1843949
1844028
1844041
1844045
1844049
1844058
1844060
1844235
1844263
1844290
1844320
1844326
1844336
1844419
1844421
1844426
1844430
1844440
1844475
1844480
1844517
1844525
1844626
1844650
1844679
1844687
1844715
1844738
1844753
1844755
1844819
1844853
1844886
1844887
1844894
1845051
1845081
1845084
1845085
1845090
1845156
1845160
1845161
1845220
1845222
1845226
1845238
1845240
1845241
1845274
1845282
1845310
1845317
1845318
1845345
1845346
1845358
1845425
1845436
1845453
1845488
1845490
1845502
1845540
1845652
1845673
1845700
1845716
1845751
1845825
1845831
1845840
1845844
1845863
1845887
1845901
1845902
1845916
1845944
1845956
1846028
1846083
1846112
1846292
1846310
1846321
1846356
1846373
1846428
1846454
1846487
1846489
1846537
1846539
1846638
1846653
1846660
1846666
1846735
1846757
1846772
1846775
1846830
1846851
1846911
1846915
1846945
1846951
1846955
1846975
1847042
1847077
1847100
1847118
1847239
1847249
1847255
1847281
1847288
1847312
1847318
1847362
1847449
1847479
1847482
1847490
1847523
1847529
1847578
1847637
1847687
1847741
1847743
1847768
1847866
1847872
1847906
1847930
1847944
1847966
1847972
1847974
1848066
1848074
1848077
1848078
1848097
1848165
1848169
1848244
1848247
1848269
1848273
1848277
1848312
1848313
1848323
1848326
1848346
1848359
1848363
1848446
1848453
1848461
1848493
1848527
1848536
1848558
1848679
1848711
1848712
1848748
1848750
1848764
1848846
1848861
1848865
1848880
1848889
1848892
1848905
1848940
1848968
1848978
1849096
1849101
1849112
1849116
1849123
1849124
1849153
1849266
1849274
1849292
1849326
1849331
1849385
1849473
1849482
1849486
1849507
1849510
1849512
1849517
1849542
1849587
1849647
1849648
1849651
1849692
1849709
1849723
1849734
1849762
1849766
1849771
1849860
1849865
1849869
1849871
1849887
1849930
1849934
1849936
1849962
1849989
1850055
1850066
1850083
1850167
1850257
1850290
1850329
1850336
1850373
1850380
1850455
1850479
1850486
1850512
1850518
1850547
1850548
1850550
1850565
1850573
1850585
1850649
1850704
1850708
1850717
1850719
1850726
1850768
1850770
1850787
1850852
1850865
1850882
1850887
1850910
1850946
1850981
1850983
1850989
1850997
1851054
1851057
1851072
1851086
1851090
1851118
1851126
1851145
1851148
1851162
1851175
1851193
1851195
1851262
1851263
1851294
1851313
1851325
1851330
1851451
1851452
1851482
1851485
1851571
1851588
1851594
1851597
1851667
1851683
1851685
1851692
1851703
1851705
1851769
1851770
1851788
1851857
1851859
1851921
1851922
1852088
1852102
1852115
1852121
1852162
1852175
1852176
1852269
1852299
1852316
1852328
1852346
1852350
1852384
1852460
1852478
1852488
1852516
1852552
1852553
1852554
1852561
1852562
1852573
1852575
1852582
1852673
1852691
1852724
1852752
1852761
1852806
1852870
1852872
1852880
1852893
1852915
1852925
1852959
1852974
1853059
1853061
1853072
1853085
1853087
1853128
1853134
1853144
1853150
1853151
1853164
1853173
1853178
1853188
1853196
1853274
1853295
1853315
1853335
1853363
1853375
1853386
1853387
1853395
1853402
1853463
1853497
1853531
1853559
1853572
1853674
1853712
1853720
1853740
1853763
1853867
1853888
1853894
1853922
1853935
1853954
1853961
1853983
1853998
1854073
1854076
1854077
1854087
1854097
1854114
1854130
1854156
1854166
1854195
1854285
1854286
1854315
1854317
1854343
1854352
1854375
1854382
1854407
1854410
1854411
1854497
1854501
1854564
1854578
1854584
1854607
1854667
1854706
1854720
1854730
1854732
1854738
1854751
1854756
1854762
1854795
1854873
1854875
1854942
1854987
1855014
1855071
1855073
1855088
1855094
1855096
1855106
1855117
1855120
1855123
1855136
1855145
1855161
1855162
1855192
1855200
1855290
1855294
1855302
1855333
1855342
1855352
1855372
1855376
1855392
1855394
1855397
1855406
1855486
1855522
1855562
1855575
1855576
1855592
1855619
1855689
1855713
1855718
1855793
1855818
1855873
1855892
1855894
1855935
1855981
1856017
1856086
1856114
1856136
1856146
1856159
1856166
1856170
1856184
1856198
1856202
1856207
1856277
1856282
1856313
1856347
1856354
1856404
1856418
1856475
1856487
1856489
1856538
1856542
1856574
1856578
1856618
1856677
1856680
1856681
1856696
1856711
1856760
1856790
1856795
1856803
1856806
1856822
1856901
1856912
1856928
1856932
1856992
1857014
1857024
1857027
1857082
1857092
1857126
1857128
1857139
1857151
1857152
1857185
1857189
1857196
1857212
1857224
1857282
1857285
1857304
1857308
1857309
1857340
1857351
1857399
1857407
1857419
1857428
1857482
1857505
1857506
1857524
1857526
1857557
1857565
1857578
1857601
1857692
1857698
1857702
1857732
1857737
1857743
1857757
1857758
1857780
1857793
1857795
1857797
1857805
1857828
1857888
1857898
1857909
1857922
1857928
1857949
1857975
1857978
1857991
1857997
1857998
1858007
1858015
1858029
1858088
1858093
1858100
1858104
1858121
1858128
1858130
1858149
1858150
1858153
1858194
1858216
1858291
1858299
1858300
1858310
1858319
1858329
1858340
1858355
1858361
1858414
1858491
1858493
1858499
1858517
1858536
1858538
1858544
1858566
1858580
1858585
1858601
1858608
1858613
1858620
1858625
1858626
1858628
1858629
1858699
1858710
1858714
1858717
1858735
1858740
1858751
1858756
1858771
1858773
1858784
1858791
1858826
1858830
1858888
1858930
1858931
1858939
1858974
1858988
1858990
1859007
1859008
1859030
1859095
1859101
1859105
1859126
1859133
1859155
1859202
1859204
1859214
1859227
1859358
1859359
1859360
1859372
1859403
1859409
1859412
1859425
1859432
1859433
1859491
1859496
1859522
1859525
1859526
1859529
1859547
1859555
1859574
1859593
1859598
1859617
1859618
1859624
1859626
1859689
1859716
1859754
1859758
1859770
1859771
1859778
1859781
1859815
1859820
1859825
1859830
1859831
1859901
1859902
1859912
1859931
1859936
1859944
1859949
1859973
1859979
1860009
1860012
1860026
1860033
1860097
1860115
1860121
1860130
1860135
1860145
1860146
1860185
1860188
1860203
1860204
1860208
1860220
1860231
1860318
1860324
1860330
1860335
1860336
1860338
1860339
1860342
1860346
1860352
1860362
1860386
1860389
1860396
1860414
1860425
1860433
1860437
1860496
1860511
1860547
1860548
1860551
1860569
1860629
1860711
1860712
1860725
1860743
1860777
1860790
1860794
1860797
1860800
1860802
1860803
1860810
1860817
1860826
1860834
1860835
1860916
1860919
1860938
1860967
1860973
1860981
1860986
1860994
1861009
1861037
1861044
1861107
1861114
1861129
1861132
1861149
1861151
1861164
1861169
1861191
1861202
1861209
1861238
1861327
1861331
1861369
1861387
1861415
1861424
1861446
1861514
1861550
1861557
1861563
1861571
1861598
1861600
1861608
1861620
1861627
1861640
1861645
1861708
1861716
1861723
1861744
1861747
1861752
1861753
1861755
1861765
1861777
1861803
1861809
1861817
1861827
1861836
1861841
1861909
1861916
1861917
1861934
1861968
1861975
1861981
1861984
1861996
1861998
1862001
1862008
1862027
1862035
1862108
1862117
1862128
1862129
1862135
1862157
1862158
1862169
1862194
1862216
1862230
1862323
1862325
1862329
1862358
1862360
1862368
1862394
1862399
1862417
1862418
1862419
1862423
1862427
1862434
1862435
1862436
1862438
1862507
1862509
1862516
1862520
1862521
1862567
1862570
1862575
1862587
1862595
1862603
1862640
1862708
1862710
1862731
1862732
1862743
1862747
1862751
1862757
1862779
1862792
1862798
1862801
1862818
1862837
1862843
1862848
1862854
1862911
1862927
1862939
1862941
1862943
1862981
1863009
1863018
1863029
1863033
1863035
1863036
1863120
1863121
1863122
1863141
1863142
1863145
1863148
1863165
1863170
1863177
1863180
1863190
1863197
1863201
1863231
1863315
1863330
1863365
1863371
1863375
1863388
1863396
1863408
1863416
1863417
1863427
1863433
1863449
1863455
1863457
1863510
1863521
1863523
1863573
1863575
1863582
1863585
1863586
1863607
1863619
1863625
1863626
1863630
1863637
1863640
1863646
1863655
1863716
1863729
1863742
1863747
1863813
1863819
1863822
1863825
1863846
1863849
1863920
1863924
1863943
1863944
1863951
1863955
1863969
1863988
1863995
1864060
1864150
1864154
1864155
1864159
1864163
1864174
1864176
1864177
1864181
1864199
1864202
1864228
1864230
1864234
1864243
1864253
1864330
1864337
1864346
1864357
1864358
1864360
1864361
1864380
1864385
1864390
1864410
1864427
1864428
1864430
1864432
1864524
1864526
1864534
1864536
1864539
1864561
1864568
1864582
1864586
1864634
1864640
1864641
1864643
1864656
1864716
1864744
1864746
1864751
1864755
1864758
1864761
1864779
1864785
1864793
1864801
1864812
1864820
1864826
1864836
1864841
1864922
1864923
1864931
1864935
1864944
1864951
1864959
1864967
1864970
1864995
1864996
1864999
1865005
1865009
1865037
1865046
1865047
1865049
1865057
1865116
1865121
1865147
1865149
1865160
1865173
1865208
1865211
1865217
1865236
1865329
1865336
1865340
1865346
1865358
1865360
1865373
1865393
1865399
1865409
1865427
1865428
1865447
1865451
1865534
1865539
1865552
1865571
1865586
1865590
1865602
1865609
1865613
1865624
1865627
1865641
1865648
1865649
1865651
1865721
1865731
1865732
1865735
1865761
1865791
1865793
1865805
1865817
1865834
1865840
1865844
1865854
1865862
1865865
1865867
1865869
1865923
1865928
1865940
1865941
1865947
1865952
1865956
1865959
1866002
1866014
1866019
1866023
1866031
1866125
1866145
1866177
1866186
1866194
1866196
1866219
1866225
1866238
1866259
1866261
1866270
1866339
1866342
1866351
1866358
1866379
1866392
1866396
1866398
1866401
1866411
1866412
1866413
1866421
1866427
1866428
1866434
1866441
1866448
1866453
1866460
1866463
1866466
1866471
1866526
1866560
1866567
1866573
1866580
1866583
1866591
1866593
1866594
1866598
1866624
1866640
1866648
1866660
1866735
1866736
1866744
1866763
1866765
1866766
1866796
1866800
1866805
1866819
1866823
1866835
1866864
1866870
1866873
1866926
1866933
1866940
1866966
1866984
1866992
1867005
1867007
1867009
1867029
1867044
1867056
1867057
1867060
1867062
1867064
1867074
1867154
1867178
1867180
1867181
1867192
1867206
1867216
1867217
1867221
1867224
1867226
1867245
1867265
1867333
1867345
1867363
1867369
1867371
1867377
1867383
1867404
1867405
1867432
1867433
1867451
1867454
1867462
1867463
1867464
1867474
1867538
1867542
1867564
1867572
1867573
1867606
1867617
1867618
1867627
1867636
1867639
1867642
1867650
1867660
1867665
1867667
1867670
1867752
1867759
1867784
1867805
1867806
1867810
1867812
1867849
1867854
1867856
1867868
1867943
1867963
1867968
1867979
1867999
1868010
1868011
1868012
1868031
1868053
1868063
1868067
1868068
1868071
1868144
1868145
1868191
1868193
1868200
1868203
1868212
1868219
1868220
1868221
1868240
1868245
1868266
1868276
1868277
1868282
1868343
1868415
1868420
1868425
1868426
1868434
1868437
1868467
1868475
1868562
1868565
1868570
1868574
1868578
1868581
1868592
1868593
1868594
1868599
1868604
1868608
1868614
1868622
1868633
1868642
1868647
1868656
1868664
1868669
1868670
1868744
1868746
1868772
1868775
1868778
1868790
1868815
1868821
1868856
1868866
1868870
1868873
1868880
1868946
1868956
1868957
1868969
1868991
1868998
1869004
1869008
1869014
1869021
1869025
1869054
1869078
1869081
1869082
1869148
1869154
1869171
1869173
1869182
1869187
1869191
1869216
1869220
1869222
1869223
1869237
1869251
1869261
1869276
1869277
1869345
1869350
1869359
1869385
1869391
1869403
1869407
1869448
1869457
1869466
1869468
1869470
1869487
1869490
1869549
1869550
1869560
1869570
1869584
1869591
1869602
1869603
1869641
1869646
1869649
1869670
1869671
1869681
1869746
1869766
1869772
1869785
1869794
1869810
1869811
1869824
1869834
1869839
1869849
1869852
1869858
1869875
1869882
1869946
1869947
1869948
1869960
1869965
1869974
1869999
1870015
1870018
1870041
1870045
1870052
1870054
1870055
1870064
1870065
1870071
1870077
1870087
1870186
1870209
1870214
1870221
1870229
1870253
1870262
1870270
1870275
1870276
1870287
1870346
1870353
1870369
1870374
1870376
1870382
1870400
1870418
1870444
1870462
1870466
1870471
1870481
1870484
1870489
1870547
1870550
1870553
1870571
1870574
1870579
1870583
1870586
1870588
1870589
1870599
1870606
1870607
1870613
1870615
1870619
1870622
1870636
1870646
1870663
1870747
1870763
1870764
1870765
1870776
1870779
1870790
1870793
1870799
1870816
1870820
1870821
1870827
1870829
1870830
1870831
1870843
1870844
1870846
1870854
1870855
1870859
1870860
1870864
1870876
1870879
1870971
1870978
1871021
1871064
1871065
1871069
1871081
1871084
1871090
1871161
1871164
1871176
1871178
1871187
1871208
1871216
1871221
1871222
1871226
1871232
1871236
1871246
1871253
1871258
1871280
1871286
1871296
1871367
1871378
1871381
1871392
1871401
1871403
1871408
1871409
1871411
1871432
1871436
1871447
1871451
1871466
1871478
1871483
1871494
1871554
1871562
1871577
1871578
1871579
1871583
1871584
1871585
1871590
1871598
1871621
1871629
1871640
1871646
1871649
1871656
1871658
1871663
1871674
1871676
1871691
1871698
1871771
1871775
1871781
1871786
1871805
1871812
1871816
1871824
1871828
1871829
1871830
1871833
1871841
1871844
1871853
1871854
1871883
1871885
1871887
1871893
1871894
1871898
1871954
1871963
1871971
1871972
1871973
1871976
1871978
1871992
1871993
1871994
1872000
1872003
1872004
1872006
1872019
1872041
1872043
1872047
1872050
1872064
1872073
1872091
1872153
1872154
1872159
1872163
1872165
1872185
1872199
1872215
1872232
1872233
1872241
1872270
1872272
1872276
1872293
1872295
1872385
1872397
1872401
1872408
1872419
1872433
1872441
1872442
1872448
1872459
1872465
1872467
1872473
1872483
1872492
1872560
1872562
1872569
1872577
1872580
1872583
1872590
1872591
1872592
1872593
1872599
1872601
1872613
1872622
1872630
1872641
1872675
1872680
1872681
1872687
1872689
1872698
1872775
1872785
1872797
1872802
1872814
1872817
1872825
1872830
1872841
1872842
1872851
1872855
1872870
1872888
1872969
1872981
1872985
1872993
1873004
1873007
1873028
1873049
1873050
1873051
1873061
1873066
1873069
1873072
1873073
1873080
1873085
1873094
1873095
1873098
1873161
1873197
1873211
1873221
1873226
1873229
1873239
1873254
1873267
1873273
1873278
1873284
1873296
1873304
1873373
1873377
1873378
1873382
1873384
1873404
1873416
1873424
1873432
1873441
1873445
1873447
1873450
1873460
1873485
1873488
1873491
1873497
1873505
1873563
1873594
1873595
1873605
1873621
1873629
1873634
1873636
1873659
1873662
1873666
1873668
1873680
1873699
1873774
1873779
1873788
1873804
1873812
1873817
1873826
1873838
1873852
1873853
1873867
1873871
1873876
1873880
1873887
1873900
1873903
1873905
1873969
1873990
1874002
1874007
1874016
1874019
1874021
1874040
1874046
1874053
1874064
1874076
1874085
1874100
1874104
1874105
1874106
1874170
1874171
1874176
1874178
1874185
1874203
1874224
1874232
1874233
1874243
1874253
1874274
1874278
1874279
1874291
1874292
1874309
1874311
1874370
1874385
1874398
1874399
1874416
1874443
1874444
1874448
1874452
1874454
1874467
1874485
1874489
1874490
1874505
1874568
1874599
1874609
1874617
1874630
1874631
1874638
1874643
1874659
1874664
1874673
1874675
1874683
1874688
1874693
1874702
1874710
1874771
1874783
1874785
1874791
1874792
1874794
1874804
1874813
1874838
1874850
1874866
1874874
1874876
1874882
1874887
1874888
1874895
1874896
1874903
1874910
1874912
1874966
1874970
1874990
1874991
1875015
1875027
1875028
1875044
1875045
1875053
1875064
1875074
1875082
1875086
1875089
1875092
1875098
1875111
1875112
1875171
1875173
1875180
1875181
1875190
1875198
1875226
1875227
1875232
1875242
1875262
1875267
1875268
1875282
1875283
1875285
1875305
1875315
1875370
1875371
1875373
1875379
1875385
1875389
1875397
1875401
1875408
1875410
1875434
1875439
1875443
1875460
1875461
1875463
1875464
1875467
1875471
1875473
1875481
1875482
1875499
1875504
1875509
1875516
1875581
1875585
1875610
1875617
1875618
1875623
1875643
1875645
1875667
1875669
1875685
1875696
1875697
1875704
1875705
1875716
1875786
1875790
1875794
1875795
1875803
1875804
1875807
1875833
1875838
1875840
1875841
1875862
1875864
1875875
1875877
1875884
1875885
1875901
1875977
1875978
1875983
1875984
1875992
1876000
1876004
1876011
1876015
1876017
1876018
1876019
1876038
1876045
1876049
1876070
1876103
1876106
1876109
1876113
1876116
1876185
1876190
1876195
1876204
1876222
1876240
1876272
1876276
1876279
1876287
1876289
1876310
1876314
1876393
1876395
1876396
1876399
1876407
1876410
1876424
1876425
1876434
1876446
1876458
1876464
1876467
1876470
1876474
1876483
1876487
1876494
1876500
1876521
1876577
1876581
1876585
1876586
1876589
1876604
1876628
1876651
1876658
1876662
1876676
1876679
1876685
1876707
1876708
1876712
1876788
1876791
1876804
1876807
1876822
1876824
1876828
1876836
1876856
1876866
1876874
1876879
1876885
1876886
1876887
1876893
1876912
1876915
1876916
1876985
1876991
1876992
1876999
1877003
1877004
1877008
1877009
1877044
1877046
1877075
1877082
1877098
1877116
1877123
1877177
1877191
1877204
1877230
1877247
1877249
1877260
1877271
1877273
1877281
1877283
1877287
1877297
1877301
1877307
1877379
1877409
1877427
1877454
1877477
1877479
1877486
1877489
1877502
1877504
1877506
1877509
1877583
1877607
1877616
1877644
1877646
1877655
1877664
1877672
1877675
1877684
1877701
1877703
1877722
1877726
1877731
1877798
1877812
1877820
1877833
1877838
1877840
1877861
1877922
1877924
1877984
1878014
1878029
1878030
1878035
1878071
1878073
1878074
1878095
1878101
1878103
1878127
1878185
1878194
1878197
1878198
1878201
1878205
1878215
1878221
1878229
1878236
1878240
1878248
1878253
1878259
1878261
1878263
1878271
1878290
1878309
1878311
1878321
1878329
1878394
1878409
1878412
1878414
1878415
1878417
1878421
1878429
1878437
1878438
1878440
1878441
1878446
1878450
1878458
1878459
1878461
1878463
1878472
1878493
1878511
1878520
1878591
1878596
1878597
1878607
1878610
1878614
1878629
1878633
1878635
1878638
1878646
1878647
1878652
1878656
1878661
1878682
1878683
1878698
1878712
1878713
1878715
1878722
1878724
1878733
1878831
1878832
1878838
1878843
1878849
1878856
1878862
1878866
1878868
1878872
1878890
1878908
1878909
1878912
1878913
1878914
1878915
1878920
1878993
1879012
1879013
1879016
1879018
1879051
1879056
1879061
1879067
1879074
1879076
1879079
1879085
1879089
1879092
1879122
1879198
1879208
1879214
1879215
1879218
1879221
1879227
1879254
1879258
1879272
1879284
1879289
1879292
1879304
1879308
1879322
1879393
1879395
1879406
1879407
1879408
1879414
1879419
1879423
1879426
1879432
1879436
1879453
1879455
1879457
1879459
1879463
1879466
1879474
1879476
1879509
1879521
1879522
1879524
1879531
1879592
1879602
1879608
1879614
1879617
1879619
1879620
1879628
1879629
1879634
1879646
1879654
1879662
1879663
1879664
1879671
1879672
1879678
1879683
1879691
1879694
1879702
1879708
1879717
1879724
1879728
1879729
1879734
1879799
1879800
1879808
1879813
1879836
1879842
1879845
1879846
1879855
1879866
1879925
1880001
1880012
1880019
1880021
1880030
1880033
1880034
1880036
1880040
1880050
1880071
1880076
1880077
1880082
1880085
1880098
1880102
1880103
1880111
1880129
1880133
1880134
1880135
1880137
1880138
1880210
1880240
1880252
1880256
1880262
1880273
1880277
1880295
1880298
1880303
1880307
1880309
1880319
1880401
1880408
1880412
1880436
1880438
1880439
1880441
1880457
1880466
1880467
1880476
1880489
1880492
1880499
1880516
1880524
1880526
1880532
1880536
1880537
1880541
1880595
1880599
1880603
1880606
1880614
1880618
1880634
1880635
1880639
1880647
1880648
1880650
1880651
1880660
1880663
1880672
1880675
1880676
1880678
1880679
1880690
1880706
1880725
1880726
1880727
1880729
1880732
1880733
1880734
1880737
1880738
1880740
1880798
1880808
1880812
1880820
1880836
1880837
1880847
1880851
1880858
1880864
1880867
1880873
1880878
1880884
1880889
1880890
1880915
1880916
1880919
1880933
1880937
1880938
1880939
1880941
1881004
1881013
1881019
1881027
1881030
1881035
1881041
1881044
1881047
1881063
1881078
1881079
1881080
1881085
1881090
1881093
1881097
1881098
1881106
1881112
1881118
1881121
1881123
1881124
1881127
1881130
1881135
1881205
1881211
1881216
1881225
1881240
1881242
1881251
1881262
1881278
1881289
1881295
1881296
1881312
1881319
1881328
1881335
1881337
1881341
1881343
1881403
1881405
1881415
1881419
1881422
1881435
1881438
1881444
1881471
1881485
1881492
1881496
1881497
1881506
1881507
1881513
1881517
1881540
1881543
1881601
1881605
1881608
1881612
1881617
1881619
1881628
1881631
1881633
1881635
1881640
1881643
1881651
1881653
1881658
1881665
1881670
1881687
1881688
1881708
1881717
1881721
1881723
1881728
1881729
1881803
1881805
1881807
1881808
1881810
1881811
1881813
1881820
1881827
1881832
1881834
1881843
1881850
1881856
1881873
1881886
1881893
1881895
1881896
1881898
1881903
1881918
1881920
1881933
1881940
1882003
1882018
1882020
1882030
1882034
1882036
1882039
1882063
1882068
1882073
1882076
1882084
1882089
1882098
1882101
1882114
1882117
1882125
1882127
1882129
1882134
1882137
1882144
1882204
1882207
1882208
1882223
1882231
1882232
1882239
1882253
1882262
1882271
1882273
1882281
1882290
1882296
1882298
1882312
1882324
1882338
1882343
1882345
1882407
1882418
1882420
1882426
1882430
1882432
1882433
1882449
1882454
1882460
1882477
1882493
1882512
1882513
1882522
1882524
1882605
1882613
1882617
1882620
1882629
1882631
1882632
1882633
1882637
1882644
1882646
1882652
1882653
1882659
1882669
1882671
1882675
1882682
1882683
1882687
1882697
1882709
1882713
1882721
1882723
1882724
1882727
1882733
1882734
1882735
1882750
1882809
1882812
1882814
1882856
1882858
1882859
1882860
1882862
1882881
1882902
1882909
1882911
1882912
1882917
1882918
1882924
1882928
1882930
1882932
1882933
1882934
1882942
1882947
1882949
1882952
1883011
1883015
1883026
1883027
1883035
1883036
1883037
1883041
1883044
1883045
1883046
1883048
1883062
1883072
1883078
1883079
1883084
1883096
1883110
1883115
1883120
1883134
1883142
1883218
1883221
1883223
1883240
1883243
1883253
1883257
1883259
1883268
1883271
1883272
1883278
1883303
1883305
1883306
1883311
1883322
1883323
1883327
1883330
1883331
1883352
1883409
1883413
1883424
1883428
1883431
1883432
1883440
1883445
1883446
1883455
1883457
1883463
1883467
1883473
1883475
1883479
1883480
1883488
1883489
1883513
1883525
1883528
1883536
1883543
1883615
1883626
1883631
1883636
1883642
1883657
1883661
1883667
1883670
1883695
1883706
1883707
1883715
1883719
1883731
1883732
1883733
1883736
1883750
1883752
1883755
1883828
1883845
1883846
1883853
1883865
1883866
1883867
1883872
1883874
1883881
1883894
1883901
1883902