/*--------------------------------*- C++ -*----------------------------------*\
| =========                 |                                                 |
| \\      /  F ield         | OpenFOAM: The Open Source CFD Toolbox           |
|  \\    /   O peration     | Version:  v1706                                 |
|   \\  /    A nd           | Web:      www.OpenFOAM.com                      |
|    \\/     M anipulation  |                                                 |
\*---------------------------------------------------------------------------*/
FoamFile
{
    version     2.0;
    format      ascii;
    class       vectorField;
    location    "0.1/lagrangian/dsmc";
    object      tracerCurrentPosition;
}
// * * * * * * * * * * * * * * * * * * * * * * * * * * * * * * * * * * * * * //


97053
(
(0.8867208686 0 0.004498551865)
(0.9626615031 0 0.003220460155)
(0.8471272166 0 0.002690609851)
(0.9958476985 0.025 0.004043795615)
(0.9366270909 0 0.004494119246)
(0.973901524 0.025 0.001008425226)
(0.9149550086 0.025 0.004247747654)
(0.8270489031 0 0.0008704466732)
(0.8271877976 0.025 0.003579413918)
(0.8827987103 0 0.0008555135516)
(0.9793005168 0.025 0.002419099643)
(0.8605906548 0.025 0.00141043181)
(0.9153594157 0.025 0.003815059074)
(0.9743965367 0.025 0.0006809311597)
(0.7285833099 0.025 0.004213632848)
(0.9191952195 0.025 0.001627241746)
(0.9219367524 0.025 0.003294722556)
(0.9390592192 0 0.001396253102)
(0.8760533092 0.025 0.000402818215)
(0.9839245654 0 0.00277951155)
(0.8024521811 0 0.002780794046)
(0.9513781412 0.025 0.00405647577)
(0.8561455407 0 0.0006873093689)
(0.9093908307 0 0.004640685216)
(0.8556854757 0 0.00224320975)
(0.9949605358 0 0.0006530488005)
(0.8842835498 2.168404345e-19 0.00182143604)
(0.9671365236 0.025 0.001966796122)
(0.986694934 0.025 0.004443239553)
(0.7906332078 0.025 0.003856297466)
(0.7697743488 0 0.0004889817531)
(0.8740857077 0.025 0.002238714837)
(0.4371909482 0 0.002677145308)
(0.8952387804 0 0.004503760519)
(0.9456459116 0 0.0022832578)
(0.6785277562 0.025 0.002525786731)
(0.9739219716 0.025 0.004030926121)
(0.9185198028 0 0.0045932621)
(0.929561141 0.025 0.0003238048122)
(0.8987576918 0 0.002372786895)
(0.9393439836 0.025 0.004034085097)
(0.9983504115 0.025 0.00335912981)
(0.6739311028 0 0.003371077379)
(0.9304801428 0.025 0.002852852938)
(0.9307970945 0 0.003582579733)
(0.8117293997 0.025 0.002592969119)
(0.9504853239 0 0.002241307838)
(0.8693185642 0 0.001279193739)
(0.9207902735 0 0.003669992616)
(0.8779437997 0.025 0.003247622913)
(0.7263557339 -1.084202172e-19 0.001839020092)
(0.9222366825 -2.168404345e-19 0.003644156152)
(0.9841978524 0.025 0.001739437812)
(0.8989183996 0 0.004661097715)
(0.9144357201 0 0.001383660413)
(0.9374101148 0.025 0.001893967244)
(0.9658169829 0.025 0.001153607593)
(0.9660952548 0 0.001832682335)
(0.9240756789 0.025 0.0009514527162)
(0.8881681622 0.025 0.004386949737)
(0.8998918803 0.025 0.003374643008)
(0.9482552617 0.025 0.004424857413)
(0.9578878096 0 0.000116121699)
(0.9377687871 0 0.0006192739185)
(0.9070991237 0 0.004943356378)
(0.7776474709 0.025 2.446174558e-06)
(0.744992971 0.025 0.001294840356)
(0.9656405809 0 0.001724136876)
(0.9755740262 0 0.003336494598)
(0.8476133149 0.025 0.003772908204)
(0.8800285423 0.025 0.002240987383)
(0.937502191 0.025 0.003093851241)
(0.9178712063 0 0.00284442935)
(0.8790107419 0 0.002158393301)
(0.8651113544 0.025 0.002023823246)
(0.9537436347 0.025 0.0007062358974)
(0.9021536663 0.025 0.002938973264)
(0.9314910598 0.025 0.00450777961)
(0.9269035732 0.025 0.001090938604)
(0.8072852893 0 0.001841713787)
(0.9696772528 0 0.002661024087)
(0.9297582917 0.025 0.002091401707)
(0.7088683823 0 0.001431035904)
(0.9289660764 0 0.002173340888)
(0.9287975676 0 0.002973577027)
(0.8025597401 0 0.002851964607)
(0.779728983 -5.421010862e-20 0.003428846375)
(0.9112459717 0 0.003395953009)
(0.9316065347 0.025 0.001704372042)
(0.9543405016 0.025 0.0001022007452)
(0.7691075105 0.025 0.0009275892766)
(0.8864199427 0.025 0.003956178483)
(0.8743417272 0.025 0.004640537088)
(0.9482802213 0 0.001370867786)
(0.8225559613 0 0.0008574183753)
(0.7382991986 0.025 0.00390849302)
(0.9300768007 0 0.003997253425)
(0.7062309045 0 0.003709191696)
(0.943696908 0 0.004837178458)
(0.9469169338 0.025 0.003155080863)
(0.7888596676 0.025 0.004969736791)
(0.829960784 0 0.003559406136)
(0.6922244937 0.025 0.002831795641)
(0.9015939759 0.025 0.003092405794)
(0.9718917677 0 0.002897777592)
(0.9587795589 0 0.002756925427)
(0.9803225405 0.025 0.001373489244)
(0.8917711715 0 0.003924122672)
(0.8520060964 0.025 0.00236811588)
(0.9736420396 0 0.002758652488)
(0.9028680729 0 0.0003201450774)
(0.8802329667 0 0.002741656728)
(0.8769628692 0 0.002603618543)
(0.9853576485 0.025 0.003064944829)
(0.8500909707 0.025 0.00255430122)
(0.8159736578 0 0.001097274729)
(0.7345827297 0 0.003345225964)
(0.793999193 5.421010862e-20 0.003033631222)
(0.9772320631 0 0.003784754899)
(0.8942452466 0 0.003091364008)
(0.8945378 0 0.004887893287)
(0.8463166879 0.025 0.003954648226)
(0.9371794768 0.025 0.000279044027)
(0.8603617022 0 0.004952682905)
(0.9544683828 0 0.001499371966)
(0.9307378413 0.025 0.0005910267761)
(0.8971125837 0 0.004429499974)
(0.9186938357 0 0.00257216094)
(0.9589739024 0 0.004044829185)
(0.8876367499 0.025 0.001557609846)
(0.834384897 0.025 0.002145386405)
(0.9386508737 0 0.003852361072)
(0.940373916 0.025 0.00284566319)
(0.9312111812 0 0.002310525037)
(0.7298773028 0 0.004818186596)
(0.7980444751 0.025 0.00203488889)
(0.7530153087 0.025 0.0001043578057)
(0.9475125852 0.025 0.003212264677)
(0.7930821558 0.025 0.003979668443)
(0.8542957004 0 0.001970269255)
(0.9618106179 0 0.004087932444)
(0.899047159 0 0.004995098209)
(0.9406699513 0 0.0004479140391)
(0.9886761128 0.025 0.0009681871125)
(0.9627806566 0.025 0.0003571302491)
(0.9164307087 0.025 0.001336903526)
(0.7745662714 0.025 0.004217350472)
(0.9589106755 0.025 0.00458502078)
(0.8301680592 0 0.003524095476)
(0.8355679917 0.025 0.00286959022)
(0.9137499278 0 0.0002170058705)
(0.8289879405 0 0.002965440323)
(0.8050465261 0.025 0.003314852001)
(0.8340168709 0.025 0.003047263286)
(0.9559824536 0 0.0005563080709)
(0.94006486 0 0.003433666399)
(0.9513387894 0.025 0.0001034284932)
(0.9588888198 0 0.002637875009)
(0.9531246833 0.025 9.941210181e-05)
(0.8716207879 0 0.001656140812)
(0.7802686329 0.025 0.004986221818)
(0.973281378 0 0.003075079877)
(0.7238186633 0 0.0002020498961)
(0.9236741357 0 0.0002479303503)
(0.6607044359 0 0.004763760707)
(0.9422215929 0 0.004055691478)
(0.8887363909 0 0.004432923599)
(0.8358813774 0 0.0009533026658)
(0.9696375257 0 0.004961790463)
(0.8535869596 0.025 0.002697257985)
(0.9582569703 0 0.003449986002)
(0.7926013325 0 0.0001568946302)
(0.9775434549 0.025 0.002657745185)
(0.9314457224 0.025 0.004503169388)
(0.9748536394 0 0.004470675784)
(0.856354549 0 0.0007173949652)
(0.8599632401 0.025 0.001033707003)
(0.9335648539 0.025 0.004176436534)
(0.6882473523 0 0.004734175337)
(0.87555045 0 0.004074547948)
(0.8883281866 0 0.0006278669004)
(0.976421642 0 0.0007166525964)
(0.9512790523 0 0.001640953195)
(0.7517409842 0 0.002237264174)
(0.8825982985 0.025 0.0003135902395)
(0.8128705311 0.025 0.004014500729)
(0.6665933643 -1.084202172e-19 0.001308267584)
(0.9599414793 0 0.004257429863)
(0.887375988 0 0.002377031601)
(0.8309294693 0 0.001571920428)
(0.8017484685 0.025 0.00453076186)
(0.9263163172 0.025 0.002475823851)
(0.7865050597 0 0.000576903854)
(0.9732062417 0.025 6.289923178e-05)
(0.8890134953 0 0.003615846887)
(0.8411831528 0 0.00269825507)
(0.9932877984 0.025 0.001775491644)
(0.7056232198 0 0.003253600163)
(0.8443397532 0.025 0.004283991166)
(0.8649967609 0.025 0.00068992578)
(0.9031382686 0 0.004182612862)
(0.9008645757 0.025 0.002361837189)
(0.7401298583 0.025 0.004836479146)
(0.8212775167 0 0.001156376912)
(0.7951088463 0.025 0.003343591124)
(0.9147327044 0.025 7.774804516e-05)
(0.8787017627 0.025 0.003831477663)
(0.7661700468 0.025 0.002319383041)
(0.9723519554 0 0.004706696706)
(0.7838715797 0.025 0.003497812245)
(0.7794033217 0 0.004920813671)
(0.9652282569 0 0.0002353830373)
(0.7912522114 0.025 0.00324176815)
(0.9065697575 0 0.001063958903)
(0.939985698 0 0.001612012156)
(0.8495987229 0 0.002053259205)
(0.6091065803 0 0.004852472221)
(0.8900036731 0.025 0.001647999145)
(0.9499181451 0 0.004720722817)
(0.9824749284 0.025 0.003936232303)
(0.9732841411 0 0.0005814837768)
(0.9770530037 0.025 0.002910373005)
(0.9881682671 0 0.00450811585)
(0.8589064504 0 0.001698086837)
(0.8730689494 0 0.003612842178)
(0.8079922997 0 0.002513000273)
(0.9635314163 0 0.0009337626186)
(0.8195660609 0 0.004335613061)
(0.8466973067 0 0.004076302435)
(0.9009349272 0.025 0.001904415619)
(0.9296346311 0.025 0.001452424076)
(0.9417361894 0.025 0.00243227228)
(0.8378957263 0 0.001732280825)
(0.9218891499 0 0.003826902591)
(0.9279472296 0.025 0.001501327338)
(0.8628230471 0.025 0.0009205934113)
(0.8308645595 0.025 0.004399392189)
(0.8405732172 0.025 0.002505435962)
(0.8298732119 0.025 0.004829211632)
(0.6396511672 0 0.00151632945)
(0.9526735738 0.025 0.0008219812916)
(0.8957520651 0 0.003853681726)
(0.961185667 0.025 0.001897459553)
(0.9353564133 0.025 0.003562869646)
(0.9663837013 2.168404345e-19 0.002010266735)
(0.9373858364 0.025 0.002069626993)
(0.801506013 0 0.001026890493)
(0.9368412313 0.025 0.0007897281811)
(0.8071704187 0.025 0.0006584260029)
(0.9044130001 0 0.00386268342)
(0.6590848132 0.025 0.0006866122565)
(0.7145795903 0 0.001488635681)
(0.7572975898 0.025 0.003740728704)
(0.9312299705 0 0.0004272330014)
(0.8639239669 0.025 0.004562945444)
(0.9269977087 0 0.002086717568)
(0.9547294327 0 0.003508380175)
(0.9649959393 0 0.003732914293)
(0.9240498071 0.025 0.002553952872)
(0.9694235881 0.025 0.001665039274)
(0.972062715 2.168404345e-19 0.003177191572)
(0.8942929421 0 0.0005734542399)
(0.9460880068 0 0.002009424179)
(0.9615036026 0 0.004736349381)
(0.9823457978 0.025 0.003203496454)
(0.8285497366 0 0.00191544605)
(0.9058257492 0 0.0008726191967)
(0.7676147495 0.025 0.001910133151)
(0.9148659795 0.025 0.001122625185)
(0.8927326519 0 0.003936470362)
(0.8268735602 0.025 0.004490350753)
(0.9165359082 0.025 0.004008367103)
(0.5421633167 0.025 0.0009012130743)
(0.9424899791 0 0.002931512866)
(0.9423598456 0 0.00055889206)
(0.6383550939 0 0.001986102421)
(0.9653542129 0.025 0.0001516827715)
(0.9620805331 0 0.0006204566398)
(0.8010309354 0 0.003689555767)
(0.883523379 0.025 0.002515349789)
(0.6894632913 0 0.00406747804)
(0.7293221516 0.025 0.00463464015)
(0.7681455812 0.025 0.002954813759)
(0.9696117977 0 0.002299720678)
(0.9205788724 0 0.002584545882)
(0.7335124014 0 0.004740996592)
(0.9764106166 0 0.004108588818)
(0.9281918744 0 0.002258060691)
(0.9446374533 0.025 0.004784737319)
(0.8469461853 0 0.000758848931)
(0.7817073389 0 0.002536186415)
(0.8447213143 0 0.002321970674)
(0.9215915139 0 9.770593684e-05)
(0.888324738 0 0.001703965024)
(0.9863279546 0.025 0.002682538785)
(0.9745286026 0.025 0.001350424421)
(0.87859248 0.025 0.003272500541)
(0.8969485055 0 0.004090761715)
(0.8354178891 0.025 0.004185937568)
(0.8846016944 0.025 0.001151829302)
(0.8469441293 0 0.00165086467)
(0.8494671165 0 0.0008983140867)
(0.7374551967 0 0.004392093254)
(0.9298164917 0 0.002274478216)
(0.7822505599 0 0.0003874939688)
(0.9131383802 0 0.001330172625)
(0.9560632757 0 0.004350849193)
(0.9649035013 0 0.002430509506)
(0.9673897572 0.025 0.001528770268)
(0.874344739 0.025 0.0006176163341)
(0.9232165454 0 0.001266891604)
(0.9528897498 0 0.002259965576)
(0.8818980951 0.025 0.004211498008)
(0.8805083445 0.025 0.004813110741)
(0.8704689594 0.025 0.001180727627)
(0.7417475587 0.025 0.003164599533)
(0.9666358627 0.025 0.003477836293)
(0.9508826174 0 0.004444951765)
(0.9156835048 0 0.0004014949267)
(0.8354204039 0.025 0.003887316134)
(0.6978409039 0 0.001557991495)
(0.9504404485 0.025 0.001663168899)
(0.8687168942 0 0.002228968582)
(0.7238232327 0 0.00454171143)
(0.8884170306 1.355252716e-20 0.004855989839)
(0.9063863111 0.025 0.003096989238)
(0.9361741324 0.025 0.002695476458)
(0.8863230086 0 0.00304791926)
(0.9516545516 0.025 0.002472141863)
(0.8232212544 0 0.002361701252)
(0.9008856205 0.025 0.001084419839)
(0.9898215815 0.025 0.001525090728)
(0.8576606098 0 0.0005508579757)
(0.8450700821 0 0.002928650622)
(0.8968841321 0.025 0.002269222882)
(0.886282906 0.025 0.002633628575)
(0.7423607071 0 0.001703226066)
(0.9462189189 0 0.0002653250714)
(0.9509373241 0.025 0.0005854118197)
(0.896122998 0.025 0.001312635621)
(0.8609217724 0.025 0.003168774575)
(0.7475027291 0.025 0.002229697602)
(0.9613716227 0.025 0.00162240164)
(0.790014824 0 0.003881964164)
(0.8267766638 0 0.003020973054)
(0.957300217 0 0.002377861812)
(0.8780780736 0 0.004619057624)
(0.9476787249 0.025 0.00132305946)
(0.7949955903 0 0.001952578047)
(0.6031995873 0 0.002347441796)
(0.8526557233 0.025 0.003171958423)
(0.75844522 0.025 0.002234240832)
(0.9511494416 0.025 0.004604959774)
(0.8361492842 0.025 0.0004641641996)
(0.7997589649 0 0.001547552817)
(0.977583356 0.025 0.00344200723)
(0.9376123451 0.025 0.003391308368)
(0.9581640903 0.025 0.004069929038)
(0.9691183161 0 0.001006934209)
(0.9223954206 0.025 0.004969932947)
(0.7723311728 0.025 0.004106304956)
(0.9418540439 0 0.0009664412267)
(0.9296303761 0 0.004349837817)
(0.734116947 0.025 0.002184727349)
(0.7873302927 0.025 0.0008021716661)
(0.6518181342 0.025 0.003571736055)
(0.8677958598 0.025 0.002372800087)
(0.8835957466 0.025 0.003977631647)
(0.9181696461 0.025 0.001471223179)
(0.5897301181 0.025 0.001673311163)
(0.9598675449 0 0.0002680735585)
(0.6889316842 0.025 0.0002587841265)
(0.9048774825 1.355252716e-20 0.003730126786)
(0.8464453215 0.025 0.003979434933)
(0.8662470023 0 0.002992833047)
(0.9199153055 0 0.001025279963)
(0.9434739029 -1.084202172e-19 0.002642245567)
(0.9396441657 -5.421010862e-20 0.001290638645)
(0.9520611764 0 0.003766144647)
(0.8185637906 0 0.001052051585)
(0.8721732559 2.168404345e-19 0.0001036145373)
(0.7808475639 0 0.002336560574)
(0.6682810066 0.025 0.001200940363)
(0.729652137 0 0.001348718569)
(0.9093444916 0.025 0.00358694801)
(0.9730796008 0.025 0.002684282458)
(0.7074354003 0 0.0007122168223)
(0.8024069836 0.025 0.002261122636)
(0.9264851103 0.025 0.004191532582)
(0.8605640412 0 0.002029401877)
(0.9240218246 0.025 0.001390531104)
(0.9087247896 0 0.00441980351)
(0.7761924415 0.025 0.004756269873)
(0.9768222776 -1.084202172e-19 0.001615987465)
(0.8570328205 0 0.00230854819)
(0.9688479431 0.025 0.004409050188)
(0.8304670863 0.025 0.001311918603)
(0.6797560189 0 0.002969659588)
(0.8696595992 0 0.004198600939)
(0.9057179962 0 0.004158426456)
(0.960553787 0 0.003349443934)
(0.9311612159 0 0.003901682695)
(0.7541537223 0.025 2.242288744e-05)
(0.8288091264 0.025 0.0037259791)
(0.9461088461 0.025 0.003679540846)
(0.8839946759 0.025 0.0003196895901)
(0.8362007555 0.025 0.002559292076)
(0.8245719584 0 0.003433722974)
(0.7957948547 0 0.003192687802)
(0.8312709754 0 0.004988356706)
(0.7742548325 0.025 0.003290206008)
(0.913639595 0.025 0.0005144769153)
(0.835235345 0 0.002334070864)
(0.8629850522 0 0.00483606826)
(0.9501795244 0.025 0.002218473921)
(0.9612037101 1.084202172e-19 0.002127875902)
(0.7077344148 0 0.004190829706)
(0.7831584619 0 0.002106977145)
(0.9167279168 0.025 0.001580967446)
(0.9379964577 1.084202172e-19 0.003351645586)
(0.8592242696 0 0.0006137151499)
(0.9504367292 0 0.003906870647)
(0.9274109448 0.025 0.003640530019)
(0.9757371525 0 0.002043694654)
(0.8546126855 0 0.004095245187)
(0.8728797499 -2.168404345e-19 0.003041854732)
(0.9174652367 0.025 0.003749354811)
(0.8862791235 0 0.002691003477)
(0.9028970963 0.025 0.003431558762)
(0.9245065541 0.025 0.002025968477)
(0.8371351417 0 0.0003395202708)
(0.8786391023 0 0.00319669786)
(0.8714107487 0.025 0.004491845703)
(0.9470577793 0.025 0.004781690295)
(0.6918177302 0 1.153701589e-05)
(0.7414086605 0 0.003054500049)
(0.8454277999 0 0.001213311743)
(0.9118389056 0 0.0004879874606)
(0.8417382785 0.025 0.002135152113)
(0.9321534396 0 0.003854829458)
(0.8858227364 0.025 0.0005174134746)
(0.9357095253 0 0.001522551549)
(0.958028388 0.025 0.003876948319)
(0.9563401943 0.025 0.004956387475)
(0.7570266274 0 0.000641482057)
(0.9729131336 0.025 0.0004355074827)
(0.9199705488 0 0.002774504991)
(0.8369465285 0 0.002859414631)
(0.9651795693 0 0.004507423118)
(0.9383219165 0.025 0.003390789756)
(0.9471291151 0 0.003270195769)
(0.8149758878 0.025 0.004719726798)
(0.7825745892 0.025 0.004973083502)
(0.8926976052 0.025 0.003976329526)
(0.8722733983 0.025 0.002553461876)
(0.8422630131 0 0.001786551659)
(0.9658343474 0.025 0.002193240232)
(0.8860858235 0 0.004934286357)
(0.7103579201 0.025 0.002894697099)
(0.9414167454 0.025 0.003588463769)
(0.8842616718 0.025 0.0008511736724)
(0.9403754458 -5.421010862e-20 0.001680261251)
(0.8986324892 0.025 0.0004380847695)
(0.7081654424 0 0.00165206911)
(0.9918541615 0.025 0.0003745111657)
(0.7905854789 0 0.002190253446)
(0.882602199 0 0.00137712963)
(0.8501111318 0.025 0.002377897805)
(0.8636247051 0.025 0.002864304082)
(0.92067987 0 0.0027478706)
(0.9688747339 0.025 0.001897869991)
(0.6823061798 0.025 0.001297255049)
(0.9190163906 0.025 0.002681936289)
(0.9294410672 2.710505431e-20 0.004528602601)
(0.7900585278 0.025 0.002158536663)
(0.8577556502 0.025 0.002914257739)
(0.9608586407 0.025 0.001648900517)
(0.9661023517 0.025 0.000985238025)
(0.9568252145 0.025 0.002278098464)
(0.9665417703 0.025 0.004170463073)
(0.8721322195 0.025 0.0007166268826)
(0.9390633691 0 0.004346528961)
(0.825642769 0.025 0.002468934471)
(0.9781043139 0.025 0.002047904754)
(0.7954253647 0 9.150869735e-05)
(0.5935059883 0.025 0.001769511209)
(0.9663393732 0.025 0.002998297532)
(0.9882545031 0.025 0.004769621815)
(0.9072617236 0.025 0.000819240511)
(0.9168959723 0.025 0.001041904419)
(0.9158856797 0.025 0.001969210303)
(0.8640039397 0 0.003861746429)
(0.9159681437 0 0.0007549623175)
(0.8659283653 0.025 0.0007400005282)
(0.9487430904 0.025 0.003917233192)
(0.6579429976 0 0.0001334984889)
(0.864864437 0.025 0.0005489152864)
(0.7219065675 0 0.0008398110046)
(0.7779653463 -5.421010862e-20 0.004310908263)
(0.996889739 0 8.911118317e-05)
(0.7978063979 0.025 0.00406411086)
(0.9489070347 0 0.001018765914)
(0.6118527642 0.025 0.001460773825)
(0.9243606897 0 0.00465400035)
(0.8622494294 0 0.001288681641)
(0.9601595471 0.025 0.003264426193)
(0.8043029122 0.025 0.0001353799405)
(0.924435158 0 0.002490400565)
(0.7311891907 0.025 0.00428393388)
(0.8828547061 0.025 0.004320569151)
(0.8941977557 -1.355252716e-20 0.004098621404)
(0.914386257 0 0.001440116132)
(0.8772106069 0.025 0.0009292059598)
(0.9855002355 0 0.001850556768)
(0.9074000805 0 0.0007907336561)
(0.8287743893 0.025 0.003447463263)
(0.8575409813 0.025 0.0001852316387)
(0.9084000646 0 0.003636580083)
(0.9726464074 0.025 0.004664308575)
(0.794674975 0.025 0.004518078749)
(0.9239874833 0 0.004566443383)
(0.9807850835 0 0.003105852101)
(0.9218896292 1.084202172e-19 0.001891004884)
(0.7991719011 0.025 0.004275767857)
(0.9534989354 0 0.004357873864)
(0.6221595764 0.025 0.0003100005537)
(0.8652582973 0 0.004803255849)
(0.645316731 0.025 0.001979977681)
(0.7780913351 0.025 0.001580152614)
(0.9129461295 0.025 0.000828672255)
(0.967208976 0 0.004543674164)
(0.8335600802 0.025 0.00318112081)
(0.8616310049 0.025 0.001489891044)
(0.9618167174 0 0.002523985244)
(0.7231203916 0 0.0004281559805)
(0.8971950331 0 0.003886987029)
(0.9618539115 0 0.002640127316)
(0.8129021117 0 0.004693707956)
(0.9693508649 0 0.0003797802497)
(0.7721703598 0 0.004413941978)
(0.7650181002 0 0.003962572415)
(0.5420029367 0.025 0.004014419265)
(0.870364574 0 0.001745445194)
(0.8665402704 0 0.0005263516048)
(0.8880450264 0.025 0.00224086692)
(0.8659923055 0.025 0.004108436302)
(0.9397477773 0 0.004789833643)
(0.8025208967 0 0.000738645036)
(0.9388448965 0 0.001983650374)
(0.7859621267 0 0.002988211819)
(0.8470211633 0.025 0.003708080325)
(0.935274765 0 0.001115682501)
(0.9223249174 0 0.001492609844)
(0.7875968621 0.025 0.00244959904)
(0.9490689122 0.025 0.004245899224)
(0.8276431454 0.025 0.003408682938)
(0.7900307831 0 0.001780243949)
(0.7367780555 0 0.0003518041194)
(0.9286953068 0 0.00394184377)
(0.9447163016 0.025 0.0005146528589)
(0.8386785433 0.025 0.0008636040869)
(0.9363670568 0 0.001023795053)
(0.9452493061 0 0.002243631673)
(0.9382644784 0.025 0.0006686979935)
(0.9638750395 0 0.003194497479)
(0.6953204202 0 0.001483981299)
(0.9261263236 0 0.004480198484)
(0.7741137762 0.025 0.002982859816)
(0.910693807 0.025 0.00143791309)
(0.7985868362 0 0.003379536976)
(0.7325424441 0.025 0.002229124887)
(0.828950361 0.025 0.002401916632)
(0.7900018858 1.058791184e-22 0.002661409838)
(0.9041903546 0 0.004583228805)
(0.9766806653 0.025 0.002380149956)
(0.9314434785 0.025 0.002098101582)
(0.9175866105 0 0.0004997019976)
(0.8942668819 0.025 0.002524453426)
(0.926468076 0 0.003637241131)
(0.8305602138 0.025 0.003745726186)
(0.8268645378 0 0.0003149248269)
(0.8635793411 0 0.002206253225)
(0.9028467272 0 0.0009409202197)
(0.9723914979 0 0.0004755166262)
(0.6868729718 0 0.000257323639)
(0.6764504117 0.025 0.00262118598)
(0.8967350302 0 0.001018001686)
(0.6235243151 0 0.001136949025)
(0.9058725792 0 0.002295484323)
(0.9275731829 0.025 0.002810592778)
(0.7978192912 0.025 0.003151484141)
(0.8829814164 0 0.0004711865223)
(0.9589471197 0.025 0.003207338944)
(0.9617532978 0 0.0007621118326)
(0.9463262413 0.025 0.002549706823)
(0.9450575605 0.025 0.0007170396254)
(0.9537665423 0.025 0.001004015579)
(0.9432284849 0.025 0.0002552265073)
(0.9429591023 0.025 0.003592751052)
(0.9092438311 0.025 0.000205688139)
(0.9583323529 0 0.002194728624)
(0.7690914529 0.025 0.0040636594)
(0.7226813773 0.025 0.003970445439)
(0.9816887308 0.025 0.001206507462)
(0.8946805853 0.025 0.002352591349)
(0.8354133314 0.025 0.004699781894)
(0.7118146798 0 0.004221783869)
(0.7603548836 0.025 0.003650296084)
(0.7806062915 0.025 0.004619185629)
(0.6392498182 0.025 0.002259140056)
(0.7790204842 0.025 0.003429802086)
(0.6969410331 0.025 0.003200413149)
(0.7988247356 0 0.001352642406)
(0.7460928855 0 0.0009947283301)
(0.8841519152 0.025 0.004827636625)
(0.9058136742 0 0.003698987167)
(0.8154271125 0.025 0.002300033703)
(0.9363364188 2.710505431e-20 0.002503224852)
(0.518695148 0.025 0.001105896448)
(0.9202678055 0.025 0.00119713185)
(0.8928786823 0 0.001742989806)
(0.7554452974 0.025 0.0002933010535)
(0.8275098776 0 0.003897852277)
(0.7691556571 0.025 0.0003992934914)
(0.7816382563 0.025 0.003329872317)
(0.8367872509 0.025 0.001774602009)
(0.8835164535 0 0.003829363833)
(0.7516341856 0 0.002817900484)
(0.7924422567 0.025 0.00425673379)
(0.6449128818 0.025 0.001288313032)
(0.7769191495 0.025 0.00145517035)
(0.8531602989 0.025 0.003510365803)
(0.7886299249 0.025 0.002977580102)
(0.7196301612 0.025 0.003984212554)
(0.9472587717 0 0.003335056213)
(0.9493134552 0.025 0.003467971557)
(0.5416371083 0 0.0002063085842)
(0.9009746839 0.025 0.00210076027)
(0.946124929 1.694065895e-21 0.002679084899)
(0.7913308969 0.025 0.000517999954)
(0.7170490544 0 0.00308726656)
(0.9960422587 0.025 0.003730352116)
(0.9558195718 0 0.001427065794)
(0.6144953652 0 0.001478681174)
(0.9375591525 0 0.004480857496)
(0.9028249312 0.025 0.001464424206)
(0.7760964762 0 0.0005899011555)
(0.6917023458 0 0.001429225772)
(0.860240677 0.025 0.001968453343)
(0.8810863364 0 0.004012218205)
(0.9351527187 0 0.0004095968438)
(0.8817276679 0 0.003907891219)
(0.8885695539 0.025 0.001798275039)
(0.9678124378 -5.421010862e-20 0.004368586982)
(0.8929262527 0 0.004974638031)
(0.8757281345 2.168404345e-19 0.003266254139)
(0.8210045264 0.025 0.00468384093)
(0.7727063149 2.168404345e-19 0.0002781663932)
(0.9487446688 0.025 0.003251413302)
(0.934356786 0 0.0006985044361)
(0.9015084977 0.025 0.003329520566)
(0.8762598879 -2.168404345e-19 0.003856362294)
(0.9055154223 0.025 0.004224928766)
(0.6266350953 0 0.002077035657)
(0.894529297 0.025 0.003628506284)
(0.9132517935 0.025 0.002303208979)
(0.7098922066 0.025 0.002021831376)
(0.9012867217 0 0.002542776398)
(0.8983834231 0.025 0.002314332962)
(0.922844251 0.025 0.004201692876)
(0.9573969623 0 0.0008551265459)
(0.925043242 8.470329473e-22 0.004978998571)
(0.9071555349 1.694065895e-21 4.809264992e-05)
(0.9439788291 0.025 0.003551485192)
(0.9323381439 5.421010862e-20 0.0007764238564)
(0.9325634788 0 0.001895383636)
(0.8978095202 0 0.001817763945)
(0.9006672749 0.025 0.002635287662)
(0.6483896099 0 0.001781412751)
(0.9700176751 0.025 0.004382286953)
(0.904831566 0 0.0004299602527)
(0.8998080213 0 0.001295148007)
(0.9472419082 0 0.002015370635)
(0.9282923554 0 0.002230790272)
(0.9611293401 0.025 0.004760734682)
(0.9358144729 0 0.0009438937136)
(0.8656940727 0 0.0005883594044)
(0.9522024519 0.025 0.004401109461)
(0.9359094663 0.025 0.0007934715364)
(0.8266361182 0 0.0006965894769)
(0.9891187895 5.421010862e-20 0.003464021177)
(0.8260436014 0.025 0.00476592607)
(0.8814000424 0.025 2.71079922e-05)
(0.8984328288 0 0.004212536915)
(0.8833059846 0.025 0.0004476041125)
(0.9453726222 0.025 0.004804577744)
(0.8902830071 0.025 0.0001009849284)
(0.951758091 0 0.00388921255)
(0.8945083038 0.025 0.004988968781)
(0.85023392 0.025 0.003984990261)
(0.979759626 0 0.00103491463)
(0.9513907581 0.025 0.003613809301)
(0.9918152781 0.025 0.004314730904)
(0.8792500075 0.025 0.003053477209)
(0.9836643314 0.025 0.001232019288)
(0.9837206223 -2.710505431e-20 0.003359152985)
(0.9155290992 0.025 0.004011380228)
(0.655418301 0 0.002024719557)
(0.8658288715 0.025 0.003828272591)
(0.9504930325 0.025 0.00400357147)
(0.7626920217 0 0.0006958391451)
(0.8882542719 0 0.0005495639584)
(0.7085928783 0.025 0.004693511402)
(0.6949808162 0 0.0008282799763)
(0.9460208041 0 0.003700946577)
(0.8753091402 0.025 0.004578697199)
(0.930705491 0.025 0.0007426365799)
(0.7243740684 0 0.003845890717)
(0.931746918 0.025 0.004128653983)
(0.8260006651 0 0.001869578168)
(0.9582106928 0.025 0.0005841597509)
(0.9731882983 0 0.003097014426)
(0.8120338819 0.025 0.0007171105917)
(0.8430699722 0 0.004798465134)
(0.9668857547 0 0.003847702311)
(0.9430909442 0 0.0008468443772)
(0.5207300516 0 0.002925729577)
(0.9503526374 0.025 0.003014210413)
(0.9017837766 0 0.003210029967)
(0.9393744897 0.025 7.202118385e-05)
(0.8954142459 0.025 0.003502706746)
(0.9058608104 0 0.002318896107)
(0.9712509955 0 0.003602456153)
(0.6329806468 0.025 0.002511185246)
(0.9525050479 0.025 0.003382618577)
(0.6863091247 -1.084202172e-19 0.002643046338)
(0.725328928 0.025 0.004464454942)
(0.9394861147 0.025 0.002687384639)
(0.8627076486 0.025 0.001010213207)
(0.8826400549 0.025 0.001854056026)
(0.8129766779 0.025 0.00475547325)
(0.9296467825 0.025 0.002215423966)
(0.9752291399 0 0.001659431521)
(0.9712962031 0.025 0.004133185217)
(0.9762187551 0 0.003588092469)
(0.9041625664 0 0.004391148039)
(0.7898574399 0.025 0.003690704785)
(0.8725992163 0 0.004417383096)
(0.8958734517 0.025 0.003337199508)
(0.9271552282 0 0.00435409958)
(0.892923535 0 0.003531941407)
(0.9367784829 0 0.001222196843)
(0.9755203993 0.025 0.004223356897)
(0.9438605325 0.025 0.002791071305)
(0.8008925963 0 0.003599018408)
(0.9192773232 0.025 0.002554178058)
(0.6966312839 0 0.004804676869)
(0.9619802581 0.025 0.004269765015)
(0.8142520128 0 0.002922932383)
(0.8821063071 0 0.0009797595103)
(0.5914432585 0 0.00311306852)
(0.9643508725 0 0.001687349674)
(0.9900765419 0 0.004988273012)
(0.9478431895 0 0.002753208869)
(0.7760035517 0.025 0.0002868388812)
(0.953897833 0.025 0.004031413828)
(0.6422482187 0.025 0.00369233328)
(0.874972034 0 0.001339085811)
(0.7119307246 0 0.004498112601)
(0.9767322445 1.084202172e-19 0.003544137864)
(0.7518200367 0.025 0.002333524464)
(0.9288670196 0.025 0.003228982563)
(0.8797401058 0.025 0.0007264190579)
(0.9267814037 0.025 0.003489489152)
(0.8509458389 0 0.004150591902)
(0.8890054144 0.025 0.002826619269)
(0.9224003389 0.025 5.262475848e-05)
(0.7577656042 0 0.003367129687)
(0.8474153433 0.025 0.00208628768)
(0.8530582715 0.025 0.003894238806)
(0.8325881641 0 0.004261060698)
(0.7673146734 0 0.003269569034)
(0.8524234872 0.025 0.0008688676276)
(0.7603284007 0 0.00473548589)
(0.8962975586 0.025 0.002646650717)
(0.9561120205 0.025 0.000825871768)
(0.9223803749 0.025 0.004545354339)
(0.8200131407 0 0.003945394058)
(0.9686342356 0 0.003410281638)
(0.7087867223 0.025 0.002394818467)
(0.9380800243 0.025 0.002612693757)
(0.6171654738 0 0.004395306004)
(0.9015643093 0 0.004070636441)
(0.8074831432 0.025 8.195060039e-05)
(0.932475297 0.025 0.002430030597)
(0.833398934 0.025 0.003490678611)
(0.7891825931 0 0.002844843063)
(0.7467456477 0.025 0.002472081948)
(0.7991395193 0 0.003437517719)
(0.936940829 0 0.002376498999)
(0.9393162948 0 0.004362663094)
(0.8110766494 0 0.002707342532)
(0.8714847867 0 0.003287506939)
(0.4643234866 0 0.0029358536)
(0.8167036997 0 0.0009638004006)
(0.9398155666 0 0.001037887079)
(0.8512096993 0.025 0.004192504423)
(0.9406448563 0.025 0.0007410171595)
(0.9274727836 0.025 0.0007644978339)
(0.8891974982 0.025 0.0006336620181)
(0.7975599182 0.025 0.001771198685)
(0.8991323677 0.025 0.002568138185)
(0.8452774699 0 0.002767169998)
(0.9488637302 0 0.001236274098)
(0.8936193687 0.025 0.003090972083)
(0.8022238726 0 0.002497543905)
(0.6722220479 0.025 0.002242751683)
(0.9102613143 0.025 0.00180538829)
(0.9154311597 0 0.0006190242201)
(0.967514466 0 0.003990271444)
(0.7795169692 0 0.003826037438)
(0.8518718754 0.025 0.004957767156)
(0.944488968 0.025 0.003250035924)
(0.8426190887 0.025 0.002329193818)
(0.9760234315 0.025 0.001128482633)
(0.8925570209 0 0.001602849523)
(0.8780755404 0 0.002617862901)
(0.9204118185 0 0.002613549044)
(0.8864787043 0 0.003823027054)
(0.8617611294 0 0.000586667648)
(0.8417571481 0 0.002883898449)
(0.9276861346 0 0.003269328767)
(0.9238402697 0.025 0.004737943994)
(0.9673740859 0.025 0.002778590168)
(0.7986521317 1.084202172e-19 0.004516833642)
(0.7051763903 0 0.0008951410213)
(0.7642850765 0 0.003358693163)
(0.8851883373 0.025 0.003981915403)
(0.8662923605 0 0.0004190895371)
(0.7045353835 0 0.002090802636)
(0.9764962494 0.025 0.003841285124)
(0.8927857625 0.025 0.004699858348)
(0.8731708805 0 0.002211389963)
(0.8860737341 0 0.00425265805)