/*--------------------------------*- C++ -*----------------------------------*\
| =========                 |                                                 |
| \\      /  F ield         | OpenFOAM: The Open Source CFD Toolbox           |
|  \\    /   O peration     | Version:  v1706                                 |
|   \\  /    A nd           | Web:      www.OpenFOAM.com                      |
|    \\/     M anipulation  |                                                 |
\*---------------------------------------------------------------------------*/
FoamFile
{
    version     2.0;
    format      ascii;
    class       vectorField;
    location    "0.1/lagrangian/dsmc";
    object      tracerInitialPosition;
}
// * * * * * * * * * * * * * * * * * * * * * * * * * * * * * * * * * * * * * //


97053
(
(0 0.005699510059 0.002661626569)
(0 0.01799637254 0.004831241077)
(0 0.01388245442 0.003375841441)
(0 0.02140977891 0.002937987339)
(0 0.01356884031 0.000382248027)
(0 0.01328669111 0.0006847212023)
(0 0.003271898668 0.0004827000464)
(0 0.00407558741 0.004161949689)
(0 0.01731375984 0.004376374533)
(0 0.01242467751 0.00272447651)
(0 0.003338180016 0.000405897984)
(0 0.0127580501 0.002003909221)
(0 0.0179627461 0.001910214508)
(0 0.006193502031 0.003631708234)
(0 0.0161698595 0.001558173704)
(0 0.02349604382 0.002412042202)
(0 0.01877216535 0.004174365482)
(0 0.007996884232 0.001339394547)
(0 3.676098139e-05 0.0003988291774)
(0 0.01450362142 0.003033970193)
(0 0.01136248134 0.003234484071)
(0 0.01055913959 0.001246730586)
(0 0.01061985684 0.001808314169)
(0 0.02191131451 0.0002852240185)
(0 0.004852479729 0.00142444067)
(0 0.01491992417 0.003882705325)
(0 0.00650416775 0.002966234616)
(0 0.001267143276 0.003068076861)
(0 0.001153961629 0.002155069702)
(0 0.0128370408 0.003357264307)
(0 0.01257591091 0.003636532627)
(0 0.003997672893 0.0002928161574)
(0 0.01217225154 0.004063028437)
(0 0.02426246245 0.00499430446)
(0 0.02021262716 0.001450472063)
(0 0.01368908554 0.002965550232)
(0 0.02358054529 0.001754440557)
(0 0.004530673139 0.003188410409)
(0 0.005441696923 0.004595423368)
(0 0.02141136758 0.0004361409678)
(0 0.01501922436 0.001096426968)
(0 0.004145973294 0.004865709458)
(0 0.005637311631 0.0002059711998)
(0 0.02085490506 0.001080583995)
(0 0.004747769517 0.002051443183)
(0 0.01888307125 0.000816612599)
(0 0.01852985822 0.002833675529)
(0 0.02269266804 0.001404906971)
(0 0.02063404939 0.004939764847)
(0 0.006016539279 0.004984926338)
(0 0.002089762355 0.003747717918)
(0 0.005253632381 0.002631895704)
(0 0.01518970151 0.001075917142)
(0 0.02397271439 0.001696014642)
(0 0.01471980708 0.001217497362)
(0 0.01885411184 0.0007240307946)
(0 0.02175534094 0.003096157059)
(0 0.003881877299 0.00341584515)
(0 0.009247315616 0.003697030586)
(0 0.01171751471 0.004102754738)
(0 0.01183426823 0.0007004524446)
(0 0.009057975945 0.003070637549)
(0 0.009401022852 0.0003257045392)
(0 0.01702181035 0.004858346401)
(0 0.01864000016 0.003514130145)
(0 0.003584739842 0.0003554379273)
(0 0.02383237826 0.001091942897)
(0 0.01221640173 0.004255735883)
(0 0.01930158492 0.002851987664)
(0 0.01572928435 0.0005109566485)
(0 0.01659469051 0.002560638983)
(0 0.01946110225 0.00186950675)
(0 0.01150128062 0.0007346988738)
(0 0.01538172443 0.003888513138)
(0 0.01660614591 0.00118959932)
(0 0.007228372969 0.001251290894)
(0 0.01139216866 0.002574532474)
(0 0.003244634228 0.003683676586)
(0 0.01420831563 0.004542234381)
(0 0.0008524019438 0.0005013242048)
(0 0.006420304421 0.0001018301926)
(0 0.02004647219 0.004327720713)
(0 0.001981600435 0.004079851982)
(0 0.0201278031 0.002689935315)
(0 0.007201225639 0.004273335187)
(0 0.006254447601 0.001501188013)
(0 0.005956914665 0.001495109077)
(0 0.01548719825 0.001491028932)
(0 0.00847054333 0.002240918767)
(0 0.003141456785 0.00451782356)
(0 0.0158745055 0.0002941250653)
(0 0.01438154046 0.002937388741)
(0 0.004851913602 0.00202926017)
(0 0.003564754335 0.003011626218)
(0 0.01662005625 0.001076997043)
(0 0.02439548969 0.003089269936)
(0 0.01747513422 0.0002426792092)
(0 0.01578224588 6.366652494e-05)
(0 0.01664663585 0.003187401647)
(0 0.005052620552 0.001415454678)
(0 0.01306588202 0.001430250898)
(0 0.02028623776 0.002538840931)
(0 0.007266645793 0.003430473112)
(0 0.002925421512 0.004637280351)
(0 0.006837141992 0.0009065358127)
(0 0.02347725657 0.004154507019)
(0 0.01454235259 0.003900936217)
(0 0.01703128001 0.00227379306)
(0 0.01618829873 0.001989072943)
(0 0.02465923621 0.002965049164)
(0 0.0008171182073 0.001747003441)
(0 0.01530069582 0.0002596555242)
(0 0.002430324525 0.004546952427)
(0 0.009515279136 0.004984428188)
(0 0.01374549278 0.001473563374)
(0 0.003523285519 0.001930090166)
(0 0.02068135823 0.0002660576168)
(0 0.01503741958 0.00219685926)
(0 0.02328698342 0.001726240078)
(0 0.004157058748 0.003712654579)
(0 0.0001358541708 0.0005827758223)
(0 0.01417865863 0.00261211658)
(0 0.02213792687 0.004205852583)
(0 0.02169101234 0.002235737202)
(0 0.004425642704 0.00395099544)
(0 0.02184006506 0.00260702638)
(0 0.009886906992 0.0007578910841)
(0 0.007088875425 0.001472540424)
(0 0.009112769181 0.003604841107)
(0 0.005384333286 0.003310960634)
(0 0.01424009908 0.001855355146)
(0 0.01667343078 0.002774426709)
(0 0.0007727214521 0.001544542165)
(0 0.01289155924 0.0004614457557)
(0 0.01658416287 0.003759102763)
(0 0.008035138655 2.276793669e-06)
(0 0.01051932627 0.002048897768)
(0 0.01260598599 0.003132746656)
(0 0.003743547039 0.003253960068)
(0 0.01221526931 0.003269531742)
(0 0.0003791173672 0.004089722172)
(0 0.006126321734 0.003992964479)
(0 0.009975757659 0.002718566748)
(0 0.01937296344 0.003097403206)
(0 0.009126997525 0.004751349634)
(0 0.01370573311 0.003197135397)
(0 0.007232369473 0.002426241797)
(0 0.02252731769 0.001575604239)
(0 0.01091591808 0.001122826943)
(0 0.01674456019 0.002308873402)
(0 0.0136316778 0.002992816565)
(0 0.01186860331 0.00277977256)
(0 0.004423184138 0.001846612856)
(0 0.005050134037 0.004927540033)
(0 0.02126620094 0.001439658361)
(0 0.01908116252 0.003131529522)
(0 0.01558056152 0.00487805569)
(0 0.02196080018 0.003311431727)
(0 0.0007948010073 0.003725241626)
(0 0.009960575656 0.0004199042964)
(0 0.0164902054 0.002276896923)
(0 0.001090976065 0.004405138422)
(0 0.01202472985 0.0045636157)
(0 0.01145821132 0.002914785973)
(0 0.004552294461 0.002834429761)
(0 0.02461429261 0.002354853116)
(0 0.02072049177 0.001814581648)
(0 0.006451324514 0.001976707284)
(0 0.0220162975 0.0001432304117)
(0 0.008816723385 0.0006325191608)
(0 0.01145627089 0.001806649694)
(0 0.002179897883 0.003797816989)
(0 0.01448901795 0.002526848729)
(0 0.01166675442 0.004243335012)
(0 0.001584418497 0.003227906804)
(0 0.001603519202 0.004812348143)
(0 0.002172573187 0.003365407539)
(0 0.0121609229 0.003073001163)
(0 0.01164172172 0.0003565226347)
(0 0.0001700578722 0.004244557911)
(0 0.008422822273 0.001517797253)
(0 0.01736077766 0.003395189945)
(0 0.01752835724 0.0034794703)
(0 0.001236153047 0.0001123551048)
(0 0.01578886649 0.001447938448)
(0 0.01584050863 0.002740704613)
(0 0.002041045922 0.002126230249)
(0 0.0175521258 0.002058010336)
(0 0.02269272903 0.001976491788)
(0 0.01444897883 0.0004736253741)
(0 0.0167677415 0.004240532138)
(0 0.0191626479 0.0004871073113)
(0 0.01743140304 0.0005101399592)
(0 0.01730720356 0.00203719329)
(0 0.002176137952 0.003852845228)
(0 0.004995169857 0.002029890785)
(0 0.006602321768 0.002033360231)
(0 0.02421124741 0.003706029599)
(0 0.01884465695 0.004933370295)
(0 0.01998434265 0.0008745684769)
(0 0.02443471776 0.004849779742)
(0 0.007266284837 0.002728513309)
(0 0.0224926405 0.001514126381)
(0 0.02131263082 0.003418449198)
(0 0.01444997424 0.004464816938)
(0 0.002335040969 0.001919574782)
(0 0.008880069671 0.0001268433474)
(0 0.00523481362 0.003258352786)
(0 0.01555083171 0.001208516227)
(0 0.006092824049 0.002356143282)
(0 0.01421259099 0.004749215801)
(0 0.0003560406255 0.002775675067)
(0 0.02104650047 0.004280283174)
(0 0.01836181161 0.001463051459)
(0 0.01534985206 0.001646991281)
(0 0.002537269855 0.00434894002)
(0 0.01314324025 0.001411730344)
(0 0.02322698086 0.0004133457054)
(0 0.02199138768 0.0006196025129)
(0 0.008367391112 0.001865042223)
(0 0.02224886268 0.0003649655739)
(0 0.0240113304 0.004580118545)
(0 0.007046531174 0.0003972275779)
(0 0.007189202765 0.003250989239)
(0 0.0009934554491 0.001363115)
(0 0.01013880107 0.002613332717)
(0 0.01476960557 0.0008091026814)
(0 0.0184510394 0.003693329969)
(0 0.003372050452 0.004220409009)
(0 0.0148518588 0.0008844162764)
(0 0.004735975297 0.0003210231478)
(0 0.003644262466 0.004574468898)
(0 0.01861702377 0.003988825451)
(0 0.02403512019 0.003628433271)
(0 0.02073609331 0.0004525764071)
(0 0.0009095172815 0.003291679787)
(0 0.007954575662 0.003888553613)
(0 0.02403952713 0.002054626929)
(0 0.01373865471 0.0001764815209)
(0 0.02462147438 0.004464635429)
(0 0.007467858712 0.001063557242)
(0 0.0180910344 0.002601413711)
(0 0.02394223048 0.004184142602)
(0 0.007619545035 0.003846867739)
(0 0.01201054016 0.004401906769)
(0 0.005723889039 0.0007920222296)
(0 0.01520469695 0.001184936049)
(0 0.001725185823 0.002647750232)
(0 0.005498956439 0.00309834932)
(0 0.02154016215 0.004646497001)
(0 0.008039977841 0.0004824857222)
(0 0.01866052051 0.001579718996)
(0 0.01711546578 0.003978236082)
(0 0.004903264439 0.003282303864)
(0 0.008839935488 0.0004488450646)
(0 0.009112731913 0.004143462392)
(0 0.005862089496 0.001182168491)
(0 0.01024072161 0.003673607377)
(0 0.01274210654 0.004364589593)
(0 0.01067404283 0.0008390194734)
(0 0.01842862477 6.282844639e-05)
(0 0.001953791518 0.00294319782)
(0 0.009930759799 0.004372853704)
(0 0.01058234303 0.001965773668)
(0 0.02260590976 0.001741145818)
(0 0.02276947485 0.003500032445)
(0 0.008324003281 0.004340156373)
(0 0.00847832502 0.004219974482)
(0 0.01008495858 0.002974637675)
(0 0.01940585615 0.0007026644494)
(0 0.01232810568 0.001015443494)
(0 0.007244249407 0.004059045237)
(0 0.007196446896 0.002322904709)
(0 0.01241329326 0.004391438766)
(0 0.006843066843 0.004843862443)
(0 0.01154371543 0.001798736371)
(0 0.005967263578 0.003016887306)
(0 0.01829146318 0.002207817804)
(0 0.007652866318 0.002882675383)
(0 0.00537505914 0.001610461156)
(0 0.005582610154 0.00349321568)
(0 0.01114977231 0.0008469891551)
(0 0.02081276971 0.001869448366)
(0 0.01998298735 0.001755473054)
(0 0.02390341471 0.001388113468)
(0 0.01291998182 0.0003903335598)
(0 0.0190509926 0.002044468919)
(0 0.02143836593 0.001339824519)
(0 0.0007317450334 0.001624461978)
(0 0.02266259693 0.002469624408)
(0 0.02360655025 0.00107732311)
(0 0.00959796187 0.004528102269)
(0 0.01162461893 0.0008569708594)
(0 0.01649423787 0.001871020534)
(0 0.02412975612 0.00144295564)
(0 0.0009195737395 0.001121760886)
(0 0.006274731569 0.001482176778)
(0 0.009350064575 0.0001747685233)
(0 0.01338671554 0.002283061354)
(0 0.01586116269 0.002574021005)
(0 0.02386731302 0.003426819978)
(0 0.02238187841 0.0001063968863)
(0 0.003730361218 0.001410327769)
(0 0.01403304801 0.002374719727)
(0 0.02005264936 0.002474292986)
(0 0.0006999002637 0.002355672805)
(0 0.02346517676 0.003471769376)
(0 0.01637233387 0.003776374663)
(0 0.01523321446 0.003907262331)
(0 0.0235333632 0.0004009376524)
(0 0.00436870195 0.004968117307)
(0 2.650137598e-05 0.003276887796)
(0 0.00720934093 0.004785366501)
(0 0.01563732852 0.003429854628)
(0 0.02397966389 0.00247565684)
(0 0.007773006713 0.004295098381)
(0 0.007403810215 0.00339136753)
(0 0.01039050334 0.0001998807963)
(0 0.01697808757 0.003591431633)
(0 0.01639612264 0.0003277462336)
(0 0.002166605171 0.002085969049)
(0 0.01591160484 0.003343082056)
(0 0.02228337114 0.003101736017)
(0 0.007008554405 0.002686220425)
(0 0.02410438076 0.001039283756)
(0 0.0001058754778 0.004194660764)
(0 0.01140896925 0.00284109938)
(0 0.006794717444 0.003088524134)
(0 0.01176243967 0.004552964974)
(0 0.01225211473 0.0008068469292)
(0 0.02364442266 0.0006196961735)
(0 0.0001696467199 0.0030625983)
(0 0.02145485707 0.001014132678)
(0 0.02291699993 0.003711663338)
(0 0.003043855909 0.00317108353)
(0 0.01608264124 0.0006245476128)
(0 0.0217577235 0.0009202176362)
(0 0.01126889635 0.0009957044464)
(0 0.01651474247 0.00267790289)
(0 0.02396469474 0.0004081069795)
(0 0.005799257653 0.002922700723)
(0 0.02197055414 0.002108628465)
(0 0.007336075004 0.003952765919)
(0 0.0007138940228 0.001705623435)
(0 0.01159480593 0.004453291633)
(0 0.01287226021 0.0009503513521)
(0 0.01967241003 0.004466459684)
(0 0.01448228494 0.004691429072)
(0 0.01083285611 0.004840060514)
(0 0.01559208474 0.0007438278027)
(0 0.007541480124 0.001486690194)
(0 0.009340567446 0.003083772159)
(0 0.01688638899 0.0006794050566)
(0 0.01046654666 0.004779425399)
(0 0.01943762381 0.004763873302)
(0 0.01774342167 0.001482903543)
(0 0.01986422797 0.001760518243)
(0 0.00417979118 0.004629143707)
(0 0.02050836105 0.0006114304147)
(0 0.02406981233 0.002436876945)
(0 0.003703112027 0.003115708557)
(0 0.02131501563 0.0005143786584)
(0 0.01048479169 0.003524794334)
(0 0.01577288507 0.002547794436)
(0 0.02064061991 0.003793812543)
(0 0.01100008404 0.001248075051)
(0 0.01569041855 0.002011159739)
(0 0.000844689738 0.001428653227)
(0 0.01638111618 0.004985443672)
(0 0.02339915672 0.002291896207)
(0 0.00381694956 0.0001163031555)
(0 0.002330529981 0.003994621658)
(0 0.004459398114 0.002965050432)
(0 0.01822835903 0.003772561639)
(0 0.01606525036 0.0005876846343)
(0 0.024945251 0.000176468372)
(0 0.02289448246 0.004307946867)
(0 0.008864162154 0.003408113601)
(0 0.006564103518 0.0001827056526)
(0 0.01152539611 0.001698869887)
(0 0.01932492609 0.002004659388)
(0 0.0222747143 0.00176233349)
(0 0.01395438294 0.004142248517)
(0 0.0187455627 0.0006405088794)
(0 0.02476184028 0.004977149988)
(0 0.01029885764 0.004344526622)
(0 0.008195143917 0.0007910198428)
(0 0.01075288394 0.001971092191)
(0 0.01073012382 0.002974251313)
(0 0.02265311949 0.0004434898469)
(0 0.02022340215 0.003936524507)
(0 0.02058977671 0.0004098842887)
(0 0.0110251756 9.545100333e-05)
(0 0.01400270899 0.004770028098)
(0 0.02375683222 0.002764413934)
(0 0.007244267951 0.001444188546)
(0 0.0235792846 0.003265049022)
(0 0.02363554711 0.002125058826)
(0 0.009890276559 0.002251587057)
(0 0.01800418074 0.003069610517)
(0 0.02146355444 0.004359181252)
(0 0.004465611673 0.004014230072)
(0 0.009454231896 7.830470256e-05)
(0 0.005482084705 0.001449130283)
(0 0.01141505251 0.0001955487982)
(0 0.01927451928 0.001530317399)
(0 0.02266108336 0.001275866322)
(0 0.02245402247 0.003324723635)
(0 0.005209888174 0.001017364041)
(0 0.01359914119 0.001549144399)
(0 0.01084812186 0.003023400333)
(0 0.01136608968 0.003394296157)
(0 0.01525257745 0.001290060949)
(0 0.0156173098 0.0004113406345)
(0 0.01943644869 0.0008777372746)
(0 0.01559218303 2.203924569e-05)
(0 0.008212800892 0.002105878918)
(0 0.005093027156 8.252429702e-05)
(0 0.01975165889 0.001132626255)
(0 0.01531107733 0.002662660496)
(0 0.004113083325 0.003069925908)
(0 0.005576015322 0.002375710298)
(0 0.006936086912 0.0006891676491)
(0 0.01543176212 0.00054619003)
(0 0.0130602327 0.003882312215)
(0 0.01923263809 0.000425200778)
(0 0.006587341083 0.003366795049)
(0 0.01142076757 0.004817217671)
(0 0.01953939796 0.0007238543496)
(0 0.02271623124 0.004533471896)
(0 0.006492153942 0.001469897882)
(0 0.01346509403 0.00470738977)
(0 0.02290909871 0.002431660391)
(0 0.02112585564 0.002483724371)
(0 0.005306677534 0.002566982223)
(0 0.01079583937 0.004678445394)
(0 0.02281684169 0.002475525077)
(0 0.008094689772 0.004881465788)
(0 0.01498278876 0.004391614106)
(0 0.006359778075 0.002366782156)
(0 0.01444361737 0.003418688822)
(0 0.02478812811 0.004216351625)
(0 0.01148946954 0.00351791204)
(0 0.01482470725 0.00309075888)
(0 0.01715060824 0.002041486724)
(0 0.01888231308 0.0004276949419)
(0 3.633928492e-05 0.002267599822)
(0 0.002263155305 0.004110334486)
(0 0.006640409532 0.001058031751)
(0 0.002662465914 0.0003568520586)
(0 0.0004688799465 0.00354100641)
(0 0.01184827919 0.0007309160113)
(0 0.02425883547 0.001307584187)
(0 0.008794514963 0.001813073188)
(0 0.01885472565 0.004243455937)
(0 0.02269605732 0.0009169696515)
(0 0.02204624109 0.002255896329)
(0 0.003784126396 0.0006871623882)
(0 0.00974277289 0.003359453624)
(0 0.005401570687 0.003895232777)
(0 0.01310536732 0.0006359899574)
(0 0.01393955447 0.001874297623)
(0 0.008412111581 0.00308011714)
(0 0.01396742085 0.003526662033)
(0 0.01138288759 0.003387456368)
(0 0.02100134074 0.0001711640623)
(0 0.02492792849 0.0005696247405)
(0 0.002336369465 0.004228659014)
(0 0.007569999716 0.0006569570801)
(0 0.005365803601 0.004748822182)
(0 0.01370550759 0.001753546956)
(0 0.0206208587 0.003856954645)
(0 0.007041092735 0.004414485919)
(0 0.01104519581 0.001126509248)
(0 0.0007894857956 0.003593082812)
(0 0.01430861856 0.004175682688)
(0 0.01885086966 0.004462869243)
(0 0.02442923872 0.003365812133)
(0 0.02324428047 0.004806233425)
(0 0.02184382529 0.002669784751)
(0 0.007626773391 0.001621799305)
(0 0.00694760225 0.004257904395)
(0 0.006954097601 0.002313281056)
(0 0.00517408673 0.003786179281)
(0 0.02394300562 0.003603057399)
(0 0.02136475101 0.003579764136)
(0 0.007527147415 0.003597652384)
(0 0.01193977503 0.00190330091)
(0 0.008575241105 0.003226550157)
(0 0.009485168977 0.0007966908076)
(0 0.01949720732 0.0001956774332)
(0 0.01783024765 0.002433604529)
(0 0.001508845059 0.0004532305502)
(0 0.0002332430678 0.0024626651)
(0 0.01650164701 0.0004772729243)
(0 0.001361845489 0.0001925676926)
(0 0.0002843450395 0.00336343048)
(0 0.00710257342 0.002112687695)
(0 0.01474769897 0.004658275691)
(0 0.01747679431 0.001204728117)
(0 0.01127655316 0.001587942996)
(0 0.01123898981 0.004416853543)
(0 0.003942355153 0.0008075271636)
(0 0.009431183492 0.003445002928)
(0 0.01834995358 0.00499180219)
(0 0.003664094259 0.002712124618)
(0 0.0085445335 0.003746065793)
(0 0.02258886925 0.003875106173)
(0 0.007336137829 0.002223462094)
(0 0.01828893877 0.002936811275)
(0 0.02406181709 0.003126212582)
(0 0.0110926477 0.004862794321)
(0 0.01353825994 0.004547429734)
(0 0.01779742814 0.002379217306)
(0 0.01637157642 0.003741131103)
(0 0.02430513491 0.003760161137)
(0 0.001875028442 0.0003475990444)
(0 0.01641517582 0.004273427459)
(0 0.00319176783 0.000439737869)
(0 0.01085635501 0.00170769539)
(0 0.0150339815 0.001387226069)
(0 0.02059690153 0.003339258384)
(0 0.006766077913 0.004901542216)
(0 0.006217252789 0.002356520452)
(0 0.0234118699 0.001513888693)
(0 0.004239656562 0.004481070198)
(0 0.001841947985 0.002247052835)
(0 0.01213075937 0.002293904689)
(0 0.0148617013 0.001712573009)
(0 0.01569907849 0.0042365289)
(0 0.02185441538 0.000651180735)
(0 0.02449176576 0.001859595446)
(0 0.01386399958 0.004589313775)
(0 0.01217215355 0.0001008646901)
(0 0.0129750359 0.0008902970723)
(0 0.01206792855 0.004010744457)
(0 0.02353410758 0.00111077764)
(0 0.01475484444 0.001710778322)
(0 0.02272347676 0.004318950401)
(0 0.002888438085 0.004021007231)
(0 0.0001521563123 0.003805557301)
(0 0.004899982303 0.001543783328)
(0 0.00669427399 0.002660951034)
(0 0.00676920058 0.001647499414)
(0 0.01135669218 0.003932968406)
(0 0.02117440718 0.003850985968)
(0 0.02203794603 0.002800977196)
(0 0.0239492726 0.003764559746)
(0 0.02374447639 0.0008643155625)
(0 0.004727056957 0.0009511896766)
(0 0.002178349577 0.003543143736)
(0 0.0224586943 0.003676388795)
(0 0.02367665233 0.0006936524655)
(0 0.004736214172 0.00179117237)
(0 0.009675341236 0.00246006464)
(0 0.009727636612 0.001324805872)
(0 0.02315033131 0.001654921385)
(0 0.02187812275 0.0049011747)
(0 0.003223308513 0.004909042675)
(0 0.008021119323 0.004134618466)
(0 0.009381816272 0.002674241935)
(0 0.005192580627 0.003861173629)
(0 0.01029712594 0.004691534477)
(0 0.01338689829 0.001668730073)
(0 0.01983616519 0.0005900167608)
(0 0.02134883285 0.003674062919)
(0 0.02021886132 0.002763878181)
(0 0.02173540596 0.0008980555607)
(0 0.01418567641 0.0009893039573)
(0 0.01363648825 0.002611167363)
(0 0.01925771406 0.003882441398)
(0 0.0006812377043 0.0007369109896)
(0 0.005021683177 0.001797592382)
(0 0.01442955019 0.0008772639658)
(0 0.01631688751 0.004065289425)
(0 0.02448394637 0.003747725946)
(0 0.02176571118 0.004469589278)
(0 0.0006641519374 0.003069716246)
(0 0.009229841696 0.00407775387)
(0 0.01614363111 0.004026328181)
(0 0.01360496509 0.002460911798)
(0 0.01372256164 0.00125790944)
(0 0.004267247266 0.002321651869)
(0 0.006772864255 0.004281284634)
(0 0.007009287621 0.002125961912)
(0 0.01488359987 0.002201248676)
(0 0.01453947504 0.003509996927)
(0 0.0183044221 0.004462492096)
(0 0.007223388179 0.001797674904)
(0 0.006333464513 0.004775979135)
(0 0.008404046093 0.004070668673)
(0 0.01993951828 0.003119490605)
(0 0.02378900889 0.004574603404)
(0 0.02062948975 0.004617779838)
(0 0.02025720374 0.001727223657)
(0 0.004772637896 0.004604287992)
(0 0.005813908879 0.003741500864)
(0 0.01936898586 0.002261971966)
(0 0.02257384226 0.003981594654)
(0 0.00213477968 0.004123402958)
(0 0.002308809312 0.003178664416)
(0 0.01752613413 0.004980107961)
(0 0.01988194651 0.003722846606)
(0 0.01677945932 0.0003868131197)
(0 0.01907676706 0.0002122864737)
(0 0.004071312695 0.003298976451)
(0 0.0003441152127 0.003425301624)
(0 0.002182716871 0.001585241425)
(0 0.004511923347 0.0037335797)
(0 0.01247429152 0.003451984876)
(0 0.01075584401 0.0001463961937)
(0 0.001815899886 0.001940199834)
(0 0.002242369063 0.002567454544)
(0 0.01403616367 0.001444004372)
(0 0.003584208054 0.0003374595698)
(0 0.007594900798 0.003582075927)
(0 0.0173275902 0.00270867287)
(0 0.017750675 0.001011749426)
(0 0.01991445017 0.001512572194)
(0 0.02365440189 0.0001945406958)
(0 0.00191023458 0.00169481289)
(0 0.0006021443913 0.004477608603)
(0 0.007770829587 0.001362817628)
(0 0.01054331484 0.001651250523)
(0 0.01286066284 0.002559220746)
(0 0.01587875 0.0005347127173)
(0 0.02434595542 0.0003997405613)
(0 0.002857175428 0.0005624721428)
(0 0.007582205757 0.001933672554)
(0 0.0156910355 0.004368043307)
(0 0.02059674445 0.001784415156)
(0 0.004482565953 0.003915957143)
(0 0.008559547588 0.0009181268222)
(0 0.01151420225 0.003959463894)
(0 0.01723363799 0.003403017061)
(0 0.01554446903 0.003921919344)
(0 0.01721789429 0.004545783755)
(0 0.02374819863 0.002324666514)
(0 0.02290847774 0.001084535744)
(0 0.02232301059 0.003220692359)
(0 0.02223077473 0.001550168348)
(0 0.001458683048 0.004420302113)
(0 0.006579617418 0.001588316282)
(0 0.0142050113 0.002364946226)
(0 0.01745646982 0.002001732921)
(0 0.0006449956311 0.00296159167)
(0 0.002261602483 0.002691830423)
(0 0.003958830298 0.003835016229)
(0 0.005646736085 0.004822817969)
(0 0.01080364576 0.003661078378)
(0 0.01481947466 0.001042410421)
(0 0.01936782753 0.00293648299)
(0 0.01412296427 0.002879332141)
(0 0.0193715202 0.0007467544234)
(0 0.01769550134 0.004181423214)
(0 0.02001435576 0.000118361771)
(0 0.02463577798 0.0002075637957)
(0 0.001560783099 0.002093554862)
(0 0.0006581790108 0.003440086762)
(0 0.006184161552 0.004081270333)
(0 0.02150436891 0.002177086177)
(0 0.02056344857 0.002478540638)
(0 0.004328177955 0.002763908601)
(0 0.008947875461 0.004304552229)
(0 0.01947527652 0.003469537214)
(0 0.01534782401 0.002053339746)
(0 0.0208253986 0.00473290986)
(0 0.02154387588 0.002097585385)
(0 0.002580511246 0.0004465756841)
(0 0.001945426769 0.001122218603)
(0 0.003879204098 0.0001017773451)
(0 0.005283335069 0.0004416814419)
(0 0.009722433874 0.001149916271)
(0 0.005713576252 0.004686148181)
(0 0.01388749324 0.00486691339)
(0 0.01250169903 0.003708224353)
(0 0.01337602928 0.0007124424124)
(0 0.01545399158 0.00413842263)
(0 0.01997370342 0.003183176046)
(0 0.01939743964 0.00481570734)
(0 0.01364480259 0.001384651276)
(0 0.02296253301 0.004280132556)
(0 0.02101431036 0.003490902554)
(0 0.004317869703 0.003599329169)
(0 0.002119401897 0.004132812716)
(0 0.01006650993 0.003738104125)
(0 0.01623391073 0.00389745218)
(0 0.0004449489393 0.002457755266)
(0 0.00390960999 0.003250386771)
(0 0.006966235374 0.002751371573)
(0 0.009446369685 0.00472811714)
(0 0.007717290444 0.003853649734)
(0 0.009779408181 0.0004185755155)
(0 0.01490774554 0.003655032265)
(0 0.014512483 0.002244937025)
(0 0.01784542883 0.004574511026)
(0 0.02074817962 0.004182147492)
(0 0.02385455502 0.004886103753)
(0 0.003514854719 0.001971480353)
(0 0.01517960316 0.003396112933)
(0 0.01715416374 0.002931969818)
(0 0.02180667913 0.0005533961626)
(0 0.02278547341 0.002218934549)
(0 0.02461882059 0.001906302409)
(0 0.001697308923 0.004906992631)
(0 0.009191992566 0.003778927926)
(0 0.01940931451 0.001969662652)
(0 0.02262091675 0.002040310938)
(0 0.02214730687 0.004160529773)
(0 0.02499781519 0.0002355287337)
(0 0.00368889839 0.004576734143)
(0 0.002014752638 0.002773758274)
(0 0.01172351212 0.003054579978)
(0 0.01752794221 7.583359667e-05)
(0 0.01875229893 0.0002091018643)
(0 0.01625786933 0.001423466326)
(0 0.022378983 0.000464566617)
(0 0.02486769188 0.002077602633)
(0 0.001961279154 0.001954633965)
(0 0.001122319743 0.0008927560758)
(0 0.0009238583962 0.002519974743)
(0 0.01472442002 0.004526758429)
(0 0.01287577433 0.0008859408828)
(0 0.01763876844 0.002086972384)
(0 0.01643537395 0.003426518249)
(0 0.01977688056 0.001829768657)
(0 0.01813069182 0.001747838465)
(0 0.02389279261 0.001506564129)
(0 0.005034469279 0.00369183462)
(0 0.00866528593 0.002555732131)
(0 0.009975731302 0.001928513627)
(0 0.015852793 0.004254465973)
(0 0.020830715 0.002015312689)
(0 0.02462667971 0.0007675795606)
(0 0.0007542585621 0.001305506932)
(0 0.006122405633 0.00364325499)
(0 0.008123858938 0.002938322658)
(0 0.006915594148 0.004203152287)
(0 0.01806203731 0.0006240833163)
(0 0.02306919866 0.00270311982)
(0 0.02487440207 0.003738488254)
(0 0.02435499539 0.0004886107385)
(0 0.008543577923 0.002889268469)
(0 0.01492132011 0.002590965549)
(0 0.006338176129 0.004807327496)
(0 0.005387117201 0.001935917131)
(0 0.009487262444 0.003549967288)
(0 0.01170830301 0.004578334264)
(0 0.01041338657 0.0005303644694)
(0 0.01098507344 0.001452878482)
(0 0.01824333607 0.004853207116)
(0 0.02454001721 0.003087935311)
(0 0.0002575706975 0.004572246498)
(0 0.004990684351 0.001225830105)
(0 0.004494789129 0.0019067901)
(0 0.00587711434 0.0003878767673)
(0 0.007246377049 0.0006265626637)
(0 0.01809622099 0.004768889575)
(0 0.0156282258 0.001874017011)
(0 0.01797948481 0.001559400606)
(0 0.02102109196 0.001045350587)
(0 0.02174757853 0.0004033287869)
(0 0.02313721384 0.00113854135)
(0 0.01020919349 1.711137424e-05)
(0 0.01871110289 0.003840269599)
(0 0.002910210857 0.001444008388)
(0 0.007940965092 0.001874859151)
(0 0.01287861453 0.003387545702)
(0 0.01590183695 0.001373630092)
(0 0.004718088159 0.004741790657)
(0 0.003407706508 0.0002253262943)
(0 0.009522510648 0.00147865787)
(0 0.006529950239 0.0006777470989)
(0 0.008639132738 0.002315882526)
(0 0.009940898796 0.003523282995)
(0 0.01999497392 0.004940456798)
(0 0.01523768588 0.0003016894302)
(0 0.0177132173 0.001952768772)
(0 0.0001539601696 0.0008042255229)
(0 0.002477609993 0.001526305579)
(0 0.001090871651 0.003501448678)
(0 0.006556950114 0.002897542956)
(0 0.005412000899 0.002958487312)
(0 0.01016773818 0.001676927425)
(0 0.02243703977 0.001913793753)
(0 0.02249427591 0.0007558588617)
(0 0.0005016013662 0.004504163528)
(0 0.006786686687 0.004694027789)
(0 0.0109009842 0.004806418352)
(0 0.01303345333 0.0005493381388)
(0 0.01841149256 0.001902585753)
(0 0.02168442209 0.001155306246)
(0 0.002334022398 0.004932089901)
(0 0.01008641678 0.0002180261313)
(0 0.01067861399 0.003119422645)
(0 0.006053627442 0.003560675895)
(0 0.01189099989 0.002615787005)
(0 0.0158404662 0.004335935511)
(0 0.002373842392 0.0002878233447)
(0 0.003481438017 0.004865199746)
(0 0.0005462624774 0.004371643692)
(0 0.007117372971 0.001720815615)
(0 0.01435471251 0.002186898114)
(0 0.01286428242 0.003377534822)
(0 0.01046805395 0.003233578236)
(0 0.02353685668 0.002885289282)
(0 0.01565363016 0.0005625985066)
(0 0.01879547256 0.002613675665)
(0 0.02113115462 0.004290681709)
(0 0.000358331838 0.001949642261)
(0 0.007274046692 0.001871386911)
(0 0.007420084793 0.00469060419)
(0 0.01387335131 0.00141806307)
(0 0.01646798374 0.0009600226442)
(0 0.01673529374 0.0009391594654)
(0 0.02414981495 0.002371069505)
(0 0.002430686253 0.002327135003)
(0 0.006032987633 0.00193687373)
(0 0.006010561351 0.002173807582)
(0 0.005024819627 0.004292216083)
(0 0.01857517154 0.00309530728)
(0 0.023142957 0.003258645631)
(0 0.02047997718 0.002767493258)
(0 0.001968163353 0.0002885361606)
(0 0.005320426393 0.004563514963)
(0 0.01190853242 0.004773429316)
(0 0.0121079423 0.0002040458111)
(0 0.01373580227 0.001351347509)
(0 0.01939623852 0.003706974926)
(0 0.01991622038 0.00121141908)
(0 0.002315713168 0.003686688892)
(0 0.009777503765 0.0001364001566)
(0 0.01193732433 0.002695402674)
(0 0.01214005564 0.004300723836)
(0 0.01776946311 0.003700496174)
(0 0.009466998337 0.00260597077)
(0 0.02413085138 0.004734508199)
(0 0.02017149543 0.004674668013)
(0 0.02119425361 0.004029615132)
(0 0.02176341631 0.002715228646)
(0 0.001803988168 0.003590047059)
(0 0.005063206237 0.002599914355)
(0 0.01323705935 0.0007718044926)
(0 0.01818046496 0.002358913014)
(0 0.01642716024 0.0007492934999)
(0 0.01680231569 0.0002854731053)
(0 0.01883377882 0.001318151892)
(0 0.001736172814 0.002984521951)
(0 0.00306467299 0.002410889741)
(0 0.0005444548195 0.000828412561)
(0 0.00473630629 0.0005164959797)
(0 0.006641832326 0.0004242631791)
(0 0.01935686788 0.000562347324)
(0 0.01668207021 0.001864355332)
(0 0.01711130423 0.0001303342682)
(0 0.0007594124083 0.003168549755)
(0 0.006434460593 0.004676043323)
(0 0.01359357121 0.00147045676)
(0 0.0141068866 0.004463840388)
(0 0.01682047952 0.0008870650881)
(0 0.01962292529 0.004880412466)
(0 0.003700301972 0.004918355429)
(0 0.002684477399 0.001810938467)
(0 0.009674412876 0.003024226297)
(0 0.01707724271 0.001185888764)
(0 0.01828432658 0.002514970441)
(0 0.004777345993 0.001367276476)
(0 0.006358369007 0.002072436255)
(0 0.01329719847 0.002871401166)
(0 0.01027815115 0.003012858212)
(0 0.01070012836 0.002592999977)
(0 0.01826149308 0.0004250130921)
(0 0.02347624001 0.0001774153311)