/*--------------------------------*- C++ -*----------------------------------*\
| =========                 |                                                 |
| \\      /  F ield         | OpenFOAM: The Open Source CFD Toolbox           |
|  \\    /   O peration     | Version:  v1706                                 |
|   \\  /    A nd           | Web:      www.OpenFOAM.com                      |
|    \\/     M anipulation  |                                                 |
\*---------------------------------------------------------------------------*/
FoamFile
{
    version     2.0;
    format      ascii;
    class       scalarField;
    location    "0.00026/lagrangian/dsmc";
    object      ERot;
}
// * * * * * * * * * * * * * * * * * * * * * * * * * * * * * * * * * * * * * //


99998
(
1.559175224e-20
1.556900094e-19
1.349306022e-20
1.197045676e-19
1.000651117e-19
1.367983693e-20
9.318454502e-20
6.292058608e-20
2.289003055e-20
3.599204369e-20
2.35257502e-20
4.104094849e-19
4.550741485e-20
1.163992369e-19
7.304871198e-21
2.242716199e-20
1.1715684e-20
2.896101789e-20
3.210784443e-20
1.034720343e-19
2.259769674e-20
3.588533044e-20
5.6091758e-20
1.496930229e-21
1.677800912e-20
1.181278066e-20
1.675687052e-19
7.806922169e-20
1.513942399e-19
7.289475828e-20
4.649247753e-23
1.253453221e-20
3.550204548e-20
3.046594129e-20
5.310112213e-20
1.537194451e-19
5.829129984e-20
1.731561904e-20
8.473417741e-21
2.079409601e-20
6.429628742e-20
3.288874016e-20
3.208818986e-20
1.823804185e-19
1.810615568e-20
8.806229592e-21
3.253769238e-19
8.588037422e-20
1.727854557e-20
7.445296126e-20
1.129956408e-19
5.586052581e-20
5.916945831e-20
9.815183943e-20
5.657606988e-20
5.301146475e-20
2.392739932e-19
1.604145496e-20
1.455868186e-19
2.409266015e-20
1.41639691e-20
6.820037261e-20
3.695383323e-21
6.416155286e-20
5.432467587e-20
4.139033342e-20
1.400580525e-19
1.750688386e-20
1.289661102e-20
8.670551789e-20
2.867003342e-20
1.960119535e-21
3.981541553e-21
1.401831181e-19
3.157228851e-20
7.88109095e-21
1.115093705e-19
1.913625673e-20
8.288653384e-21
8.338863576e-23
6.22458981e-20
4.238400131e-20
1.776252063e-19
2.150461412e-19
2.525745762e-20
3.437032248e-20
1.478609083e-19
7.01877489e-20
8.183047029e-20
1.344325809e-20
3.002447187e-20
9.97559682e-21
3.419595128e-21
2.388997156e-20
2.186673987e-20
1.440964237e-19
1.102501642e-19
6.436617698e-21
1.531167392e-20
1.731528341e-19
6.607490723e-21
6.524502569e-23
2.420367483e-19
1.536275604e-20
5.502773659e-20
1.015239286e-19
2.8484638e-22
8.216455084e-20
1.155351467e-19
1.061529163e-21
7.563246457e-20
1.270553532e-20
1.060685784e-19
6.267352022e-21
5.353036623e-20
8.259094826e-20
1.074852955e-19
1.744694452e-20
1.47137559e-19
6.537258711e-21
1.248014822e-19
1.10569094e-19
3.316693219e-20
6.9172972e-20
7.951179035e-21
6.247313767e-20
9.171704859e-20
1.05958397e-20
5.782845004e-20
7.384551341e-20
2.02972252e-20
1.362477261e-19
6.619357732e-20
1.344455937e-20
5.897499106e-20
7.106275405e-20
1.552968301e-19
4.138043637e-20
9.974646392e-20
1.681835197e-19
1.07780659e-19
5.245129513e-20
3.095762319e-20
1.548783111e-20
4.018353935e-20
6.82943103e-20
6.688972791e-20
8.765551922e-20
4.736297196e-20
2.557731925e-20
6.76095835e-21
5.201440813e-20
2.110000245e-19
6.281906701e-21
1.172525552e-19
3.027952894e-20
3.141306695e-20
1.021016534e-19
3.130575213e-20
3.18263264e-20
1.415352884e-20
9.383531298e-20
9.921314698e-20
1.986803328e-19
6.108602504e-21
5.004043168e-20
3.665079412e-20
8.507765097e-20
8.64010681e-20
2.280274517e-20
5.116155077e-20
2.01414078e-20
4.758185438e-20
1.417517226e-20
4.908267111e-20
3.728497243e-20
1.088577819e-21
1.412072314e-19
1.539475795e-20
6.268575238e-20
2.515345542e-20
4.787823122e-20
6.388696367e-20
1.19590582e-20
2.129510929e-20
2.818942758e-21
2.818706947e-20
4.673446547e-20
1.119338134e-19
3.994408716e-20
9.155479898e-20
1.380463912e-20
8.284774805e-20
1.205018558e-20
1.392897425e-20
4.563329305e-20
1.087971912e-19
1.111591759e-19
5.0861903e-21
1.201973013e-19
5.441121367e-20
1.504734447e-19
7.032403516e-21
6.834515696e-20
5.850534775e-20
9.227165745e-20
2.539628983e-20
3.330528476e-20
4.760667687e-20
9.513612706e-21
1.175130974e-19
3.425037134e-20
7.50150501e-20
7.516756319e-20
9.418463625e-20
3.622525034e-22
2.612015865e-21
6.933649526e-20
7.496582976e-20
5.044595493e-20
1.547053425e-19
2.415055706e-20
1.122842214e-19
2.914307642e-20
1.15478618e-20
6.068552752e-20
5.079597232e-20
7.619905218e-21
1.9062016e-20
7.874790268e-23
3.213485523e-20
3.777246562e-20
1.059413704e-20
1.894174938e-20
1.804330042e-21
8.350690043e-21
3.492384668e-20
1.105840703e-19
2.275495419e-19
1.229380178e-19
4.523295263e-20
2.73232738e-20
4.46991245e-20
3.332125049e-20
8.53556788e-20
7.848544302e-20
4.226736923e-21
2.772055643e-20
8.827860143e-20
2.245766262e-20
7.291579338e-20
6.173124321e-21
1.312285165e-19
3.426410212e-21
1.720855422e-20
5.696520315e-20
1.023071463e-22
1.71449306e-20
3.293864773e-20
4.635611696e-20
3.261027945e-20
5.845003203e-20
2.544860318e-20
2.704607128e-20
1.9349531e-19
1.8672887e-19
2.082910727e-20
7.249230876e-20
1.722151161e-20
6.741214641e-22
5.099698315e-20
3.373970067e-21
2.349921176e-20
1.017478984e-19
1.353954436e-20
3.988548337e-21
1.402239503e-20
8.572120118e-20
7.249069399e-20
1.876411454e-19
2.743250822e-21
7.313917526e-20
6.227250065e-20
6.210805404e-20
2.615360317e-20
4.359851776e-20
1.9099673e-20
2.557149633e-20
5.814438624e-20
5.093321557e-20
9.840566858e-21
1.121986597e-20
2.186551288e-19
1.957366997e-19
5.396961095e-20
2.017897444e-20
5.855151238e-21
8.15734233e-21
6.719099644e-20
2.812736808e-20
6.867959586e-20
2.708876408e-20
6.681559591e-20
2.222482814e-21
2.334394213e-20
5.860060311e-20
1.063289997e-21
4.077355998e-20
9.634504943e-20
1.090921013e-19
6.332887902e-20
2.32723412e-19
4.18472373e-21
1.091804187e-19
1.498153995e-20
1.57021349e-20
3.825223375e-20
9.287933088e-20
1.41684336e-20
5.926485736e-20
4.161800398e-20
9.064715311e-20
6.658332919e-21
8.226154841e-20
2.662491081e-20
6.834142429e-20
1.012687007e-19
3.150246315e-20
1.490509794e-19
6.568551883e-22
5.335280425e-20
7.722120597e-20
1.107622645e-19
1.365708736e-19
2.591079368e-20
3.118961999e-20
3.067889941e-20
5.810935276e-20
1.058430589e-19
1.900958241e-20
4.605459996e-20
3.167339387e-20
3.550799816e-20
2.529478917e-19
4.874738532e-22
1.075054816e-20
1.838020979e-19
4.633464078e-21
1.689371716e-19
2.574266535e-19
1.742174043e-20
1.459496598e-19
1.909467152e-20
8.040217939e-20
5.019104635e-20
8.747025258e-20
7.589368511e-20
8.607638342e-21
3.489618556e-20
7.692746854e-20
1.272369281e-19
1.368150045e-19
1.407061107e-19
4.502500189e-20
5.054758638e-20
1.006140075e-19
2.977134213e-20
9.800885868e-21
4.200213455e-20
3.266192218e-19
1.809762956e-20
3.431261423e-20
2.778975976e-19
9.144599766e-20
7.736242086e-21
2.400629409e-20
4.337810123e-20
4.096322429e-20
4.025416706e-20
4.079244523e-20
1.304179742e-19
9.425623484e-21
1.896234187e-20
5.844782522e-20
3.954968006e-21
1.265335268e-21
7.649773921e-20
6.887700353e-21
1.065799429e-19
1.408871316e-21
1.099053629e-19
5.395448117e-21
1.847173235e-20
1.957957947e-20
9.048584068e-20
1.954624681e-20
2.464962509e-20
6.044520252e-20
1.0112569e-19
2.187375077e-20
5.29976647e-20
2.616984102e-21
2.402077898e-20
8.222155478e-20
7.337069886e-20
2.546921373e-20
1.893555171e-20
9.767947227e-20
1.567629236e-20
5.565449082e-20
4.429202769e-20
4.298035152e-20
1.264963332e-21
3.354072076e-21
1.449256137e-20
4.265198175e-20
1.278532966e-19
1.298561301e-20
8.383557484e-20
1.134437352e-19
2.665496398e-20
6.507126192e-20
3.404063756e-20
2.801544946e-21
2.52261209e-20
1.180682401e-19
5.582397006e-21
1.806208527e-21
7.426784379e-20
2.422874517e-20
1.466994702e-21
3.447342834e-20
2.704759786e-20
3.206913408e-20
1.239905976e-19
6.166786377e-20
2.518664883e-20
1.564136841e-21
3.416368274e-20
2.990656519e-19
3.766366973e-21
7.259590678e-20
1.800525043e-20
5.286151803e-20
5.511627122e-20
1.488766145e-19
4.170927597e-20
3.486284783e-20
6.698433931e-20
2.029190997e-19
9.480281968e-21
5.208202992e-20
2.501201003e-20
8.122545827e-21
7.349243009e-20
5.776615704e-20
2.75465074e-20
1.161260155e-19
6.271429971e-20
1.432594721e-19
1.926627311e-19
7.38410263e-20
1.564220877e-19
1.852886726e-20
3.43653025e-21
4.205013482e-20
2.385923044e-21
2.412046873e-20
3.371001169e-20
2.431824639e-20
1.203880262e-19
2.510882496e-20
2.79996824e-20
1.040063849e-19
1.26373117e-19
3.143866375e-21
1.390442243e-20
4.381560126e-20
8.504246463e-20
1.802321357e-19
1.630180554e-19
5.868984734e-20
7.135703905e-20
1.306026043e-20
1.995565185e-19
9.152037091e-20
5.382246391e-21
1.190464855e-19
1.298724037e-20
6.186098143e-21
1.306491941e-19
2.077116567e-19
9.789567145e-20
2.631415154e-20
9.445093449e-20
4.985640469e-21
5.393563708e-21
1.918044765e-20
2.006812066e-20
3.586021549e-22
2.470762775e-22
9.323890013e-20
2.186107837e-19
3.576917982e-20
8.280978355e-21
2.957185348e-20
1.13292409e-19
7.522642448e-20
4.082192162e-20
1.402005303e-19
4.281636215e-20
1.187162524e-19
3.706130292e-21
4.774223265e-20
3.134546625e-21
4.786240581e-20
7.108364111e-20
4.095203516e-20
5.71713683e-20
5.50322096e-21
9.063496143e-20
1.229651986e-20
9.146859592e-20
3.517321113e-20
4.328110801e-21
4.010556757e-20
6.079146499e-20
1.240819852e-19
8.872675589e-20
9.043307062e-21
5.042621936e-20
3.141470694e-20
3.389018124e-20
2.975311849e-23
8.736063865e-20
1.186120932e-19
6.843725336e-21
5.749851536e-20
1.706630149e-20
4.050047174e-21
8.029977037e-21
7.297142056e-20
2.008054555e-19
6.450544235e-20
3.477592183e-20
5.467047007e-22
1.805062203e-20
3.518351571e-20
1.436856201e-19
5.702120874e-20
7.561147787e-20
4.116715303e-20
2.413348169e-20
5.474086077e-20
4.031265805e-20
2.512210236e-20
5.164937804e-20
5.3178557e-20
9.141804545e-21
2.799143333e-20
3.69621081e-20
6.1765405e-20
1.161386118e-20
7.210286559e-20
2.015784252e-19
9.740859072e-20
6.008744006e-20
1.650980912e-20
1.518560535e-20
1.331358226e-19
3.241006471e-20
1.69627531e-19
1.557465844e-20
1.476140364e-21
1.000107277e-19
7.775455492e-21
1.218212319e-20
1.205773053e-19
2.865803777e-20
1.490680669e-19
1.144166822e-19
4.911806253e-21
1.60539264e-19
1.699721518e-20
2.363695048e-20
2.436312002e-21
4.293235841e-20
1.888765505e-20
4.413282116e-20
8.465281947e-20
1.655599287e-20
6.314817061e-20
5.05049094e-20
9.567946934e-20
1.476844734e-20
1.668767648e-19
9.081556139e-20
1.139454474e-19
1.32020147e-20
5.350847043e-20
4.645849843e-21
1.547766373e-19
1.528291871e-20
5.35996426e-20
9.555340015e-20
4.13676225e-20
3.137278786e-21
2.342631036e-20
1.984896919e-19
2.130045321e-20
7.841524491e-20
2.69382184e-20
3.014884881e-21
1.39900958e-19
4.01675987e-20
1.918992649e-20
4.399875921e-20
9.676137265e-21
3.210090262e-21
3.420689357e-20
1.10046167e-19
2.142924868e-20
5.531930916e-20
1.39191364e-19
3.381325926e-20
8.406350038e-20
2.857928963e-20
4.186923685e-20
1.057381203e-19
9.582830289e-22
3.041858738e-20
1.060028576e-19
6.6118649e-21
3.992355724e-20
7.482718138e-20
1.304081289e-20
3.111329496e-20
8.092274273e-21
2.683070736e-20
4.327588667e-20
2.834369735e-20
2.32923347e-20
2.308482611e-21
1.437876248e-19
2.999491369e-20
7.007915615e-20
6.161754903e-20
1.971105616e-20
9.353095089e-20
1.115904929e-19
3.327372742e-20
3.298314501e-21
5.306565203e-20
2.99401898e-20
1.116475864e-20
6.109128655e-21
3.048550378e-21
4.052797991e-20
8.841785905e-20
8.643168617e-21
7.084160989e-20
1.62818598e-19
1.276412574e-19
5.210849885e-20
4.671052158e-20
6.670363579e-20
1.120465728e-21
5.553012865e-22
2.026009792e-20
5.177450987e-20
1.023746338e-19
2.130067275e-19
8.249730283e-20
2.196299534e-19
6.325841768e-20
5.125402849e-20
1.244991493e-21
8.245793698e-20
5.559828614e-21
2.944995366e-20
2.652152917e-21
2.486391825e-20
1.385386206e-20
1.321828858e-19
1.507518823e-19
2.338016809e-20
4.556727157e-20
1.136917793e-20
1.396546432e-20
2.412810638e-20
5.272226001e-20
9.655161609e-21
1.15759608e-19
2.252168232e-20
3.549183261e-20
1.649020301e-20
4.960654227e-20
2.256423658e-21
2.317124952e-20
2.801691556e-20
3.550660401e-20
1.041687976e-21
2.279981037e-20
4.934619567e-21
3.42486537e-20
5.732605912e-20
4.236628313e-20
6.096768957e-20
3.21212476e-20
8.664445e-20
4.988394048e-23
7.794501839e-21
4.847643906e-20
1.141720488e-20
1.519560808e-19
4.805637347e-20
2.478983391e-20
5.570357351e-20
1.506929365e-21
6.734592924e-21
6.422683456e-20
1.654237672e-19
4.092464573e-20
1.281894018e-20
1.7361296e-19
6.221516098e-20
1.113517841e-19
8.425002014e-22
5.760428634e-20
6.209086262e-20
9.175033143e-20
2.886912061e-20
1.03375601e-20
1.120389121e-21
4.729461334e-20
2.51889817e-20
8.368638721e-22
1.203442463e-19
2.026761148e-20
9.119871126e-20
3.619690466e-20
2.241263773e-20
1.893427037e-21
1.608266466e-20
3.286691434e-20
1.125233268e-20
2.5146852e-20
7.717664192e-20
5.747371647e-20
4.422078092e-21
1.698071234e-19
2.184643565e-22
7.848676109e-20
4.135511204e-20
1.11139491e-19
1.503411145e-19
1.715434075e-20
3.519625374e-20
1.839567826e-19
9.707026677e-20
9.125769625e-21
8.232081446e-21
2.531311013e-20
4.654731909e-20
1.242906803e-19
9.606388637e-20
6.58143525e-20
6.974995874e-20
3.635757471e-21
7.372222558e-20
2.717834829e-20
2.32833308e-20
9.139666308e-22
4.790349271e-21
5.138205201e-21
2.109550911e-19
5.200082833e-20
5.065695814e-20
3.940375586e-20
9.410511026e-20
1.317498799e-21
1.473776228e-19
2.822165412e-20
8.232840972e-20
4.363603126e-20
1.522959504e-20
3.015146628e-21
5.710447529e-20
3.767802435e-20
6.73817577e-20
7.786608917e-20
1.05395306e-19
1.432083928e-19
4.426453019e-20
3.941218818e-20
1.359472155e-19
3.485137142e-21
9.664673362e-21
4.55580521e-20
2.477223418e-20
9.850441422e-20
8.106123163e-20
1.202790226e-20
1.339918397e-20
2.236407437e-20
3.985627448e-20
6.523994175e-21
8.616756516e-20
2.721983198e-22
3.880797711e-20
9.321960338e-21
8.731814979e-20
4.327586678e-20
1.569071142e-20
1.548000615e-19
1.676373534e-20
3.434025354e-21
2.56462899e-19
1.909272249e-19
2.226959165e-20
1.768704631e-19
1.062935448e-20
1.421875551e-20
6.349818859e-20
3.838587951e-20
1.111027461e-19
1.231740963e-19
2.177996347e-20
6.015982742e-20
7.812190348e-20
1.150244845e-19
9.319338123e-21
2.016218858e-20
3.236345662e-20
7.731513445e-20
3.306689258e-20
6.742132863e-20
1.09134718e-20
7.982151101e-20
2.160459459e-20
3.734625555e-20
6.548856447e-20
3.905119556e-20
2.081663058e-21
7.842843657e-20
1.631394657e-20
8.77597456e-20
8.353494323e-20
4.822666904e-20
7.53415123e-20
1.684888097e-21
1.246735608e-19
7.613953015e-20
6.741299109e-20
6.75617158e-20
1.123837234e-19
2.053925011e-21
8.429360117e-20
7.244482666e-20
8.026453823e-20
6.740194005e-20
2.381633281e-21
4.572314224e-20
1.395751511e-19
2.515136961e-20
1.078720412e-19
1.774580027e-20
1.567827634e-19
2.287373748e-20
1.011120393e-20
6.699441906e-20
4.212287439e-20
1.639356821e-20
1.29949595e-20
3.190206856e-20
1.140648907e-20
5.121921294e-20
7.568362822e-20
1.164791775e-20
8.770578724e-21
3.295245662e-22
1.797699098e-21
1.12489482e-19
2.875165667e-20
5.531131996e-20
2.459433776e-20
1.135547803e-19
4.604898926e-20
4.867605194e-20
2.101476412e-20
4.747379831e-20
2.196210814e-21
2.173797208e-19
2.901933745e-20
9.026526429e-20
8.947618892e-21
4.513194863e-20
4.796487549e-20
1.186294405e-19
1.854095836e-19
2.412626061e-20
9.583509623e-20
3.250503834e-20
1.913812482e-21
2.199345011e-20
1.990618588e-20
6.950502139e-20
1.000464731e-19
5.255548817e-21
1.905326986e-20
3.902888786e-22
3.599948196e-20
5.471377044e-20
2.280079362e-20
6.702687767e-21
3.700737753e-20
1.454344608e-20
9.480704162e-21
5.636402036e-20
1.10598528e-20
1.235276294e-21
2.832390342e-20
2.925224259e-20
1.443079713e-19
1.928506666e-19
1.515720234e-19
3.043159776e-20
5.509296386e-20
1.463561514e-21
2.487147579e-20
3.715112372e-20
1.1897928e-20
6.810347232e-20
8.300628231e-20
1.554622758e-19
7.561937249e-21
1.674331807e-19
2.753715893e-20
8.013413512e-20
1.780796122e-21
6.026496864e-21
7.364148441e-21
2.210918451e-20
7.779121776e-20
2.479035813e-20
4.546373852e-20
7.289410798e-20
5.692450365e-20
3.266754294e-20
9.047641691e-21
4.147209149e-20
2.572289205e-20
1.050055426e-19
3.922598008e-20
1.986086435e-19
7.633929229e-20
5.59910563e-20
5.536091559e-20
1.910056261e-20
7.85559692e-20
4.839821539e-20
1.621356063e-20
2.165155633e-20
2.49717006e-20
2.469064894e-20
2.478327583e-21
1.146821578e-19
2.071778866e-20
8.478597895e-20
7.31810823e-21
3.957739078e-20
3.623771345e-21
1.091040405e-20
1.778962389e-20
3.840650325e-20
4.658043435e-21
6.036356668e-20
8.094467265e-20
8.810068627e-20
6.024378761e-20
1.672388081e-19
2.658114158e-20
4.128941588e-20
8.447042681e-22
4.903928173e-20
2.117670417e-20
7.149020171e-21
4.116578081e-20
4.573461136e-20
7.910312306e-21
5.732642156e-20
9.365267509e-20
5.680257738e-20
4.281447757e-20
2.653389115e-20
6.620326647e-21
2.45047858e-20
6.366671251e-21
1.294407239e-19
2.909803064e-21
1.983665293e-20
4.559254417e-20
9.852503389e-20
2.572266494e-19
1.055576399e-20
4.855931679e-20
7.387929486e-20
2.242197967e-19
1.465839922e-19
7.742447142e-21
2.117754343e-19
3.47161327e-20
4.829721076e-21
7.300994334e-20
1.768887264e-19
2.711814034e-19
2.798363077e-20
6.218574807e-20
2.673417409e-20
1.758591108e-20
3.716052517e-20
8.955925806e-20
2.383599745e-20
3.427404421e-20
7.892051867e-20
7.120521861e-20
6.544814601e-20
1.92450218e-20
2.624145027e-20
6.878747905e-21
2.592511343e-19
4.467583725e-22
2.19091271e-20
2.580164947e-20
2.671610042e-20
5.371675159e-20
6.382510636e-20
2.05031618e-21
1.050820716e-20
2.824344034e-21
2.534526718e-20
1.100697346e-20
4.522368768e-20
5.485996204e-20
1.112918733e-20
2.259467051e-20
4.508051749e-21
1.338362372e-19
9.09119735e-20
1.393278758e-20
2.373589384e-20
1.929419329e-20
3.526766319e-21
8.370199399e-20
5.258774704e-20
7.939291157e-21
1.438466592e-20
1.756444794e-19
5.197546177e-20
6.929247203e-21
5.965577357e-21
6.773733904e-20
7.38084597e-21
1.523059012e-20
1.69184705e-19
6.014367672e-20
8.585078209e-20
1.523460128e-19
1.651104572e-19
6.316280139e-20
1.475711512e-19
8.134907456e-20
2.742665242e-20
8.584349464e-20
8.699831186e-21
7.09988684e-20
2.222396886e-20
9.637048291e-20
3.346229365e-20
1.129091766e-20
1.364856152e-20
3.641410665e-20
6.959213718e-20
4.613838344e-20
1.408070019e-19
1.46586415e-20
8.445149354e-20
2.75483369e-20
1.703759126e-20
2.891344138e-21
3.615791635e-20
5.336348961e-21
2.675561339e-20
6.272187652e-20
8.766065329e-20
3.829102905e-21
2.218512088e-21
2.400685599e-20
2.711103967e-20
3.078105644e-20
1.531058129e-19
3.595046483e-20
5.676838251e-20
1.230319758e-19
1.422705552e-20
1.858168861e-19
1.421210953e-21
5.711329122e-20
1.03193107e-19
2.094521635e-20
1.246432715e-20
6.058241116e-20
7.853556987e-21
1.090685353e-19
2.372322249e-21
2.208797296e-20
2.086954404e-20
2.438211274e-20
8.166268914e-20
1.061411879e-20
4.979265793e-20
3.766179736e-20
1.885372923e-20
3.486643458e-20
2.098166556e-20
3.066182049e-20
2.515978947e-20
3.985041061e-20
3.438397101e-20
1.309149482e-20
1.24501412e-19
9.771404289e-21
1.1215325e-19
2.288488326e-19
1.314969944e-19
3.648831363e-20
7.796148839e-21
8.66462124e-21
7.472054245e-20
6.54483928e-20
2.871929624e-20
3.624155885e-20
1.259218768e-19
2.850617595e-21
5.192602284e-21
6.8163183e-21
8.417531792e-21
7.07744231e-20
3.963510548e-20
8.480050255e-21
4.858112663e-20
1.236189625e-19
6.133547467e-20
7.609072565e-20
3.306794988e-20
8.697514805e-20
6.401421257e-20
2.406129755e-19
8.781525046e-20
6.803733531e-20
2.925977853e-21
2.282647666e-21
3.590171543e-20
4.510536915e-20
6.592644889e-21
1.197276224e-19
1.980875385e-19
3.776710419e-20
9.826260309e-20
9.21512366e-20
7.360558602e-20
4.496225468e-20
7.662718667e-20
2.231595207e-20
3.663781715e-20
4.396970696e-20
7.746936328e-21
1.175044523e-19
6.421526364e-20
6.956769505e-20
1.749313402e-20
8.343387748e-21
1.290153498e-20
7.530307666e-20
7.858254613e-20
8.969647808e-20
5.357974676e-20
1.2811725e-19
3.276736625e-20
5.908748875e-20
1.774036651e-20
9.821352064e-21
2.874468278e-21
6.773157236e-20
5.153333126e-20
8.189992687e-20
8.083796134e-20
9.624655028e-21
2.221614431e-20
5.944914379e-20
8.345890848e-20
2.197935273e-19
9.043600722e-20
2.024573996e-19
1.622252805e-20
4.23351071e-20
1.418604396e-20
1.09642502e-19
2.33245057e-20
1.209300126e-19
8.721518603e-20
9.134561759e-20
6.098531873e-20
4.994274561e-20
9.103712992e-20
3.031272845e-20
2.060031408e-19
2.190264771e-20
4.655704432e-21
2.11657933e-20
3.285398402e-20
6.623506481e-21
9.198254512e-21
4.268731684e-20
7.511328231e-20
2.663230028e-20
2.268583989e-20
1.485089737e-20
2.841388162e-20
1.634970643e-20
3.266295046e-21
1.038921141e-19
4.646966718e-20
2.511445058e-20
1.970527853e-19
9.86420975e-20
1.205866978e-19
1.732652615e-21
1.086533157e-20
5.437526224e-20
2.340031076e-20
1.973990998e-20
2.725324974e-19
1.208704256e-19
3.888804749e-21
4.483204277e-20
3.976228277e-20
2.08934572e-20
2.969018355e-20
6.956200514e-20
8.09836171e-20
1.349874478e-20
3.305953083e-21
4.398486967e-20
8.778961407e-20
6.017545453e-20
4.750202145e-20
3.478116774e-20
1.081544616e-19
1.593627353e-20
4.337745047e-20
3.076906805e-21
7.039806927e-20
9.356467458e-20
1.51465616e-19
4.75464945e-20
3.512838787e-20
5.845415641e-20
4.977903078e-20
2.166398438e-20
2.969530462e-19
3.280334165e-21
4.740852054e-20
8.316582198e-20
9.439245148e-20
9.743662554e-20
7.570439834e-21
5.713468583e-20
5.277546085e-21
3.931487555e-21
6.772977228e-20
1.757928002e-19
4.915671292e-20
8.429585689e-20
1.681906247e-20
2.10003588e-19
7.330678456e-20
7.215134298e-20
2.914332738e-21
6.69486919e-20
3.534389157e-20
4.104476934e-21
2.177332743e-20
8.57675966e-20
8.178315993e-21
2.692345007e-21
8.751590984e-20
1.140920236e-20
5.757534551e-20
8.943083604e-20
3.181806492e-20
1.282140491e-20
1.108974634e-20
2.325203896e-20
2.57326725e-19
1.21501211e-19
3.39131892e-21
4.537465373e-20
4.719101853e-20
5.40942439e-20
3.074618381e-20
7.833057558e-21
1.534701867e-20
1.373631361e-20
2.570118055e-20
1.412902332e-19
5.105581593e-21
9.626776943e-20
2.52755118e-19
1.139833223e-20
1.326173053e-19
6.152275334e-21
2.86944075e-20
7.344225009e-21
4.484274554e-21
7.984010512e-20
7.81963087e-21
5.505767645e-20
8.106368267e-20
9.744647629e-20
4.189085942e-20
3.889280104e-20
1.246940453e-20
5.258307329e-20
5.934569562e-21
6.929583586e-20
1.710846618e-21
1.323344433e-19
1.202212306e-20
4.927140673e-20
1.222946749e-20
8.789022049e-20
2.355674574e-20
2.266524378e-20
9.829527366e-22
2.698603618e-20
1.202685219e-19
4.382155833e-20
1.680498664e-22
1.15904302e-20
1.397688082e-20
4.056176404e-20
4.080764095e-22
4.014508312e-20
3.395702465e-20
8.991116853e-21
3.800250391e-20
2.81414124e-20
7.316128212e-20
1.676905566e-19
2.973014382e-20
1.163497383e-19
3.431063547e-20
1.166801522e-19
4.750732985e-21
4.498097368e-21
2.706726949e-19
5.863881271e-20
1.629090059e-20
5.054229653e-20
4.098135202e-22
1.270084883e-20
1.657426162e-23
1.964549818e-20
6.674356777e-20
8.636184433e-20
3.736540027e-20
5.690255476e-20
1.020875913e-20
6.886019519e-20
1.308616614e-20
1.480766398e-20
1.734321903e-20
6.851843136e-20
9.001288356e-21
2.368608541e-20
3.699237884e-20
2.484795263e-20
3.78131558e-22
5.474766224e-20
1.102752059e-20
1.085052287e-19
1.305264762e-19
3.987720864e-22
4.917022606e-20
3.328823115e-20
5.257025302e-21
5.527495085e-20
2.331907919e-20
2.397940817e-20
4.508335259e-20
2.524038356e-19
1.914304856e-20
2.815859117e-20
3.612708664e-20
1.942548205e-20
1.732036062e-20
3.163369837e-20
7.469544615e-20
5.796286457e-20
8.555594169e-21
1.367316668e-19
2.019807099e-20
1.040570115e-19
4.015940931e-20
1.904686843e-20
1.049515306e-20
3.046122766e-20
1.114134465e-20
2.632933048e-20
6.684372354e-20
9.758278332e-20
7.832049082e-20
6.038749317e-20
2.672764832e-19
1.056542804e-20
1.79719202e-20
3.844309209e-21
7.268409583e-20
1.223907496e-19
6.405868213e-22
1.234926924e-19
3.487026326e-20
3.534323127e-20
8.824277191e-20
1.039669638e-21
2.879529967e-20
2.209356252e-20
4.981250018e-21
9.616385938e-20
8.041952477e-20
5.61537366e-21
5.195051853e-20
6.733954479e-20
6.927202002e-21
8.013425622e-20
7.445145634e-20
1.689118356e-20
3.086392728e-20
1.553465615e-19
2.489124032e-20
1.587220655e-20
8.302683141e-20
4.824797163e-20
9.246069959e-20
1.649948814e-20
4.963306375e-21
5.874096661e-20
9.523634815e-20
5.460960227e-21
1.681191967e-21
4.304534952e-20
1.422941614e-20
8.901787713e-20
3.005508567e-20
8.434362064e-20
2.735828349e-20
5.380606292e-20
3.390368213e-20
7.459995245e-20
6.841264242e-21
1.262665919e-19
3.806736397e-20
9.164954132e-20
2.008743184e-20
4.492589872e-20
6.980940883e-20
4.591634469e-21
1.195265095e-20
1.462109383e-19
7.983249832e-20
1.575514837e-19
3.38933988e-20
1.795013573e-20
4.210316841e-21
4.108535318e-20
1.376049936e-20
2.742530967e-21
2.792609726e-20
3.967115068e-20
7.74908744e-20
4.644236143e-22
3.4632281e-20
4.254678852e-20
6.57750408e-20
1.135112016e-20
1.445194775e-19
1.664076067e-20
6.697242475e-20
1.305355476e-20
4.06686932e-20
3.431648476e-20
1.401132058e-19
3.607547989e-20
2.867627025e-22
2.759769056e-20
2.059800815e-21
5.197378992e-20
2.829695975e-20
4.054790414e-20
8.181772293e-20
9.003015285e-20
2.140513046e-20
2.462514253e-20
3.442585179e-20
4.526348634e-20
2.045980527e-20
1.259082345e-19
3.664000155e-20
5.763747514e-20
5.618544519e-20
6.907572101e-21
3.271496723e-20
4.335589634e-20
7.00341611e-21
5.158274024e-20
2.377320324e-21
1.236786997e-19
1.899102483e-20
9.745028784e-20
3.254168341e-20
1.00894465e-19
1.358855969e-19
4.944183108e-21
4.131290799e-20
9.631782786e-20
6.528334888e-21
4.988003553e-20
7.868357755e-20
1.361874528e-21
1.032856613e-19
3.347606176e-20
1.204609151e-20
3.682729508e-20
2.624578863e-20
2.488497783e-20
3.291142587e-21
1.526720898e-20
3.033079025e-20
3.447889904e-20
2.680390904e-21
1.383796946e-20
3.486782998e-20
1.442044813e-20
5.955701523e-21
6.392097763e-21
7.135172344e-20
8.44437668e-20
2.032563237e-19
5.430703981e-20
3.588166652e-20
1.925151969e-20
4.769370127e-20
1.196799219e-19
7.470460227e-20
9.51217539e-20
6.743549639e-20
1.543790375e-21
4.147029298e-20
3.42788303e-20
7.506413294e-20
1.553372369e-20
2.683552325e-20
1.109822599e-19
3.689736706e-20
4.85081532e-20
2.386179311e-20
2.813049065e-19
9.641264179e-20
1.03100756e-20
6.283483341e-20
5.218388572e-20
1.014308019e-20
1.239631727e-19
4.488683905e-20
3.050987551e-20
6.804416841e-20
8.647761074e-20
5.248100355e-20
3.741571165e-20
1.851502957e-20
1.518309516e-19
3.731837508e-21
1.170385067e-19
3.762775883e-20
5.256350084e-20
6.780630923e-20
4.478567834e-20
1.227694728e-19
1.007434967e-19
2.52308713e-20
1.747533326e-20
1.183321068e-19
7.523138281e-20
7.225063571e-20
3.854569493e-20
2.594501487e-19
1.676460002e-20
1.048094761e-20
4.958925347e-20
1.20532001e-19
7.328681612e-20
6.01944728e-20
2.726474992e-20
1.88755656e-20
6.857078265e-21
4.306412304e-20
3.668118479e-20
4.056245393e-21
1.126431187e-19
3.644117675e-20
4.387265987e-20
2.965773314e-20
1.880231135e-20
2.573130751e-20
2.294333695e-20
5.3939846e-21
5.042828741e-19
2.607906594e-20
7.673784002e-20
3.555774643e-20
6.289094164e-20
2.052962405e-20
3.340330211e-20
6.403307049e-20
7.066310519e-20
8.47116611e-20
2.650304622e-20
6.421917555e-20
7.422962538e-20
8.350540306e-22
4.994906709e-20
2.400054141e-20
1.084222252e-19
2.638428553e-20
3.920631447e-20
1.244649125e-20
1.613810867e-19
8.256761428e-20
1.989034163e-21
5.203170235e-21
2.709460915e-20
6.496970045e-20
1.097967417e-20
4.651047188e-20
6.041810845e-20
9.197982287e-21
1.972072691e-20
7.784049447e-22
4.825678289e-21
1.12774255e-20
2.319582286e-20
3.184049502e-20
1.150620389e-19
6.676581278e-20
4.815715321e-21
1.133054792e-20
2.480726215e-21
1.790597164e-19
9.938053635e-21
1.483042496e-20
1.623958978e-20
2.730357621e-20
6.323096776e-20
1.033249167e-19
3.406740222e-21
2.272145901e-20
9.003488493e-21
4.188775817e-21
9.140471972e-21
3.249741008e-21
5.035108992e-21
6.045177507e-20
6.967136387e-20
3.12504383e-20
1.414347613e-20
6.645947026e-20
6.39422958e-21
5.744223904e-21
1.006781442e-19
4.742433905e-20
1.35790906e-21
1.768195779e-20
6.001087119e-20
8.987530139e-20
2.07019244e-19
3.070588172e-21
2.651672886e-20
1.664053855e-20
5.633235231e-21
5.423408614e-20
3.155506578e-20
1.025589938e-20
1.017971642e-19
1.94141498e-20
4.842957041e-20
3.505835377e-20
1.79760785e-21
4.385044335e-20
1.899592936e-20
3.311521881e-20
5.729135501e-20
7.251812221e-20
3.940242667e-20
1.722082273e-21
1.517197122e-20
1.544516085e-20
4.054377759e-20
1.496665918e-20
1.899242434e-20
1.013046337e-19
5.426878325e-21
9.484986904e-21
6.737358798e-20
7.177736969e-20
4.401477092e-20
6.532248611e-20
6.063530395e-20
8.002996813e-20
4.717148563e-20
5.477008522e-21
2.799895198e-20
1.137189652e-19
2.788613321e-20
1.066914566e-19
2.23116086e-20
2.338314356e-21
2.081431692e-21
7.946943485e-20
7.326923607e-21
5.821659064e-20
2.601758087e-20
7.439456661e-21
3.065873978e-20
6.060716599e-21
4.684682903e-20
3.20480843e-20
7.498793117e-20
2.662393728e-20
1.352024703e-20
3.151082603e-19
4.323050965e-21
2.683543344e-20
7.007221834e-21
1.935548087e-21
3.271992616e-20
5.049987851e-20
3.973144042e-20
5.482794689e-20
1.261569381e-20
1.899476361e-20
8.639401498e-20
8.478746657e-21
1.721781963e-20
7.069762044e-20
3.207835873e-20
4.904855843e-21
6.853812734e-20
8.049308269e-20
1.570354549e-20
3.313643624e-20
1.355684455e-20
4.543449433e-20
2.60417736e-20
1.191360209e-20
5.589166564e-20
4.054643525e-20
3.16774429e-20
1.003590183e-19
6.850593486e-20
5.046946458e-20
8.645792473e-20
7.831170001e-20
7.343101353e-21
6.647537607e-20
1.347665281e-19
6.899551284e-20
4.419624235e-21
9.366291798e-20
1.075872394e-20
1.639152373e-19
6.683353322e-20
8.513769894e-21
1.009930882e-21
9.729775292e-20
3.96022097e-20
1.648779961e-20
1.042856966e-20
5.401110835e-20
5.855938736e-20
7.432556941e-20
5.553506135e-20
6.952853174e-21
4.85781462e-20
8.302267182e-20
2.056152687e-20
1.277686875e-19
2.603803314e-20
4.809133252e-21
3.371790081e-20
5.821309584e-20
3.458086666e-20
1.116377135e-19
5.651024135e-20
2.715821323e-20
9.126364952e-20
4.862595773e-20
3.225957261e-20
3.31020836e-20
8.995424518e-20
1.440313113e-20
1.797771892e-20
3.251138785e-20
1.25091734e-19
9.696243084e-22
1.939404711e-20
1.056063146e-20
8.445538379e-20
7.51368198e-20
8.019771435e-21
4.513235571e-20
3.362215508e-20
4.322659136e-21
7.597041562e-20
4.746899088e-20
5.432597819e-20
2.878101742e-20