/*--------------------------------*- C++ -*----------------------------------*\
| =========                 |                                                 |
| \\      /  F ield         | OpenFOAM: The Open Source CFD Toolbox           |
|  \\    /   O peration     | Version:  v1612+                                |
|   \\  /    A nd           | Web:      www.OpenFOAM.com                      |
|    \\/     M anipulation  |                                                 |
\*---------------------------------------------------------------------------*/
FoamFile
{
    version     2.0;
    format      ascii;
    class       volScalarField;
    location    "4.78";
    object      dsmcSigmaTcRMax;
}
// * * * * * * * * * * * * * * * * * * * * * * * * * * * * * * * * * * * * * //

dimensions      [0 3 -1 0 0 0 0];

internalField   nonuniform List<scalar> 
1000
(
4.990364158e-16
4.985381041e-16
5.080668697e-16
4.992546972e-16
5.08802622e-16
4.966546217e-16
4.982439791e-16
5.08644585e-16
5.04008741e-16
4.998261981e-16
4.97926551e-16
5.063526946e-16
5.033244324e-16
4.954691433e-16
5.137869881e-16
4.978552331e-16
5.028968737e-16
4.974640804e-16
4.987467233e-16
4.997161818e-16
4.956632425e-16
4.945051142e-16
5.007036157e-16
5.182922334e-16
5.023591314e-16
4.990155003e-16
5.007484521e-16
5.065103821e-16
4.925059415e-16
4.96793267e-16
5.066895769e-16
4.913247579e-16
5.015039752e-16
5.115826519e-16
4.981494552e-16
5.087868687e-16
5.035647421e-16
5.001306961e-16
5.075761895e-16
5.104936085e-16
5.034866091e-16
5.027709288e-16
5.019057116e-16
4.98016982e-16
4.939736527e-16
4.961446094e-16
4.927292073e-16
5.02705463e-16
5.074786576e-16
4.932138908e-16
4.998255297e-16
4.967622356e-16
4.969153957e-16
5.119864248e-16
4.955908771e-16
4.928270876e-16
4.981118773e-16
5.017318445e-16
5.01007975e-16
4.952233851e-16
4.947590238e-16
5.185015833e-16
5.023751418e-16
5.021242175e-16
5.028602217e-16
4.963236149e-16
4.978311074e-16
4.903813294e-16
4.983293829e-16
4.991633053e-16
4.989286876e-16
5.038281663e-16
5.221758797e-16
4.957903688e-16
5.004022294e-16
5.079121149e-16
4.995050585e-16
4.960678044e-16
5.047274642e-16
4.988752194e-16
4.949658573e-16
4.96665682e-16
4.981341283e-16
5.012423714e-16
5.123659547e-16
4.965481129e-16
4.898122338e-16
4.967183034e-16
4.971741306e-16
5.038662438e-16
5.166291712e-16
4.967131237e-16
4.972506692e-16
5.039195573e-16
4.938402498e-16
5.097850016e-16
4.979036855e-16
5.031647701e-16
5.026880361e-16
5.082355158e-16
4.9836447e-16
5.07556948e-16
4.947405756e-16
5.11150082e-16
5.017960027e-16
4.959113983e-16
4.928542971e-16
4.972051483e-16
4.998304465e-16
4.956042315e-16
5.010114973e-16
4.929015074e-16
5.048796925e-16
5.029056712e-16
5.097199682e-16
4.958606351e-16
4.982266113e-16
4.972304357e-16
5.037816032e-16
5.173149e-16
5.156753356e-16
4.936302229e-16
5.175604472e-16
5.070266474e-16
4.960637408e-16
4.919259115e-16
5.08575978e-16
4.878544951e-16
5.102203601e-16
4.951946804e-16
4.891341932e-16
5.090628166e-16
5.000948108e-16
5.025002976e-16
4.95022223e-16
5.072794694e-16
5.037360001e-16
4.896175042e-16
4.965943928e-16
4.980114699e-16
4.948577955e-16
4.998679671e-16
5.051555402e-16
4.894098995e-16
4.957596583e-16
5.078324974e-16
5.06456079e-16
4.96920825e-16
4.926470638e-16
5.008099737e-16
4.986803136e-16
5.04175071e-16
5.025224232e-16
5.045524639e-16
4.991820515e-16
4.944694882e-16
4.98158433e-16
4.997306986e-16
4.907522977e-16
4.922189653e-16
5.01556493e-16
4.957334745e-16
4.961200888e-16
4.997947744e-16
4.978223879e-16
5.058893575e-16
4.947406351e-16
5.122505734e-16
5.012925287e-16
4.979993767e-16
4.958062711e-16
5.061368893e-16
5.017672315e-16
5.059851203e-16
4.914666209e-16
5.003874322e-16
5.060290355e-16
5.097846834e-16
4.941470691e-16
5.147087168e-16
5.010935265e-16
4.939609414e-16
4.997989018e-16
5.051254331e-16
5.06903801e-16
5.067900639e-16
4.971956599e-16
4.953140592e-16
4.930199675e-16
5.100460157e-16
4.989855422e-16
5.031615668e-16
5.103654212e-16
5.011563291e-16
4.986323961e-16
5.001535281e-16
4.993087028e-16
5.133529389e-16
5.04092039e-16
4.912481339e-16
5.059899429e-16
4.943459726e-16
4.987982863e-16
4.997651692e-16
5.180375767e-16
5.001496104e-16
5.122351351e-16
5.101318425e-16
4.960014956e-16
5.01218186e-16
5.024392052e-16
5.013670863e-16
4.915957793e-16
4.990189778e-16
5.079596555e-16
5.131454119e-16
5.006982218e-16
5.044376998e-16
4.928803382e-16
5.076716949e-16
4.928409439e-16
4.863522635e-16
5.009777856e-16
5.025255742e-16
5.047414266e-16
4.933871981e-16
5.005315435e-16
5.112783618e-16
5.070985335e-16
5.054529637e-16
4.975852408e-16
5.078945157e-16
5.038682138e-16
4.986759309e-16
4.978900124e-16
5.093709865e-16
5.026703574e-16
5.030818377e-16
4.943901136e-16
4.984957546e-16
4.977554643e-16
4.946287539e-16
4.963639804e-16
4.946369447e-16
4.934831767e-16
5.016974276e-16
5.030682274e-16
4.99193355e-16
4.943341035e-16
4.990576062e-16
5.069925726e-16
5.164641129e-16
5.041182454e-16
4.93514054e-16
4.998638165e-16
4.981591725e-16
5.021616217e-16
4.945583516e-16
4.974749036e-16
5.091721619e-16
5.038345446e-16
4.943259509e-16
4.988335681e-16
5.034161175e-16
5.013040929e-16
5.068268086e-16
5.067527124e-16
4.976196958e-16
4.892624179e-16
5.018404645e-16
5.068906245e-16
5.071135609e-16
4.935942048e-16
5.043150336e-16
5.014819318e-16
5.011781991e-16
5.11256983e-16
4.947295411e-16
4.972227236e-16
5.008282091e-16
5.097261598e-16
4.929369354e-16
5.050665881e-16
4.93839513e-16
4.979050993e-16
4.98335113e-16
5.030093414e-16
4.92396246e-16
5.203212375e-16
5.063673008e-16
5.038463037e-16
5.028588182e-16
4.994814504e-16
5.134264683e-16
5.038047812e-16
4.961657716e-16
4.942078147e-16
4.92605972e-16
4.991903191e-16
5.038769851e-16
5.027700523e-16
5.011210177e-16
4.991186837e-16
4.994405428e-16
4.946584978e-16
5.000363231e-16
4.939286919e-16
5.046142227e-16
5.076965442e-16
4.975986936e-16
4.9891165e-16
5.051487058e-16
5.030793052e-16
4.909375797e-16
5.054723233e-16
5.072376714e-16
4.952320111e-16
5.050467891e-16
5.056246131e-16
5.005539005e-16
4.940607831e-16
4.947937141e-16
5.016264751e-16
5.117893353e-16
4.939271929e-16
5.001407424e-16
5.089687793e-16
5.024069712e-16
5.094727622e-16
4.923399836e-16
4.954605675e-16
4.931513346e-16
4.93068847e-16
4.93525805e-16
4.972884259e-16
5.023173624e-16
5.08806701e-16
5.150646776e-16
4.909506888e-16
5.013917631e-16
5.011972214e-16
4.929207909e-16
5.08407575e-16
5.009816173e-16
4.919364558e-16
5.03429015e-16
5.060235208e-16
5.017131849e-16
5.0378679e-16
5.047758716e-16
4.978948924e-16
5.134188477e-16
4.995365964e-16
4.996051647e-16
4.952544579e-16
4.985913752e-16
5.057229566e-16
4.927510417e-16
4.935587011e-16
5.058057162e-16
4.994357768e-16
5.085556231e-16
5.0708804e-16
4.953303522e-16
5.056514502e-16
5.027835857e-16
4.978215682e-16
4.99122401e-16
4.953471101e-16
5.064373811e-16
4.97846639e-16
5.115308013e-16
5.136131882e-16
4.930857557e-16
4.899185628e-16
4.973884249e-16
4.921511769e-16
4.958004692e-16
4.970028395e-16
4.959706201e-16
5.010831408e-16
4.999388542e-16
4.994218497e-16
5.0284886e-16
5.028597933e-16
4.990357038e-16
4.920799285e-16
5.050508355e-16
5.05730168e-16
5.037865056e-16
4.9834689e-16
4.963236249e-16
5.114827578e-16
5.058488991e-16
4.907247802e-16
5.078240923e-16
4.998435169e-16
5.005984445e-16
5.039535326e-16
4.954807512e-16
5.011730575e-16
4.958943534e-16
5.034145773e-16
4.988342363e-16
5.000582418e-16
5.10311523e-16
5.142512095e-16
4.997094568e-16
4.997427678e-16
4.982561669e-16
4.995921839e-16
4.968764702e-16
5.065211525e-16
5.007217016e-16
5.064798853e-16
5.172902508e-16
5.028605746e-16
5.074874772e-16
4.956037808e-16
4.919203786e-16
5.04316116e-16
4.936737661e-16
4.973851361e-16
5.111967287e-16
4.958587305e-16
4.970390183e-16
4.989998492e-16
4.999057797e-16
4.938104816e-16
4.952173086e-16
5.003142914e-16
4.981402361e-16
5.041339893e-16
5.032248778e-16
4.991555209e-16
4.985821543e-16
5.003360485e-16
4.964877657e-16
5.017878858e-16
5.071721546e-16
4.96321318e-16
5.210833883e-16
4.981185684e-16
5.171813157e-16
4.971705445e-16
4.895165446e-16
5.053557385e-16
4.980775918e-16
4.975245914e-16
5.062242591e-16
4.97531447e-16
5.060850213e-16
5.097855379e-16
5.149155361e-16
5.00660312e-16
5.053957419e-16
5.013574582e-16
4.990624011e-16
4.979413557e-16
5.002986518e-16
5.055229981e-16
4.950554251e-16
4.931497048e-16
4.967573127e-16
4.911214834e-16
4.969722382e-16
4.940054686e-16
4.978962395e-16
4.959747646e-16
5.09040405e-16
5.004925724e-16
5.03455162e-16
5.096765342e-16
4.974236805e-16
5.033596052e-16
5.088611132e-16
5.018425214e-16
4.961811784e-16
5.162072265e-16
5.00268256e-16
5.128927633e-16
4.972737284e-16
4.959174735e-16
4.952966727e-16
4.999985184e-16
5.002844204e-16
5.017432966e-16
4.951711766e-16
5.026921063e-16
4.983902715e-16
5.113831142e-16
5.107492732e-16
5.063607823e-16
5.110714059e-16
5.13396717e-16
5.014706041e-16
5.130042227e-16
4.939912032e-16
4.997917718e-16
5.039543124e-16
5.06780605e-16
5.088312112e-16
5.114781092e-16
4.930003476e-16
5.005191726e-16
4.982625041e-16
5.140991775e-16
5.013763285e-16
4.984534044e-16
5.12101174e-16
4.944801464e-16
4.953677293e-16
4.974871154e-16
5.026394405e-16
5.032396218e-16
5.055041637e-16
5.052218751e-16
5.065070492e-16
5.066415277e-16
5.009431143e-16
5.018576174e-16
4.978872552e-16
5.066773016e-16
5.0475725e-16
5.13965351e-16
4.985868701e-16
4.990574726e-16
5.023740534e-16
4.931084479e-16
5.092744687e-16
5.175601936e-16
4.960051903e-16
5.12899781e-16
4.943591389e-16
4.988410843e-16
5.037328276e-16
5.026791261e-16
5.115479573e-16
5.092886084e-16
4.951883989e-16
5.067869599e-16
5.060098919e-16
5.045583862e-16
5.00226431e-16
5.072301445e-16
4.975909047e-16
4.93034159e-16
4.985469536e-16
4.990903676e-16
4.959375981e-16
4.921082946e-16
5.068955694e-16
4.92140077e-16
4.990229106e-16
4.993092611e-16
4.926326435e-16
4.975299748e-16
4.942303735e-16
5.085684757e-16
4.934892013e-16
4.960309817e-16
4.980116917e-16
4.975458725e-16
5.024531868e-16
5.054901704e-16
4.917552981e-16
5.009853448e-16
5.080651662e-16
4.94788216e-16
4.972135203e-16
4.973723581e-16
5.033334096e-16
5.003905073e-16
4.897866262e-16
4.961650055e-16
4.954407977e-16
4.982620862e-16
5.044187882e-16
4.952248259e-16
5.171893592e-16
5.142587465e-16
4.959167714e-16
5.019086062e-16
4.931085913e-16
4.891710289e-16
5.040178524e-16
5.084505137e-16
5.01767179e-16
5.11491944e-16
5.033362602e-16
5.089803289e-16
5.041776123e-16
5.057691372e-16
4.974733388e-16
4.961055778e-16
5.010312022e-16
5.047552952e-16
5.060536991e-16
5.019790979e-16
5.065706149e-16
4.927799086e-16
5.032897267e-16
5.042672365e-16
5.044113236e-16
5.000389059e-16
5.061442059e-16
5.064642158e-16
4.915318139e-16
5.207197561e-16
4.981164263e-16
5.017982977e-16
4.984854737e-16
5.004138594e-16
4.946564479e-16
4.938974792e-16
5.057964307e-16
4.939362168e-16
5.081639261e-16
4.998392278e-16
4.998517658e-16
4.991925199e-16
4.967225191e-16
4.975682284e-16
5.070474828e-16
5.07706455e-16
5.06683347e-16
5.076714628e-16
4.925659445e-16
5.029479879e-16
4.999618213e-16
4.956661538e-16
5.089747451e-16
5.056522136e-16
5.008894132e-16
4.930623019e-16
4.962151981e-16
5.084829631e-16
4.987182214e-16
4.956593911e-16
5.05908208e-16
5.034981163e-16
5.077707031e-16
5.043078977e-16
4.909015923e-16
4.984883914e-16
4.967950986e-16
4.924160754e-16
5.105088727e-16
4.979405699e-16
4.989288954e-16
4.929891514e-16
4.979080332e-16
5.011119605e-16
5.138491674e-16
4.987605707e-16
4.994710167e-16
4.932126447e-16
5.023104817e-16
4.991208351e-16
5.107332488e-16
5.090506818e-16
4.996523851e-16
5.075904856e-16
5.079529308e-16
4.904951727e-16
4.981989947e-16
5.000063112e-16
4.978017324e-16
4.944602254e-16
5.047178077e-16
5.039149912e-16
5.002685706e-16
4.9966973e-16
5.037303127e-16
4.964814205e-16
5.009772736e-16
4.960034468e-16
5.07695191e-16
5.025308491e-16
4.996736625e-16
4.981110855e-16
5.007247089e-16
4.935462248e-16
5.014161004e-16
4.957584332e-16
5.025811294e-16
5.133854969e-16
4.990123947e-16
4.986920164e-16
5.071502232e-16
5.022291575e-16
4.919566149e-16
5.044892306e-16
4.918099459e-16
5.038562596e-16
4.992912898e-16
4.92438698e-16
4.955567072e-16
5.215304272e-16
5.04224162e-16
5.005375444e-16
5.084976446e-16
4.957727575e-16
5.020390701e-16
4.957999389e-16
5.103336051e-16
5.120461066e-16
5.126105955e-16
5.062448319e-16
4.979509883e-16
5.029824117e-16
5.02620809e-16
4.998712189e-16
5.005002182e-16
4.956040031e-16
5.052607052e-16
4.96689711e-16
4.982807616e-16
5.118204814e-16
5.026832986e-16
4.938104994e-16
4.94339942e-16
5.030439257e-16
4.990557648e-16
4.990075502e-16
5.059573508e-16
5.00651191e-16
5.022764416e-16
4.975233756e-16
4.977378574e-16
5.002720512e-16
4.995879039e-16
5.026181286e-16
5.028592682e-16
5.059728954e-16
5.059201321e-16
5.002715656e-16
5.025385716e-16
4.971323218e-16
4.969646199e-16
4.982370733e-16
4.984639819e-16
4.938394752e-16
4.942881873e-16
4.95930176e-16
5.08389259e-16
5.100461643e-16
5.048578123e-16
5.021919118e-16
5.008031621e-16
5.118227213e-16
5.04503339e-16
5.058946899e-16
4.919756913e-16
4.955509748e-16
4.951970625e-16
5.049074581e-16
4.939710494e-16
5.033247369e-16
4.908830593e-16
4.953727298e-16
5.13715886e-16
4.92462313e-16
4.944029731e-16
4.935069631e-16
5.13484709e-16
5.054129566e-16
5.195019345e-16
4.959644269e-16
4.905850126e-16
4.896829023e-16
5.02871806e-16
4.959371027e-16
4.956970307e-16
4.996420537e-16
4.919978852e-16
4.981207202e-16
5.026848865e-16
5.027686362e-16
5.009087535e-16
4.902566739e-16
5.069605582e-16
4.979189436e-16
4.958139088e-16
4.964696741e-16
4.989299826e-16
4.964259702e-16
4.993339255e-16
5.074208416e-16
4.954630063e-16
4.923603253e-16
5.069674861e-16
5.224919818e-16
5.031916907e-16
5.065094966e-16
4.959302794e-16
4.969070748e-16
4.873682228e-16
4.985124566e-16
5.024828591e-16
4.980548732e-16
4.966909733e-16
5.12245096e-16
5.079610084e-16
4.942607173e-16
5.082752632e-16
4.916709562e-16
4.892941165e-16
5.070614012e-16
4.940956427e-16
5.001121303e-16
4.936386785e-16
4.929334365e-16
4.972476119e-16
5.117675908e-16
5.070119358e-16
5.076103116e-16
4.965028688e-16
5.151947285e-16
5.075257024e-16
5.047241589e-16
4.970229661e-16
4.962807988e-16
5.076934836e-16
4.96132317e-16
5.060162953e-16
5.027493115e-16
5.046758756e-16
4.978242716e-16
5.053286826e-16
5.0377918e-16
5.007273105e-16
5.141877557e-16
5.017981179e-16
5.126199819e-16
5.054302698e-16
5.089137322e-16
5.013783683e-16
5.045335502e-16
4.947339601e-16
5.040006367e-16
5.130438292e-16
5.003208384e-16
5.047497748e-16
5.047658177e-16
5.072512595e-16
5.141742443e-16
5.089952287e-16
5.030679315e-16
4.970220871e-16
5.004741833e-16
4.967258894e-16
5.093262498e-16
5.097264767e-16
4.912429018e-16
4.989115782e-16
4.988517289e-16
5.046047137e-16
4.945102169e-16
4.952091411e-16
4.932901495e-16
5.051101185e-16
4.982324244e-16
5.000569706e-16
4.951362498e-16
4.898033376e-16
5.034512218e-16
4.933755241e-16
5.005839667e-16
5.052676307e-16
4.962388286e-16
4.962857215e-16
5.005473604e-16
5.006908624e-16
5.114475932e-16
5.00837415e-16
4.949813699e-16
4.989686731e-16
4.980335332e-16
4.913157079e-16
4.941910951e-16
4.985377266e-16
5.010563265e-16
5.128972179e-16
4.92390194e-16
5.049202094e-16
5.052639328e-16
5.08120921e-16
5.006430101e-16
5.030114156e-16
4.978802179e-16
5.025112838e-16
4.941576337e-16
5.032269914e-16
4.992962621e-16
5.01129485e-16
5.083370565e-16
5.02665516e-16
4.983578979e-16
5.007258949e-16
4.905949706e-16
4.912788491e-16
4.917771678e-16
5.047294462e-16
5.036919102e-16
5.027084943e-16
4.987929516e-16
4.99359836e-16
4.94961179e-16
4.9317228e-16
5.062724827e-16
5.04971302e-16
4.967324975e-16
4.974307061e-16
4.960689112e-16
5.019164334e-16
4.991056998e-16
5.056522795e-16
4.907183194e-16
5.016089302e-16
4.957231185e-16
5.00020698e-16
5.265640362e-16
5.011782369e-16
4.955801438e-16
5.023170903e-16
5.06384421e-16
4.993568259e-16
4.98185148e-16
5.057302922e-16
4.942519686e-16
5.117238864e-16
5.124646669e-16
5.004866624e-16
4.984183991e-16
5.173436866e-16
4.938534337e-16
5.003104846e-16
4.987070814e-16
4.987845231e-16
5.133601198e-16
4.996090386e-16
4.972286897e-16
4.971965198e-16
5.037636198e-16
5.054793785e-16
5.067301075e-16
4.932120955e-16
5.030001302e-16
4.998527184e-16
5.023176638e-16
5.055846715e-16
5.001692073e-16
4.967648484e-16
4.943044743e-16
4.944443835e-16
4.93132529e-16
5.015572793e-16
5.024483472e-16
4.925377263e-16
5.072143432e-16
5.071572299e-16
4.970404619e-16
4.911079625e-16
4.915277183e-16
4.977900877e-16
5.007201551e-16
4.977732043e-16
4.978919119e-16
4.984135388e-16
4.987519621e-16
4.946161075e-16
5.021362054e-16
4.982453478e-16
4.964715624e-16
4.988988215e-16
5.110856992e-16
5.103997943e-16
4.91863534e-16
5.057376111e-16
4.962425987e-16
4.993861062e-16
5.141041715e-16
5.063722605e-16
4.917684487e-16
5.067728447e-16
4.993583599e-16
4.963590125e-16
5.006007319e-16
5.033741439e-16
5.018639801e-16
5.105470513e-16
5.000867031e-16
5.001286327e-16
5.04959624e-16
5.037294643e-16
5.025891693e-16
4.932387144e-16
5.036831105e-16
5.007645991e-16
)
;

boundaryField
{
    bottom
    {
        type            zeroGradient;
    }
    top
    {
        type            zeroGradient;
    }
    inlet
    {
        type            zeroGradient;
    }
    outlet
    {
        type            zeroGradient;
    }
    back
    {
        type            symmetry;
    }
    front
    {
        type            symmetry;
    }
}


// ************************************************************************* //
