/*--------------------------------*- C++ -*----------------------------------*\
| =========                 |                                                 |
| \\      /  F ield         | OpenFOAM: The Open Source CFD Toolbox           |
|  \\    /   O peration     | Version:  v1612+                                |
|   \\  /    A nd           | Web:      www.OpenFOAM.com                      |
|    \\/     M anipulation  |                                                 |
\*---------------------------------------------------------------------------*/
FoamFile
{
    version     2.0;
    format      ascii;
    class       volScalarField;
    location    "4.78";
    object      Ma_Ar1;
}
// * * * * * * * * * * * * * * * * * * * * * * * * * * * * * * * * * * * * * //

dimensions      [0 0 0 0 0 0 0];

internalField   nonuniform List<scalar> 
1000
(
0.0071072886
0.006996611479
0.007160316932
0.007067154279
0.007192463966
0.007238637426
0.007367964286
0.00740189719
0.007476720264
0.007371123028
0.007592106282
0.007597085768
0.007590810876
0.0073976062
0.007617916662
0.007568784095
0.007803763757
0.007913600907
0.008027572039
0.008125866048
0.007967640167
0.00810273104
0.007966197734
0.007885530221
0.008123414616
0.008318267392
0.008314947869
0.008243690092
0.008290162957
0.008249300255
0.008226592067
0.008211033377
0.008513787185
0.008662332176
0.008567033315
0.008572084266
0.008430035968
0.008632373217
0.008482219194
0.008839092228
0.009091227053
0.009206350922
0.009038783899
0.009253921588
0.009228164359
0.009142746636
0.009141618024
0.008819904883
0.008938475558
0.009358139331
0.009325072193
0.009332978128
0.009526645409
0.009478863085
0.009540114998
0.009719728574
0.009948233613
0.01000948091
0.01004249369
0.01011209706
0.01017136258
0.01023766324
0.01010117739
0.01012026497
0.01035607169
0.01037580461
0.01056118983
0.0105211477
0.01066524199
0.01052099642
0.01088894127
0.01100479072
0.01105790661
0.01112928359
0.01153124745
0.01141647455
0.01152243306
0.01142804387
0.01158751255
0.01173749763
0.0116102125
0.01169197982
0.01174867516
0.01191985539
0.01197352101
0.01238401194
0.01241981776
0.01246690358
0.01269353725
0.01294129786
0.01278950458
0.0129239856
0.01296540619
0.01295426096
0.01305915676
0.01329856343
0.01313222382
0.01342373247
0.01376128126
0.01393070957
0.0143067828
0.01417786973
0.01423522333
0.01435523637
0.01487606041
0.01464211071
0.01474019134
0.01522523812
0.01546377538
0.01548643927
0.01572214856
0.01566831913
0.01592277422
0.01585973706
0.01583245756
0.01618665693
0.01644449917
0.01681792403
0.01714096958
0.01704347044
0.01731551797
0.01752626027
0.01773322739
0.01795547259
0.01797920291
0.0180499654
0.01855021524
0.01871597448
0.0190495412
0.01953128172
0.01987271541
0.02028416524
0.0205264624
0.02076243175
0.02119824091
0.02099842032
0.02141437445
0.02178644275
0.02216544057
0.02226758539
0.02275115172
0.02324568033
0.02395348737
0.02408900703
0.02488527867
0.02538606376
0.02572457124
0.02632672776
0.02661407166
0.02694976651
0.02734613124
0.02805342143
0.02902215521
0.02890388555
0.02949373749
0.02996767495
0.03059542421
0.03159844308
0.0325087145
0.03277891976
0.03394091249
0.03428635891
0.03539919158
0.03681737078
0.0375824729
0.03806871126
0.03924397463
0.04044857883
0.04139476839
0.0429404254
0.0442645443
0.04610053063
0.04800087938
0.0493345121
0.05045809473
0.0519478985
0.05453277123
0.05664101129
0.05914797158
0.06173236261
0.06357306919
0.06696275381
0.07032462066
0.07386592016
0.07741334385
0.08232207799
0.0873269762
0.09309749689
0.09910302166
0.1061996454
0.1152417827
0.1250935966
0.1387584652
0.1535337163
0.1718517528
0.1956868288
0.2291625645
0.2747434164
0.348600656
0.5011400601
0.00711488024
0.007219230005
0.007237333524
0.007232014631
0.007083905825
0.007230235404
0.00719178122
0.007305386585
0.007484948517
0.007501938673
0.00746806802
0.007537461672
0.007480465139
0.007510917081
0.007398349971
0.007609136451
0.00775101904
0.007761205457
0.007776872058
0.007723372219
0.007843342454
0.007893764802
0.008226237782
0.008269719537
0.008418008511
0.008046992436
0.007823322444
0.008182205782
0.00830648273
0.008314880841
0.00850597302
0.008546815545
0.008370272754
0.008511951812
0.008550448066
0.008579946108
0.008706989775
0.008732915833
0.008987352483
0.008701656767
0.008917435659
0.008821711967
0.008979292057
0.008967024787
0.009150723713
0.009110059416
0.009105358124
0.009314627926
0.009305911372
0.008995053486
0.009248421716
0.009478417777
0.009457016721
0.009559261347
0.009993467148
0.01000101168
0.009764011499
0.009978256678
0.0101155281
0.009837743483
0.01018838645
0.009961162165
0.01011490895
0.0102360691
0.01019922879
0.01035350564
0.01038025435
0.01034447758
0.01032608927
0.0107153521
0.0109807821
0.01095252266
0.01107739129
0.01101550095
0.01107892529
0.01130796711
0.01130128526
0.0113380808
0.01146778228
0.01133578221
0.01169636181
0.01192530464
0.01175565173
0.01218596945
0.01210557818
0.01201454986
0.0122144486
0.01239448593
0.01252191613
0.01249666994
0.01290751965
0.01289022581
0.012995862
0.01310087865
0.01311421321
0.01328678764
0.01355768771
0.01361976616
0.01361259708
0.01375847825
0.01435543582
0.01408315071
0.01445200115
0.01430339693
0.01435150888
0.01482240321
0.01524890167
0.01511038248
0.01527304583
0.01567692975
0.01575779656
0.01568894758
0.01609850521
0.01615619648
0.01635304956
0.01657792921
0.01644527242
0.01691742019
0.01724406833
0.01739660435
0.01747267861
0.01745088235
0.01793447829
0.01810102036
0.01819301596
0.01865614913
0.01904048373
0.01922745315
0.01923043705
0.01935249256
0.0198842512
0.02028783576
0.02009904644
0.02084974589
0.02122318703
0.02135589824
0.02173166619
0.02192238667
0.02231728639
0.02251221784
0.02316066998
0.02310074343
0.0235449119
0.02422031335
0.02429332566
0.02463335997
0.02530463011
0.02611786876
0.02660113173
0.02698588006
0.02722736308
0.02772911088
0.02778573705
0.02884707426
0.02990614589
0.03032329634
0.03109523087
0.03143878233
0.03223746168
0.03321007911
0.03378810301
0.03486220452
0.03573361909
0.03649940177
0.03680091965
0.03854788098
0.03964577793
0.04062974393
0.04230315878
0.0429414027
0.04440687947
0.04578833139
0.04712923381
0.04867552893
0.05097895597
0.05261872246
0.05385680598
0.05590063024
0.0582877039
0.0613392167
0.06380236495
0.06634113904
0.07026858211
0.07382850811
0.07838725904
0.08207216714
0.08698288748
0.0925569535
0.1000638732
0.107907446
0.1151489177
0.1258942297
0.1371273994
0.1518968318
0.1704601009
0.194894582
0.2279328505
0.2747423979
0.3480999667
0.502314099
0.006929233459
0.00735729515
0.007141020549
0.007274950476
0.007292820426
0.007388776941
0.007506470654
0.007421495059
0.007266632243
0.007313924575
0.007615464191
0.007511074351
0.007601412765
0.0076092969
0.007723631973
0.007779248303
0.007679749689
0.0077469798
0.007844329226
0.0079522213
0.007756187645
0.00788150094
0.007962542618
0.008201003507
0.007963706024
0.008013785048
0.008014567002
0.007983408869
0.00788575775
0.008110573435
0.008147314166
0.008310097673
0.008337725015
0.008347271927
0.008544123311
0.008581289752
0.008678063163
0.008718163231
0.008937407479
0.008781391456
0.008939716261
0.00862593088
0.008727361909
0.008899538485
0.008905724764
0.008961947705
0.009248360593
0.009489176872
0.009323227771
0.009441798938
0.009581872004
0.009566678165
0.009636296265
0.009832866143
0.009671888279
0.009714173282
0.009967043839
0.0097851522
0.009922376123
0.00998621547
0.01006685648
0.01031826173
0.01022833755
0.01028461033
0.01033580775
0.01035846213
0.01020344693
0.01016147789
0.01061403781
0.01087577184
0.01075760223
0.01093770358
0.01097653094
0.01119774677
0.0110150654
0.01095909125
0.01122402028
0.01146496594
0.01154072413
0.01165114585
0.01163118572
0.01166941336
0.01224150147
0.0120109622
0.01165952193
0.01206404364
0.01222123637
0.01222218857
0.01232412929
0.01248276875
0.01258699827
0.01322005906
0.01305977183
0.01319223182
0.01331653267
0.01334814041
0.01351596663
0.01350664234
0.01363792529
0.0137712046
0.01358581972
0.01407844931
0.01427233976
0.01455191863
0.01446979872
0.01457735641
0.01475234321
0.01492963157
0.01521639591
0.0149788831
0.01542513111
0.01581097087
0.01585774998
0.01622047014
0.01600376176
0.01629833105
0.01688825941
0.01670864543
0.01691387365
0.01731638929
0.01714066154
0.01735569093
0.01775604431
0.01796071171
0.01819779163
0.01872433876
0.01916531025
0.01923314869
0.01956807961
0.01967250111
0.01973208635
0.02021975396
0.02035093785
0.02057064196
0.02093655853
0.02147895818
0.02160875272
0.02172941443
0.02205140466
0.02260984844
0.02309807079
0.02338653583
0.02341820727
0.0237281815
0.02470109807
0.02509969753
0.02573430529
0.02581338108
0.02640800215
0.02701046525
0.02779682087
0.02829115065
0.02864662031
0.02907284436
0.02972884943
0.0304025159
0.03120212084
0.03210489873
0.03236383708
0.03278638782
0.03418629447
0.03458325716
0.03519163829
0.03586606873
0.03684881786
0.03817008134
0.03910130966
0.04035014849
0.04147063804
0.04285871424
0.04391811306
0.04533619482
0.04647863757
0.0484477538
0.04998800895
0.05209935427
0.05473288348
0.05640454911
0.05861055126
0.06082712695
0.06386513044
0.06758938951
0.07058431158
0.07362441381
0.0778574675
0.08200560525
0.08736499055
0.09293025024
0.09986537304
0.1073387708
0.1159161497
0.1259008809
0.1382264934
0.1524119504
0.1710862341
0.1961096215
0.2288781352
0.2749545647
0.3488177917
0.5006576081
0.007046472877
0.007072910362
0.007037436885
0.007015439874
0.00733358201
0.007312557045
0.007229854318
0.007409775597
0.007500642578
0.00759150796
0.00742815995
0.007269848691
0.007600628409
0.007700565505
0.007602644973
0.00788745559
0.007821299659
0.007826101322
0.007846212742
0.007733149064
0.007854318837
0.008012202402
0.007936477511
0.007763018934
0.007777117568
0.008122627689
0.00827055063
0.008179883932
0.00835314794
0.008277729256
0.00839279556
0.008430829851
0.008598876864
0.008522919161
0.008577447466
0.008344592971
0.008636809382
0.008727550163
0.008767193585
0.008571324292
0.008719138011
0.008616726751
0.008713036307
0.008805337651
0.008831794795
0.00896113296
0.009251399122
0.009471084952
0.009493816133
0.009521903788
0.009708969189
0.009273657609
0.009443192677
0.009516866235
0.009696250983
0.009760336708
0.00963849344
0.009831136421
0.009870166431
0.0100057129
0.01017283137
0.01033917664
0.01021111676
0.01021973358
0.01025727232
0.01050212798
0.01081212507
0.01076465567
0.01077370073
0.01076249043
0.01070503985
0.01072527808
0.0109090116
0.01079223495
0.01110571687
0.01136524566
0.01135998582
0.01143178985
0.01145577943
0.01169726135
0.01195195867
0.01194726719
0.01194177745
0.01212802503
0.01210790074
0.01211078449
0.01232086878
0.01249592588
0.01254841144
0.01249359186
0.0127695049
0.01287738274
0.01315571105
0.01301425956
0.01328781048
0.01344069341
0.0134219822
0.01355996748
0.01390676287
0.01379876417
0.01374628989
0.01410113287
0.01415307078
0.01446256157
0.01437060877
0.01463076218
0.01502017057
0.0149976113
0.0151754505
0.01530384496
0.01560796574
0.0155645687
0.01572599488
0.01585552702
0.01625058947
0.01667860534
0.01681452125
0.01676734256
0.01677128896
0.01707724525
0.01769321289
0.01753382776
0.01805355925
0.01849252038
0.01849826504
0.01869643112
0.01887313312
0.01891464144
0.0192330188
0.01973007778
0.01981427607
0.01997644593
0.02055057933
0.02054575678
0.02070884315
0.02100746044
0.02149540654
0.02207881671
0.02254041999
0.02306144808
0.0233856172
0.02357455968
0.02386709185
0.02421693453
0.02461292934
0.02504049908
0.02544992717
0.02563962662
0.02593250025
0.02643582506
0.02744680918
0.02794439758
0.02791060641
0.02935746175
0.02958385562
0.03036408687
0.03095338887
0.03151515566
0.03222860486
0.03273536291
0.03375706266
0.03453314638
0.03520128526
0.03586481228
0.03734315924
0.038151077
0.0395890275
0.04085044909
0.04180654716
0.04300290646
0.04426392548
0.04490869004
0.04719063391
0.04903374404
0.05020157057
0.05205790482
0.05446920585
0.05685672477
0.05862589209
0.06183648992
0.06350801543
0.06765738088
0.07040945467
0.07432519419
0.07785175028
0.08268085463
0.08704525015
0.09235760118
0.09836599008
0.1065857128
0.1166720967
0.1263141331
0.1376779437
0.1525516785
0.171764822
0.1944960942
0.2263501272
0.2745285918
0.3482780175
0.5031642234
0.006827478794
0.006978061497
0.007260183675
0.00733973962
0.007219924606
0.007096878455
0.007267965291
0.007146041289
0.007148357732
0.007265093613
0.007256145937
0.007471276409
0.007573639828
0.007612523547
0.007587693276
0.007518398086
0.007472660224
0.007448521607
0.007454071443
0.007722982816
0.007727751031
0.007677557811
0.007701788214
0.007790346586
0.007973356055
0.00782068536
0.008198886141
0.008285194941
0.008400413433
0.0083518064
0.008283381658
0.008241040136
0.008271691578
0.008311318478
0.008461812358
0.008617505181
0.008620269042
0.008581701789
0.008590365954
0.008735229706
0.008798516177
0.009112719545
0.00913431812
0.009083436322
0.0091948875
0.009126458647
0.009299367516
0.009163350438
0.009340752229
0.009392461674
0.009325103767
0.009576612142
0.009585710795
0.009518424795
0.009471658437
0.009522181972
0.009732593784
0.009711014682
0.009624935507
0.009906844937
0.009952557819
0.009950606247
0.01042551225
0.01042393001
0.01050846692
0.01069053007
0.01069178698
0.01106365651
0.01077740802
0.01089048521
0.01085973207
0.01087194854
0.01100837397
0.01128340593
0.01123169845
0.01126093688
0.01149285269
0.01144528438
0.01162891998
0.01167183342
0.01162713447
0.01187666653
0.01180803246
0.01209617894
0.01238508882
0.01256536716
0.01253699418
0.01238544626
0.012754704
0.01298579273
0.01274865552
0.0125560971
0.0128358527
0.0131140689
0.01328008373
0.01358812546
0.01373424903
0.0138078444
0.01381385391
0.01393297178
0.01422195278
0.0142564915
0.01444977172
0.01440029521
0.01463239517
0.01484439982
0.01467067866
0.01481469454
0.01507166642
0.01524654955
0.01532711315
0.01535799553
0.0158881755
0.01603250791
0.0163329431
0.01645600273
0.01668302205
0.01684114592
0.01704815091
0.01719754384
0.0174833475
0.01777988598
0.01786033865
0.01798085068
0.01833338364
0.01810062329
0.01851697421
0.01885366001
0.01919209263
0.01933406305
0.01962884606
0.01978024776
0.02023163362
0.02049646112
0.02095524017
0.02136848751
0.02186426173
0.0219211054
0.02212526805
0.02241862806
0.02279607879
0.02346209372
0.02417276623
0.02455372994
0.02460956053
0.02459150347
0.02503089511
0.02571478264
0.02626744429
0.02698621842
0.02742066509
0.02764704789
0.02873298291
0.02867333557
0.02954182644
0.03012784438
0.03085869718
0.03127545527
0.03249786183
0.03358852358
0.03421401195
0.03462366114
0.03602994368
0.0374492254
0.03794711449
0.03909959966
0.03938686893
0.04037938431
0.04124083665
0.04319911883
0.0443215467
0.04587384179
0.04686541551
0.04874929578
0.05048927239
0.05259491555
0.05405694924
0.05584459705
0.05887011678
0.06065660614
0.06367657567
0.06701590652
0.06987661627
0.07364614656
0.07786178413
0.08268447396
0.08835885991
0.09358270015
0.09973448079
0.1070085146
0.1147657539
0.1254205802
0.1377246295
0.1526118923
0.1715045683
0.1943368193
0.2270300204
0.2722958066
0.3468175012
0.5029975681
)
;

boundaryField
{
    bottom
    {
        type            calculated;
        value           nonuniform List<scalar> 
200
(
0.0071072886
0.006996611479
0.007160316932
0.007067154279
0.007192463966
0.007238637426
0.007367964286
0.00740189719
0.007476720264
0.007371123028
0.007592106282
0.007597085768
0.007590810876
0.0073976062
0.007617916662
0.007568784095
0.007803763757
0.007913600907
0.008027572039
0.008125866048
0.007967640167
0.00810273104
0.007966197734
0.007885530221
0.008123414616
0.008318267392
0.008314947869
0.008243690092
0.008290162957
0.008249300255
0.008226592067
0.008211033377
0.008513787185
0.008662332176
0.008567033315
0.008572084266
0.008430035968
0.008632373217
0.008482219194
0.008839092228
0.009091227053
0.009206350922
0.009038783899
0.009253921588
0.009228164359
0.009142746636
0.009141618024
0.008819904883
0.008938475558
0.009358139331
0.009325072193
0.009332978128
0.009526645409
0.009478863085
0.009540114998
0.009719728574
0.009948233613
0.01000948091
0.01004249369
0.01011209706
0.01017136258
0.01023766324
0.01010117739
0.01012026497
0.01035607169
0.01037580461
0.01056118983
0.0105211477
0.01066524199
0.01052099642
0.01088894127
0.01100479072
0.01105790661
0.01112928359
0.01153124745
0.01141647455
0.01152243306
0.01142804387
0.01158751255
0.01173749763
0.0116102125
0.01169197982
0.01174867516
0.01191985539
0.01197352101
0.01238401194
0.01241981776
0.01246690358
0.01269353725
0.01294129786
0.01278950458
0.0129239856
0.01296540619
0.01295426096
0.01305915676
0.01329856343
0.01313222382
0.01342373247
0.01376128126
0.01393070957
0.0143067828
0.01417786973
0.01423522333
0.01435523637
0.01487606041
0.01464211071
0.01474019134
0.01522523812
0.01546377538
0.01548643927
0.01572214856
0.01566831913
0.01592277422
0.01585973706
0.01583245756
0.01618665693
0.01644449917
0.01681792403
0.01714096958
0.01704347044
0.01731551797
0.01752626027
0.01773322739
0.01795547259
0.01797920291
0.0180499654
0.01855021524
0.01871597448
0.0190495412
0.01953128172
0.01987271541
0.02028416524
0.0205264624
0.02076243175
0.02119824091
0.02099842032
0.02141437445
0.02178644275
0.02216544057
0.02226758539
0.02275115172
0.02324568033
0.02395348737
0.02408900703
0.02488527867
0.02538606376
0.02572457124
0.02632672776
0.02661407166
0.02694976651
0.02734613124
0.02805342143
0.02902215521
0.02890388555
0.02949373749
0.02996767495
0.03059542421
0.03159844308
0.0325087145
0.03277891976
0.03394091249
0.03428635891
0.03539919158
0.03681737078
0.0375824729
0.03806871126
0.03924397463
0.04044857883
0.04139476839
0.0429404254
0.0442645443
0.04610053063
0.04800087938
0.0493345121
0.05045809473
0.0519478985
0.05453277123
0.05664101129
0.05914797158
0.06173236261
0.06357306919
0.06696275381
0.07032462066
0.07386592016
0.07741334385
0.08232207799
0.0873269762
0.09309749689
0.09910302166
0.1061996454
0.1152417827
0.1250935966
0.1387584652
0.1535337163
0.1718517528
0.1956868288
0.2291625645
0.2747434164
0.348600656
0.5011400601
)
;
    }
    top
    {
        type            calculated;
        value           nonuniform List<scalar> 
200
(
0.006827478794
0.006978061497
0.007260183675
0.00733973962
0.007219924606
0.007096878455
0.007267965291
0.007146041289
0.007148357732
0.007265093613
0.007256145937
0.007471276409
0.007573639828
0.007612523547
0.007587693276
0.007518398086
0.007472660224
0.007448521607
0.007454071443
0.007722982816
0.007727751031
0.007677557811
0.007701788214
0.007790346586
0.007973356055
0.00782068536
0.008198886141
0.008285194941
0.008400413433
0.0083518064
0.008283381658
0.008241040136
0.008271691578
0.008311318478
0.008461812358
0.008617505181
0.008620269042
0.008581701789
0.008590365954
0.008735229706
0.008798516177
0.009112719545
0.00913431812
0.009083436322
0.0091948875
0.009126458647
0.009299367516
0.009163350438
0.009340752229
0.009392461674
0.009325103767
0.009576612142
0.009585710795
0.009518424795
0.009471658437
0.009522181972
0.009732593784
0.009711014682
0.009624935507
0.009906844937
0.009952557819
0.009950606247
0.01042551225
0.01042393001
0.01050846692
0.01069053007
0.01069178698
0.01106365651
0.01077740802
0.01089048521
0.01085973207
0.01087194854
0.01100837397
0.01128340593
0.01123169845
0.01126093688
0.01149285269
0.01144528438
0.01162891998
0.01167183342
0.01162713447
0.01187666653
0.01180803246
0.01209617894
0.01238508882
0.01256536716
0.01253699418
0.01238544626
0.012754704
0.01298579273
0.01274865552
0.0125560971
0.0128358527
0.0131140689
0.01328008373
0.01358812546
0.01373424903
0.0138078444
0.01381385391
0.01393297178
0.01422195278
0.0142564915
0.01444977172
0.01440029521
0.01463239517
0.01484439982
0.01467067866
0.01481469454
0.01507166642
0.01524654955
0.01532711315
0.01535799553
0.0158881755
0.01603250791
0.0163329431
0.01645600273
0.01668302205
0.01684114592
0.01704815091
0.01719754384
0.0174833475
0.01777988598
0.01786033865
0.01798085068
0.01833338364
0.01810062329
0.01851697421
0.01885366001
0.01919209263
0.01933406305
0.01962884606
0.01978024776
0.02023163362
0.02049646112
0.02095524017
0.02136848751
0.02186426173
0.0219211054
0.02212526805
0.02241862806
0.02279607879
0.02346209372
0.02417276623
0.02455372994
0.02460956053
0.02459150347
0.02503089511
0.02571478264
0.02626744429
0.02698621842
0.02742066509
0.02764704789
0.02873298291
0.02867333557
0.02954182644
0.03012784438
0.03085869718
0.03127545527
0.03249786183
0.03358852358
0.03421401195
0.03462366114
0.03602994368
0.0374492254
0.03794711449
0.03909959966
0.03938686893
0.04037938431
0.04124083665
0.04319911883
0.0443215467
0.04587384179
0.04686541551
0.04874929578
0.05048927239
0.05259491555
0.05405694924
0.05584459705
0.05887011678
0.06065660614
0.06367657567
0.06701590652
0.06987661627
0.07364614656
0.07786178413
0.08268447396
0.08835885991
0.09358270015
0.09973448079
0.1070085146
0.1147657539
0.1254205802
0.1377246295
0.1526118923
0.1715045683
0.1943368193
0.2270300204
0.2722958066
0.3468175012
0.5029975681
)
;
    }
    inlet
    {
        type            calculated;
        value           nonuniform List<scalar> 5(0.0071072886 0.00711488024 0.006929233459 0.007046472877 0.006827478794);
    }
    outlet
    {
        type            calculated;
        value           nonuniform List<scalar> 5(0.5011400601 0.502314099 0.5006576081 0.5031642234 0.5029975681);
    }
    back
    {
        type            symmetry;
    }
    front
    {
        type            symmetry;
    }
}


// ************************************************************************* //
