/*--------------------------------*- C++ -*----------------------------------*\
| =========                 |                                                 |
| \\      /  F ield         | OpenFOAM: The Open Source CFD Toolbox           |
|  \\    /   O peration     | Version:  v1612+                                |
|   \\  /    A nd           | Web:      www.OpenFOAM.com                      |
|    \\/     M anipulation  |                                                 |
\*---------------------------------------------------------------------------*/
FoamFile
{
    version     2.0;
    format      ascii;
    class       volScalarField;
    location    "4.78";
    object      Ma_Ar2;
}
// * * * * * * * * * * * * * * * * * * * * * * * * * * * * * * * * * * * * * //

dimensions      [0 0 0 0 0 0 0];

internalField   nonuniform List<scalar> 
1000
(
0.5037028805
0.3511648734
0.2750567261
0.2278556701
0.1953723261
0.1717820512
0.15354559
0.1382724014
0.1259121145
0.1161555866
0.107910259
0.09968779301
0.09303037933
0.08744712362
0.08261051283
0.07766027944
0.07348350844
0.07004758296
0.06708564985
0.06444633837
0.06153714935
0.05850467272
0.05698869698
0.0541342679
0.05262510013
0.05045254754
0.04852467589
0.0466868883
0.04558189262
0.04457432657
0.04257789016
0.04160450031
0.04027754948
0.03910380975
0.03792689455
0.03716901992
0.03634810603
0.03535826037
0.03427977804
0.03347971041
0.03293712896
0.03201838467
0.03150934252
0.03100487527
0.03045951175
0.02953696028
0.0290904995
0.02836578599
0.02805834635
0.0275259004
0.02719426992
0.02626781778
0.02568273255
0.025638578
0.02529344753
0.02462832364
0.02379516486
0.0237740231
0.02309631379
0.02277104095
0.02270835733
0.0221868516
0.02160025069
0.02108779543
0.02087752893
0.02053543002
0.02049023804
0.02012856864
0.01969567998
0.01943752962
0.01915545136
0.01889911107
0.01888924926
0.01865235774
0.01873666612
0.01824472195
0.01789450443
0.01762040915
0.01748627678
0.01740041507
0.01717447281
0.01704700132
0.01676830179
0.01673568443
0.01644139282
0.01633745508
0.01608166492
0.01556598333
0.01537327042
0.01525953363
0.0152639748
0.01504423529
0.01469676601
0.01479502267
0.01454098067
0.01461268022
0.01464058827
0.0144577429
0.01448934351
0.01419616161
0.01401640976
0.01353152369
0.01372070085
0.01351779567
0.01343520813
0.01336957961
0.01339278972
0.01321242104
0.0129977296
0.01277018909
0.01261431068
0.01259392878
0.01230594299
0.01258286119
0.01227905743
0.01195712945
0.01209564637
0.0118583877
0.01147817895
0.01163628107
0.01125767944
0.01129290539
0.01131268015
0.0112454109
0.01114174357
0.01140116333
0.01144029273
0.0114545048
0.01101056923
0.01084473553
0.0107064636
0.01072117688
0.0106592584
0.0105340484
0.01039131999
0.01022038732
0.0104462262
0.01034285993
0.01009085123
0.009751875233
0.009824669401
0.009888403695
0.009738911827
0.009756212278
0.009790575236
0.009735859916
0.009546160484
0.00924077651
0.008994084095
0.009118047417
0.009225329507
0.009294372265
0.009188261546
0.009172510576
0.009164976192
0.009462912605
0.00927384525
0.008890086656
0.008736789703
0.0090161428
0.008743984955
0.008690791214
0.008587703246
0.00869582932
0.008619432088
0.008335901185
0.008350242145
0.008295493931
0.008341463183
0.00818753682
0.007999136461
0.007997602908
0.008160278902
0.007855050519
0.007976767072
0.008130592699
0.008084634977
0.008086517264
0.007886163211
0.007976813912
0.007975782893
0.007808238842
0.007902649559
0.007612348855
0.007492973163
0.007604273682
0.007683075443
0.007414745366
0.007347145896
0.007320274721
0.00738508611
0.007216937698
0.007229283726
0.007218292759
0.006944954601
0.006982516166
0.007190233523
0.007031018824
0.006940614165
0.00695717369
0.5011747546
0.350443809
0.2767904564
0.2281537817
0.1962843015
0.1726070741
0.1528977864
0.1375063512
0.1242967103
0.1153593752
0.1064594424
0.09976783484
0.09308872584
0.08713736649
0.08179391202
0.0781090518
0.0742653703
0.07033748951
0.06691711777
0.06389730174
0.06185447172
0.05943911963
0.05643701258
0.05461046579
0.05269161376
0.05084832146
0.04920175682
0.04770255162
0.04613793787
0.0437766948
0.04292416205
0.04155466856
0.0407597515
0.03969322022
0.03849782144
0.03732605453
0.03655695877
0.03516404084
0.03451794189
0.03377123984
0.03297819782
0.03213244777
0.03180877221
0.03093565437
0.02985481911
0.0292462821
0.02920194626
0.02868665666
0.02772704179
0.02718261011
0.02669720776
0.02649521201
0.02589855775
0.02508647563
0.02452283782
0.02428815439
0.0239981943
0.02369832516
0.02328542728
0.02305497742
0.02197409069
0.02194065273
0.02180514432
0.02177068873
0.02147856809
0.02084716545
0.0204220321
0.02009410758
0.02000126496
0.01965242586
0.01951165394
0.01935576695
0.01920495464
0.0190426761
0.01838366861
0.01855860941
0.01818947301
0.01790393178
0.01795055535
0.01751182964
0.01741351651
0.01701799604
0.01661252912
0.01655873699
0.01619684736
0.01571303862
0.01599930001
0.01601902228
0.01557832081
0.01531713822
0.01502838317
0.01489157013
0.01503468964
0.01493199948
0.01464096647
0.01459540095
0.01447884843
0.01455159424
0.01408543065
0.01374472163
0.01392180213
0.01406220458
0.01364001938
0.01380186681
0.01370486066
0.01312734831
0.01299133139
0.01307801985
0.01277262648
0.01296206751
0.01274726547
0.01227321923
0.01213339138
0.01191810501
0.0121334472
0.01242884181
0.01205239248
0.01170757549
0.01172437778
0.01176943823
0.01186757176
0.01163934272
0.01162781658
0.01138871711
0.01150698002
0.01133116966
0.01091334052
0.01087987103
0.01094617183
0.01081537641
0.01087267266
0.01068265235
0.01051955453
0.01033592114
0.01043487263
0.01035503066
0.01045282656
0.01020069363
0.01020567848
0.0100173008
0.01004425783
0.009669111086
0.009756227595
0.009593706278
0.009564563796
0.009439639805
0.009300848809
0.009298136564
0.009282710458
0.009308798649
0.009259363728
0.009102976876
0.009214438555
0.009237192744
0.009097847592
0.00896884257
0.008935995477
0.009110544462
0.009058322853
0.008850940494
0.009076025519
0.00886009413
0.00875309999
0.008422308072
0.008588885211
0.008763779409
0.008555096591
0.008361331156
0.008107638976
0.008043787876
0.00819923021
0.008337874443
0.007995373109
0.008523039809
0.008150887944
0.008040828933
0.008116152435
0.007830157376
0.007818097954
0.007820760585
0.007687195042
0.007878452818
0.007493750517
0.007724306359
0.007665082774
0.007561017863
0.007523810426
0.007521909434
0.007526535723
0.007413979603
0.007214917043
0.007466446801
0.007175291338
0.007148073212
0.007191827422
0.007152704081
0.006933393629
0.00703808422
0.007158165621
0.007097512174
0.5014152726
0.3482090268
0.2749270263
0.2293231439
0.1956588305
0.1723302942
0.1532818582
0.1393657832
0.1261068896
0.115810257
0.1070506598
0.09939871204
0.09273760747
0.08776260188
0.08233914625
0.07795302496
0.07371286981
0.07069225401
0.06725429731
0.06463547037
0.06082558657
0.05830485255
0.05621612186
0.05430683867
0.05204174692
0.05027717292
0.04860751659
0.04763281587
0.0463125336
0.04471551398
0.04305265168
0.04188035439
0.04058036428
0.03974827494
0.03826882864
0.03723239986
0.03650799747
0.03555448561
0.03469529766
0.03375540016
0.03300098116
0.03183641313
0.03191291774
0.03126280886
0.03020652296
0.02964821367
0.02886759159
0.02835417046
0.02797662384
0.02728708627
0.02678758524
0.02655679056
0.02611826499
0.02525967746
0.0248732404
0.0248674329
0.02417572438
0.02385840149
0.02305460859
0.02250406336
0.02274345642
0.02190383139
0.02170479858
0.02129937057
0.02066857499
0.02113591554
0.02077035077
0.02049488848
0.02031097835
0.02003033757
0.01952256825
0.01936273086
0.01918091008
0.01865595635
0.01839827531
0.01800855705
0.01797572084
0.01765715171
0.01763905457
0.01754442698
0.01730111805
0.01714029432
0.0167077499
0.01630163291
0.01618371861
0.01602164053
0.01584851582
0.01581569355
0.01580224506
0.0154476287
0.01532355642
0.01529508754
0.01513647554
0.0149829221
0.01479658122
0.01466297143
0.0143543779
0.01419068151
0.01413521169
0.01405958065
0.0140936078
0.01393920689
0.01363433954
0.01310277978
0.01282373386
0.01307396841
0.01292982373
0.01280423497
0.01270162962
0.01264117418
0.01270523228
0.01263927847
0.01232534621
0.0120472169
0.01193553512
0.01219212661
0.01189725388
0.01220998073
0.01211855777
0.01187808837
0.01184374716
0.01182664839
0.01155789635
0.01170682636
0.01152232518
0.01110876581
0.01094871818
0.01070600876
0.01118822551
0.01098979629
0.01069645861
0.01044023332
0.01060191766
0.01050316612
0.0105166772
0.01042505129
0.01029993275
0.01039861839
0.01028004883
0.01005218281
0.00989717157
0.009917664858
0.01012974149
0.01007449222
0.009840000828
0.009371882986
0.009611595982
0.009724230078
0.009546448246
0.009688692736
0.009447349641
0.009387613249
0.009251799249
0.009174637263
0.009107049842
0.00914516468
0.008949579523
0.008823023235
0.0089440748
0.008858163763
0.008627827567
0.008673429934
0.008617787804
0.008612817847
0.008511907821
0.008526297817
0.008469281377
0.008581894462
0.008555886958
0.008337808902
0.008294663595
0.0081003315
0.008131960271
0.007975611122
0.007987389159
0.008096842704
0.007831531679
0.007853513948
0.007978017612
0.007899875211
0.007788421938
0.007681449538
0.007778347141
0.007814062954
0.007790044544
0.007506261104
0.00743541575
0.007301169141
0.007363648194
0.007618540182
0.007365061543
0.007500198524
0.007484056102
0.007299616655
0.007356584243
0.007249168362
0.007411714723
0.007096416545
0.007232170272
0.007078598991
0.5033909175
0.3499673911
0.2748083887
0.2289981775
0.1966159858
0.1718443
0.1535720216
0.1377217158
0.1265471714
0.1155250269
0.1077167202
0.09964937421
0.09327739727
0.08696041735
0.08268727625
0.07816723002
0.07444338487
0.07070360026
0.06717303374
0.0634161052
0.06150697736
0.05864640648
0.05660884863
0.0543367994
0.052027707
0.05015887722
0.0487862021
0.04761770615
0.04550493943
0.04393386365
0.04275183476
0.04148396783
0.04022882262
0.03935365538
0.03837604977
0.03752331394
0.03643631522
0.03546833218
0.03501590678
0.03428157654
0.03334876557
0.0327847671
0.03149947974
0.03063145626
0.0303927029
0.02972771032
0.02928997889
0.02867933791
0.02789785253
0.02754259853
0.02694911082
0.02632197701
0.0260363354
0.02573732404
0.02535112243
0.02473013348
0.02423502268
0.02365362875
0.02360890468
0.02310945001
0.02272220563
0.02239703442
0.02224534577
0.02192247648
0.02140912238
0.02113580117
0.02051259439
0.02031200942
0.02014220566
0.02003710024
0.01988914303
0.01947587264
0.01907469322
0.01893100266
0.01857464604
0.01812710484
0.01785125058
0.01804683949
0.01756253308
0.01737120906
0.01681228526
0.0173307214
0.01714326063
0.01692977826
0.01653107567
0.01668437897
0.01628069536
0.01612148332
0.01612029684
0.01602654271
0.01530704377
0.01516368292
0.01513940195
0.0148620272
0.01478399472
0.0146728439
0.0143027118
0.0140463885
0.01398313591
0.01405005624
0.01367791574
0.01368354877
0.01375614039
0.0135201379
0.01328949853
0.01311698563
0.0129479616
0.01288437987
0.01288143164
0.01269325945
0.01240635689
0.01248687454
0.01251738634
0.0123987031
0.01214548816
0.0119305109
0.0120136478
0.01182287242
0.01193542447
0.01202054565
0.0118918938
0.0115245875
0.01157271644
0.0110623745
0.01127258881
0.01108793567
0.01098114759
0.01088937221
0.01060785576
0.0109159742
0.01075262352
0.01069461219
0.01053623281
0.01046083453
0.01038178686
0.01060034941
0.01024718814
0.0101377371
0.009953312265
0.01008424551
0.01014198885
0.01000144865
0.009930036969
0.009748998989
0.009790761812
0.009770533181
0.009540706278
0.009551189626
0.009700186413
0.00932054149
0.009274041341
0.009344649675
0.009014012814
0.008990986686
0.009234872658
0.008990370169
0.009068398009
0.009134172127
0.0089715782
0.008642690833
0.008850625446
0.008824939354
0.008750103864
0.00863514505
0.00857065356
0.008434754066
0.008442015978
0.008395710192
0.008442563605
0.008385467746
0.008650196332
0.008361365921
0.008085169608
0.008243398443
0.008088111352
0.008174677074
0.007900744925
0.008111717751
0.007944012946
0.00783894589
0.007912614628
0.007729708815
0.007736286349
0.007755481415
0.007811517813
0.007787968233
0.007615448271
0.007573725183
0.007622985972
0.007430174388
0.007618256035
0.007521061977
0.007472161501
0.007349435232
0.007341985244
0.007401667271
0.00730534584
0.00715089868
0.00706466508
0.007043109258
0.5026258434
0.3485158793
0.274419317
0.227521363
0.195053337
0.1716638413
0.1522712097
0.138882495
0.1259521854
0.1160594334
0.1071283261
0.09947353835
0.09432058964
0.08756995699
0.08295462754
0.07833841863
0.07400216246
0.07008033829
0.06718094228
0.06440061014
0.06110625042
0.05865706821
0.05679823269
0.05417449525
0.05205284285
0.0506652948
0.04890902015
0.04650804624
0.04509129031
0.04431678166
0.04268656628
0.04164835367
0.0407751114
0.03962289075
0.03824506566
0.03694849772
0.03614680405
0.03574233122
0.03476056373
0.03365687928
0.03321832884
0.03212758108
0.03161208631
0.03053524552
0.03003169545
0.02973031323
0.02884447254
0.02825543209
0.02783360062
0.02721800514
0.02671431256
0.02608087938
0.02557692085
0.02553003358
0.02494821065
0.02443166483
0.02418945971
0.0241089893
0.02328002268
0.02338338341
0.02307588088
0.02265314091
0.02237077743
0.02178838135
0.02159931104
0.02147565681
0.02107830933
0.02045671618
0.02017436723
0.01971536034
0.01939129673
0.01895671317
0.01891015959
0.01845607858
0.01872090277
0.01849408399
0.01835488077
0.01784696596
0.01762404056
0.01729482407
0.01698374597
0.01653995426
0.01640982065
0.01662656936
0.01654394773
0.01598297758
0.01617143173
0.01585379551
0.01552070128
0.01570080415
0.01567273585
0.01552576015
0.01528922295
0.01490816001
0.0147816668
0.01449426568
0.01413276585
0.01424956634
0.01391178726
0.01407381274
0.0137556655
0.01340994762
0.01313820853
0.01342787547
0.01356365437
0.01331302224
0.01316405684
0.01318820363
0.01301840914
0.01263718049
0.01279568708
0.01285369131
0.01285661788
0.01245699215
0.01239357668
0.01201205418
0.01211566807
0.0120053216
0.01181134551
0.01159196515
0.01126692899
0.01115498382
0.01117614878
0.01111272211
0.01103200301
0.01084043186
0.01096828707
0.01099253991
0.01080141352
0.01063695723
0.01063071126
0.01067639238
0.01062069959
0.01070205678
0.01044981357
0.01002198735
0.009942829508
0.009893162347
0.01021738563
0.01016482543
0.01011419106
0.01009205097
0.009944559483
0.009709262239
0.009738040211
0.009850372549
0.01002643486
0.009960115291
0.009721475432
0.009618399801
0.009563370778
0.009479613779
0.00930635792
0.00913647379
0.00889502016
0.008810104278
0.008644068622
0.008753192145
0.008630618191
0.00874869495
0.008641310813
0.00858554713
0.008772342123
0.008562621156
0.008473791428
0.008549241029
0.008545810451
0.008525270534
0.008294969996
0.008618302851
0.008304799887
0.008296140779
0.008324782102
0.008185656178
0.0080467401
0.008015304883
0.007963600916
0.007837890957
0.007984785133
0.007788186947
0.0076796083
0.007768590676
0.007697913986
0.007701151193
0.007492593776
0.0076398553
0.007699015932
0.007728159011
0.007712449106
0.007494775791
0.007327467369
0.007286286504
0.007402158855
0.007523053216
0.007381930375
0.007257748399
0.007185376633
0.007398438711
0.007081198471
0.007047545191
)
;

boundaryField
{
    bottom
    {
        type            calculated;
        value           nonuniform List<scalar> 
200
(
0.5037028805
0.3511648734
0.2750567261
0.2278556701
0.1953723261
0.1717820512
0.15354559
0.1382724014
0.1259121145
0.1161555866
0.107910259
0.09968779301
0.09303037933
0.08744712362
0.08261051283
0.07766027944
0.07348350844
0.07004758296
0.06708564985
0.06444633837
0.06153714935
0.05850467272
0.05698869698
0.0541342679
0.05262510013
0.05045254754
0.04852467589
0.0466868883
0.04558189262
0.04457432657
0.04257789016
0.04160450031
0.04027754948
0.03910380975
0.03792689455
0.03716901992
0.03634810603
0.03535826037
0.03427977804
0.03347971041
0.03293712896
0.03201838467
0.03150934252
0.03100487527
0.03045951175
0.02953696028
0.0290904995
0.02836578599
0.02805834635
0.0275259004
0.02719426992
0.02626781778
0.02568273255
0.025638578
0.02529344753
0.02462832364
0.02379516486
0.0237740231
0.02309631379
0.02277104095
0.02270835733
0.0221868516
0.02160025069
0.02108779543
0.02087752893
0.02053543002
0.02049023804
0.02012856864
0.01969567998
0.01943752962
0.01915545136
0.01889911107
0.01888924926
0.01865235774
0.01873666612
0.01824472195
0.01789450443
0.01762040915
0.01748627678
0.01740041507
0.01717447281
0.01704700132
0.01676830179
0.01673568443
0.01644139282
0.01633745508
0.01608166492
0.01556598333
0.01537327042
0.01525953363
0.0152639748
0.01504423529
0.01469676601
0.01479502267
0.01454098067
0.01461268022
0.01464058827
0.0144577429
0.01448934351
0.01419616161
0.01401640976
0.01353152369
0.01372070085
0.01351779567
0.01343520813
0.01336957961
0.01339278972
0.01321242104
0.0129977296
0.01277018909
0.01261431068
0.01259392878
0.01230594299
0.01258286119
0.01227905743
0.01195712945
0.01209564637
0.0118583877
0.01147817895
0.01163628107
0.01125767944
0.01129290539
0.01131268015
0.0112454109
0.01114174357
0.01140116333
0.01144029273
0.0114545048
0.01101056923
0.01084473553
0.0107064636
0.01072117688
0.0106592584
0.0105340484
0.01039131999
0.01022038732
0.0104462262
0.01034285993
0.01009085123
0.009751875233
0.009824669401
0.009888403695
0.009738911827
0.009756212278
0.009790575236
0.009735859916
0.009546160484
0.00924077651
0.008994084095
0.009118047417
0.009225329507
0.009294372265
0.009188261546
0.009172510576
0.009164976192
0.009462912605
0.00927384525
0.008890086656
0.008736789703
0.0090161428
0.008743984955
0.008690791214
0.008587703246
0.00869582932
0.008619432088
0.008335901185
0.008350242145
0.008295493931
0.008341463183
0.00818753682
0.007999136461
0.007997602908
0.008160278902
0.007855050519
0.007976767072
0.008130592699
0.008084634977
0.008086517264
0.007886163211
0.007976813912
0.007975782893
0.007808238842
0.007902649559
0.007612348855
0.007492973163
0.007604273682
0.007683075443
0.007414745366
0.007347145896
0.007320274721
0.00738508611
0.007216937698
0.007229283726
0.007218292759
0.006944954601
0.006982516166
0.007190233523
0.007031018824
0.006940614165
0.00695717369
)
;
    }
    top
    {
        type            calculated;
        value           nonuniform List<scalar> 
200
(
0.5026258434
0.3485158793
0.274419317
0.227521363
0.195053337
0.1716638413
0.1522712097
0.138882495
0.1259521854
0.1160594334
0.1071283261
0.09947353835
0.09432058964
0.08756995699
0.08295462754
0.07833841863
0.07400216246
0.07008033829
0.06718094228
0.06440061014
0.06110625042
0.05865706821
0.05679823269
0.05417449525
0.05205284285
0.0506652948
0.04890902015
0.04650804624
0.04509129031
0.04431678166
0.04268656628
0.04164835367
0.0407751114
0.03962289075
0.03824506566
0.03694849772
0.03614680405
0.03574233122
0.03476056373
0.03365687928
0.03321832884
0.03212758108
0.03161208631
0.03053524552
0.03003169545
0.02973031323
0.02884447254
0.02825543209
0.02783360062
0.02721800514
0.02671431256
0.02608087938
0.02557692085
0.02553003358
0.02494821065
0.02443166483
0.02418945971
0.0241089893
0.02328002268
0.02338338341
0.02307588088
0.02265314091
0.02237077743
0.02178838135
0.02159931104
0.02147565681
0.02107830933
0.02045671618
0.02017436723
0.01971536034
0.01939129673
0.01895671317
0.01891015959
0.01845607858
0.01872090277
0.01849408399
0.01835488077
0.01784696596
0.01762404056
0.01729482407
0.01698374597
0.01653995426
0.01640982065
0.01662656936
0.01654394773
0.01598297758
0.01617143173
0.01585379551
0.01552070128
0.01570080415
0.01567273585
0.01552576015
0.01528922295
0.01490816001
0.0147816668
0.01449426568
0.01413276585
0.01424956634
0.01391178726
0.01407381274
0.0137556655
0.01340994762
0.01313820853
0.01342787547
0.01356365437
0.01331302224
0.01316405684
0.01318820363
0.01301840914
0.01263718049
0.01279568708
0.01285369131
0.01285661788
0.01245699215
0.01239357668
0.01201205418
0.01211566807
0.0120053216
0.01181134551
0.01159196515
0.01126692899
0.01115498382
0.01117614878
0.01111272211
0.01103200301
0.01084043186
0.01096828707
0.01099253991
0.01080141352
0.01063695723
0.01063071126
0.01067639238
0.01062069959
0.01070205678
0.01044981357
0.01002198735
0.009942829508
0.009893162347
0.01021738563
0.01016482543
0.01011419106
0.01009205097
0.009944559483
0.009709262239
0.009738040211
0.009850372549
0.01002643486
0.009960115291
0.009721475432
0.009618399801
0.009563370778
0.009479613779
0.00930635792
0.00913647379
0.00889502016
0.008810104278
0.008644068622
0.008753192145
0.008630618191
0.00874869495
0.008641310813
0.00858554713
0.008772342123
0.008562621156
0.008473791428
0.008549241029
0.008545810451
0.008525270534
0.008294969996
0.008618302851
0.008304799887
0.008296140779
0.008324782102
0.008185656178
0.0080467401
0.008015304883
0.007963600916
0.007837890957
0.007984785133
0.007788186947
0.0076796083
0.007768590676
0.007697913986
0.007701151193
0.007492593776
0.0076398553
0.007699015932
0.007728159011
0.007712449106
0.007494775791
0.007327467369
0.007286286504
0.007402158855
0.007523053216
0.007381930375
0.007257748399
0.007185376633
0.007398438711
0.007081198471
0.007047545191
)
;
    }
    inlet
    {
        type            calculated;
        value           nonuniform List<scalar> 5(0.5037028805 0.5011747546 0.5014152726 0.5033909175 0.5026258434);
    }
    outlet
    {
        type            calculated;
        value           nonuniform List<scalar> 5(0.00695717369 0.007097512174 0.007078598991 0.007043109258 0.007047545191);
    }
    back
    {
        type            symmetry;
    }
    front
    {
        type            symmetry;
    }
}


// ************************************************************************* //
