/*--------------------------------*- C++ -*----------------------------------*\
| =========                 |                                                 |
| \\      /  F ield         | OpenFOAM: The Open Source CFD Toolbox           |
|  \\    /   O peration     | Version:  v1612+                                |
|   \\  /    A nd           | Web:      www.OpenFOAM.com                      |
|    \\/     M anipulation  |                                                 |
\*---------------------------------------------------------------------------*/
FoamFile
{
    version     2.0;
    format      ascii;
    class       volScalarField;
    location    "4.78";
    object      Ma_mix;
}
// * * * * * * * * * * * * * * * * * * * * * * * * * * * * * * * * * * * * * //

dimensions      [0 0 0 0 0 0 0];

internalField   nonuniform List<scalar> 
1000
(
0.0001330094642
0.0002332316143
0.0001260186489
0.0001613263608
0.000181708347
0.0001115798978
0.0001210025744
0.0002015509593
0.0001495200294
0.0001209957576
0.0001657127702
0.0001157673903
0.0001192218063
0.0003132489778
0.0001617769
9.553455839e-05
0.0001652046254
0.0002624315518
0.0002536566189
0.0002757382233
0.0001371791337
0.0002612500535
9.587859496e-05
0.0003396365724
7.776622894e-05
0.0002911203719
0.0002233251794
0.0002459369177
0.0002023430542
7.343526329e-05
0.0001093359685
0.0001737244215
0.0002578586926
0.0002399665365
0.0001416632809
6.075703272e-05
0.0002250359688
0.0001333782759
0.0001444564869
0.000134689749
0.0002291064853
0.0003288529212
0.0001151092165
0.0002367310794
9.153388983e-05
7.631257441e-05
0.0001522375111
0.0003973595433
0.0004233720648
0.0001117094255
0.0001914149446
8.870253532e-05
0.0001071965417
0.0001561530782
0.0002310830729
6.53196531e-05
0.0002728913809
0.0001250291264
0.0001667936983
0.0002573152212
0.0002449776218
0.0001465956723
0.0001049044663
0.000100545387
0.0001226201303
0.0001046043644
9.770848338e-05
0.0001946782584
0.000169511231
3.680585159e-05
0.0002446954047
0.0002196037923
0.0001083497285
9.347125241e-05
0.0002573495531
0.0001348872564
0.0001700220986
0.0001131746761
0.000133306344
9.188804599e-05
0.0001386652139
0.0001490776228
0.0001879872244
0.0002803912703
0.0001428345267
8.599805153e-05
0.0001618642368
0.0003486699853
0.0002468734138
0.0002878739851
0.0001857558781
0.0001196201005
0.000206850318
0.0002740405514
4.619385766e-05
0.0002693663737
0.000314946091
0.0001943734816
0.0001607976935
0.000287883618
7.08271748e-05
0.0002441142855
0.0001019679077
0.0001176837054
0.0001233091105
0.0001719833181
0.0002464235069
0.0001589811402
7.751789053e-05
6.735101998e-05
0.0001112238849
8.708580195e-05
0.0001383235136
0.0003436477351
0.0002252955751
0.0002861941228
0.0003595119105
0.0001984063139
0.0002572122755
0.0002111924464
0.0002221302566
0.0002039810865
0.0001822298232
0.0001158281729
0.0002741921126
0.0003518060719
0.0003197384843
0.0004249740303
0.0001742047195
9.549001137e-05
9.092735379e-05
0.0001572961693
4.869130372e-05
0.0001656199795
0.000137698426
0.0001449852886
0.000185089107
0.0001513303439
0.0001495562409
0.0001509164726
0.0001995822922
8.778941574e-05
0.000144199753
7.163774727e-05
6.229879835e-05
0.0001560028402
0.0001791423653
0.0003360310181
0.0004721731231
0.0002859985594
0.0001630831331
0.0001488003293
0.0002472289444
0.0002031015112
0.0001155453225
0.0004181235983
0.000355165505
5.55708967e-05
0.0001863968896
0.0002321075018
0.0001216489656
8.224555847e-05
6.262862903e-05
3.796964464e-05
3.309812658e-05
0.0001485465426
0.0001333700719
0.0001144726031
0.0001371279746
0.0001627857383
0.0003139173276
0.0002798041402
0.000161882879
0.0003289467912
0.0001271706503
0.0001636334718
0.0001688777628
0.0002262644886
0.0001203128393
0.0002014578223
0.0001910862587
8.872477995e-05
0.0001654233842
0.0002407292672
0.000162785918
9.796521487e-05
0.0001827774961
0.0002167095195
0.0001932329102
0.0002508810443
4.662928414e-05
0.0001164353608
0.000156349807
0.0001930773733
0.0003972191377
0.0002403932584
0.0001159573957
0.0001744316052
0.0002117298271
0.0002674056284
9.893325357e-05
0.0001570741645
9.557582299e-05
0.0001939677071
0.0002907243053
0.0001183036839
0.0001213522729
9.501265912e-05
0.0002003137838
0.0002233479494
0.0001567816833
6.817920916e-05
0.0002707984282
0.0001657435904
0.0001573159651
0.0003114749813
0.0001063579735
0.0001491400283
0.0002134169807
0.0001131288528
0.0001727948378
9.723423335e-05
0.0003119049251
0.0003223483232
0.0003137122292
0.0001387699745
0.00038511107
0.0001325191634
9.100492335e-05
0.000144820171
0.000178342013
0.0001665521668
0.0001937466699
0.000154376161
9.440214483e-05
9.597406199e-05
0.0001365463782
0.0001354879713
0.0003471551446
7.801348996e-05
0.0002057376875
0.0001457955935
7.902358074e-05
0.0001367878945
0.00019531019
0.0001315547787
0.0002683941002
0.0002279365816
0.0001144372726
0.0002528744178
0.0001544915361
7.6078065e-05
8.466123879e-05
9.701260443e-05
0.0004311582899
0.000282818529
0.0002662793506
0.0002699463153
0.0002154715968
0.000155094606
0.0002926089641
0.0002290753867
0.0001904816408
0.0001446046029
0.0002327167504
7.898493126e-05
0.0001550796537
0.0001359213555
0.0002322068198
0.0002042174404
0.0001720003779
0.0002110722787
0.0001128679006
0.0001783352652
2.631325113e-05
7.805043582e-05
0.0001539454572
0.00018666079
0.000195155615
0.0002327007476
0.0001629912266
0.0001435473378
0.0001576819933
0.000191626484
0.0001326325042
0.000169181145
0.0001803528635
0.0001055000413
8.691059573e-05
5.617347348e-05
0.0002404907104
0.0001622218877
0.0001634524166
9.435893023e-05
8.726104056e-05
0.0001655307534
7.863581936e-05
0.0001498925648
0.0002253794189
0.0002192223128
0.0002284546329
0.0002483580954
8.626721104e-05
0.0003335129125
0.0003463780297
0.0002157619473
0.0002571311835
0.000227515882
0.0001144912217
0.0002526451086
0.0002505136722
0.000149202797
0.0002881416474
0.0004662508534
0.0001337985849
0.0001450344482
0.0002156634485
0.0002462545825
0.0001877944311
0.0001264611002
0.000120490715
0.000160570246
8.835341796e-05
6.141295769e-05
0.0002709641225
7.224977671e-05
0.0002358270894
0.000235507216
0.0001416489944
0.0003476051898
0.0001744105878
9.6847801e-05
0.0002549348773
0.0002009060269
0.0001558831983
0.0001720229401
8.028164617e-05
0.0001085220906
0.0002917313474
0.0002114637187
3.612615087e-05
0.000153374071
8.20892885e-05
0.0002127564721
6.350173088e-05
0.0001147888831
0.0002688188304
0.0003766867825
0.0002770934735
0.0002841867101
0.0001853003091
0.0001204408625
0.0001783345163
0.0001336162365
0.000317677683
0.0001056128075
0.0001326730297
0.0002828102247
0.0002549560474
0.0002825418976
0.0003019234012
0.000120053244
0.0001893759808
0.0003319722496
0.0002955636848
0.0001817585565
0.0002033365666
0.0001410968637
0.0003267511498
0.0002811069592
0.0001060881352
0.0001496620564
0.000184261173
0.0004029795462
0.000375496418
8.757513388e-05
0.0002008559894
0.0003162803154
0.0001044059525
0.0002091001438
0.0002146888937
0.0001694704542
0.0002530370071
0.000159526345
0.0001092427195
0.0003273707163
0.0001825297155
0.0002347568463
0.0001628468117
0.0002144562725
0.0001848077972
0.0001060081722
0.0001456821718
0.0001119458271
8.536294687e-05
0.0001349873527
0.0002485529801
0.0001402220104
0.0001260391946
0.000269341444
0.0001651542114
0.0002824213762
0.0001087897509
0.0001777746906
0.0001087148708
0.0002863965396
0.0003184778062
0.0002528048708
0.0001140027355
0.000138935005
0.0002613537505
9.026977085e-05
0.0002652273877
5.519021053e-05
0.0001605863394
0.0001815557304
0.0001450836289
7.855173118e-05
9.337116012e-05
8.606840514e-05
0.0001897603783
4.86357024e-05
0.0002102216035
0.000267389512
0.0002088448438
0.0003210958735
0.000103855823
0.0002388687056
0.0004054450467
0.0003880005316
0.0001945005263
0.0001588663956
0.0001502021965
0.0001865507587
0.0001371136534
0.0001251371392
0.0001030256373
8.463453089e-05
0.0001987349418
0.0001233957223
0.0001401467582
0.0002595716318
0.0002731998533
0.0002088083909
0.0001178491845
0.0002707909733
0.0003466266649
0.0002448058063
0.0001495418878
0.0001351896753
0.0001419728679
6.140456423e-05
0.0002124712263
0.0002527844596
0.0003344568306
0.0001595419414
0.0001454497776
0.0001559328726
0.0001001604888
0.0001648211784
0.0001542985032
0.0002420003253
0.0002414256169
0.0002416897358
0.0002109717894
0.0002313764892
0.0003084785336
0.0003340409207
0.0001688358525
0.0003032804989
0.0002235118286
8.720660459e-05
0.0001270867557
0.0001277377234
0.0001176866242
9.847319187e-05
0.0002010943964
0.0002307375334
9.520447094e-05
0.0001844231729
0.0001271449945
0.0001938403256
0.000241061224
0.0002291367123
0.0002788866979
0.0001590820609
0.0001109584163
0.0001058196808
0.0002712459811
7.724977055e-05
0.0001482692173
0.0001599633828
0.0002026682844
0.0002530851258
2.639216695e-05
0.0002104815191
0.0001252819021
0.0001835973648
0.0002896176248
0.0002816906118
0.0004204721468
0.0001505544576
0.000106829743
0.0002736438514
0.0002470143007
9.369427354e-05
6.038368699e-05
9.48088905e-05
0.0001979228933
0.0001529669503
0.000107064012
0.0001937363448
8.33128639e-05
0.000356616134
0.0002154044826
0.000212770358
0.0002073812132
0.0002689070286
0.0002407811146
0.0001702190123
0.000314812197
0.0003300672004
0.0001324596411
0.0002785915426
0.0002080868381
0.0001235724707
0.0002934465367
0.0003553143339
9.388845486e-05
0.0002242089438
8.004525164e-05
0.0002345434608
9.866798449e-05
0.0002257058189
0.0002102751251
0.0001548124245
0.0004024223579
0.0003167964355
0.0002819854916
8.721999845e-05
0.0001293973231
9.818496001e-05
0.0003126180044
0.0003401689574
6.082026947e-05
0.0003760842979
0.0001791542529
0.0002330552178
0.0001506540941
0.0003510729623
0.0001043808585
3.306928866e-05
0.000193391773
7.230201287e-06
0.0001783507892
6.373702626e-05
0.0002044946219
0.000220031864
5.047016937e-05
0.0001415382787
0.0002171610305
0.0002219145673
0.0001678262958
0.0002145970929
0.0002151909425
0.0001198214883
0.0002013649525
0.0002010192843
0.0002291029997
0.0001311284391
0.0001963953068
0.0002430779145
0.0001300614201
0.0001446961934
3.648913516e-05
0.0002291267064
0.0002048678444
9.045692446e-05
0.0001575731876
0.0001281440877
0.0001349365923
0.0002085214532
0.0001041928225
0.0002200054906
0.0002720050026
0.0002941381038
0.0001611531831
0.0002761405595
0.0001788822137
0.0003083356491
0.0002397184348
0.0001706569624
0.00022727398
9.267360298e-05
0.0001103762182
5.634027352e-05
0.0002239164942
0.0001862215437
0.0002587691295
0.0002156335202
9.344892934e-05
0.0001729764137
0.0002529472242
0.0002241982661
0.0002130898909
0.0001600403106
0.0002847217708
0.000151665894
0.0001106760512
0.0002318348819
0.0001959053579
0.0002637625645
0.0002030498328
0.0002668489048
0.0001766943917
0.0002212053119
0.0002352826207
0.0001670191982
0.0002478998642
9.270485834e-05
7.692215728e-05
0.0001230727411
0.0001940285535
0.0002717003872
0.0001853942738
0.000212098349
0.0002324423354
0.0001175979009
0.000177489708
0.0001371993866
0.0001810198503
0.0001511764706
0.0002167039473
0.0001088199697
0.0001344327051
0.0003212764695
0.0001402368263
0.0001147329695
5.813133108e-05
0.0003051955262
0.0002956058749
0.0003864368858
0.0001683039359
0.0001142904099
0.0002316608129
0.0001927576732
0.0002292961093
0.0002092801368
0.0001845926817
0.0001330374866
0.0002006878967
0.0001554344787
0.0001847097239
0.0003623324716
0.0001357451102
8.093121045e-05
0.0001988671318
0.0003156267675
0.0002623358986
0.0001761550182
0.000198580536
0.0001848587038
0.0001371092171
0.0001902304268
0.0001453376724
0.0001917969818
0.0002839613956
0.0001984981641
9.068673494e-05
0.0001050134443
0.0002655599022
0.0002278595547
0.0001370549923
0.0002686351831
0.0001194907922
0.0002293075583
0.0001205254961
0.0002195574319
0.0001271035442
0.0001048942119
0.0002935165021
0.0001761021535
0.000236638088
0.0001259370992
0.0002470841884
0.0003592364473
0.0002598878684
8.594898387e-05
0.0002479460483
0.000325611236
0.0002960760741
6.689032726e-05
0.0002017459699
0.0001135330881
1.941488609e-05
0.0001178893166
0.0001112429178
0.0001452268875
0.0002044968245
0.0001259646672
0.000251092388
0.0001369335218
0.0002686161408
0.000243300459
0.0001474948628
8.474526031e-05
0.0001798770123
7.182894584e-05
0.0001483765916
3.508349641e-05
0.0001830984645
9.631630445e-05
0.0001244487773
0.0001901263356
0.000393795144
0.0002530443522
0.0001117803944
8.748158211e-05
0.0001865700948
0.0002886540209
0.0002460659316
0.00011654841
6.396229148e-05
0.0003897200191
8.122787147e-05
0.0002216582982
0.0001999090358
0.000177480866
0.0001758026502
8.265231771e-05
0.0003064728863
0.0001144628558
0.0001318619279
0.0001990645328
0.0002264175256
0.0003489556796
0.0001221450345
0.0002522471158
0.0002556312894
0.0001289692771
0.0002789523775
0.0001812271804
0.0001548801589
0.0001192907899
0.0002888756265
0.0001285875268
0.0002235625008
9.946979851e-05
0.0003534442119
8.850550817e-05
0.0001009980347
0.0002273013304
8.533090958e-05
0.0002479491879
0.0003410550166
0.000216519024
0.0002724056581
0.0002939361006
0.0001587146756
0.0001890107775
0.0001435927154
0.000121031108
0.0002154229655
0.0002052967168
0.0001149850367
0.0002124905127
0.0001821873351
7.987050622e-05
7.372957313e-05
0.0001421560737
0.0003294924075
0.0002420284664
0.0001189545558
0.0001397238451
0.0001361745127
0.0001912462083
0.0001433789757
0.0001564699596
6.335450189e-05
0.00010352083
0.0001395718015
0.000168712316
0.0001194251721
9.412374126e-05
0.0001824059104
0.0002386364112
0.0001567964212
0.0001776206209
0.0002166752091
0.0001394154703
0.000152695551
0.0001566824015
0.0001510397727
0.000190686028
0.0001822637631
0.0002124736067
0.0001801764563
0.0001291196301
0.0001766352198
0.0001825326598
0.0002184278112
0.0001370473964
0.0001487311385
0.0002172023905
0.000158643173
0.0002028217682
0.0001509545739
0.0002340476878
0.0002586736681
0.0002188666647
0.0001955896311
8.271356941e-05
0.0001708715397
5.682388626e-05
0.0001214368246
0.0002056568023
0.0002387592898
0.0002988460427
0.0003081463622
0.0001869325115
0.0001027912646
0.0001962421192
0.0002655646596
0.0001757439288
9.790613845e-05
0.0002699563605
8.619431357e-05
0.0002187438813
0.0002848896013
7.967982593e-05
0.0001603782167
0.000173023045
0.000188493836
0.0001941959299
0.0001054003537
0.0002702145036
6.492361001e-05
0.000175817001
0.0002082757054
7.400112182e-05
0.0001629232531
0.0002481872918
0.0001777588572
0.0002005856335
0.000219305124
0.0001516316347
0.0001429478742
0.0001777097513
0.000120217563
0.0001184027942
5.483754021e-05
0.0001801369656
0.0001813125308
0.0001981631633
0.0001343910359
0.0002357699576
0.0001080451924
0.0002884475833
0.0002200496902
0.0002237806679
0.0002552415015
0.0003674696996
0.0001051980667
0.000139228184
0.0001002438751
0.0001286597232
0.0001395609432
0.0003707173097
0.000181076967
0.0002059041863
0.0001817982298
0.0001782898689
0.0001719800228
0.0002410994678
0.0001380155184
0.0001227772277
4.602864445e-05
0.0001406279081
0.0001756260777
0.000241960431
0.0001149804365
0.0002915398363
0.0001164346739
0.000136886721
0.0001692563286
0.000300575698
0.0002569228517
0.0001613101129
0.0002099815815
0.000157041119
0.0003294851599
0.0004283059811
0.0002869760066
6.743489813e-05
6.497700618e-05
0.0001900650701
0.0002930394333
0.0001197707439
0.0001977101461
0.0002585789643
0.0001922267026
0.0002473334439
0.0003268633594
0.0002398645529
0.0001330617292
2.409610314e-05
0.0001388387155
0.0002135543477
0.0002098721764
0.0001050134066
0.0001975079433
0.0003770094872
0.0002502689561
0.0001427743807
9.775569049e-05
0.0001273513438
0.0001443062436
0.0002051621722
8.893546349e-05
0.0001053372954
0.0002485093192
0.0003274496452
0.0001759312786
0.0001167756522
0.0002073636009
0.0001462523233
9.38115669e-05
5.946623929e-05
0.00011337167
0.0001772711254
7.840558723e-05
0.0002635798018
0.0001603864461
0.0001984369122
0.0002022072661
0.0002769568576
0.0003249500992
0.0002807986485
0.0001510324831
0.0001547757826
0.0002227220934
0.0001596336556
0.0001612675591
0.0002555995228
0.0001046569385
0.0002744321775
0.0004467185456
0.0004169430164
0.0002980826599
0.0002356482147
0.0002570064961
0.000218842367
0.000144575399
0.0002490525953
0.0001882729902
0.000185407726
0.0002901320201
0.0001554971129
0.0002444726352
0.000213913515
0.000216665274
0.000104041357
0.0001669863534
0.0002783333596
0.0002141336685
0.0001150484136
9.195141482e-05
0.0001629280321
0.0001313970677
0.0002911923439
6.307172972e-05
0.0001055520536
0.0001907989722
0.0001780029353
0.0001081992513
0.0001488691526
1.528584749e-05
8.424294578e-05
0.0001145870232
4.686004351e-05
0.0001196597478
8.948880625e-05
8.004461976e-05
0.0001710050255
0.0002098609162
6.627685064e-05
0.0002123675779
0.0001963724152
0.0002733688128
5.734664576e-05
7.601210445e-05
0.0001352986754
0.0001795784231
0.0002585676278
0.0001286453404
0.0002180109878
0.0002976576045
0.0003727685307
7.910425732e-05
9.689705e-05
)
;

boundaryField
{
    bottom
    {
        type            calculated;
        value           nonuniform List<scalar> 
200
(
0.0001330094642
0.0002332316143
0.0001260186489
0.0001613263608
0.000181708347
0.0001115798978
0.0001210025744
0.0002015509593
0.0001495200294
0.0001209957576
0.0001657127702
0.0001157673903
0.0001192218063
0.0003132489778
0.0001617769
9.553455839e-05
0.0001652046254
0.0002624315518
0.0002536566189
0.0002757382233
0.0001371791337
0.0002612500535
9.587859496e-05
0.0003396365724
7.776622894e-05
0.0002911203719
0.0002233251794
0.0002459369177
0.0002023430542
7.343526329e-05
0.0001093359685
0.0001737244215
0.0002578586926
0.0002399665365
0.0001416632809
6.075703272e-05
0.0002250359688
0.0001333782759
0.0001444564869
0.000134689749
0.0002291064853
0.0003288529212
0.0001151092165
0.0002367310794
9.153388983e-05
7.631257441e-05
0.0001522375111
0.0003973595433
0.0004233720648
0.0001117094255
0.0001914149446
8.870253532e-05
0.0001071965417
0.0001561530782
0.0002310830729
6.53196531e-05
0.0002728913809
0.0001250291264
0.0001667936983
0.0002573152212
0.0002449776218
0.0001465956723
0.0001049044663
0.000100545387
0.0001226201303
0.0001046043644
9.770848338e-05
0.0001946782584
0.000169511231
3.680585159e-05
0.0002446954047
0.0002196037923
0.0001083497285
9.347125241e-05
0.0002573495531
0.0001348872564
0.0001700220986
0.0001131746761
0.000133306344
9.188804599e-05
0.0001386652139
0.0001490776228
0.0001879872244
0.0002803912703
0.0001428345267
8.599805153e-05
0.0001618642368
0.0003486699853
0.0002468734138
0.0002878739851
0.0001857558781
0.0001196201005
0.000206850318
0.0002740405514
4.619385766e-05
0.0002693663737
0.000314946091
0.0001943734816
0.0001607976935
0.000287883618
7.08271748e-05
0.0002441142855
0.0001019679077
0.0001176837054
0.0001233091105
0.0001719833181
0.0002464235069
0.0001589811402
7.751789053e-05
6.735101998e-05
0.0001112238849
8.708580195e-05
0.0001383235136
0.0003436477351
0.0002252955751
0.0002861941228
0.0003595119105
0.0001984063139
0.0002572122755
0.0002111924464
0.0002221302566
0.0002039810865
0.0001822298232
0.0001158281729
0.0002741921126
0.0003518060719
0.0003197384843
0.0004249740303
0.0001742047195
9.549001137e-05
9.092735379e-05
0.0001572961693
4.869130372e-05
0.0001656199795
0.000137698426
0.0001449852886
0.000185089107
0.0001513303439
0.0001495562409
0.0001509164726
0.0001995822922
8.778941574e-05
0.000144199753
7.163774727e-05
6.229879835e-05
0.0001560028402
0.0001791423653
0.0003360310181
0.0004721731231
0.0002859985594
0.0001630831331
0.0001488003293
0.0002472289444
0.0002031015112
0.0001155453225
0.0004181235983
0.000355165505
5.55708967e-05
0.0001863968896
0.0002321075018
0.0001216489656
8.224555847e-05
6.262862903e-05
3.796964464e-05
3.309812658e-05
0.0001485465426
0.0001333700719
0.0001144726031
0.0001371279746
0.0001627857383
0.0003139173276
0.0002798041402
0.000161882879
0.0003289467912
0.0001271706503
0.0001636334718
0.0001688777628
0.0002262644886
0.0001203128393
0.0002014578223
0.0001910862587
8.872477995e-05
0.0001654233842
0.0002407292672
0.000162785918
9.796521487e-05
0.0001827774961
0.0002167095195
0.0001932329102
0.0002508810443
4.662928414e-05
0.0001164353608
0.000156349807
0.0001930773733
0.0003972191377
0.0002403932584
0.0001159573957
0.0001744316052
0.0002117298271
0.0002674056284
)
;
    }
    top
    {
        type            calculated;
        value           nonuniform List<scalar> 
200
(
0.0002184278112
0.0001370473964
0.0001487311385
0.0002172023905
0.000158643173
0.0002028217682
0.0001509545739
0.0002340476878
0.0002586736681
0.0002188666647
0.0001955896311
8.271356941e-05
0.0001708715397
5.682388626e-05
0.0001214368246
0.0002056568023
0.0002387592898
0.0002988460427
0.0003081463622
0.0001869325115
0.0001027912646
0.0001962421192
0.0002655646596
0.0001757439288
9.790613845e-05
0.0002699563605
8.619431357e-05
0.0002187438813
0.0002848896013
7.967982593e-05
0.0001603782167
0.000173023045
0.000188493836
0.0001941959299
0.0001054003537
0.0002702145036
6.492361001e-05
0.000175817001
0.0002082757054
7.400112182e-05
0.0001629232531
0.0002481872918
0.0001777588572
0.0002005856335
0.000219305124
0.0001516316347
0.0001429478742
0.0001777097513
0.000120217563
0.0001184027942
5.483754021e-05
0.0001801369656
0.0001813125308
0.0001981631633
0.0001343910359
0.0002357699576
0.0001080451924
0.0002884475833
0.0002200496902
0.0002237806679
0.0002552415015
0.0003674696996
0.0001051980667
0.000139228184
0.0001002438751
0.0001286597232
0.0001395609432
0.0003707173097
0.000181076967
0.0002059041863
0.0001817982298
0.0001782898689
0.0001719800228
0.0002410994678
0.0001380155184
0.0001227772277
4.602864445e-05
0.0001406279081
0.0001756260777
0.000241960431
0.0001149804365
0.0002915398363
0.0001164346739
0.000136886721
0.0001692563286
0.000300575698
0.0002569228517
0.0001613101129
0.0002099815815
0.000157041119
0.0003294851599
0.0004283059811
0.0002869760066
6.743489813e-05
6.497700618e-05
0.0001900650701
0.0002930394333
0.0001197707439
0.0001977101461
0.0002585789643
0.0001922267026
0.0002473334439
0.0003268633594
0.0002398645529
0.0001330617292
2.409610314e-05
0.0001388387155
0.0002135543477
0.0002098721764
0.0001050134066
0.0001975079433
0.0003770094872
0.0002502689561
0.0001427743807
9.775569049e-05
0.0001273513438
0.0001443062436
0.0002051621722
8.893546349e-05
0.0001053372954
0.0002485093192
0.0003274496452
0.0001759312786
0.0001167756522
0.0002073636009
0.0001462523233
9.38115669e-05
5.946623929e-05
0.00011337167
0.0001772711254
7.840558723e-05
0.0002635798018
0.0001603864461
0.0001984369122
0.0002022072661
0.0002769568576
0.0003249500992
0.0002807986485
0.0001510324831
0.0001547757826
0.0002227220934
0.0001596336556
0.0001612675591
0.0002555995228
0.0001046569385
0.0002744321775
0.0004467185456
0.0004169430164
0.0002980826599
0.0002356482147
0.0002570064961
0.000218842367
0.000144575399
0.0002490525953
0.0001882729902
0.000185407726
0.0002901320201
0.0001554971129
0.0002444726352
0.000213913515
0.000216665274
0.000104041357
0.0001669863534
0.0002783333596
0.0002141336685
0.0001150484136
9.195141482e-05
0.0001629280321
0.0001313970677
0.0002911923439
6.307172972e-05
0.0001055520536
0.0001907989722
0.0001780029353
0.0001081992513
0.0001488691526
1.528584749e-05
8.424294578e-05
0.0001145870232
4.686004351e-05
0.0001196597478
8.948880625e-05
8.004461976e-05
0.0001710050255
0.0002098609162
6.627685064e-05
0.0002123675779
0.0001963724152
0.0002733688128
5.734664576e-05
7.601210445e-05
0.0001352986754
0.0001795784231
0.0002585676278
0.0001286453404
0.0002180109878
0.0002976576045
0.0003727685307
7.910425732e-05
9.689705e-05
)
;
    }
    inlet
    {
        type            calculated;
        value           nonuniform List<scalar> 5(0.0001330094642 9.893325357e-05 0.0001651542114 9.344892934e-05 0.0002184278112);
    }
    outlet
    {
        type            calculated;
        value           nonuniform List<scalar> 5(0.0002674056284 0.000269341444 0.0002156335202 0.0001825326598 9.689705e-05);
    }
    back
    {
        type            symmetry;
    }
    front
    {
        type            symmetry;
    }
}


// ************************************************************************* //
