/*--------------------------------*- C++ -*----------------------------------*\
| =========                 |                                                 |
| \\      /  F ield         | OpenFOAM: The Open Source CFD Toolbox           |
|  \\    /   O peration     | Version:  v1612+                                |
|   \\  /    A nd           | Web:      www.OpenFOAM.com                      |
|    \\/     M anipulation  |                                                 |
\*---------------------------------------------------------------------------*/
FoamFile
{
    version     2.0;
    format      ascii;
    class       volScalarField;
    location    "4.78";
    object      mctTimeStepRatio_mix;
}
// * * * * * * * * * * * * * * * * * * * * * * * * * * * * * * * * * * * * * //

dimensions      [0 0 0 0 0 0 0];

internalField   nonuniform List<scalar> 
1000
(
2.429381747
2.429784923
2.429501502
2.429642427
2.429693297
2.429550803
2.429553061
2.42834813
2.429625045
2.429339765
2.428755257
2.428057602
2.428379118
2.429807962
2.428893957
2.428666399
2.429585455
2.429986649
2.429643695
2.429798587
2.429094975
2.429253261
2.429619248
2.429235499
2.428968653
2.428673842
2.429537586
2.429433778
2.429049258
2.429840244
2.429639395
2.428383713
2.428487156
2.428806861
2.429129631
2.428055494
2.429053439
2.429109311
2.42927054
2.429614635
2.429937212
2.429902462
2.429048214
2.429565769
2.430213121
2.429458576
2.430480575
2.429963483
2.429529753
2.429872257
2.430390343
2.42995784
2.429218415
2.429828669
2.427981653
2.428047322
2.428792066
2.429248889
2.428942753
2.428853859
2.428446203
2.428956559
2.428754709
2.42801414
2.429621615
2.429334062
2.428995854
2.42961312
2.429601828
2.429883601
2.430036341
2.429370079
2.429488393
2.429953485
2.429975262
2.429914217
2.428501895
2.429442583
2.428721755
2.428805959
2.42940448
2.429065501
2.429891332
2.429642724
2.429976382
2.429932576
2.429753198
2.429924574
2.430388085
2.430566376
2.429824478
2.429499155
2.430614838
2.43009846
2.430550525
2.430194719
2.429868559
2.429597658
2.430457927
2.431134607
2.431391464
2.431133557
2.430738679
2.429139358
2.430829826
2.431186015
2.429784989
2.430646098
2.430321293
2.430031711
2.429315568
2.430257319
2.428782259
2.430036603
2.430472576
2.430198543
2.430155432
2.429214184
2.429918547
2.429581667
2.429829076
2.431178654
2.430146561
2.430836141
2.430582279
2.430104817
2.43093738
2.430977605
2.429481367
2.430599863
2.431195205
2.430156924
2.431022533
2.429904123
2.429860246
2.429249318
2.430332388
2.430529868
2.429626505
2.429257933
2.430496861
2.429806341
2.429646166
2.429768291
2.430172599
2.430660842
2.430132944
2.430010973
2.430758345
2.429845427
2.429964635
2.429689688
2.429533332
2.429651969
2.430250356
2.430410509
2.42926486
2.429991052
2.430248431
2.42991187
2.430027228
2.42988487
2.430077288
2.430663575
2.430384129
2.430214608
2.429417634
2.429117964
2.429067056
2.429820909
2.428632107
2.429216719
2.429471004
2.43013182
2.430492821
2.429963769
2.430125122
2.429663569
2.429600524
2.430523788
2.430587017
2.430235918
2.430771346
2.429903261
2.430392327
2.430695888
2.429970251
2.429715079
2.430490408
2.430066297
2.430575981
2.430723409
2.431013909
2.430570136
2.429314642
2.42908628
2.42907086
2.429043383
2.42942268
2.429561688
2.429674548
2.42905313
2.428460432
2.429071034
2.429060493
2.430013957
2.430104072
2.429370253
2.428950638
2.429037931
2.428663039
2.428409832
2.429115094
2.429028396
2.428961529
2.429091827
2.429177594
2.429651249
2.429555133
2.429823114
2.429022432
2.428790917
2.428423055
2.428971561
2.429458926
2.429383665
2.429069654
2.428514957
2.429103454
2.42994768
2.429545765
2.429866405
2.428947511
2.429842964
2.429637522
2.429337256
2.428739717
2.429528507
2.429765573
2.429991784
2.429967428
2.430124643
2.429044714
2.429304947
2.42986471
2.429360449
2.429250178
2.42949608
2.429286029
2.42933843
2.429000009
2.429089866
2.429059768
2.429091229
2.427970676
2.428648351
2.42864252
2.429489653
2.42951264
2.428700637
2.428918103
2.428923522
2.427906792
2.428710736
2.428540083
2.429220441
2.429197111
2.430022825
2.42908392
2.429517444
2.429503945
2.429840592
2.429647369
2.429552382
2.429389898
2.429519857
2.429548335
2.430532483
2.429373619
2.428867094
2.430285352
2.429139086
2.429161399
2.429052307
2.430048606
2.429764573
2.429963835
2.430038922
2.429457133
2.429341554
2.429767909
2.430395713
2.430162007
2.430152217
2.430037099
2.43043832
2.430672262
2.429836077
2.429938829
2.430768832
2.43033127
2.43057602
2.430322535
2.430009638
2.429960355
2.430722598
2.430569466
2.430015532
2.429704907
2.42890937
2.430559499
2.42932161
2.429969461
2.430513441
2.429615554
2.430253349
2.430557083
2.429658825
2.430668873
2.43081119
2.429520881
2.429628537
2.429891051
2.43048824
2.430567066
2.429877585
2.429832529
2.430199895
2.430031024
2.430820616
2.431118319
2.430462307
2.430201215
2.430528669
2.429944083
2.429267178
2.430328873
2.429987217
2.429574325
2.429514165
2.429583317
2.429427396
2.43058333
2.430021341
2.430270232
2.430450224
2.430039868
2.430725148
2.430566493
2.429549587
2.429263798
2.429373591
2.429952771
2.430359964
2.431096042
2.429551877
2.429944028
2.429939737
2.42973674
2.430036166
2.429268644
2.429941691
2.430289607
2.429748038
2.429455531
2.429809767
2.429545879
2.429076462
2.429681026
2.42829462
2.428049524
2.428159699
2.429630744
2.429220072
2.42993962
2.429964968
2.430374544
2.430411921
2.429949533
2.429663507
2.429440188
2.430375831
2.430589282
2.430130167
2.430023631
2.430111295
2.429970871
2.429504084
2.429438986
2.429897464
2.429638766
2.429797862
2.4294564
2.428597485
2.429492087
2.429146365
2.430044036
2.429284337
2.428632527
2.429512689
2.429821939
2.430245357
2.429126743
2.429608429
2.429588539
2.429252252
2.429726284
2.429846203
2.429939606
2.428354607
2.428692033
2.428074951
2.429820888
2.429394309
2.429378347
2.429975452
2.428608373
2.428517749
2.428586268
2.42962277
2.42918218
2.42950245
2.430178044
2.429443156
2.428960838
2.429140336
2.429344394
2.428702588
2.429183755
2.429227457
2.429715226
2.429998532
2.429155746
2.429283523
2.429356494
2.428101106
2.428997327
2.429627233
2.429784257
2.430547872
2.429637819
2.429184245
2.429079176
2.428499816
2.42918177
2.42964782
2.429327544
2.430370003
2.429659754
2.430288585
2.429002072
2.42913552
2.429242099
2.428840385
2.428780668
2.428010344
2.428584017
2.43034883
2.429107484
2.429258211
2.42942623
2.42833057
2.428737885
2.428652934
2.429222141
2.429756266
2.42988518
2.429327821
2.429516235
2.429795817
2.428732578
2.429620869
2.430205751
2.429577067
2.429605675
2.429015703
2.428891391
2.429823016
2.430020273
2.429376969
2.429829334
2.430328703
2.429087343
2.429536984
2.429675982
2.428760874
2.429260013
2.429733158
2.428809793
2.430012263
2.429677665
2.430718934
2.429804734
2.430248512
2.429356021
2.430270473
2.430154956
2.430214246
2.429671719
2.431050058
2.430368701
2.430395305
2.431158525
2.430417698
2.430264925
2.429220369
2.43001923
2.429650422
2.42946699
2.428983213
2.430175214
2.429912469
2.430360976
2.430418027
2.43079968
2.430011568
2.430367931
2.430245391
2.430606631
2.430831259
2.430702607
2.430181817
2.429911514
2.429775826
2.43041136
2.429766177
2.430629536
2.430515215
2.429954646
2.430608214
2.430632504
2.430054985
2.430658478
2.429879499
2.429562894
2.429786437
2.430066791
2.429916205
2.429980923
2.429072076
2.430548508
2.429534937
2.429931242
2.429684202
2.431011011
2.430652009
2.430479337
2.430121934
2.430598953
2.430243107
2.429279522
2.429653354
2.430178767
2.429753964
2.430623445
2.429660681
2.430526422
2.42872477
2.429891026
2.430228635
2.429858234
2.429547169
2.42922197
2.429946198
2.430435978
2.430011882
2.430716712
2.429376497
2.430030719
2.428837331
2.429205794
2.428567872
2.429850153
2.430056794
2.429344149
2.429083533
2.430269009
2.429541687
2.430988527
2.429386475
2.430350382
2.430251066
2.430103301
2.429978592
2.42944153
2.429879128
2.430070977
2.429349465
2.430316106
2.429812987
2.429221663
2.429586401
2.429862543
2.429741564
2.429993921
2.43010249
2.430389545
2.429715016
2.429582908
2.429380854
2.430823475
2.429805037
2.429563592
2.429047921
2.429586794
2.429449656
2.428552994
2.428477657
2.428548321
2.427934576
2.429436706
2.428913266
2.429216165
2.429538495
2.429532142
2.429186947
2.428798606
2.428318581
2.429260351
2.429368251
2.429081428
2.428964276
2.428749084
2.429353033
2.428876673
2.428935263
2.42893735
2.42873308
2.42873803
2.42888912
2.429337722
2.428847181
2.429186945
2.429246209
2.428945724
2.429483173
2.428701387
2.429572187
2.429169934
2.429432039
2.428778118
2.429652774
2.42903163
2.429000386
2.429550038
2.429311449
2.429762482
2.430081283
2.430560431
2.429483648
2.429375142
2.429835186
2.428978017
2.428118426
2.428758528
2.427940387
2.429918123
2.429161058
2.428723327
2.427883993
2.428037693
2.428493119
2.428654244
2.429052868
2.429202296
2.429338111
2.428842801
2.429653372
2.429366491
2.429725253
2.429017909
2.429816959
2.429436458
2.429151696
2.430491324
2.429234449
2.429823203
2.429206142
2.429388088
2.429687823
2.42929334
2.428957225
2.4292609
2.429407835
2.429481539
2.42979434
2.429566295
2.429832823
2.429300541
2.430135708
2.43039561
2.43021766
2.43051429
2.430507863
2.430865951
2.430570706
2.429479118
2.429635765
2.429931108
2.430663294
2.430315824
2.429663216
2.430449013
2.430555639
2.430280018
2.429662394
2.429545823
2.430058348
2.429219547
2.429859262
2.430183324
2.429696593
2.429494451
2.429306436
2.429760299
2.430554765
2.430372733
2.431210299
2.430837403
2.430049574
2.430260954
2.430288179
2.42986225
2.430229989
2.429731649
2.430532119
2.430945887
2.43097365
2.430094517
2.429837378
2.429755244
2.429991767
2.430350758
2.429982155
2.430914705
2.430648397
2.429689995
2.429869081
2.429090007
2.430132407
2.430056514
2.430195683
2.430118791
2.429677822
2.430051421
2.430377557
2.430229124
2.430286229
2.43041889
2.429911132
2.429359196
2.429210004
2.429892688
2.429709595
2.429103855
2.429159854
2.429519405
2.429745168
2.43009551
2.429744109
2.430146903
2.429663281
2.429342041
2.430323227
2.429540769
2.430750811
2.430365493
2.429899988
2.430778147
2.429919983
2.429391904
2.429276006
2.429495015
2.429388076
2.429514586
2.429811167
2.431265863
2.429456927
2.430406167
2.430129438
2.430286366
2.430767609
2.430787627
2.429909995
2.430539571
2.429503029
2.42952759
2.429799491
2.429944262
2.429574225
2.429678789
2.429538595
2.42987134
2.429885453
2.430262243
2.429441482
2.429778154
2.430463912
2.430016997
2.429012913
2.429329001
2.428447393
2.428704369
2.429286119
2.428531587
2.429610143
2.428576166
2.428739227
2.42848027
2.42940871
2.429347755
2.429088177
2.429581823
2.429568717
2.428910062
2.428434702
2.428396729
2.429136426
2.42968786
2.430607928
2.429065074
2.429511207
2.429622264
2.429103993
2.429957663
2.4295709
2.429267097
2.429206205
2.428748433
2.429580318
2.42989201
2.430068902
2.429088692
2.428440173
2.429696537
2.430084075
2.428913193
2.428567819
2.429058197
2.428655816
2.428679068
2.430133292
2.429529943
2.429244234
2.429048993
2.430071423
2.42910767
2.428970517
2.430080372
2.42988577
2.430131546
2.429516262
2.429603045
2.429125467
2.429577147
2.429300405
2.429929372
2.42946829
2.429824565
2.428604034
2.429087757
2.428324098
2.429186325
2.429329406
2.428985102
2.429201081
2.429921024
2.42930067
2.429599426
2.429698192
2.429174774
2.429316014
2.429303781
2.430456582
2.429615897
2.429503757
2.428846852
2.429146134
2.428594674
2.429905291
2.429757559
2.428959116
2.42960144
2.429646021
2.429400407
2.428888579
2.429094105
2.430038059
2.429567407
2.429946163
2.430220053
2.429610311
2.431299428
2.430353167
2.430265366
2.430603466
2.429687935
2.430905395
2.43032397
2.430629258
2.430695211
2.42984544
2.429418297
2.430269561
2.429739015
2.429691298
2.4308822
2.430437588
2.429934295
2.430654665
2.43042148
2.429849546
2.429776408
2.42982626
2.429732156
2.430268445
2.429987833
2.430653011
2.430203262
2.430239684
2.430279505
2.430943946
2.430499337
2.43016663
2.430226629
2.430087532
2.42970302
2.430221529
2.429649201
2.429642558
2.430241415
2.430027341
2.430047736
2.430149494
2.430237957
2.429336035
2.429551773
2.429661665
2.430064598
2.429981212
2.429457209
2.429945657
2.429852002
2.429092287
2.429957139
2.429668267
2.430794799
2.431043169
2.430390138
2.429347027
2.42949587
2.430018872
2.43010761
2.429666195
2.429210937
2.429313198
2.429882845
2.429398967
2.429180442
2.430563147
2.430357631
2.429966944
2.429069045
2.428832943
2.429484024
2.429993925
2.429349591
2.430037307
2.429777575
2.430219255
2.430811459
2.430090575
2.429927667
2.430023657
2.430029505
2.430237933
2.430790338
2.430701657
2.429942602
2.429741138
2.430612324
2.431066799
2.431651012
2.430004984
2.430749326
2.429899412
2.430044923
2.42970545
2.430095808
2.429811135
2.429082658
2.430087133
2.430866836
2.43077917
2.430324557
2.430269167
2.429411463
2.42974876
2.430261752
2.429611177
)
;

boundaryField
{
    bottom
    {
        type            calculated;
        value           nonuniform List<scalar> 
200
(
2.429381747
2.429784923
2.429501502
2.429642427
2.429693297
2.429550803
2.429553061
2.42834813
2.429625045
2.429339765
2.428755257
2.428057602
2.428379118
2.429807962
2.428893957
2.428666399
2.429585455
2.429986649
2.429643695
2.429798587
2.429094975
2.429253261
2.429619248
2.429235499
2.428968653
2.428673842
2.429537586
2.429433778
2.429049258
2.429840244
2.429639395
2.428383713
2.428487156
2.428806861
2.429129631
2.428055494
2.429053439
2.429109311
2.42927054
2.429614635
2.429937212
2.429902462
2.429048214
2.429565769
2.430213121
2.429458576
2.430480575
2.429963483
2.429529753
2.429872257
2.430390343
2.42995784
2.429218415
2.429828669
2.427981653
2.428047322
2.428792066
2.429248889
2.428942753
2.428853859
2.428446203
2.428956559
2.428754709
2.42801414
2.429621615
2.429334062
2.428995854
2.42961312
2.429601828
2.429883601
2.430036341
2.429370079
2.429488393
2.429953485
2.429975262
2.429914217
2.428501895
2.429442583
2.428721755
2.428805959
2.42940448
2.429065501
2.429891332
2.429642724
2.429976382
2.429932576
2.429753198
2.429924574
2.430388085
2.430566376
2.429824478
2.429499155
2.430614838
2.43009846
2.430550525
2.430194719
2.429868559
2.429597658
2.430457927
2.431134607
2.431391464
2.431133557
2.430738679
2.429139358
2.430829826
2.431186015
2.429784989
2.430646098
2.430321293
2.430031711
2.429315568
2.430257319
2.428782259
2.430036603
2.430472576
2.430198543
2.430155432
2.429214184
2.429918547
2.429581667
2.429829076
2.431178654
2.430146561
2.430836141
2.430582279
2.430104817
2.43093738
2.430977605
2.429481367
2.430599863
2.431195205
2.430156924
2.431022533
2.429904123
2.429860246
2.429249318
2.430332388
2.430529868
2.429626505
2.429257933
2.430496861
2.429806341
2.429646166
2.429768291
2.430172599
2.430660842
2.430132944
2.430010973
2.430758345
2.429845427
2.429964635
2.429689688
2.429533332
2.429651969
2.430250356
2.430410509
2.42926486
2.429991052
2.430248431
2.42991187
2.430027228
2.42988487
2.430077288
2.430663575
2.430384129
2.430214608
2.429417634
2.429117964
2.429067056
2.429820909
2.428632107
2.429216719
2.429471004
2.43013182
2.430492821
2.429963769
2.430125122
2.429663569
2.429600524
2.430523788
2.430587017
2.430235918
2.430771346
2.429903261
2.430392327
2.430695888
2.429970251
2.429715079
2.430490408
2.430066297
2.430575981
2.430723409
2.431013909
2.430570136
2.429314642
2.42908628
2.42907086
2.429043383
2.42942268
2.429561688
)
;
    }
    top
    {
        type            calculated;
        value           nonuniform List<scalar> 
200
(
2.429329001
2.428447393
2.428704369
2.429286119
2.428531587
2.429610143
2.428576166
2.428739227
2.42848027
2.42940871
2.429347755
2.429088177
2.429581823
2.429568717
2.428910062
2.428434702
2.428396729
2.429136426
2.42968786
2.430607928
2.429065074
2.429511207
2.429622264
2.429103993
2.429957663
2.4295709
2.429267097
2.429206205
2.428748433
2.429580318
2.42989201
2.430068902
2.429088692
2.428440173
2.429696537
2.430084075
2.428913193
2.428567819
2.429058197
2.428655816
2.428679068
2.430133292
2.429529943
2.429244234
2.429048993
2.430071423
2.42910767
2.428970517
2.430080372
2.42988577
2.430131546
2.429516262
2.429603045
2.429125467
2.429577147
2.429300405
2.429929372
2.42946829
2.429824565
2.428604034
2.429087757
2.428324098
2.429186325
2.429329406
2.428985102
2.429201081
2.429921024
2.42930067
2.429599426
2.429698192
2.429174774
2.429316014
2.429303781
2.430456582
2.429615897
2.429503757
2.428846852
2.429146134
2.428594674
2.429905291
2.429757559
2.428959116
2.42960144
2.429646021
2.429400407
2.428888579
2.429094105
2.430038059
2.429567407
2.429946163
2.430220053
2.429610311
2.431299428
2.430353167
2.430265366
2.430603466
2.429687935
2.430905395
2.43032397
2.430629258
2.430695211
2.42984544
2.429418297
2.430269561
2.429739015
2.429691298
2.4308822
2.430437588
2.429934295
2.430654665
2.43042148
2.429849546
2.429776408
2.42982626
2.429732156
2.430268445
2.429987833
2.430653011
2.430203262
2.430239684
2.430279505
2.430943946
2.430499337
2.43016663
2.430226629
2.430087532
2.42970302
2.430221529
2.429649201
2.429642558
2.430241415
2.430027341
2.430047736
2.430149494
2.430237957
2.429336035
2.429551773
2.429661665
2.430064598
2.429981212
2.429457209
2.429945657
2.429852002
2.429092287
2.429957139
2.429668267
2.430794799
2.431043169
2.430390138
2.429347027
2.42949587
2.430018872
2.43010761
2.429666195
2.429210937
2.429313198
2.429882845
2.429398967
2.429180442
2.430563147
2.430357631
2.429966944
2.429069045
2.428832943
2.429484024
2.429993925
2.429349591
2.430037307
2.429777575
2.430219255
2.430811459
2.430090575
2.429927667
2.430023657
2.430029505
2.430237933
2.430790338
2.430701657
2.429942602
2.429741138
2.430612324
2.431066799
2.431651012
2.430004984
2.430749326
2.429899412
2.430044923
2.42970545
2.430095808
2.429811135
2.429082658
2.430087133
2.430866836
2.43077917
2.430324557
2.430269167
2.429411463
2.42974876
2.430261752
2.429611177
)
;
    }
    inlet
    {
        type            calculated;
        value           nonuniform List<scalar> 5(2.429381747 2.429674548 2.429821939 2.430823475 2.429329001);
    }
    outlet
    {
        type            calculated;
        value           nonuniform List<scalar> 5(2.429561688 2.429512689 2.429380854 2.429012913 2.429611177);
    }
    back
    {
        type            symmetry;
    }
    front
    {
        type            symmetry;
    }
}


// ************************************************************************* //
