/*--------------------------------*- C++ -*----------------------------------*\
| =========                 |                                                 |
| \\      /  F ield         | OpenFOAM: The Open Source CFD Toolbox           |
|  \\    /   O peration     | Version:  v1612+                                |
|   \\  /    A nd           | Web:      www.OpenFOAM.com                      |
|    \\/     M anipulation  |                                                 |
\*---------------------------------------------------------------------------*/
FoamFile
{
    version     2.0;
    format      ascii;
    class       volScalarField;
    location    "4.78";
    object      mctTimeStepRatio_Ar1;
}
// * * * * * * * * * * * * * * * * * * * * * * * * * * * * * * * * * * * * * //

dimensions      [0 0 0 0 0 0 0];

internalField   nonuniform List<scalar> 
1000
(
2.465152252
2.480496006
2.493779585
2.507086761
2.520206474
2.532966929
2.546178802
2.557824595
2.572601134
2.58558796
2.598158801
2.611300756
2.625219265
2.640848353
2.65356261
2.667570462
2.68236518
2.697400072
2.711789769
2.726800889
2.740778632
2.756176639
2.771895627
2.786524872
2.80195316
2.817132843
2.834602784
2.850594069
2.866267151
2.883776386
2.900285203
2.916166462
2.933365582
2.95127459
2.969387109
2.985667524
3.005156712
3.023481388
3.042041702
3.061017981
3.080192303
3.099139987
3.116919653
3.137675291
3.157342608
3.177532144
3.198930834
3.218672752
3.239159777
3.260294911
3.281843804
3.303156524
3.3242977
3.346897309
3.367662367
3.390157056
3.414227153
3.439331108
3.463183124
3.486794492
3.51082599
3.536839755
3.560641176
3.584797016
3.614123001
3.639859929
3.666004265
3.693879726
3.720758775
3.750084723
3.777981424
3.805881476
3.834947307
3.865341063
3.896291727
3.925848098
3.955542428
3.988708038
4.019869281
4.052312243
4.085840053
4.12003136
4.155058198
4.189722424
4.226351595
4.261609425
4.298150582
4.334490561
4.373018606
4.413470045
4.451334051
4.48868275
4.531046135
4.571358031
4.614887319
4.657389732
4.699512584
4.742341484
4.791340825
4.84075732
4.889342976
4.933933827
4.983071814
5.03090384
5.085689194
5.139205796
5.191298405
5.244585319
5.302201169
5.357033316
5.411669348
5.474399364
5.531699725
5.595459524
5.65643857
5.72437186
5.791172055
5.856989723
5.927063859
5.995410316
6.06848632
6.144023833
6.221966854
6.299923608
6.379987883
6.460988885
6.552406002
6.637220405
6.722160031
6.819227535
6.912564132
7.006167976
7.108058121
7.210923895
7.310839552
7.414780393
7.534632494
7.6527904
7.773498866
7.892560699
8.027432913
8.152109317
8.284426065
8.424774475
8.57266758
8.722707905
8.874948887
9.032050234
9.198036994
9.367499104
9.541855529
9.731099914
9.926629703
10.13001099
10.34711835
10.56501821
10.79007555
11.0274532
11.26513543
11.53841126
11.80326788
12.08937386
12.38887746
12.70125153
13.01931397
13.3631263
13.73513211
14.12625157
14.54350615
14.966639
15.42513524
15.91212253
16.43286172
17.00534368
17.62395703
18.23103396
18.91274326
19.67732625
20.47479824
21.34721873
22.27899224
23.32339527
24.48782022
25.75756748
27.1265393
28.69082452
30.50516149
32.43417772
34.6924701
37.23709862
40.25556858
43.76931163
48.0637865
53.06286491
59.50554294
67.86001965
79.02658918
94.86398376
119.5779023
171.6193365
2.465440942
2.479764952
2.492621312
2.506537421
2.519683633
2.533576431
2.54661556
2.559312313
2.571885476
2.585411195
2.598364144
2.611549519
2.626229631
2.639967864
2.653593388
2.667854034
2.682432394
2.697393883
2.711980279
2.726738157
2.741061888
2.755443612
2.770166575
2.786115621
2.802433271
2.81822165
2.833890317
2.849321902
2.866360889
2.884014337
2.900523297
2.91825586
2.934500139
2.952740462
2.969709657
2.987453407
3.004244334
3.023988751
3.042695961
3.06141728
3.079506451
3.099576286
3.116756002
3.137406761
3.157400895
3.177012338
3.198391789
3.218655476
3.238732597
3.259849408
3.280300641
3.302657288
3.324636542
3.346717002
3.367733947
3.391256818
3.413818668
3.440204787
3.463946186
3.486273967
3.510553452
3.535729788
3.560050374
3.586432662
3.612159196
3.638939092
3.666454077
3.6944171
3.720709076
3.749853353
3.778450697
3.807461165
3.837282507
3.866002525
3.895942566
3.925629932
3.956633915
3.990213692
4.02033325
4.05142939
4.086761781
4.119059044
4.153504506
4.18834298
4.226032163
4.260328161
4.29797161
4.334300057
4.372045644
4.41087674
4.451014449
4.490919645
4.530445519
4.570601888
4.614027077
4.657010849
4.703018789
4.744150525
4.790934595
4.840401693
4.887779113
4.933610928
4.98255105
5.033369869
5.086127229
5.138044003
5.18920401
5.24220772
5.300328121
5.355797475
5.414243362
5.469760839
5.531805161
5.596363729
5.657242439
5.723625328
5.792431268
5.859054469
5.928516344
5.996828036
6.06662895
6.145079188
6.219329428
6.297899102
6.37665183
6.462374726
6.549340292
6.633604325
6.723217563
6.816400276
6.916416957
7.008710391
7.110685276
7.211715129
7.313737883
7.420773232
7.532700622
7.651888094
7.773178138
7.8932618
8.02171518
8.145160764
8.285109094
8.426770719
8.573369059
8.721444829
8.873054674
9.039145804
9.203791143
9.368375468
9.545781716
9.729794479
9.931788558
10.12840525
10.34485707
10.55450538
10.78972298
11.02512321
11.27192826
11.53813713
11.80134512
12.09667131
12.3880664
12.69846395
13.02637729
13.37102103
13.74535973
14.12364736
14.53901709
14.9647808
15.41083338
15.91269099
16.42479368
17.00478955
17.60160111
18.24173377
18.92082607
19.6670772
20.48018657
21.34569843
22.2839495
23.34066454
24.49591972
25.73039609
27.11036863
28.68404807
30.46631126
32.37937291
34.668579
37.208826
40.22114921
43.73479443
47.95435755
53.04543808
59.47997412
67.92040018
79.11887911
94.79879807
120.0122549
171.9837097
2.465580697
2.480971542
2.493389333
2.506966809
2.520018203
2.532659443
2.546093437
2.559303138
2.572844573
2.584542696
2.598345389
2.611056026
2.626773882
2.640312694
2.654034942
2.668516253
2.681665298
2.695741246
2.710608497
2.726405057
2.740864448
2.756399209
2.772440013
2.786976931
2.802323854
2.818124611
2.834194013
2.84969449
2.866624166
2.883306179
2.900498369
2.917773996
2.934322901
2.951545132
2.969041957
2.985862425
3.004841043
3.023559839
3.042118501
3.061710907
3.079421555
3.098585129
3.1173637
3.136079586
3.156637449
3.178074636
3.197849041
3.219370356
3.239050637
3.261165359
3.280829408
3.302922234
3.325329696
3.34546223
3.369061287
3.391133608
3.413816266
3.440726371
3.46242553
3.486811197
3.510947029
3.534752316
3.560121094
3.585882879
3.613065579
3.640259119
3.667416987
3.693472341
3.721033611
3.750080232
3.777764927
3.807633758
3.836702276
3.865290594
3.895543809
3.925755955
3.955833263
3.988873255
4.021674647
4.052814285
4.086440196
4.119795687
4.153561603
4.189508974
4.22532017
4.260684316
4.296194007
4.335454072
4.370588
4.412355204
4.451064785
4.491399445
4.529876844
4.571796771
4.61280564
4.659195198
4.701722664
4.747179835
4.791070616
4.841199477
4.886813363
4.933660166
4.984118853
5.033310036
5.083070438
5.133383306
5.187192581
5.240594391
5.298139503
5.356731336
5.415522089
5.47217988
5.532700756
5.597362542
5.664477925
5.728299225
5.790338092
5.85781377
5.927923264
5.997661255
6.072317416
6.146152028
6.220993353
6.298741482
6.380327904
6.459806134
6.549764726
6.639990291
6.723543009
6.814251358
6.911374349
7.00667707
7.109445722
7.208601419
7.313831173
7.421731125
7.534452167
7.650106852
7.774144548
7.894641461
8.022149906
8.149145249
8.288209216
8.428636019
8.573997339
8.726239932
8.881676997
9.039538127
9.202773168
9.379769746
9.55283248
9.738185128
9.929932072
10.13375896
10.34204412
10.55708936
10.80250985
11.02561069
11.27108853
11.54005154
11.80607371
12.08040878
12.38503916
12.69665789
13.03078546
13.3848746
13.75841536
14.12905524
14.53705201
14.96727155
15.42069227
15.90674699
16.44741423
16.99398415
17.59451106
18.22873617
18.92027728
19.65730378
20.47403362
21.34677645
22.29176027
23.35656484
24.50599995
25.76392988
27.12535533
28.6845693
30.40033226
32.32728559
34.65617874
37.21732121
40.24034876
43.7342823
47.94862478
53.11069991
59.55887222
67.83831168
78.82931849
95.07735353
120.0931373
171.9257337
2.466385717
2.480447534
2.493728255
2.506445536
2.52005439
2.53278388
2.544964943
2.558166027
2.571462494
2.58412939
2.598946578
2.612138068
2.626111362
2.640248513
2.654239569
2.667717049
2.681699165
2.695375536
2.711082249
2.726152734
2.740909143
2.755728126
2.770512059
2.787073796
2.802135232
2.818107423
2.833561271
2.849730545
2.866156564
2.882687999
2.900544049
2.916578673
2.934105246
2.951513467
2.96871443
2.986916491
3.004503638
3.023889533
3.041519584
3.060311638
3.078470466
3.098607097
3.117528502
3.136435599
3.15753606
3.176858869
3.198122241
3.218569634
3.240199217
3.259674488
3.281355971
3.303137345
3.324371214
3.345208737
3.369117018
3.390472823
3.416630416
3.438970536
3.462399927
3.48552608
3.509526671
3.53431465
3.560231758
3.587016031
3.613484355
3.639133975
3.665230884
3.693778534
3.721053933
3.750279554
3.776668322
3.807362555
3.835288145
3.864362136
3.896949319
3.926600497
3.957548715
3.987337223
4.019478152
4.05366198
4.086277403
4.118895522
4.153619127
4.188138887
4.224778832
4.262018084
4.298422822
4.334219461
4.370283613
4.411393152
4.451364362
4.489406019
4.531745131
4.573886109
4.617545211
4.655853875
4.699450499
4.744530691
4.791184541
4.838637256
4.886614155
4.930871834
4.982236819
5.031682361
5.08196798
5.133669186
5.185480105
5.240979001
5.297917808
5.354333855
5.413987899
5.46932966
5.531427584
5.592871587
5.659380447
5.727995641
5.792880891
5.858995649
5.927695263
5.995368862
6.066879279
6.142786854
6.216246758
6.296863152
6.377020303
6.462812851
6.550335111
6.639699824
6.726745185
6.815777609
6.908003967
7.010043014
7.106736544
7.207542539
7.319547917
7.427535421
7.5372562
7.656400763
7.775380525
7.894547634
8.023471212
8.152080866
8.289867413
8.42801156
8.567138376
8.719141667
8.877884255
9.039462013
9.19951231
9.373300723
9.558018164
9.734600743
9.933621862
10.13078121
10.33842756
10.56472113
10.79314947
11.02072392
11.27026434
11.53488821
11.80290268
12.08846557
12.3756496
12.71862329
13.03922815
13.394094
13.74876394
14.13482077
14.54686187
14.97796812
15.43621753
15.93226155
16.44947073
16.99246176
17.58864723
18.22157749
18.93774798
19.65911248
20.45745326
21.34021295
22.30742794
23.3521089
24.523973
25.73002709
27.12249614
28.67012864
30.41411051
32.40535875
34.6696265
37.21110877
40.19101399
43.73894525
47.96397484
53.07510875
59.45552841
67.67715349
79.0791305
95.03792643
120.3156887
171.9099747
2.464933727
2.479016475
2.492931053
2.506753381
2.518954726
2.533059216
2.545146553
2.558452261
2.571519425
2.585805349
2.598657059
2.612110024
2.626375661
2.640236572
2.653746521
2.667216116
2.681197296
2.69657806
2.711742099
2.727552589
2.740886099
2.755952015
2.771631232
2.786292974
2.803355654
2.818864674
2.834296185
2.850535944
2.866563535
2.883961656
2.900675076
2.918199583
2.934485497
2.950795486
2.970009709
2.987016585
3.004294271
3.022519675
3.041884105
3.059831375
3.077564693
3.09857876
3.117472116
3.137558583
3.156959451
3.178258163
3.19765198
3.216651281
3.238911155
3.259532232
3.281301542
3.302116743
3.325347853
3.346683347
3.369774786
3.393531316
3.416705347
3.439302973
3.463856263
3.485848695
3.510774305
3.534122391
3.561268694
3.586621548
3.612915147
3.639213141
3.666917025
3.693260459
3.720772964
3.748299889
3.777316109
3.80574888
3.835183311
3.86635196
3.895026172
3.925207994
3.955522552
3.988525438
4.018684209
4.05453969
4.087646528
4.118273187
4.153891455
4.187988876
4.222487074
4.258746045
4.2958654
4.336051387
4.372690864
4.411457885
4.451342223
4.490638978
4.534750443
4.571882548
4.615516432
4.657512429
4.699216836
4.748938082
4.791533056
4.840861631
4.887368282
4.931372673
4.979648374
5.032114865
5.082212433
5.135604799
5.188821587
5.244257487
5.300217293
5.35830455
5.415501433
5.474575299
5.535621978
5.595313598
5.660436119
5.726197478
5.793107015
5.85929603
5.925640137
5.994309772
6.067843303
6.145177719
6.220973733
6.300497097
6.37799608
6.460167309
6.543488027
6.633693099
6.725476779
6.813491962
6.907422079
7.007609414
7.110078849
7.21258744
7.31761687
7.426116239
7.537513324
7.657458048
7.779776693
7.899685714
8.021753379
8.155393726
8.290287333
8.422677753
8.572216763
8.714467127
8.882217191
9.039561435
9.196170022
9.369081276
9.55196012
9.740004624
9.931555142
10.12805365
10.33784665
10.56445644
10.79852074
11.02668303
11.26254209
11.53087576
11.80734592
12.08829557
12.38631624
12.69619642
13.02980897
13.38065322
13.73289674
14.11933677
14.53389833
14.98381568
15.43894158
15.9206244
16.4586385
17.01577817
17.57326909
18.21454394
18.94094359
19.67006783
20.47786604
21.34864565
22.28748315
23.38005052
24.51168172
25.74500518
27.12269058
28.68851474
30.44807946
32.39113438
34.68448114
37.26073674
40.19407017
43.80341447
48.0126818
53.09950499
59.54467816
67.82875843
78.79660142
94.83971289
120.2820844
172.8343342
)
;

boundaryField
{
    bottom
    {
        type            calculated;
        value           nonuniform List<scalar> 
200
(
2.465152252
2.480496006
2.493779585
2.507086761
2.520206474
2.532966929
2.546178802
2.557824595
2.572601134
2.58558796
2.598158801
2.611300756
2.625219265
2.640848353
2.65356261
2.667570462
2.68236518
2.697400072
2.711789769
2.726800889
2.740778632
2.756176639
2.771895627
2.786524872
2.80195316
2.817132843
2.834602784
2.850594069
2.866267151
2.883776386
2.900285203
2.916166462
2.933365582
2.95127459
2.969387109
2.985667524
3.005156712
3.023481388
3.042041702
3.061017981
3.080192303
3.099139987
3.116919653
3.137675291
3.157342608
3.177532144
3.198930834
3.218672752
3.239159777
3.260294911
3.281843804
3.303156524
3.3242977
3.346897309
3.367662367
3.390157056
3.414227153
3.439331108
3.463183124
3.486794492
3.51082599
3.536839755
3.560641176
3.584797016
3.614123001
3.639859929
3.666004265
3.693879726
3.720758775
3.750084723
3.777981424
3.805881476
3.834947307
3.865341063
3.896291727
3.925848098
3.955542428
3.988708038
4.019869281
4.052312243
4.085840053
4.12003136
4.155058198
4.189722424
4.226351595
4.261609425
4.298150582
4.334490561
4.373018606
4.413470045
4.451334051
4.48868275
4.531046135
4.571358031
4.614887319
4.657389732
4.699512584
4.742341484
4.791340825
4.84075732
4.889342976
4.933933827
4.983071814
5.03090384
5.085689194
5.139205796
5.191298405
5.244585319
5.302201169
5.357033316
5.411669348
5.474399364
5.531699725
5.595459524
5.65643857
5.72437186
5.791172055
5.856989723
5.927063859
5.995410316
6.06848632
6.144023833
6.221966854
6.299923608
6.379987883
6.460988885
6.552406002
6.637220405
6.722160031
6.819227535
6.912564132
7.006167976
7.108058121
7.210923895
7.310839552
7.414780393
7.534632494
7.6527904
7.773498866
7.892560699
8.027432913
8.152109317
8.284426065
8.424774475
8.57266758
8.722707905
8.874948887
9.032050234
9.198036994
9.367499104
9.541855529
9.731099914
9.926629703
10.13001099
10.34711835
10.56501821
10.79007555
11.0274532
11.26513543
11.53841126
11.80326788
12.08937386
12.38887746
12.70125153
13.01931397
13.3631263
13.73513211
14.12625157
14.54350615
14.966639
15.42513524
15.91212253
16.43286172
17.00534368
17.62395703
18.23103396
18.91274326
19.67732625
20.47479824
21.34721873
22.27899224
23.32339527
24.48782022
25.75756748
27.1265393
28.69082452
30.50516149
32.43417772
34.6924701
37.23709862
40.25556858
43.76931163
48.0637865
53.06286491
59.50554294
67.86001965
79.02658918
94.86398376
119.5779023
171.6193365
)
;
    }
    top
    {
        type            calculated;
        value           nonuniform List<scalar> 
200
(
2.464933727
2.479016475
2.492931053
2.506753381
2.518954726
2.533059216
2.545146553
2.558452261
2.571519425
2.585805349
2.598657059
2.612110024
2.626375661
2.640236572
2.653746521
2.667216116
2.681197296
2.69657806
2.711742099
2.727552589
2.740886099
2.755952015
2.771631232
2.786292974
2.803355654
2.818864674
2.834296185
2.850535944
2.866563535
2.883961656
2.900675076
2.918199583
2.934485497
2.950795486
2.970009709
2.987016585
3.004294271
3.022519675
3.041884105
3.059831375
3.077564693
3.09857876
3.117472116
3.137558583
3.156959451
3.178258163
3.19765198
3.216651281
3.238911155
3.259532232
3.281301542
3.302116743
3.325347853
3.346683347
3.369774786
3.393531316
3.416705347
3.439302973
3.463856263
3.485848695
3.510774305
3.534122391
3.561268694
3.586621548
3.612915147
3.639213141
3.666917025
3.693260459
3.720772964
3.748299889
3.777316109
3.80574888
3.835183311
3.86635196
3.895026172
3.925207994
3.955522552
3.988525438
4.018684209
4.05453969
4.087646528
4.118273187
4.153891455
4.187988876
4.222487074
4.258746045
4.2958654
4.336051387
4.372690864
4.411457885
4.451342223
4.490638978
4.534750443
4.571882548
4.615516432
4.657512429
4.699216836
4.748938082
4.791533056
4.840861631
4.887368282
4.931372673
4.979648374
5.032114865
5.082212433
5.135604799
5.188821587
5.244257487
5.300217293
5.35830455
5.415501433
5.474575299
5.535621978
5.595313598
5.660436119
5.726197478
5.793107015
5.85929603
5.925640137
5.994309772
6.067843303
6.145177719
6.220973733
6.300497097
6.37799608
6.460167309
6.543488027
6.633693099
6.725476779
6.813491962
6.907422079
7.007609414
7.110078849
7.21258744
7.31761687
7.426116239
7.537513324
7.657458048
7.779776693
7.899685714
8.021753379
8.155393726
8.290287333
8.422677753
8.572216763
8.714467127
8.882217191
9.039561435
9.196170022
9.369081276
9.55196012
9.740004624
9.931555142
10.12805365
10.33784665
10.56445644
10.79852074
11.02668303
11.26254209
11.53087576
11.80734592
12.08829557
12.38631624
12.69619642
13.02980897
13.38065322
13.73289674
14.11933677
14.53389833
14.98381568
15.43894158
15.9206244
16.4586385
17.01577817
17.57326909
18.21454394
18.94094359
19.67006783
20.47786604
21.34864565
22.28748315
23.38005052
24.51168172
25.74500518
27.12269058
28.68851474
30.44807946
32.39113438
34.68448114
37.26073674
40.19407017
43.80341447
48.0126818
53.09950499
59.54467816
67.82875843
78.79660142
94.83971289
120.2820844
172.8343342
)
;
    }
    inlet
    {
        type            calculated;
        value           nonuniform List<scalar> 5(2.465152252 2.465440942 2.465580697 2.466385717 2.464933727);
    }
    outlet
    {
        type            calculated;
        value           nonuniform List<scalar> 5(171.6193365 171.9837097 171.9257337 171.9099747 172.8343342);
    }
    back
    {
        type            symmetry;
    }
    front
    {
        type            symmetry;
    }
}


// ************************************************************************* //
