/*--------------------------------*- C++ -*----------------------------------*\
| =========                 |                                                 |
| \\      /  F ield         | OpenFOAM: The Open Source CFD Toolbox           |
|  \\    /   O peration     | Version:  v1612+                                |
|   \\  /    A nd           | Web:      www.OpenFOAM.com                      |
|    \\/     M anipulation  |                                                 |
\*---------------------------------------------------------------------------*/
FoamFile
{
    version     2.0;
    format      ascii;
    class       volScalarField;
    location    "4.78";
    object      mctTimeStepRatio_Ar2;
}
// * * * * * * * * * * * * * * * * * * * * * * * * * * * * * * * * * * * * * //

dimensions      [0 0 0 0 0 0 0];

internalField   nonuniform List<scalar> 
1000
(
171.7776767
120.3932517
95.01765069
79.0937252
67.93154175
59.69881471
53.17977677
48.07394796
43.79408239
40.2612722
37.29897682
34.63996833
32.41878837
30.43185836
28.71021359
27.13706942
25.79775045
24.52543648
23.36447766
22.31920993
21.36980264
20.48863202
19.68373733
18.95247868
18.25318074
17.61845225
17.00661054
16.44791443
15.92823833
15.44017706
14.97570964
14.52104536
14.11254993
13.72237161
13.35358156
13.00306981
12.67296161
12.35854131
12.06173134
11.78044113
11.51205886
11.25410147
11.00812088
10.7669759
10.55382484
10.32066233
10.11887291
9.917619929
9.721091449
9.540861996
9.368677749
9.193006264
9.022907166
8.868644244
8.702293475
8.556400194
8.415731326
8.272299018
8.134044708
8.005730325
7.877572199
7.754865317
7.640828023
7.524786233
7.413717983
7.305115215
7.19906972
7.099201926
7.001888364
6.902606448
6.811252785
6.717308552
6.629520567
6.543982917
6.457312323
6.377302255
6.290979717
6.215017978
6.136244688
6.062686007
5.992792287
5.918712284
5.852678286
5.783851891
5.717312111
5.653801698
5.58979121
5.530380533
5.471253288
5.41011042
5.350679987
5.296146642
5.243544554
5.18822198
5.135284924
5.082109745
5.031484415
4.982162759
4.932752058
4.8841779
4.836713548
4.792843969
4.745866687
4.697293118
4.65672308
4.614019024
4.567869229
4.530387517
4.487150569
4.4476431
4.408314291
4.370590091
4.330050846
4.295690073
4.261765832
4.223169936
4.187410329
4.150912
4.118442781
4.085123766
4.052564536
4.023258975
3.987746252
3.958197874
3.92656913
3.895279685
3.86489651
3.836084302
3.804600059
3.776895715
3.750277298
3.720857885
3.694745488
3.66500561
3.639626238
3.613046848
3.587621006
3.561863531
3.53439338
3.509544517
3.486070211
3.461671136
3.438033823
3.414669339
3.391750653
3.369764024
3.346578277
3.324543957
3.303986276
3.280991896
3.260343179
3.238336353
3.216977083
3.196383998
3.176384872
3.156673513
3.135215279
3.116923792
3.098866807
3.078268968
3.060136705
3.04125174
3.023168981
3.006036384
2.988334529
2.970535914
2.951585505
2.933694018
2.916246629
2.900886069
2.882596813
2.867024152
2.85110415
2.835448641
2.819437937
2.803797463
2.788560342
2.772079473
2.756876336
2.742971268
2.728391461
2.713081079
2.698824542
2.683188938
2.669753407
2.655878299
2.64048969
2.626679102
2.61381255
2.599952542
2.587008302
2.573914054
2.560812536
2.54756478
2.533059482
2.51965277
2.506551449
2.493401902
2.480461059
2.465361156
171.8004998
120.3147649
95.11597923
79.03695485
67.81960103
59.64189561
53.25174381
47.94852636
43.78053449
40.22066949
37.23377938
34.66788582
32.39589819
30.42639587
28.71553477
27.16105144
25.74596839
24.49189065
23.34203994
22.3251942
21.34705692
20.49644104
19.6923636
18.95553392
18.26056401
17.61325217
17.00936204
16.44831327
15.9277626
15.43758945
14.96589776
14.5222953
14.10189376
13.72380511
13.36246857
13.00597446
12.68070263
12.36090609
12.06371406
11.78340612
11.52231665
11.2530936
11.01010823
10.76499069
10.54656153
10.32435635
10.10296093
9.910051639
9.721039505
9.536409345
9.360564996
9.18447399
9.018232362
8.860069858
8.701659918
8.556856203
8.416418335
8.270033815
8.136236672
8.006810645
7.883887138
7.759850247
7.635166239
7.524298452
7.411926729
7.307807957
7.199095137
7.100708645
6.997763834
6.900447475
6.80556151
6.715997297
6.623743935
6.539188709
6.454118269
6.375167163
6.295243229
6.218499727
6.139332804
6.065037832
5.996176846
5.921161561
5.851523419
5.783136842
5.718294457
5.655129136
5.59120356
5.531290258
5.468059413
5.40793226
5.350865522
5.297290118
5.242247724
5.1894461
5.134060703
5.083626148
5.030917326
4.981173934
4.931036384
4.883054768
4.834048158
4.79098814
4.744754641
4.698400693
4.65316329
4.613285568
4.572268635
4.529968249
4.486385856
4.444740237
4.410704282
4.37051833
4.333760979
4.296642966
4.25867993
4.223751307
4.187944118
4.151172791
4.119900483
4.087946818
4.052543332
4.018566906
3.988147081
3.95807752
3.927799562
3.894197407
3.863170106
3.835355311
3.805610272
3.77829499
3.748962872
3.72085657
3.692135278
3.666221118
3.639096874
3.611668891
3.588054056
3.560893597
3.534351259
3.50994441
3.485274094
3.462153389
3.439790061
3.414840935
3.391825347
3.369540538
3.346666665
3.32491864
3.302891949
3.280346502
3.258623293
3.23791616
3.217163235
3.197769566
3.178045136
3.156163314
3.136377453
3.117025899
3.097521763
3.078489452
3.059064014
3.040883358
3.023548642
3.004789019
2.986554798
2.96954618
2.951305987
2.93374713
2.917315784
2.89877991
2.882277686
2.865533619
2.851562122
2.834222924
2.819269689
2.803548853
2.788710015
2.773252748
2.757223727
2.741898227
2.726871916
2.713019397
2.698499684
2.68376135
2.669470237
2.655237211
2.640780007
2.626791075
2.612737021
2.599904727
2.586087898
2.573000031
2.559389282
2.545431326
2.533294503
2.519631499
2.507488773
2.493701396
2.479448095
2.465238696
171.8525405
120.3806809
95.01013871
79.18297397
67.98735756
59.69084688
53.29976175
48.14022824
43.82568289
40.24376484
37.24505081
34.6863111
32.43846664
30.43840421
28.72251031
27.20291282
25.75244731
24.51312174
23.35438187
22.33090276
21.37107957
20.49395151
19.69277867
18.94432162
18.23687967
17.60414411
17.01182238
16.4444627
15.9230509
15.42891918
14.97296216
14.53897836
14.11298674
13.73177802
13.3674643
13.00068947
12.67708918
12.37067134
12.07327185
11.79214013
11.51610093
11.24595748
11.00322843
10.76482532
10.54222156
10.31835148
10.10970719
9.917807871
9.724174007
9.539818814
9.356315361
9.183086126
9.015666572
8.865554083
8.703203523
8.549738016
8.415746994
8.276976282
8.140069822
8.010021578
7.887280052
7.758518324
7.643065281
7.526149791
7.414441245
7.30734369
7.201431049
7.098271133
7.000221327
6.901940418
6.801728296
6.713782251
6.629623817
6.541400158
6.456735222
6.371342938
6.292852651
6.217108516
6.1403291
6.065121546
5.994089593
5.92670664
5.850992452
5.783652505
5.717525748
5.649075841
5.590483177
5.527822207
5.467060748
5.409035571
5.3503547
5.298170534
5.241349344
5.188347718
5.132538631
5.080294303
5.030181989
4.979418923
4.929793621
4.883382406
4.835132631
4.7902378
4.746516722
4.699972576
4.656832984
4.611628774
4.571876248
4.529898778
4.487141881
4.444332311
4.408586811
4.370892075
4.334456012
4.295758535
4.258215279
4.220474669
4.188480247
4.15351194
4.120008766
4.087616737
4.053290235
4.019622584
3.987515858
3.955857872
3.925999951
3.894843037
3.865038733
3.834006828
3.805323831
3.778446593
3.749287361
3.720472459
3.693528078
3.665547968
3.638217254
3.612591318
3.58708344
3.561126986
3.535010459
3.508750173
3.487176925
3.461656131
3.437952259
3.413869013
3.393174759
3.369215684
3.346279632
3.323737884
3.303083501
3.280217675
3.257835603
3.237490054
3.217759895
3.196188561
3.177502032
3.156117443
3.13626888
3.114990397
3.097836036
3.078659708
3.059680916
3.041292025
3.022072843
3.005190886
2.987804541
2.969162091
2.952428559
2.933951195
2.917897109
2.899460878
2.883560129
2.866291595
2.851180861
2.835658897
2.818644583
2.802680501
2.788585785
2.772316566
2.758675419
2.741525685
2.727902348
2.712653845
2.697781044
2.683211537
2.668620809
2.654955063
2.641396797
2.626954622
2.613820599
2.599764997
2.585539628
2.572764846
2.559861938
2.546540134
2.533699754
2.520778759
2.508155555
2.493962533
2.480406373
2.465109388
172.9688825
120.5443814
95.18409383
79.10581721
67.96251848
59.73964729
53.22993732
48.00360985
43.77501896
40.2286271
37.29704008
34.66649353
32.43207421
30.46917182
28.72015728
27.18730783
25.77106387
24.52310343
23.38152946
22.32589794
21.36078821
20.49287455
19.6963142
18.93428588
18.24008305
17.59405058
17.01473599
16.44468942
15.91827604
15.4328864
14.957418
14.52740931
14.11906596
13.73124659
13.36168381
13.0203442
12.67502293
12.36372236
12.06755278
11.78665933
11.51009898
11.25578682
11.00016959
10.77041629
10.53914509
10.3251134
10.11453652
9.920619449
9.728254033
9.540194192
9.357583447
9.191399499
9.019063904
8.857727598
8.702571371
8.553068982
8.41465881
8.273354084
8.135919066
8.001889622
7.879817945
7.762306667
7.641745857
7.525019127
7.41251545
7.30810106
7.200716992
7.099932375
6.998906246
6.900693253
6.807535357
6.716120777
6.628116603
6.540972564
6.459135482
6.370636556
6.294766639
6.21681027
6.141411164
6.065157946
5.991175221
5.920426092
5.851888286
5.785548349
5.717455859
5.652335872
5.588343798
5.530357653
5.470034453
5.411104482
5.353406713
5.298555609
5.242151511
5.18683568
5.133411719
5.085588714
5.029885316
4.979904777
4.930742723
4.884430581
4.835114811
4.790019863
4.745519263
4.701913202
4.657818846
4.612992411
4.571534579
4.531031271
4.486458523
4.448924354
4.409629388
4.37200863
4.332482049
4.294931675
4.257912531
4.222279623
4.187165438
4.155732953
4.120778681
4.086470258
4.054493505
4.021353263
3.989338741
3.957802428
3.92547941
3.895717663
3.865637645
3.835243411
3.804633634
3.776115432
3.74819307
3.719376114
3.693550064
3.666054946
3.639831168
3.613119501
3.585626312
3.559664282
3.532871365
3.510985181
3.485918701
3.462469751
3.438044151
3.413960021
3.392378898
3.369749811
3.346341525
3.324053222
3.303169061
3.280398493
3.257372724
3.237096579
3.216865134
3.19640873
3.175246489
3.154590098
3.135380623
3.11705816
3.098230047
3.078248208
3.060350613
3.040964215
3.022819147
3.004539105
2.986011634
2.96981107
2.952357569
2.934467693
2.91858072
2.900603259
2.883283509
2.866449618
2.850633342
2.83479489
2.819026122
2.803818891
2.789517821
2.77217353
2.758226664
2.742584598
2.727586137
2.713358121
2.698405621
2.683499155
2.669973548
2.654633992
2.640650219
2.626964751
2.613308882
2.59951819
2.586265901
2.572696817
2.559825678
2.546781006
2.534181978
2.520285846
2.507241103
2.494777264
2.480760738
2.464742382
172.5380469
120.5690917
95.02687018
79.04797391
67.93214419
59.68287394
53.15974005
48.00626166
43.7354161
40.22738153
37.33506201
34.70708486
32.45758217
30.47580923
28.69112061
27.14509202
25.7718522
24.50664128
23.37194124
22.33699763
21.36077773
20.5193591
19.69716667
18.95519274
18.24937554
17.59792314
17.00444105
16.43940204
15.90612696
15.42436651
14.97493489
14.53089762
14.10698149
13.72104462
13.35814434
13.03568287
12.68449398
12.36062607
12.0590262
11.77548122
11.52054505
11.26646813
11.01113785
10.76199239
10.53614121
10.32407401
10.10787187
9.920291692
9.732166341
9.547592354
9.369225926
9.19474443
9.020477122
8.860780201
8.708664692
8.550467427
8.414341437
8.27500792
8.140212485
8.008020177
7.884593033
7.761502321
7.642248792
7.52941392
7.412903389
7.306559314
7.203699764
7.098848342
7.001835561
6.907181369
6.806653537
6.717306109
6.627440479
6.544733148
6.458243634
6.376166777
6.293355708
6.213527082
6.138200104
6.064546116
5.991052667
5.921705271
5.853305841
5.787178888
5.721214722
5.653187637
5.59017302
5.528433002
5.467612094
5.410070506
5.352593054
5.293955453
5.241781038
5.188712071
5.133241128
5.083754123
5.03105043
4.980391487
4.931988846
4.882031096
4.835885957
4.790253825
4.743933966
4.700463248
4.65563392
4.611540025
4.573667343
4.529902459
4.48724796
4.448849188
4.409410934
4.369158773
4.33081372
4.295119299
4.257232499
4.222391351
4.185904716
4.153956617
4.11995119
4.087497184
4.054106363
4.02212291
3.989104458
3.956195875
3.92639784
3.895529365
3.86487731
3.83537722
3.803949184
3.776340882
3.749519007
3.720143127
3.69194646
3.665133293
3.638793985
3.610554158
3.58526762
3.55898766
3.534024178
3.50965021
3.485005211
3.461364942
3.437440326
3.413681636
3.391399249
3.369082097
3.346798996
3.325459207
3.303549446
3.279892781
3.258324484
3.237934371
3.217465643
3.196601916
3.175481984
3.154869848
3.135529723
3.116008538
3.097325968
3.079854545
3.060387534
3.041449882
3.021765611
3.00352258
2.986423066
2.969348232
2.951590169
2.93533462
2.917656699
2.900812614
2.88518662
2.867965659
2.85095325
2.835010214
2.82011634
2.804555657
2.788820903
2.773570317
2.757260317
2.741945228
2.728295132
2.71335122
2.699616177
2.683448884
2.670223437
2.654948942
2.641011204
2.626954167
2.613405689
2.599549205
2.585568932
2.573084229
2.560791451
2.547707416
2.534086692
2.52096463
2.507139303
2.494154517
2.481024881
2.465163506
)
;

boundaryField
{
    bottom
    {
        type            calculated;
        value           nonuniform List<scalar> 
200
(
171.7776767
120.3932517
95.01765069
79.0937252
67.93154175
59.69881471
53.17977677
48.07394796
43.79408239
40.2612722
37.29897682
34.63996833
32.41878837
30.43185836
28.71021359
27.13706942
25.79775045
24.52543648
23.36447766
22.31920993
21.36980264
20.48863202
19.68373733
18.95247868
18.25318074
17.61845225
17.00661054
16.44791443
15.92823833
15.44017706
14.97570964
14.52104536
14.11254993
13.72237161
13.35358156
13.00306981
12.67296161
12.35854131
12.06173134
11.78044113
11.51205886
11.25410147
11.00812088
10.7669759
10.55382484
10.32066233
10.11887291
9.917619929
9.721091449
9.540861996
9.368677749
9.193006264
9.022907166
8.868644244
8.702293475
8.556400194
8.415731326
8.272299018
8.134044708
8.005730325
7.877572199
7.754865317
7.640828023
7.524786233
7.413717983
7.305115215
7.19906972
7.099201926
7.001888364
6.902606448
6.811252785
6.717308552
6.629520567
6.543982917
6.457312323
6.377302255
6.290979717
6.215017978
6.136244688
6.062686007
5.992792287
5.918712284
5.852678286
5.783851891
5.717312111
5.653801698
5.58979121
5.530380533
5.471253288
5.41011042
5.350679987
5.296146642
5.243544554
5.18822198
5.135284924
5.082109745
5.031484415
4.982162759
4.932752058
4.8841779
4.836713548
4.792843969
4.745866687
4.697293118
4.65672308
4.614019024
4.567869229
4.530387517
4.487150569
4.4476431
4.408314291
4.370590091
4.330050846
4.295690073
4.261765832
4.223169936
4.187410329
4.150912
4.118442781
4.085123766
4.052564536
4.023258975
3.987746252
3.958197874
3.92656913
3.895279685
3.86489651
3.836084302
3.804600059
3.776895715
3.750277298
3.720857885
3.694745488
3.66500561
3.639626238
3.613046848
3.587621006
3.561863531
3.53439338
3.509544517
3.486070211
3.461671136
3.438033823
3.414669339
3.391750653
3.369764024
3.346578277
3.324543957
3.303986276
3.280991896
3.260343179
3.238336353
3.216977083
3.196383998
3.176384872
3.156673513
3.135215279
3.116923792
3.098866807
3.078268968
3.060136705
3.04125174
3.023168981
3.006036384
2.988334529
2.970535914
2.951585505
2.933694018
2.916246629
2.900886069
2.882596813
2.867024152
2.85110415
2.835448641
2.819437937
2.803797463
2.788560342
2.772079473
2.756876336
2.742971268
2.728391461
2.713081079
2.698824542
2.683188938
2.669753407
2.655878299
2.64048969
2.626679102
2.61381255
2.599952542
2.587008302
2.573914054
2.560812536
2.54756478
2.533059482
2.51965277
2.506551449
2.493401902
2.480461059
2.465361156
)
;
    }
    top
    {
        type            calculated;
        value           nonuniform List<scalar> 
200
(
172.5380469
120.5690917
95.02687018
79.04797391
67.93214419
59.68287394
53.15974005
48.00626166
43.7354161
40.22738153
37.33506201
34.70708486
32.45758217
30.47580923
28.69112061
27.14509202
25.7718522
24.50664128
23.37194124
22.33699763
21.36077773
20.5193591
19.69716667
18.95519274
18.24937554
17.59792314
17.00444105
16.43940204
15.90612696
15.42436651
14.97493489
14.53089762
14.10698149
13.72104462
13.35814434
13.03568287
12.68449398
12.36062607
12.0590262
11.77548122
11.52054505
11.26646813
11.01113785
10.76199239
10.53614121
10.32407401
10.10787187
9.920291692
9.732166341
9.547592354
9.369225926
9.19474443
9.020477122
8.860780201
8.708664692
8.550467427
8.414341437
8.27500792
8.140212485
8.008020177
7.884593033
7.761502321
7.642248792
7.52941392
7.412903389
7.306559314
7.203699764
7.098848342
7.001835561
6.907181369
6.806653537
6.717306109
6.627440479
6.544733148
6.458243634
6.376166777
6.293355708
6.213527082
6.138200104
6.064546116
5.991052667
5.921705271
5.853305841
5.787178888
5.721214722
5.653187637
5.59017302
5.528433002
5.467612094
5.410070506
5.352593054
5.293955453
5.241781038
5.188712071
5.133241128
5.083754123
5.03105043
4.980391487
4.931988846
4.882031096
4.835885957
4.790253825
4.743933966
4.700463248
4.65563392
4.611540025
4.573667343
4.529902459
4.48724796
4.448849188
4.409410934
4.369158773
4.33081372
4.295119299
4.257232499
4.222391351
4.185904716
4.153956617
4.11995119
4.087497184
4.054106363
4.02212291
3.989104458
3.956195875
3.92639784
3.895529365
3.86487731
3.83537722
3.803949184
3.776340882
3.749519007
3.720143127
3.69194646
3.665133293
3.638793985
3.610554158
3.58526762
3.55898766
3.534024178
3.50965021
3.485005211
3.461364942
3.437440326
3.413681636
3.391399249
3.369082097
3.346798996
3.325459207
3.303549446
3.279892781
3.258324484
3.237934371
3.217465643
3.196601916
3.175481984
3.154869848
3.135529723
3.116008538
3.097325968
3.079854545
3.060387534
3.041449882
3.021765611
3.00352258
2.986423066
2.969348232
2.951590169
2.93533462
2.917656699
2.900812614
2.88518662
2.867965659
2.85095325
2.835010214
2.82011634
2.804555657
2.788820903
2.773570317
2.757260317
2.741945228
2.728295132
2.71335122
2.699616177
2.683448884
2.670223437
2.654948942
2.641011204
2.626954167
2.613405689
2.599549205
2.585568932
2.573084229
2.560791451
2.547707416
2.534086692
2.52096463
2.507139303
2.494154517
2.481024881
2.465163506
)
;
    }
    inlet
    {
        type            calculated;
        value           nonuniform List<scalar> 5(171.7776767 171.8004998 171.8525405 172.9688825 172.5380469);
    }
    outlet
    {
        type            calculated;
        value           nonuniform List<scalar> 5(2.465361156 2.465238696 2.465109388 2.464742382 2.465163506);
    }
    back
    {
        type            symmetry;
    }
    front
    {
        type            symmetry;
    }
}


// ************************************************************************* //
