/*--------------------------------*- C++ -*----------------------------------*\
| =========                 |                                                 |
| \\      /  F ield         | OpenFOAM: The Open Source CFD Toolbox           |
|  \\    /   O peration     | Version:  v1612+                                |
|   \\  /    A nd           | Web:      www.OpenFOAM.com                      |
|    \\/     M anipulation  |                                                 |
\*---------------------------------------------------------------------------*/
FoamFile
{
    version     2.0;
    format      ascii;
    class       volScalarField;
    location    "4.78";
    object      meanCollisionSeparation_Ar1;
}
// * * * * * * * * * * * * * * * * * * * * * * * * * * * * * * * * * * * * * //

dimensions      [0 1 0 0 0 0 0];

internalField   nonuniform List<scalar> 
1000
(
0.001303417991
0.001303447272
0.00130391191
0.001303418581
0.00130357056
0.001303510136
0.001303730349
0.001303283701
0.001303542461
0.00130311826
0.001303568352
0.001303246233
0.001303036159
0.001303875857
0.001303393515
0.001303329799
0.00130342822
0.001303760106
0.001303667845
0.001303889894
0.001303460727
0.001303697875
0.001303271132
0.00130335548
0.001303693269
0.001303761342
0.001303245825
0.001303641739
0.001303410862
0.001303614905
0.001303401521
0.001303911084
0.001303357285
0.001303536858
0.001303214855
0.001303504479
0.001303421939
0.001303413955
0.001303540145
0.001303561841
0.001303311785
0.00130316792
0.001303489275
0.001303197958
0.001303262988
0.001303552049
0.001303612483
0.001303426111
0.0013034085
0.001303560819
0.001303604098
0.001303417802
0.001303320231
0.001303610986
0.001303481147
0.001303191768
0.001303562252
0.001303679138
0.001303420418
0.001303562969
0.001303577361
0.001303710088
0.001303571435
0.001303238237
0.001303393911
0.001303357121
0.001303770068
0.001303430407
0.001303680198
0.001303385142
0.001303556227
0.001303605426
0.00130333954
0.001303693014
0.001303587544
0.001303177387
0.001303599714
0.001303364644
0.001303428939
0.001303428972
0.001303736306
0.001303283341
0.001303262079
0.001303392984
0.00130309217
0.001303302642
0.00130336877
0.001303256643
0.001303184693
0.001303521208
0.001303782455
0.001303224034
0.001303387639
0.001303252757
0.001303481995
0.001303362988
0.001303521439
0.001303163214
0.001303375669
0.001303689954
0.00130351888
0.0013031304
0.00130319943
0.001303710448
0.001303529488
0.001303610944
0.001303660159
0.001303148342
0.001303707155
0.00130328742
0.001303314783
0.001303529066
0.001303714916
0.001303782044
0.00130346964
0.001303885733
0.001303337038
0.001303482535
0.00130332533
0.001303689626
0.001303263723
0.001303671308
0.0013034776
0.00130343039
0.001303393007
0.001303177629
0.001303311506
0.001303706825
0.001303412733
0.001303322117
0.001303751354
0.001303460702
0.00130331777
0.001303237922
0.00130328937
0.001303670318
0.001303679229
0.001303305488
0.001303576956
0.001303195825
0.0013036243
0.001303407946
0.00130349585
0.001303461616
0.00130321119
0.00130383134
0.001303745548
0.001304178759
0.001303416658
0.00130346972
0.001303699243
0.001303548166
0.00130355067
0.001303571298
0.001303685082
0.001303557532
0.001303571789
0.001303725697
0.001303840756
0.001303235896
0.001303647304
0.001303851526
0.001303748635
0.001303474652
0.001303601202
0.001303618738
0.001303198559
0.001303436728
0.001303290809
0.001303639104
0.001303392862
0.001304040025
0.001303252164
0.00130314682
0.00130340026
0.001303470458
0.001303521857
0.00130350096
0.00130373802
0.001303014205
0.001303245418
0.001303433286
0.001303422319
0.001303437159
0.001303548497
0.001303317328
0.001303370285
0.001303332587
0.001303709243
0.001303487688
0.001303527761
0.001303701962
0.001303532072
0.001303017934
0.001303062449
0.001303557921
0.001303301798
0.001303409281
0.001303642573
0.001303659793
0.001303424977
0.00130359708
0.001303022618
0.001303850152
0.00130301151
0.001303762528
0.001303530069
0.001303410378
0.001303966786
0.001303809233
0.001303341692
0.001303503018
0.001303447966
0.001303250899
0.001303486594
0.001303491853
0.001303436957
0.001303461658
0.001303509697
0.00130340729
0.001303789043
0.001303205674
0.001303726505
0.00130323509
0.001303351829
0.00130337141
0.001303634702
0.001303353667
0.001303765202
0.001303572237
0.001303401142
0.001303754463
0.001303397808
0.001303571449
0.001303605012
0.001303622744
0.001303743534
0.001303588666
0.001303876402
0.001303606198
0.001303609403
0.001303695425
0.001303661821
0.001303551291
0.001303576751
0.001303427085
0.001303240362
0.001303617854
0.001303732465
0.001303495805
0.001303631384
0.00130321069
0.001303589528
0.001303136677
0.001303276071
0.001303977244
0.001303608848
0.00130328363
0.001303707973
0.001303510465
0.001303640924
0.001303430652
0.001303541396
0.001303034601
0.001303212322
0.001303495877
0.001303489683
0.001303634358
0.001303227362
0.001303440465
0.001303321551
0.001303272917
0.001303895997
0.001303256615
0.001303387414
0.001303450083
0.001303301665
0.00130338012
0.001303210499
0.001303491783
0.001303068189
0.001303307643
0.001303500982
0.001303568676
0.001303569605
0.00130389444
0.001303282166
0.001303558529
0.001303576681
0.001303753672
0.001303349756
0.00130351575
0.001303578267
0.001303298936
0.001303687956
0.001303595876
0.0013035169
0.001303346351
0.001303492545
0.001303803865
0.001303642477
0.001303378722
0.001303410379
0.001303696787
0.001303479684
0.00130353189
0.001303456339
0.001303676304
0.001303277734
0.001303766879
0.001303157778
0.001303386913
0.001303136063
0.001303367642
0.00130354633
0.001303372451
0.001303580678
0.001303575088
0.001303386755
0.001303268087
0.001303309507
0.001303622451
0.001303739221
0.001303422872
0.001303878109
0.001303660352
0.001303678612
0.001303455155
0.001303559911
0.001303558027
0.001303226706
0.001303360846
0.001303620008
0.001303851323
0.001303534773
0.001303435009
0.001303454391
0.001303211995
0.001303802552
0.001303363112
0.00130394819
0.001303514389
0.001303492003
0.001303457104
0.001303685921
0.001303427716
0.001303503255
0.001303962998
0.001303489545
0.001303313236
0.001303316421
0.001303664303
0.001303724833
0.00130343485
0.001303654915
0.001303620343
0.001303396868
0.001303748662
0.001303388528
0.001303662482
0.001303993135
0.001303861012
0.001303033849
0.001303157123
0.001303678581
0.001303503467
0.001303052616
0.00130335276
0.001303712817
0.001303315684
0.001303970371
0.001303467883
0.00130351053
0.001303273338
0.001303417192
0.001303776136
0.001303589253
0.001302996548
0.001303534087
0.001303375224
0.001303159227
0.001303319237
0.001303477586
0.001303078699
0.001303764795
0.001303462162
0.001303201915
0.001303319467
0.001303343831
0.001303364159
0.001303086432
0.001303383182
0.001303267524
0.001303234825
0.001303736408
0.00130350235
0.001303673079
0.00130331393
0.001303808986
0.001303343877
0.001303592795
0.001303274295
0.001303558609
0.001303653807
0.001303505597
0.001303641308
0.001303295743
0.001303329943
0.00130344156
0.001302889101
0.001303313074
0.001303392659
0.001303686361
0.001303420772
0.001303360668
0.001303413137
0.001303791183
0.001303578498
0.001303289672
0.001303853192
0.001303896593
0.001303324031
0.001303380396
0.00130326531
0.001303432265
0.001303424449
0.001303022626
0.001303617917
0.00130360576
0.00130350589
0.001303530584
0.001303480638
0.001303521037
0.001303682682
0.001303766007
0.001303306252
0.001303166054
0.001303862619
0.001303661999
0.001303435794
0.001303428295
0.001303801399
0.001303225807
0.001303553934
0.001303392926
0.001303207249
0.001303600659
0.001303225476
0.001304211488
0.001303631326
0.001303365039
0.00130347416
0.001303408922
0.00130344211
0.001303495502
0.001303658301
0.001303585877
0.00130336119
0.001303497246
0.001303641308
0.001303829597
0.001303257107
0.00130323809
0.001303261094
0.001303354548
0.001303392186
0.001303717148
0.001303516899
0.001303462187
0.001303239635
0.00130371397
0.001303345276
0.001303494594
0.001303218216
0.001303233711
0.001303493396
0.001303239566
0.00130372193
0.001303589263
0.001303557623
0.001303267902
0.00130325263
0.001303587269
0.001303526344
0.001303175321
0.001303345045
0.001303361182
0.001303631205
0.001303676862
0.001303506914
0.001303378313
0.001303394388
0.001303711319
0.001303434564
0.001303451292
0.001303213353
0.001303814547
0.001303598097
0.001303813506
0.001303307628
0.001303462774
0.001303310912
0.001303155543
0.001303366229
0.001303680291
0.001303731782
0.001303286344
0.001303682848
0.001303550686
0.001303621838
0.001303424948
0.001303820994
0.00130340861
0.00130352893
0.001303602982
0.001303628709
0.001303521346
0.001303463397
0.001303536888
0.001303269445
0.001303343064
0.001303883604
0.00130323917
0.001303528846
0.001303301051
0.001303424112
0.001303609191
0.001303792003
0.001303616316
0.001303657901
0.00130320708
0.001303576618
0.001303539366
0.001302990961
0.001303442248
0.001303479951
0.001303752
0.001303407368
0.001303116887
0.001303447168
0.001303413053
0.001303456185
0.001303610307
0.001303868373
0.001303435882
0.001303645658
0.0013033788
0.001303728013
0.001302889059
0.001303756025
0.001303588657
0.001303265238
0.001303229317
0.001303548771
0.001303527531
0.001303294067
0.001303795824
0.001303674016
0.001303836988
0.001303671114
0.00130339236
0.001303463265
0.001303377575
0.001303638169
0.001303683288
0.001303686253
0.001303332685
0.001303360895
0.00130383548
0.001303329817
0.001303373092
0.00130336252
0.001303551104
0.001303545495
0.001303499837
0.001303524386
0.001303591422
0.001303460498
0.001303337897
0.001303316605
0.001303342999
0.00130345402
0.00130400311
0.001303579091
0.001303240086
0.001303660798
0.001303292918
0.001303583806
0.001303476572
0.001303350587
0.001303848029
0.001303439608
0.001303783409
0.001303437454
0.001303583388
0.001303537901
0.001303016494
0.00130330006
0.00130386284
0.001303626855
0.001303554314
0.001303450383
0.001303514388
0.001303483588
0.001303365786
0.001303140562
0.001303649318
0.001303620369
0.001303772026
0.001303736043
0.0013035949
0.001303794122
0.001303333299
0.001303439095
0.001303265566
0.00130349676
0.001303425523
0.001303246827
0.001303391395
0.001303757249
0.001303630817
0.001303227326
0.001303713286
0.001303457021
0.001302988367
0.001303476809
0.001303398733
0.001303120233
0.001303473152
0.001303581522
0.001303378027
0.001303090188
0.001303415193
0.001303918108
0.001303141248
0.0013035177
0.001303164394
0.001303682483
0.001303621685
0.001303410002
0.001303422875
0.001303068088
0.001303282769
0.001303119949
0.001303307864
0.00130367657
0.00130345418
0.001303588905
0.001303654688
0.001303370004
0.001303656928
0.001303289933
0.001303462833
0.001303605544
0.001304052966
0.00130354581
0.001303601593
0.001303384799
0.001303376854
0.001303701744
0.00130355569
0.001303856502
0.001303771435
0.001303686842
0.001303645128
0.001303388346
0.001303688792
0.001303343226
0.001303373151
0.001303392053
0.001303033932
0.001303420256
0.001303477234
0.001302905388
0.001303886954
0.00130361087
0.001303426264
0.001303651079
0.001303693453
0.001303350624
0.001304131513
0.001303700543
0.001303419007
0.00130366315
0.001303614848
0.001303552927
0.001303486003
0.001303249957
0.001303544754
0.001303565876
0.001303670012
0.001304142328
0.001303679433
0.001303458758
0.001303673624
0.001303438723
0.001303646049
0.001303834132
0.001303297119
0.001303682923
0.001303379011
0.001303264004
0.001303502861
0.001303102313
0.001303463799
0.001303605338
0.001303387177
0.001303404935
0.001303347338
0.001303732836
0.001303364727
0.001303687347
0.001303592636
0.001303924115
0.00130359259
0.001303604039
0.001303589596
0.001303444094
0.001303662517
0.001303273398
0.001303247922
0.001303353211
0.001303455769
0.001303484726
0.001303418218
0.001303469105
0.00130370312
0.001303634173
0.00130335573
0.001303406302
0.00130349776
0.001303993652
0.001303114475
0.001303223907
0.001303591771
0.001303592458
0.001303486049
0.001303462016
0.001303567187
0.001302998303
0.001303477803
0.001303252666
0.00130338115
0.001303673882
0.001303288641
0.001303227941
0.001303691571
0.001303599842
0.001303325277
0.001303239794
0.001303479236
0.001303471315
0.001303880354
0.001303624863
0.001303538921
0.00130294369
0.001303176977
0.001303469635
0.001303374453
0.001303469285
0.001303605132
0.001303415754
0.001303556454
0.001303340279
0.001303300341
0.001303414633
0.001303463586
0.001303376785
0.001303788626
0.001303496995
0.001303494695
0.001303169759
0.001303585733
0.001303837547
0.001303256886
0.001303453912
0.001303499751
0.001303428738
0.001303241859
0.001303723677
0.001303769953
0.001303294519
0.001303180258
0.001303578108
0.00130382829
0.00130385186
0.001303241836
0.00130365783
0.001303656573
0.001303941691
0.001303532587
0.001303796599
0.001303266997
0.001303551887
0.001303569863
0.001303458247
0.00130395258
0.001303187241
0.001303318482
0.001304048208
0.001303405547
0.001303674765
0.001303793582
0.001303390535
0.001303189108
0.001303984573
0.001303732764
0.001303887385
0.001303766891
0.001303758235
0.001303699358
0.001303720981
0.001303631766
0.001303660464
0.001303537336
0.001303178725
0.001303694626
0.001303742582
0.001303227235
0.00130346592
0.001303378052
0.001302885057
0.001303519739
0.001303707097
0.001303143579
0.001303690539
0.00130346917
0.001303553627
0.001303713356
0.001303699832
0.001303231913
0.001303510391
0.001303713741
0.001303494418
0.00130363081
0.001303540888
0.001303632224
0.001303349774
0.001303364016
0.001303735538
0.00130354941
0.001303683288
0.001303362382
0.001303414101
0.00130335598
0.001303492342
0.001303681176
0.001303272936
0.00130393613
0.001303391067
0.001303200672
0.001303799624
0.001303688742
0.00130362821
0.001303527173
0.00130356667
0.001303473151
0.001303638797
0.001303531862
0.001303502366
0.001303824758
0.001303363349
0.001303813701
0.001303537572
0.001304347979
0.001303495511
0.001303637916
0.00130371748
0.001303741357
0.001303643007
0.001303467774
0.001303707122
0.00130345497
0.001303498287
0.001303359067
0.001303678347
0.001303478148
0.001303662007
0.001303029228
0.001303195718
0.001303615388
0.001303452753
0.001303494157
0.001303703883
0.001303596225
0.001303675623
0.001303867761
0.001303402055
0.001303423468
0.001303589894
0.001303549891
0.001303497215
0.001303597134
0.001303412315
0.001304135018
0.001303615802
0.001303281301
0.001303225748
0.001303776181
0.001303475676
0.001303366581
0.001303097097
0.00130393356
0.001303413662
0.001303566234
0.001303521142
0.001303601236
0.001303503357
0.001303554149
0.001303562045
0.001303508595
0.001303625276
0.001303751559
0.001303593144
0.00130371152
0.001303457561
0.001303266239
0.001303785589
0.00130337013
0.001303596803
0.001303247214
0.001303483552
0.001303457285
0.001303090328
0.00130341711
0.001303543921
0.001303184347
0.001303547482
0.001303658883
0.001303560746
0.001303588639
0.001303776531
0.001304002586
0.001303280327
0.001303537624
0.001303574869
0.001303453408
0.001303536328
0.001303241111
0.001303912617
0.001303392916
0.001303964393
0.001303501167
0.001303374844
0.001303486899
0.001303637119
0.001303107446
0.001303457562
0.001303644452
0.001303582446
0.001303658024
0.001303824852
0.001303796866
0.001303766346
0.001304010591
0.001303784596
0.001303567812
0.001303865643
0.001303600572
0.001303677302
0.001303473074
0.001303844785
0.001303280576
0.001303655389
0.001303537279
0.001303236373
0.001303443237
0.001303775245
0.001303261013
0.001303507476
0.001303635927
0.001304045638
0.001303455532
0.001303195937
0.001303339606
0.00130396772
0.001303240683
0.001303922473
0.001303511597
0.001303051817
0.00130385417
0.001303762328
0.001303834259
0.001303599462
0.001303504947
0.001303474759
0.001303834993
0.001303520252
0.001303684242
0.00130342869
0.001303651312
0.001303447329
0.001303597076
0.001303310535
0.00130331373
0.00130373733
0.001303269593
0.001303285943
0.001303924904
0.001303650842
)
;

boundaryField
{
    bottom
    {
        type            calculated;
        value           uniform 0;
    }
    top
    {
        type            calculated;
        value           uniform 0;
    }
    inlet
    {
        type            calculated;
        value           uniform 0;
    }
    outlet
    {
        type            calculated;
        value           uniform 0;
    }
    back
    {
        type            symmetry;
    }
    front
    {
        type            symmetry;
    }
}


// ************************************************************************* //
