/*--------------------------------*- C++ -*----------------------------------*\
| =========                 |                                                 |
| \\      /  F ield         | OpenFOAM: The Open Source CFD Toolbox           |
|  \\    /   O peration     | Version:  v1612+                                |
|   \\  /    A nd           | Web:      www.OpenFOAM.com                      |
|    \\/     M anipulation  |                                                 |
\*---------------------------------------------------------------------------*/
FoamFile
{
    version     2.0;
    format      ascii;
    class       volScalarField;
    location    "4.78";
    object      meanCollisionTime_Ar1;
}
// * * * * * * * * * * * * * * * * * * * * * * * * * * * * * * * * * * * * * //

dimensions      [0 0 1 0 0 0 0];

internalField   nonuniform List<scalar> 
1000
(
2.465152252e-05
2.480496006e-05
2.493779585e-05
2.507086761e-05
2.520206474e-05
2.532966929e-05
2.546178802e-05
2.557824595e-05
2.572601134e-05
2.58558796e-05
2.598158801e-05
2.611300756e-05
2.625219265e-05
2.640848353e-05
2.65356261e-05
2.667570462e-05
2.68236518e-05
2.697400072e-05
2.711789769e-05
2.726800889e-05
2.740778632e-05
2.756176639e-05
2.771895627e-05
2.786524872e-05
2.80195316e-05
2.817132843e-05
2.834602784e-05
2.850594069e-05
2.866267151e-05
2.883776386e-05
2.900285203e-05
2.916166462e-05
2.933365582e-05
2.95127459e-05
2.969387109e-05
2.985667524e-05
3.005156712e-05
3.023481388e-05
3.042041702e-05
3.061017981e-05
3.080192303e-05
3.099139987e-05
3.116919653e-05
3.137675291e-05
3.157342608e-05
3.177532144e-05
3.198930834e-05
3.218672752e-05
3.239159777e-05
3.260294911e-05
3.281843804e-05
3.303156524e-05
3.3242977e-05
3.346897309e-05
3.367662367e-05
3.390157056e-05
3.414227153e-05
3.439331108e-05
3.463183124e-05
3.486794492e-05
3.51082599e-05
3.536839755e-05
3.560641176e-05
3.584797016e-05
3.614123001e-05
3.639859929e-05
3.666004265e-05
3.693879726e-05
3.720758775e-05
3.750084723e-05
3.777981424e-05
3.805881476e-05
3.834947307e-05
3.865341063e-05
3.896291727e-05
3.925848098e-05
3.955542428e-05
3.988708038e-05
4.019869281e-05
4.052312243e-05
4.085840053e-05
4.12003136e-05
4.155058198e-05
4.189722424e-05
4.226351595e-05
4.261609425e-05
4.298150582e-05
4.334490561e-05
4.373018606e-05
4.413470045e-05
4.451334051e-05
4.48868275e-05
4.531046135e-05
4.571358031e-05
4.614887319e-05
4.657389732e-05
4.699512584e-05
4.742341484e-05
4.791340825e-05
4.84075732e-05
4.889342976e-05
4.933933827e-05
4.983071814e-05
5.03090384e-05
5.085689194e-05
5.139205796e-05
5.191298405e-05
5.244585319e-05
5.302201169e-05
5.357033316e-05
5.411669348e-05
5.474399364e-05
5.531699725e-05
5.595459524e-05
5.65643857e-05
5.72437186e-05
5.791172055e-05
5.856989723e-05
5.927063859e-05
5.995410316e-05
6.06848632e-05
6.144023833e-05
6.221966854e-05
6.299923608e-05
6.379987883e-05
6.460988885e-05
6.552406002e-05
6.637220405e-05
6.722160031e-05
6.819227535e-05
6.912564132e-05
7.006167976e-05
7.108058121e-05
7.210923895e-05
7.310839552e-05
7.414780393e-05
7.534632494e-05
7.6527904e-05
7.773498866e-05
7.892560699e-05
8.027432913e-05
8.152109317e-05
8.284426065e-05
8.424774475e-05
8.57266758e-05
8.722707905e-05
8.874948887e-05
9.032050234e-05
9.198036994e-05
9.367499104e-05
9.541855529e-05
9.731099914e-05
9.926629703e-05
0.0001013001099
0.0001034711835
0.0001056501821
0.0001079007555
0.000110274532
0.0001126513543
0.0001153841126
0.0001180326788
0.0001208937386
0.0001238887746
0.0001270125153
0.0001301931397
0.000133631263
0.0001373513211
0.0001412625157
0.0001454350615
0.00014966639
0.0001542513524
0.0001591212253
0.0001643286172
0.0001700534368
0.0001762395703
0.0001823103396
0.0001891274326
0.0001967732625
0.0002047479824
0.0002134721873
0.0002227899224
0.0002332339527
0.0002448782022
0.0002575756748
0.000271265393
0.0002869082452
0.0003050516149
0.0003243417772
0.000346924701
0.0003723709862
0.0004025556858
0.0004376931163
0.000480637865
0.0005306286491
0.0005950554294
0.0006786001965
0.0007902658918
0.0009486398376
0.001195779023
0.001716193365
2.465440942e-05
2.479764952e-05
2.492621312e-05
2.506537421e-05
2.519683633e-05
2.533576431e-05
2.54661556e-05
2.559312313e-05
2.571885476e-05
2.585411195e-05
2.598364144e-05
2.611549519e-05
2.626229631e-05
2.639967864e-05
2.653593388e-05
2.667854034e-05
2.682432394e-05
2.697393883e-05
2.711980279e-05
2.726738157e-05
2.741061888e-05
2.755443612e-05
2.770166575e-05
2.786115621e-05
2.802433271e-05
2.81822165e-05
2.833890317e-05
2.849321902e-05
2.866360889e-05
2.884014337e-05
2.900523297e-05
2.91825586e-05
2.934500139e-05
2.952740462e-05
2.969709657e-05
2.987453407e-05
3.004244334e-05
3.023988751e-05
3.042695961e-05
3.06141728e-05
3.079506451e-05
3.099576286e-05
3.116756002e-05
3.137406761e-05
3.157400895e-05
3.177012338e-05
3.198391789e-05
3.218655476e-05
3.238732597e-05
3.259849408e-05
3.280300641e-05
3.302657288e-05
3.324636542e-05
3.346717002e-05
3.367733947e-05
3.391256818e-05
3.413818668e-05
3.440204787e-05
3.463946186e-05
3.486273967e-05
3.510553452e-05
3.535729788e-05
3.560050374e-05
3.586432662e-05
3.612159196e-05
3.638939092e-05
3.666454077e-05
3.6944171e-05
3.720709076e-05
3.749853353e-05
3.778450697e-05
3.807461165e-05
3.837282507e-05
3.866002525e-05
3.895942566e-05
3.925629932e-05
3.956633915e-05
3.990213692e-05
4.02033325e-05
4.05142939e-05
4.086761781e-05
4.119059044e-05
4.153504506e-05
4.18834298e-05
4.226032163e-05
4.260328161e-05
4.29797161e-05
4.334300057e-05
4.372045644e-05
4.41087674e-05
4.451014449e-05
4.490919645e-05
4.530445519e-05
4.570601888e-05
4.614027077e-05
4.657010849e-05
4.703018789e-05
4.744150525e-05
4.790934595e-05
4.840401693e-05
4.887779113e-05
4.933610928e-05
4.98255105e-05
5.033369869e-05
5.086127229e-05
5.138044003e-05
5.18920401e-05
5.24220772e-05
5.300328121e-05
5.355797475e-05
5.414243362e-05
5.469760839e-05
5.531805161e-05
5.596363729e-05
5.657242439e-05
5.723625328e-05
5.792431268e-05
5.859054469e-05
5.928516344e-05
5.996828036e-05
6.06662895e-05
6.145079188e-05
6.219329428e-05
6.297899102e-05
6.37665183e-05
6.462374726e-05
6.549340292e-05
6.633604325e-05
6.723217563e-05
6.816400276e-05
6.916416957e-05
7.008710391e-05
7.110685276e-05
7.211715129e-05
7.313737883e-05
7.420773232e-05
7.532700622e-05
7.651888094e-05
7.773178138e-05
7.8932618e-05
8.02171518e-05
8.145160764e-05
8.285109094e-05
8.426770719e-05
8.573369059e-05
8.721444829e-05
8.873054674e-05
9.039145804e-05
9.203791143e-05
9.368375468e-05
9.545781716e-05
9.729794479e-05
9.931788558e-05
0.0001012840525
0.0001034485707
0.0001055450538
0.0001078972298
0.0001102512321
0.0001127192826
0.0001153813713
0.0001180134512
0.0001209667131
0.000123880664
0.0001269846395
0.0001302637729
0.0001337102103
0.0001374535973
0.0001412364736
0.0001453901709
0.000149647808
0.0001541083338
0.0001591269099
0.0001642479368
0.0001700478955
0.0001760160111
0.0001824173377
0.0001892082607
0.000196670772
0.0002048018657
0.0002134569843
0.000222839495
0.0002334066454
0.0002449591972
0.0002573039609
0.0002711036863
0.0002868404807
0.0003046631126
0.0003237937291
0.00034668579
0.00037208826
0.0004022114921
0.0004373479443
0.0004795435755
0.0005304543808
0.0005947997412
0.0006792040018
0.0007911887911
0.0009479879807
0.001200122549
0.001719837097
2.465580697e-05
2.480971542e-05
2.493389333e-05
2.506966809e-05
2.520018203e-05
2.532659443e-05
2.546093437e-05
2.559303138e-05
2.572844573e-05
2.584542696e-05
2.598345389e-05
2.611056026e-05
2.626773882e-05
2.640312694e-05
2.654034942e-05
2.668516253e-05
2.681665298e-05
2.695741246e-05
2.710608497e-05
2.726405057e-05
2.740864448e-05
2.756399209e-05
2.772440013e-05
2.786976931e-05
2.802323854e-05
2.818124611e-05
2.834194013e-05
2.84969449e-05
2.866624166e-05
2.883306179e-05
2.900498369e-05
2.917773996e-05
2.934322901e-05
2.951545132e-05
2.969041957e-05
2.985862425e-05
3.004841043e-05
3.023559839e-05
3.042118501e-05
3.061710907e-05
3.079421555e-05
3.098585129e-05
3.1173637e-05
3.136079586e-05
3.156637449e-05
3.178074636e-05
3.197849041e-05
3.219370356e-05
3.239050637e-05
3.261165359e-05
3.280829408e-05
3.302922234e-05
3.325329696e-05
3.34546223e-05
3.369061287e-05
3.391133608e-05
3.413816266e-05
3.440726371e-05
3.46242553e-05
3.486811197e-05
3.510947029e-05
3.534752316e-05
3.560121094e-05
3.585882879e-05
3.613065579e-05
3.640259119e-05
3.667416987e-05
3.693472341e-05
3.721033611e-05
3.750080232e-05
3.777764927e-05
3.807633758e-05
3.836702276e-05
3.865290594e-05
3.895543809e-05
3.925755955e-05
3.955833263e-05
3.988873255e-05
4.021674647e-05
4.052814285e-05
4.086440196e-05
4.119795687e-05
4.153561603e-05
4.189508974e-05
4.22532017e-05
4.260684316e-05
4.296194007e-05
4.335454072e-05
4.370588e-05
4.412355204e-05
4.451064785e-05
4.491399445e-05
4.529876844e-05
4.571796771e-05
4.61280564e-05
4.659195198e-05
4.701722664e-05
4.747179835e-05
4.791070616e-05
4.841199477e-05
4.886813363e-05
4.933660166e-05
4.984118853e-05
5.033310036e-05
5.083070438e-05
5.133383306e-05
5.187192581e-05
5.240594391e-05
5.298139503e-05
5.356731336e-05
5.415522089e-05
5.47217988e-05
5.532700756e-05
5.597362542e-05
5.664477925e-05
5.728299225e-05
5.790338092e-05
5.85781377e-05
5.927923264e-05
5.997661255e-05
6.072317416e-05
6.146152028e-05
6.220993353e-05
6.298741482e-05
6.380327904e-05
6.459806134e-05
6.549764726e-05
6.639990291e-05
6.723543009e-05
6.814251358e-05
6.911374349e-05
7.00667707e-05
7.109445722e-05
7.208601419e-05
7.313831173e-05
7.421731125e-05
7.534452167e-05
7.650106852e-05
7.774144548e-05
7.894641461e-05
8.022149906e-05
8.149145249e-05
8.288209216e-05
8.428636019e-05
8.573997339e-05
8.726239932e-05
8.881676997e-05
9.039538127e-05
9.202773168e-05
9.379769746e-05
9.55283248e-05
9.738185128e-05
9.929932072e-05
0.0001013375896
0.0001034204412
0.0001055708936
0.0001080250985
0.0001102561069
0.0001127108853
0.0001154005154
0.0001180607371
0.0001208040878
0.0001238503916
0.0001269665789
0.0001303078546
0.000133848746
0.0001375841536
0.0001412905524
0.0001453705201
0.0001496727155
0.0001542069227
0.0001590674699
0.0001644741423
0.0001699398415
0.0001759451106
0.0001822873617
0.0001892027728
0.0001965730378
0.0002047403362
0.0002134677645
0.0002229176027
0.0002335656484
0.0002450599995
0.0002576392988
0.0002712535533
0.000286845693
0.0003040033226
0.0003232728559
0.0003465617874
0.0003721732121
0.0004024034876
0.000437342823
0.0004794862478
0.0005311069991
0.0005955887222
0.0006783831168
0.0007882931849
0.0009507735353
0.001200931373
0.001719257337
2.466385717e-05
2.480447534e-05
2.493728255e-05
2.506445536e-05
2.52005439e-05
2.53278388e-05
2.544964943e-05
2.558166027e-05
2.571462494e-05
2.58412939e-05
2.598946578e-05
2.612138068e-05
2.626111362e-05
2.640248513e-05
2.654239569e-05
2.667717049e-05
2.681699165e-05
2.695375536e-05
2.711082249e-05
2.726152734e-05
2.740909143e-05
2.755728126e-05
2.770512059e-05
2.787073796e-05
2.802135232e-05
2.818107423e-05
2.833561271e-05
2.849730545e-05
2.866156564e-05
2.882687999e-05
2.900544049e-05
2.916578673e-05
2.934105246e-05
2.951513467e-05
2.96871443e-05
2.986916491e-05
3.004503638e-05
3.023889533e-05
3.041519584e-05
3.060311638e-05
3.078470466e-05
3.098607097e-05
3.117528502e-05
3.136435599e-05
3.15753606e-05
3.176858869e-05
3.198122241e-05
3.218569634e-05
3.240199217e-05
3.259674488e-05
3.281355971e-05
3.303137345e-05
3.324371214e-05
3.345208737e-05
3.369117018e-05
3.390472823e-05
3.416630416e-05
3.438970536e-05
3.462399927e-05
3.48552608e-05
3.509526671e-05
3.53431465e-05
3.560231758e-05
3.587016031e-05
3.613484355e-05
3.639133975e-05
3.665230884e-05
3.693778534e-05
3.721053933e-05
3.750279554e-05
3.776668322e-05
3.807362555e-05
3.835288145e-05
3.864362136e-05
3.896949319e-05
3.926600497e-05
3.957548715e-05
3.987337223e-05
4.019478152e-05
4.05366198e-05
4.086277403e-05
4.118895522e-05
4.153619127e-05
4.188138887e-05
4.224778832e-05
4.262018084e-05
4.298422822e-05
4.334219461e-05
4.370283613e-05
4.411393152e-05
4.451364362e-05
4.489406019e-05
4.531745131e-05
4.573886109e-05
4.617545211e-05
4.655853875e-05
4.699450499e-05
4.744530691e-05
4.791184541e-05
4.838637256e-05
4.886614155e-05
4.930871834e-05
4.982236819e-05
5.031682361e-05
5.08196798e-05
5.133669186e-05
5.185480105e-05
5.240979001e-05
5.297917808e-05
5.354333855e-05
5.413987899e-05
5.46932966e-05
5.531427584e-05
5.592871587e-05
5.659380447e-05
5.727995641e-05
5.792880891e-05
5.858995649e-05
5.927695263e-05
5.995368862e-05
6.066879279e-05
6.142786854e-05
6.216246758e-05
6.296863152e-05
6.377020303e-05
6.462812851e-05
6.550335111e-05
6.639699824e-05
6.726745185e-05
6.815777609e-05
6.908003967e-05
7.010043014e-05
7.106736544e-05
7.207542539e-05
7.319547917e-05
7.427535421e-05
7.5372562e-05
7.656400763e-05
7.775380525e-05
7.894547634e-05
8.023471212e-05
8.152080866e-05
8.289867413e-05
8.42801156e-05
8.567138376e-05
8.719141667e-05
8.877884255e-05
9.039462013e-05
9.19951231e-05
9.373300723e-05
9.558018164e-05
9.734600743e-05
9.933621862e-05
0.0001013078121
0.0001033842756
0.0001056472113
0.0001079314947
0.0001102072392
0.0001127026434
0.0001153488821
0.0001180290268
0.0001208846557
0.000123756496
0.0001271862329
0.0001303922815
0.00013394094
0.0001374876394
0.0001413482077
0.0001454686187
0.0001497796812
0.0001543621753
0.0001593226155
0.0001644947073
0.0001699246176
0.0001758864723
0.0001822157749
0.0001893774798
0.0001965911248
0.0002045745326
0.0002134021295
0.0002230742794
0.000233521089
0.00024523973
0.0002573002709
0.0002712249614
0.0002867012864
0.0003041411051
0.0003240535875
0.000346696265
0.0003721110877
0.0004019101399
0.0004373894525
0.0004796397484
0.0005307510875
0.0005945552841
0.0006767715349
0.000790791305
0.0009503792643
0.001203156887
0.001719099747
2.464933727e-05
2.479016475e-05
2.492931053e-05
2.506753381e-05
2.518954726e-05
2.533059216e-05
2.545146553e-05
2.558452261e-05
2.571519425e-05
2.585805349e-05
2.598657059e-05
2.612110024e-05
2.626375661e-05
2.640236572e-05
2.653746521e-05
2.667216116e-05
2.681197296e-05
2.69657806e-05
2.711742099e-05
2.727552589e-05
2.740886099e-05
2.755952015e-05
2.771631232e-05
2.786292974e-05
2.803355654e-05
2.818864674e-05
2.834296185e-05
2.850535944e-05
2.866563535e-05
2.883961656e-05
2.900675076e-05
2.918199583e-05
2.934485497e-05
2.950795486e-05
2.970009709e-05
2.987016585e-05
3.004294271e-05
3.022519675e-05
3.041884105e-05
3.059831375e-05
3.077564693e-05
3.09857876e-05
3.117472116e-05
3.137558583e-05
3.156959451e-05
3.178258163e-05
3.19765198e-05
3.216651281e-05
3.238911155e-05
3.259532232e-05
3.281301542e-05
3.302116743e-05
3.325347853e-05
3.346683347e-05
3.369774786e-05
3.393531316e-05
3.416705347e-05
3.439302973e-05
3.463856263e-05
3.485848695e-05
3.510774305e-05
3.534122391e-05
3.561268694e-05
3.586621548e-05
3.612915147e-05
3.639213141e-05
3.666917025e-05
3.693260459e-05
3.720772964e-05
3.748299889e-05
3.777316109e-05
3.80574888e-05
3.835183311e-05
3.86635196e-05
3.895026172e-05
3.925207994e-05
3.955522552e-05
3.988525438e-05
4.018684209e-05
4.05453969e-05
4.087646528e-05
4.118273187e-05
4.153891455e-05
4.187988876e-05
4.222487074e-05
4.258746045e-05
4.2958654e-05
4.336051387e-05
4.372690864e-05
4.411457885e-05
4.451342223e-05
4.490638978e-05
4.534750443e-05
4.571882548e-05
4.615516432e-05
4.657512429e-05
4.699216836e-05
4.748938082e-05
4.791533056e-05
4.840861631e-05
4.887368282e-05
4.931372673e-05
4.979648374e-05
5.032114865e-05
5.082212433e-05
5.135604799e-05
5.188821587e-05
5.244257487e-05
5.300217293e-05
5.35830455e-05
5.415501433e-05
5.474575299e-05
5.535621978e-05
5.595313598e-05
5.660436119e-05
5.726197478e-05
5.793107015e-05
5.85929603e-05
5.925640137e-05
5.994309772e-05
6.067843303e-05
6.145177719e-05
6.220973733e-05
6.300497097e-05
6.37799608e-05
6.460167309e-05
6.543488027e-05
6.633693099e-05
6.725476779e-05
6.813491962e-05
6.907422079e-05
7.007609414e-05
7.110078849e-05
7.21258744e-05
7.31761687e-05
7.426116239e-05
7.537513324e-05
7.657458048e-05
7.779776693e-05
7.899685714e-05
8.021753379e-05
8.155393726e-05
8.290287333e-05
8.422677753e-05
8.572216763e-05
8.714467127e-05
8.882217191e-05
9.039561435e-05
9.196170022e-05
9.369081276e-05
9.55196012e-05
9.740004624e-05
9.931555142e-05
0.0001012805365
0.0001033784665
0.0001056445644
0.0001079852074
0.0001102668303
0.0001126254209
0.0001153087576
0.0001180734592
0.0001208829557
0.0001238631624
0.0001269619642
0.0001302980897
0.0001338065322
0.0001373289674
0.0001411933677
0.0001453389833
0.0001498381568
0.0001543894158
0.000159206244
0.000164586385
0.0001701577817
0.0001757326909
0.0001821454394
0.0001894094359
0.0001967006783
0.0002047786604
0.0002134864565
0.0002228748315
0.0002338005052
0.0002451168172
0.0002574500518
0.0002712269058
0.0002868851474
0.0003044807946
0.0003239113438
0.0003468448114
0.0003726073674
0.0004019407017
0.0004380341447
0.000480126818
0.0005309950499
0.0005954467816
0.0006782875843
0.0007879660142
0.0009483971289
0.001202820844
0.001728343342
)
;

boundaryField
{
    bottom
    {
        type            calculated;
        value           nonuniform List<scalar> 
200
(
2.465152252e-05
2.480496006e-05
2.493779585e-05
2.507086761e-05
2.520206474e-05
2.532966929e-05
2.546178802e-05
2.557824595e-05
2.572601134e-05
2.58558796e-05
2.598158801e-05
2.611300756e-05
2.625219265e-05
2.640848353e-05
2.65356261e-05
2.667570462e-05
2.68236518e-05
2.697400072e-05
2.711789769e-05
2.726800889e-05
2.740778632e-05
2.756176639e-05
2.771895627e-05
2.786524872e-05
2.80195316e-05
2.817132843e-05
2.834602784e-05
2.850594069e-05
2.866267151e-05
2.883776386e-05
2.900285203e-05
2.916166462e-05
2.933365582e-05
2.95127459e-05
2.969387109e-05
2.985667524e-05
3.005156712e-05
3.023481388e-05
3.042041702e-05
3.061017981e-05
3.080192303e-05
3.099139987e-05
3.116919653e-05
3.137675291e-05
3.157342608e-05
3.177532144e-05
3.198930834e-05
3.218672752e-05
3.239159777e-05
3.260294911e-05
3.281843804e-05
3.303156524e-05
3.3242977e-05
3.346897309e-05
3.367662367e-05
3.390157056e-05
3.414227153e-05
3.439331108e-05
3.463183124e-05
3.486794492e-05
3.51082599e-05
3.536839755e-05
3.560641176e-05
3.584797016e-05
3.614123001e-05
3.639859929e-05
3.666004265e-05
3.693879726e-05
3.720758775e-05
3.750084723e-05
3.777981424e-05
3.805881476e-05
3.834947307e-05
3.865341063e-05
3.896291727e-05
3.925848098e-05
3.955542428e-05
3.988708038e-05
4.019869281e-05
4.052312243e-05
4.085840053e-05
4.12003136e-05
4.155058198e-05
4.189722424e-05
4.226351595e-05
4.261609425e-05
4.298150582e-05
4.334490561e-05
4.373018606e-05
4.413470045e-05
4.451334051e-05
4.48868275e-05
4.531046135e-05
4.571358031e-05
4.614887319e-05
4.657389732e-05
4.699512584e-05
4.742341484e-05
4.791340825e-05
4.84075732e-05
4.889342976e-05
4.933933827e-05
4.983071814e-05
5.03090384e-05
5.085689194e-05
5.139205796e-05
5.191298405e-05
5.244585319e-05
5.302201169e-05
5.357033316e-05
5.411669348e-05
5.474399364e-05
5.531699725e-05
5.595459524e-05
5.65643857e-05
5.72437186e-05
5.791172055e-05
5.856989723e-05
5.927063859e-05
5.995410316e-05
6.06848632e-05
6.144023833e-05
6.221966854e-05
6.299923608e-05
6.379987883e-05
6.460988885e-05
6.552406002e-05
6.637220405e-05
6.722160031e-05
6.819227535e-05
6.912564132e-05
7.006167976e-05
7.108058121e-05
7.210923895e-05
7.310839552e-05
7.414780393e-05
7.534632494e-05
7.6527904e-05
7.773498866e-05
7.892560699e-05
8.027432913e-05
8.152109317e-05
8.284426065e-05
8.424774475e-05
8.57266758e-05
8.722707905e-05
8.874948887e-05
9.032050234e-05
9.198036994e-05
9.367499104e-05
9.541855529e-05
9.731099914e-05
9.926629703e-05
0.0001013001099
0.0001034711835
0.0001056501821
0.0001079007555
0.000110274532
0.0001126513543
0.0001153841126
0.0001180326788
0.0001208937386
0.0001238887746
0.0001270125153
0.0001301931397
0.000133631263
0.0001373513211
0.0001412625157
0.0001454350615
0.00014966639
0.0001542513524
0.0001591212253
0.0001643286172
0.0001700534368
0.0001762395703
0.0001823103396
0.0001891274326
0.0001967732625
0.0002047479824
0.0002134721873
0.0002227899224
0.0002332339527
0.0002448782022
0.0002575756748
0.000271265393
0.0002869082452
0.0003050516149
0.0003243417772
0.000346924701
0.0003723709862
0.0004025556858
0.0004376931163
0.000480637865
0.0005306286491
0.0005950554294
0.0006786001965
0.0007902658918
0.0009486398376
0.001195779023
0.001716193365
)
;
    }
    top
    {
        type            calculated;
        value           nonuniform List<scalar> 
200
(
2.464933727e-05
2.479016475e-05
2.492931053e-05
2.506753381e-05
2.518954726e-05
2.533059216e-05
2.545146553e-05
2.558452261e-05
2.571519425e-05
2.585805349e-05
2.598657059e-05
2.612110024e-05
2.626375661e-05
2.640236572e-05
2.653746521e-05
2.667216116e-05
2.681197296e-05
2.69657806e-05
2.711742099e-05
2.727552589e-05
2.740886099e-05
2.755952015e-05
2.771631232e-05
2.786292974e-05
2.803355654e-05
2.818864674e-05
2.834296185e-05
2.850535944e-05
2.866563535e-05
2.883961656e-05
2.900675076e-05
2.918199583e-05
2.934485497e-05
2.950795486e-05
2.970009709e-05
2.987016585e-05
3.004294271e-05
3.022519675e-05
3.041884105e-05
3.059831375e-05
3.077564693e-05
3.09857876e-05
3.117472116e-05
3.137558583e-05
3.156959451e-05
3.178258163e-05
3.19765198e-05
3.216651281e-05
3.238911155e-05
3.259532232e-05
3.281301542e-05
3.302116743e-05
3.325347853e-05
3.346683347e-05
3.369774786e-05
3.393531316e-05
3.416705347e-05
3.439302973e-05
3.463856263e-05
3.485848695e-05
3.510774305e-05
3.534122391e-05
3.561268694e-05
3.586621548e-05
3.612915147e-05
3.639213141e-05
3.666917025e-05
3.693260459e-05
3.720772964e-05
3.748299889e-05
3.777316109e-05
3.80574888e-05
3.835183311e-05
3.86635196e-05
3.895026172e-05
3.925207994e-05
3.955522552e-05
3.988525438e-05
4.018684209e-05
4.05453969e-05
4.087646528e-05
4.118273187e-05
4.153891455e-05
4.187988876e-05
4.222487074e-05
4.258746045e-05
4.2958654e-05
4.336051387e-05
4.372690864e-05
4.411457885e-05
4.451342223e-05
4.490638978e-05
4.534750443e-05
4.571882548e-05
4.615516432e-05
4.657512429e-05
4.699216836e-05
4.748938082e-05
4.791533056e-05
4.840861631e-05
4.887368282e-05
4.931372673e-05
4.979648374e-05
5.032114865e-05
5.082212433e-05
5.135604799e-05
5.188821587e-05
5.244257487e-05
5.300217293e-05
5.35830455e-05
5.415501433e-05
5.474575299e-05
5.535621978e-05
5.595313598e-05
5.660436119e-05
5.726197478e-05
5.793107015e-05
5.85929603e-05
5.925640137e-05
5.994309772e-05
6.067843303e-05
6.145177719e-05
6.220973733e-05
6.300497097e-05
6.37799608e-05
6.460167309e-05
6.543488027e-05
6.633693099e-05
6.725476779e-05
6.813491962e-05
6.907422079e-05
7.007609414e-05
7.110078849e-05
7.21258744e-05
7.31761687e-05
7.426116239e-05
7.537513324e-05
7.657458048e-05
7.779776693e-05
7.899685714e-05
8.021753379e-05
8.155393726e-05
8.290287333e-05
8.422677753e-05
8.572216763e-05
8.714467127e-05
8.882217191e-05
9.039561435e-05
9.196170022e-05
9.369081276e-05
9.55196012e-05
9.740004624e-05
9.931555142e-05
0.0001012805365
0.0001033784665
0.0001056445644
0.0001079852074
0.0001102668303
0.0001126254209
0.0001153087576
0.0001180734592
0.0001208829557
0.0001238631624
0.0001269619642
0.0001302980897
0.0001338065322
0.0001373289674
0.0001411933677
0.0001453389833
0.0001498381568
0.0001543894158
0.000159206244
0.000164586385
0.0001701577817
0.0001757326909
0.0001821454394
0.0001894094359
0.0001967006783
0.0002047786604
0.0002134864565
0.0002228748315
0.0002338005052
0.0002451168172
0.0002574500518
0.0002712269058
0.0002868851474
0.0003044807946
0.0003239113438
0.0003468448114
0.0003726073674
0.0004019407017
0.0004380341447
0.000480126818
0.0005309950499
0.0005954467816
0.0006782875843
0.0007879660142
0.0009483971289
0.001202820844
0.001728343342
)
;
    }
    inlet
    {
        type            calculated;
        value           nonuniform List<scalar> 5(2.465152252e-05 2.465440942e-05 2.465580697e-05 2.466385717e-05 2.464933727e-05);
    }
    outlet
    {
        type            calculated;
        value           nonuniform List<scalar> 5(0.001716193365 0.001719837097 0.001719257337 0.001719099747 0.001728343342);
    }
    back
    {
        type            symmetry;
    }
    front
    {
        type            symmetry;
    }
}


// ************************************************************************* //
