/*--------------------------------*- C++ -*----------------------------------*\
| =========                 |                                                 |
| \\      /  F ield         | OpenFOAM: The Open Source CFD Toolbox           |
|  \\    /   O peration     | Version:  v1612+                                |
|   \\  /    A nd           | Web:      www.OpenFOAM.com                      |
|    \\/     M anipulation  |                                                 |
\*---------------------------------------------------------------------------*/
FoamFile
{
    version     2.0;
    format      ascii;
    class       volScalarField;
    location    "4.78";
    object      meanCollisionRate_mix;
}
// * * * * * * * * * * * * * * * * * * * * * * * * * * * * * * * * * * * * * //

dimensions      [0 0 -1 0 0 0 0];

internalField   nonuniform List<scalar> 
1000
(
41162.7362
41155.90604
41160.70722
41158.3198
41157.45807
41159.87198
41159.83372
41180.25697
41158.61425
41163.44756
41173.35401
41185.18436
41179.73148
41155.51581
41171.00283
41174.86043
41159.28493
41152.48947
41158.29831
41155.67461
41167.59576
41164.91336
41158.71245
41165.21435
41169.73675
41174.73423
41160.09588
41161.85464
41168.37057
41154.96903
41158.37116
41179.65355
41177.89947
41172.47921
41167.00844
41185.22012
41168.29971
41167.35281
41164.62056
41158.79061
41153.32673
41153.91525
41168.38826
41159.61842
41148.65447
41161.43448
41144.12641
41152.8818
41160.22859
41154.42683
41145.65395
41152.97737
41165.50384
41155.16509
41186.47268
41185.35875
41172.73002
41164.98744
41170.17575
41171.68254
41178.59389
41169.94173
41173.36331
41185.92159
41158.67235
41163.54418
41169.2757
41158.81627
41159.00756
41154.23469
41151.64795
41162.93391
41160.92931
41153.05112
41152.68233
41153.71616
41177.64956
41161.70545
41173.92197
41172.49451
41162.35103
41168.09528
41154.10376
41158.31476
41152.66336
41153.40524
41156.44341
41153.54076
41145.69218
41142.67398
41155.23606
41160.74697
41141.85367
41150.59601
41142.94229
41148.96606
41154.48946
41159.0782
41144.5098
41133.05768
41128.7123
41133.07544
41139.75758
41166.84358
41138.21499
41132.1879
41155.90492
41141.32456
41146.82296
41151.72635
41163.85756
41147.90612
41172.89627
41151.64351
41144.26181
41148.9013
41149.63129
41165.57555
41153.64283
41159.3491
41155.15818
41132.31245
41149.78151
41138.10812
41142.40478
41150.48836
41136.39489
41135.71421
41161.04835
41142.10716
41132.03242
41149.60602
41134.95397
41153.88713
41154.63025
41164.98017
41146.63512
41143.29197
41158.58952
41164.83419
41143.85071
41155.54326
41158.25646
41156.18775
41149.3406
41141.07501
41150.01209
41152.07755
41139.42475
41154.88125
41152.8623
41157.51921
41160.16796
41158.15815
41148.024
41145.31254
41164.7168
41152.41491
41148.05661
41153.75593
41151.80227
41154.21321
41150.95454
41141.02875
41145.75915
41148.62928
41162.12816
41167.20616
41168.06893
41155.29651
41175.44182
41165.53258
41161.22392
41150.03112
41143.91909
41152.87697
41150.14453
41157.96166
41159.02966
41143.39489
41142.32459
41148.26847
41139.20471
41153.90173
41145.62035
41140.48182
41152.76719
41157.08911
41143.95994
41151.14065
41142.5114
41140.01603
41135.0999
41142.61033
41163.87324
41167.74313
41168.00446
41168.47014
41162.04266
41159.68757
41157.77566
41168.30496
41178.35263
41168.00151
41168.18016
41152.02701
41150.50098
41162.93096
41170.04209
41168.56256
41174.91738
41179.21065
41167.25479
41168.72415
41169.8575
41167.64911
41166.1956
41158.17035
41159.79861
41155.25917
41168.82524
41172.74949
41178.98642
41169.68745
41161.42855
41162.7037
41168.02491
41177.42809
41167.45207
41153.14943
41159.95732
41154.52594
41170.09509
41154.92297
41158.40289
41163.49007
41173.61745
41160.24969
41156.23379
41152.40252
41152.81498
41150.15265
41168.44759
41164.03752
41154.55465
41163.09708
41164.9656
41160.79907
41164.35809
41163.47017
41169.20528
41167.68234
41168.19245
41167.65926
41186.65889
41175.16641
41175.26527
41160.90797
41160.51851
41174.27997
41170.59356
41170.5017
41187.74261
41174.10877
41177.00206
41165.46951
41165.86486
41151.87684
41167.78312
41160.43713
41160.66583
41154.96313
41158.23607
41159.84522
41162.5981
41160.39625
41159.91379
41143.2477
41162.87392
41171.45819
41147.43148
41166.84819
41166.47005
41168.3189
41151.44025
41156.25075
41152.87585
41151.60423
41161.45894
41163.41724
41156.19423
41145.56303
41149.51995
41149.68573
41151.63512
41144.84172
41140.88171
41155.03961
41153.29933
41139.24725
41146.65405
41142.51073
41146.80194
41152.10015
41152.93477
41140.02975
41142.62167
41152.00035
41157.2614
41170.74159
41142.79039
41163.75517
41152.78056
41143.57004
41158.77503
41147.97333
41142.83128
41158.04202
41140.93907
41138.53038
41160.37889
41158.55509
41154.10852
41143.99665
41142.66229
41154.33659
41155.0997
41148.87841
41151.738
41138.37086
41133.33326
41144.43566
41148.85606
41143.31227
41153.21035
41164.67752
41146.69464
41152.47985
41159.47349
41160.49268
41159.32115
41161.96276
41142.38699
41151.90197
41147.68749
41144.6402
41151.58822
41139.98659
41142.67201
41159.89257
41164.73479
41162.8744
41153.06321
41146.16826
41133.71017
41159.85378
41153.21128
41153.28396
41156.72219
41151.65092
41164.65268
41153.25086
41147.35943
41156.53081
41161.48606
41155.48524
41159.9554
41167.90953
41157.66594
41181.16443
41185.32139
41183.45266
41158.51771
41165.47576
41153.28594
41152.85665
41145.92142
41145.28864
41153.11806
41157.9627
41161.74603
41145.89963
41142.28625
41150.0591
41151.86319
41150.37867
41152.75668
41160.66347
41161.76639
41153.99991
41158.38182
41155.68688
41161.47135
41176.02881
41160.86673
41166.72483
41151.51764
41164.38676
41175.4347
41160.51768
41155.27908
41148.10865
41167.05738
41158.89573
41159.23268
41164.93044
41156.8993
41154.86811
41153.28617
41180.14713
41174.42584
41184.89009
41155.29688
41162.52336
41162.79382
41152.6791
41175.84421
41177.38075
41176.21898
41158.6528
41166.1179
41160.69115
41149.2484
41161.69573
41169.86921
41166.82701
41163.36911
41174.2469
41166.09121
41165.35061
41157.08662
41152.28824
41166.56586
41164.40056
41163.1641
41184.44646
41169.25073
41158.57718
41155.91732
41142.98721
41158.39786
41166.0829
41167.86353
41177.68482
41166.12484
41158.22843
41163.65463
41145.99829
41158.02627
41147.37674
41169.17032
41166.90863
41165.1025
41171.91092
41172.92323
41185.98598
41176.25715
41146.35676
41167.38376
41164.82948
41161.98251
41180.55475
41173.64851
41175.08871
41165.44071
41156.39144
41154.20796
41163.64994
41160.45762
41155.72153
41173.73847
41158.685
41148.77925
41159.42703
41158.94238
41168.93929
41171.04634
41155.26083
41151.92005
41162.81716
41155.15383
41146.69752
41167.72511
41160.10608
41157.75138
41173.25879
41164.79894
41156.78286
41172.4295
41152.0557
41157.72287
41140.09176
41155.5705
41148.05524
41163.1721
41147.6834
41149.63935
41148.63542
41157.82358
41134.48824
41146.02035
41145.56993
41132.653
41145.19084
41147.77733
41165.47073
41151.93771
41158.18436
41161.29193
41169.48996
41149.29632
41153.74577
41146.15112
41145.18527
41138.72519
41152.06747
41146.03337
41148.10808
41141.99258
41138.19074
41140.3681
41149.18452
41153.76194
41156.06013
41145.29813
41156.22357
41141.60489
41143.54001
41153.03147
41141.96579
41141.55465
41151.33223
41141.11501
41154.30417
41159.66714
41155.88041
41151.13229
41153.68249
41152.58644
41167.98385
41142.97645
41160.14077
41153.42782
41157.61213
41135.14894
41141.2245
41144.14735
41150.19851
41142.12256
41148.14674
41164.46835
41158.13469
41149.23616
41156.43043
41141.70799
41158.01058
41143.3503
41173.87084
41154.10894
41148.39179
41154.66434
41159.93354
41165.44359
41153.17453
41144.88138
41152.06215
41140.12937
41162.82516
41151.74316
41171.96269
41165.71772
41176.53089
41154.8012
41151.30158
41163.37327
41167.78968
41147.70819
41160.02642
41135.52938
41162.65609
41146.33048
41148.01199
41150.51404
41152.62593
41161.72329
41154.31045
41151.06141
41163.28319
41146.91078
41155.4307
41165.44881
41159.2689
41154.59135
41156.64047
41152.36632
41150.52777
41145.66746
41157.09017
41159.32807
41162.75134
41138.32248
41155.56536
41159.6553
41168.39324
41159.26224
41161.5856
41176.78316
41178.06055
41176.86237
41187.27127
41161.80502
41170.67555
41165.54197
41160.08048
41160.18812
41166.03711
41172.61914
41180.75807
41164.79321
41162.96489
41167.82536
41169.81093
41173.45866
41163.22274
41171.29582
41170.30269
41170.26732
41173.72997
41173.64606
41171.08482
41163.48217
41171.79574
41166.03714
41165.03285
41170.12539
41161.01775
41174.26726
41159.5097
41166.32542
41161.88409
41172.96646
41158.14452
41168.66934
41169.19889
41159.88494
41163.92735
41156.28615
41150.88688
41142.77461
41161.00969
41162.84812
41155.0547
41169.57802
41184.15268
41173.29856
41187.17269
41153.65001
41166.47584
41173.89531
41188.12937
41185.52208
41177.79838
41175.0665
41168.30939
41165.77699
41163.47558
41171.86998
41158.13438
41162.99471
41156.91677
41168.9019
41155.36342
41161.80923
41166.6345
41143.94444
41165.23213
41155.25766
41165.71182
41162.62877
41157.5508
41164.23421
41169.93045
41164.78391
41162.29418
41161.04543
41155.74654
41159.60951
41155.09472
41164.11219
41149.96527
41145.56477
41148.57762
41143.55568
41143.66447
41137.60365
41142.6007
41161.08645
41158.43265
41153.4301
41141.0335
41146.91556
41157.96763
41144.66071
41142.85573
41147.52179
41157.98156
41159.95634
41151.27527
41165.48467
41154.64692
41149.159
41157.40225
41160.82668
41164.01229
41156.32313
41142.87053
41145.95208
41131.77705
41138.08676
41151.42385
41147.84457
41147.38361
41154.59632
41148.36886
41156.80843
41143.25386
41136.25093
41135.78113
41150.66278
41155.01757
41156.40876
41152.4028
41146.32411
41152.56559
41136.77859
41141.28564
41157.514
41154.48062
41167.67995
41150.02118
41151.30633
41148.94973
41150.25174
41157.72022
41151.39257
41145.87041
41148.38351
41147.41663
41145.17066
41153.76842
41163.11831
41165.64637
41154.0808
41157.18199
41167.44527
41166.49624
41160.40391
41156.57943
41150.64597
41156.59737
41149.77572
41157.96652
41163.40898
41146.79022
41160.04196
41139.55225
41146.07465
41153.95715
41139.08961
41153.61851
41162.56411
41164.52793
41160.81711
41162.62896
41160.48554
41155.46152
41130.83704
41161.46242
41145.38604
41150.07145
41147.41432
41139.26796
41138.92917
41153.78767
41143.12772
41160.68135
41160.26524
41155.65929
41153.20732
41159.47517
41157.70383
41160.0788
41154.44235
41154.20332
41147.82275
41161.72409
41156.0207
41144.40849
41151.97553
41168.98658
41163.62993
41178.57372
41174.2167
41164.35656
41177.14611
41158.8667
41176.39027
41173.62576
41178.01625
41162.27936
41163.31216
41167.71097
41159.34646
41159.56849
41170.72986
41178.78892
41179.43284
41166.89328
41157.55018
41141.97064
41168.10253
41160.54279
41158.66137
41167.44293
41152.98037
41159.5315
41164.67889
41165.71075
41173.46969
41159.37196
41154.09228
41151.09655
41167.70225
41178.69615
41157.40319
41150.83961
41170.67678
41176.5318
41168.21907
41175.03984
41174.64564
41150.00619
41160.22537
41165.06632
41168.37506
41151.05386
41167.38062
41169.70515
41150.90231
41154.19796
41150.03575
41160.45715
41158.98694
41167.07899
41159.42568
41164.11449
41153.4595
41161.2699
41155.23459
41175.91777
41167.7181
41180.66452
41166.04766
41163.62307
41169.45794
41165.79759
41153.60088
41164.10999
41159.04825
41157.37515
41166.2434
41163.85
41164.05728
41144.53257
41158.76921
41160.66901
41171.80131
41166.72876
41176.07646
41153.86735
41156.36954
41169.89839
41159.01413
41158.25892
41162.42005
41171.094
41167.61051
41151.61886
41159.59069
41153.17513
41148.5371
41158.86385
41130.2692
41146.28332
41147.76986
41142.04616
41157.54889
41136.93615
41146.77765
41141.6096
41140.49328
41154.88103
41162.11692
41147.69885
41156.68365
41157.49194
41137.32865
41144.85412
41153.37613
41141.17955
41145.12681
41154.81148
41156.05027
41155.20589
41156.79983
41147.71774
41152.46942
41141.20755
41148.8214
41148.2047
41147.53047
41136.28378
41143.8088
41149.44167
41148.42576
41150.78106
41157.29337
41148.5121
41158.20504
41158.31758
41148.1754
41151.80035
41151.45497
41149.73184
41148.23394
41163.51075
41159.85554
41157.9939
41151.16943
41152.58155
41161.45765
41153.1837
41154.76989
41167.64133
41152.98925
41157.88206
41138.80779
41134.6048
41145.65741
41163.32451
41160.80264
41151.94377
41150.44106
41157.91717
41165.63057
41163.89771
41154.24749
41162.44444
41166.14734
41142.72865
41146.20776
41152.8232
41168.03522
41172.03709
41161.00333
41152.36625
41163.28106
41151.63159
41156.03051
41148.5506
41138.52583
41150.72953
41153.48838
41151.86274
41151.7637
41148.23435
41138.88328
41140.38419
41153.23544
41156.64769
41141.89623
41134.20497
41124.32233
41152.17898
41139.57738
41153.96691
41151.50262
41157.25221
41150.64091
41155.46207
41167.80451
41150.78782
41137.58867
41139.07229
41146.76771
41147.70551
41162.23272
41156.51859
41147.83106
41158.84918
)
;

boundaryField
{
    bottom
    {
        type            calculated;
        value           nonuniform List<scalar> 
200
(
41162.7362
41155.90604
41160.70722
41158.3198
41157.45807
41159.87198
41159.83372
41180.25697
41158.61425
41163.44756
41173.35401
41185.18436
41179.73148
41155.51581
41171.00283
41174.86043
41159.28493
41152.48947
41158.29831
41155.67461
41167.59576
41164.91336
41158.71245
41165.21435
41169.73675
41174.73423
41160.09588
41161.85464
41168.37057
41154.96903
41158.37116
41179.65355
41177.89947
41172.47921
41167.00844
41185.22012
41168.29971
41167.35281
41164.62056
41158.79061
41153.32673
41153.91525
41168.38826
41159.61842
41148.65447
41161.43448
41144.12641
41152.8818
41160.22859
41154.42683
41145.65395
41152.97737
41165.50384
41155.16509
41186.47268
41185.35875
41172.73002
41164.98744
41170.17575
41171.68254
41178.59389
41169.94173
41173.36331
41185.92159
41158.67235
41163.54418
41169.2757
41158.81627
41159.00756
41154.23469
41151.64795
41162.93391
41160.92931
41153.05112
41152.68233
41153.71616
41177.64956
41161.70545
41173.92197
41172.49451
41162.35103
41168.09528
41154.10376
41158.31476
41152.66336
41153.40524
41156.44341
41153.54076
41145.69218
41142.67398
41155.23606
41160.74697
41141.85367
41150.59601
41142.94229
41148.96606
41154.48946
41159.0782
41144.5098
41133.05768
41128.7123
41133.07544
41139.75758
41166.84358
41138.21499
41132.1879
41155.90492
41141.32456
41146.82296
41151.72635
41163.85756
41147.90612
41172.89627
41151.64351
41144.26181
41148.9013
41149.63129
41165.57555
41153.64283
41159.3491
41155.15818
41132.31245
41149.78151
41138.10812
41142.40478
41150.48836
41136.39489
41135.71421
41161.04835
41142.10716
41132.03242
41149.60602
41134.95397
41153.88713
41154.63025
41164.98017
41146.63512
41143.29197
41158.58952
41164.83419
41143.85071
41155.54326
41158.25646
41156.18775
41149.3406
41141.07501
41150.01209
41152.07755
41139.42475
41154.88125
41152.8623
41157.51921
41160.16796
41158.15815
41148.024
41145.31254
41164.7168
41152.41491
41148.05661
41153.75593
41151.80227
41154.21321
41150.95454
41141.02875
41145.75915
41148.62928
41162.12816
41167.20616
41168.06893
41155.29651
41175.44182
41165.53258
41161.22392
41150.03112
41143.91909
41152.87697
41150.14453
41157.96166
41159.02966
41143.39489
41142.32459
41148.26847
41139.20471
41153.90173
41145.62035
41140.48182
41152.76719
41157.08911
41143.95994
41151.14065
41142.5114
41140.01603
41135.0999
41142.61033
41163.87324
41167.74313
41168.00446
41168.47014
41162.04266
41159.68757
)
;
    }
    top
    {
        type            calculated;
        value           nonuniform List<scalar> 
200
(
41163.62993
41178.57372
41174.2167
41164.35656
41177.14611
41158.8667
41176.39027
41173.62576
41178.01625
41162.27936
41163.31216
41167.71097
41159.34646
41159.56849
41170.72986
41178.78892
41179.43284
41166.89328
41157.55018
41141.97064
41168.10253
41160.54279
41158.66137
41167.44293
41152.98037
41159.5315
41164.67889
41165.71075
41173.46969
41159.37196
41154.09228
41151.09655
41167.70225
41178.69615
41157.40319
41150.83961
41170.67678
41176.5318
41168.21907
41175.03984
41174.64564
41150.00619
41160.22537
41165.06632
41168.37506
41151.05386
41167.38062
41169.70515
41150.90231
41154.19796
41150.03575
41160.45715
41158.98694
41167.07899
41159.42568
41164.11449
41153.4595
41161.2699
41155.23459
41175.91777
41167.7181
41180.66452
41166.04766
41163.62307
41169.45794
41165.79759
41153.60088
41164.10999
41159.04825
41157.37515
41166.2434
41163.85
41164.05728
41144.53257
41158.76921
41160.66901
41171.80131
41166.72876
41176.07646
41153.86735
41156.36954
41169.89839
41159.01413
41158.25892
41162.42005
41171.094
41167.61051
41151.61886
41159.59069
41153.17513
41148.5371
41158.86385
41130.2692
41146.28332
41147.76986
41142.04616
41157.54889
41136.93615
41146.77765
41141.6096
41140.49328
41154.88103
41162.11692
41147.69885
41156.68365
41157.49194
41137.32865
41144.85412
41153.37613
41141.17955
41145.12681
41154.81148
41156.05027
41155.20589
41156.79983
41147.71774
41152.46942
41141.20755
41148.8214
41148.2047
41147.53047
41136.28378
41143.8088
41149.44167
41148.42576
41150.78106
41157.29337
41148.5121
41158.20504
41158.31758
41148.1754
41151.80035
41151.45497
41149.73184
41148.23394
41163.51075
41159.85554
41157.9939
41151.16943
41152.58155
41161.45765
41153.1837
41154.76989
41167.64133
41152.98925
41157.88206
41138.80779
41134.6048
41145.65741
41163.32451
41160.80264
41151.94377
41150.44106
41157.91717
41165.63057
41163.89771
41154.24749
41162.44444
41166.14734
41142.72865
41146.20776
41152.8232
41168.03522
41172.03709
41161.00333
41152.36625
41163.28106
41151.63159
41156.03051
41148.5506
41138.52583
41150.72953
41153.48838
41151.86274
41151.7637
41148.23435
41138.88328
41140.38419
41153.23544
41156.64769
41141.89623
41134.20497
41124.32233
41152.17898
41139.57738
41153.96691
41151.50262
41157.25221
41150.64091
41155.46207
41167.80451
41150.78782
41137.58867
41139.07229
41146.76771
41147.70551
41162.23272
41156.51859
41147.83106
41158.84918
)
;
    }
    inlet
    {
        type            calculated;
        value           nonuniform List<scalar> 5(41162.7362 41157.77566 41155.27908 41138.32248 41163.62993);
    }
    outlet
    {
        type            calculated;
        value           nonuniform List<scalar> 5(41159.68757 41160.51768 41162.75134 41168.98658 41158.84918);
    }
    back
    {
        type            symmetry;
    }
    front
    {
        type            symmetry;
    }
}


// ************************************************************************* //
