/*--------------------------------*- C++ -*----------------------------------*\
| =========                 |                                                 |
| \\      /  F ield         | OpenFOAM: The Open Source CFD Toolbox           |
|  \\    /   O peration     | Version:  v1612+                                |
|   \\  /    A nd           | Web:      www.OpenFOAM.com                      |
|    \\/     M anipulation  |                                                 |
\*---------------------------------------------------------------------------*/
FoamFile
{
    version     2.0;
    format      ascii;
    class       volScalarField;
    location    "4.78";
    object      meanCollisionRate_Ar1;
}
// * * * * * * * * * * * * * * * * * * * * * * * * * * * * * * * * * * * * * //

dimensions      [0 0 -1 0 0 0 0];

internalField   nonuniform List<scalar> 
1000
(
40565.44577
40314.51765
40099.77489
39886.93234
39679.2886
39479.39424
39274.53953
39095.72227
38871.16377
38675.92268
38488.79443
38295.09096
38092.05629
37866.6196
37685.1858
37487.29468
37280.53165
37072.73571
36876.01492
36673.01136
36485.98205
36282.14484
36076.39444
35886.99351
35689.39032
35497.08358
35278.3115
35080.40696
34888.58321
34676.7525
34479.36771
34291.59525
34090.53431
33883.66516
33676.98328
33493.34753
33276.13485
33074.45529
32872.65915
32668.87049
32465.50545
32267.01614
32082.95726
31870.72935
31672.20426
31470.96409
31260.44456
31068.70679
30872.20356
30672.07192
30470.67623
30274.07247
30081.54173
29878.41896
29694.18816
29497.1585
29289.2053
29075.42102
28875.16959
28679.63691
28483.32566
28273.82831
28084.8294
27895.58225
27669.22984
27473.58468
27277.65512
27071.80726
26876.23844
26666.06421
26469.16138
26275.12198
26075.97758
25870.93826
25665.42934
25472.20307
25280.98278
25070.77456
24876.4308
24677.26918
24474.77109
24271.65992
24067.05159
23867.92964
23661.06978
23465.31322
23265.82052
23070.76197
22867.49932
22657.9084
22465.17535
22278.25079
22069.95847
21875.33755
21669.00145
21471.25445
21278.80247
21086.62996
20870.98448
20657.92466
20452.64578
20267.80324
20067.94277
19877.14398
19663.01836
19458.2595
19263.00363
19067.28443
18860.09165
18667.04836
18478.58647
18266.84415
18077.62622
17871.63316
17678.96862
17469.1656
17267.66172
17073.61712
16871.76018
16679.42555
16478.57385
16275.97853
16072.08819
15873.20835
15674.01096
15477.50689
15261.56956
15066.54803
14876.17069
14664.41756
14466.4119
14273.13766
14068.54
13867.84848
13678.31961
13486.57609
13272.04745
13067.12908
12864.22005
12670.15913
12457.28256
12266.76387
12070.84223
11869.75394
11664.98048
11464.32978
11267.67053
11071.68333
10871.88495
10675.20785
10480.14191
10276.33062
10073.9126
9871.657606
9664.526549
9465.199018
9267.775704
9068.276976
8876.946099
8666.704432
8472.229979
8271.726987
8071.756325
7873.239877
7680.896264
7483.27882
7280.599794
7079.01877
6875.921044
6681.526826
6482.925334
6284.516715
6085.367338
5880.504499
5674.094633
5485.152416
5287.440253
5081.991258
4884.05301
4684.450994
4488.533364
4287.540421
4083.66278
3882.354188
3686.426746
3485.434862
3278.133769
3083.167419
2882.469876
2685.493868
2484.128371
2284.705796
2080.568496
1884.557122
1680.515714
1473.621737
1265.396888
1054.140845
836.2749146
582.6849238
40560.69578
40326.40268
40118.40848
39895.67407
39687.52215
39469.8967
39267.80374
39072.99609
38881.98015
38678.56695
38485.75276
38291.44317
38077.40147
37879.24897
37684.7487
37483.31007
37279.59751
37072.82077
36873.42447
36673.85507
36482.21168
36291.79692
36098.91221
35892.26493
35683.27605
35483.36945
35287.1808
35096.06968
34887.44225
34673.89143
34476.53742
34267.04333
34077.35398
33866.8438
33673.32552
33473.3254
33286.24069
33068.90608
32865.59068
32664.60951
32472.736
32262.47421
32084.64183
31873.45716
31671.61958
31476.1132
31265.71308
31068.87355
30876.27552
30676.26368
30485.01066
30278.64876
30078.47587
29880.02868
29693.55703
29487.59276
29292.70993
29068.03699
28868.80876
28683.91898
28485.53693
28282.70428
28089.49018
27882.86005
27684.27264
27480.5369
27274.30861
27067.86952
26876.59743
26667.70953
26465.87398
26264.22061
26060.10889
25866.51182
25667.72951
25473.61869
25274.0087
25061.31443
24873.55992
24682.64663
24469.25105
24277.38931
24076.0543
23875.79061
23662.85824
23472.37025
23266.78933
23071.776
22872.58829
22671.22975
22466.78845
22267.15415
22072.88435
21878.95652
21673.04143
21473.00129
21262.93866
21078.5892
20872.75416
20659.44241
20459.18968
20269.12974
20070.04022
19867.40546
19661.32491
19462.65932
19270.7783
19075.93238
18866.75649
18671.35575
18469.80147
18282.335
18077.28166
17868.74564
17676.45652
17471.4441
17263.90791
17067.60033
16867.6266
16675.48234
16483.61896
16273.1833
16078.90387
15878.31091
15682.21108
15474.18778
15268.71342
15074.76103
14873.83073
14670.49996
14458.35331
14267.96007
14063.34216
13866.32697
13672.89908
13475.68466
13275.45126
13068.66995
12864.75084
12669.03373
12466.16188
12277.22852
12069.8471
11866.94207
11664.02604
11465.99009
11270.07594
11062.99225
10865.08792
10674.20924
10475.83142
10277.70938
10068.67992
9873.222642
9666.639119
9474.626841
9268.078538
9070.19342
8871.596565
8666.910341
8473.610336
8266.736976
8072.284793
7874.968219
7676.731435
7478.860424
7275.182459
7080.324043
6878.044049
6682.356483
6488.941744
6284.292209
6088.35654
5880.696123
5681.301342
5481.935064
5285.181506
5084.639623
4882.768018
4684.784635
4487.534851
4284.36816
4082.312531
3886.453969
3688.62561
3486.258277
3282.314001
3088.385939
2884.456268
2687.534404
2486.254171
2286.508975
2085.316228
1885.176249
1681.238122
1472.311702
1263.920838
1054.865695
833.2482387
581.4504185
40558.3967
40306.79043
40106.0511
39888.84083
39682.25303
39484.18737
39275.85632
39073.13617
38867.48583
38691.56434
38486.03054
38298.6803
38069.51207
37874.30187
37678.47907
37474.00822
37290.26142
37095.54844
36892.08534
36678.33572
36484.83969
36279.21517
36069.31062
35881.17249
35684.6693
35484.59128
35283.39964
35091.48098
34884.23811
34682.40755
34476.83373
34272.70245
34079.41231
33880.55934
33680.89823
33491.16127
33279.63063
33073.59713
32871.82928
32661.47688
32473.63124
32272.79414
32078.38726
31886.94587
31679.27949
31465.59205
31271.01959
31061.97453
30873.2438
30663.88515
30480.09743
30276.21994
30072.20611
29891.23569
29681.85838
29488.66413
29292.73054
29063.63053
28881.4876
28679.49951
28482.34371
28290.52535
28088.93219
27887.13502
27677.32769
27470.57194
27267.14752
27074.79325
26874.25336
26666.09614
26470.67828
26263.0301
26064.05001
25871.27606
25670.35693
25472.80094
25279.12411
25069.73614
24865.26355
24674.21228
24471.17667
24273.04837
24075.72333
23869.14567
23666.84559
23470.40817
23276.41625
23065.63473
22880.21657
22663.63322
22466.53438
22264.77543
22075.65535
21873.23825
21678.78029
21462.93421
21268.80021
21065.13835
20872.16157
20656.03792
20463.2329
20268.92746
20063.727
19867.64163
19673.14859
19480.32984
19278.25089
19081.80495
18874.5502
18668.1007
18465.44033
18274.25307
18074.35544
17865.55708
17653.87761
17457.18861
17270.14872
17071.21529
16869.31418
16673.16571
16468.17733
16270.34273
16074.60325
15876.18738
15673.17566
15480.34073
15267.72399
15060.26299
14873.11078
14675.1264
14468.90227
14272.1006
14065.79414
13872.31644
13672.72468
13473.94541
13272.3651
13071.71284
12863.15162
12666.8197
12465.48633
12271.22563
12065.3325
11864.31586
11663.17134
11459.68949
11259.13496
11062.51211
10866.28978
10661.24251
10468.09941
10268.85387
10070.56234
9868.006567
9669.268365
9472.307806
9257.107968
9069.792394
8872.257525
8665.472563
8470.21647
8277.865576
8074.257875
7876.088405
7674.134483
7471.119677
7268.278898
7077.614057
6878.973807
6681.244453
6484.793177
6286.640509
6079.983066
5884.435289
5683.590732
5485.843837
5285.334804
5087.167657
4884.23541
4684.54805
4485.962472
4281.451518
4080.633322
3881.395441
3686.587652
3486.194928
3289.437732
3093.362099
2885.488349
2686.920949
2485.067925
2286.53575
2085.56555
1882.859766
1679.010973
1474.093289
1268.563549
1051.775173
832.6870482
581.6464925
40545.15857
40315.30545
40100.60029
39897.13663
39681.68322
39482.24749
39293.2721
39090.50427
38888.37587
38697.75268
38477.12794
38282.81561
38079.11631
37875.22254
37675.57426
37485.23482
37289.79048
37100.5816
36885.63857
36681.73055
36484.24475
36288.04999
36094.41066
35879.92544
35687.07136
35484.8077
35291.27851
35091.037
34889.92934
34689.84505
34476.29076
34286.74869
34081.94036
33880.92282
33684.61411
33479.34242
33283.36792
33069.99112
32878.3022
32676.41072
32483.66392
32272.56534
32076.6915
31883.32642
31670.26381
31477.63377
31268.34826
31069.70218
30862.29991
30677.90983
30475.20625
30274.24826
30080.87652
29893.50078
29681.36739
29494.41131
29268.60322
29078.46954
28881.70116
28690.07367
28493.87094
28294.02866
28088.05909
27878.32537
27674.1201
27479.06527
27283.41083
27072.5489
26874.10658
26664.67888
26478.36438
26264.90085
26073.66024
25877.49193
25661.09842
25467.3222
25268.16654
25079.39369
24878.85149
24669.05245
24472.15158
24278.35313
24075.3899
23876.9541
23669.87811
23463.06328
23264.34698
23072.20502
22881.81017
22668.57579
22465.02238
22274.66163
22066.5543
21863.24662
21656.52862
21478.33731
21279.08359
21076.90023
20871.66527
20666.97599
20464.06711
20280.38922
20071.30605
19874.06852
19677.41639
19479.24503
19284.61743
19080.40463
18875.34001
18676.45961
18470.67298
18283.7763
18078.51562
17879.90274
17669.77869
17458.11385
17262.56795
17067.77168
16869.96304
16679.54088
16482.93882
16279.25604
16086.87748
15880.92318
15681.30494
15473.13876
15266.39451
15060.92183
14866.03063
14671.84021
14475.96158
14265.2477
14071.1562
13874.35446
13662.04595
13463.4161
13267.42748
13060.9673
12861.10689
12666.97025
12463.43351
12266.80668
12062.91911
11865.19493
11672.50902
11469.01883
11263.945
11062.60526
10870.14144
10668.60042
10462.41996
10272.63497
10066.82169
9870.907085
9672.650837
9465.465182
9265.136209
9073.814092
8872.906345
8669.351466
8472.492121
8272.348496
8080.38392
7862.486194
7669.165603
7465.977167
7273.381114
7074.727133
6874.334883
6676.473016
6478.270975
6276.572832
6079.222952
5884.962486
5685.48557
5487.999054
5280.458907
5086.699621
4888.193986
4685.988852
4482.811746
4282.268485
4077.642721
3886.509705
3686.976283
3487.950866
3287.947545
3085.909363
2884.369118
2687.369533
2488.118364
2286.291986
2084.8981
1884.122376
1681.929379
1477.603517
1264.55614
1052.211509
831.1468032
581.6998123
40569.04204
40338.57823
40113.42387
39892.23702
39699.00648
39477.95589
39290.46832
39086.13091
38887.51491
38672.67118
38481.41471
38283.22662
38075.28431
37875.39384
37682.57412
37492.27496
37296.77042
37084.0368
36876.66317
36662.90447
36484.55149
36285.10201
36079.83589
35889.98032
35671.53525
35475.27518
35282.12773
35081.12227
34884.97596
34674.52481
34474.73343
34267.70416
34077.52402
33889.16666
33669.9236
33478.22055
33285.68741
33084.97901
32874.36226
32681.53952
32493.22434
32272.86048
32077.27167
31871.91485
31676.04828
31463.77509
31272.94672
31088.2316
30874.57334
30679.2487
30475.71176
30283.60527
30072.04191
29880.32916
29675.57369
29467.82884
29267.96134
29075.65888
28869.55821
28687.41841
28483.74498
28295.56788
28079.88068
27881.39162
27678.4801
27478.46749
27270.86523
27076.34653
26876.13595
26678.76183
26473.82351
26276.03743
26074.37296
25864.17404
25673.76844
25476.35696
25281.10981
25071.92233
24883.76663
24663.71219
24463.95483
24282.02197
24073.81153
23877.80936
23682.72495
23481.0902
23278.19675
23062.45731
22869.21329
22668.24316
22465.13411
22268.54585
22051.93014
21872.82787
21666.04788
21470.68881
21280.14167
21057.3392
20870.14716
20657.47952
20460.90948
20278.32951
20081.73921
19872.36036
19676.46991
19471.90329
19272.19858
19068.47638
18867.151
18662.61969
18465.51076
18266.25711
18064.81736
17872.09926
17666.48327
17463.59611
17261.89413
17066.89669
16875.81387
16682.48786
16480.32011
16272.92237
16074.65395
15871.76352
15678.90584
15479.47525
15282.36922
15074.5593
14868.83433
14676.76201
14477.18105
14270.20173
14064.54164
13864.64994
13665.65123
13465.98906
13266.97489
13059.16394
12853.83938
12658.73145
12466.10252
12261.82369
12062.30809
11872.70877
11665.59395
11475.17095
11258.45021
11062.48359
10874.09212
10673.40511
10469.05543
10266.93558
10068.91656
9873.565394
9673.194372
9465.702332
9260.527663
9068.910359
8878.990122
8672.368179
8469.303828
8272.464831
8073.425387
7876.374677
7674.709599
7473.476697
7281.784893
7082.485644
6880.466462
6673.867468
6477.127948
6281.160683
6075.836709
5876.898431
5690.460865
5490.118245
5279.568019
5083.866556
4883.321328
4684.137889
4486.823358
4277.150724
4079.687437
3884.248588
3686.949851
3485.715483
3284.279396
3087.264522
2883.133803
2683.790197
2487.929179
2282.927055
2082.783053
1883.256727
1679.41121
1474.300906
1269.090268
1054.410615
831.379008
578.5887421
)
;

boundaryField
{
    bottom
    {
        type            calculated;
        value           nonuniform List<scalar> 
200
(
40565.44577
40314.51765
40099.77489
39886.93234
39679.2886
39479.39424
39274.53953
39095.72227
38871.16377
38675.92268
38488.79443
38295.09096
38092.05629
37866.6196
37685.1858
37487.29468
37280.53165
37072.73571
36876.01492
36673.01136
36485.98205
36282.14484
36076.39444
35886.99351
35689.39032
35497.08358
35278.3115
35080.40696
34888.58321
34676.7525
34479.36771
34291.59525
34090.53431
33883.66516
33676.98328
33493.34753
33276.13485
33074.45529
32872.65915
32668.87049
32465.50545
32267.01614
32082.95726
31870.72935
31672.20426
31470.96409
31260.44456
31068.70679
30872.20356
30672.07192
30470.67623
30274.07247
30081.54173
29878.41896
29694.18816
29497.1585
29289.2053
29075.42102
28875.16959
28679.63691
28483.32566
28273.82831
28084.8294
27895.58225
27669.22984
27473.58468
27277.65512
27071.80726
26876.23844
26666.06421
26469.16138
26275.12198
26075.97758
25870.93826
25665.42934
25472.20307
25280.98278
25070.77456
24876.4308
24677.26918
24474.77109
24271.65992
24067.05159
23867.92964
23661.06978
23465.31322
23265.82052
23070.76197
22867.49932
22657.9084
22465.17535
22278.25079
22069.95847
21875.33755
21669.00145
21471.25445
21278.80247
21086.62996
20870.98448
20657.92466
20452.64578
20267.80324
20067.94277
19877.14398
19663.01836
19458.2595
19263.00363
19067.28443
18860.09165
18667.04836
18478.58647
18266.84415
18077.62622
17871.63316
17678.96862
17469.1656
17267.66172
17073.61712
16871.76018
16679.42555
16478.57385
16275.97853
16072.08819
15873.20835
15674.01096
15477.50689
15261.56956
15066.54803
14876.17069
14664.41756
14466.4119
14273.13766
14068.54
13867.84848
13678.31961
13486.57609
13272.04745
13067.12908
12864.22005
12670.15913
12457.28256
12266.76387
12070.84223
11869.75394
11664.98048
11464.32978
11267.67053
11071.68333
10871.88495
10675.20785
10480.14191
10276.33062
10073.9126
9871.657606
9664.526549
9465.199018
9267.775704
9068.276976
8876.946099
8666.704432
8472.229979
8271.726987
8071.756325
7873.239877
7680.896264
7483.27882
7280.599794
7079.01877
6875.921044
6681.526826
6482.925334
6284.516715
6085.367338
5880.504499
5674.094633
5485.152416
5287.440253
5081.991258
4884.05301
4684.450994
4488.533364
4287.540421
4083.66278
3882.354188
3686.426746
3485.434862
3278.133769
3083.167419
2882.469876
2685.493868
2484.128371
2284.705796
2080.568496
1884.557122
1680.515714
1473.621737
1265.396888
1054.140845
836.2749146
582.6849238
)
;
    }
    top
    {
        type            calculated;
        value           nonuniform List<scalar> 
200
(
40569.04204
40338.57823
40113.42387
39892.23702
39699.00648
39477.95589
39290.46832
39086.13091
38887.51491
38672.67118
38481.41471
38283.22662
38075.28431
37875.39384
37682.57412
37492.27496
37296.77042
37084.0368
36876.66317
36662.90447
36484.55149
36285.10201
36079.83589
35889.98032
35671.53525
35475.27518
35282.12773
35081.12227
34884.97596
34674.52481
34474.73343
34267.70416
34077.52402
33889.16666
33669.9236
33478.22055
33285.68741
33084.97901
32874.36226
32681.53952
32493.22434
32272.86048
32077.27167
31871.91485
31676.04828
31463.77509
31272.94672
31088.2316
30874.57334
30679.2487
30475.71176
30283.60527
30072.04191
29880.32916
29675.57369
29467.82884
29267.96134
29075.65888
28869.55821
28687.41841
28483.74498
28295.56788
28079.88068
27881.39162
27678.4801
27478.46749
27270.86523
27076.34653
26876.13595
26678.76183
26473.82351
26276.03743
26074.37296
25864.17404
25673.76844
25476.35696
25281.10981
25071.92233
24883.76663
24663.71219
24463.95483
24282.02197
24073.81153
23877.80936
23682.72495
23481.0902
23278.19675
23062.45731
22869.21329
22668.24316
22465.13411
22268.54585
22051.93014
21872.82787
21666.04788
21470.68881
21280.14167
21057.3392
20870.14716
20657.47952
20460.90948
20278.32951
20081.73921
19872.36036
19676.46991
19471.90329
19272.19858
19068.47638
18867.151
18662.61969
18465.51076
18266.25711
18064.81736
17872.09926
17666.48327
17463.59611
17261.89413
17066.89669
16875.81387
16682.48786
16480.32011
16272.92237
16074.65395
15871.76352
15678.90584
15479.47525
15282.36922
15074.5593
14868.83433
14676.76201
14477.18105
14270.20173
14064.54164
13864.64994
13665.65123
13465.98906
13266.97489
13059.16394
12853.83938
12658.73145
12466.10252
12261.82369
12062.30809
11872.70877
11665.59395
11475.17095
11258.45021
11062.48359
10874.09212
10673.40511
10469.05543
10266.93558
10068.91656
9873.565394
9673.194372
9465.702332
9260.527663
9068.910359
8878.990122
8672.368179
8469.303828
8272.464831
8073.425387
7876.374677
7674.709599
7473.476697
7281.784893
7082.485644
6880.466462
6673.867468
6477.127948
6281.160683
6075.836709
5876.898431
5690.460865
5490.118245
5279.568019
5083.866556
4883.321328
4684.137889
4486.823358
4277.150724
4079.687437
3884.248588
3686.949851
3485.715483
3284.279396
3087.264522
2883.133803
2683.790197
2487.929179
2282.927055
2082.783053
1883.256727
1679.41121
1474.300906
1269.090268
1054.410615
831.379008
578.5887421
)
;
    }
    inlet
    {
        type            calculated;
        value           nonuniform List<scalar> 5(40565.44577 40560.69578 40558.3967 40545.15857 40569.04204);
    }
    outlet
    {
        type            calculated;
        value           nonuniform List<scalar> 5(582.6849238 581.4504185 581.6464925 581.6998123 578.5887421);
    }
    back
    {
        type            symmetry;
    }
    front
    {
        type            symmetry;
    }
}


// ************************************************************************* //
