/*--------------------------------*- C++ -*----------------------------------*\
| =========                 |                                                 |
| \\      /  F ield         | OpenFOAM: The Open Source CFD Toolbox           |
|  \\    /   O peration     | Version:  v1612+                                |
|   \\  /    A nd           | Web:      www.OpenFOAM.com                      |
|    \\/     M anipulation  |                                                 |
\*---------------------------------------------------------------------------*/
FoamFile
{
    version     2.0;
    format      ascii;
    class       volScalarField;
    location    "4.78";
    object      mfpCellRatio_Ar1;
}
// * * * * * * * * * * * * * * * * * * * * * * * * * * * * * * * * * * * * * //

dimensions      [0 0 0 0 0 0 0];

internalField   nonuniform List<scalar> 
1000
(
1.875319246
1.887117831
1.897430905
1.907346477
1.917226146
1.927517673
1.93765769
1.946045688
1.957171998
1.967275887
1.976880039
1.986661763
1.997320617
2.009173062
2.018709238
2.029699794
2.041266013
2.052518157
2.063684015
2.07445354
2.085009682
2.096780898
2.108939845
2.120247231
2.13156937
2.143179525
2.156698901
2.168737093
2.180621782
2.194082996
2.206424659
2.218501306
2.231366103
2.24532975
2.259166473
2.271490529
2.286164974
2.300398043
2.314331874
2.329181497
2.343867849
2.358250964
2.371669848
2.387681904
2.402379948
2.417922001
2.433603221
2.448836346
2.464869552
2.480903479
2.497023528
2.513234636
2.529015107
2.546446119
2.562246824
2.57914458
2.597656551
2.616672673
2.635275573
2.652522944
2.670716934
2.690845801
2.709011166
2.726942469
2.749801181
2.769011816
2.789167436
2.810698571
2.830220037
2.853679393
2.874158606
2.895248608
2.917730241
2.940633944
2.96468049
2.986747531
3.009019741
3.034840814
3.057795487
3.082887599
3.108329525
3.13489835
3.161471538
3.188071498
3.215789869
3.243157107
3.27037304
3.2977444
3.327198807
3.359105659
3.387475939
3.415446102
3.448105354
3.478220293
3.511722591
3.543694704
3.57569755
3.608489395
3.646016021
3.683683482
3.720589171
3.755705144
3.791707292
3.828797393
3.870061407
3.911066143
3.950963675
3.990890512
4.03569099
4.076141751
4.118329038
4.166200103
4.20809911
4.25683719
4.303036356
4.355793539
4.406368562
4.456944351
4.510519601
4.562402197
4.617387385
4.675642558
4.734766742
4.793908548
4.855711636
4.916544123
4.986140789
5.050232506
5.114924978
5.191483331
5.260550863
5.331672396
5.409567978
5.487897021
5.562276237
5.641825471
5.733096359
5.822139009
5.914584461
6.005460156
6.108258778
6.203216229
6.303976309
6.407822567
6.522047041
6.637468497
6.752444574
6.872242815
6.997640605
7.125874447
7.25916473
7.402908978
7.553120622
7.708017657
7.872888228
8.039603721
8.21047565
8.390621212
8.570595148
8.778643623
8.979389902
9.197928255
9.421353035
9.65967651
9.904252744
10.16601131
10.44784343
10.74386428
11.06538086
11.38113721
11.73126477
12.102811
12.49425291
12.93150041
13.40683953
13.86196768
14.37812991
14.95951286
15.56693018
16.22491032
16.92980716
17.72397551
18.60448386
19.58324485
20.60820106
21.79581285
23.17732644
24.62296208
26.32841135
28.24562122
30.52435622
33.16291529
36.39895773
40.14595672
44.97985337
51.22936382
59.51200098
71.12444944
89.03231256
125.8031089
1.875423689
1.886604292
1.896423669
1.907152381
1.917092178
1.927631986
1.937646398
1.947144544
1.956797126
1.967346224
1.976704131
1.987000801
1.997937534
2.008354313
2.018599747
2.029639947
2.040660392
2.051945762
2.063296115
2.074522014
2.085345695
2.096536348
2.107745379
2.119545482
2.132005822
2.14414836
2.155990624
2.167660592
2.180729717
2.194549737
2.206796681
2.220020588
2.232498151
2.246511062
2.259547773
2.272847597
2.285451782
2.300816455
2.315230223
2.32964156
2.343525307
2.358610414
2.371421667
2.38752776
2.402473356
2.417375033
2.433548268
2.449135914
2.464430962
2.480534911
2.495833895
2.51257552
2.529462848
2.546057726
2.562198673
2.580210224
2.597359854
2.616967942
2.635722461
2.651817539
2.670718995
2.690041
2.708727658
2.728402957
2.747701662
2.768638129
2.789348153
2.810832164
2.830395509
2.852832771
2.87472928
2.896888985
2.919477485
2.941957415
2.964282499
2.986084403
3.010077312
3.035696682
3.059156311
3.082609677
3.109238084
3.134299108
3.160558411
3.186690934
3.215597342
3.241539
3.270653767
3.298011169
3.326614066
3.356281175
3.386658572
3.41731701
3.44727536
3.478148069
3.511241165
3.543961712
3.579187046
3.609889575
3.646345506
3.684179581
3.720558831
3.755390741
3.791521231
3.830257395
3.871156951
3.909926858
3.948071096
3.98865814
4.033003228
4.075873163
4.11959431
4.16184879
4.208650078
4.258132182
4.304596705
4.354596929
4.40719924
4.458031164
4.512030339
4.563801683
4.616097688
4.675680701
4.731175155
4.793073393
4.853995871
4.918733244
4.984897507
5.047980706
5.115308775
5.186524562
5.262432775
5.334016743
5.412172401
5.488017647
5.56607829
5.647336883
5.730280593
5.823260273
5.913362822
6.006467747
6.104250255
6.196460892
6.30409876
6.411850157
6.522111562
6.634996544
6.750924244
6.877767627
7.002777921
7.126912311
7.261218587
7.40365222
7.556308386
7.707247074
7.871281088
8.027457109
8.213295738
8.388437499
8.577463215
8.777665152
8.977683308
9.205170798
9.42306173
9.660490734
9.912956748
10.16934555
10.45308535
10.74532134
11.06057325
11.38393504
11.71995949
12.10477989
12.49377767
12.93494537
13.38681834
13.87294819
14.38560743
14.95505138
15.5642582
16.22753751
16.93724839
17.7335519
18.60996639
19.55125512
20.5960052
21.78323747
23.13307576
24.57210973
26.30212442
28.21218014
30.48615344
33.12547336
36.32204686
40.1383153
44.95108008
51.25625979
59.57491874
71.13059533
89.41007033
126.1303938
1.875758149
1.887349076
1.896966905
1.90723679
1.917332279
1.926978673
1.937503754
1.947287749
1.957530812
1.966216715
1.97694387
1.986291053
1.998548578
2.008756985
2.019415192
2.030367483
2.040092045
2.050570489
2.062060808
2.074422845
2.085349493
2.097222129
2.109506523
2.12049453
2.132027324
2.144154513
2.156479299
2.167856392
2.181141657
2.194189059
2.206886937
2.21969409
2.232371775
2.245519465
2.258758564
2.271483648
2.286220181
2.300074533
2.314694073
2.32986568
2.34323817
2.357868748
2.371942809
2.386222869
2.401478481
2.418530981
2.433693855
2.450020591
2.464998336
2.481519857
2.496174485
2.513698167
2.529962981
2.545241341
2.563207965
2.57974873
2.597152217
2.617797259
2.634343617
2.652195739
2.671042871
2.688756505
2.708278082
2.727789904
2.74898141
2.769418531
2.790344154
2.810213168
2.831092826
2.852904661
2.874092587
2.897190294
2.918939089
2.940667593
2.963966543
2.98730107
3.00943768
3.03529975
3.059810324
3.083804139
3.109636703
3.13410993
3.15993973
3.187102233
3.214564115
3.241565215
3.268947637
3.299079044
3.32555699
3.357050387
3.387008617
3.417408428
3.447471341
3.479074963
3.510092822
3.54553188
3.578729343
3.613104481
3.646057191
3.684846068
3.719100105
3.755033028
3.793360616
3.829843557
3.86809124
3.906351663
3.947368952
3.987936119
4.031224059
4.076792628
4.120920452
4.163894658
4.211049517
4.260261204
4.310629678
4.359325681
4.406208225
4.457546257
4.510760232
4.564961806
4.621471789
4.677460888
4.733419797
4.792937179
4.855030717
4.915967696
4.984152032
5.052821382
5.116278953
5.185327
5.258402982
5.332154368
5.411247133
5.486178818
5.564674169
5.646355461
5.732115388
5.820066424
5.915179516
6.007399233
6.104903324
6.199903156
6.305058661
6.412873345
6.523561902
6.636961414
6.758644354
6.877742949
7.002817836
7.137452911
7.268608659
7.411535348
7.557536768
7.712839036
7.867826175
8.031989111
8.220474254
8.391468031
8.573755207
8.780847647
8.982474612
9.192318207
9.417902921
9.657115576
9.915106751
10.18326623
10.46701999
10.75162845
11.05856241
11.38417722
11.72765357
12.09967859
12.51488499
12.92010335
13.37658101
13.8597111
14.38991725
14.94223893
15.56629894
16.22899249
16.94195908
17.75358304
18.62772368
19.57955326
20.60007007
21.78582279
23.08581661
24.53558216
26.29336771
28.23928951
30.50271399
33.13843161
36.30984335
40.18763783
45.01209378
51.16258374
59.33036361
71.35062678
89.4114692
126.1194732
1.876381814
1.887363788
1.897074449
1.90702278
1.917327826
1.927101182
1.935950178
1.946326966
1.956316351
1.96598857
1.97721376
1.987410684
1.99807765
2.008755855
2.019329125
2.029554445
2.040585177
2.050421684
2.062441211
2.074308562
2.085422909
2.09674408
2.107749214
2.120642835
2.132124585
2.144147055
2.155994581
2.167957048
2.180352038
2.193420722
2.206922512
2.218684156
2.232204657
2.24492531
2.258164132
2.272234153
2.28578221
2.300749904
2.314087674
2.328398133
2.342347381
2.357785907
2.371849989
2.386586997
2.402679847
2.417589788
2.433745225
2.449386318
2.465860873
2.480428048
2.497137099
2.513428486
2.529043641
2.544963191
2.563376766
2.579387563
2.599263659
2.616352082
2.634391206
2.651724692
2.670380321
2.688300094
2.708331703
2.728950296
2.748633
2.769213712
2.788190523
2.810133603
2.831651328
2.853609566
2.873476198
2.897031312
2.918101654
2.940301049
2.964797824
2.987356378
3.011091261
3.033873578
3.058085719
3.084415252
3.108611086
3.133128706
3.159764093
3.186022169
3.214250938
3.242516713
3.270257359
3.298335221
3.324982424
3.356387313
3.387131281
3.415380361
3.447811786
3.480860657
3.513812608
3.54285695
3.57638905
3.610331933
3.6467126
3.682995388
3.718798483
3.752490278
3.792223829
3.828749285
3.867209801
3.907146551
3.945682524
3.987576839
4.0311446
4.074831334
4.11994261
4.162254265
4.208984326
4.255680823
4.307470532
4.358256722
4.408752679
4.459056749
4.510619839
4.562676867
4.616471075
4.67407602
4.730824941
4.791314698
4.852565419
4.918956639
4.98471844
5.052479504
5.11908022
5.18751383
5.256399531
5.335186296
5.408189642
5.484916338
5.568980278
5.652714001
5.734672016
5.825837261
5.916555404
6.006729293
6.104689276
6.202959449
6.308842123
6.412113622
6.517640223
6.634087662
6.757209293
6.877889809
7.000451581
7.133548779
7.272194928
7.406660033
7.557114491
7.707561392
7.866009524
8.038790996
8.210259451
8.379519058
8.57498057
8.773162888
8.980598309
9.196556437
9.415749345
9.676607379
9.923683001
10.18744934
10.45963604
10.75262645
11.06581733
11.39116434
11.74332673
12.11600581
12.50598957
12.92212939
13.37202351
13.84725591
14.4036895
14.94919234
15.55208954
16.22690066
16.96070625
17.75165817
18.64494816
19.55328591
20.59897677
21.7706104
23.09480034
24.61703306
26.30977383
28.23109007
30.46867606
33.13413019
36.32874645
40.15115759
44.90765296
51.06938741
59.4593283
71.24783496
89.69920194
126.062186
1.87534295
1.886173512
1.896676812
1.907381938
1.916387959
1.9272225
1.936538332
1.946801392
1.956580715
1.967341968
1.976973765
1.987380402
1.998281401
2.008629127
2.018880769
2.029001809
2.03970065
2.051504153
2.063126525
2.075498342
2.085511636
2.097091871
2.109288639
2.119817127
2.133035495
2.144844129
2.156462199
2.168571643
2.180751682
2.19446982
2.207276027
2.220433034
2.232728877
2.244655113
2.259435327
2.271980737
2.28542037
2.299568597
2.314692563
2.328127527
2.341727456
2.357517609
2.37202552
2.38735369
2.401932002
2.418533818
2.433297586
2.447367886
2.464417341
2.479963324
2.49677339
2.512086569
2.529902782
2.54621127
2.564303773
2.582060929
2.600007346
2.61681655
2.635671492
2.653435873
2.671208302
2.688787517
2.709877374
2.729036206
2.747996389
2.768776859
2.789902447
2.810527186
2.831344655
2.852146458
2.873951811
2.895673635
2.918570428
2.942174051
2.963666087
2.985556254
3.009371265
3.034203201
3.057088512
3.084774849
3.10954102
3.132641
3.159998137
3.185609511
3.211288369
3.238665995
3.268129816
3.299433009
3.326854587
3.356645864
3.387156227
3.416841462
3.450750335
3.4777552
3.512689745
3.543852629
3.575784437
3.613820706
3.64689219
3.684677806
3.719732373
3.752724467
3.789084467
3.829475103
3.866675975
3.908680302
3.948775177
3.991359035
4.033384706
4.077445956
4.120213522
4.166652538
4.211853098
4.258086507
4.308070483
4.357473635
4.407568427
4.458873683
4.510466662
4.561870184
4.617452642
4.676352335
4.733037372
4.794113963
4.852990504
4.91652828
4.979675507
5.047971236
5.11823124
5.185526613
5.2563835
5.332557111
5.410097113
5.489732057
5.568444713
5.650219895
5.73481161
5.826744043
5.919818538
6.011433832
6.10389052
6.205657697
6.309360583
6.409696342
6.52113064
6.63154868
6.760245271
6.877302544
6.996931698
7.12833276
7.267328897
7.410153653
7.557270114
7.705168243
7.865200226
8.039890303
8.215285886
8.384870563
8.568308586
8.773523766
8.983281983
9.200037849
9.42339398
9.657210262
9.909809681
10.17896708
10.44020711
10.73805884
11.05483778
11.39935811
11.7406834
12.11021024
12.51969301
12.93909229
13.35789553
13.84807021
14.40097172
14.95504286
15.56600089
16.23369369
16.94252989
17.77094227
18.62682863
19.5554326
20.60208204
21.7921936
23.12581305
24.59794025
26.33009133
28.27246576
30.48877545
33.19693045
36.37413046
40.18808161
44.99228101
51.15544295
59.28382482
71.16836794
89.65041925
126.6741896
)
;

boundaryField
{
    bottom
    {
        type            calculated;
        value           nonuniform List<scalar> 
200
(
1.875319246
1.887117831
1.897430905
1.907346477
1.917226146
1.927517673
1.93765769
1.946045688
1.957171998
1.967275887
1.976880039
1.986661763
1.997320617
2.009173062
2.018709238
2.029699794
2.041266013
2.052518157
2.063684015
2.07445354
2.085009682
2.096780898
2.108939845
2.120247231
2.13156937
2.143179525
2.156698901
2.168737093
2.180621782
2.194082996
2.206424659
2.218501306
2.231366103
2.24532975
2.259166473
2.271490529
2.286164974
2.300398043
2.314331874
2.329181497
2.343867849
2.358250964
2.371669848
2.387681904
2.402379948
2.417922001
2.433603221
2.448836346
2.464869552
2.480903479
2.497023528
2.513234636
2.529015107
2.546446119
2.562246824
2.57914458
2.597656551
2.616672673
2.635275573
2.652522944
2.670716934
2.690845801
2.709011166
2.726942469
2.749801181
2.769011816
2.789167436
2.810698571
2.830220037
2.853679393
2.874158606
2.895248608
2.917730241
2.940633944
2.96468049
2.986747531
3.009019741
3.034840814
3.057795487
3.082887599
3.108329525
3.13489835
3.161471538
3.188071498
3.215789869
3.243157107
3.27037304
3.2977444
3.327198807
3.359105659
3.387475939
3.415446102
3.448105354
3.478220293
3.511722591
3.543694704
3.57569755
3.608489395
3.646016021
3.683683482
3.720589171
3.755705144
3.791707292
3.828797393
3.870061407
3.911066143
3.950963675
3.990890512
4.03569099
4.076141751
4.118329038
4.166200103
4.20809911
4.25683719
4.303036356
4.355793539
4.406368562
4.456944351
4.510519601
4.562402197
4.617387385
4.675642558
4.734766742
4.793908548
4.855711636
4.916544123
4.986140789
5.050232506
5.114924978
5.191483331
5.260550863
5.331672396
5.409567978
5.487897021
5.562276237
5.641825471
5.733096359
5.822139009
5.914584461
6.005460156
6.108258778
6.203216229
6.303976309
6.407822567
6.522047041
6.637468497
6.752444574
6.872242815
6.997640605
7.125874447
7.25916473
7.402908978
7.553120622
7.708017657
7.872888228
8.039603721
8.21047565
8.390621212
8.570595148
8.778643623
8.979389902
9.197928255
9.421353035
9.65967651
9.904252744
10.16601131
10.44784343
10.74386428
11.06538086
11.38113721
11.73126477
12.102811
12.49425291
12.93150041
13.40683953
13.86196768
14.37812991
14.95951286
15.56693018
16.22491032
16.92980716
17.72397551
18.60448386
19.58324485
20.60820106
21.79581285
23.17732644
24.62296208
26.32841135
28.24562122
30.52435622
33.16291529
36.39895773
40.14595672
44.97985337
51.22936382
59.51200098
71.12444944
89.03231256
125.8031089
)
;
    }
    top
    {
        type            calculated;
        value           nonuniform List<scalar> 
200
(
1.87534295
1.886173512
1.896676812
1.907381938
1.916387959
1.9272225
1.936538332
1.946801392
1.956580715
1.967341968
1.976973765
1.987380402
1.998281401
2.008629127
2.018880769
2.029001809
2.03970065
2.051504153
2.063126525
2.075498342
2.085511636
2.097091871
2.109288639
2.119817127
2.133035495
2.144844129
2.156462199
2.168571643
2.180751682
2.19446982
2.207276027
2.220433034
2.232728877
2.244655113
2.259435327
2.271980737
2.28542037
2.299568597
2.314692563
2.328127527
2.341727456
2.357517609
2.37202552
2.38735369
2.401932002
2.418533818
2.433297586
2.447367886
2.464417341
2.479963324
2.49677339
2.512086569
2.529902782
2.54621127
2.564303773
2.582060929
2.600007346
2.61681655
2.635671492
2.653435873
2.671208302
2.688787517
2.709877374
2.729036206
2.747996389
2.768776859
2.789902447
2.810527186
2.831344655
2.852146458
2.873951811
2.895673635
2.918570428
2.942174051
2.963666087
2.985556254
3.009371265
3.034203201
3.057088512
3.084774849
3.10954102
3.132641
3.159998137
3.185609511
3.211288369
3.238665995
3.268129816
3.299433009
3.326854587
3.356645864
3.387156227
3.416841462
3.450750335
3.4777552
3.512689745
3.543852629
3.575784437
3.613820706
3.64689219
3.684677806
3.719732373
3.752724467
3.789084467
3.829475103
3.866675975
3.908680302
3.948775177
3.991359035
4.033384706
4.077445956
4.120213522
4.166652538
4.211853098
4.258086507
4.308070483
4.357473635
4.407568427
4.458873683
4.510466662
4.561870184
4.617452642
4.676352335
4.733037372
4.794113963
4.852990504
4.91652828
4.979675507
5.047971236
5.11823124
5.185526613
5.2563835
5.332557111
5.410097113
5.489732057
5.568444713
5.650219895
5.73481161
5.826744043
5.919818538
6.011433832
6.10389052
6.205657697
6.309360583
6.409696342
6.52113064
6.63154868
6.760245271
6.877302544
6.996931698
7.12833276
7.267328897
7.410153653
7.557270114
7.705168243
7.865200226
8.039890303
8.215285886
8.384870563
8.568308586
8.773523766
8.983281983
9.200037849
9.42339398
9.657210262
9.909809681
10.17896708
10.44020711
10.73805884
11.05483778
11.39935811
11.7406834
12.11021024
12.51969301
12.93909229
13.35789553
13.84807021
14.40097172
14.95504286
15.56600089
16.23369369
16.94252989
17.77094227
18.62682863
19.5554326
20.60208204
21.7921936
23.12581305
24.59794025
26.33009133
28.27246576
30.48877545
33.19693045
36.37413046
40.18808161
44.99228101
51.15544295
59.28382482
71.16836794
89.65041925
126.6741896
)
;
    }
    inlet
    {
        type            calculated;
        value           nonuniform List<scalar> 5(1.875319246 1.875423689 1.875758149 1.876381814 1.87534295);
    }
    outlet
    {
        type            calculated;
        value           nonuniform List<scalar> 5(125.8031089 126.1303938 126.1194732 126.062186 126.6741896);
    }
    back
    {
        type            symmetry;
    }
    front
    {
        type            symmetry;
    }
}


// ************************************************************************* //
