/*--------------------------------*- C++ -*----------------------------------*\
| =========                 |                                                 |
| \\      /  F ield         | OpenFOAM: The Open Source CFD Toolbox           |
|  \\    /   O peration     | Version:  v1612+                                |
|   \\  /    A nd           | Web:      www.OpenFOAM.com                      |
|    \\/     M anipulation  |                                                 |
\*---------------------------------------------------------------------------*/
FoamFile
{
    version     2.0;
    format      ascii;
    class       volScalarField;
    location    "4.78";
    object      mfpCellRatio_mix;
}
// * * * * * * * * * * * * * * * * * * * * * * * * * * * * * * * * * * * * * //

dimensions      [0 0 0 0 0 0 0];

internalField   nonuniform List<scalar> 
1000
(
1.848932069
1.849070384
1.848869539
1.848666466
1.848534242
1.848955584
1.848978946
1.847558989
1.848450451
1.848450731
1.848037382
1.847260516
1.847548812
1.848656103
1.847853213
1.847995705
1.848902611
1.849130622
1.848934638
1.848455001
1.847924961
1.848088041
1.848534931
1.848395581
1.847929765
1.847762121
1.848538698
1.848367419
1.848038533
1.848818311
1.848442799
1.847522592
1.847362559
1.84781626
1.848119086
1.84726853
1.847947781
1.848130696
1.848198956
1.848653079
1.848951382
1.848931589
1.84829093
1.848801421
1.849188303
1.848714834
1.849092621
1.848845672
1.848854896
1.849125677
1.849394262
1.848853542
1.848106659
1.848726185
1.847380597
1.847331247
1.84775135
1.848278456
1.848254593
1.847763324
1.847251553
1.847827033
1.847745121
1.847053901
1.848543126
1.848225461
1.847883902
1.84864015
1.84835649
1.848985391
1.84879848
1.848356251
1.848628846
1.848776449
1.84904148
1.848894504
1.847567774
1.848593514
1.847833767
1.847982001
1.848401734
1.848324687
1.84884528
1.848587076
1.848999753
1.849282556
1.848776305
1.848873862
1.849506984
1.849918092
1.849133631
1.848699261
1.84976798
1.849236125
1.849647531
1.849365724
1.848975302
1.848948332
1.849743139
1.850090487
1.850421214
1.850378709
1.849707284
1.848764732
1.849963825
1.850186129
1.849248312
1.84984637
1.849916712
1.84911999
1.848772076
1.849639061
1.848011638
1.84923862
1.849325165
1.849389642
1.849352736
1.848666741
1.849331235
1.849031444
1.849142846
1.850196027
1.84942249
1.849947216
1.849926375
1.849322337
1.850090502
1.850122178
1.84894287
1.850225914
1.850295226
1.849466958
1.850217307
1.849061023
1.849211429
1.848935424
1.849718967
1.849554263
1.848827101
1.848793158
1.849655947
1.84908975
1.84912967
1.848726864
1.849268898
1.849547896
1.849144425
1.848907175
1.849852454
1.849016349
1.849163471
1.848971279
1.848897699
1.848956911
1.849235313
1.849480873
1.84856426
1.849096064
1.849461843
1.849066761
1.849361996
1.848888011
1.849162473
1.849601744
1.849732194
1.849424541
1.848650431
1.848317908
1.848332914
1.848882104
1.848067986
1.848150363
1.848676162
1.849294327
1.849740498
1.848976806
1.849305996
1.849065454
1.848900012
1.849527296
1.849559915
1.849401219
1.849661857
1.849287482
1.849738461
1.849780001
1.84930911
1.848872824
1.849617539
1.849206295
1.849562256
1.849699514
1.849800535
1.849461639
1.848611945
1.848299215
1.84855168
1.848264511
1.848565691
1.84890574
1.849063283
1.848519332
1.847964197
1.848434311
1.848341818
1.848970622
1.849095152
1.848347389
1.848082954
1.848336656
1.84760133
1.847656787
1.847943093
1.847966659
1.847727865
1.84801886
1.848056631
1.848290283
1.848357493
1.848567676
1.847932255
1.847975935
1.847693071
1.847891803
1.848283679
1.848359702
1.848082685
1.847651557
1.848089239
1.849085781
1.848522384
1.848584855
1.847918631
1.848739901
1.848689204
1.848198589
1.847644928
1.848612447
1.848832083
1.849123166
1.849124096
1.849208702
1.848283281
1.848676516
1.848831512
1.848468716
1.848456035
1.848774429
1.848487936
1.848594409
1.848245855
1.848048303
1.848000315
1.848069517
1.847234676
1.847827355
1.847842262
1.848269098
1.84851573
1.847406728
1.847785329
1.847945167
1.847207549
1.84776039
1.847561515
1.848216626
1.848007449
1.848794605
1.848206731
1.848471396
1.848523606
1.84873452
1.848549205
1.848826583
1.848663572
1.848350161
1.848354476
1.849303477
1.848580554
1.848089002
1.849206469
1.84832713
1.848355297
1.848204809
1.849069275
1.848781645
1.84903047
1.849023222
1.848600204
1.848581236
1.848965962
1.849476091
1.849489315
1.849535767
1.849257907
1.849779173
1.850007294
1.849235816
1.849493727
1.850179966
1.849647316
1.849889232
1.84949403
1.849162753
1.849343463
1.84983872
1.849582679
1.849150028
1.848993904
1.848376866
1.849636172
1.848815059
1.849199875
1.849534516
1.848920489
1.849307099
1.84963625
1.848925584
1.849880863
1.850163629
1.848845477
1.848757007
1.848800001
1.84971513
1.850035536
1.849544471
1.849402788
1.849507612
1.8491375
1.849945711
1.850088517
1.849860852
1.849653765
1.849725312
1.849275838
1.848951085
1.84929057
1.849325684
1.848777501
1.84899113
1.849092978
1.848557134
1.849689147
1.849220688
1.849401671
1.849364814
1.849066172
1.849540774
1.849452963
1.848627894
1.848404866
1.849013989
1.849215622
1.849422134
1.850053928
1.84852085
1.849321011
1.84913025
1.849209591
1.849272153
1.848474394
1.849419318
1.849431596
1.849048378
1.849026417
1.848886314
1.848685252
1.848557586
1.848727195
1.847620124
1.847371262
1.847587536
1.848789728
1.848553179
1.849141318
1.849181876
1.849508433
1.849473927
1.848897375
1.84899081
1.848738312
1.849426127
1.849463078
1.849464807
1.849312595
1.849200613
1.849157026
1.848790978
1.848892672
1.848853454
1.848573289
1.848717507
1.848770831
1.847742532
1.848633881
1.848351376
1.849122642
1.848781451
1.848303634
1.848978041
1.849350175
1.849248226
1.848408266
1.848629758
1.848703853
1.848382563
1.849029972
1.848811779
1.848858228
1.84747353
1.847920457
1.84708819
1.848715086
1.848398689
1.848514156
1.848917749
1.847684413
1.847371664
1.847601483
1.84859747
1.848206096
1.84847974
1.849009376
1.848460179
1.847878
1.848146314
1.848524855
1.847701166
1.848427615
1.848570599
1.848810365
1.848862606
1.8481059
1.848211799
1.848238572
1.847173054
1.848124066
1.848520803
1.848819916
1.849608733
1.848713808
1.848366272
1.848164107
1.847858595
1.84800121
1.848858263
1.84886261
1.849597706
1.84900758
1.849272764
1.848209583
1.848561858
1.848283752
1.847987335
1.847856767
1.847040589
1.847575552
1.849188453
1.848201682
1.847889805
1.848204528
1.847310431
1.847637807
1.847619057
1.848270706
1.848577362
1.848798315
1.848363427
1.848688219
1.848717127
1.847834912
1.848728473
1.848983849
1.848374363
1.8487202
1.848382731
1.847942384
1.848876569
1.848763281
1.848472741
1.848987344
1.849078563
1.848172336
1.848463135
1.848565681
1.847816314
1.848562604
1.848948447
1.848169107
1.84887216
1.848855375
1.849632673
1.849169612
1.84949355
1.84861386
1.849555212
1.849537991
1.849543454
1.84911189
1.850429345
1.849753733
1.849759543
1.850349437
1.849470216
1.849354062
1.848457269
1.849383502
1.848898606
1.84878752
1.848581071
1.849214489
1.849231594
1.84968087
1.849742258
1.849568679
1.848989161
1.849745707
1.849438248
1.849609249
1.850254653
1.849757698
1.8493772
1.849199036
1.849043831
1.849709957
1.849225815
1.84999714
1.849631643
1.849254287
1.849935406
1.849963581
1.84938854
1.849978301
1.849418124
1.848898728
1.849198171
1.849293402
1.849115775
1.849245238
1.848469005
1.849671678
1.848562957
1.849095159
1.848841637
1.849831841
1.849487557
1.849616786
1.849375506
1.849614779
1.84935389
1.848375619
1.849070352
1.84954748
1.849346867
1.84978727
1.848717425
1.849354816
1.84823707
1.849200465
1.849406368
1.849235667
1.849018053
1.848544554
1.849347954
1.849828507
1.849478518
1.849811504
1.848663779
1.849153452
1.848123682
1.848590903
1.848142986
1.849123381
1.848834074
1.848694754
1.848318725
1.849407516
1.848772833
1.849789294
1.848686414
1.849557801
1.849517317
1.849455327
1.849339423
1.848958169
1.849125257
1.849120125
1.84858006
1.849362779
1.849229553
1.848723176
1.848852675
1.849147904
1.849156448
1.849372633
1.849430155
1.849685323
1.848969459
1.848892041
1.849004321
1.850162663
1.849310052
1.848602941
1.848340353
1.848671102
1.848644617
1.847489987
1.84772745
1.847633143
1.847204361
1.848288242
1.848063229
1.84830287
1.848486552
1.848427859
1.848220817
1.848226105
1.847355542
1.848121811
1.848527339
1.848225277
1.848163584
1.847798546
1.848545151
1.848092667
1.848097502
1.848218837
1.847728226
1.847708474
1.848219397
1.848480935
1.847796671
1.848154799
1.847833726
1.84766086
1.848140442
1.84775493
1.848589677
1.848201956
1.848428694
1.84806442
1.848671783
1.847993002
1.848272077
1.848786789
1.848728977
1.849033796
1.84936032
1.849677757
1.848599389
1.848849346
1.848825888
1.847821678
1.847173144
1.847698151
1.846954201
1.848527795
1.848226698
1.847923195
1.847030564
1.847548865
1.847295563
1.847606632
1.848031675
1.847807639
1.848489098
1.847570442
1.848467819
1.848554924
1.848681372
1.848123582
1.849083272
1.84858858
1.848228379
1.849350247
1.848194914
1.848586916
1.848248315
1.848403602
1.848625029
1.84810323
1.847656415
1.848404141
1.848387302
1.848395888
1.848717446
1.84843183
1.848954032
1.848435768
1.849063231
1.849488228
1.849085868
1.849335367
1.849578339
1.849892776
1.849849619
1.848907712
1.84885085
1.84941234
1.850056641
1.849650483
1.849289213
1.849820653
1.849669207
1.849478771
1.849043231
1.84875213
1.849179715
1.848473745
1.849179772
1.849566272
1.848982278
1.848915919
1.848603218
1.849246742
1.849440259
1.849622558
1.850377401
1.849850942
1.849373948
1.849232972
1.849366622
1.849143402
1.849451313
1.84906051
1.850060969
1.850064458
1.850119186
1.849552241
1.849245556
1.849013371
1.849315384
1.849758375
1.849594625
1.85001506
1.849900119
1.848790333
1.849055326
1.848429018
1.849079551
1.849315032
1.849379455
1.849653227
1.848892699
1.84919567
1.849557275
1.849629063
1.849613549
1.849702231
1.84914511
1.848540742
1.848763271
1.849032072
1.848942237
1.848496014
1.848358945
1.848662663
1.84861384
1.849234056
1.849017896
1.8493246
1.849057592
1.84872245
1.849638802
1.84899821
1.849900447
1.849628085
1.849251526
1.849654387
1.848875669
1.848634489
1.848512809
1.848777697
1.848543798
1.848569088
1.848730288
1.850446796
1.848900019
1.849712727
1.849525214
1.849424911
1.849965963
1.849821075
1.849066709
1.849780708
1.848868725
1.848754983
1.849079223
1.849157726
1.848942179
1.849138798
1.848744672
1.84918554
1.84908842
1.849412997
1.848793569
1.848897341
1.849800853
1.849324726
1.848634008
1.849086771
1.848159919
1.848094077
1.848672437
1.847777355
1.848648062
1.847869658
1.848118213
1.847833178
1.84843431
1.848202413
1.848163197
1.848629818
1.848490217
1.847913482
1.847449908
1.847508379
1.848125129
1.848622606
1.849596819
1.848282859
1.848768729
1.849062458
1.848216174
1.848970112
1.848618191
1.848264606
1.848113495
1.847736926
1.848763898
1.849117482
1.849067221
1.848205994
1.847483822
1.848455638
1.848578461
1.847827284
1.847725898
1.848440955
1.847896179
1.84789313
1.848853085
1.848604503
1.848432936
1.848063279
1.849205556
1.848302916
1.848175392
1.849081315
1.848805367
1.849229876
1.848332144
1.848435823
1.848139596
1.848789133
1.848389465
1.848979174
1.84844692
1.848884269
1.848417459
1.848227037
1.847637305
1.848443013
1.848405769
1.847606372
1.848225315
1.848728519
1.848654262
1.848713364
1.848831512
1.848423743
1.848525394
1.848619377
1.849687782
1.848901899
1.848350152
1.847922379
1.8479077
1.847603791
1.848831844
1.848385839
1.847846759
1.848469268
1.848407878
1.848179958
1.847589979
1.848189334
1.848974982
1.8485554
1.848809866
1.849248274
1.848649474
1.850098906
1.849297728
1.849614245
1.849608527
1.849031522
1.849824537
1.849733641
1.849715013
1.850126225
1.849257286
1.848867007
1.849486346
1.848716179
1.849121103
1.84992726
1.849539
1.849098507
1.849632824
1.849445939
1.849410646
1.84900061
1.849057773
1.849218203
1.849530359
1.848872211
1.849791575
1.849658689
1.849216329
1.849434511
1.850152282
1.849567176
1.849312654
1.849205821
1.849407296
1.849155428
1.849557131
1.84932814
1.849076728
1.849598219
1.849450667
1.849452386
1.849583723
1.849553393
1.848539556
1.848632207
1.849042081
1.849317758
1.849473981
1.848640537
1.849130579
1.849158505
1.848601596
1.849221448
1.849272124
1.849955688
1.850174143
1.849878723
1.848525802
1.848938376
1.849187736
1.849153597
1.848761716
1.848654018
1.848623034
1.848569745
1.84834006
1.848636
1.849961174
1.849775596
1.849332794
1.84857663
1.848161434
1.848470081
1.849458951
1.848585741
1.848973968
1.848621285
1.849185122
1.84987428
1.849421043
1.84937778
1.849074833
1.849041726
1.849490998
1.849727557
1.850035737
1.849297147
1.849212025
1.84962523
1.850224809
1.850530085
1.849222935
1.850000138
1.849379225
1.849413041
1.848945437
1.849309617
1.849064225
1.848576804
1.849222608
1.850012691
1.849720536
1.849595386
1.849508364
1.84864069
1.849359495
1.849871615
1.849246874
)
;

boundaryField
{
    bottom
    {
        type            calculated;
        value           nonuniform List<scalar> 
200
(
1.848932069
1.849070384
1.848869539
1.848666466
1.848534242
1.848955584
1.848978946
1.847558989
1.848450451
1.848450731
1.848037382
1.847260516
1.847548812
1.848656103
1.847853213
1.847995705
1.848902611
1.849130622
1.848934638
1.848455001
1.847924961
1.848088041
1.848534931
1.848395581
1.847929765
1.847762121
1.848538698
1.848367419
1.848038533
1.848818311
1.848442799
1.847522592
1.847362559
1.84781626
1.848119086
1.84726853
1.847947781
1.848130696
1.848198956
1.848653079
1.848951382
1.848931589
1.84829093
1.848801421
1.849188303
1.848714834
1.849092621
1.848845672
1.848854896
1.849125677
1.849394262
1.848853542
1.848106659
1.848726185
1.847380597
1.847331247
1.84775135
1.848278456
1.848254593
1.847763324
1.847251553
1.847827033
1.847745121
1.847053901
1.848543126
1.848225461
1.847883902
1.84864015
1.84835649
1.848985391
1.84879848
1.848356251
1.848628846
1.848776449
1.84904148
1.848894504
1.847567774
1.848593514
1.847833767
1.847982001
1.848401734
1.848324687
1.84884528
1.848587076
1.848999753
1.849282556
1.848776305
1.848873862
1.849506984
1.849918092
1.849133631
1.848699261
1.84976798
1.849236125
1.849647531
1.849365724
1.848975302
1.848948332
1.849743139
1.850090487
1.850421214
1.850378709
1.849707284
1.848764732
1.849963825
1.850186129
1.849248312
1.84984637
1.849916712
1.84911999
1.848772076
1.849639061
1.848011638
1.84923862
1.849325165
1.849389642
1.849352736
1.848666741
1.849331235
1.849031444
1.849142846
1.850196027
1.84942249
1.849947216
1.849926375
1.849322337
1.850090502
1.850122178
1.84894287
1.850225914
1.850295226
1.849466958
1.850217307
1.849061023
1.849211429
1.848935424
1.849718967
1.849554263
1.848827101
1.848793158
1.849655947
1.84908975
1.84912967
1.848726864
1.849268898
1.849547896
1.849144425
1.848907175
1.849852454
1.849016349
1.849163471
1.848971279
1.848897699
1.848956911
1.849235313
1.849480873
1.84856426
1.849096064
1.849461843
1.849066761
1.849361996
1.848888011
1.849162473
1.849601744
1.849732194
1.849424541
1.848650431
1.848317908
1.848332914
1.848882104
1.848067986
1.848150363
1.848676162
1.849294327
1.849740498
1.848976806
1.849305996
1.849065454
1.848900012
1.849527296
1.849559915
1.849401219
1.849661857
1.849287482
1.849738461
1.849780001
1.84930911
1.848872824
1.849617539
1.849206295
1.849562256
1.849699514
1.849800535
1.849461639
1.848611945
1.848299215
1.84855168
1.848264511
1.848565691
1.84890574
)
;
    }
    top
    {
        type            calculated;
        value           nonuniform List<scalar> 
200
(
1.849086771
1.848159919
1.848094077
1.848672437
1.847777355
1.848648062
1.847869658
1.848118213
1.847833178
1.84843431
1.848202413
1.848163197
1.848629818
1.848490217
1.847913482
1.847449908
1.847508379
1.848125129
1.848622606
1.849596819
1.848282859
1.848768729
1.849062458
1.848216174
1.848970112
1.848618191
1.848264606
1.848113495
1.847736926
1.848763898
1.849117482
1.849067221
1.848205994
1.847483822
1.848455638
1.848578461
1.847827284
1.847725898
1.848440955
1.847896179
1.84789313
1.848853085
1.848604503
1.848432936
1.848063279
1.849205556
1.848302916
1.848175392
1.849081315
1.848805367
1.849229876
1.848332144
1.848435823
1.848139596
1.848789133
1.848389465
1.848979174
1.84844692
1.848884269
1.848417459
1.848227037
1.847637305
1.848443013
1.848405769
1.847606372
1.848225315
1.848728519
1.848654262
1.848713364
1.848831512
1.848423743
1.848525394
1.848619377
1.849687782
1.848901899
1.848350152
1.847922379
1.8479077
1.847603791
1.848831844
1.848385839
1.847846759
1.848469268
1.848407878
1.848179958
1.847589979
1.848189334
1.848974982
1.8485554
1.848809866
1.849248274
1.848649474
1.850098906
1.849297728
1.849614245
1.849608527
1.849031522
1.849824537
1.849733641
1.849715013
1.850126225
1.849257286
1.848867007
1.849486346
1.848716179
1.849121103
1.84992726
1.849539
1.849098507
1.849632824
1.849445939
1.849410646
1.84900061
1.849057773
1.849218203
1.849530359
1.848872211
1.849791575
1.849658689
1.849216329
1.849434511
1.850152282
1.849567176
1.849312654
1.849205821
1.849407296
1.849155428
1.849557131
1.84932814
1.849076728
1.849598219
1.849450667
1.849452386
1.849583723
1.849553393
1.848539556
1.848632207
1.849042081
1.849317758
1.849473981
1.848640537
1.849130579
1.849158505
1.848601596
1.849221448
1.849272124
1.849955688
1.850174143
1.849878723
1.848525802
1.848938376
1.849187736
1.849153597
1.848761716
1.848654018
1.848623034
1.848569745
1.84834006
1.848636
1.849961174
1.849775596
1.849332794
1.84857663
1.848161434
1.848470081
1.849458951
1.848585741
1.848973968
1.848621285
1.849185122
1.84987428
1.849421043
1.84937778
1.849074833
1.849041726
1.849490998
1.849727557
1.850035737
1.849297147
1.849212025
1.84962523
1.850224809
1.850530085
1.849222935
1.850000138
1.849379225
1.849413041
1.848945437
1.849309617
1.849064225
1.848576804
1.849222608
1.850012691
1.849720536
1.849595386
1.849508364
1.84864069
1.849359495
1.849871615
1.849246874
)
;
    }
    inlet
    {
        type            calculated;
        value           nonuniform List<scalar> 5(1.848932069 1.849063283 1.849350175 1.850162663 1.849086771);
    }
    outlet
    {
        type            calculated;
        value           nonuniform List<scalar> 5(1.84890574 1.848978041 1.849004321 1.848634008 1.849246874);
    }
    back
    {
        type            symmetry;
    }
    front
    {
        type            symmetry;
    }
}


// ************************************************************************* //
