/*--------------------------------*- C++ -*----------------------------------*\
| =========                 |                                                 |
| \\      /  F ield         | OpenFOAM: The Open Source CFD Toolbox           |
|  \\    /   O peration     | Version:  v1612+                                |
|   \\  /    A nd           | Web:      www.OpenFOAM.com                      |
|    \\/     M anipulation  |                                                 |
\*---------------------------------------------------------------------------*/
FoamFile
{
    version     2.0;
    format      ascii;
    class       volScalarField;
    location    "4.78";
    object      p_Ar1;
}
// * * * * * * * * * * * * * * * * * * * * * * * * * * * * * * * * * * * * * //

dimensions      [1 -1 -2 0 0 0 0];

internalField   nonuniform List<scalar> 
1000
(
0.5198888302
0.5167288608
0.5140673288
0.5112478201
0.5085427149
0.5062293012
0.5036388009
0.5011477521
0.4982214212
0.4958103506
0.4934274005
0.4908569802
0.4882821503
0.4853773336
0.4829986345
0.4805904472
0.4780570391
0.4753213916
0.4728794928
0.470036192
0.4676108415
0.4650190481
0.4624532615
0.4600876125
0.4574092303
0.4549659767
0.4522397085
0.4496594919
0.4471876053
0.4445185246
0.4419172531
0.4395089307
0.4368623195
0.4343180452
0.4316863712
0.4293133432
0.426482932
0.4239854777
0.4213432751
0.4188514783
0.4162718113
0.413716812
0.4113258733
0.4086656993
0.4060466453
0.4035153801
0.400655571
0.3982546003
0.3958518097
0.3932730696
0.3906204838
0.3880988888
0.3855554156
0.3830099746
0.3806487775
0.3780715123
0.3754529726
0.3726931765
0.3702301189
0.3675615251
0.3650261842
0.3624155576
0.3600052562
0.3574844637
0.3546987728
0.3521142614
0.3496572375
0.3470831888
0.3443922906
0.3419227715
0.3392547389
0.3367422271
0.3342587263
0.3315900871
0.3290459972
0.3264939266
0.3239872948
0.321394882
0.3187760389
0.3162926647
0.3136865684
0.311173
0.3085374316
0.3060196757
0.3033439537
0.3009154284
0.2982696179
0.2957284236
0.2931431626
0.2906146607
0.2880808885
0.2856225959
0.283008636
0.2804395232
0.2778432844
0.2752611407
0.2727880503
0.2703493118
0.267613391
0.2648888792
0.2622490525
0.2600117509
0.2572936824
0.2549222629
0.2521306679
0.2495340871
0.2470558146
0.2444832639
0.2419195817
0.2393212732
0.2369624151
0.2342592227
0.2316802393
0.2290606986
0.2265749704
0.2239759211
0.2213716722
0.2189235367
0.2163548051
0.2138785822
0.2112568016
0.2087159302
0.2060878651
0.2035252082
0.2010300237
0.1984563519
0.195689588
0.1931611309
0.1907241543
0.188167779
0.1855133686
0.1830286319
0.1804243316
0.1778528047
0.1753372527
0.1729026161
0.1701559733
0.1674885421
0.1649153935
0.16244011
0.1597182644
0.1572791985
0.1547701892
0.1520783994
0.149519332
0.1469930447
0.1444413618
0.1419379748
0.139347638
0.1368053567
0.1343252344
0.1317064081
0.1291526411
0.1265634946
0.1238995163
0.1213666401
0.1188260842
0.1162574104
0.1137856878
0.1110936215
0.1085858403
0.1060325277
0.1033901214
0.1008604204
0.09843954959
0.09591003842
0.09329543674
0.09069194634
0.08814378297
0.08557647796
0.08304968137
0.08052066089
0.07792222617
0.07531764415
0.0727171878
0.07024088353
0.06769245983
0.06506304558
0.06253636785
0.0599487858
0.05742343935
0.05485470299
0.05222644702
0.04970976447
0.04714231347
0.04456941157
0.04192796168
0.03938247138
0.03679856815
0.03425653305
0.03166960058
0.02909055338
0.02647038431
0.0239390758
0.02131611402
0.01865311435
0.01595338167
0.0131954544
0.01035096941
0.007032274194
0.5197762429
0.5169001197
0.5142508777
0.5114571064
0.5087616375
0.5059588975
0.5034077728
0.5008426733
0.4984300328
0.495927893
0.4932541303
0.4908701652
0.4880342311
0.4854809191
0.4829415199
0.4804336717
0.4777959203
0.4751095269
0.4726485065
0.4700896609
0.4676063029
0.4652553136
0.4627849654
0.4600179392
0.4573556144
0.4548384874
0.452296921
0.4498237352
0.447185146
0.4445756065
0.4419429058
0.4391717408
0.4367786742
0.4341231159
0.4316815442
0.4290562043
0.426606677
0.423924009
0.4213707818
0.4188423497
0.4164161483
0.4136663771
0.4113127242
0.4087145982
0.4060525815
0.40354045
0.400817848
0.3983391292
0.3958744791
0.3933192213
0.3908003124
0.3880876731
0.3855630272
0.3829693943
0.3806159932
0.3780032472
0.3755011983
0.3725133318
0.3701181338
0.3675469256
0.3651008917
0.3625379908
0.3601007474
0.3573673138
0.354764982
0.3522707301
0.3495815488
0.3469776485
0.3444389356
0.3418137031
0.3392534523
0.3366851025
0.3340498545
0.3316831527
0.3290516923
0.3264240267
0.3239375396
0.321223942
0.3189094475
0.3164270594
0.3136497039
0.3112690707
0.308695413
0.3060689751
0.3033746046
0.3009092178
0.298343643
0.2958012401
0.2932306088
0.2906661606
0.2880224664
0.285503182
0.2829965579
0.2805516562
0.277917291
0.2753534254
0.2726860951
0.2702490922
0.267712034
0.2649976765
0.2624654801
0.2600210721
0.257343686
0.2547524587
0.2521893895
0.2495641291
0.2470238888
0.2445521205
0.2418824316
0.2394404228
0.2367851746
0.2343829524
0.2317178106
0.2290765971
0.2266236925
0.2239527635
0.2213131819
0.218807872
0.2163332851
0.2138523573
0.2113306426
0.208624787
0.2060634448
0.2036391808
0.2011904717
0.1984879569
0.1958505358
0.1932974205
0.1906687389
0.1880809331
0.1853501043
0.1829849997
0.1803903388
0.177808016
0.1753492612
0.1728101512
0.1701348762
0.1675925664
0.1648780378
0.162446454
0.1598466264
0.1573529785
0.1547416311
0.1521388148
0.1494896773
0.1469601179
0.1444694537
0.1418307648
0.1392849969
0.1368041025
0.1342420399
0.1317741405
0.1290651458
0.1265955667
0.1239294924
0.1213859307
0.1189023883
0.1162727538
0.1137536387
0.1110804767
0.1085987534
0.1060000954
0.1034382413
0.100932221
0.09843974855
0.09581262801
0.09318936202
0.09075570098
0.08815302309
0.08563841546
0.08312183376
0.08053434433
0.07801774225
0.07535658484
0.07278299202
0.07022301071
0.06767369819
0.06512044225
0.06247589326
0.05997570235
0.05743084644
0.054796361
0.052206129
0.04971557062
0.04717076331
0.0445553271
0.04193814988
0.03942509333
0.03680543683
0.03425896187
0.03167632577
0.02909744657
0.0265378424
0.023952299
0.02131801957
0.01862553012
0.01593192071
0.0132210907
0.01032367276
0.007022803263
0.5198492087
0.5165719377
0.5140744394
0.5112642784
0.5086878783
0.5061609649
0.5036182209
0.5009070521
0.4982458639
0.4959030531
0.4933603766
0.4908291187
0.4880110381
0.48547246
0.4830469891
0.4804002029
0.4779383719
0.475356447
0.4728165147
0.470203736
0.4676959405
0.4650791784
0.462416607
0.4599790132
0.4574098757
0.4548816373
0.4523359956
0.449735464
0.4472143713
0.444743304
0.4419821399
0.4392571156
0.436807739
0.434273187
0.4316915637
0.4292378197
0.4266170163
0.4238600726
0.4214222301
0.4188023793
0.4163635705
0.4138022667
0.4112490494
0.4088057082
0.406037393
0.4034995204
0.4010349698
0.3983404121
0.3959202658
0.3931562976
0.3907216759
0.3882870069
0.3854759355
0.383146735
0.3804659038
0.3779296999
0.3754532623
0.3725565824
0.3702301915
0.3674834626
0.3650653788
0.3625201106
0.3599851935
0.3573807583
0.3547993961
0.3520968691
0.3495432236
0.3470863721
0.3444976845
0.3417734769
0.3392930536
0.3367018455
0.3340823984
0.3316075776
0.3290831166
0.3266120421
0.3239977804
0.3214387363
0.3187411956
0.3163423205
0.3137795355
0.3110928507
0.3085864124
0.3059097979
0.303350588
0.300847262
0.2984148193
0.2957500632
0.2933358381
0.2905188878
0.2880621603
0.2854356503
0.2831157208
0.2804806312
0.2779628068
0.2752127499
0.2728265589
0.2701868535
0.2676578326
0.2649609114
0.2624346269
0.2599741516
0.2573337645
0.2547158033
0.2522629543
0.249787759
0.2472036941
0.2446776501
0.2419712799
0.2394185425
0.2367621358
0.234298051
0.2318335108
0.2291550045
0.2263790916
0.2238675942
0.2214421624
0.218890738
0.216291327
0.2138625683
0.2112100896
0.2086580229
0.206077363
0.2035584628
0.2009562958
0.1985138567
0.1957698486
0.1931103504
0.1907031389
0.1881659658
0.1854743054
0.1830205908
0.1804227734
0.1779126968
0.1752717497
0.1727030885
0.1701194769
0.16754585
0.1649063833
0.16241288
0.1598516336
0.1572929353
0.1546281674
0.152089927
0.1495148251
0.1468190416
0.1443693401
0.1418138135
0.1393266537
0.1366960084
0.1342035747
0.1317037353
0.1291623837
0.1265690392
0.1239296541
0.1214190708
0.1187018699
0.1163273354
0.1136961756
0.1110974263
0.1085786395
0.1061338631
0.103412714
0.1009126994
0.09838708302
0.09576501446
0.09315868715
0.09075094621
0.0881582767
0.08560403214
0.08307094497
0.08055818565
0.0779497972
0.07534192571
0.07276961771
0.07024555459
0.06771169137
0.06511483025
0.06253837859
0.05997647781
0.05740399368
0.05479880767
0.05223052078
0.04966243845
0.04711757293
0.04456177242
0.04203754343
0.03949644154
0.03682008302
0.03429179147
0.03166458909
0.02911678181
0.02653170888
0.02392280916
0.02129084273
0.0186293491
0.01597886976
0.01318565552
0.01030572713
0.007028023752
0.5196845676
0.5168644303
0.5139386036
0.5114499229
0.5086668275
0.5061479383
0.5035487266
0.5010898361
0.4984464091
0.4960176332
0.4931704776
0.4907443989
0.4881472712
0.4855029372
0.4829160809
0.4804655185
0.4781097203
0.475469546
0.4727413192
0.4702757939
0.4677026326
0.4652041352
0.4626351455
0.4599892422
0.4575243597
0.4548863427
0.452435889
0.4497543841
0.4471431926
0.4447408203
0.4419754449
0.4394048653
0.4368396566
0.4340992548
0.4316322754
0.429070629
0.4266101205
0.4239405869
0.4214607514
0.4188764875
0.4164440845
0.4137710287
0.4111660264
0.4087851774
0.4060635759
0.403649613
0.4009589288
0.3984329491
0.3957769147
0.3933470686
0.3908014464
0.3881532891
0.3855401246
0.3831549664
0.3804900043
0.3780369553
0.3751371188
0.3727215757
0.3702481992
0.367732727
0.3653057618
0.3625380222
0.3599674229
0.3573311563
0.3546188527
0.3523399383
0.3496520857
0.3469950796
0.3446028561
0.341862682
0.3394332688
0.3367347495
0.3342498213
0.3317493601
0.3289216294
0.3264378141
0.3239180769
0.3215183815
0.3189063464
0.3162705358
0.3136446333
0.3111131527
0.3085474309
0.3060039913
0.303404545
0.3007436111
0.2982030377
0.2958627399
0.2933072565
0.2905919066
0.288028268
0.2854931488
0.2828552637
0.2803780494
0.2776919949
0.2753936034
0.2728829622
0.270246001
0.2677191018
0.2651128243
0.2624281753
0.2600739446
0.257463484
0.2548137496
0.2523131875
0.2498336516
0.2472464245
0.2445949065
0.2419900821
0.2395127318
0.2368468851
0.2344683688
0.2317890724
0.2292375825
0.226644363
0.2238097463
0.2213945406
0.2188951821
0.2163022179
0.2139033169
0.2113354876
0.2087127327
0.2063065428
0.2036058837
0.201063989
0.198467306
0.1957612225
0.1931113161
0.1906343508
0.188184088
0.185596877
0.1829588443
0.1804377468
0.17791484
0.1751326455
0.1726642504
0.1700765283
0.1674538685
0.1648998307
0.1623885959
0.1597735974
0.1572700896
0.1546974091
0.1520902596
0.1496083856
0.1470292133
0.1444812764
0.1418218477
0.1393797514
0.1368219922
0.1341200235
0.1316903742
0.1290250428
0.1265261516
0.1239968749
0.1213557055
0.1187323734
0.1161939918
0.1137442913
0.1110701131
0.1086183192
0.1060277795
0.1035800251
0.100785405
0.09835793376
0.09565603043
0.09322348493
0.09066762647
0.08809614865
0.08552892438
0.08303167229
0.08039605702
0.07783455922
0.07537875708
0.07279300159
0.07021553995
0.067652914
0.06514821901
0.06257861226
0.06001228684
0.05740117034
0.05481657833
0.05220840224
0.04972580484
0.04712653552
0.04457013852
0.04201413951
0.03945890298
0.03681986418
0.03429065748
0.03170911965
0.02910252909
0.02653182935
0.02392963086
0.02130760148
0.01869051438
0.01590279723
0.0131691989
0.01030937737
0.007024539747
0.520020243
0.5171177685
0.5141946636
0.5114413827
0.5088444914
0.5060554132
0.5037023997
0.5011407986
0.4985266139
0.4957281231
0.4932174453
0.4907460892
0.4880992
0.4854590714
0.4829774156
0.4804899469
0.4780083712
0.4753204514
0.4726943335
0.470080167
0.4677451728
0.4652301114
0.4626927934
0.4600367248
0.4573190321
0.4548056816
0.452287465
0.4496279404
0.4471096205
0.4445706553
0.442037824
0.4393261232
0.4368575155
0.4342913521
0.4315324991
0.428955447
0.4265786005
0.4240911832
0.4215068698
0.418969869
0.4165866101
0.4137046678
0.411234809
0.4086145178
0.4060530916
0.4034392441
0.4009939286
0.3985232181
0.3958137581
0.393272653
0.3907262196
0.3881317488
0.3854555624
0.3830169012
0.3805182673
0.3777783748
0.3752894478
0.3727343635
0.3701317127
0.3680279769
0.3651490714
0.3626962055
0.3600254935
0.3574523654
0.3546321481
0.3522298223
0.3495784361
0.3472013864
0.3446105685
0.3420516356
0.3393717573
0.3368530614
0.3343607563
0.3316441773
0.3291436534
0.3264224159
0.3240528789
0.3213240384
0.3189029068
0.3161508907
0.3135213487
0.3111578637
0.3085314537
0.3059684991
0.3033826344
0.300769835
0.2983536702
0.2956947216
0.2931515933
0.2906169982
0.2880354578
0.2854855652
0.2827543593
0.2802945073
0.2778680016
0.2752620139
0.272843773
0.27001153
0.2676894413
0.2649897589
0.2624288247
0.2600310342
0.2574686014
0.2548346145
0.2522249783
0.2497457607
0.2471429751
0.2445698146
0.2419327511
0.2392965277
0.2366987073
0.2342807093
0.2315846868
0.2291852738
0.2265847508
0.2239287345
0.2212755769
0.2188512258
0.2164869093
0.2139410582
0.2113202991
0.2086645707
0.2060520941
0.2034907998
0.2010119279
0.1985214481
0.1959767522
0.1932900559
0.1906773218
0.1882326555
0.1856369259
0.1829791868
0.1803185845
0.1778416438
0.1752264541
0.1726272547
0.1700680344
0.1674355091
0.1648029487
0.162317755
0.1598293721
0.1572134875
0.1546974732
0.1522497037
0.1495058974
0.1471446619
0.144401731
0.1417981449
0.1393988888
0.1368212676
0.1341974034
0.1315995311
0.1290997074
0.1265517647
0.1239944618
0.1213905592
0.1186953289
0.1161496103
0.1138051419
0.1111788118
0.1085637969
0.1060967189
0.1034824491
0.1009239126
0.09832124841
0.09577864907
0.09322474058
0.09072888369
0.08816028003
0.08554108635
0.08296303309
0.08048770357
0.0778590301
0.07526822612
0.07283517823
0.07029329622
0.06760234412
0.06509444503
0.06250577982
0.05999086222
0.05743599545
0.05474130361
0.05219474341
0.04965887533
0.04713715961
0.04456682248
0.04198261353
0.03945469516
0.03682458542
0.03425229447
0.03173668998
0.02907950698
0.02651494195
0.0239364539
0.02128895319
0.01863201076
0.01597593621
0.01321751494
0.01030783724
0.006981092409
)
;

boundaryField
{
    bottom
    {
        type            calculated;
        value           nonuniform List<scalar> 
200
(
0.5198888302
0.5167288608
0.5140673288
0.5112478201
0.5085427149
0.5062293012
0.5036388009
0.5011477521
0.4982214212
0.4958103506
0.4934274005
0.4908569802
0.4882821503
0.4853773336
0.4829986345
0.4805904472
0.4780570391
0.4753213916
0.4728794928
0.470036192
0.4676108415
0.4650190481
0.4624532615
0.4600876125
0.4574092303
0.4549659767
0.4522397085
0.4496594919
0.4471876053
0.4445185246
0.4419172531
0.4395089307
0.4368623195
0.4343180452
0.4316863712
0.4293133432
0.426482932
0.4239854777
0.4213432751
0.4188514783
0.4162718113
0.413716812
0.4113258733
0.4086656993
0.4060466453
0.4035153801
0.400655571
0.3982546003
0.3958518097
0.3932730696
0.3906204838
0.3880988888
0.3855554156
0.3830099746
0.3806487775
0.3780715123
0.3754529726
0.3726931765
0.3702301189
0.3675615251
0.3650261842
0.3624155576
0.3600052562
0.3574844637
0.3546987728
0.3521142614
0.3496572375
0.3470831888
0.3443922906
0.3419227715
0.3392547389
0.3367422271
0.3342587263
0.3315900871
0.3290459972
0.3264939266
0.3239872948
0.321394882
0.3187760389
0.3162926647
0.3136865684
0.311173
0.3085374316
0.3060196757
0.3033439537
0.3009154284
0.2982696179
0.2957284236
0.2931431626
0.2906146607
0.2880808885
0.2856225959
0.283008636
0.2804395232
0.2778432844
0.2752611407
0.2727880503
0.2703493118
0.267613391
0.2648888792
0.2622490525
0.2600117509
0.2572936824
0.2549222629
0.2521306679
0.2495340871
0.2470558146
0.2444832639
0.2419195817
0.2393212732
0.2369624151
0.2342592227
0.2316802393
0.2290606986
0.2265749704
0.2239759211
0.2213716722
0.2189235367
0.2163548051
0.2138785822
0.2112568016
0.2087159302
0.2060878651
0.2035252082
0.2010300237
0.1984563519
0.195689588
0.1931611309
0.1907241543
0.188167779
0.1855133686
0.1830286319
0.1804243316
0.1778528047
0.1753372527
0.1729026161
0.1701559733
0.1674885421
0.1649153935
0.16244011
0.1597182644
0.1572791985
0.1547701892
0.1520783994
0.149519332
0.1469930447
0.1444413618
0.1419379748
0.139347638
0.1368053567
0.1343252344
0.1317064081
0.1291526411
0.1265634946
0.1238995163
0.1213666401
0.1188260842
0.1162574104
0.1137856878
0.1110936215
0.1085858403
0.1060325277
0.1033901214
0.1008604204
0.09843954959
0.09591003842
0.09329543674
0.09069194634
0.08814378297
0.08557647796
0.08304968137
0.08052066089
0.07792222617
0.07531764415
0.0727171878
0.07024088353
0.06769245983
0.06506304558
0.06253636785
0.0599487858
0.05742343935
0.05485470299
0.05222644702
0.04970976447
0.04714231347
0.04456941157
0.04192796168
0.03938247138
0.03679856815
0.03425653305
0.03166960058
0.02909055338
0.02647038431
0.0239390758
0.02131611402
0.01865311435
0.01595338167
0.0131954544
0.01035096941
0.007032274194
)
;
    }
    top
    {
        type            calculated;
        value           nonuniform List<scalar> 
200
(
0.520020243
0.5171177685
0.5141946636
0.5114413827
0.5088444914
0.5060554132
0.5037023997
0.5011407986
0.4985266139
0.4957281231
0.4932174453
0.4907460892
0.4880992
0.4854590714
0.4829774156
0.4804899469
0.4780083712
0.4753204514
0.4726943335
0.470080167
0.4677451728
0.4652301114
0.4626927934
0.4600367248
0.4573190321
0.4548056816
0.452287465
0.4496279404
0.4471096205
0.4445706553
0.442037824
0.4393261232
0.4368575155
0.4342913521
0.4315324991
0.428955447
0.4265786005
0.4240911832
0.4215068698
0.418969869
0.4165866101
0.4137046678
0.411234809
0.4086145178
0.4060530916
0.4034392441
0.4009939286
0.3985232181
0.3958137581
0.393272653
0.3907262196
0.3881317488
0.3854555624
0.3830169012
0.3805182673
0.3777783748
0.3752894478
0.3727343635
0.3701317127
0.3680279769
0.3651490714
0.3626962055
0.3600254935
0.3574523654
0.3546321481
0.3522298223
0.3495784361
0.3472013864
0.3446105685
0.3420516356
0.3393717573
0.3368530614
0.3343607563
0.3316441773
0.3291436534
0.3264224159
0.3240528789
0.3213240384
0.3189029068
0.3161508907
0.3135213487
0.3111578637
0.3085314537
0.3059684991
0.3033826344
0.300769835
0.2983536702
0.2956947216
0.2931515933
0.2906169982
0.2880354578
0.2854855652
0.2827543593
0.2802945073
0.2778680016
0.2752620139
0.272843773
0.27001153
0.2676894413
0.2649897589
0.2624288247
0.2600310342
0.2574686014
0.2548346145
0.2522249783
0.2497457607
0.2471429751
0.2445698146
0.2419327511
0.2392965277
0.2366987073
0.2342807093
0.2315846868
0.2291852738
0.2265847508
0.2239287345
0.2212755769
0.2188512258
0.2164869093
0.2139410582
0.2113202991
0.2086645707
0.2060520941
0.2034907998
0.2010119279
0.1985214481
0.1959767522
0.1932900559
0.1906773218
0.1882326555
0.1856369259
0.1829791868
0.1803185845
0.1778416438
0.1752264541
0.1726272547
0.1700680344
0.1674355091
0.1648029487
0.162317755
0.1598293721
0.1572134875
0.1546974732
0.1522497037
0.1495058974
0.1471446619
0.144401731
0.1417981449
0.1393988888
0.1368212676
0.1341974034
0.1315995311
0.1290997074
0.1265517647
0.1239944618
0.1213905592
0.1186953289
0.1161496103
0.1138051419
0.1111788118
0.1085637969
0.1060967189
0.1034824491
0.1009239126
0.09832124841
0.09577864907
0.09322474058
0.09072888369
0.08816028003
0.08554108635
0.08296303309
0.08048770357
0.0778590301
0.07526822612
0.07283517823
0.07029329622
0.06760234412
0.06509444503
0.06250577982
0.05999086222
0.05743599545
0.05474130361
0.05219474341
0.04965887533
0.04713715961
0.04456682248
0.04198261353
0.03945469516
0.03682458542
0.03425229447
0.03173668998
0.02907950698
0.02651494195
0.0239364539
0.02128895319
0.01863201076
0.01597593621
0.01321751494
0.01030783724
0.006981092409
)
;
    }
    inlet
    {
        type            calculated;
        value           nonuniform List<scalar> 5(0.5198888302 0.5197762429 0.5198492087 0.5196845676 0.520020243);
    }
    outlet
    {
        type            calculated;
        value           nonuniform List<scalar> 5(0.007032274194 0.007022803263 0.007028023752 0.007024539747 0.006981092409);
    }
    back
    {
        type            symmetry;
    }
    front
    {
        type            symmetry;
    }
}


// ************************************************************************* //
