/*--------------------------------*- C++ -*----------------------------------*\
| =========                 |                                                 |
| \\      /  F ield         | OpenFOAM: The Open Source CFD Toolbox           |
|  \\    /   O peration     | Version:  v1612+                                |
|   \\  /    A nd           | Web:      www.OpenFOAM.com                      |
|    \\/     M anipulation  |                                                 |
\*---------------------------------------------------------------------------*/
FoamFile
{
    version     2.0;
    format      ascii;
    class       volScalarField;
    location    "4.78";
    object      p_Ar2;
}
// * * * * * * * * * * * * * * * * * * * * * * * * * * * * * * * * * * * * * //

dimensions      [1 -1 -2 0 0 0 0];

internalField   nonuniform List<scalar> 
1000
(
0.007030681996
0.01031032021
0.01319157703
0.01593234989
0.01861181617
0.02124737167
0.02388245571
0.02643457011
0.02907096535
0.03166370998
0.03420342928
0.03682961358
0.03936892045
0.04198449836
0.04452072002
0.04713553469
0.04957359003
0.05219245665
0.05474389673
0.0572817052
0.05986921398
0.06245309957
0.06501938376
0.06754675575
0.07016266458
0.07270062747
0.07529890063
0.0778635929
0.08040357152
0.08298462107
0.08553219054
0.08823100606
0.09074659221
0.09332078743
0.09591194937
0.0985041014
0.101082739
0.103634494
0.1062198572
0.1087261567
0.1112599379
0.1138274318
0.116409654
0.1190112358
0.1214420231
0.1241865771
0.1266404677
0.1292245625
0.1318781413
0.1343866721
0.1368692854
0.1393898406
0.1420093961
0.1444936911
0.1472841703
0.1498024308
0.1521931203
0.1549358367
0.1575640858
0.1600564602
0.1625864914
0.1651741456
0.1676638532
0.1702878934
0.1728469458
0.175449
0.1779395069
0.1805132457
0.1830801641
0.1856813539
0.1881754113
0.1908626711
0.1934043812
0.1958770195
0.1985289029
0.201049949
0.2037474179
0.2062801021
0.2089574421
0.211460957
0.213921763
0.2165925832
0.2189996632
0.221538734
0.2242162008
0.226798951
0.2293135341
0.2318041306
0.2344180754
0.2370344728
0.239628231
0.2420710543
0.244545483
0.247162095
0.2496918615
0.2523448437
0.2548235183
0.2574034531
0.2600157852
0.2625165344
0.2651622639
0.2675290791
0.2701605151
0.2730065462
0.2753888325
0.2778868956
0.2807282137
0.2830861294
0.2858670621
0.2882628122
0.2908681036
0.2934366459
0.2961028268
0.2985752077
0.3008544591
0.3036392058
0.3062495054
0.3089157055
0.3113912431
0.313920549
0.3164536919
0.3187129303
0.3215698575
0.3239824269
0.3266129649
0.3291780251
0.3318243793
0.3343441969
0.3370880795
0.3396001744
0.341947609
0.3446387698
0.3470971609
0.349770463
0.352379763
0.355036487
0.3575269081
0.3600053544
0.3627563093
0.3654271784
0.3678413034
0.370409804
0.373026786
0.3754629268
0.3780398681
0.3804163357
0.3830819459
0.3855446242
0.388147453
0.3908215748
0.3933007212
0.3959849528
0.3985911541
0.4011417908
0.4035927974
0.4061460712
0.4089141282
0.4113142003
0.4138067838
0.4165069312
0.4190833816
0.421498924
0.4241563218
0.4265510644
0.4291900648
0.4316748988
0.4343823208
0.4370000922
0.4395824189
0.4419714494
0.4447963223
0.4470258725
0.4497173271
0.4522307675
0.4548304647
0.4572515741
0.4598539419
0.4626305559
0.4651117534
0.4674582279
0.4699605937
0.4726485531
0.4750854398
0.4779167928
0.4804085624
0.4828166228
0.4856429717
0.4881209723
0.4905970765
0.4931764665
0.4956186407
0.4981586437
0.5006299699
0.5032266185
0.5061358579
0.5087368589
0.5114926282
0.5140460085
0.5166687364
0.5197830917
0.007045150037
0.01030322174
0.01317531993
0.01593885025
0.01865976036
0.02125769992
0.02385735895
0.02652506487
0.02908258098
0.03166789905
0.03423367032
0.03679932196
0.03938046553
0.04200635249
0.04448572554
0.04705911667
0.049672314
0.05220603284
0.05476009147
0.05727028649
0.0599175211
0.06242521074
0.06498041478
0.06753012182
0.07009958173
0.07270000634
0.07529634012
0.0778872589
0.08039629286
0.08299304292
0.08559399417
0.08821456262
0.09082400222
0.09335145849
0.09588916803
0.09846121748
0.100995526
0.103680548
0.1062004468
0.108737406
0.1111788499
0.1138806491
0.1164202688
0.119054464
0.1214721242
0.1241048827
0.1268834065
0.1293696409
0.131824331
0.1344015207
0.1369518889
0.1395209997
0.1420422751
0.1446520834
0.1472569643
0.1497582704
0.1522720122
0.1549748049
0.1574714453
0.1599932601
0.1624930552
0.1651273043
0.1678015249
0.1703321115
0.1729404149
0.1753519506
0.1779588233
0.1804579851
0.1832590712
0.1857594541
0.1883506245
0.1908253691
0.1934845914
0.1960341803
0.1986848337
0.2010916812
0.2035652312
0.2061584984
0.2087970234
0.2113424582
0.2138282298
0.2164549325
0.2190310566
0.2216482526
0.2241770621
0.2266732168
0.2292383573
0.231733735
0.2344409349
0.2370634268
0.2396417942
0.2420402749
0.2446848511
0.2471567057
0.2497291948
0.2523051741
0.254944172
0.2574997238
0.2600994755
0.2626595635
0.2651913463
0.2676088858
0.2702480598
0.2728641547
0.2755390349
0.2779600971
0.2804679839
0.2830551556
0.2858300642
0.2884371988
0.2907363816
0.2934656558
0.2959390796
0.2984263657
0.3011046646
0.3035894905
0.3062107267
0.3088982107
0.311238529
0.3137685663
0.3164146033
0.3190195749
0.3214497717
0.3239578727
0.3265092298
0.3293762163
0.3319742461
0.3343664897
0.3369202389
0.3394328899
0.3420584153
0.3446908682
0.3473402327
0.3497674688
0.3523495453
0.3551240464
0.3573506975
0.3601043663
0.3627993616
0.3653644814
0.367969881
0.3703068427
0.3727823745
0.375486953
0.378078698
0.380488708
0.3830733334
0.3855391917
0.3881335058
0.3908106434
0.3934323285
0.3961189732
0.3985919132
0.4009219281
0.4034587834
0.4061719947
0.408800519
0.4113436124
0.4140131934
0.4165432497
0.4190910031
0.4217416342
0.4241097515
0.4267466793
0.4293953434
0.4317501926
0.4344291297
0.4370697814
0.4394033295
0.4421951064
0.4447320328
0.4473534788
0.4495875648
0.4523678958
0.4547995188
0.4573612157
0.459827046
0.462340192
0.4649763274
0.4676749277
0.4702260591
0.472641209
0.4751193901
0.47786352
0.4803882575
0.4828967167
0.4855641301
0.4881621401
0.4908486749
0.4930996207
0.4956889048
0.4982199745
0.5009786259
0.5035476778
0.5060476885
0.5087574647
0.5112309028
0.5141212244
0.5170276487
0.5198500455
0.007023757466
0.01029865661
0.01318530443
0.01591207124
0.0186032837
0.02121827389
0.02382925717
0.02639793317
0.02905629069
0.03168125757
0.034255446
0.03676967647
0.03936009638
0.04200344149
0.04450312464
0.0470055705
0.04968419065
0.05217790992
0.05479204568
0.05727997583
0.05986828629
0.06243405646
0.06496079161
0.067565009
0.07014559013
0.07269913487
0.07530702701
0.07789275231
0.08047880079
0.08299402864
0.08559243942
0.08818209757
0.09076396149
0.09327600421
0.09583168549
0.09850915162
0.1010604822
0.1036444279
0.1061322477
0.1086852659
0.1112290557
0.1138923329
0.1164098136
0.1190423055
0.1214915042
0.1241613735
0.1268111289
0.1292524008
0.1318050745
0.1343352531
0.1370108185
0.1395326141
0.1421550352
0.1445777189
0.1472336016
0.1498297851
0.1522282815
0.1548679933
0.1574464447
0.1599645309
0.162430696
0.1651877377
0.1676429222
0.1702879225
0.1728485803
0.1753865587
0.1779706752
0.1805444005
0.1831745422
0.1857527325
0.1884323667
0.1909308406
0.1933358982
0.1958874663
0.1985570166
0.2012092993
0.2036894197
0.2061503838
0.2086828593
0.2113130641
0.2138572289
0.2163023457
0.2190952011
0.2216528439
0.2241821046
0.2268584717
0.2293519205
0.2319258137
0.2345046891
0.2369631409
0.2396024259
0.2419933636
0.2446205066
0.2471528696
0.2497719871
0.2524373002
0.2548817749
0.2574909521
0.2601288519
0.262650286
0.2652525496
0.2676991872
0.2701785605
0.2728126367
0.2753001853
0.2779537055
0.2805113713
0.2830229598
0.2857817051
0.2885156598
0.2907846291
0.2934049071
0.2958231601
0.2984974099
0.3009775936
0.3036673731
0.306238715
0.308717403
0.3111901297
0.3137888811
0.3162860356
0.318957894
0.3216096959
0.3241328705
0.326681455
0.3292670183
0.33187554
0.3344322456
0.3369808798
0.33946183
0.3421540464
0.3446699743
0.347196282
0.3498905847
0.3524704798
0.3550490138
0.3575176604
0.3600944519
0.3627566757
0.3654076833
0.3676840881
0.3703062307
0.3729912543
0.3755524765
0.377828304
0.3805702212
0.3831749673
0.3858223088
0.3881478476
0.3908581873
0.3934452199
0.3960527471
0.3985158236
0.4012578029
0.4036048092
0.4061667773
0.4086850063
0.4115659286
0.4139786035
0.416480513
0.4191278166
0.4216487015
0.4243354449
0.4267937383
0.4292610239
0.4319591451
0.4343169464
0.4369530927
0.4393977579
0.4421526289
0.4446905124
0.4473570246
0.4496870914
0.4520395197
0.4549499694
0.4574430253
0.4597999624
0.4625146399
0.464733106
0.4676928095
0.4701132634
0.4727475883
0.4753653105
0.477945561
0.4806107034
0.4829879837
0.4853891138
0.4880802872
0.4905536775
0.4932900288
0.4960037253
0.4983831251
0.5009223344
0.5035776001
0.506128108
0.5087029617
0.5112403409
0.5139988642
0.516774717
0.5199378597
0.006990562406
0.01028063425
0.01316433547
0.01591391435
0.01860608426
0.02124202807
0.0238538868
0.02649821338
0.02907797824
0.03168134982
0.03419007534
0.03682793094
0.03937506676
0.04193475006
0.0445056801
0.04706512402
0.04965171566
0.05217040427
0.05472477769
0.05732608554
0.05992451699
0.0624671915
0.06499386134
0.06764689978
0.0701790794
0.07278847746
0.07529554043
0.07786827997
0.08047242083
0.08302910916
0.08566178194
0.08819764995
0.09073729421
0.09329720305
0.09585692725
0.09833715178
0.101065532
0.1036274045
0.1061568973
0.10869913
0.1113369481
0.1137944598
0.1164424728
0.1189721112
0.121618539
0.1241426183
0.1267170507
0.1292131456
0.1317454465
0.1342897543
0.1370134123
0.1393924484
0.1420285774
0.1446031479
0.1471466556
0.1497227849
0.1522268154
0.1549347345
0.1575162424
0.1600974249
0.1626770933
0.1650683301
0.1676917169
0.1702984717
0.1728235822
0.1753400152
0.1778856616
0.1804970381
0.1830929967
0.185687564
0.1882620041
0.1909508071
0.1934240714
0.1959207455
0.1985048858
0.2011700334
0.2035369404
0.2061297838
0.2087117073
0.2112789103
0.21388898
0.2164027424
0.2191420604
0.221594011
0.22415705
0.2267878813
0.2293267787
0.2317566516
0.2343750323
0.2369058145
0.2395197781
0.2419701883
0.2445535752
0.2471483345
0.249775183
0.2522213014
0.2549191577
0.2574411227
0.2600583836
0.2625460501
0.2652423916
0.2677995107
0.270208024
0.27272687
0.2752975299
0.2779268231
0.2804449531
0.2830029721
0.2857580561
0.2881981523
0.2908583264
0.2932437752
0.2960067854
0.2985207777
0.3011528842
0.3036242905
0.3062265194
0.3085994928
0.3111610179
0.3137861853
0.3161668466
0.3188382922
0.3213815182
0.3240158894
0.326660053
0.329264007
0.3317364336
0.3343963841
0.3371115808
0.3395634527
0.3420907952
0.3447338345
0.347254166
0.3499118911
0.3523580613
0.3549231492
0.3575430599
0.3601849553
0.3628921618
0.3651089174
0.3678749984
0.3703295235
0.3730722502
0.3755787208
0.3779870157
0.3805468611
0.3832124631
0.3858322371
0.3882388676
0.3908283296
0.3935619757
0.3961780907
0.3985816654
0.4011384541
0.4038053378
0.4063502131
0.4089079058
0.4112939623
0.4138300953
0.4166050133
0.4189658267
0.4217066188
0.4241813832
0.4268409591
0.4294135039
0.4318433264
0.4343652135
0.4370090498
0.4392654564
0.4419586512
0.4446411709
0.4472878737
0.4498420298
0.4522453986
0.4547701652
0.4572491779
0.4597729259
0.4625853485
0.464988635
0.4676180764
0.4700920312
0.4726428175
0.4751681676
0.4777923261
0.480357079
0.483071086
0.4855535442
0.4880939301
0.4906756691
0.4932979979
0.4958867118
0.4983729927
0.5009368794
0.5034565931
0.5059743919
0.5087282459
0.5113128161
0.5139757292
0.5167266854
0.519970354
0.007009240382
0.0102748666
0.01316270879
0.01594423062
0.01862210497
0.02124635854
0.02386763868
0.0264757179
0.02913249478
0.03169966905
0.03415732931
0.03677310692
0.03936213976
0.04196087047
0.04455921888
0.0471129104
0.04965299772
0.05221395084
0.05476155746
0.05730694874
0.05992008191
0.06241122229
0.06502392334
0.06758963566
0.07017411514
0.07274740995
0.07527724163
0.07790770488
0.08051468117
0.08305578501
0.08557911186
0.08816888281
0.0907980886
0.09340166737
0.09589804084
0.09831431848
0.1010112378
0.103648398
0.1062866399
0.1088030761
0.1111718546
0.1136720227
0.1163707773
0.1190775868
0.1215795775
0.1241401837
0.1267183394
0.1292100753
0.1317069025
0.1342324978
0.1368367406
0.1393669061
0.1420428013
0.1446158863
0.1471596498
0.1498733384
0.152276517
0.154847588
0.1574528084
0.160033285
0.1625491
0.1651650815
0.167716271
0.1701926377
0.1728389566
0.1754039092
0.1778795512
0.1805758153
0.1830258649
0.1855842393
0.1883744581
0.1908611368
0.1934031663
0.1959581322
0.1985724768
0.2011029079
0.2036477558
0.206201493
0.2087958019
0.2113708768
0.2138794857
0.2164485216
0.2189979196
0.2215049013
0.2241240707
0.2267566279
0.2293322569
0.2318191622
0.2344357724
0.2368707354
0.2395001295
0.2421213687
0.2445615711
0.2471895851
0.2498120735
0.2522229949
0.2548961731
0.2574016358
0.2600137027
0.2625300003
0.2652435204
0.2677244263
0.2703498334
0.2727848396
0.2753388056
0.2780325976
0.2803319284
0.2829779138
0.285697409
0.2881717889
0.290814994
0.2935418147
0.2960878192
0.2984864895
0.3012139223
0.303710334
0.3062177522
0.3086886603
0.3112475172
0.3135687001
0.3162680345
0.3188770519
0.3214718717
0.3241048099
0.326499359
0.3291640754
0.331809252
0.334385491
0.3372178247
0.3395504502
0.3420457075
0.3447566702
0.3474052787
0.3498840413
0.3524345194
0.3550787306
0.3575568267
0.3603168551
0.362845993
0.3654504239
0.3678508969
0.3704134229
0.3729939664
0.3756166843
0.3781552984
0.3807046604
0.3831209357
0.3856825213
0.3883161938
0.3908602534
0.3935896054
0.3960055381
0.39843636
0.4010562613
0.4038214082
0.4063518926
0.408697346
0.4114112539
0.4140137251
0.4164623676
0.4191079363
0.4215926757
0.4243635034
0.4268611469
0.4292362004
0.4319427571
0.4344605018
0.4367427096
0.439295744
0.4419175301
0.444476582
0.4471488676
0.4498491234
0.4522413681
0.4546524845
0.4572786259
0.45976312
0.4624612197
0.4651320887
0.4677207404
0.4699645814
0.4726701987
0.4750208792
0.4778806379
0.4803297793
0.4830854564
0.485589357
0.488084182
0.4906490055
0.4932562229
0.495947338
0.4983096671
0.5007700552
0.5032325422
0.5060430808
0.5086487106
0.5113253659
0.5141362817
0.5168476076
0.5199633876
)
;

boundaryField
{
    bottom
    {
        type            calculated;
        value           nonuniform List<scalar> 
200
(
0.007030681996
0.01031032021
0.01319157703
0.01593234989
0.01861181617
0.02124737167
0.02388245571
0.02643457011
0.02907096535
0.03166370998
0.03420342928
0.03682961358
0.03936892045
0.04198449836
0.04452072002
0.04713553469
0.04957359003
0.05219245665
0.05474389673
0.0572817052
0.05986921398
0.06245309957
0.06501938376
0.06754675575
0.07016266458
0.07270062747
0.07529890063
0.0778635929
0.08040357152
0.08298462107
0.08553219054
0.08823100606
0.09074659221
0.09332078743
0.09591194937
0.0985041014
0.101082739
0.103634494
0.1062198572
0.1087261567
0.1112599379
0.1138274318
0.116409654
0.1190112358
0.1214420231
0.1241865771
0.1266404677
0.1292245625
0.1318781413
0.1343866721
0.1368692854
0.1393898406
0.1420093961
0.1444936911
0.1472841703
0.1498024308
0.1521931203
0.1549358367
0.1575640858
0.1600564602
0.1625864914
0.1651741456
0.1676638532
0.1702878934
0.1728469458
0.175449
0.1779395069
0.1805132457
0.1830801641
0.1856813539
0.1881754113
0.1908626711
0.1934043812
0.1958770195
0.1985289029
0.201049949
0.2037474179
0.2062801021
0.2089574421
0.211460957
0.213921763
0.2165925832
0.2189996632
0.221538734
0.2242162008
0.226798951
0.2293135341
0.2318041306
0.2344180754
0.2370344728
0.239628231
0.2420710543
0.244545483
0.247162095
0.2496918615
0.2523448437
0.2548235183
0.2574034531
0.2600157852
0.2625165344
0.2651622639
0.2675290791
0.2701605151
0.2730065462
0.2753888325
0.2778868956
0.2807282137
0.2830861294
0.2858670621
0.2882628122
0.2908681036
0.2934366459
0.2961028268
0.2985752077
0.3008544591
0.3036392058
0.3062495054
0.3089157055
0.3113912431
0.313920549
0.3164536919
0.3187129303
0.3215698575
0.3239824269
0.3266129649
0.3291780251
0.3318243793
0.3343441969
0.3370880795
0.3396001744
0.341947609
0.3446387698
0.3470971609
0.349770463
0.352379763
0.355036487
0.3575269081
0.3600053544
0.3627563093
0.3654271784
0.3678413034
0.370409804
0.373026786
0.3754629268
0.3780398681
0.3804163357
0.3830819459
0.3855446242
0.388147453
0.3908215748
0.3933007212
0.3959849528
0.3985911541
0.4011417908
0.4035927974
0.4061460712
0.4089141282
0.4113142003
0.4138067838
0.4165069312
0.4190833816
0.421498924
0.4241563218
0.4265510644
0.4291900648
0.4316748988
0.4343823208
0.4370000922
0.4395824189
0.4419714494
0.4447963223
0.4470258725
0.4497173271
0.4522307675
0.4548304647
0.4572515741
0.4598539419
0.4626305559
0.4651117534
0.4674582279
0.4699605937
0.4726485531
0.4750854398
0.4779167928
0.4804085624
0.4828166228
0.4856429717
0.4881209723
0.4905970765
0.4931764665
0.4956186407
0.4981586437
0.5006299699
0.5032266185
0.5061358579
0.5087368589
0.5114926282
0.5140460085
0.5166687364
0.5197830917
)
;
    }
    top
    {
        type            calculated;
        value           nonuniform List<scalar> 
200
(
0.007009240382
0.0102748666
0.01316270879
0.01594423062
0.01862210497
0.02124635854
0.02386763868
0.0264757179
0.02913249478
0.03169966905
0.03415732931
0.03677310692
0.03936213976
0.04196087047
0.04455921888
0.0471129104
0.04965299772
0.05221395084
0.05476155746
0.05730694874
0.05992008191
0.06241122229
0.06502392334
0.06758963566
0.07017411514
0.07274740995
0.07527724163
0.07790770488
0.08051468117
0.08305578501
0.08557911186
0.08816888281
0.0907980886
0.09340166737
0.09589804084
0.09831431848
0.1010112378
0.103648398
0.1062866399
0.1088030761
0.1111718546
0.1136720227
0.1163707773
0.1190775868
0.1215795775
0.1241401837
0.1267183394
0.1292100753
0.1317069025
0.1342324978
0.1368367406
0.1393669061
0.1420428013
0.1446158863
0.1471596498
0.1498733384
0.152276517
0.154847588
0.1574528084
0.160033285
0.1625491
0.1651650815
0.167716271
0.1701926377
0.1728389566
0.1754039092
0.1778795512
0.1805758153
0.1830258649
0.1855842393
0.1883744581
0.1908611368
0.1934031663
0.1959581322
0.1985724768
0.2011029079
0.2036477558
0.206201493
0.2087958019
0.2113708768
0.2138794857
0.2164485216
0.2189979196
0.2215049013
0.2241240707
0.2267566279
0.2293322569
0.2318191622
0.2344357724
0.2368707354
0.2395001295
0.2421213687
0.2445615711
0.2471895851
0.2498120735
0.2522229949
0.2548961731
0.2574016358
0.2600137027
0.2625300003
0.2652435204
0.2677244263
0.2703498334
0.2727848396
0.2753388056
0.2780325976
0.2803319284
0.2829779138
0.285697409
0.2881717889
0.290814994
0.2935418147
0.2960878192
0.2984864895
0.3012139223
0.303710334
0.3062177522
0.3086886603
0.3112475172
0.3135687001
0.3162680345
0.3188770519
0.3214718717
0.3241048099
0.326499359
0.3291640754
0.331809252
0.334385491
0.3372178247
0.3395504502
0.3420457075
0.3447566702
0.3474052787
0.3498840413
0.3524345194
0.3550787306
0.3575568267
0.3603168551
0.362845993
0.3654504239
0.3678508969
0.3704134229
0.3729939664
0.3756166843
0.3781552984
0.3807046604
0.3831209357
0.3856825213
0.3883161938
0.3908602534
0.3935896054
0.3960055381
0.39843636
0.4010562613
0.4038214082
0.4063518926
0.408697346
0.4114112539
0.4140137251
0.4164623676
0.4191079363
0.4215926757
0.4243635034
0.4268611469
0.4292362004
0.4319427571
0.4344605018
0.4367427096
0.439295744
0.4419175301
0.444476582
0.4471488676
0.4498491234
0.4522413681
0.4546524845
0.4572786259
0.45976312
0.4624612197
0.4651320887
0.4677207404
0.4699645814
0.4726701987
0.4750208792
0.4778806379
0.4803297793
0.4830854564
0.485589357
0.488084182
0.4906490055
0.4932562229
0.495947338
0.4983096671
0.5007700552
0.5032325422
0.5060430808
0.5086487106
0.5113253659
0.5141362817
0.5168476076
0.5199633876
)
;
    }
    inlet
    {
        type            calculated;
        value           nonuniform List<scalar> 5(0.007030681996 0.007045150037 0.007023757466 0.006990562406 0.007009240382);
    }
    outlet
    {
        type            calculated;
        value           nonuniform List<scalar> 5(0.5197830917 0.5198500455 0.5199378597 0.519970354 0.5199633876);
    }
    back
    {
        type            symmetry;
    }
    front
    {
        type            symmetry;
    }
}


// ************************************************************************* //
