/*--------------------------------*- C++ -*----------------------------------*\
| =========                 |                                                 |
| \\      /  F ield         | OpenFOAM: The Open Source CFD Toolbox           |
|  \\    /   O peration     | Version:  v1612+                                |
|   \\  /    A nd           | Web:      www.OpenFOAM.com                      |
|    \\/     M anipulation  |                                                 |
\*---------------------------------------------------------------------------*/
FoamFile
{
    version     2.0;
    format      ascii;
    class       volScalarField;
    location    "4.78";
    object      rhoM_Ar1;
}
// * * * * * * * * * * * * * * * * * * * * * * * * * * * * * * * * * * * * * //

dimensions      [0 -3 0 0 0 0 0];

internalField   nonuniform List<scalar> 
1000
(
9.150559835e-06
9.093725733e-06
9.044911031e-06
8.997277558e-06
8.950619641e-06
8.904503035e-06
8.858148779e-06
8.818634552e-06
8.768179416e-06
8.723761625e-06
8.681487003e-06
8.638155134e-06
8.592242963e-06
8.541454458e-06
8.500748069e-06
8.455580406e-06
8.408459157e-06
8.361884788e-06
8.317182314e-06
8.272386802e-06
8.230314759e-06
8.184249106e-06
8.137543329e-06
8.094564426e-06
8.050592226e-06
8.007124411e-06
7.957454835e-06
7.912993516e-06
7.869778408e-06
7.821805791e-06
7.777576139e-06
7.735226839e-06
7.690160672e-06
7.643054482e-06
7.596361289e-06
7.555018282e-06
7.506212864e-06
7.460358661e-06
7.415069492e-06
7.368604664e-06
7.322620497e-06
7.277892236e-06
7.236505289e-06
7.18838538e-06
7.143911477e-06
7.098319265e-06
7.051498996e-06
7.00801509e-06
6.963211739e-06
6.918124117e-06
6.872989255e-06
6.828648205e-06
6.785531705e-06
6.739473685e-06
6.697916134e-06
6.653686276e-06
6.60658483e-06
6.558442641e-06
6.51284424e-06
6.469408194e-06
6.425205359e-06
6.377641201e-06
6.334958533e-06
6.292662869e-06
6.241127587e-06
6.197313201e-06
6.152893347e-06
6.106194584e-06
6.062840641e-06
6.014505569e-06
5.970685613e-06
5.927021201e-06
5.881815374e-06
5.835732186e-06
5.78900413e-06
5.745729404e-06
5.702825797e-06
5.654988508e-06
5.611678299e-06
5.566467109e-06
5.520833432e-06
5.474647099e-06
5.428547408e-06
5.383489286e-06
5.336928326e-06
5.292439158e-06
5.247806205e-06
5.203976346e-06
5.158043752e-06
5.110114869e-06
5.066901824e-06
5.024994815e-06
4.977780115e-06
4.934187287e-06
4.887444171e-06
4.843034631e-06
4.799649539e-06
4.756200496e-06
4.707441493e-06
4.659355416e-06
4.613086565e-06
4.570847632e-06
4.526410243e-06
4.483065997e-06
4.434959909e-06
4.388657433e-06
4.344512979e-06
4.300628453e-06
4.253512567e-06
4.210479409e-06
4.167734029e-06
4.119926858e-06
4.077879364e-06
4.031327893e-06
3.987935786e-06
3.940238776e-06
3.89487431e-06
3.85094275e-06
3.805333415e-06
3.761993913e-06
3.716883393e-06
3.670953481e-06
3.625022743e-06
3.580217329e-06
3.535045128e-06
3.490946677e-06
3.442233678e-06
3.398361529e-06
3.355405112e-06
3.306989379e-06
3.26280573e-06
3.219239719e-06
3.173013984e-06
3.127740699e-06
3.085344777e-06
3.041998261e-06
2.993594494e-06
2.947539981e-06
2.901655865e-06
2.857831783e-06
2.809785726e-06
2.766798571e-06
2.72259553e-06
2.677708218e-06
2.631246691e-06
2.585798058e-06
2.541565724e-06
2.497321218e-06
2.452374288e-06
2.408098219e-06
2.364014209e-06
2.318067381e-06
2.272239995e-06
2.226604049e-06
2.179919108e-06
2.134866143e-06
2.090375118e-06
2.045422206e-06
2.002343663e-06
1.954908437e-06
1.911103334e-06
1.865807357e-06
1.821027523e-06
1.776187246e-06
1.732616697e-06
1.688026033e-06
1.64237709e-06
1.596988076e-06
1.55094821e-06
1.507411286e-06
1.46253532e-06
1.417722274e-06
1.372989681e-06
1.326691124e-06
1.279944708e-06
1.237550436e-06
1.193011552e-06
1.146652346e-06
1.101960599e-06
1.057057196e-06
1.01292285e-06
9.675540525e-07
9.216278534e-07
8.759558062e-07
8.319928894e-07
7.866416265e-07
7.398162e-07
6.960304881e-07
6.5080692e-07
6.064470971e-07
5.610500373e-07
5.161621065e-07
4.701304922e-07
4.259957339e-07
3.800029025e-07
3.333814989e-07
2.865432823e-07
2.391053744e-07
1.901900022e-07
1.333047398e-07
9.149701866e-06
9.09632852e-06
9.049342392e-06
8.99884806e-06
8.952008812e-06
8.902974204e-06
8.857226447e-06
8.81356513e-06
8.770330424e-06
8.724012889e-06
8.681355182e-06
8.63708489e-06
8.589185301e-06
8.544543889e-06
8.500862149e-06
8.455117899e-06
8.409276693e-06
8.362782984e-06
8.317414186e-06
8.272401036e-06
8.229283505e-06
8.185961744e-06
8.142444831e-06
8.096319972e-06
8.049110842e-06
8.003831576e-06
7.959688566e-06
7.916677275e-06
7.869470827e-06
7.820773505e-06
7.776682069e-06
7.729781552e-06
7.686835449e-06
7.639174746e-06
7.595362629e-06
7.550503991e-06
7.508516322e-06
7.459067066e-06
7.412987592e-06
7.367455823e-06
7.324038343e-06
7.276835608e-06
7.237028653e-06
7.188943194e-06
7.143724164e-06
7.099649643e-06
7.052296315e-06
7.007712666e-06
6.96425207e-06
6.919100911e-06
6.876238769e-06
6.829968887e-06
6.784646505e-06
6.740089467e-06
6.697875701e-06
6.65130422e-06
6.607361727e-06
6.557128767e-06
6.511535111e-06
6.470661006e-06
6.425512735e-06
6.379607577e-06
6.335862299e-06
6.289603557e-06
6.245043424e-06
6.198603352e-06
6.152273851e-06
6.105533624e-06
6.062748016e-06
6.015413873e-06
5.969775452e-06
5.924221198e-06
5.878258485e-06
5.834115475e-06
5.78962115e-06
5.746412231e-06
5.701089024e-06
5.653059676e-06
5.610328117e-06
5.567409864e-06
5.519448387e-06
5.475846068e-06
5.430402387e-06
5.385474848e-06
5.337299858e-06
5.294429877e-06
5.247770516e-06
5.203958193e-06
5.159099968e-06
5.113611727e-06
5.067592078e-06
5.022397597e-06
4.978644686e-06
4.93473231e-06
4.888263769e-06
4.843140253e-06
4.795652835e-06
4.754375017e-06
4.707527311e-06
4.659329217e-06
4.614015911e-06
4.571178525e-06
4.526787964e-06
4.481054855e-06
4.434246138e-06
4.38975862e-06
4.346809629e-06
4.302752437e-06
4.255521647e-06
4.211187198e-06
4.166019122e-06
4.123729853e-06
4.077628306e-06
4.030458165e-06
3.987035115e-06
3.940968844e-06
3.89407039e-06
3.849744605e-06
3.804271217e-06
3.761004123e-06
3.717983549e-06
3.670551211e-06
3.627021508e-06
3.581167923e-06
3.536666584e-06
3.489892112e-06
3.443558898e-06
3.400086131e-06
3.354982213e-06
3.309041161e-06
3.261235434e-06
3.217978036e-06
3.171706917e-06
3.127501813e-06
3.083785828e-06
3.039346995e-06
2.994629461e-06
2.947539774e-06
2.901957877e-06
2.857492226e-06
2.811728585e-06
2.769408166e-06
2.722436272e-06
2.676675726e-06
2.631103318e-06
2.586396305e-06
2.542119618e-06
2.495343495e-06
2.450740041e-06
2.407825295e-06
2.363157271e-06
2.318171764e-06
2.271143965e-06
2.226907505e-06
2.180383678e-06
2.137411994e-06
2.09014469e-06
2.045892552e-06
2.000986261e-06
1.955020041e-06
1.911434433e-06
1.864551657e-06
1.82097595e-06
1.776372084e-06
1.731456097e-06
1.68719777e-06
1.641306434e-06
1.597088334e-06
1.551501279e-06
1.507386531e-06
1.463912939e-06
1.417603243e-06
1.373427639e-06
1.326583646e-06
1.281680037e-06
1.236728156e-06
1.192459927e-06
1.14715281e-06
1.101852708e-06
1.057038836e-06
1.012614031e-06
9.669116588e-07
9.213357437e-07
8.770739096e-07
8.324877842e-07
7.86929404e-07
7.409388418e-07
6.973082616e-07
6.513321398e-07
6.070059425e-07
5.616148652e-07
5.166363722e-07
4.711739178e-07
4.261133205e-07
3.801966108e-07
3.331312665e-07
2.862210539e-07
2.391994436e-07
1.894578715e-07
1.329981897e-07
9.148760348e-06
9.092221657e-06
9.046629445e-06
8.997741097e-06
8.950845944e-06
8.906119746e-06
8.858600353e-06
8.813338415e-06
8.767054299e-06
8.727734812e-06
8.680993965e-06
8.63926973e-06
8.587084009e-06
8.543201134e-06
8.498680816e-06
8.452665705e-06
8.411658335e-06
8.368092943e-06
8.321917337e-06
8.273177932e-06
8.229645341e-06
8.183185052e-06
8.135721976e-06
8.093391655e-06
8.049274845e-06
8.003993721e-06
7.95847433e-06
7.915763813e-06
7.868457932e-06
7.82245293e-06
7.776602646e-06
7.73100507e-06
7.687288673e-06
7.642374749e-06
7.597430088e-06
7.554721221e-06
7.506632875e-06
7.460637361e-06
7.414512503e-06
7.366748447e-06
7.324504563e-06
7.279148555e-06
7.235549744e-06
7.19232329e-06
7.145919938e-06
7.096888836e-06
7.052878059e-06
7.00578631e-06
6.963218959e-06
6.916326281e-06
6.875195137e-06
6.828469968e-06
6.783260016e-06
6.74247833e-06
6.695237431e-06
6.651906181e-06
6.607565337e-06
6.555723092e-06
6.514603293e-06
6.469692258e-06
6.424770083e-06
6.381859462e-06
6.336183908e-06
6.290738576e-06
6.2429673e-06
6.196546e-06
6.150437851e-06
6.107012945e-06
6.061852708e-06
6.015130634e-06
5.970949873e-06
5.923820578e-06
5.879221663e-06
5.835754053e-06
5.79022311e-06
5.745408413e-06
5.702264889e-06
5.654518368e-06
5.608712231e-06
5.565410893e-06
5.519448799e-06
5.475364583e-06
5.430760097e-06
5.384281448e-06
5.338509349e-06
5.294139212e-06
5.250157522e-06
5.202459274e-06
5.160789913e-06
5.112104144e-06
5.067357524e-06
5.022013894e-06
4.978924624e-06
4.933433083e-06
4.889673982e-06
4.840917455e-06
4.796705544e-06
4.750886411e-06
4.707585898e-06
4.658532929e-06
4.61526893e-06
4.571315709e-06
4.525070995e-06
4.481271874e-06
4.437234898e-06
4.393756355e-06
4.348148465e-06
4.303869715e-06
4.257325259e-06
4.210371106e-06
4.164899781e-06
4.121829697e-06
4.076336092e-06
4.029246818e-06
3.981757131e-06
3.937350686e-06
3.895275961e-06
3.850409278e-06
3.80491423e-06
3.760316964e-06
3.714181172e-06
3.669623103e-06
3.625766426e-06
3.580909646e-06
3.535116711e-06
3.491498509e-06
3.443616247e-06
3.39682094e-06
3.354639768e-06
3.309978552e-06
3.263660398e-06
3.218984123e-06
3.17225586e-06
3.128737709e-06
3.084057102e-06
3.039304499e-06
2.993833586e-06
2.948579899e-06
2.901395525e-06
2.857014247e-06
2.811519818e-06
2.767984338e-06
2.721647411e-06
2.676146174e-06
2.630761492e-06
2.585224153e-06
2.539486093e-06
2.495279751e-06
2.450902806e-06
2.404660567e-06
2.361162839e-06
2.315996414e-06
2.271266915e-06
2.225564543e-06
2.181115189e-06
2.136629322e-06
2.087917148e-06
2.045555677e-06
2.001407509e-06
1.954549695e-06
1.910572338e-06
1.86709854e-06
1.821630928e-06
1.776764658e-06
1.730950269e-06
1.685238614e-06
1.639510455e-06
1.596353315e-06
1.551738515e-06
1.507218816e-06
1.462967709e-06
1.418158788e-06
1.37137627e-06
1.327685659e-06
1.282372973e-06
1.237723722e-06
1.192345641e-06
1.147880196e-06
1.102003095e-06
1.056969728e-06
1.012287058e-06
9.660889658e-07
9.207669963e-07
8.758844291e-07
8.32140182e-07
7.868850512e-07
7.425122319e-07
6.983993407e-07
6.515590611e-07
6.066985672e-07
5.613328638e-07
5.165633447e-07
4.712690184e-07
4.255899573e-07
3.796885133e-07
3.336129587e-07
2.873212099e-07
2.384846414e-07
1.893776238e-07
1.330303712e-07
9.145753434e-06
9.093385557e-06
9.045672249e-06
8.999284987e-06
8.950774154e-06
8.905633309e-06
8.863737027e-06
8.817420523e-06
8.772043887e-06
8.728985148e-06
8.679298656e-06
8.635201443e-06
8.589196234e-06
8.543331717e-06
8.498412223e-06
8.455522438e-06
8.410819964e-06
8.369027653e-06
8.320432446e-06
8.273825896e-06
8.229452045e-06
8.185129561e-06
8.141809657e-06
8.093002176e-06
8.049471235e-06
8.004034567e-06
7.960256075e-06
7.915562059e-06
7.870336635e-06
7.824534211e-06
7.776479077e-06
7.734306776e-06
7.687860927e-06
7.643194142e-06
7.598709718e-06
7.552120084e-06
7.507702087e-06
7.459300795e-06
7.416156032e-06
7.370601159e-06
7.326966041e-06
7.279213744e-06
7.235420193e-06
7.191400133e-06
7.143301265e-06
7.099622619e-06
7.05244794e-06
7.007556296e-06
6.960763051e-06
6.919444387e-06
6.873503954e-06
6.82847265e-06
6.78540958e-06
6.743075133e-06
6.695001227e-06
6.653063892e-06
6.602151406e-06
6.559174359e-06
6.51458844e-06
6.471607887e-06
6.42698793e-06
6.382761165e-06
6.33601413e-06
6.288489992e-06
6.242819389e-06
6.197907941e-06
6.154517485e-06
6.106764775e-06
6.061377824e-06
6.014367766e-06
5.972511504e-06
5.924205726e-06
5.881206812e-06
5.8368998e-06
5.788311401e-06
5.744601811e-06
5.699542451e-06
5.656878969e-06
5.611814452e-06
5.564270304e-06
5.520277062e-06
5.476758086e-06
5.430828174e-06
5.386067113e-06
5.339131114e-06
5.292521675e-06
5.247670671e-06
5.203823896e-06
5.161351647e-06
5.113179133e-06
5.067076347e-06
5.024529626e-06
4.977465107e-06
4.931074132e-06
4.884595276e-06
4.844460316e-06
4.799336181e-06
4.753917461e-06
4.707194974e-06
4.66095191e-06
4.615527826e-06
4.574095495e-06
4.526646241e-06
4.482657332e-06
4.438216024e-06
4.393264968e-06
4.34974496e-06
4.303821237e-06
4.2574676e-06
4.212310046e-06
4.166007157e-06
4.123778745e-06
4.077677816e-06
4.032900664e-06
3.985090399e-06
3.937847025e-06
3.89336157e-06
3.849432072e-06
3.80504997e-06
3.76192398e-06
3.717774163e-06
3.67187932e-06
3.628238631e-06
3.5820327e-06
3.536936002e-06
3.489685201e-06
3.443281642e-06
3.397000414e-06
3.352952092e-06
3.308988762e-06
3.265120327e-06
3.217330691e-06
3.173687115e-06
3.129296348e-06
3.081657512e-06
3.036532757e-06
2.992635854e-06
2.94596721e-06
2.900853183e-06
2.857156383e-06
2.811270204e-06
2.766848081e-06
2.720689597e-06
2.676389599e-06
2.632975625e-06
2.586954532e-06
2.540363659e-06
2.495272531e-06
2.451756236e-06
2.406189604e-06
2.359926118e-06
2.317104409e-06
2.270792031e-06
2.226549176e-06
2.181779656e-06
2.13498538e-06
2.090026897e-06
2.04722623e-06
2.001389562e-06
1.955742682e-06
1.911042271e-06
1.866000034e-06
1.822646091e-06
1.773502148e-06
1.729686936e-06
1.684256457e-06
1.640663834e-06
1.595893284e-06
1.550703135e-06
1.506200145e-06
1.461313452e-06
1.416024489e-06
1.37164053e-06
1.327680295e-06
1.282804123e-06
1.23844822e-06
1.191230426e-06
1.14761181e-06
1.102939455e-06
1.057223055e-06
1.011421044e-06
9.66243066e-07
9.200253761e-07
8.770470916e-07
8.322113528e-07
7.873397191e-07
7.421939231e-07
6.964779357e-07
6.512479726e-07
6.068283249e-07
5.619983623e-07
5.165546805e-07
4.710823241e-07
4.25913836e-07
3.804332279e-07
3.343368378e-07
2.865216216e-07
2.386766993e-07
1.889295573e-07
1.330609025e-07
9.151018835e-06
9.098820736e-06
9.048186331e-06
8.997955847e-06
8.954864927e-06
8.904820106e-06
8.862321863e-06
8.815992363e-06
8.771473076e-06
8.723195559e-06
8.680298554e-06
8.635308921e-06
8.588327538e-06
8.543560495e-06
8.500108357e-06
8.457382162e-06
8.413182009e-06
8.365035694e-06
8.318126926e-06
8.269390821e-06
8.229361896e-06
8.184201453e-06
8.137513211e-06
8.095606201e-06
8.045992324e-06
8.001712955e-06
7.958320436e-06
7.913322965e-06
7.869095788e-06
7.820970308e-06
7.775787998e-06
7.729328328e-06
7.686557367e-06
7.644696774e-06
7.595030498e-06
7.552283261e-06
7.508478158e-06
7.462852939e-06
7.414868563e-06
7.371643966e-06
7.329040102e-06
7.279569804e-06
7.235297862e-06
7.18892669e-06
7.144955316e-06
7.096631589e-06
7.053583991e-06
7.012343511e-06
6.964028656e-06
6.920124326e-06
6.873955115e-06
6.831167238e-06
6.783298386e-06
6.739977038e-06
6.693271261e-06
6.646728661e-06
6.601343979e-06
6.558338876e-06
6.511687767e-06
6.469650381e-06
6.424814848e-06
6.382536719e-06
6.333496953e-06
6.288843577e-06
6.243978751e-06
6.198195925e-06
6.151327796e-06
6.106970861e-06
6.061911089e-06
6.017509595e-06
5.971500879e-06
5.926818622e-06
5.880947503e-06
5.833625325e-06
5.790923266e-06
5.747181494e-06
5.702590418e-06
5.655600576e-06
5.613197434e-06
5.563277007e-06
5.518503362e-06
5.477595219e-06
5.430454579e-06
5.386451848e-06
5.3427994e-06
5.297433903e-06
5.250905744e-06
5.201802852e-06
5.158486249e-06
5.112982949e-06
5.067077791e-06
5.022857835e-06
4.973809198e-06
4.934087029e-06
4.886519776e-06
4.842873517e-06
4.799792499e-06
4.749438033e-06
4.706894613e-06
4.658815343e-06
4.614645928e-06
4.573699002e-06
4.529530206e-06
4.482095598e-06
4.438316488e-06
4.391583274e-06
4.346713703e-06
4.300603286e-06
4.255423864e-06
4.20934831e-06
4.165181164e-06
4.119674769e-06
4.074706797e-06
4.030943571e-06
3.984418712e-06
3.938882611e-06
3.893664819e-06
3.849369772e-06
3.805917222e-06
3.76258886e-06
3.717107633e-06
3.670314388e-06
3.625884838e-06
3.579956989e-06
3.536482778e-06
3.491226203e-06
3.446840594e-06
3.400060345e-06
3.353555496e-06
3.310158851e-06
3.265294644e-06
3.218626206e-06
3.172336933e-06
3.126896139e-06
3.082274325e-06
3.037401866e-06
2.992544879e-06
2.945540804e-06
2.899229251e-06
2.855154524e-06
2.811783253e-06
2.765694083e-06
2.7205192e-06
2.677823948e-06
2.631472993e-06
2.588191253e-06
2.539161801e-06
2.495336481e-06
2.452777382e-06
2.407530503e-06
2.361454536e-06
2.315892236e-06
2.271067225e-06
2.22718373e-06
2.181940977e-06
2.134907608e-06
2.088896416e-06
2.046043764e-06
2.002832576e-06
1.956134019e-06
1.910379455e-06
1.865747945e-06
1.821111072e-06
1.776798077e-06
1.731382245e-06
1.685838717e-06
1.642999268e-06
1.597801073e-06
1.552145942e-06
1.505424281e-06
1.461278589e-06
1.416923717e-06
1.37059628e-06
1.325890917e-06
1.284015677e-06
1.238717018e-06
1.19119123e-06
1.147044919e-06
1.101883239e-06
1.05679603e-06
1.012394536e-06
9.651286759e-07
9.206514727e-07
8.766941258e-07
8.32159986e-07
7.867305384e-07
7.413023285e-07
6.968729851e-07
6.508840732e-07
6.059897474e-07
5.618310593e-07
5.157119771e-07
4.705626742e-07
4.256437996e-07
3.798081627e-07
3.33659787e-07
2.8748088e-07
2.390872207e-07
1.89001347e-07
1.323753937e-07
)
;

boundaryField
{
    bottom
    {
        type            calculated;
        value           nonuniform List<scalar> 
200
(
9.150559835e-06
9.093725733e-06
9.044911031e-06
8.997277558e-06
8.950619641e-06
8.904503035e-06
8.858148779e-06
8.818634552e-06
8.768179416e-06
8.723761625e-06
8.681487003e-06
8.638155134e-06
8.592242963e-06
8.541454458e-06
8.500748069e-06
8.455580406e-06
8.408459157e-06
8.361884788e-06
8.317182314e-06
8.272386802e-06
8.230314759e-06
8.184249106e-06
8.137543329e-06
8.094564426e-06
8.050592226e-06
8.007124411e-06
7.957454835e-06
7.912993516e-06
7.869778408e-06
7.821805791e-06
7.777576139e-06
7.735226839e-06
7.690160672e-06
7.643054482e-06
7.596361289e-06
7.555018282e-06
7.506212864e-06
7.460358661e-06
7.415069492e-06
7.368604664e-06
7.322620497e-06
7.277892236e-06
7.236505289e-06
7.18838538e-06
7.143911477e-06
7.098319265e-06
7.051498996e-06
7.00801509e-06
6.963211739e-06
6.918124117e-06
6.872989255e-06
6.828648205e-06
6.785531705e-06
6.739473685e-06
6.697916134e-06
6.653686276e-06
6.60658483e-06
6.558442641e-06
6.51284424e-06
6.469408194e-06
6.425205359e-06
6.377641201e-06
6.334958533e-06
6.292662869e-06
6.241127587e-06
6.197313201e-06
6.152893347e-06
6.106194584e-06
6.062840641e-06
6.014505569e-06
5.970685613e-06
5.927021201e-06
5.881815374e-06
5.835732186e-06
5.78900413e-06
5.745729404e-06
5.702825797e-06
5.654988508e-06
5.611678299e-06
5.566467109e-06
5.520833432e-06
5.474647099e-06
5.428547408e-06
5.383489286e-06
5.336928326e-06
5.292439158e-06
5.247806205e-06
5.203976346e-06
5.158043752e-06
5.110114869e-06
5.066901824e-06
5.024994815e-06
4.977780115e-06
4.934187287e-06
4.887444171e-06
4.843034631e-06
4.799649539e-06
4.756200496e-06
4.707441493e-06
4.659355416e-06
4.613086565e-06
4.570847632e-06
4.526410243e-06
4.483065997e-06
4.434959909e-06
4.388657433e-06
4.344512979e-06
4.300628453e-06
4.253512567e-06
4.210479409e-06
4.167734029e-06
4.119926858e-06
4.077879364e-06
4.031327893e-06
3.987935786e-06
3.940238776e-06
3.89487431e-06
3.85094275e-06
3.805333415e-06
3.761993913e-06
3.716883393e-06
3.670953481e-06
3.625022743e-06
3.580217329e-06
3.535045128e-06
3.490946677e-06
3.442233678e-06
3.398361529e-06
3.355405112e-06
3.306989379e-06
3.26280573e-06
3.219239719e-06
3.173013984e-06
3.127740699e-06
3.085344777e-06
3.041998261e-06
2.993594494e-06
2.947539981e-06
2.901655865e-06
2.857831783e-06
2.809785726e-06
2.766798571e-06
2.72259553e-06
2.677708218e-06
2.631246691e-06
2.585798058e-06
2.541565724e-06
2.497321218e-06
2.452374288e-06
2.408098219e-06
2.364014209e-06
2.318067381e-06
2.272239995e-06
2.226604049e-06
2.179919108e-06
2.134866143e-06
2.090375118e-06
2.045422206e-06
2.002343663e-06
1.954908437e-06
1.911103334e-06
1.865807357e-06
1.821027523e-06
1.776187246e-06
1.732616697e-06
1.688026033e-06
1.64237709e-06
1.596988076e-06
1.55094821e-06
1.507411286e-06
1.46253532e-06
1.417722274e-06
1.372989681e-06
1.326691124e-06
1.279944708e-06
1.237550436e-06
1.193011552e-06
1.146652346e-06
1.101960599e-06
1.057057196e-06
1.01292285e-06
9.675540525e-07
9.216278534e-07
8.759558062e-07
8.319928894e-07
7.866416265e-07
7.398162e-07
6.960304881e-07
6.5080692e-07
6.064470971e-07
5.610500373e-07
5.161621065e-07
4.701304922e-07
4.259957339e-07
3.800029025e-07
3.333814989e-07
2.865432823e-07
2.391053744e-07
1.901900022e-07
1.333047398e-07
)
;
    }
    top
    {
        type            calculated;
        value           nonuniform List<scalar> 
200
(
9.151018835e-06
9.098820736e-06
9.048186331e-06
8.997955847e-06
8.954864927e-06
8.904820106e-06
8.862321863e-06
8.815992363e-06
8.771473076e-06
8.723195559e-06
8.680298554e-06
8.635308921e-06
8.588327538e-06
8.543560495e-06
8.500108357e-06
8.457382162e-06
8.413182009e-06
8.365035694e-06
8.318126926e-06
8.269390821e-06
8.229361896e-06
8.184201453e-06
8.137513211e-06
8.095606201e-06
8.045992324e-06
8.001712955e-06
7.958320436e-06
7.913322965e-06
7.869095788e-06
7.820970308e-06
7.775787998e-06
7.729328328e-06
7.686557367e-06
7.644696774e-06
7.595030498e-06
7.552283261e-06
7.508478158e-06
7.462852939e-06
7.414868563e-06
7.371643966e-06
7.329040102e-06
7.279569804e-06
7.235297862e-06
7.18892669e-06
7.144955316e-06
7.096631589e-06
7.053583991e-06
7.012343511e-06
6.964028656e-06
6.920124326e-06
6.873955115e-06
6.831167238e-06
6.783298386e-06
6.739977038e-06
6.693271261e-06
6.646728661e-06
6.601343979e-06
6.558338876e-06
6.511687767e-06
6.469650381e-06
6.424814848e-06
6.382536719e-06
6.333496953e-06
6.288843577e-06
6.243978751e-06
6.198195925e-06
6.151327796e-06
6.106970861e-06
6.061911089e-06
6.017509595e-06
5.971500879e-06
5.926818622e-06
5.880947503e-06
5.833625325e-06
5.790923266e-06
5.747181494e-06
5.702590418e-06
5.655600576e-06
5.613197434e-06
5.563277007e-06
5.518503362e-06
5.477595219e-06
5.430454579e-06
5.386451848e-06
5.3427994e-06
5.297433903e-06
5.250905744e-06
5.201802852e-06
5.158486249e-06
5.112982949e-06
5.067077791e-06
5.022857835e-06
4.973809198e-06
4.934087029e-06
4.886519776e-06
4.842873517e-06
4.799792499e-06
4.749438033e-06
4.706894613e-06
4.658815343e-06
4.614645928e-06
4.573699002e-06
4.529530206e-06
4.482095598e-06
4.438316488e-06
4.391583274e-06
4.346713703e-06
4.300603286e-06
4.255423864e-06
4.20934831e-06
4.165181164e-06
4.119674769e-06
4.074706797e-06
4.030943571e-06
3.984418712e-06
3.938882611e-06
3.893664819e-06
3.849369772e-06
3.805917222e-06
3.76258886e-06
3.717107633e-06
3.670314388e-06
3.625884838e-06
3.579956989e-06
3.536482778e-06
3.491226203e-06
3.446840594e-06
3.400060345e-06
3.353555496e-06
3.310158851e-06
3.265294644e-06
3.218626206e-06
3.172336933e-06
3.126896139e-06
3.082274325e-06
3.037401866e-06
2.992544879e-06
2.945540804e-06
2.899229251e-06
2.855154524e-06
2.811783253e-06
2.765694083e-06
2.7205192e-06
2.677823948e-06
2.631472993e-06
2.588191253e-06
2.539161801e-06
2.495336481e-06
2.452777382e-06
2.407530503e-06
2.361454536e-06
2.315892236e-06
2.271067225e-06
2.22718373e-06
2.181940977e-06
2.134907608e-06
2.088896416e-06
2.046043764e-06
2.002832576e-06
1.956134019e-06
1.910379455e-06
1.865747945e-06
1.821111072e-06
1.776798077e-06
1.731382245e-06
1.685838717e-06
1.642999268e-06
1.597801073e-06
1.552145942e-06
1.505424281e-06
1.461278589e-06
1.416923717e-06
1.37059628e-06
1.325890917e-06
1.284015677e-06
1.238717018e-06
1.19119123e-06
1.147044919e-06
1.101883239e-06
1.05679603e-06
1.012394536e-06
9.651286759e-07
9.206514727e-07
8.766941258e-07
8.32159986e-07
7.867305384e-07
7.413023285e-07
6.968729851e-07
6.508840732e-07
6.059897474e-07
5.618310593e-07
5.157119771e-07
4.705626742e-07
4.256437996e-07
3.798081627e-07
3.33659787e-07
2.8748088e-07
2.390872207e-07
1.89001347e-07
1.323753937e-07
)
;
    }
    inlet
    {
        type            calculated;
        value           nonuniform List<scalar> 5(9.150559835e-06 9.149701866e-06 9.148760348e-06 9.145753434e-06 9.151018835e-06);
    }
    outlet
    {
        type            calculated;
        value           nonuniform List<scalar> 5(1.333047398e-07 1.329981897e-07 1.330303712e-07 1.330609025e-07 1.323753937e-07);
    }
    back
    {
        type            symmetry;
    }
    front
    {
        type            symmetry;
    }
}


// ************************************************************************* //
