/*--------------------------------*- C++ -*----------------------------------*\
| =========                 |                                                 |
| \\      /  F ield         | OpenFOAM: The Open Source CFD Toolbox           |
|  \\    /   O peration     | Version:  v1612+                                |
|   \\  /    A nd           | Web:      www.OpenFOAM.com                      |
|    \\/     M anipulation  |                                                 |
\*---------------------------------------------------------------------------*/
FoamFile
{
    version     2.0;
    format      ascii;
    class       volScalarField;
    location    "4.78";
    object      rhoN_Ar2;
}
// * * * * * * * * * * * * * * * * * * * * * * * * * * * * * * * * * * * * * //

dimensions      [0 -3 0 0 0 0 0];

internalField   nonuniform List<scalar> 
1000
(
2.008448401e+18
2.84728885e+18
3.599464823e+18
4.318727398e+18
5.02445497e+18
5.712994641e+18
6.411400864e+18
7.091359032e+18
7.781043734e+18
8.461182368e+18
9.131606914e+18
9.832517891e+18
1.050519827e+19
1.118827105e+19
1.185802973e+19
1.254332411e+19
1.319508902e+19
1.38766745e+19
1.456881106e+19
1.525273016e+19
1.592770994e+19
1.661216111e+19
1.729067554e+19
1.795665065e+19
1.864283492e+19
1.931382887e+19
2.000975212e+19
2.068900086e+19
2.136402731e+19
2.203687882e+19
2.272197718e+19
2.343212619e+19
2.411276889e+19
2.479876335e+19
2.548277269e+19
2.616926811e+19
2.685013483e+19
2.753448643e+19
2.820985203e+19
2.888530787e+19
2.955877545e+19
3.023522074e+19
3.090842697e+19
3.160102403e+19
3.223756439e+19
3.296580985e+19
3.362461919e+19
3.430605843e+19
3.499705618e+19
3.565708211e+19
3.631161936e+19
3.701141642e+19
3.770966396e+19
3.83647115e+19
3.909631426e+19
3.976250406e+19
4.043418876e+19
4.112880207e+19
4.182819153e+19
4.250066344e+19
4.31966987e+19
4.387927364e+19
4.453263163e+19
4.521698634e+19
4.58939108e+19
4.657418323e+19
4.726609265e+19
4.79266102e+19
4.858908487e+19
4.928995229e+19
4.995080899e+19
5.064593258e+19
5.131569438e+19
5.198989939e+19
5.268629248e+19
5.334541296e+19
5.408121314e+19
5.473956819e+19
5.54404605e+19
5.611509801e+19
5.676990596e+19
5.748086707e+19
5.81316892e+19
5.882761245e+19
5.950609265e+19
6.017054935e+19
6.086472083e+19
6.151687468e+19
6.217490614e+19
6.287962869e+19
6.3580465e+19
6.423667001e+19
6.487821366e+19
6.556945722e+19
6.624650614e+19
6.693714296e+19
6.761440035e+19
6.828019499e+19
6.896203561e+19
6.965317649e+19
7.033237857e+19
7.097989006e+19
7.168352982e+19
7.242153293e+19
7.305224235e+19
7.37315191e+19
7.44743357e+19
7.508829283e+19
7.580851374e+19
7.649083665e+19
7.717116197e+19
7.783364909e+19
7.856739568e+19
7.918938358e+19
7.98258057e+19
8.055314883e+19
8.123998029e+19
8.195596646e+19
8.259960104e+19
8.327394918e+19
8.394230458e+19
8.455659464e+19
8.530845013e+19
8.594453933e+19
8.663553086e+19
8.733508522e+19
8.801800864e+19
8.867738427e+19
8.941264304e+19
9.006604771e+19
9.0709228e+19
9.142720864e+19
9.207195402e+19
9.282799136e+19
9.346468729e+19
9.414825169e+19
9.481709248e+19
9.550941573e+19
9.625466863e+19
9.692981331e+19
9.758541158e+19
9.827473224e+19
9.894601867e+19
9.963028003e+19
1.003010188e+20
1.009610603e+20
1.0165867e+20
1.023371907e+20
1.029612477e+20
1.036857096e+20
1.043421355e+20
1.050505016e+20
1.057494182e+20
1.064318002e+20
1.071065621e+20
1.07773312e+20
1.085116698e+20
1.091484404e+20
1.097784778e+20
1.105173272e+20
1.111654237e+20
1.118673428e+20
1.125279848e+20
1.131707388e+20
1.138341376e+20
1.145215976e+20
1.15260864e+20
1.159657483e+20
1.166615533e+20
1.1727547e+20
1.180182617e+20
1.18670901e+20
1.193213746e+20
1.199782984e+20
1.206576498e+20
1.213379409e+20
1.21994485e+20
1.227171267e+20
1.233982237e+20
1.240244774e+20
1.246869583e+20
1.253883547e+20
1.260544449e+20
1.2678508e+20
1.274177341e+20
1.280897331e+20
1.288354527e+20
1.295175392e+20
1.301505293e+20
1.308465801e+20
1.315028629e+20
1.321706956e+20
1.328517148e+20
1.335429832e+20
1.343059872e+20
1.350263419e+20
1.35726083e+20
1.364508373e+20
1.371663972e+20
1.380096404e+20
2.007150908e+18
2.850042524e+18
3.595911495e+18
4.32214382e+18
5.031658081e+18
5.719074503e+18
6.402284183e+18
7.108565601e+18
7.783287122e+18
8.47146586e+18
9.149454451e+18
9.824639585e+18
1.051363976e+19
1.118938496e+19
1.185750389e+19
1.253442213e+19
1.32216892e+19
1.389929507e+19
1.458509041e+19
1.524839585e+19
1.594564771e+19
1.660608747e+19
1.728375557e+19
1.795411478e+19
1.863746137e+19
1.932090752e+19
2.000591564e+19
2.068690683e+19
2.13652688e+19
2.204091443e+19
2.27365172e+19
2.343066067e+19
2.413043907e+19
2.479365428e+19
2.546326984e+19
2.616472532e+19
2.683533345e+19
2.752511461e+19
2.820533725e+19
2.887563423e+19
2.95313414e+19
3.023524875e+19
3.090087848e+19
3.160552636e+19
3.226310043e+19
3.295633535e+19
3.367486984e+19
3.432936975e+19
3.500063751e+19
3.567671253e+19
3.634533241e+19
3.704569576e+19
3.773174935e+19
3.840068349e+19
3.91015229e+19
3.976263786e+19
4.042519965e+19
4.114028349e+19
4.182004875e+19
4.249752083e+19
4.31598057e+19
4.384739326e+19
4.456482316e+19
4.521785134e+19
4.590178289e+19
4.655903959e+19
4.726468315e+19
4.791749663e+19
4.861330475e+19
4.930412826e+19
4.999147001e+19
5.066046327e+19
5.136595436e+19
5.2027172e+19
5.270877615e+19
5.336487226e+19
5.404733829e+19
5.470929957e+19
5.541601659e+19
5.609561072e+19
5.673616802e+19
5.746008228e+19
5.81438987e+19
5.882977182e+19
5.949590873e+19
6.016093794e+19
6.08504204e+19
6.150876612e+19
6.221832083e+19
6.290909455e+19
6.357689922e+19
6.422146724e+19
6.488935592e+19
6.555069801e+19
6.62636847e+19
6.691496111e+19
6.761630147e+19
6.829093898e+19
6.898645151e+19
6.966405428e+19
7.037844736e+19
7.100886742e+19
7.169882282e+19
7.24093172e+19
7.311189283e+19
7.374143544e+19
7.440206188e+19
7.509880035e+19
7.582676889e+19
7.65416567e+19
7.712773483e+19
7.783342195e+19
7.849454935e+19
7.917696249e+19
7.98816446e+19
8.054255419e+19
8.122960968e+19
8.19506987e+19
8.257302264e+19
8.321241003e+19
8.394527917e+19
8.465939844e+19
8.530533863e+19
8.594929369e+19
8.660847952e+19
8.735271806e+19
8.80572446e+19
8.869680622e+19
8.939378427e+19
9.003527502e+19
9.074159689e+19
9.142400691e+19
9.213718963e+19
9.279018358e+19
9.348335315e+19
9.41871516e+19
9.481392809e+19
9.553537182e+19
9.625340536e+19
9.692008055e+19
9.760492999e+19
9.826424028e+19
9.889885774e+19
9.962260398e+19
1.002958755e+20
1.009648221e+20
1.016558914e+20
1.023232916e+20
1.03004233e+20
1.037115755e+20
1.044019354e+20
1.050589929e+20
1.057418168e+20
1.063885504e+20
1.070458258e+20
1.077932069e+20
1.084691015e+20
1.091421957e+20
1.098244844e+20
1.105052951e+20
1.112130762e+20
1.11868967e+20
1.125134385e+20
1.132165649e+20
1.139051139e+20
1.145640353e+20
1.152714275e+20
1.15958819e+20
1.166199184e+20
1.173667457e+20
1.180383962e+20
1.187267087e+20
1.193057922e+20
1.20033823e+20
1.206684653e+20
1.213444003e+20
1.219880754e+20
1.226710984e+20
1.233874579e+20
1.240709134e+20
1.247562171e+20
1.253923312e+20
1.260710666e+20
1.267550105e+20
1.274356844e+20
1.281229296e+20
1.288228729e+20
1.295081611e+20
1.302010164e+20
1.30854334e+20
1.315562717e+20
1.322248449e+20
1.329212194e+20
1.336611827e+20
1.342960927e+20
1.350264664e+20
1.356797373e+20
1.364259236e+20
1.372132315e+20
1.380139343e+20
2.007832325e+18
2.8484121e+18
3.600217805e+18
4.31400726e+18
5.019902852e+18
5.715773207e+18
6.396932411e+18
7.081610717e+18
7.775038548e+18
8.464626793e+18
9.144672083e+18
9.820053241e+18
1.049788315e+19
1.11841172e+19
1.185286154e+19
1.251395471e+19
1.321684149e+19
1.388618946e+19
1.457358099e+19
1.524297874e+19
1.592659291e+19
1.660802593e+19
1.728453034e+19
1.796505791e+19
1.866447537e+19
1.933330372e+19
2.000167779e+19
2.069254486e+19
2.136793224e+19
2.20561452e+19
2.272337113e+19
2.339949283e+19
2.411076508e+19
2.478058289e+19
2.545510216e+19
2.61748688e+19
2.684072878e+19
2.750054002e+19
2.818201971e+19
2.885247848e+19
2.954789144e+19
3.025820847e+19
3.092538462e+19
3.160688297e+19
3.227829075e+19
3.297649473e+19
3.365162697e+19
3.430352256e+19
3.498790838e+19
3.566509732e+19
3.636204425e+19
3.705188453e+19
3.773798168e+19
3.837598755e+19
3.909441625e+19
3.97990548e+19
4.043190493e+19
4.110433328e+19
4.179729438e+19
4.247827934e+19
4.314076958e+19
4.385292239e+19
4.45178427e+19
4.520687087e+19
4.588828211e+19
4.656053621e+19
4.72450185e+19
4.793242869e+19
4.859749525e+19
4.929138047e+19
5.002116301e+19
5.067453034e+19
5.131897079e+19
5.201459222e+19
5.269035609e+19
5.33970949e+19
5.406495246e+19
5.472491927e+19
5.541202455e+19
5.609648505e+19
5.675875436e+19
5.740321348e+19
5.814641901e+19
5.882301054e+19
5.950547035e+19
6.022899257e+19
6.085303094e+19
6.154444875e+19
6.222838341e+19
6.289949559e+19
6.358684356e+19
6.421121175e+19
6.490709144e+19
6.556806949e+19
6.628528159e+19
6.6960921e+19
6.76323879e+19
6.832120138e+19
6.900609438e+19
6.965886119e+19
7.03551516e+19
7.101697908e+19
7.167028729e+19
7.238262679e+19
7.305563077e+19
7.377454175e+19
7.440724564e+19
7.51022261e+19
7.581400553e+19
7.65454465e+19
7.717046811e+19
7.782898496e+19
7.848622299e+19
7.919266621e+19
7.990031668e+19
8.06149089e+19
8.121503232e+19
8.190497217e+19
8.257335557e+19
8.321944201e+19
8.393418358e+19
8.463578842e+19
8.531205635e+19
8.599794192e+19
8.66467758e+19
8.734163492e+19
8.801082731e+19
8.873122869e+19
8.939831772e+19
9.002901469e+19
9.072595229e+19
9.143696007e+19
9.210325255e+19
9.28035599e+19
9.350373034e+19
9.416212895e+19
9.483521072e+19
9.552825895e+19
9.623390251e+19
9.695811858e+19
9.755696007e+19
9.82817051e+19
9.895112774e+19
9.965354157e+19
1.002622154e+20
1.00971767e+20
1.016640809e+20
1.023505452e+20
1.029959658e+20
1.037136446e+20
1.044322973e+20
1.050801853e+20
1.05722345e+20
1.064326154e+20
1.070593265e+20
1.077954659e+20
1.084809283e+20
1.09216408e+20
1.098128816e+20
1.105016546e+20
1.111831032e+20
1.118561912e+20
1.12567227e+20
1.131949462e+20
1.138546517e+20
1.145693279e+20
1.152243008e+20
1.159561245e+20
1.16591582e+20
1.173353601e+20
1.179761725e+20
1.186877279e+20
1.19319293e+20
1.199792194e+20
1.206921407e+20
1.213857241e+20
1.219964702e+20
1.227113829e+20
1.23322437e+20
1.240906154e+20
1.247050579e+20
1.254065725e+20
1.260972218e+20
1.267819717e+20
1.274719208e+20
1.281340595e+20
1.287966275e+20
1.29503301e+20
1.301527354e+20
1.308511665e+20
1.315711167e+20
1.322296118e+20
1.328944232e+20
1.335874745e+20
1.342645701e+20
1.349539934e+20
1.356346206e+20
1.364159046e+20
1.371635315e+20
1.380174036e+20
1.994060847e+18
2.844805877e+18
3.593437857e+18
4.31908522e+18
5.021990666e+18
5.708510977e+18
6.405741054e+18
7.100183232e+18
7.784786863e+18
8.4685535e+18
9.133028868e+18
9.823335869e+18
1.049950112e+19
1.117446534e+19
1.185390078e+19
1.251910424e+19
1.320708073e+19
1.387968021e+19
1.455688781e+19
1.524431979e+19
1.593255765e+19
1.660703647e+19
1.727863717e+19
1.797170717e+19
1.86583395e+19
1.934142472e+19
1.999816491e+19
2.069371789e+19
2.137624304e+19
2.204696007e+19
2.274820709e+19
2.342153155e+19
2.409961037e+19
2.478044598e+19
2.546712498e+19
2.613680899e+19
2.684581608e+19
2.752068384e+19
2.819697355e+19
2.886817908e+19
2.956019118e+19
3.023168608e+19
3.093396612e+19
3.159099879e+19
3.228200899e+19
3.295100225e+19
3.363764702e+19
3.429396404e+19
3.497350527e+19
3.566619879e+19
3.635579948e+19
3.701924183e+19
3.772830804e+19
3.841626897e+19
3.910334002e+19
3.978658704e+19
4.043845151e+19
4.112239551e+19
4.181927398e+19
4.252329646e+19
4.317585791e+19
4.383393604e+19
4.452429283e+19
4.521459983e+19
4.590455834e+19
4.655747761e+19
4.725609853e+19
4.792153224e+19
4.861384615e+19
4.930643699e+19
4.997909248e+19
5.065150527e+19
5.132788833e+19
5.201671737e+19
5.266942818e+19
5.340684944e+19
5.405415246e+19
5.472944339e+19
5.539817528e+19
5.609819637e+19
5.6790865e+19
5.747214555e+19
5.813251374e+19
5.880287606e+19
5.950792844e+19
6.019050337e+19
6.088335869e+19
6.152014486e+19
6.219468902e+19
6.287337459e+19
6.354723423e+19
6.4206893e+19
6.489899533e+19
6.559195022e+19
6.627116474e+19
6.68882987e+19
6.7634986e+19
6.831607364e+19
6.89940809e+19
6.964689127e+19
7.035610372e+19
7.101472636e+19
7.168705203e+19
7.235108245e+19
7.303670666e+19
7.374929196e+19
7.441824477e+19
7.508029628e+19
7.582973414e+19
7.646766534e+19
7.714335765e+19
7.781447295e+19
7.851894347e+19
7.921003457e+19
7.989641798e+19
8.057504754e+19
8.124727675e+19
8.185826863e+19
8.2556121e+19
8.324843492e+19
8.391085048e+19
8.459826379e+19
8.527812861e+19
8.59530586e+19
8.666229283e+19
8.731761417e+19
8.800264719e+19
8.869814105e+19
8.941020674e+19
9.009130994e+19
9.076259015e+19
9.146626102e+19
9.209897424e+19
9.278639067e+19
9.345954088e+19
9.41529656e+19
9.488121106e+19
9.557108868e+19
9.629740812e+19
9.690051547e+19
9.758855108e+19
9.825174451e+19
9.894282316e+19
9.964862852e+19
1.00281376e+20
1.009534621e+20
1.016594261e+20
1.023379405e+20
1.029870078e+20
1.037084453e+20
1.044433494e+20
1.050881538e+20
1.057545521e+20
1.064309912e+20
1.071407388e+20
1.078484795e+20
1.085049926e+20
1.091438914e+20
1.098048819e+20
1.105121435e+20
1.111631461e+20
1.118674735e+20
1.12542503e+20
1.132223243e+20
1.13929564e+20
1.145456245e+20
1.152247177e+20
1.159274458e+20
1.16566102e+20
1.172903834e+20
1.179932173e+20
1.186839537e+20
1.193379433e+20
1.200115478e+20
1.20683164e+20
1.213369452e+20
1.219478313e+20
1.227147993e+20
1.233313048e+20
1.240361175e+20
1.247242278e+20
1.253729061e+20
1.260734562e+20
1.267747312e+20
1.274079672e+20
1.281480207e+20
1.288313487e+20
1.295018354e+20
1.301766067e+20
1.308660083e+20
1.315327831e+20
1.32234559e+20
1.32895842e+20
1.335794064e+20
1.342425936e+20
1.349850057e+20
1.356911844e+20
1.363623464e+20
1.371423329e+20
1.380407523e+20
1.998958341e+18
2.844460501e+18
3.600883665e+18
4.321057908e+18
5.02374866e+18
5.714942437e+18
6.415318237e+18
7.10111357e+18
7.79006707e+18
8.467728954e+18
9.123597926e+18
9.812582541e+18
1.049012308e+19
1.116982921e+19
1.186536664e+19
1.254015972e+19
1.320650199e+19
1.388847329e+19
1.456196577e+19
1.523616145e+19
1.593284391e+19
1.65840643e+19
1.727583993e+19
1.795080415e+19
1.864692031e+19
1.933873016e+19
2.001425445e+19
2.069947727e+19
2.139376698e+19
2.206033328e+19
2.272050545e+19
2.341638202e+19
2.412130994e+19
2.479668487e+19
2.547289369e+19
2.610026759e+19
2.682445255e+19
2.752788695e+19
2.821350493e+19
2.889553535e+19
2.953738392e+19
3.020393155e+19
3.090039309e+19
3.16149573e+19
3.229579914e+19
3.295524944e+19
3.366495039e+19
3.429555402e+19
3.495854831e+19
3.563564702e+19
3.631102195e+19
3.700420709e+19
3.772012481e+19
3.839913708e+19
3.906875575e+19
3.979215039e+19
4.043723803e+19
4.111767537e+19
4.179599378e+19
4.248710354e+19
4.315154468e+19
4.38335191e+19
4.451914641e+19
4.518860951e+19
4.590063475e+19
4.656562662e+19
4.72323236e+19
4.792566119e+19
4.859291824e+19
4.925569473e+19
4.998008505e+19
5.064605082e+19
5.133565462e+19
5.197749386e+19
5.267420121e+19
5.335384512e+19
5.406221124e+19
5.476067969e+19
5.542871772e+19
5.609945653e+19
5.679289058e+19
5.745396819e+19
5.812410337e+19
5.878796889e+19
5.946171651e+19
6.01812529e+19
6.085842316e+19
6.154269386e+19
6.222492653e+19
6.289039447e+19
6.356038341e+19
6.426636301e+19
6.490416041e+19
6.556010095e+19
6.62715879e+19
6.691799481e+19
6.761707934e+19
6.831028937e+19
6.897534036e+19
6.96901535e+19
7.034218289e+19
7.10151153e+19
7.170780259e+19
7.237502852e+19
7.307645601e+19
7.377138358e+19
7.438243768e+19
7.510495488e+19
7.581703924e+19
7.64709013e+19
7.715077234e+19
7.785858462e+19
7.855124391e+19
7.920789697e+19
7.990837545e+19
8.056706033e+19
8.127803388e+19
8.189593639e+19
8.257120864e+19
8.323615073e+19
8.391444425e+19
8.457586724e+19
8.527868868e+19
8.599061746e+19
8.664726742e+19
8.73290427e+19
8.801948971e+19
8.869499844e+19
8.94234586e+19
9.0085479e+19
9.072577182e+19
9.144155886e+19
9.213896007e+19
9.281692999e+19
9.348767191e+19
9.422587416e+19
9.489207329e+19
9.558531132e+19
9.626150147e+19
9.692476335e+19
9.76216325e+19
9.828523976e+19
9.896915264e+19
9.965629836e+19
1.003066662e+20
1.009683443e+20
1.016479665e+20
1.022938382e+20
1.029675578e+20
1.037261995e+20
1.044039672e+20
1.050653217e+20
1.05739228e+20
1.064281659e+20
1.071299295e+20
1.078365687e+20
1.085117321e+20
1.091819793e+20
1.098330223e+20
1.104498607e+20
1.111526479e+20
1.118525103e+20
1.125796107e+20
1.132683775e+20
1.139212221e+20
1.145614807e+20
1.152557736e+20
1.159017511e+20
1.166097936e+20
1.172824927e+20
1.179073774e+20
1.186151523e+20
1.193209701e+20
1.200005455e+20
1.206328916e+20
1.212957615e+20
1.219860653e+20
1.226462282e+20
1.233757431e+20
1.240654372e+20
1.246921452e+20
1.253715962e+20
1.260128287e+20
1.267721673e+20
1.273949455e+20
1.281283592e+20
1.288073808e+20
1.295030863e+20
1.301723129e+20
1.308666804e+20
1.315727844e+20
1.322139205e+20
1.328443468e+20
1.335333843e+20
1.342445507e+20
1.349450852e+20
1.356972052e+20
1.363943886e+20
1.371167813e+20
1.380120736e+20
)
;

boundaryField
{
    bottom
    {
        type            calculated;
        value           nonuniform List<scalar> 
200
(
2.008448401e+18
2.84728885e+18
3.599464823e+18
4.318727398e+18
5.02445497e+18
5.712994641e+18
6.411400864e+18
7.091359032e+18
7.781043734e+18
8.461182368e+18
9.131606914e+18
9.832517891e+18
1.050519827e+19
1.118827105e+19
1.185802973e+19
1.254332411e+19
1.319508902e+19
1.38766745e+19
1.456881106e+19
1.525273016e+19
1.592770994e+19
1.661216111e+19
1.729067554e+19
1.795665065e+19
1.864283492e+19
1.931382887e+19
2.000975212e+19
2.068900086e+19
2.136402731e+19
2.203687882e+19
2.272197718e+19
2.343212619e+19
2.411276889e+19
2.479876335e+19
2.548277269e+19
2.616926811e+19
2.685013483e+19
2.753448643e+19
2.820985203e+19
2.888530787e+19
2.955877545e+19
3.023522074e+19
3.090842697e+19
3.160102403e+19
3.223756439e+19
3.296580985e+19
3.362461919e+19
3.430605843e+19
3.499705618e+19
3.565708211e+19
3.631161936e+19
3.701141642e+19
3.770966396e+19
3.83647115e+19
3.909631426e+19
3.976250406e+19
4.043418876e+19
4.112880207e+19
4.182819153e+19
4.250066344e+19
4.31966987e+19
4.387927364e+19
4.453263163e+19
4.521698634e+19
4.58939108e+19
4.657418323e+19
4.726609265e+19
4.79266102e+19
4.858908487e+19
4.928995229e+19
4.995080899e+19
5.064593258e+19
5.131569438e+19
5.198989939e+19
5.268629248e+19
5.334541296e+19
5.408121314e+19
5.473956819e+19
5.54404605e+19
5.611509801e+19
5.676990596e+19
5.748086707e+19
5.81316892e+19
5.882761245e+19
5.950609265e+19
6.017054935e+19
6.086472083e+19
6.151687468e+19
6.217490614e+19
6.287962869e+19
6.3580465e+19
6.423667001e+19
6.487821366e+19
6.556945722e+19
6.624650614e+19
6.693714296e+19
6.761440035e+19
6.828019499e+19
6.896203561e+19
6.965317649e+19
7.033237857e+19
7.097989006e+19
7.168352982e+19
7.242153293e+19
7.305224235e+19
7.37315191e+19
7.44743357e+19
7.508829283e+19
7.580851374e+19
7.649083665e+19
7.717116197e+19
7.783364909e+19
7.856739568e+19
7.918938358e+19
7.98258057e+19
8.055314883e+19
8.123998029e+19
8.195596646e+19
8.259960104e+19
8.327394918e+19
8.394230458e+19
8.455659464e+19
8.530845013e+19
8.594453933e+19
8.663553086e+19
8.733508522e+19
8.801800864e+19
8.867738427e+19
8.941264304e+19
9.006604771e+19
9.0709228e+19
9.142720864e+19
9.207195402e+19
9.282799136e+19
9.346468729e+19
9.414825169e+19
9.481709248e+19
9.550941573e+19
9.625466863e+19
9.692981331e+19
9.758541158e+19
9.827473224e+19
9.894601867e+19
9.963028003e+19
1.003010188e+20
1.009610603e+20
1.0165867e+20
1.023371907e+20
1.029612477e+20
1.036857096e+20
1.043421355e+20
1.050505016e+20
1.057494182e+20
1.064318002e+20
1.071065621e+20
1.07773312e+20
1.085116698e+20
1.091484404e+20
1.097784778e+20
1.105173272e+20
1.111654237e+20
1.118673428e+20
1.125279848e+20
1.131707388e+20
1.138341376e+20
1.145215976e+20
1.15260864e+20
1.159657483e+20
1.166615533e+20
1.1727547e+20
1.180182617e+20
1.18670901e+20
1.193213746e+20
1.199782984e+20
1.206576498e+20
1.213379409e+20
1.21994485e+20
1.227171267e+20
1.233982237e+20
1.240244774e+20
1.246869583e+20
1.253883547e+20
1.260544449e+20
1.2678508e+20
1.274177341e+20
1.280897331e+20
1.288354527e+20
1.295175392e+20
1.301505293e+20
1.308465801e+20
1.315028629e+20
1.321706956e+20
1.328517148e+20
1.335429832e+20
1.343059872e+20
1.350263419e+20
1.35726083e+20
1.364508373e+20
1.371663972e+20
1.380096404e+20
)
;
    }
    top
    {
        type            calculated;
        value           nonuniform List<scalar> 
200
(
1.998958341e+18
2.844460501e+18
3.600883665e+18
4.321057908e+18
5.02374866e+18
5.714942437e+18
6.415318237e+18
7.10111357e+18
7.79006707e+18
8.467728954e+18
9.123597926e+18
9.812582541e+18
1.049012308e+19
1.116982921e+19
1.186536664e+19
1.254015972e+19
1.320650199e+19
1.388847329e+19
1.456196577e+19
1.523616145e+19
1.593284391e+19
1.65840643e+19
1.727583993e+19
1.795080415e+19
1.864692031e+19
1.933873016e+19
2.001425445e+19
2.069947727e+19
2.139376698e+19
2.206033328e+19
2.272050545e+19
2.341638202e+19
2.412130994e+19
2.479668487e+19
2.547289369e+19
2.610026759e+19
2.682445255e+19
2.752788695e+19
2.821350493e+19
2.889553535e+19
2.953738392e+19
3.020393155e+19
3.090039309e+19
3.16149573e+19
3.229579914e+19
3.295524944e+19
3.366495039e+19
3.429555402e+19
3.495854831e+19
3.563564702e+19
3.631102195e+19
3.700420709e+19
3.772012481e+19
3.839913708e+19
3.906875575e+19
3.979215039e+19
4.043723803e+19
4.111767537e+19
4.179599378e+19
4.248710354e+19
4.315154468e+19
4.38335191e+19
4.451914641e+19
4.518860951e+19
4.590063475e+19
4.656562662e+19
4.72323236e+19
4.792566119e+19
4.859291824e+19
4.925569473e+19
4.998008505e+19
5.064605082e+19
5.133565462e+19
5.197749386e+19
5.267420121e+19
5.335384512e+19
5.406221124e+19
5.476067969e+19
5.542871772e+19
5.609945653e+19
5.679289058e+19
5.745396819e+19
5.812410337e+19
5.878796889e+19
5.946171651e+19
6.01812529e+19
6.085842316e+19
6.154269386e+19
6.222492653e+19
6.289039447e+19
6.356038341e+19
6.426636301e+19
6.490416041e+19
6.556010095e+19
6.62715879e+19
6.691799481e+19
6.761707934e+19
6.831028937e+19
6.897534036e+19
6.96901535e+19
7.034218289e+19
7.10151153e+19
7.170780259e+19
7.237502852e+19
7.307645601e+19
7.377138358e+19
7.438243768e+19
7.510495488e+19
7.581703924e+19
7.64709013e+19
7.715077234e+19
7.785858462e+19
7.855124391e+19
7.920789697e+19
7.990837545e+19
8.056706033e+19
8.127803388e+19
8.189593639e+19
8.257120864e+19
8.323615073e+19
8.391444425e+19
8.457586724e+19
8.527868868e+19
8.599061746e+19
8.664726742e+19
8.73290427e+19
8.801948971e+19
8.869499844e+19
8.94234586e+19
9.0085479e+19
9.072577182e+19
9.144155886e+19
9.213896007e+19
9.281692999e+19
9.348767191e+19
9.422587416e+19
9.489207329e+19
9.558531132e+19
9.626150147e+19
9.692476335e+19
9.76216325e+19
9.828523976e+19
9.896915264e+19
9.965629836e+19
1.003066662e+20
1.009683443e+20
1.016479665e+20
1.022938382e+20
1.029675578e+20
1.037261995e+20
1.044039672e+20
1.050653217e+20
1.05739228e+20
1.064281659e+20
1.071299295e+20
1.078365687e+20
1.085117321e+20
1.091819793e+20
1.098330223e+20
1.104498607e+20
1.111526479e+20
1.118525103e+20
1.125796107e+20
1.132683775e+20
1.139212221e+20
1.145614807e+20
1.152557736e+20
1.159017511e+20
1.166097936e+20
1.172824927e+20
1.179073774e+20
1.186151523e+20
1.193209701e+20
1.200005455e+20
1.206328916e+20
1.212957615e+20
1.219860653e+20
1.226462282e+20
1.233757431e+20
1.240654372e+20
1.246921452e+20
1.253715962e+20
1.260128287e+20
1.267721673e+20
1.273949455e+20
1.281283592e+20
1.288073808e+20
1.295030863e+20
1.301723129e+20
1.308666804e+20
1.315727844e+20
1.322139205e+20
1.328443468e+20
1.335333843e+20
1.342445507e+20
1.349450852e+20
1.356972052e+20
1.363943886e+20
1.371167813e+20
1.380120736e+20
)
;
    }
    inlet
    {
        type            calculated;
        value           nonuniform List<scalar> 5(2.008448401e+18 2.007150908e+18 2.007832325e+18 1.994060847e+18 1.998958341e+18);
    }
    outlet
    {
        type            calculated;
        value           nonuniform List<scalar> 5(1.380096404e+20 1.380139343e+20 1.380174036e+20 1.380407523e+20 1.380120736e+20);
    }
    back
    {
        type            symmetry;
    }
    front
    {
        type            symmetry;
    }
}


// ************************************************************************* //
