/*--------------------------------*- C++ -*----------------------------------*\
| =========                 |                                                 |
| \\      /  F ield         | OpenFOAM: The Open Source CFD Toolbox           |
|  \\    /   O peration     | Version:  v1612+                                |
|   \\  /    A nd           | Web:      www.OpenFOAM.com                      |
|    \\/     M anipulation  |                                                 |
\*---------------------------------------------------------------------------*/
FoamFile
{
    version     2.0;
    format      ascii;
    class       volScalarField;
    location    "4.78";
    object      rhoN_Ar1;
}
// * * * * * * * * * * * * * * * * * * * * * * * * * * * * * * * * * * * * * //

dimensions      [0 -3 0 0 0 0 0];

internalField   nonuniform List<scalar> 
1000
(
1.380174939e+20
1.371602676e+20
1.364239976e+20
1.35705544e+20
1.350018047e+20
1.343062299e+20
1.336070707e+20
1.330110793e+20
1.322500667e+20
1.315801151e+20
1.309424889e+20
1.302889162e+20
1.295964249e+20
1.288303841e+20
1.282164114e+20
1.275351495e+20
1.268244218e+20
1.261219426e+20
1.254476971e+20
1.247720484e+20
1.241374776e+20
1.234426714e+20
1.227382102e+20
1.220899613e+20
1.214267305e+20
1.207711073e+20
1.200219433e+20
1.193513352e+20
1.186995236e+20
1.179759547e+20
1.173088408e+20
1.166700882e+20
1.159903571e+20
1.152798565e+20
1.145755851e+20
1.139520104e+20
1.132158804e+20
1.125242634e+20
1.118411689e+20
1.111403419e+20
1.104467647e+20
1.097721303e+20
1.091478928e+20
1.084221023e+20
1.077513044e+20
1.070636391e+20
1.06357451e+20
1.057015851e+20
1.050258182e+20
1.043457635e+20
1.036649964e+20
1.029962022e+20
1.02345878e+20
1.016511869e+20
1.010243761e+20
1.003572591e+20
9.964683008e+19
9.892070354e+19
9.823294486e+19
9.757780086e+19
9.691109144e+19
9.619368332e+19
9.554990251e+19
9.491195886e+19
9.413465445e+19
9.347380398e+19
9.280382126e+19
9.209946586e+19
9.144556024e+19
9.071652446e+19
9.005558997e+19
8.939700156e+19
8.871516404e+19
8.802009334e+19
8.731529611e+19
8.666258531e+19
8.601547208e+19
8.529394434e+19
8.464069836e+19
8.395877995e+19
8.32704892e+19
8.257386275e+19
8.187854313e+19
8.119893345e+19
8.049665653e+19
7.982562835e+19
7.915243146e+19
7.849134762e+19
7.779854831e+19
7.707563907e+19
7.64238586e+19
7.579177701e+19
7.507963976e+19
7.442213103e+19
7.371710666e+19
7.304727952e+19
7.239290406e+19
7.173756404e+19
7.100213414e+19
7.027685393e+19
6.957898289e+19
6.89418949e+19
6.827164771e+19
6.761788833e+19
6.689230631e+19
6.619392809e+19
6.552809922e+19
6.486619084e+19
6.415554399e+19
6.350647675e+19
6.286175004e+19
6.214067658e+19
6.150647606e+19
6.080434226e+19
6.014986102e+19
5.943044909e+19
5.874621884e+19
5.808360104e+19
5.739567744e+19
5.674198963e+19
5.606158963e+19
5.536883077e+19
5.467605946e+19
5.400026137e+19
5.331893103e+19
5.265379602e+19
5.191905998e+19
5.125733829e+19
5.060942852e+19
4.987917615e+19
4.921275609e+19
4.855565186e+19
4.785843111e+19
4.717557615e+19
4.653612031e+19
4.588232671e+19
4.51522548e+19
4.445761659e+19
4.376554849e+19
4.310455177e+19
4.237987519e+19
4.173150182e+19
4.106478928e+19
4.038775592e+19
3.968697874e+19
3.9001479e+19
3.833432463e+19
3.766698669e+19
3.698905411e+19
3.63212401e+19
3.56563229e+19
3.49633089e+19
3.427209646e+19
3.358377148e+19
3.287962455e+19
3.220009265e+19
3.152903647e+19
3.085101366e+19
3.020126188e+19
2.948579844e+19
2.882508799e+19
2.814189075e+19
2.746647848e+19
2.679015454e+19
2.613298185e+19
2.546042282e+19
2.477190182e+19
2.40873013e+19
2.339288401e+19
2.27362185e+19
2.205935627e+19
2.138344304e+19
2.07087433e+19
2.00104242e+19
1.930535004e+19
1.86659191e+19
1.799414105e+19
1.729490717e+19
1.662082351e+19
1.594354745e+19
1.527787105e+19
1.459357545e+19
1.39008726e+19
1.321200311e+19
1.254891236e+19
1.186488124e+19
1.115861538e+19
1.049819741e+19
9.816092308e+18
9.147015039e+18
8.462293172e+18
7.785250475e+18
7.090957649e+18
6.425275022e+18
5.731567156e+18
5.028378565e+18
4.321919793e+18
3.606415903e+18
2.868627485e+18
2.010629559e+18
1.380045532e+20
1.371995253e+20
1.364908356e+20
1.357292318e+20
1.350227575e+20
1.342831706e+20
1.335931592e+20
1.329346175e+20
1.322825103e+20
1.315839049e+20
1.309405006e+20
1.302727737e+20
1.295503063e+20
1.288769818e+20
1.282181321e+20
1.275281736e+20
1.268367526e+20
1.261354901e+20
1.254511945e+20
1.247722631e+20
1.241219232e+20
1.23468503e+20
1.228121393e+20
1.221164401e+20
1.214043869e+20
1.207214417e+20
1.200556346e+20
1.194068971e+20
1.186948844e+20
1.179603848e+20
1.172953556e+20
1.165879571e+20
1.159402029e+20
1.152213386e+20
1.145605224e+20
1.138839215e+20
1.132506233e+20
1.125047824e+20
1.118097677e+20
1.11123014e+20
1.1046815e+20
1.097561933e+20
1.091557867e+20
1.084305158e+20
1.077484792e+20
1.070837051e+20
1.063694769e+20
1.056970237e+20
1.050415094e+20
1.043604965e+20
1.037140086e+20
1.03016122e+20
1.023325265e+20
1.016604747e+20
1.010237663e+20
1.003213307e+20
9.965854797e+19
9.890088643e+19
9.821319931e+19
9.759669697e+19
9.691572757e+19
9.622334209e+19
9.556353397e+19
9.486581538e+19
9.419371685e+19
9.349326327e+19
9.279447744e+19
9.208949663e+19
9.144416318e+19
9.073022437e+19
9.004186206e+19
8.935476923e+19
8.866151564e+19
8.799570856e+19
8.732460259e+19
8.667288436e+19
8.59892764e+19
8.526485186e+19
8.462033362e+19
8.397299948e+19
8.324959862e+19
8.259194676e+19
8.190652169e+19
8.122888159e+19
8.050226033e+19
7.985565428e+19
7.915189317e+19
7.849107381e+19
7.781447917e+19
7.712838202e+19
7.643426966e+19
7.575260328e+19
7.509268003e+19
7.44303516e+19
7.372946863e+19
7.30488726e+19
7.233262195e+19
7.171003042e+19
7.100342852e+19
7.027645877e+19
6.959300017e+19
6.894688574e+19
6.827734486e+19
6.758755436e+19
6.688154054e+19
6.621053725e+19
6.55627395e+19
6.489822679e+19
6.418584685e+19
6.351715229e+19
6.283588418e+19
6.219803699e+19
6.150268937e+19
6.07912242e+19
6.013627623e+19
5.944146067e+19
5.873409334e+19
5.806552947e+19
5.737965635e+19
5.672706067e+19
5.607818323e+19
5.536276335e+19
5.470620674e+19
5.401459914e+19
5.334338738e+19
5.263789006e+19
5.193904823e+19
5.128335039e+19
5.060304996e+19
4.991012308e+19
4.918907139e+19
4.853662195e+19
4.783871668e+19
4.717197303e+19
4.651260674e+19
4.584233777e+19
4.516786517e+19
4.445761348e+19
4.377010372e+19
4.309943025e+19
4.240917926e+19
4.177086223e+19
4.106238721e+19
4.037218289e+19
3.968481625e+19
3.901050233e+19
3.8342679e+19
3.763715678e+19
3.696440484e+19
3.63171236e+19
3.564339775e+19
3.496488332e+19
3.425556508e+19
3.358834849e+19
3.288663163e+19
3.223849162e+19
3.152556093e+19
3.085810787e+19
3.018078825e+19
2.948748176e+19
2.883008194e+19
2.812295108e+19
2.746570061e+19
2.679294244e+19
2.611547658e+19
2.544793016e+19
2.475575315e+19
2.408881348e+19
2.340122593e+19
2.273584512e+19
2.208013483e+19
2.138164771e+19
2.071534901e+19
2.000880311e+19
1.933152394e+19
1.865351668e+19
1.798582092e+19
1.730245566e+19
1.66191962e+19
1.594327053e+19
1.527321314e+19
1.458388626e+19
1.389646672e+19
1.322886742e+19
1.255637684e+19
1.186922178e+19
1.117554814e+19
1.051747001e+19
9.824014175e+18
9.15544408e+18
8.470812446e+18
7.792403803e+18
7.106695592e+18
6.427048574e+18
5.73448885e+18
5.024604322e+18
4.317059637e+18
3.607834745e+18
2.857584788e+18
2.006005877e+18
1.379903523e+20
1.371375817e+20
1.364499163e+20
1.357125355e+20
1.35005218e+20
1.343306147e+20
1.336138818e+20
1.329311979e+20
1.322330966e+20
1.316400425e+20
1.309350524e+20
1.303057276e+20
1.295186126e+20
1.288567291e+20
1.281852311e+20
1.274911872e+20
1.268726748e+20
1.262155799e+20
1.255191153e+20
1.24783981e+20
1.241273808e+20
1.234266223e+20
1.227107388e+20
1.220722724e+20
1.214068605e+20
1.207238873e+20
1.200373203e+20
1.193931194e+20
1.186796069e+20
1.179857155e+20
1.172941576e+20
1.166064114e+20
1.159470389e+20
1.152696041e+20
1.145917058e+20
1.139475298e+20
1.132222154e+20
1.125284671e+20
1.118327678e+20
1.111123447e+20
1.10475182e+20
1.097910793e+20
1.091334804e+20
1.084814977e+20
1.077815979e+20
1.07042064e+20
1.063782513e+20
1.056679685e+20
1.050259271e+20
1.043186468e+20
1.036982676e+20
1.029935139e+20
1.023116142e+20
1.016965058e+20
1.009839734e+20
1.0033041e+20
9.966161901e+19
9.88796847e+19
9.825947658e+19
9.758208539e+19
9.690452619e+19
9.625730717e+19
9.556838479e+19
9.488293483e+19
9.416240277e+19
9.346223232e+19
9.276678513e+19
9.211180916e+19
9.143065929e+19
9.072595229e+19
9.00595758e+19
8.934872671e+19
8.867604322e+19
8.802042316e+19
8.733368194e+19
8.665774382e+19
8.600701193e+19
8.528685324e+19
8.459596128e+19
8.394284909e+19
8.324960484e+19
8.258468453e+19
8.191191703e+19
8.121088159e+19
8.052050303e+19
7.985127018e+19
7.918789628e+19
7.846846569e+19
7.783996854e+19
7.710564322e+19
7.643073189e+19
7.57468159e+19
7.509690233e+19
7.44107554e+19
7.375073881e+19
7.301534624e+19
7.234849991e+19
7.165741193e+19
7.100431219e+19
7.02644484e+19
6.961189939e+19
6.894895488e+19
6.825144788e+19
6.759082766e+19
6.692661988e+19
6.627083492e+19
6.55829331e+19
6.491507865e+19
6.421305065e+19
6.350484322e+19
6.281900121e+19
6.216937701e+19
6.148319896e+19
6.07729535e+19
6.005666863e+19
5.938688816e+19
5.875227692e+19
5.807555471e+19
5.738935488e+19
5.671669628e+19
5.602083215e+19
5.534876474e+19
5.46872764e+19
5.401070354e+19
5.332001072e+19
5.266211927e+19
5.193991322e+19
5.123410164e+19
5.059788487e+19
4.992426171e+19
4.922564702e+19
4.855179672e+19
4.784699637e+19
4.7190614e+19
4.651669836e+19
4.58416968e+19
4.515586102e+19
4.447330164e+19
4.376162178e+19
4.309222092e+19
4.240603042e+19
4.174938669e+19
4.105048885e+19
4.036419568e+19
3.96796605e+19
3.899282282e+19
3.830295765e+19
3.763619533e+19
3.696685981e+19
3.626939015e+19
3.561331582e+19
3.49320726e+19
3.425741953e+19
3.356809265e+19
3.2897665e+19
3.22266866e+19
3.149196301e+19
3.085302679e+19
3.018714192e+19
2.948038755e+19
2.8817079e+19
2.81613656e+19
2.74755796e+19
2.679886361e+19
2.610784719e+19
2.541838029e+19
2.472866448e+19
2.407772723e+19
2.340480415e+19
2.273331547e+19
2.206587796e+19
2.139002697e+19
2.06844083e+19
2.002542472e+19
1.934197545e+19
1.866853276e+19
1.798409715e+19
1.731342679e+19
1.662146448e+19
1.594222818e+19
1.526828142e+19
1.457147761e+19
1.388788833e+19
1.321092653e+19
1.255113397e+19
1.186855281e+19
1.119927952e+19
1.053392671e+19
9.827436819e+18
9.150807952e+18
8.466559032e+18
7.791302334e+18
7.108129991e+18
6.41915471e+18
5.726825238e+18
5.031869663e+18
4.333653241e+18
3.597053414e+18
2.856374417e+18
2.006491271e+18
1.379449991e+20
1.371551367e+20
1.36435479e+20
1.35735822e+20
1.350041352e+20
1.343232778e+20
1.33691358e+20
1.329927682e+20
1.323083544e+20
1.316589013e+20
1.309094821e+20
1.302443658e+20
1.295504712e+20
1.288586987e+20
1.281811799e+20
1.275342752e+20
1.268600297e+20
1.262296781e+20
1.254967188e+20
1.247937542e+20
1.241244653e+20
1.234559513e+20
1.22802559e+20
1.220663979e+20
1.214098226e+20
1.207245034e+20
1.200641943e+20
1.193900764e+20
1.187079433e+20
1.180171073e+20
1.172922939e+20
1.166562109e+20
1.159556702e+20
1.15281963e+20
1.146110064e+20
1.13908297e+20
1.132383423e+20
1.125083077e+20
1.118575571e+20
1.11170455e+20
1.105123084e+20
1.097920626e+20
1.091315264e+20
1.084675737e+20
1.077421006e+20
1.070832975e+20
1.063717639e+20
1.056946652e+20
1.049888847e+20
1.043656771e+20
1.036727596e+20
1.029935544e+20
1.02344036e+20
1.017055073e+20
1.009804107e+20
1.003478717e+20
9.957996093e+19
9.893174002e+19
9.825925255e+19
9.761097874e+19
9.693797787e+19
9.627090752e+19
9.556582403e+19
9.484901953e+19
9.416017182e+19
9.348277442e+19
9.282831806e+19
9.210806603e+19
9.142349663e+19
9.071444598e+19
9.008312982e+19
8.935453587e+19
8.870598513e+19
8.803770441e+19
8.730484771e+19
8.664557787e+19
8.596594952e+19
8.532245808e+19
8.464275194e+19
8.392564564e+19
8.326209749e+19
8.260570268e+19
8.191294382e+19
8.123781469e+19
8.052988107e+19
7.982687295e+19
7.915038721e+19
7.848904823e+19
7.784844114e+19
7.712185722e+19
7.642649092e+19
7.578476059e+19
7.50748885e+19
7.437517545e+19
7.367413691e+19
7.306878306e+19
7.23881777e+19
7.170312913e+19
7.09984159e+19
7.030093379e+19
6.961580432e+19
6.899088228e+19
6.827520726e+19
6.761172446e+19
6.694141815e+19
6.626342334e+19
6.560701296e+19
6.491434745e+19
6.421519758e+19
6.353408816e+19
6.283570372e+19
6.219877442e+19
6.150343613e+19
6.08280643e+19
6.010694417e+19
5.939437442e+19
5.872340225e+19
5.806081556e+19
5.739140225e+19
5.674093483e+19
5.607502506e+19
5.538279516e+19
5.472456456e+19
5.402764252e+19
5.334745099e+19
5.263476923e+19
5.193486638e+19
5.123680864e+19
5.057242973e+19
4.990933276e+19
4.924766707e+19
4.852685808e+19
4.786858392e+19
4.719903993e+19
4.648050545e+19
4.579989075e+19
4.513779568e+19
4.443389455e+19
4.375344166e+19
4.309436474e+19
4.240226551e+19
4.173224857e+19
4.103604218e+19
4.036786724e+19
3.971305618e+19
3.901892204e+19
3.831619395e+19
3.763608643e+19
3.697973207e+19
3.629245255e+19
3.55946624e+19
3.494878444e+19
3.425025687e+19
3.358294382e+19
3.290768712e+19
3.22018911e+19
3.152378427e+19
3.087822368e+19
3.018687122e+19
2.949838133e+19
2.882416698e+19
2.814479689e+19
2.749089127e+19
2.674965532e+19
2.608879239e+19
2.540356646e+19
2.474606085e+19
2.407078859e+19
2.338918755e+19
2.271795091e+19
2.204092688e+19
2.135783544e+19
2.068839412e+19
2.002534382e+19
1.934847848e+19
1.867946033e+19
1.79672764e+19
1.730937874e+19
1.663558755e+19
1.594604909e+19
1.525521936e+19
1.45738019e+19
1.387670251e+19
1.322846292e+19
1.255220743e+19
1.187541054e+19
1.119447848e+19
1.050494624e+19
9.822744685e+18
9.152765082e+18
8.476596716e+18
7.791171651e+18
7.105314088e+18
6.424039758e+18
5.738057736e+18
5.0427879e+18
4.321593086e+18
3.599950216e+18
2.849616249e+18
2.006951772e+18
1.380244169e+20
1.372371153e+20
1.364733988e+20
1.357157746e+20
1.350658361e+20
1.343110123e+20
1.336700131e+20
1.329712273e+20
1.322997449e+20
1.315715772e+20
1.309245635e+20
1.302459869e+20
1.295373687e+20
1.288621494e+20
1.282067627e+20
1.275623253e+20
1.268956564e+20
1.261694676e+20
1.254619447e+20
1.247268602e+20
1.241231056e+20
1.234419526e+20
1.227377559e+20
1.221056743e+20
1.213573504e+20
1.206894866e+20
1.200349991e+20
1.193563042e+20
1.186892277e+20
1.179633532e+20
1.172818704e+20
1.165811212e+20
1.159360086e+20
1.153046271e+20
1.145555129e+20
1.139107582e+20
1.132500477e+20
1.125618845e+20
1.118381383e+20
1.111861836e+20
1.105435914e+20
1.09797433e+20
1.091296812e+20
1.084302669e+20
1.077670486e+20
1.070381839e+20
1.063888989e+20
1.057668705e+20
1.050381397e+20
1.043759326e+20
1.036795644e+20
1.030341967e+20
1.023121929e+20
1.016587789e+20
1.009543177e+20
1.002523177e+20
9.956778254e+19
9.891913846e+19
9.821550182e+19
9.758145376e+19
9.690520138e+19
9.626752221e+19
9.552785756e+19
9.485435264e+19
9.417765843e+19
9.348711806e+19
9.278020812e+19
9.211117442e+19
9.143153984e+19
9.076183405e+19
9.00678866e+19
8.939394607e+19
8.870207398e+19
8.798831564e+19
8.734424235e+19
8.668448712e+19
8.601192187e+19
8.530317615e+19
8.466361141e+19
8.391066379e+19
8.323534486e+19
8.261832913e+19
8.19073089e+19
8.124361763e+19
8.058520968e+19
7.990096387e+19
7.919918168e+19
7.845856491e+19
7.780522247e+19
7.711889818e+19
7.642651271e+19
7.575954503e+19
7.501974659e+19
7.442061884e+19
7.370316404e+19
7.304484944e+19
7.239506033e+19
7.163556612e+19
7.099388557e+19
7.026870804e+19
6.960250268e+19
6.898490199e+19
6.831870596e+19
6.760325186e+19
6.694293345e+19
6.623805843e+19
6.556129265e+19
6.486581124e+19
6.4184372e+19
6.348941642e+19
6.282324529e+19
6.213687433e+19
6.145862437e+19
6.079854555e+19
6.009681314e+19
5.940999412e+19
5.872797615e+19
5.805987589e+19
5.740448297e+19
5.675096318e+19
5.606497182e+19
5.535919136e+19
5.46890624e+19
5.399633466e+19
5.334061504e+19
5.26580121e+19
5.198854589e+19
5.128296145e+19
5.058153086e+19
4.992698116e+19
4.925029628e+19
4.854639827e+19
4.784821919e+19
4.716283768e+19
4.648980882e+19
4.581299948e+19
4.513642351e+19
4.442746309e+19
4.372894797e+19
4.306417079e+19
4.24100038e+19
4.171484287e+19
4.103347208e+19
4.038950147e+19
3.969039205e+19
3.903757545e+19
3.829806638e+19
3.763705099e+19
3.699513397e+19
3.631267727e+19
3.561771547e+19
3.49305013e+19
3.425440761e+19
3.359251478e+19
3.291012031e+19
3.220071806e+19
3.150673328e+19
3.086038859e+19
3.020863613e+19
2.950428384e+19
2.881416975e+19
2.814099464e+19
2.746773863e+19
2.679936768e+19
2.611436266e+19
2.542743163e+19
2.478128608e+19
2.40995637e+19
2.341094935e+19
2.270624857e+19
2.204040104e+19
2.137139844e+19
2.067264373e+19
1.999835471e+19
1.936675229e+19
1.868351461e+19
1.796668522e+19
1.730082835e+19
1.66196567e+19
1.59396083e+19
1.526990251e+19
1.45569936e+19
1.388614589e+19
1.322313915e+19
1.255143267e+19
1.18662223e+19
1.11810306e+19
1.051090475e+19
9.817256007e+18
9.140116854e+18
8.474073293e+18
7.778461193e+18
7.097476232e+18
6.419966811e+18
5.728629905e+18
5.032575972e+18
4.336061538e+18
3.606142092e+18
2.850699049e+18
1.996612273e+18
)
;

boundaryField
{
    bottom
    {
        type            calculated;
        value           nonuniform List<scalar> 
200
(
1.380174939e+20
1.371602676e+20
1.364239976e+20
1.35705544e+20
1.350018047e+20
1.343062299e+20
1.336070707e+20
1.330110793e+20
1.322500667e+20
1.315801151e+20
1.309424889e+20
1.302889162e+20
1.295964249e+20
1.288303841e+20
1.282164114e+20
1.275351495e+20
1.268244218e+20
1.261219426e+20
1.254476971e+20
1.247720484e+20
1.241374776e+20
1.234426714e+20
1.227382102e+20
1.220899613e+20
1.214267305e+20
1.207711073e+20
1.200219433e+20
1.193513352e+20
1.186995236e+20
1.179759547e+20
1.173088408e+20
1.166700882e+20
1.159903571e+20
1.152798565e+20
1.145755851e+20
1.139520104e+20
1.132158804e+20
1.125242634e+20
1.118411689e+20
1.111403419e+20
1.104467647e+20
1.097721303e+20
1.091478928e+20
1.084221023e+20
1.077513044e+20
1.070636391e+20
1.06357451e+20
1.057015851e+20
1.050258182e+20
1.043457635e+20
1.036649964e+20
1.029962022e+20
1.02345878e+20
1.016511869e+20
1.010243761e+20
1.003572591e+20
9.964683008e+19
9.892070354e+19
9.823294486e+19
9.757780086e+19
9.691109144e+19
9.619368332e+19
9.554990251e+19
9.491195886e+19
9.413465445e+19
9.347380398e+19
9.280382126e+19
9.209946586e+19
9.144556024e+19
9.071652446e+19
9.005558997e+19
8.939700156e+19
8.871516404e+19
8.802009334e+19
8.731529611e+19
8.666258531e+19
8.601547208e+19
8.529394434e+19
8.464069836e+19
8.395877995e+19
8.32704892e+19
8.257386275e+19
8.187854313e+19
8.119893345e+19
8.049665653e+19
7.982562835e+19
7.915243146e+19
7.849134762e+19
7.779854831e+19
7.707563907e+19
7.64238586e+19
7.579177701e+19
7.507963976e+19
7.442213103e+19
7.371710666e+19
7.304727952e+19
7.239290406e+19
7.173756404e+19
7.100213414e+19
7.027685393e+19
6.957898289e+19
6.89418949e+19
6.827164771e+19
6.761788833e+19
6.689230631e+19
6.619392809e+19
6.552809922e+19
6.486619084e+19
6.415554399e+19
6.350647675e+19
6.286175004e+19
6.214067658e+19
6.150647606e+19
6.080434226e+19
6.014986102e+19
5.943044909e+19
5.874621884e+19
5.808360104e+19
5.739567744e+19
5.674198963e+19
5.606158963e+19
5.536883077e+19
5.467605946e+19
5.400026137e+19
5.331893103e+19
5.265379602e+19
5.191905998e+19
5.125733829e+19
5.060942852e+19
4.987917615e+19
4.921275609e+19
4.855565186e+19
4.785843111e+19
4.717557615e+19
4.653612031e+19
4.588232671e+19
4.51522548e+19
4.445761659e+19
4.376554849e+19
4.310455177e+19
4.237987519e+19
4.173150182e+19
4.106478928e+19
4.038775592e+19
3.968697874e+19
3.9001479e+19
3.833432463e+19
3.766698669e+19
3.698905411e+19
3.63212401e+19
3.56563229e+19
3.49633089e+19
3.427209646e+19
3.358377148e+19
3.287962455e+19
3.220009265e+19
3.152903647e+19
3.085101366e+19
3.020126188e+19
2.948579844e+19
2.882508799e+19
2.814189075e+19
2.746647848e+19
2.679015454e+19
2.613298185e+19
2.546042282e+19
2.477190182e+19
2.40873013e+19
2.339288401e+19
2.27362185e+19
2.205935627e+19
2.138344304e+19
2.07087433e+19
2.00104242e+19
1.930535004e+19
1.86659191e+19
1.799414105e+19
1.729490717e+19
1.662082351e+19
1.594354745e+19
1.527787105e+19
1.459357545e+19
1.39008726e+19
1.321200311e+19
1.254891236e+19
1.186488124e+19
1.115861538e+19
1.049819741e+19
9.816092308e+18
9.147015039e+18
8.462293172e+18
7.785250475e+18
7.090957649e+18
6.425275022e+18
5.731567156e+18
5.028378565e+18
4.321919793e+18
3.606415903e+18
2.868627485e+18
2.010629559e+18
)
;
    }
    top
    {
        type            calculated;
        value           nonuniform List<scalar> 
200
(
1.380244169e+20
1.372371153e+20
1.364733988e+20
1.357157746e+20
1.350658361e+20
1.343110123e+20
1.336700131e+20
1.329712273e+20
1.322997449e+20
1.315715772e+20
1.309245635e+20
1.302459869e+20
1.295373687e+20
1.288621494e+20
1.282067627e+20
1.275623253e+20
1.268956564e+20
1.261694676e+20
1.254619447e+20
1.247268602e+20
1.241231056e+20
1.234419526e+20
1.227377559e+20
1.221056743e+20
1.213573504e+20
1.206894866e+20
1.200349991e+20
1.193563042e+20
1.186892277e+20
1.179633532e+20
1.172818704e+20
1.165811212e+20
1.159360086e+20
1.153046271e+20
1.145555129e+20
1.139107582e+20
1.132500477e+20
1.125618845e+20
1.118381383e+20
1.111861836e+20
1.105435914e+20
1.09797433e+20
1.091296812e+20
1.084302669e+20
1.077670486e+20
1.070381839e+20
1.063888989e+20
1.057668705e+20
1.050381397e+20
1.043759326e+20
1.036795644e+20
1.030341967e+20
1.023121929e+20
1.016587789e+20
1.009543177e+20
1.002523177e+20
9.956778254e+19
9.891913846e+19
9.821550182e+19
9.758145376e+19
9.690520138e+19
9.626752221e+19
9.552785756e+19
9.485435264e+19
9.417765843e+19
9.348711806e+19
9.278020812e+19
9.211117442e+19
9.143153984e+19
9.076183405e+19
9.00678866e+19
8.939394607e+19
8.870207398e+19
8.798831564e+19
8.734424235e+19
8.668448712e+19
8.601192187e+19
8.530317615e+19
8.466361141e+19
8.391066379e+19
8.323534486e+19
8.261832913e+19
8.19073089e+19
8.124361763e+19
8.058520968e+19
7.990096387e+19
7.919918168e+19
7.845856491e+19
7.780522247e+19
7.711889818e+19
7.642651271e+19
7.575954503e+19
7.501974659e+19
7.442061884e+19
7.370316404e+19
7.304484944e+19
7.239506033e+19
7.163556612e+19
7.099388557e+19
7.026870804e+19
6.960250268e+19
6.898490199e+19
6.831870596e+19
6.760325186e+19
6.694293345e+19
6.623805843e+19
6.556129265e+19
6.486581124e+19
6.4184372e+19
6.348941642e+19
6.282324529e+19
6.213687433e+19
6.145862437e+19
6.079854555e+19
6.009681314e+19
5.940999412e+19
5.872797615e+19
5.805987589e+19
5.740448297e+19
5.675096318e+19
5.606497182e+19
5.535919136e+19
5.46890624e+19
5.399633466e+19
5.334061504e+19
5.26580121e+19
5.198854589e+19
5.128296145e+19
5.058153086e+19
4.992698116e+19
4.925029628e+19
4.854639827e+19
4.784821919e+19
4.716283768e+19
4.648980882e+19
4.581299948e+19
4.513642351e+19
4.442746309e+19
4.372894797e+19
4.306417079e+19
4.24100038e+19
4.171484287e+19
4.103347208e+19
4.038950147e+19
3.969039205e+19
3.903757545e+19
3.829806638e+19
3.763705099e+19
3.699513397e+19
3.631267727e+19
3.561771547e+19
3.49305013e+19
3.425440761e+19
3.359251478e+19
3.291012031e+19
3.220071806e+19
3.150673328e+19
3.086038859e+19
3.020863613e+19
2.950428384e+19
2.881416975e+19
2.814099464e+19
2.746773863e+19
2.679936768e+19
2.611436266e+19
2.542743163e+19
2.478128608e+19
2.40995637e+19
2.341094935e+19
2.270624857e+19
2.204040104e+19
2.137139844e+19
2.067264373e+19
1.999835471e+19
1.936675229e+19
1.868351461e+19
1.796668522e+19
1.730082835e+19
1.66196567e+19
1.59396083e+19
1.526990251e+19
1.45569936e+19
1.388614589e+19
1.322313915e+19
1.255143267e+19
1.18662223e+19
1.11810306e+19
1.051090475e+19
9.817256007e+18
9.140116854e+18
8.474073293e+18
7.778461193e+18
7.097476232e+18
6.419966811e+18
5.728629905e+18
5.032575972e+18
4.336061538e+18
3.606142092e+18
2.850699049e+18
1.996612273e+18
)
;
    }
    inlet
    {
        type            calculated;
        value           nonuniform List<scalar> 5(1.380174939e+20 1.380045532e+20 1.379903523e+20 1.379449991e+20 1.380244169e+20);
    }
    outlet
    {
        type            calculated;
        value           nonuniform List<scalar> 5(2.010629559e+18 2.006005877e+18 2.006491271e+18 2.006951772e+18 1.996612273e+18);
    }
    back
    {
        type            symmetry;
    }
    front
    {
        type            symmetry;
    }
}


// ************************************************************************* //
