/*--------------------------------*- C++ -*----------------------------------*\
| =========                 |                                                 |
| \\      /  F ield         | OpenFOAM: The Open Source CFD Toolbox           |
|  \\    /   O peration     | Version:  v1612+                                |
|   \\  /    A nd           | Web:      www.OpenFOAM.com                      |
|    \\/     M anipulation  |                                                 |
\*---------------------------------------------------------------------------*/
FoamFile
{
    version     2.0;
    format      ascii;
    class       volScalarField;
    location    "4.78";
    object      SOF_Ar2;
}
// * * * * * * * * * * * * * * * * * * * * * * * * * * * * * * * * * * * * * //

dimensions      [0 0 0 0 0 0 0];

internalField   nonuniform List<scalar> 
1000
(
0.002069356453
0.002903071398
0.003657642702
0.004377907311
0.005087446809
0.005777164209
0.006481342137
0.007164641973
0.007857522978
0.008537243567
0.009214300582
0.009919036548
0.01059428786
0.01128577746
0.01195503954
0.01264183709
0.01330065308
0.01398641727
0.01468729392
0.0153820647
0.01605310466
0.01674506242
0.0174220188
0.0180923088
0.01878566252
0.01946176225
0.02015681081
0.02084666872
0.02152306858
0.02220035822
0.02288947237
0.0236119598
0.02429142982
0.02498657105
0.02566799502
0.02636464768
0.02704757597
0.0277388329
0.02841836019
0.02910236443
0.02977527908
0.03045154727
0.03113328388
0.03182438006
0.03246425952
0.03320489113
0.03387236422
0.03455242549
0.03524370651
0.03591080927
0.03656991339
0.03727907188
0.037980366
0.03864728686
0.03937745175
0.04003883008
0.04073835396
0.04143127399
0.04212797642
0.04281333074
0.04352253401
0.04421322087
0.04486426697
0.04553813857
0.04622458406
0.04690511892
0.04762664546
0.04827239484
0.04894308121
0.0496411018
0.05031289455
0.05100929914
0.05167186139
0.05237061011
0.05306547601
0.05370933788
0.05447407123
0.05512292676
0.05582849103
0.0565111008
0.05718456802
0.05788128803
0.05853943973
0.05925304849
0.05991246158
0.06058468836
0.06129519131
0.06194384871
0.06259186295
0.06332102085
0.06404359774
0.06467938251
0.06532884221
0.06601713464
0.0667123892
0.06739759822
0.06809396138
0.06873972654
0.06943400382
0.07015549351
0.07082318588
0.07146007317
0.07217400529
0.07294029539
0.07356492009
0.07425879222
0.07500629715
0.07559133769
0.07634367203
0.07702068492
0.07770392356
0.07837794467
0.07913639228
0.07975636865
0.08038804611
0.08114280574
0.08179846066
0.08253130096
0.08316532398
0.08386879548
0.08451317832
0.08516295577
0.08590553033
0.08654170861
0.08723286899
0.08792869622
0.08861937672
0.08930752332
0.09003003626
0.09067761296
0.09136167394
0.09206556677
0.09270232908
0.09347246217
0.0940998805
0.09480921
0.09548603177
0.09616660167
0.09694198559
0.09758293975
0.098280018
0.0989602907
0.09963578977
0.1003340733
0.1009860676
0.1017082088
0.102401172
0.1031267115
0.1036740985
0.1044125453
0.1050916701
0.1057916908
0.1064980908
0.1071887727
0.1078853862
0.1085429775
0.1092890017
0.1099432737
0.1105778517
0.1112774709
0.1119542626
0.1126979204
0.1133405849
0.1139663462
0.1146340609
0.1153367727
0.1160504407
0.1167846999
0.1174755562
0.1181190369
0.1188426031
0.1195782152
0.1201410417
0.1207896065
0.1214939436
0.1221974005
0.1228528172
0.1235742028
0.1242898172
0.1248524007
0.1255411277
0.1262618585
0.1269376435
0.1276684188
0.1283075818
0.1289717995
0.1297266449
0.1304173887
0.1310851526
0.1317674786
0.1324350553
0.1331235032
0.1337999036
0.134443744
0.1352136954
0.1360000267
0.1366680653
0.1374239213
0.1381753594
0.1390317751
0.002066299226
0.002907704751
0.003651817706
0.004383341441
0.005090755723
0.005785468113
0.006470386419
0.007180511428
0.007862075861
0.008555021796
0.009233763385
0.009913107043
0.01060782883
0.0112800195
0.01195811336
0.01263801082
0.01332765622
0.01401195382
0.01470566423
0.01537159765
0.01607682149
0.01673304056
0.01742220721
0.01808867194
0.01877888707
0.01946533494
0.02015797386
0.02083733556
0.02153116292
0.02220425891
0.02290352635
0.02360855337
0.02430908148
0.02497794596
0.02565182939
0.02636460253
0.02704194882
0.02772636282
0.02842134155
0.02908965424
0.02975259729
0.03045949671
0.03112656384
0.03183536578
0.0325032778
0.03319597929
0.03390885331
0.03457624431
0.03526165311
0.03593368725
0.03660831675
0.03730749939
0.03801463364
0.03866755036
0.03938038314
0.04006680127
0.04072140332
0.04143062195
0.04213420618
0.04281270073
0.04348371416
0.04416555996
0.04489429742
0.0455284995
0.04622078279
0.04689817566
0.04761294066
0.04827250327
0.04894320974
0.04965543963
0.05034295936
0.05101854723
0.05175360568
0.05238922619
0.05307407311
0.05374279127
0.05443202564
0.05509372493
0.05580018022
0.05649793225
0.0571185135
0.05786635359
0.05856367847
0.05925480599
0.05992421891
0.06060993377
0.06127848267
0.06195333223
0.06266607382
0.06336879472
0.06401651615
0.06467635325
0.06534155556
0.06599517783
0.06674250361
0.06738366313
0.06808624045
0.06875558773
0.0694655081
0.07016412921
0.07088827428
0.07150530541
0.07219861108
0.07293520912
0.07362836014
0.07426130809
0.07492078106
0.07563839169
0.07634566487
0.07710163023
0.07764819492
0.07836669612
0.07901874115
0.07972695876
0.08044571841
0.08110100526
0.08180328173
0.08253166036
0.08314683055
0.08377309566
0.08452330737
0.08526999902
0.08592861584
0.08654951445
0.08723823284
0.0879681168
0.088683692
0.08931405667
0.09002922337
0.09066728261
0.09135842585
0.09204997711
0.09278976066
0.09346681295
0.09414472572
0.09483615804
0.09547998055
0.09618573863
0.09695352847
0.09758781959
0.09831954172
0.09896305948
0.0995935226
0.1003216094
0.1010128521
0.1016756902
0.1023791891
0.103091756
0.103737759
0.104435035
0.1051287909
0.1058012201
0.1065022272
0.1071387096
0.1078138546
0.1085723097
0.1092275919
0.1099345331
0.1105830924
0.1112950113
0.1120462188
0.1126807736
0.1132631184
0.1139828253
0.1147175058
0.1153763233
0.1160474995
0.1167622639
0.1174734965
0.1181916107
0.1189271619
0.1195722327
0.1201550512
0.1208632151
0.1215123518
0.1222254963
0.1228529405
0.1234897248
0.1242673907
0.1249303001
0.1256021876
0.1262566639
0.1269621415
0.1275980647
0.1283542372
0.1290232906
0.1296998235
0.1304002963
0.1310941719
0.1317715848
0.1324548386
0.1331573041
0.1338355515
0.1345954411
0.1352778792
0.1359926856
0.1366675331
0.1373747707
0.1382250539
0.1389981986
0.002069434425
0.002905205539
0.003658193081
0.004374155861
0.005081878727
0.005783883656
0.006464501567
0.00715507182
0.007850200858
0.008538827831
0.009225419915
0.009908681745
0.01059064236
0.01127477495
0.01194937739
0.01261467357
0.01332388791
0.01399824135
0.01468532847
0.01536889452
0.01605707451
0.01673638418
0.01742023579
0.0181006377
0.01881188646
0.01948256215
0.02014203223
0.02084854577
0.02152519999
0.02222314826
0.02288858178
0.023565161
0.02429039584
0.02496908463
0.02564898517
0.02636761009
0.02703170187
0.02770275138
0.02839155046
0.029059621
0.0297661394
0.0304913093
0.03114935134
0.03183822843
0.03251713225
0.03321229353
0.03389354927
0.03454145501
0.03525940113
0.03592758922
0.0366180015
0.03732224517
0.03800824052
0.03865019321
0.03937957302
0.04009913228
0.04073316088
0.04139451035
0.04209944308
0.04279398638
0.04347005324
0.0441619647
0.04483501784
0.04552558968
0.04621562621
0.04689355082
0.04759431337
0.0482806929
0.0489381737
0.04963153025
0.05039052556
0.05103119772
0.05168800548
0.05238324598
0.05305410378
0.05377734427
0.05444237694
0.05512945778
0.05582059394
0.05650437601
0.05715465883
0.05780153529
0.05856556453
0.05924358051
0.05991828854
0.06065882663
0.06127623329
0.06198795185
0.06267888454
0.06335244653
0.06403429778
0.06466068867
0.06537695359
0.06602527759
0.06675533432
0.06741356621
0.06812818215
0.06880951873
0.0695060976
0.07013134308
0.07084270183
0.07150480655
0.07215261548
0.07288577494
0.07358524498
0.07431691029
0.07491425482
0.07564595883
0.07634882141
0.07709155303
0.07771649105
0.07839197216
0.07903388333
0.0797516576
0.08048438054
0.0812059671
0.08177801162
0.08247924207
0.08316085625
0.08378077556
0.08452149618
0.08526103461
0.08589127446
0.08660623619
0.08723587578
0.08794659726
0.08862590838
0.08937711109
0.09003407704
0.09066357391
0.09132850266
0.09208403445
0.09275117155
0.09341258552
0.09415490839
0.09481263316
0.09551603205
0.09619159686
0.09688035444
0.09764071369
0.09823958118
0.0989817326
0.09965422151
0.1003886602
0.1009698139
0.1016951012
0.1023717988
0.1030856822
0.1036778798
0.1044693067
0.105189743
0.1058022675
0.1064423667
0.1071783879
0.1078090367
0.1085485479
0.1092862057
0.1100077397
0.1106086962
0.1112961419
0.1119520095
0.1126372425
0.1133452572
0.1139924823
0.1146624674
0.115382178
0.1160195693
0.1167691034
0.1174476165
0.1181550081
0.1187940436
0.1195108519
0.120168358
0.1208436197
0.1215388286
0.1222496366
0.1228664637
0.1235723894
0.1241830633
0.1249491882
0.1255617595
0.1262796975
0.1270274709
0.1276758374
0.1283319562
0.1290500771
0.1296887563
0.1304271121
0.1310682627
0.131750265
0.1325257573
0.1331558419
0.1338578344
0.1345166509
0.1352137506
0.1359052946
0.13653842
0.1373702287
0.1381861372
0.1390256759
0.002053813496
0.002902355471
0.003650848032
0.004380172674
0.005083865102
0.005770038977
0.006475847997
0.007172828202
0.007863271705
0.008549563593
0.009217483708
0.009911209289
0.01058866367
0.01126790423
0.01194966518
0.0126173306
0.01330996358
0.01398671039
0.01467002671
0.01536570141
0.01605700452
0.01673108411
0.01741415508
0.01810527855
0.01879460039
0.01948664588
0.02014416324
0.02084416444
0.02153450642
0.02220940441
0.02291292354
0.0235858834
0.02427591551
0.02497165372
0.02565046345
0.02633592906
0.02703796058
0.02772691771
0.02840836348
0.02907861292
0.02977329843
0.03044728571
0.03115932727
0.03181249306
0.03250938287
0.03319216653
0.03387909226
0.03454172853
0.03523028441
0.035925613
0.03661774736
0.03728552322
0.03800753387
0.03870609014
0.03941541232
0.04008809559
0.04074241384
0.04141355893
0.04211876852
0.04284436258
0.04348679478
0.04416711819
0.04485783282
0.04554978713
0.04624948348
0.0468932354
0.04761495262
0.04826380993
0.04896315859
0.04966260014
0.05032286641
0.05100210541
0.05169177623
0.0523707168
0.05305739879
0.05379831656
0.05444856652
0.0551341399
0.05580438703
0.0565004922
0.05723228853
0.05790404653
0.0585357802
0.05922810592
0.05994381784
0.06062356636
0.06132419823
0.06195177856
0.06263882022
0.06332559747
0.06400321352
0.06469401389
0.06537021766
0.06605838318
0.06674782937
0.06734731487
0.0681197086
0.06881933996
0.06946855851
0.07014437756
0.07084024619
0.07149095725
0.07219152151
0.07283651656
0.07354828002
0.0742786143
0.07494006042
0.07560255962
0.07635961756
0.07702179025
0.0776710361
0.07837813698
0.0790730014
0.07979681994
0.0804640699
0.0811554036
0.08182584137
0.08242617691
0.08314854297
0.08381949197
0.08449442148
0.08518675893
0.08587969093
0.08655378346
0.08726595858
0.08791819747
0.08863302106
0.08932560852
0.09002093992
0.09071983299
0.09140243992
0.09214687142
0.09271050573
0.09340487971
0.09411672214
0.09481915034
0.09555512867
0.09624463471
0.09698639294
0.09755586503
0.09827032475
0.09892482891
0.09961904385
0.100365029
0.1009705369
0.1016403071
0.1023871174
0.1030580969
0.1036932382
0.1044235563
0.1051858204
0.105819129
0.1065325866
0.1071923863
0.1079007731
0.1085740869
0.1092476095
0.1099173552
0.1105712042
0.1112824373
0.1119573726
0.1126432233
0.1133409556
0.1139986354
0.1147149682
0.1153364616
0.1160277747
0.1167280617
0.1174207356
0.1181268965
0.1188317005
0.1194939254
0.1201833221
0.1208962943
0.1215192264
0.1221947342
0.122795899
0.1235680295
0.12416445
0.1249224991
0.1256299445
0.1262285151
0.1269322932
0.1276788806
0.1283264984
0.1290805289
0.1297158525
0.1304314546
0.1311077526
0.1318289427
0.1324528157
0.1331996788
0.133805482
0.134527839
0.1351960861
0.135935807
0.1367051525
0.1372896114
0.1381044594
0.1390987375
0.002058485389
0.00290289839
0.003661685406
0.004379895882
0.005084150435
0.005781933731
0.006487790441
0.00717741833
0.007865659679
0.00854708685
0.009208489503
0.009901015114
0.01057977468
0.0112615191
0.01196284477
0.01263807526
0.01331184077
0.0140000227
0.01467182628
0.01535308768
0.0160546374
0.01670102633
0.01740538204
0.01808591284
0.01878218233
0.01948969367
0.02016800637
0.02085542655
0.02155809935
0.02222685782
0.02288066156
0.02358907928
0.02430507384
0.02497630579
0.02566430248
0.02629006574
0.02702397526
0.02772760513
0.02841380378
0.02911336011
0.02975978344
0.03043518581
0.03112287609
0.03184254191
0.03253200843
0.03319328168
0.0339209203
0.03453570796
0.03522134448
0.03589062884
0.03656050335
0.03728237908
0.03800214047
0.03868309585
0.03935280051
0.04008359007
0.04073267585
0.04142262526
0.04209831748
0.04279536893
0.04347429394
0.04414184394
0.04485045891
0.04551905027
0.04626796137
0.04690254671
0.04758222316
0.04827658728
0.04895493734
0.04961376733
0.05033161287
0.0510135616
0.0517028717
0.05233970259
0.05303661683
0.05373672293
0.05445217995
0.05516987915
0.05580927192
0.05648781824
0.05721309857
0.05786526086
0.05853999989
0.05921767017
0.05988472008
0.0606196562
0.06130879494
0.06198357809
0.06266785121
0.06335213014
0.0640162922
0.06472794712
0.06537224338
0.06601059963
0.06676895432
0.06739550099
0.06807893403
0.06878286919
0.06947306704
0.07019163167
0.07082111611
0.07148852854
0.07223101024
0.07288070639
0.07360308407
0.07429419988
0.07491448838
0.0756428764
0.07636000953
0.07701815367
0.0776929789
0.07840791716
0.07911854765
0.07977658582
0.08048213181
0.0811286209
0.0818468419
0.08249008771
0.0831426328
0.08384210404
0.08449073445
0.08516252343
0.08587304623
0.08656976494
0.08725937369
0.0879465946
0.08861393605
0.08931642477
0.09005056434
0.09072396698
0.0913639732
0.09209704354
0.09281394059
0.09345150625
0.09414359159
0.09490117307
0.09556592564
0.09625796019
0.09691859554
0.09762802411
0.09830956057
0.09901610566
0.0996694327
0.1003489804
0.1010053229
0.1016787859
0.1023337074
0.1030010701
0.1036865708
0.1044717914
0.105145998
0.1058319961
0.106517584
0.1072071021
0.1079242185
0.1086283022
0.1093067175
0.109991293
0.1106123027
0.1112298392
0.1119204149
0.1126699952
0.1133508324
0.1140852862
0.1147395067
0.1153333689
0.116059039
0.1167519083
0.1174283439
0.1181208428
0.1187449546
0.1194949547
0.1201483413
0.120822624
0.1214703715
0.1221861121
0.122822733
0.1235346346
0.1242368913
0.124888287
0.1256062827
0.126269828
0.126928195
0.1276702747
0.1282797574
0.1290160704
0.129740298
0.1304201475
0.1311070786
0.1317814244
0.1325126331
0.1331420152
0.1337852506
0.1344607814
0.1351664154
0.1359188268
0.1366404512
0.1373289781
0.1381249765
0.1390190848
)
;

boundaryField
{
    bottom
    {
        type            calculated;
        value           nonuniform List<scalar> 
200
(
0.002069356453
0.002903071398
0.003657642702
0.004377907311
0.005087446809
0.005777164209
0.006481342137
0.007164641973
0.007857522978
0.008537243567
0.009214300582
0.009919036548
0.01059428786
0.01128577746
0.01195503954
0.01264183709
0.01330065308
0.01398641727
0.01468729392
0.0153820647
0.01605310466
0.01674506242
0.0174220188
0.0180923088
0.01878566252
0.01946176225
0.02015681081
0.02084666872
0.02152306858
0.02220035822
0.02288947237
0.0236119598
0.02429142982
0.02498657105
0.02566799502
0.02636464768
0.02704757597
0.0277388329
0.02841836019
0.02910236443
0.02977527908
0.03045154727
0.03113328388
0.03182438006
0.03246425952
0.03320489113
0.03387236422
0.03455242549
0.03524370651
0.03591080927
0.03656991339
0.03727907188
0.037980366
0.03864728686
0.03937745175
0.04003883008
0.04073835396
0.04143127399
0.04212797642
0.04281333074
0.04352253401
0.04421322087
0.04486426697
0.04553813857
0.04622458406
0.04690511892
0.04762664546
0.04827239484
0.04894308121
0.0496411018
0.05031289455
0.05100929914
0.05167186139
0.05237061011
0.05306547601
0.05370933788
0.05447407123
0.05512292676
0.05582849103
0.0565111008
0.05718456802
0.05788128803
0.05853943973
0.05925304849
0.05991246158
0.06058468836
0.06129519131
0.06194384871
0.06259186295
0.06332102085
0.06404359774
0.06467938251
0.06532884221
0.06601713464
0.0667123892
0.06739759822
0.06809396138
0.06873972654
0.06943400382
0.07015549351
0.07082318588
0.07146007317
0.07217400529
0.07294029539
0.07356492009
0.07425879222
0.07500629715
0.07559133769
0.07634367203
0.07702068492
0.07770392356
0.07837794467
0.07913639228
0.07975636865
0.08038804611
0.08114280574
0.08179846066
0.08253130096
0.08316532398
0.08386879548
0.08451317832
0.08516295577
0.08590553033
0.08654170861
0.08723286899
0.08792869622
0.08861937672
0.08930752332
0.09003003626
0.09067761296
0.09136167394
0.09206556677
0.09270232908
0.09347246217
0.0940998805
0.09480921
0.09548603177
0.09616660167
0.09694198559
0.09758293975
0.098280018
0.0989602907
0.09963578977
0.1003340733
0.1009860676
0.1017082088
0.102401172
0.1031267115
0.1036740985
0.1044125453
0.1050916701
0.1057916908
0.1064980908
0.1071887727
0.1078853862
0.1085429775
0.1092890017
0.1099432737
0.1105778517
0.1112774709
0.1119542626
0.1126979204
0.1133405849
0.1139663462
0.1146340609
0.1153367727
0.1160504407
0.1167846999
0.1174755562
0.1181190369
0.1188426031
0.1195782152
0.1201410417
0.1207896065
0.1214939436
0.1221974005
0.1228528172
0.1235742028
0.1242898172
0.1248524007
0.1255411277
0.1262618585
0.1269376435
0.1276684188
0.1283075818
0.1289717995
0.1297266449
0.1304173887
0.1310851526
0.1317674786
0.1324350553
0.1331235032
0.1337999036
0.134443744
0.1352136954
0.1360000267
0.1366680653
0.1374239213
0.1381753594
0.1390317751
)
;
    }
    top
    {
        type            calculated;
        value           nonuniform List<scalar> 
200
(
0.002058485389
0.00290289839
0.003661685406
0.004379895882
0.005084150435
0.005781933731
0.006487790441
0.00717741833
0.007865659679
0.00854708685
0.009208489503
0.009901015114
0.01057977468
0.0112615191
0.01196284477
0.01263807526
0.01331184077
0.0140000227
0.01467182628
0.01535308768
0.0160546374
0.01670102633
0.01740538204
0.01808591284
0.01878218233
0.01948969367
0.02016800637
0.02085542655
0.02155809935
0.02222685782
0.02288066156
0.02358907928
0.02430507384
0.02497630579
0.02566430248
0.02629006574
0.02702397526
0.02772760513
0.02841380378
0.02911336011
0.02975978344
0.03043518581
0.03112287609
0.03184254191
0.03253200843
0.03319328168
0.0339209203
0.03453570796
0.03522134448
0.03589062884
0.03656050335
0.03728237908
0.03800214047
0.03868309585
0.03935280051
0.04008359007
0.04073267585
0.04142262526
0.04209831748
0.04279536893
0.04347429394
0.04414184394
0.04485045891
0.04551905027
0.04626796137
0.04690254671
0.04758222316
0.04827658728
0.04895493734
0.04961376733
0.05033161287
0.0510135616
0.0517028717
0.05233970259
0.05303661683
0.05373672293
0.05445217995
0.05516987915
0.05580927192
0.05648781824
0.05721309857
0.05786526086
0.05853999989
0.05921767017
0.05988472008
0.0606196562
0.06130879494
0.06198357809
0.06266785121
0.06335213014
0.0640162922
0.06472794712
0.06537224338
0.06601059963
0.06676895432
0.06739550099
0.06807893403
0.06878286919
0.06947306704
0.07019163167
0.07082111611
0.07148852854
0.07223101024
0.07288070639
0.07360308407
0.07429419988
0.07491448838
0.0756428764
0.07636000953
0.07701815367
0.0776929789
0.07840791716
0.07911854765
0.07977658582
0.08048213181
0.0811286209
0.0818468419
0.08249008771
0.0831426328
0.08384210404
0.08449073445
0.08516252343
0.08587304623
0.08656976494
0.08725937369
0.0879465946
0.08861393605
0.08931642477
0.09005056434
0.09072396698
0.0913639732
0.09209704354
0.09281394059
0.09345150625
0.09414359159
0.09490117307
0.09556592564
0.09625796019
0.09691859554
0.09762802411
0.09830956057
0.09901610566
0.0996694327
0.1003489804
0.1010053229
0.1016787859
0.1023337074
0.1030010701
0.1036865708
0.1044717914
0.105145998
0.1058319961
0.106517584
0.1072071021
0.1079242185
0.1086283022
0.1093067175
0.109991293
0.1106123027
0.1112298392
0.1119204149
0.1126699952
0.1133508324
0.1140852862
0.1147395067
0.1153333689
0.116059039
0.1167519083
0.1174283439
0.1181208428
0.1187449546
0.1194949547
0.1201483413
0.120822624
0.1214703715
0.1221861121
0.122822733
0.1235346346
0.1242368913
0.124888287
0.1256062827
0.126269828
0.126928195
0.1276702747
0.1282797574
0.1290160704
0.129740298
0.1304201475
0.1311070786
0.1317814244
0.1325126331
0.1331420152
0.1337852506
0.1344607814
0.1351664154
0.1359188268
0.1366404512
0.1373289781
0.1381249765
0.1390190848
)
;
    }
    inlet
    {
        type            calculated;
        value           nonuniform List<scalar> 5(0.002069356453 0.002066299226 0.002069434425 0.002053813496 0.002058485389);
    }
    outlet
    {
        type            calculated;
        value           nonuniform List<scalar> 5(0.1390317751 0.1389981986 0.1390256759 0.1390987375 0.1390190848);
    }
    back
    {
        type            symmetry;
    }
    front
    {
        type            symmetry;
    }
}


// ************************************************************************* //
