/*--------------------------------*- C++ -*----------------------------------*\
| =========                 |                                                 |
| \\      /  F ield         | OpenFOAM: The Open Source CFD Toolbox           |
|  \\    /   O peration     | Version:  v1612+                                |
|   \\  /    A nd           | Web:      www.OpenFOAM.com                      |
|    \\/     M anipulation  |                                                 |
\*---------------------------------------------------------------------------*/
FoamFile
{
    version     2.0;
    format      ascii;
    class       volScalarField;
    location    "4.78";
    object      SOF_Ar1;
}
// * * * * * * * * * * * * * * * * * * * * * * * * * * * * * * * * * * * * * //

dimensions      [0 0 0 0 0 0 0];

internalField   nonuniform List<scalar> 
1000
(
0.1390075844
0.1381415882
0.1374397251
0.1366734986
0.1359850598
0.1352527299
0.1345676644
0.1339417372
0.1332067353
0.1324794625
0.1318813814
0.131199609
0.1304784168
0.1297922893
0.1291313766
0.128425869
0.1277078256
0.1270400558
0.126343746
0.1257092404
0.1250316234
0.1243523228
0.1235949081
0.1229437267
0.1223223872
0.1216660879
0.1208556117
0.1202212792
0.1195448814
0.1188300449
0.1181460256
0.1175488227
0.1168214649
0.1161109506
0.1153712991
0.1147708486
0.1140269363
0.1133207324
0.1126493706
0.1119330411
0.1112103471
0.1105198675
0.1099216467
0.1091600984
0.1084976578
0.1078241604
0.107134349
0.1064526923
0.105758822
0.1050875885
0.1044126403
0.1037243227
0.1030693907
0.1023866931
0.1017451664
0.1010561237
0.1003644806
0.09964403662
0.09892099566
0.09828853482
0.09762003184
0.09689965045
0.09623965021
0.09558237855
0.09479913818
0.09413879085
0.09348811775
0.09274779023
0.09212571324
0.09134769278
0.09070871903
0.09005136362
0.08933927622
0.08866748047
0.08794118274
0.0872639802
0.08664613904
0.08589344377
0.08525285254
0.08455896818
0.08388662116
0.08314676875
0.08244654825
0.08176686028
0.08104336561
0.08037246416
0.07970765135
0.07903927563
0.07833524649
0.07761120611
0.07697663266
0.07631354707
0.07560022128
0.07493790773
0.07423604577
0.07355955279
0.07291005016
0.07222763166
0.07149588268
0.07078186605
0.0700705625
0.06939471286
0.06873945319
0.06810025784
0.0673647961
0.06666268973
0.06599200936
0.06530614347
0.0646088691
0.0639471098
0.06329337802
0.06257640216
0.06196217731
0.06125590366
0.06058371494
0.05986903289
0.05915696882
0.058492206
0.05779047408
0.05714926344
0.05645026566
0.05576437001
0.0550598444
0.05437860891
0.05368494281
0.05301193669
0.05227736486
0.0516295764
0.05096507724
0.05021000874
0.04956710381
0.0488950035
0.04818565088
0.04749498458
0.04686172762
0.04621448588
0.04547906217
0.04477067572
0.04408008591
0.04340036538
0.04268399056
0.04202361799
0.04135471917
0.04068344911
0.03996325636
0.03928700651
0.03861551275
0.03795496736
0.03725303231
0.03658413376
0.03591871217
0.03521718744
0.03451687681
0.03382377561
0.03311834348
0.03242840262
0.03175386774
0.03107578483
0.03042590936
0.0296910537
0.02903643383
0.02835098274
0.02767646282
0.02698795661
0.02632406979
0.02564661201
0.02494674748
0.02426383458
0.02355618528
0.02290876702
0.02222084127
0.02154937436
0.02086162612
0.02015461128
0.01944381087
0.0188064276
0.01813200833
0.01742705089
0.01675009788
0.01606189716
0.01539586843
0.01470813685
0.01401191593
0.0133117588
0.01265077425
0.01195933675
0.01124694246
0.01058631843
0.009903440246
0.009229662026
0.00854090256
0.007862408662
0.007162469219
0.006491403073
0.005793982647
0.005089104466
0.004379962953
0.00366515113
0.002928470655
0.002072539868
0.139000588
0.138195072
0.1374189364
0.1367326664
0.1359362397
0.1352708958
0.1345477761
0.1338791598
0.1332756236
0.1325449702
0.1318701845
0.1312030692
0.1304793512
0.1297829661
0.129147603
0.1284456245
0.1277465826
0.1270464046
0.126352169
0.1256585643
0.1250429649
0.1243198741
0.1237081593
0.1229730715
0.1222653161
0.1215747412
0.1209313888
0.1202544044
0.1195714619
0.1188008834
0.1181260742
0.1174542678
0.1167658578
0.116052974
0.1153863642
0.1147127283
0.114090662
0.1133153114
0.1126347081
0.1119147443
0.1112520013
0.1105477545
0.1099477026
0.1091967443
0.1085195595
0.1078382185
0.1071061856
0.1064553295
0.1058039349
0.1050979609
0.1044645949
0.1037350463
0.1030724392
0.1023650535
0.1017310707
0.1010752715
0.1003795332
0.09960256748
0.09892604343
0.09831072051
0.09762471651
0.09690786516
0.09624750514
0.09551628709
0.09485835674
0.09416152034
0.09346195682
0.09275789391
0.09208800378
0.09137868004
0.09067438523
0.08997741537
0.0893239289
0.08859792517
0.0879394872
0.0873016236
0.08659589303
0.08587024705
0.08520064795
0.08457066702
0.08381913213
0.08316421618
0.08248548593
0.08181331062
0.08107791282
0.08044909781
0.07969551403
0.07905118948
0.07837258274
0.07769037239
0.07696965776
0.07628883982
0.07562948308
0.0749421192
0.07425795581
0.07356715348
0.07283871355
0.07220976286
0.07149583289
0.07077851861
0.07007777789
0.06941374742
0.06875395386
0.0680735863
0.06734315867
0.06667807032
0.06603003377
0.06536916721
0.06463063184
0.06397485041
0.06326631606
0.06263499605
0.06192655787
0.06121781034
0.06056531748
0.05986191017
0.05915687524
0.05848209849
0.05777384713
0.05711326553
0.05646802106
0.05576182525
0.05511270153
0.05438777023
0.05372390682
0.05300797127
0.05230513204
0.05164263618
0.05096700781
0.0502671109
0.04952943862
0.04886976958
0.04817363199
0.04751629484
0.04683853534
0.0461610503
0.04549356249
0.04475884414
0.04409682246
0.04339865514
0.0427226321
0.04207286745
0.04135379386
0.04065775312
0.03997741862
0.03928947688
0.03861703102
0.03791820454
0.03722778475
0.0365744148
0.03589800816
0.03521678934
0.03450692497
0.0338236166
0.03312433897
0.03247903601
0.03173870537
0.03108442216
0.03039100244
0.02970408324
0.02904965769
0.02832888255
0.02765627323
0.02697910819
0.02630251728
0.02563593617
0.02493144507
0.02425898155
0.02357405512
0.02289745469
0.02225213102
0.02153641611
0.02086655558
0.02015119973
0.01947314379
0.01879594903
0.01812352046
0.01742550414
0.01675035289
0.01606374626
0.01538808663
0.01469890797
0.01400838195
0.01332987259
0.01266036576
0.01196757061
0.0112670008
0.01060812019
0.009910559394
0.00923972662
0.008548710053
0.007869370905
0.007176178858
0.006493719605
0.005800690021
0.005086217196
0.004376583658
0.00366456635
0.002916470106
0.002066661075
0.1389936965
0.1381063325
0.137436094
0.1367060256
0.135970756
0.1353041761
0.1345334935
0.1338610531
0.1331720096
0.1325275176
0.1318512978
0.131238839
0.1304633148
0.1297738633
0.1290829813
0.1283918452
0.1278168979
0.1271430078
0.1264065217
0.125707562
0.125053052
0.1242905092
0.123572066
0.1229208839
0.1222716286
0.1215793397
0.1208472186
0.120267922
0.1195342591
0.1188143642
0.1181329738
0.117446872
0.1167835081
0.1161141288
0.1154409354
0.1147537428
0.1140017978
0.1133756842
0.1126422722
0.111889351
0.1112501761
0.1105915162
0.1098867816
0.1092566793
0.1085492072
0.1077684974
0.1071293874
0.106384859
0.1058184478
0.1050671686
0.104429001
0.1037096798
0.103037786
0.1024218874
0.1017081345
0.1010686262
0.1003857894
0.09957693899
0.09896182392
0.09830656831
0.09762700633
0.09694125181
0.09624108388
0.09555436013
0.09482454432
0.09412749803
0.0934448997
0.09276996586
0.09208191089
0.09136229839
0.09072177953
0.0899730528
0.08931290129
0.08863417406
0.08793848998
0.08726896726
0.08661017138
0.08590399877
0.08520719425
0.08454218001
0.08382123229
0.08316572545
0.08250709702
0.08180009606
0.08107944182
0.08041455025
0.07974194307
0.07903000733
0.07840351955
0.07765787006
0.07696338923
0.07627969649
0.07563290248
0.07492994995
0.07426876482
0.07351299589
0.07286466354
0.07215944648
0.07151909241
0.0707387828
0.0700956004
0.06941674827
0.06870717948
0.06806367989
0.06740690484
0.06674933003
0.06603316588
0.06538133056
0.06467269825
0.06395330628
0.06325892302
0.06262507106
0.06190421673
0.06119478913
0.06048318129
0.05980873212
0.05916748731
0.05848344905
0.0577967713
0.05709881049
0.05640380917
0.05575176941
0.05506543792
0.05439373802
0.05368868403
0.05302818053
0.05231016963
0.05160649483
0.05095954806
0.05028257239
0.04956664922
0.0488949317
0.04817888867
0.04750085641
0.04684702852
0.04617066567
0.04548938434
0.04479012
0.04406009601
0.04339472432
0.0427005305
0.0420476305
0.0413512507
0.04066409246
0.039960865
0.03928441276
0.0385692376
0.03791150738
0.03721042271
0.03653280916
0.03586900101
0.03516856296
0.03448820315
0.03380204785
0.03313564642
0.0324525855
0.03172069601
0.03107141708
0.0304146073
0.02969351403
0.02902078584
0.02835983775
0.02767872181
0.0269984999
0.02629690876
0.02560448139
0.02490360553
0.0242449021
0.02358056015
0.02289721587
0.02222734641
0.0215437544
0.02083201093
0.02017856142
0.01948928259
0.01881026778
0.01811812256
0.01744665581
0.01674563622
0.01606158369
0.01538597742
0.01468384176
0.01400067053
0.01331571844
0.01265277333
0.01196797395
0.01129085395
0.01062606787
0.009914869689
0.00923076047
0.008549062415
0.007866634264
0.007181432299
0.006486758238
0.005792147302
0.005095668769
0.004392410277
0.003653226659
0.002916544939
0.002067288772
0.1389433967
0.1381239156
0.1374236408
0.1367035152
0.1359564878
0.1352436057
0.1346779821
0.1339569755
0.1332884659
0.1326290562
0.1318618074
0.1312053048
0.1304587236
0.1297757607
0.129079064
0.1284515193
0.1277501707
0.1271198834
0.1263930713
0.1257052372
0.1250231607
0.1243096225
0.1237066798
0.122930368
0.1222244119
0.1215846466
0.1209092773
0.1202164253
0.1195653848
0.1188628802
0.1181172442
0.1174651367
0.116782768
0.1161658342
0.1154159903
0.1147344518
0.114023496
0.1133267445
0.1126683055
0.1119576574
0.1112920215
0.1105331985
0.1098958851
0.1092036411
0.1084878508
0.1078492783
0.1071150888
0.1064420827
0.1057362726
0.1050923452
0.1044121229
0.103706148
0.103079505
0.1024459253
0.1017449314
0.1010740556
0.1003054529
0.0996337464
0.09895089625
0.09832858955
0.09763071423
0.09700230303
0.09627856392
0.09554493128
0.09485770768
0.0941341826
0.09351504361
0.09276023209
0.09205746048
0.09135041235
0.09069390816
0.08998316662
0.08933734241
0.08862394472
0.08795790006
0.08727521625
0.08657500892
0.08593971013
0.08526206085
0.08451200745
0.08390444976
0.08322036313
0.0825010329
0.08183641427
0.08111469038
0.08040377535
0.07971764052
0.07902471217
0.07840912148
0.07767672528
0.07697782601
0.07636879002
0.07562358471
0.07489290074
0.07420279731
0.07358122222
0.07290292139
0.07222793672
0.0714779179
0.07079470843
0.07009678085
0.06946128607
0.06874609306
0.0680693467
0.06741107236
0.06672927781
0.06606650024
0.06537328247
0.06466388421
0.06398953621
0.06327101371
0.06264333047
0.06194333523
0.06127922506
0.06052705781
0.05982226943
0.05913643565
0.05846277215
0.05780414058
0.0571275782
0.05646078578
0.05576944858
0.05510479823
0.05441031566
0.05372078913
0.05299778798
0.05230799435
0.05160373919
0.05092148096
0.05025167525
0.04959660132
0.04888277858
0.04819041346
0.04752028388
0.04681617479
0.04612271055
0.0454598291
0.04474762881
0.0440650716
0.0433846188
0.04270414904
0.04202035098
0.04131918742
0.04066284407
0.03999265366
0.0392888369
0.03858668614
0.03790697083
0.03723546293
0.03653832992
0.035848303
0.03519727675
0.03450736008
0.03382716782
0.03314358869
0.03241640915
0.03174508636
0.03111084601
0.03039947304
0.0297149227
0.02903158758
0.02834573491
0.02768885208
0.0269379593
0.02626646459
0.02558863538
0.02492368913
0.02424294735
0.02356425354
0.0228861064
0.02219975183
0.02151154069
0.02084738239
0.02017991784
0.01949229127
0.01882616918
0.01809952583
0.01743811584
0.01675970108
0.01606867146
0.01537400547
0.01468363695
0.01397890996
0.01333359635
0.01265915589
0.0119780919
0.01128601951
0.01059151058
0.009910055339
0.009237629066
0.008556542364
0.007869810323
0.007174852555
0.006493221941
0.005805557748
0.005104655893
0.004386031989
0.003658180607
0.002905975647
0.002068896708
0.1390045001
0.1382348715
0.1374818919
0.136668017
0.1360047272
0.1353226804
0.1346456967
0.1339517622
0.1332699316
0.1325400724
0.1318883823
0.1311999434
0.1304752939
0.1298059903
0.1291346528
0.1284551565
0.1278319567
0.12710114
0.1263351733
0.1256051035
0.1249936016
0.1242563643
0.123598043
0.1230018458
0.1221867692
0.1215650612
0.1208895914
0.1202223253
0.1195655027
0.1188168386
0.1180850875
0.1174104664
0.1167820916
0.1161420666
0.1153943903
0.1147492905
0.1140824892
0.1133560247
0.1126165986
0.1119986361
0.1113322908
0.1105979682
0.1098944654
0.1091932131
0.1085256351
0.1077919467
0.1071534516
0.1065040481
0.1058210481
0.1051137373
0.1043907851
0.1038021253
0.1030623588
0.1023974896
0.1016671416
0.1009710233
0.1002668822
0.09963547476
0.09891459284
0.09825015026
0.09762059793
0.09694803628
0.09622676757
0.09553098411
0.09493083646
0.09415677591
0.09345401431
0.09277387434
0.09209344084
0.09141487134
0.09070909043
0.09004516991
0.08932146763
0.08860782972
0.08795586475
0.08733235859
0.08662793878
0.0859310943
0.08524641814
0.08449211253
0.08384616119
0.08321749941
0.08249967882
0.0818495725
0.08118836274
0.08050695101
0.07979289897
0.07900763868
0.07835770602
0.07767217317
0.07697016633
0.07629837259
0.07555441614
0.07495710539
0.07425278707
0.07357054249
0.0728948472
0.07212453819
0.07150067036
0.07075113457
0.07007851372
0.06944805614
0.06882578477
0.06807270588
0.06742567737
0.06669878532
0.06602559918
0.06531626674
0.06463822541
0.06394012619
0.06327383706
0.06257422543
0.06190869094
0.06122905874
0.06052414997
0.05982629708
0.05913765201
0.05848048999
0.05779313881
0.0571518588
0.05644875281
0.05574787608
0.05507910385
0.05436209228
0.05371603791
0.05302700796
0.0523401312
0.05164639105
0.0509417735
0.05027688965
0.04960021043
0.0488987367
0.04820625428
0.04748065346
0.04681873275
0.0461424473
0.04545758419
0.04474321572
0.04402976553
0.04338108522
0.04270695589
0.04202501834
0.04131959648
0.04066884838
0.03997732819
0.03931621954
0.03855207596
0.03790607012
0.03726331794
0.03657467993
0.03587722648
0.03519022448
0.03450443999
0.03384134662
0.03315899286
0.03243289514
0.0317351783
0.0311004358
0.03042842256
0.02971844236
0.02901997459
0.02834433524
0.0276605346
0.02699859179
0.02630801843
0.02560645618
0.0249696816
0.0242832576
0.02357811193
0.02286983992
0.0222071558
0.02153630057
0.02082248393
0.02014354497
0.01951414583
0.01883248279
0.01809934369
0.01743789685
0.01674818865
0.01605367013
0.01539149322
0.01467296791
0.01399953031
0.01333235106
0.01265410889
0.01196276779
0.0112760143
0.01059861304
0.009902618457
0.009220481165
0.008551680369
0.007852818389
0.007167715402
0.006486054986
0.005793499243
0.005097159772
0.004396712248
0.00366254273
0.002908909774
0.002058273821
)
;

boundaryField
{
    bottom
    {
        type            calculated;
        value           nonuniform List<scalar> 
200
(
0.1390075844
0.1381415882
0.1374397251
0.1366734986
0.1359850598
0.1352527299
0.1345676644
0.1339417372
0.1332067353
0.1324794625
0.1318813814
0.131199609
0.1304784168
0.1297922893
0.1291313766
0.128425869
0.1277078256
0.1270400558
0.126343746
0.1257092404
0.1250316234
0.1243523228
0.1235949081
0.1229437267
0.1223223872
0.1216660879
0.1208556117
0.1202212792
0.1195448814
0.1188300449
0.1181460256
0.1175488227
0.1168214649
0.1161109506
0.1153712991
0.1147708486
0.1140269363
0.1133207324
0.1126493706
0.1119330411
0.1112103471
0.1105198675
0.1099216467
0.1091600984
0.1084976578
0.1078241604
0.107134349
0.1064526923
0.105758822
0.1050875885
0.1044126403
0.1037243227
0.1030693907
0.1023866931
0.1017451664
0.1010561237
0.1003644806
0.09964403662
0.09892099566
0.09828853482
0.09762003184
0.09689965045
0.09623965021
0.09558237855
0.09479913818
0.09413879085
0.09348811775
0.09274779023
0.09212571324
0.09134769278
0.09070871903
0.09005136362
0.08933927622
0.08866748047
0.08794118274
0.0872639802
0.08664613904
0.08589344377
0.08525285254
0.08455896818
0.08388662116
0.08314676875
0.08244654825
0.08176686028
0.08104336561
0.08037246416
0.07970765135
0.07903927563
0.07833524649
0.07761120611
0.07697663266
0.07631354707
0.07560022128
0.07493790773
0.07423604577
0.07355955279
0.07291005016
0.07222763166
0.07149588268
0.07078186605
0.0700705625
0.06939471286
0.06873945319
0.06810025784
0.0673647961
0.06666268973
0.06599200936
0.06530614347
0.0646088691
0.0639471098
0.06329337802
0.06257640216
0.06196217731
0.06125590366
0.06058371494
0.05986903289
0.05915696882
0.058492206
0.05779047408
0.05714926344
0.05645026566
0.05576437001
0.0550598444
0.05437860891
0.05368494281
0.05301193669
0.05227736486
0.0516295764
0.05096507724
0.05021000874
0.04956710381
0.0488950035
0.04818565088
0.04749498458
0.04686172762
0.04621448588
0.04547906217
0.04477067572
0.04408008591
0.04340036538
0.04268399056
0.04202361799
0.04135471917
0.04068344911
0.03996325636
0.03928700651
0.03861551275
0.03795496736
0.03725303231
0.03658413376
0.03591871217
0.03521718744
0.03451687681
0.03382377561
0.03311834348
0.03242840262
0.03175386774
0.03107578483
0.03042590936
0.0296910537
0.02903643383
0.02835098274
0.02767646282
0.02698795661
0.02632406979
0.02564661201
0.02494674748
0.02426383458
0.02355618528
0.02290876702
0.02222084127
0.02154937436
0.02086162612
0.02015461128
0.01944381087
0.0188064276
0.01813200833
0.01742705089
0.01675009788
0.01606189716
0.01539586843
0.01470813685
0.01401191593
0.0133117588
0.01265077425
0.01195933675
0.01124694246
0.01058631843
0.009903440246
0.009229662026
0.00854090256
0.007862408662
0.007162469219
0.006491403073
0.005793982647
0.005089104466
0.004379962953
0.00366515113
0.002928470655
0.002072539868
)
;
    }
    top
    {
        type            calculated;
        value           nonuniform List<scalar> 
200
(
0.1390045001
0.1382348715
0.1374818919
0.136668017
0.1360047272
0.1353226804
0.1346456967
0.1339517622
0.1332699316
0.1325400724
0.1318883823
0.1311999434
0.1304752939
0.1298059903
0.1291346528
0.1284551565
0.1278319567
0.12710114
0.1263351733
0.1256051035
0.1249936016
0.1242563643
0.123598043
0.1230018458
0.1221867692
0.1215650612
0.1208895914
0.1202223253
0.1195655027
0.1188168386
0.1180850875
0.1174104664
0.1167820916
0.1161420666
0.1153943903
0.1147492905
0.1140824892
0.1133560247
0.1126165986
0.1119986361
0.1113322908
0.1105979682
0.1098944654
0.1091932131
0.1085256351
0.1077919467
0.1071534516
0.1065040481
0.1058210481
0.1051137373
0.1043907851
0.1038021253
0.1030623588
0.1023974896
0.1016671416
0.1009710233
0.1002668822
0.09963547476
0.09891459284
0.09825015026
0.09762059793
0.09694803628
0.09622676757
0.09553098411
0.09493083646
0.09415677591
0.09345401431
0.09277387434
0.09209344084
0.09141487134
0.09070909043
0.09004516991
0.08932146763
0.08860782972
0.08795586475
0.08733235859
0.08662793878
0.0859310943
0.08524641814
0.08449211253
0.08384616119
0.08321749941
0.08249967882
0.0818495725
0.08118836274
0.08050695101
0.07979289897
0.07900763868
0.07835770602
0.07767217317
0.07697016633
0.07629837259
0.07555441614
0.07495710539
0.07425278707
0.07357054249
0.0728948472
0.07212453819
0.07150067036
0.07075113457
0.07007851372
0.06944805614
0.06882578477
0.06807270588
0.06742567737
0.06669878532
0.06602559918
0.06531626674
0.06463822541
0.06394012619
0.06327383706
0.06257422543
0.06190869094
0.06122905874
0.06052414997
0.05982629708
0.05913765201
0.05848048999
0.05779313881
0.0571518588
0.05644875281
0.05574787608
0.05507910385
0.05436209228
0.05371603791
0.05302700796
0.0523401312
0.05164639105
0.0509417735
0.05027688965
0.04960021043
0.0488987367
0.04820625428
0.04748065346
0.04681873275
0.0461424473
0.04545758419
0.04474321572
0.04402976553
0.04338108522
0.04270695589
0.04202501834
0.04131959648
0.04066884838
0.03997732819
0.03931621954
0.03855207596
0.03790607012
0.03726331794
0.03657467993
0.03587722648
0.03519022448
0.03450443999
0.03384134662
0.03315899286
0.03243289514
0.0317351783
0.0311004358
0.03042842256
0.02971844236
0.02901997459
0.02834433524
0.0276605346
0.02699859179
0.02630801843
0.02560645618
0.0249696816
0.0242832576
0.02357811193
0.02286983992
0.0222071558
0.02153630057
0.02082248393
0.02014354497
0.01951414583
0.01883248279
0.01809934369
0.01743789685
0.01674818865
0.01605367013
0.01539149322
0.01467296791
0.01399953031
0.01333235106
0.01265410889
0.01196276779
0.0112760143
0.01059861304
0.009902618457
0.009220481165
0.008551680369
0.007852818389
0.007167715402
0.006486054986
0.005793499243
0.005097159772
0.004396712248
0.00366254273
0.002908909774
0.002058273821
)
;
    }
    inlet
    {
        type            calculated;
        value           nonuniform List<scalar> 5(0.1390075844 0.139000588 0.1389936965 0.1389433967 0.1390045001);
    }
    outlet
    {
        type            calculated;
        value           nonuniform List<scalar> 5(0.002072539868 0.002066661075 0.002067288772 0.002068896708 0.002058273821);
    }
    back
    {
        type            symmetry;
    }
    front
    {
        type            symmetry;
    }
}


// ************************************************************************* //
