/*--------------------------------*- C++ -*----------------------------------*\
| =========                 |                                                 |
| \\      /  F ield         | OpenFOAM: The Open Source CFD Toolbox           |
|  \\    /   O peration     | Version:  v1612+                                |
|   \\  /    A nd           | Web:      www.OpenFOAM.com                      |
|    \\/     M anipulation  |                                                 |
\*---------------------------------------------------------------------------*/
FoamFile
{
    version     2.0;
    format      ascii;
    class       volScalarField;
    location    "4.78";
    object      translationalT_mix;
}
// * * * * * * * * * * * * * * * * * * * * * * * * * * * * * * * * * * * * * //

dimensions      [0 0 0 1 0 0 0];

internalField   nonuniform List<scalar> 
1000
(
273.0739091
273.0241382
273.028521
272.9368827
272.8864139
273.0428532
273.0492455
272.9006418
272.8770058
272.9411808
272.9504546
272.8777651
272.8906708
272.8966357
272.8648884
272.9581162
273.0194195
272.996596
273.015789
272.8393715
272.8409155
272.8535134
272.9032512
272.9483233
272.8707138
272.8874445
272.9227096
272.8954558
272.8847253
272.9372753
272.8715232
272.8818925
272.8113776
272.8735444
272.8904558
272.8806066
272.8569853
272.8984501
272.8823835
272.939174
272.9547808
272.9567436
272.9595037
272.9939596
272.962746
272.9924779
272.8744338
272.9176689
273.0178466
273.0208405
272.9837374
272.9212599
272.8668391
272.9126755
272.9303174
272.9009732
272.8576981
272.9107248
272.9724739
272.8473509
272.7877928
272.8430921
272.8642523
272.8264932
272.9051394
272.8759395
272.8510582
272.9356966
272.8544792
272.976867
272.8873723
272.9064688
272.9603833
272.8994783
272.9728342
272.9431532
272.8686793
272.9602434
272.8978397
272.9227006
272.912171
272.9655889
272.933761
272.913374
272.9602623
273.0536116
272.9444284
272.9347322
273.0175231
273.0988391
273.0339265
272.9787596
273.0436309
273.0026249
273.0225211
273.0192619
272.9772677
273.03018
273.0715533
273.0220696
273.061988
273.1073795
272.9978934
273.0789721
273.0531459
273.0387512
273.0766698
273.0597503
273.1535147
272.9833323
273.0415275
273.0859036
272.9367812
273.0172606
272.9448686
273.0254646
273.0242545
273.0332036
273.0711399
273.0583207
273.0356144
273.0433262
273.0468446
273.0468245
273.0977107
273.0266518
273.0663777
273.0666912
273.0547053
273.1822052
273.0688874
273.0576461
273.0846786
272.9945883
273.0488625
273.104674
273.0926274
272.9996283
272.987895
273.0607109
273.0370625
273.025044
273.072834
272.9264391
272.995644
272.9683291
272.9678032
272.925159
273.0363283
272.9945858
273.011242
273.0162737
273.0296839
273.0205072
272.9682596
273.0047762
272.9915432
272.9854029
273.0355733
272.994542
273.0557984
272.9478291
272.9856357
272.9836098
273.0849053
273.0321593
272.9826588
272.9517965
272.9676697
272.9604547
272.987178
272.8801257
272.978264
273.0123142
273.0629326
272.9563209
273.0172645
273.0499565
273.0152654
272.9930334
272.988459
273.0204852
272.9771472
273.0616548
273.0849135
273.0289711
273.0529861
272.9814936
273.0271732
273.0010436
272.9916289
272.9990297
272.9636016
272.9632407
272.9944387
272.9533957
273.0314342
272.9527862
272.9564988
273.0256853
273.0468475
273.0258646
272.9951101
272.9967255
272.9717747
272.9432203
272.9597421
272.9038129
272.9200048
272.9753208
272.842381
272.9156646
272.84175
272.8681866
272.8126912
272.8693511
272.8612366
272.8238335
272.8652638
272.867126
272.8593665
272.9242893
272.9234113
272.8588493
272.8650802
272.9044356
272.8931817
272.8904924
272.8875228
272.9921115
272.9160549
272.8624748
272.8721757
272.9135137
272.9446986
272.8672871
272.8380294
272.9465269
272.9581178
272.9932407
272.9989878
272.9886455
272.9580312
273.0156891
272.9356765
272.9418442
272.9628789
273.0016496
272.9642439
272.9839132
272.9570241
272.8784866
272.8710773
272.8844453
272.8896702
272.9124421
272.918156
272.8538732
272.9215321
272.7764631
272.8394161
272.885403
272.8960158
272.8786429
272.8582493
272.8988573
272.8423292
272.8892641
272.9266111
272.907362
272.9258115
272.9124576
272.9011486
273.0043993
272.9927731
272.8710229
272.8658999
272.9250125
272.9719132
272.9405662
272.9518832
272.9497731
272.9530779
272.9331473
272.9645627
272.9434496
272.9721505
272.9531415
272.9589494
272.9793206
272.9971256
273.0066885
273.0631053
273.0790225
273.0228441
273.0865986
273.1013815
273.0614964
273.1145697
273.1306607
273.0717221
273.0881508
273.028426
273.000918
273.0653545
273.0403045
272.9991213
272.9958365
273.019535
273.016097
273.0171518
273.0528653
273.0209069
272.9974889
273.017935
272.9887805
273.0177177
273.0097151
273.064816
273.1163188
273.0170588
272.966739
272.9204556
273.0564723
273.1333607
273.1433251
273.1116072
273.0599939
272.9886565
273.0498681
273.0251467
273.1053254
273.1028546
273.0503947
273.0490416
273.1052848
272.9669347
273.0540674
272.9849732
273.0615869
273.0761245
272.9529122
273.0274368
273.0153949
273.0129089
272.9615932
272.9656096
272.9517839
272.9614982
272.9463521
272.944706
273.0999417
273.0293074
272.9987906
273.0199414
272.9142288
273.0623938
273.0070273
273.0760792
273.0272603
272.9641512
273.0919509
273.0173909
273.0259291
273.0851908
272.9642015
272.9641231
273.0319197
272.9461425
272.930731
272.9123012
272.9514339
272.9759059
272.9983369
273.0103217
273.0166018
273.0209931
273.0024086
272.9360673
273.0279256
273.0035445
272.9964048
272.9593654
273.0630238
273.0420191
272.989256
273.0079375
273.0047383
273.0494052
272.934797
272.9101926
272.9170335
273.009505
272.8988183
272.9610403
272.9552985
272.9813462
273.0513173
273.0567053
273.0580528
273.0984485
272.973195
272.9765111
272.9336817
272.9600304
272.9407139
273.0253823
272.9340079
272.9267394
272.8739406
272.9301261
272.8229565
272.9111463
272.9135569
272.9512418
272.93626
272.8792043
272.8071932
272.8596763
272.9209262
272.9043445
272.9131944
272.9178032
272.9207399
272.8571822
272.8960914
272.962031
272.8629814
272.9694129
273.0018221
272.963017
272.9147957
272.8806944
272.8832591
272.8747718
272.8421488
272.9216551
272.897286
272.9503274
273.0116638
272.9518972
272.9511852
272.9150886
272.9550569
272.8439334
272.9923074
273.0655774
273.0483706
273.0337217
272.9707283
272.9458469
273.0199057
272.9138143
272.9165393
272.891394
272.8234137
272.852523
272.9323068
272.9198247
272.7938693
272.8490544
272.8311642
272.8363378
272.8498873
272.9144461
272.8850003
272.9212769
272.9180827
272.9716606
272.9173808
272.8957456
272.9600361
272.9040446
272.8653179
272.9610071
272.9939268
272.8918008
272.9583471
272.8805902
272.939321
272.9896372
272.9043893
272.9156837
272.9005328
272.8995857
272.883894
272.9921437
272.9997624
272.9771076
272.9145319
272.9847481
272.980305
273.0489895
273.0449168
272.9857045
273.0581888
273.0790637
273.0673523
273.0618387
273.1410892
273.0947325
273.0904692
273.0931292
273.0000151
273.0000449
272.9699425
273.0639465
273.0036363
273.0120539
273.0598217
272.9789925
273.043081
273.0749539
273.0802593
272.943282
272.9492303
273.0925356
273.0292897
272.9986162
273.1386829
273.020878
273.0255494
273.0336809
273.0183412
273.0722203
273.0742542
273.1079849
273.0257636
273.0403038
273.0945491
273.0974095
273.0573989
273.095919
273.1055781
273.0233434
273.0615362
273.0266528
273.0080407
273.0317263
273.0067394
273.0301031
272.9304682
272.9985741
272.9792223
272.9734917
272.9525026
273.029438
273.0385049
273.0019735
273.0048962
272.9325353
273.0536988
273.0765142
273.1127521
273.0473923
272.9478288
272.9415274
273.0162986
273.0387073
273.0236419
273.0564726
273.0621203
272.9953627
273.0698627
273.1016919
273.0936572
273.0335926
272.9958459
272.9934351
272.9574995
273.0126885
273.0237778
273.0251297
272.8932861
273.0122647
272.9597756
273.0149093
272.990929
272.965984
273.0002885
273.0409974
273.0513607
273.0662624
273.060063
273.0681793
273.0191722
272.9745502
272.9771955
272.9911203
273.0648366
273.0481925
273.0044594
273.0295869
273.0592997
273.0664251
273.0590115
273.069849
273.0100443
273.0168705
273.0954527
273.1132732
273.0903979
272.9358368
272.9741677
272.9507513
272.9737454
272.8342215
272.9212947
272.877555
272.8888281
272.871419
272.9225773
272.9252874
272.9071076
272.8912046
272.9076205
272.99646
272.8471835
272.8618924
272.9574037
272.9326485
272.9407546
272.8812954
272.9660839
272.9394962
272.9277567
272.9631266
272.8641222
272.8571764
272.9741321
272.9505597
272.8586999
272.888125
272.7800075
272.7964554
272.8173437
272.8791308
272.9299892
272.9058733
272.9139402
272.953303
272.9361279
272.8752396
272.9646844
272.9931741
273.029723
273.0183767
273.0431558
273.029219
272.9527505
273.0509595
272.9406487
272.8366902
272.8382829
272.8495217
272.8136146
272.8340159
272.9151745
272.9239014
272.8488491
272.9674384
272.7902511
272.845923
272.8818888
272.7821676
272.9528831
272.7928744
272.8757707
272.9659457
272.922676
272.9168873
273.0207447
272.9601624
272.9177745
272.9480616
272.8892984
272.8727861
272.9114283
272.9164056
272.9144487
272.8489953
272.7925593
272.9451432
272.9071553
272.8931325
272.9178069
272.8847049
272.9790165
272.9455758
272.9432114
273.0102949
272.9314858
272.9385114
273.011679
273.0240582
273.0776496
273.0448267
272.9928271
273.0922689
273.1179663
273.0761282
273.1161242
273.0964434
273.0277716
273.0334738
273.0436572
272.9838855
272.9949819
272.9749934
273.0397352
273.0810395
273.01797
273.0438043
272.9937054
273.0817559
272.9603824
273.0550947
273.0897521
273.0181223
273.0543057
272.965188
272.9985288
273.0283233
273.036608
273.033195
273.1487253
273.0567785
273.0666964
273.0968554
273.0640806
273.0139718
273.0500032
273.1001357
273.1346299
273.049202
273.0751017
272.9627709
273.0007799
272.9908975
272.9487709
273.0353492
273.0230995
273.1212221
272.9957347
273.0012489
273.0347361
273.0892877
273.0718733
273.068247
273.017843
272.9633966
273.0626576
272.988609
273.0032235
273.0075742
272.9545023
272.9634013
272.8982631
273.0026767
273.0178103
273.0178637
273.0476992
273.0209187
273.0710155
273.0576981
273.0521884
273.0583535
273.0517721
272.9734149
272.9362968
272.9837329
272.9738425
273.0028543
272.9578093
272.936851
272.9178184
273.0977528
273.0475425
273.0742048
273.0810256
273.0161455
273.0677554
273.0204873
272.9949477
273.0642999
273.0279373
272.9888257
273.0234746
273.0141235
273.0336294
273.0681971
272.9833073
273.0387241
273.0068732
273.0180478
273.0195733
272.9745603
273.087249
273.0470922
273.068783
273.131468
273.0558724
272.9786412
273.0187162
272.9239155
272.9387016
272.9411626
272.9779356
272.9519418
272.9208402
272.8660577
272.9127971
272.9396772
272.9014004
272.8790695
272.8489635
272.8747689
272.8907136
272.913725
272.9946558
272.9533307
272.9965666
273.0583557
272.9248892
272.9557163
272.9386981
272.9025434
272.8716008
272.8632418
272.9796093
273.0139815
272.9593966
272.9253211
272.8577518
272.862479
272.8117074
272.8529092
272.900572
273.0015736
272.9310943
272.9249676
272.8817176
272.9438586
272.9573927
272.8920928
272.9996738
272.9496818
272.9428398
272.960981
272.9232263
272.993346
272.8665107
272.8776286
272.8974483
272.9877741
272.9319321
272.9647477
272.9111778
272.9602728
273.0967459
272.931746
272.9291805
272.9733832
272.9302304
272.7715214
272.9057733
272.8926195
273.0100774
272.9603926
272.9730889
272.9702877
272.9685681
272.9990747
273.0555114
273.0123677
272.8746367
272.8959008
272.8243264
272.8584693
272.9266583
272.828168
272.848343
272.8878639
272.8597249
272.8476004
272.788361
272.9191842
272.9390931
272.9209419
272.9109883
272.9788936
272.9390807
272.9875383
272.9635905
273.0767672
272.999114
273.0344586
272.9950562
273.0988524
273.0247551
273.1313387
273.0657328
273.0464751
273.0380602
272.9298615
273.060159
273.0305868
273.0158532
272.9988769
272.9947853
272.9919985
273.1101025
273.0054471
273.0111249
273.079653
273.0513062
272.9200342
273.0420205
273.1038486
272.9650525
273.0205213
273.0831398
273.0102989
273.009904
272.9648832
273.055623
273.0676619
273.069754
273.1307736
273.0580088
273.0774178
273.0819578
273.0778816
273.0937958
273.0649586
272.9682513
272.9471347
273.0434815
273.0343374
273.0992111
272.9708434
273.0057939
273.0350864
273.041363
273.0300464
273.1099412
273.0586133
273.0673013
273.1268221
272.9617193
273.0501182
273.0062199
272.9762024
272.9596682
273.0301756
272.9980383
272.854322
272.8951977
273.031708
273.1122851
273.1036759
273.0607234
273.0392127
272.9696376
272.9144819
273.0919151
272.9788449
272.9389628
272.8931819
272.9604288
273.0308393
273.0589983
273.0828359
272.9718088
272.9607202
273.0465404
272.9922738
273.1031735
273.0556673
273.0758094
273.0020549
273.0769486
273.035825
273.019734
273.0819524
273.0896136
273.0668954
273.0051001
273.0249205
273.0164291
273.0362039
273.0011789
273.0592566
272.9927099
273.0578973
273.0446496
272.9811687
273.1176521
273.1535811
273.1153178
)
;

boundaryField
{
    bottom
    {
        type            calculated;
        value           nonuniform List<scalar> 
200
(
273.0739091
273.0241382
273.028521
272.9368827
272.8864139
273.0428532
273.0492455
272.9006418
272.8770058
272.9411808
272.9504546
272.8777651
272.8906708
272.8966357
272.8648884
272.9581162
273.0194195
272.996596
273.015789
272.8393715
272.8409155
272.8535134
272.9032512
272.9483233
272.8707138
272.8874445
272.9227096
272.8954558
272.8847253
272.9372753
272.8715232
272.8818925
272.8113776
272.8735444
272.8904558
272.8806066
272.8569853
272.8984501
272.8823835
272.939174
272.9547808
272.9567436
272.9595037
272.9939596
272.962746
272.9924779
272.8744338
272.9176689
273.0178466
273.0208405
272.9837374
272.9212599
272.8668391
272.9126755
272.9303174
272.9009732
272.8576981
272.9107248
272.9724739
272.8473509
272.7877928
272.8430921
272.8642523
272.8264932
272.9051394
272.8759395
272.8510582
272.9356966
272.8544792
272.976867
272.8873723
272.9064688
272.9603833
272.8994783
272.9728342
272.9431532
272.8686793
272.9602434
272.8978397
272.9227006
272.912171
272.9655889
272.933761
272.913374
272.9602623
273.0536116
272.9444284
272.9347322
273.0175231
273.0988391
273.0339265
272.9787596
273.0436309
273.0026249
273.0225211
273.0192619
272.9772677
273.03018
273.0715533
273.0220696
273.061988
273.1073795
272.9978934
273.0789721
273.0531459
273.0387512
273.0766698
273.0597503
273.1535147
272.9833323
273.0415275
273.0859036
272.9367812
273.0172606
272.9448686
273.0254646
273.0242545
273.0332036
273.0711399
273.0583207
273.0356144
273.0433262
273.0468446
273.0468245
273.0977107
273.0266518
273.0663777
273.0666912
273.0547053
273.1822052
273.0688874
273.0576461
273.0846786
272.9945883
273.0488625
273.104674
273.0926274
272.9996283
272.987895
273.0607109
273.0370625
273.025044
273.072834
272.9264391
272.995644
272.9683291
272.9678032
272.925159
273.0363283
272.9945858
273.011242
273.0162737
273.0296839
273.0205072
272.9682596
273.0047762
272.9915432
272.9854029
273.0355733
272.994542
273.0557984
272.9478291
272.9856357
272.9836098
273.0849053
273.0321593
272.9826588
272.9517965
272.9676697
272.9604547
272.987178
272.8801257
272.978264
273.0123142
273.0629326
272.9563209
273.0172645
273.0499565
273.0152654
272.9930334
272.988459
273.0204852
272.9771472
273.0616548
273.0849135
273.0289711
273.0529861
272.9814936
273.0271732
273.0010436
272.9916289
272.9990297
272.9636016
272.9632407
272.9944387
272.9533957
273.0314342
272.9527862
272.9564988
273.0256853
)
;
    }
    top
    {
        type            calculated;
        value           nonuniform List<scalar> 
200
(
273.131468
273.0558724
272.9786412
273.0187162
272.9239155
272.9387016
272.9411626
272.9779356
272.9519418
272.9208402
272.8660577
272.9127971
272.9396772
272.9014004
272.8790695
272.8489635
272.8747689
272.8907136
272.913725
272.9946558
272.9533307
272.9965666
273.0583557
272.9248892
272.9557163
272.9386981
272.9025434
272.8716008
272.8632418
272.9796093
273.0139815
272.9593966
272.9253211
272.8577518
272.862479
272.8117074
272.8529092
272.900572
273.0015736
272.9310943
272.9249676
272.8817176
272.9438586
272.9573927
272.8920928
272.9996738
272.9496818
272.9428398
272.960981
272.9232263
272.993346
272.8665107
272.8776286
272.8974483
272.9877741
272.9319321
272.9647477
272.9111778
272.9602728
273.0967459
272.931746
272.9291805
272.9733832
272.9302304
272.7715214
272.9057733
272.8926195
273.0100774
272.9603926
272.9730889
272.9702877
272.9685681
272.9990747
273.0555114
273.0123677
272.8746367
272.8959008
272.8243264
272.8584693
272.9266583
272.828168
272.848343
272.8878639
272.8597249
272.8476004
272.788361
272.9191842
272.9390931
272.9209419
272.9109883
272.9788936
272.9390807
272.9875383
272.9635905
273.0767672
272.999114
273.0344586
272.9950562
273.0988524
273.0247551
273.1313387
273.0657328
273.0464751
273.0380602
272.9298615
273.060159
273.0305868
273.0158532
272.9988769
272.9947853
272.9919985
273.1101025
273.0054471
273.0111249
273.079653
273.0513062
272.9200342
273.0420205
273.1038486
272.9650525
273.0205213
273.0831398
273.0102989
273.009904
272.9648832
273.055623
273.0676619
273.069754
273.1307736
273.0580088
273.0774178
273.0819578
273.0778816
273.0937958
273.0649586
272.9682513
272.9471347
273.0434815
273.0343374
273.0992111
272.9708434
273.0057939
273.0350864
273.041363
273.0300464
273.1099412
273.0586133
273.0673013
273.1268221
272.9617193
273.0501182
273.0062199
272.9762024
272.9596682
273.0301756
272.9980383
272.854322
272.8951977
273.031708
273.1122851
273.1036759
273.0607234
273.0392127
272.9696376
272.9144819
273.0919151
272.9788449
272.9389628
272.8931819
272.9604288
273.0308393
273.0589983
273.0828359
272.9718088
272.9607202
273.0465404
272.9922738
273.1031735
273.0556673
273.0758094
273.0020549
273.0769486
273.035825
273.019734
273.0819524
273.0896136
273.0668954
273.0051001
273.0249205
273.0164291
273.0362039
273.0011789
273.0592566
272.9927099
273.0578973
273.0446496
272.9811687
273.1176521
273.1535811
273.1153178
)
;
    }
    inlet
    {
        type            calculated;
        value           nonuniform List<scalar> 5(273.0739091 273.0468475 273.0984485 273.1132732 273.131468);
    }
    outlet
    {
        type            calculated;
        value           nonuniform List<scalar> 5(273.0256853 273.0580528 273.0954527 273.068783 273.1153178);
    }
    back
    {
        type            symmetry;
    }
    front
    {
        type            symmetry;
    }
}


// ************************************************************************* //
