/*--------------------------------*- C++ -*----------------------------------*\
| =========                 |                                                 |
| \\      /  F ield         | OpenFOAM: The Open Source CFD Toolbox           |
|  \\    /   O peration     | Version:  v1612+                                |
|   \\  /    A nd           | Web:      www.OpenFOAM.com                      |
|    \\/     M anipulation  |                                                 |
\*---------------------------------------------------------------------------*/
FoamFile
{
    version     2.0;
    format      ascii;
    class       volScalarField;
    location    "4.78";
    object      translationalT_Ar1;
}
// * * * * * * * * * * * * * * * * * * * * * * * * * * * * * * * * * * * * * //

dimensions      [0 0 0 1 0 0 0];

internalField   nonuniform List<scalar> 
1000
(
272.8303953
272.8668629
272.9264554
272.8665386
272.8376284
273.0030654
273.0273424
272.8942417
272.8619002
272.9240012
272.9349011
272.8750967
272.8941527
272.8836986
272.8466892
272.9365145
273.0192247
272.9688633
273.0261153
272.8540453
272.8337284
272.8486655
272.900583
272.946159
272.8393621
272.8552251
272.9131367
272.8807414
272.8708757
272.9058005
272.8516704
272.8503913
272.796695
272.8794615
272.893164
272.8781725
272.8416769
272.9111035
272.8668467
272.9635935
272.98602
272.9778944
272.9524994
273.0025893
272.9416378
272.9823037
272.8473049
272.8950786
272.9939133
272.9831177
272.9224615
272.9214001
272.8555894
272.9065965
272.9069934
272.8610623
272.9030958
272.8856182
272.9800982
272.8320722
272.814178
272.8831256
272.8946341
272.8051962
272.9144658
272.8412943
272.8934211
272.9561414
272.7766546
272.9970944
272.8548325
272.8293134
272.8985931
272.8576389
272.9497392
272.8725623
272.8147236
272.9211301
272.7864755
272.8597042
272.8482734
272.9453555
272.9318105
272.9703198
272.944221
273.0351194
272.9362123
272.8900403
272.9132859
273.0969111
273.0246691
272.9523735
273.0196533
272.9314115
272.9908092
272.9337622
272.926525
272.9575086
272.9938361
273.00325
272.9934674
273.1656976
272.9638537
273.0628155
273.0020494
273.0411653
273.0762385
272.9902538
273.1198303
272.9478564
273.0293925
273.0468201
272.8252429
272.8552967
272.8309948
272.9661046
272.934559
272.9953971
273.0258461
273.0103673
272.9365484
273.0276607
273.005638
272.9849777
273.0837719
272.9931312
272.9966394
272.9481104
272.9547569
273.238813
273.0322364
273.020745
273.0568338
273.0611458
272.8980463
272.9433605
272.9506668
272.8697098
272.9261962
272.9521656
272.9677321
272.9755035
272.9820668
272.7308166
272.8762337
272.9808061
272.9104469
272.9317932
272.8618308
272.8090903
272.8584802
272.8417217
272.9474386
272.9577279
272.9349577
272.9974627
272.9716153
272.9402656
272.884553
272.8931501
272.8468584
272.8991887
272.6418165
272.6854453
272.8330976
272.8442816
272.7830964
272.707436
272.9130613
272.6167757
272.685182
272.7382813
272.5360828
272.6194484
272.8197441
272.5567797
272.4743204
272.4786983
272.5188317
272.3402523
272.2342502
272.2504227
272.1227313
272.5143906
272.0954051
272.0757953
272.1509433
271.7093815
271.5242917
271.2566647
271.0634251
270.6423749
270.3782532
269.8559891
269.3711324
268.6827526
267.3575515
265.0116362
261.3504624
253.3262158
272.7968889
272.8791959
272.8902077
272.9305994
272.9127252
272.9040956
272.9305181
272.8849834
272.9092008
272.9808412
272.8432012
272.91624
272.8526923
272.8432483
272.810764
272.8624038
272.8435714
272.8178882
272.8851433
272.8846142
272.8652701
272.9301802
272.9319308
272.8456508
272.8575891
272.8909895
272.8710653
272.853392
272.8800402
272.9768713
272.8988801
272.8331248
272.8624487
272.8955147
272.9259929
272.8777816
272.837116
272.9187871
272.9612987
273.0002079
273.0278093
272.9842493
272.9240351
273.0140697
272.9527849
272.9481074
272.9269558
272.9647797
272.9687644
272.9766106
272.9190711
272.8607408
272.8965765
272.8527514
272.885136
272.9094972
272.9060571
272.8085887
272.9523942
272.7684132
272.8569599
272.8911738
272.9280824
272.8484472
272.794251
272.9057233
272.8618218
272.9026816
272.8177679
272.8688039
272.8953974
272.9119581
272.8930898
273.0098541
272.9253736
272.7817248
272.8559243
272.8690433
272.9663136
272.9294197
272.8846685
272.9698424
272.9782817
272.9136378
272.9527986
272.9268244
273.0058067
272.9581855
272.9388076
272.9585207
272.9321194
272.9793488
272.9605921
273.010386
273.0177396
273.0193124
273.0518905
272.9610875
273.0894838
273.1169159
273.1637309
273.1557161
272.9941218
273.0033995
273.1095867
273.0055358
272.8966881
272.932344
272.9489658
273.0378494
272.9374812
272.9390936
272.886287
272.9331181
272.9513094
272.8873197
272.9187767
272.9360831
273.0749137
273.0487316
272.9511579
272.9383425
272.8228592
273.0653449
273.1764274
273.1191118
273.116023
273.0021523
272.9098453
272.9433595
272.9232999
273.0626781
273.1178949
273.0132327
273.0547046
273.0353608
272.8225023
273.0392037
272.8359771
272.9952617
272.9983423
272.8462132
272.9476624
272.944407
272.8369798
272.8565301
272.9040492
272.9417924
272.9210437
272.8375116
272.7883687
272.9697436
272.8941609
272.9896927
272.9428235
272.7156379
273.1770167
272.9135309
272.9927555
272.8452844
272.8320373
272.999447
272.7764349
272.8511708
273.0165302
272.7009751
272.6506879
272.8820125
272.8443743
272.8185672
272.665253
272.8075343
272.7831413
272.7824967
272.6969095
272.6685999
272.5248116
272.6000926
272.2819562
272.4672635
272.3524005
272.141549
272.1031085
272.1987757
272.0977594
271.8903503
271.8046213
271.5050116
271.3559814
271.0261445
270.8483146
270.4580003
270.4670101
269.9305409
269.2579572
268.4869477
267.2984812
265.4220814
261.6685376
253.5681511
272.8632619
272.8291223
272.8783872
272.861265
272.9086098
272.9166615
273.0022686
272.927081
272.9103062
272.8507619
272.9133268
272.824405
272.9064903
272.881377
272.9403798
272.9225495
272.847643
272.7864688
272.8344274
272.9252026
272.9055775
272.9194297
272.9400423
272.9212746
272.8844013
272.9113496
272.936275
272.8313291
272.9330037
273.0212121
272.9258945
272.8429762
272.8645176
272.8755455
272.8580556
272.8408967
272.9121862
272.8201908
272.9384809
273.0003671
272.9759595
272.9871556
272.9375597
272.9465956
272.8587062
273.0265939
273.0522754
273.0407152
273.0408401
272.973001
272.9055745
273.060817
272.8907012
272.8823841
272.8850169
272.8317058
272.8628098
272.8987654
272.9064425
272.7621516
272.8619564
272.781428
272.8266529
272.809481
272.9114411
272.8615968
272.9133521
272.9220674
272.9046015
272.8495387
272.8735708
272.9439873
272.8749638
272.8710089
272.9230615
272.9865299
272.8503896
272.9810651
272.9009015
272.9543332
272.9976055
272.8392954
272.8639189
272.8321622
272.8693552
272.8856116
272.9467853
272.9895912
272.9473467
272.9006759
272.9823686
272.9356313
273.0601755
273.0131498
272.9837
273.0051273
273.1325865
273.0986152
273.0307957
273.1257019
273.0574665
273.0982296
273.0871765
272.9508989
273.0052437
273.0015498
273.0112372
273.001552
272.9335484
273.0658168
272.9842713
272.9660048
273.1090925
273.1086188
273.0181237
273.0342102
272.9933162
272.9923151
272.9758111
273.1116684
273.0747268
273.0508658
272.9357323
272.9767954
272.9780905
273.0290748
272.9989571
273.0001145
272.9869471
272.9894261
272.9032596
273.0304279
273.1197318
273.066056
272.909996
272.87002
272.8703285
272.866805
272.9357731
272.9845026
273.0271659
272.8823961
272.8265795
272.9106925
272.9183345
272.7181934
272.9977475
272.9161427
272.9845378
272.9807249
272.9405585
273.0801553
273.084976
273.0971834
272.8516387
272.8900193
273.0072816
273.0866103
272.7974227
272.9525855
272.9045908
272.9710965
272.6110629
272.7381235
272.9502054
272.882326
272.8595134
272.9933542
272.8189189
272.7393778
272.6743846
272.7813957
272.9532631
272.5030599
272.499474
272.5367434
272.7039478
272.4038746
272.5170847
272.4886013
272.3129874
272.3854583
272.3983942
272.2771306
271.9044711
271.945009
271.8714777
271.5714304
271.3694196
271.4233059
270.883978
270.6759799
270.349932
269.9297396
269.2745598
268.15426
267.059666
265.5041057
261.3243671
253.6952575
272.8665264
272.9486629
272.8351514
272.9135151
272.8995049
272.9245444
272.8064097
272.9002734
272.8648578
272.874713
272.8615669
272.9058272
272.915544
272.8943368
272.8750355
272.8674357
272.9726697
272.8208976
272.8397197
272.9456506
272.9158926
272.9279035
272.8648586
272.9404785
272.9460414
272.9127799
272.9354451
272.8497612
272.8244231
272.9470657
272.926097
272.818237
272.8641434
272.7370131
272.7746382
272.82856
272.8689086
272.9209078
272.9029368
272.905949
272.9370226
272.9641033
272.8873451
272.967924
272.9763352
273.0229827
273.0171514
273.0351629
273.0382798
272.9823862
273.0284518
272.9666734
272.8496787
272.8640943
272.9119308
272.8616453
272.8566167
272.8759676
272.9203386
272.8663727
272.9474045
272.7563676
272.8204951
272.8691523
272.7790301
272.9899655
272.8173865
272.8613702
273.009304
272.9553718
272.91496
272.9529141
272.9195604
272.9340923
272.8792273
272.8792177
272.9135657
272.934761
272.8913626
272.948333
272.8392936
272.7876753
272.8260299
272.8256896
272.886108
272.8749668
272.8823347
273.0219818
272.8910485
272.9118778
272.9653967
272.8539281
272.8889635
273.0438566
273.0012946
272.9847441
273.0393112
272.984237
273.1159747
273.1404656
273.0354376
273.0370284
273.1297564
272.9714637
272.999244
273.0822482
272.9582075
272.9123041
272.9456307
273.0475007
273.0093977
273.035324
272.9668954
272.9595077
273.1094174
272.9292522
273.0688119
273.0671601
272.9798176
273.0470162
272.9727887
272.9546368
273.0530862
272.954783
272.9838938
273.1068884
273.0134561
272.9870561
273.0258344
273.0973825
272.9615055
273.0785811
273.0192177
273.0205972
272.9057391
273.0576751
272.9106216
272.9588675
272.9759538
272.9301075
272.9181102
272.9548097
273.044841
272.8864672
272.8594687
272.9259114
273.1150356
272.9323942
272.9935135
273.0586852
272.9135794
272.9218833
272.8516481
272.8839159
272.9164938
272.9576214
272.8017834
272.5509911
272.9153165
272.7190224
272.9371898
272.8587908
272.9000369
272.8951754
273.0686371
272.7307235
272.8573521
272.8213358
272.8086829
272.6843769
272.8540056
272.6427266
272.49723
272.6373762
272.4954228
272.2609263
272.7223066
272.6072928
272.4608997
272.5859596
272.5327466
272.4303348
272.5025229
272.2631341
271.9329344
271.8389938
271.8366504
272.0618053
271.4974339
271.3562939
270.9437054
270.5480214
270.4583023
269.8013894
268.9589834
268.452192
266.5299711
264.9593592
262.0369051
253.5113107
272.8856707
272.9193214
272.8952399
272.9492709
272.8701117
272.8995724
272.9332407
272.9722417
272.9265241
272.8964459
272.8561188
272.9033705
272.9162703
272.8623736
272.8552359
272.8213043
272.838183
272.8655028
272.8882172
272.9784362
272.9437057
272.9740957
273.0429449
272.8808501
272.9415117
272.9435553
272.9122693
272.8502342
272.8469565
272.9669622
272.9888769
272.9450378
272.9215754
272.804072
272.8436917
272.7494273
272.8205463
272.8879073
272.9801896
272.9281744
272.9531682
272.9069759
272.9376101
272.9478444
272.906095
272.9957036
272.9970071
272.9105828
272.935651
272.903925
272.9579793
272.8438583
272.8747349
272.8911505
273.0027459
272.9349018
273.0008008
272.9200933
272.956009
273.1680819
272.9226094
272.884973
272.9729539
272.9463642
272.7386065
272.8919688
272.9013572
273.0143872
272.991397
272.9636463
272.911683
272.92844
273.0221782
273.0007093
272.9402633
272.7438669
272.8812119
272.8314414
272.821185
272.8937918
272.819707
272.7851827
272.8306709
272.7745609
272.6790552
272.6457058
272.8519696
272.972951
272.8977235
272.9459152
272.9721328
272.9374936
272.9921251
272.795821
273.0667416
272.9437082
272.9741454
273.0046317
273.1031428
273.1388799
273.0882928
273.0156449
272.9612793
273.0280292
272.8976255
273.0907146
273.0342726
273.0884945
273.0120214
272.9929707
272.8927021
273.088574
272.925055
273.0297187
273.0836121
273.0025597
272.9008258
273.0167441
273.1506469
273.0469348
273.0021148
273.008005
272.8933531
272.9586749
272.9481861
273.0608119
273.0318353
272.9938214
273.0382407
273.0713043
273.0058312
272.9990159
272.9550373
273.1177581
272.997277
272.921054
272.9052882
272.9684508
272.9683857
273.0023221
272.963567
272.9704229
273.0620561
273.0262261
272.8282505
273.0096999
273.0938717
272.8797851
272.9173278
272.905157
272.8942942
272.8763681
272.9764612
272.8613926
272.8910049
273.045962
272.8642597
272.6043424
272.8645832
272.9313062
272.8948352
273.073095
272.8727672
272.7632989
272.699509
272.8240268
272.4731703
272.679689
272.7535039
272.8637078
272.6349518
272.7802971
272.7905817
272.6049996
272.3960416
272.5032811
272.5274165
272.5168964
272.4046595
272.5987511
272.4358719
272.3703614
272.2459613
272.0061441
272.0110277
272.0292434
271.9593772
271.8785808
271.6840562
271.4277982
271.2600367
270.7757407
270.584638
270.0495336
269.165841
268.1549322
266.862336
265.474846
261.8982427
253.2480169
)
;

boundaryField
{
    bottom
    {
        type            calculated;
        value           nonuniform List<scalar> 
200
(
272.8303953
272.8668629
272.9264554
272.8665386
272.8376284
273.0030654
273.0273424
272.8942417
272.8619002
272.9240012
272.9349011
272.8750967
272.8941527
272.8836986
272.8466892
272.9365145
273.0192247
272.9688633
273.0261153
272.8540453
272.8337284
272.8486655
272.900583
272.946159
272.8393621
272.8552251
272.9131367
272.8807414
272.8708757
272.9058005
272.8516704
272.8503913
272.796695
272.8794615
272.893164
272.8781725
272.8416769
272.9111035
272.8668467
272.9635935
272.98602
272.9778944
272.9524994
273.0025893
272.9416378
272.9823037
272.8473049
272.8950786
272.9939133
272.9831177
272.9224615
272.9214001
272.8555894
272.9065965
272.9069934
272.8610623
272.9030958
272.8856182
272.9800982
272.8320722
272.814178
272.8831256
272.8946341
272.8051962
272.9144658
272.8412943
272.8934211
272.9561414
272.7766546
272.9970944
272.8548325
272.8293134
272.8985931
272.8576389
272.9497392
272.8725623
272.8147236
272.9211301
272.7864755
272.8597042
272.8482734
272.9453555
272.9318105
272.9703198
272.944221
273.0351194
272.9362123
272.8900403
272.9132859
273.0969111
273.0246691
272.9523735
273.0196533
272.9314115
272.9908092
272.9337622
272.926525
272.9575086
272.9938361
273.00325
272.9934674
273.1656976
272.9638537
273.0628155
273.0020494
273.0411653
273.0762385
272.9902538
273.1198303
272.9478564
273.0293925
273.0468201
272.8252429
272.8552967
272.8309948
272.9661046
272.934559
272.9953971
273.0258461
273.0103673
272.9365484
273.0276607
273.005638
272.9849777
273.0837719
272.9931312
272.9966394
272.9481104
272.9547569
273.238813
273.0322364
273.020745
273.0568338
273.0611458
272.8980463
272.9433605
272.9506668
272.8697098
272.9261962
272.9521656
272.9677321
272.9755035
272.9820668
272.7308166
272.8762337
272.9808061
272.9104469
272.9317932
272.8618308
272.8090903
272.8584802
272.8417217
272.9474386
272.9577279
272.9349577
272.9974627
272.9716153
272.9402656
272.884553
272.8931501
272.8468584
272.8991887
272.6418165
272.6854453
272.8330976
272.8442816
272.7830964
272.707436
272.9130613
272.6167757
272.685182
272.7382813
272.5360828
272.6194484
272.8197441
272.5567797
272.4743204
272.4786983
272.5188317
272.3402523
272.2342502
272.2504227
272.1227313
272.5143906
272.0954051
272.0757953
272.1509433
271.7093815
271.5242917
271.2566647
271.0634251
270.6423749
270.3782532
269.8559891
269.3711324
268.6827526
267.3575515
265.0116362
261.3504624
253.3262158
)
;
    }
    top
    {
        type            calculated;
        value           nonuniform List<scalar> 
200
(
272.8856707
272.9193214
272.8952399
272.9492709
272.8701117
272.8995724
272.9332407
272.9722417
272.9265241
272.8964459
272.8561188
272.9033705
272.9162703
272.8623736
272.8552359
272.8213043
272.838183
272.8655028
272.8882172
272.9784362
272.9437057
272.9740957
273.0429449
272.8808501
272.9415117
272.9435553
272.9122693
272.8502342
272.8469565
272.9669622
272.9888769
272.9450378
272.9215754
272.804072
272.8436917
272.7494273
272.8205463
272.8879073
272.9801896
272.9281744
272.9531682
272.9069759
272.9376101
272.9478444
272.906095
272.9957036
272.9970071
272.9105828
272.935651
272.903925
272.9579793
272.8438583
272.8747349
272.8911505
273.0027459
272.9349018
273.0008008
272.9200933
272.956009
273.1680819
272.9226094
272.884973
272.9729539
272.9463642
272.7386065
272.8919688
272.9013572
273.0143872
272.991397
272.9636463
272.911683
272.92844
273.0221782
273.0007093
272.9402633
272.7438669
272.8812119
272.8314414
272.821185
272.8937918
272.819707
272.7851827
272.8306709
272.7745609
272.6790552
272.6457058
272.8519696
272.972951
272.8977235
272.9459152
272.9721328
272.9374936
272.9921251
272.795821
273.0667416
272.9437082
272.9741454
273.0046317
273.1031428
273.1388799
273.0882928
273.0156449
272.9612793
273.0280292
272.8976255
273.0907146
273.0342726
273.0884945
273.0120214
272.9929707
272.8927021
273.088574
272.925055
273.0297187
273.0836121
273.0025597
272.9008258
273.0167441
273.1506469
273.0469348
273.0021148
273.008005
272.8933531
272.9586749
272.9481861
273.0608119
273.0318353
272.9938214
273.0382407
273.0713043
273.0058312
272.9990159
272.9550373
273.1177581
272.997277
272.921054
272.9052882
272.9684508
272.9683857
273.0023221
272.963567
272.9704229
273.0620561
273.0262261
272.8282505
273.0096999
273.0938717
272.8797851
272.9173278
272.905157
272.8942942
272.8763681
272.9764612
272.8613926
272.8910049
273.045962
272.8642597
272.6043424
272.8645832
272.9313062
272.8948352
273.073095
272.8727672
272.7632989
272.699509
272.8240268
272.4731703
272.679689
272.7535039
272.8637078
272.6349518
272.7802971
272.7905817
272.6049996
272.3960416
272.5032811
272.5274165
272.5168964
272.4046595
272.5987511
272.4358719
272.3703614
272.2459613
272.0061441
272.0110277
272.0292434
271.9593772
271.8785808
271.6840562
271.4277982
271.2600367
270.7757407
270.584638
270.0495336
269.165841
268.1549322
266.862336
265.474846
261.8982427
253.2480169
)
;
    }
    inlet
    {
        type            calculated;
        value           nonuniform List<scalar> 5(272.8303953 272.7968889 272.8632619 272.8665264 272.8856707);
    }
    outlet
    {
        type            calculated;
        value           nonuniform List<scalar> 5(253.3262158 253.5681511 253.6952575 253.5113107 253.2480169);
    }
    back
    {
        type            symmetry;
    }
    front
    {
        type            symmetry;
    }
}


// ************************************************************************* //
