/*--------------------------------*- C++ -*----------------------------------*\
| =========                 |                                                 |
| \\      /  F ield         | OpenFOAM: The Open Source CFD Toolbox           |
|  \\    /   O peration     | Version:  v1612+                                |
|   \\  /    A nd           | Web:      www.OpenFOAM.com                      |
|    \\/     M anipulation  |                                                 |
\*---------------------------------------------------------------------------*/
FoamFile
{
    version     2.0;
    format      ascii;
    class       volVectorField;
    location    "4.78";
    object      UMean_Ar1;
}
// * * * * * * * * * * * * * * * * * * * * * * * * * * * * * * * * * * * * * //

dimensions      [0 1 -1 0 0 0 0];

internalField   nonuniform List<vector> 
1000
(
(2.186769167 0.03486147786 0.005962603932)
(2.152328417 -0.01493550341 0.05724964126)
(2.203497179 -0.01017893477 0.03253693028)
(2.174451873 -0.006056588344 -0.04111968068)
(2.212624519 -0.02857966962 -0.04635957413)
(2.227971795 0.01051651171 0.02847571792)
(2.267918418 0.0141987769 -0.02387016626)
(2.277216931 -0.007049773 0.05848028889)
(2.300706382 0.003731414469 0.02714347108)
(2.268460221 -0.02134611657 0.01791310882)
(2.336258542 0.0008142259872 -0.044929632)
(2.33784298 0.01971152428 -0.0138447776)
(2.335825973 0.003805315649 0.03671288708)
(2.275299653 0.06574715196 -0.04074788325)
(2.344130441 -0.01770019573 0.01654420901)
(2.329462399 -0.002552243634 -0.01610677387)
(2.402173336 -0.01203312161 -0.003034759647)
(2.435239609 -0.04780515811 0.02007266192)
(2.470888049 -0.02433191093 -0.02464006998)
(2.500375458 0.01898111255 -0.02763672584)
(2.451476733 -0.009212949696 0.03982807268)
(2.493073261 0.04346041528 0.00457048514)
(2.451652086 0.009917973869 0.00302137765)
(2.424589385 -0.06703718839 0.08629136624)
(2.499572583 0.002404541204 -0.03200090195)
(2.558902552 -0.06753846598 0.01021793072)
(2.558909753 0.02116595527 0.01848872937)
(2.536193329 -0.03876978271 -0.05001625976)
(2.55035477 0.06669820806 0.007748810341)
(2.538817849 -0.004940147382 0.003998291324)
(2.531474419 0.001292421808 0.02373013706)
(2.526142666 -0.04631989034 0.03370778316)
(2.618609843 -0.06607925953 -0.0367445834)
(2.665673271 0.02365392555 0.01360150829)
(2.636329201 0.0247777351 -0.02358229525)
(2.637984437 0.001145595714 0.01598166717)
(2.593796836 -0.04215085438 0.005276392611)
(2.656344502 0.03778489532 0.02667423339)
(2.610298824 -0.009075656875 -0.006707147196)
(2.720598911 0.0004694751529 -0.01293918496)
(2.797915406 -0.04154050735 0.02663721202)
(2.833138685 -0.0351538319 -0.04686891364)
(2.781845985 -0.007201623696 0.03182219719)
(2.848234984 0.02473122233 0.031419152)
(2.840197057 -0.0161148008 -0.01243649227)
(2.814000506 -0.03261481484 -0.0002675192523)
(2.812101976 0.07061577707 -0.02979645318)
(2.713486749 0.05734004071 0.03972497461)
(2.750553134 -0.06097933625 0.02807269811)
(2.880139557 -0.04509103033 -0.001532474604)
(2.869753131 -0.01245666047 0.03517575713)
(2.872408629 0.008781157856 0.002760360367)
(2.931660279 -0.009005464346 0.002398428109)
(2.917164059 -0.02105271485 0.004482123507)
(2.935831568 -0.0316613447 0.02354277167)
(2.991077824 0.008084031064 0.0143960857)
(3.061357058 -0.03961155803 0.02001167362)
(3.080120213 0.01926945427 0.03917542327)
(3.091050657 -0.003045308949 0.02111917662)
(3.11074573 0.001040212734 0.07723265866)
(3.129605182 -0.01211066716 -0.03629878774)
(3.150618276 -0.01122673544 0.001421771484)
(3.108432567 0.03915844584 0.01154949451)
(3.112948629 -0.07211719825 0.04180921794)
(3.187256422 -0.0009752987214 0.005764915854)
(3.192648556 -0.02004307666 0.0353189153)
(3.250205374 -0.004990030589 -0.01906979497)
(3.236990775 0.0876120255 0.02987683836)
(3.281558474 0.01331148254 -0.0003049463973)
(3.238474776 -0.01420316922 0.005377933484)
(3.349467619 -0.07427945735 0.06364085738)
(3.386142677 -0.02181714878 0.03442726132)
(3.402850592 -0.03234867599 -0.03304235801)
(3.42475324 -0.02606806666 0.01232231604)
(3.54879642 -0.04749802615 -0.02023773029)
(3.512809968 0.06105235144 -0.007972952367)
(3.54545259 0.01168688513 0.02791798586)
(3.516649202 0.05370852467 -0.03391908205)
(3.565121105 0.04387026516 -0.01506774069)
(3.611593418 -0.04527578794 0.03606767341)
(3.572542129 0.04302588571 0.008841363896)
(3.598010009 0.06016025893 0.02703236326)
(3.615552287 0.04195100587 0.03598346014)
(3.668414443 -0.05055990764 -0.03383704443)
(3.684751877 -0.02924909268 0.05381564836)
(3.812208478 0.01400429748 0.005512600605)
(3.821852673 0.06594627162 0.03344952235)
(3.833992353 -0.1267238183 -0.070586625)
(3.906388017 0.04242638302 0.01550096783)
(3.984069233 -0.01427368562 0.03417019451)
(3.936579838 -0.01917339848 0.05333833706)
(3.977542989 0.0403219664 0.0297123787)
(3.991065855 -0.01339874552 0.009186406615)
(3.986522483 0.0590738627 -0.02250163479)
(4.019268949 0.0201711175 -0.05851572391)
(4.092434841 0.05788517722 -0.03680257353)
(4.04144258 -0.04657044842 0.01999312672)
(4.13110588 0.03138400035 -0.06354012287)
(4.235782664 -0.01753959767 0.024575346)
(4.286982909 -0.09844911414 -0.005170654336)
(4.403510796 0.0503777396 0.001801655678)
(4.365372024 0.03183779397 -0.00761778279)
(4.381466514 0.01554971478 -0.01888214769)
(4.418420058 -0.08137353106 0.03057944689)
(4.579080429 -0.01007187781 -0.009696812137)
(4.507231627 0.03553946408 0.01881189419)
(4.537892169 0.004684954875 -0.002803641721)
(4.686312225 -0.03191390713 0.02418609258)
(4.760797977 -0.01935117432 0.04360856723)
(4.766493764 -0.006467256971 -0.0120944129)
(4.839443669 -0.05620941393 0.01172729068)
(4.823309179 -0.0203256902 0.01234181691)
(4.899641862 0.01583179284 -0.02054436559)
(4.878070559 -0.02691078624 -0.1542111968)
(4.870806424 0.01609134966 0.1052444601)
(4.982036194 -0.03336704017 0.02220640147)
(5.058815402 0.06445803265 -0.1437518324)
(5.176453314 -0.03935816256 0.04245230502)
(5.276330849 -0.01876375779 -0.03907358513)
(5.246095442 0.05130442831 0.002670644178)
(5.328587903 -0.05634903813 -0.07171823648)
(5.395008261 0.0163969173 0.03247986735)
(5.457845651 0.0317672881 -0.08638827951)
(5.526265686 -0.06374792341 -0.04588855628)
(5.534734302 0.06286211977 -0.02058134679)
(5.555644307 -0.01471761956 0.06042562918)
(5.709980765 0.0134082921 0.01325525147)
(5.760313831 -0.01657703187 -0.04618066704)
(5.863139577 -0.03697511139 -0.007900259106)
(6.014581817 0.02331204013 -0.02100908647)
(6.117483222 -0.003065007321 -0.01132597678)
(6.244015427 0.008521899524 -0.000399772746)
(6.318602426 -0.0717647322 -0.01357929452)
(6.391415285 0.03965351392 0.04788137531)
(6.523833204 0.03585227602 0.002765231391)
(6.462931841 -0.01484046516 0.01743423506)
(6.591066569 -0.0004520818377 -0.0153801328)
(6.704467346 -0.04302778292 0.006026009771)
(6.821397896 0.08656607338 -0.002839689303)
(6.85370004 -0.0007062246223 -0.01241424327)
(7.002720284 0.008720922997 -0.01736668728)
(7.154867664 -0.02876134431 -0.04448531545)
(7.372981664 0.02273316785 -0.0004131470785)
(7.409817381 -0.1439741088 0.03877773811)
(7.658258173 0.03303358153 0.01404646017)
(7.81385416 -0.0354953745 -0.01717915797)
(7.917112961 -0.01277838411 0.008100778505)
(8.102728881 -0.02484270522 0.001474079772)
(8.189873405 0.04437162458 0.05143052676)
(8.292276697 0.0296815797 -0.07394704012)
(8.415260836 0.03468571347 0.03000226996)
(8.63147091 -0.1502799132 0.001877198608)
(8.931632586 -0.04459715968 0.1246930993)
(8.893888008 0.2066803628 0.04025139533)
(9.077406638 -0.003778064909 0.0514402614)
(9.223405046 -0.007596474917 -0.1404354133)
(9.417019693 -0.03079970873 -0.06005737093)
(9.725307051 -0.0492141092 0.002656244603)
(10.00444652 -0.00287018252 -0.05079201341)
(10.08781498 0.0237075868 0.03104289767)
(10.44369776 0.1383502653 0.001318718317)
(10.55177945 -0.05157880106 0.02269981429)
(10.8891397 -0.0470017963 0.02736309523)
(11.32643198 0.001184918585 0.004597322252)
(11.56492475 -0.004160438886 -0.01664102915)
(11.71454801 0.07663589769 0.01074244247)
(12.07332546 -0.10296582 -0.1803058221)
(12.44396622 0.02963723781 0.02815011553)
(12.73950289 -0.09754002288 -0.03684057811)
(13.20811316 0.03128293855 -0.08981684659)
(13.61710775 -0.01996806078 0.09619091038)
(14.18342697 -0.07444154758 0.03368635875)
(14.76263696 -0.06067060812 0.05487628682)
(15.17342215 0.239308538 0.0344101538)
(15.52622248 0.05014749763 0.105814299)
(15.9765849 0.1517662838 -0.0524685162)
(16.76837471 -0.1772234044 0.1372318052)
(17.41739895 0.06566387828 0.1684102955)
(18.19048792 -0.02538247262 0.06476924979)
(18.97779695 0.2183346305 -0.07823937781)
(19.5398794 -0.2256019733 0.07438424306)
(20.58263011 -0.2257762073 -0.0006090522688)
(21.61161488 0.07875299985 0.1400200286)
(22.71668465 0.08769261091 0.01161757447)
(23.7894653 0.03975196492 0.03796848048)
(25.2969935 0.07217974819 -0.005494880154)
(26.83805111 -0.07269535006 -0.183805616)
(28.5880957 -0.1796596601 0.1493665175)
(30.42264446 0.07340471204 0.1016479416)
(32.5839377 0.2966676189 -0.07394360972)
(35.34643414 -0.1462037961 -0.1781418308)
(38.33901825 0.07277368672 0.06458639249)
(42.50620702 -0.06260690667 0.1274260465)
(46.98694922 -0.08043123292 -0.1157481144)
(52.54542635 -0.1951223301 0.1120114288)
(59.75673055 0.08183878024 0.2454551463)
(69.80690508 0.08213904931 -0.1185242255)
(83.32322389 -0.3088469291 0.06370402455)
(104.9892882 -0.3985575118 -0.2389836395)
(148.5960017 0.1819629842 0.3417211592)
(2.189098205 -0.02133733386 -0.01546487868)
(2.22117818 0.04191739941 -0.023733422)
(2.227211101 -0.001479267186 0.02163745425)
(2.225108132 0.03584880712 0.04463607869)
(2.17915277 -0.06717367541 0.001898136728)
(2.225082504 0.006104976517 0.02087959718)
(2.213388305 -0.01555145587 -0.009007433612)
(2.248126092 -0.01532362127 -0.01648584699)
(2.303470606 -0.01739774416 0.0173046234)
(2.308181925 0.05947812383 -0.02924227867)
(2.297264575 -0.06233667148 -0.00908844565)
(2.31948803 0.03103482535 -0.0212423835)
(2.300226266 0.07251440657 0.0531701076)
(2.310442275 0.04620798691 -0.0435260875)
(2.276321924 -0.02702404997 -0.01601576901)
(2.33823076 -0.1138689929 0.05385505113)
(2.385128771 -0.01280915811 0.01352467664)
(2.387679138 -0.04286611 0.0276307947)
(2.392807075 0.04958652184 0.009458484945)
(2.376543405 0.0321775234 -0.02300640096)
(2.413329263 -0.0364789246 0.02229690331)
(2.429440007 0.002778976877 0.01873215313)
(2.530494812 0.05043491618 -0.06567266989)
(2.543577103 -0.04848452303 -0.06342296016)
(2.590404746 0.005874342196 -0.02361427806)
(2.476178473 -5.882144791e-05 0.03964524135)
(2.406281914 0.07062160996 -0.03500737421)
(2.517475737 -0.04691941069 0.01050227551)
(2.556259587 -0.01313835959 0.007299564521)
(2.558869487 0.04254921527 0.02468253218)
(2.617522569 0.02567590099 -0.02691653039)
(2.629867481 -0.02414067797 0.01796113341)
(2.575667009 -0.02833561233 0.01224958777)
(2.619566949 0.01002190076 -0.01136032688)
(2.631431508 0.02535920121 0.01646024505)
(2.640355488 0.01979213281 -0.01052967449)
(2.678941605 0.03755091444 -0.02773044043)
(2.687650154 0.01940181862 -0.006695013722)
(2.764485753 -0.09156285823 -0.03720519401)
(2.678140947 -0.01992381699 -0.03957120969)
(2.743817437 -0.08188532517 0.01223027615)
(2.715236022 0.02624929344 -0.01042041579)
(2.763548372 0.00141480461 -0.01361557567)
(2.75980502 0.03252895839 0.03826199967)
(2.816444691 -0.01127499794 0.01195142627)
(2.803868321 0.01432715781 0.01634505162)
(2.801045718 0.07873314413 0.03705158765)
(2.866214639 0.01763396526 -0.06489946896)
(2.864177504 0.03063394725 0.001061509985)
(2.768022106 -0.05657285163 0.02349506052)
(2.845742165 0.007438327002 -0.06013515502)
(2.916781691 -0.01072564657 -0.01869650516)
(2.910074644 -0.04118412627 -0.02418427545)
(2.941618488 -0.01071660625 -0.01860358415)
(3.07484223 -0.05687579183 -0.02832413413)
(3.077836251 -0.02189934383 -0.01640006758)
(3.003388309 -0.03044695474 -0.0935330767)
(3.068524257 0.100834234 0.03559310827)
(3.112797408 -0.0620584472 0.01381658347)
(3.026749311 0.02250501185 -0.02385322444)
(3.135048078 0.03870792467 0.01509127851)
(3.064325587 0.08280769627 0.02996127181)
(3.112943305 -0.03110601999 -0.01078673309)
(3.149837586 -0.007441513212 0.02528154969)
(3.138264754 0.001806138121 0.01459841415)
(3.185973921 0.04169082073 -0.03332933638)
(3.193922523 0.02273551979 0.05009608121)
(3.182553163 -0.02484345131 -0.07877032378)
(3.177392629 -0.02109735188 -0.007322893324)
(3.296138818 0.01735522961 -0.09525901302)
(3.378729838 -0.06775527876 -0.0008745382945)
(3.370475282 0.02071538672 0.04309961544)
(3.40896886 0.01455543778 0.02942947454)
(3.39051343 -0.01580424414 -0.04156772668)
(3.409745798 0.01930862581 0.001343277721)
(3.479188784 0.02649320204 0.02475896256)
(3.476929777 0.07319902487 0.02563480219)
(3.489077876 0.02681816759 0.01207216714)
(3.529408262 -0.04760065029 0.0106672489)
(3.488753796 -0.001144628964 0.02969673742)
(3.599557999 0.001238949957 0.005833047431)
(3.669934534 0.06857292612 0.01143981315)
(3.618340426 0.0189484577 0.01699301048)
(3.750402944 -0.01645650015 -0.0003206394241)
(3.725846348 0.02196774843 -0.01996131329)
(3.697683123 -0.0005360818806 -0.02550241999)
(3.759329864 -0.03394069597 0.05171361593)
(3.81448332 0.007787136202 0.05751620878)
(3.853571347 -0.03795944219 0.04405179566)
(3.846153907 -0.02841749399 -0.03035430884)
(3.972081817 0.06622864759 -0.008450207657)
(3.967045419 0.05091006819 0.04808725783)
(3.99971187 0.03273669195 0.03954389145)
(4.032656989 0.02427192674 0.004481166773)
(4.036368066 -0.06392619571 -0.01181855069)
(4.089720261 -0.01264700948 -0.04839785507)
(4.173551131 -0.02325973954 0.02031780418)
(4.191961203 -0.009334788026 0.02997018457)
(4.190259911 0.01950824623 0.06802479805)
(4.234137426 -0.1164922156 -0.04531779166)
(4.419530826 0.06005528647 -0.04351756841)
(4.335839404 0.05174285359 0.02982385077)
(4.448365244 -0.01764924801 0.03046955355)
(4.401955073 -0.08318318186 0.02911231128)
(4.418055806 0.04611373789 0.04302775859)
(4.561598285 0.0648864655 -0.07113551594)
(4.692949492 -0.006403908138 -0.009127392514)
(4.650447154 -0.04175449432 0.003878118489)
(4.700104792 0.01085142158 0.08262322303)
(4.823888381 0.07948185925 -0.1160731389)
(4.849788752 -0.01511562181 0.03538110988)
(4.828699894 0.00746363592 -0.02399112714)
(4.953756521 0.07443248616 0.01556069675)
(4.97169188 0.04526041742 0.07873754596)
(5.033242871 0.008253858021 0.01631692658)
(5.101663758 0.02049274471 0.04383766865)
(5.060930889 -0.05199672484 0.04043895263)
(5.206770436 -0.02634684807 -0.002017066125)
(5.308662668 -0.006015073613 0.02453593758)
(5.355201914 0.04668404217 0.01465365804)
(5.37723145 0.03054625134 0.07795454364)
(5.37083473 -0.02820254863 0.03874261128)
(5.518466406 0.04948483978 -0.01935780191)
(5.572300772 -0.03896333778 -0.009207491149)
(5.600889268 0.0738753612 -0.07693294573)
(5.742628399 -0.1207240498 0.01102287288)
(5.861924736 0.01175384818 -0.05606950722)
(5.918037193 0.009423863041 -0.07616639832)
(5.918265682 -0.0334739669 -0.03302500626)
(5.955113655 -0.1139816675 -0.04607539067)
(6.119054433 -0.0944543743 -0.02238830761)
(6.245608916 0.003729857968 -0.01607511257)
(6.187775874 -0.03369856097 -0.05777003051)
(6.417628503 -0.06684355927 -0.02718049889)
(6.531425764 0.160872436 0.03182429352)
(6.573849144 -0.01969444727 0.0546699046)
(6.686974524 -0.02767812516 0.04338395717)
(6.747439809 -0.1217840908 -0.0004321236026)
(6.866802482 0.08537681338 -0.05413569062)
(6.926045412 0.1196609046 0.1851666649)
(7.129077283 -0.03104889647 -0.0268969727)
(7.10870789 -0.02562771243 -0.01398405763)
(7.246187632 -0.07205621468 0.06047338823)
(7.453504332 0.07966123525 0.1023726971)
(7.47551867 -0.01348825639 0.03916640253)
(7.580429094 -0.03401491745 -0.02344125527)
(7.787571004 -0.05173355849 -0.02791625673)
(8.03861945 0.009313425444 0.01095278349)
(8.186572749 0.0469716853 0.07609695253)
(8.303792915 0.0808213861 -0.0174157722)
(8.376295357 0.1504578536 -0.04360762651)
(8.531641296 -0.2302532343 -0.06322970817)
(8.551038092 -0.0439445411 -0.0361295223)
(8.878833925 0.1011594479 0.008265661843)
(9.204208492 0.07664636978 0.04044057668)
(9.32903772 -0.01915236833 -0.03511150702)
(9.574389254 -0.07719499948 -0.005746850314)
(9.675296233 -0.08262396961 0.05706890704)
(9.922902285 0.04050149408 -0.03970672463)
(10.21863741 0.01313420007 0.1457928999)
(10.39637626 -0.01980381792 -0.1377615236)
(10.73054265 -0.03505772895 0.1058699076)
(10.99476913 -0.03678084643 0.02682939522)
(11.23199968 -0.01530348978 0.01837408046)
(11.32513075 0.190124156 -0.1853470248)
(11.85886302 0.06053100581 -0.05430906317)
(12.194715 -0.1607065852 0.01405573441)
(12.50372954 -0.01885777152 -0.0252309737)
(13.01759796 0.05386148259 0.06331315153)
(13.21312369 -0.1154947257 0.02019486124)
(13.65942997 -0.1745680043 -0.07487801586)
(14.08935056 -0.0343525971 0.01134435912)
(14.50099718 -0.02599723249 0.09833675004)
(14.97655103 0.1084955263 -0.07281162365)
(15.68336752 -0.006369266221 -0.03527777591)
(16.18700849 0.02801762799 -0.005788592387)
(16.56306357 -0.01271790757 -0.1243051784)
(17.19378894 -0.1299820065 0.08342561735)
(17.91822446 -0.02838068561 -0.02000147794)
(18.86124817 0.2263270508 0.07133503911)
(19.61587147 0.08198364002 0.02627915027)
(20.38823552 0.138620561 0.01234433628)
(21.59276434 -0.2168010452 -0.1244860367)
(22.691944 0.07835920718 -0.07374000516)
(24.08841365 -0.1542198198 -0.02686825808)
(25.21089815 0.1970374014 -0.04280888631)
(26.71587198 0.0861595631 -0.0108252292)
(28.41147219 -0.001873669356 0.2252379743)
(30.70810062 0.025004135 -0.1200523283)
(33.0951047 0.08074069281 -0.08296306136)
(35.30382359 -0.07815378632 0.2338777333)
(38.57125296 -0.08886552687 0.04147461585)
(42.01140565 -0.3029949818 -0.316087475)
(46.49216041 -0.03823554845 0.2059930984)
(52.10831323 0.3425990795 0.01661223316)
(59.49222102 -0.3876938346 0.1488802328)
(69.42341678 0.3571696786 -0.2512731032)
(83.38665919 -0.4647908804 -0.09767032807)
(104.9030073 0.124675246 0.2134890764)
(149.0156097 0.1914710432 0.02611636811)
(2.131869606 -0.03405413611 -0.03270873781)
(2.263823598 0.02606536019 0.006113161693)
(2.197247209 -0.0085608399 -0.04002580467)
(2.237930363 0.04509028104 0.04179484921)
(2.244348571 -0.02157506675 -0.008580390362)
(2.272975049 0.01633773554 -0.06744632306)
(2.309473141 -0.01564719131 0.07105523768)
(2.283082919 -0.02665578681 -0.06442993424)
(2.23632549 -0.0194358781 -0.00513313317)
(2.250482919 0.03302197991 0.0002682269695)
(2.342717768 -0.04685655825 0.05306539866)
(2.311173637 -0.02098495697 -0.008000930974)
(2.337752243 0.08235552428 -0.03286219342)
(2.341700812 0.01257479947 0.009017244082)
(2.376717816 0.0129105147 0.04586492876)
(2.393759668 -0.02654111576 -0.03963410478)
(2.36263265 -0.05523011486 -0.006701302702)
(2.383579237 -0.01154375343 0.02203595513)
(2.413636208 0.03229098695 -0.01052972547)
(2.447284785 -0.009959799005 -0.02951464797)
(2.386626023 0.002044458184 0.04563873465)
(2.425538181 -0.02703499305 -0.003599200374)
(2.449338008 -0.008334916806 0.08205550298)
(2.522541924 -0.08674266994 -0.001640924745)
(2.45015893 0.05748183032 -0.00260515018)
(2.463390308 0.1002807176 0.06799737335)
(2.466604485 0.0239588962 -0.001673004054)
(2.456419655 0.0003906595488 0.03429876547)
(2.426895471 0.01382981127 0.02483926594)
(2.494567062 -0.05510776778 -0.08603852176)
(2.507382349 0.0156833073 0.02230614419)
(2.556737973 -0.04451020879 -0.02448212586)
(2.56571061 -0.02602370791 0.003895931439)
(2.568629894 0.01305875273 -0.02975413312)
(2.628622265 0.006223882201 0.060738724)
(2.640587871 0.02250047495 0.003204097515)
(2.670209988 -0.01354603134 0.05517007645)
(2.682635472 -0.01415911349 -0.01280505323)
(2.750360623 -0.02794859251 -0.03792947369)
(2.702730213 -0.04004542454 -0.01160118151)
(2.751632263 0.009246067213 -0.009336419375)
(2.653995455 0.03881706145 0.06737507123)
(2.684952951 -0.01692781034 -0.07704838166)
(2.7384612 0.004917122368 0.06120487003)
(2.740302065 0.01747673369 0.03734113904)
(2.756129595 0.07750789284 -0.0922598499)
(2.845175219 0.09111142915 0.04943579327)
(2.920499828 0.04381520626 -0.04232981111)
(2.869430245 -0.05462434839 -0.02397952333)
(2.906087659 -0.00573081508 0.02370655358)
(2.948793284 -0.02674799987 -0.01230854719)
(2.944692746 -0.001887993604 0.04902926509)
(2.965316119 -0.04168486914 -0.0008176870699)
(3.025953019 -0.02492903406 0.003939941624)
(2.974070837 0.01748464179 -0.1197433356)
(2.989057252 -0.03065214543 -0.01518938445)
(3.066511673 -0.009738870242 0.06618796715)
(3.010944202 0.04675266367 0.03080527296)
(3.053720455 0.0093483544 0.00538662925)
(3.072305654 0.03901892102 0.01133139981)
(3.097061545 -0.05489025975 -0.05007681483)
(3.173793296 0.04556689571 -0.06810763491)
(3.147034181 0.02627196732 0.0433865662)
(3.163489745 0.02725901095 -0.08160222206)
(3.180950665 -0.0006225671698 -0.01901789045)
(3.187077933 0.01307479925 0.06101148481)
(3.139388077 0.07323923095 0.0158848492)
(3.127379304 -0.0150627316 0.0008702983956)
(3.266586805 -0.001001669641 -0.007821853409)
(3.343201542 -0.1462472886 -0.05248807972)
(3.310281277 -0.03511813277 -0.02867590086)
(3.366136362 -0.02317266786 -0.03978397363)
(3.377691838 -0.00739021485 -0.04306552876)
(3.445986431 0.0006052105109 -0.01683036199)
(3.389704805 0.008357806817 -0.0531633802)
(3.373188923 -0.01440813815 -0.02281603527)
(3.453636682 0.02281912017 -0.04322640644)
(3.527574067 0.001231217324 0.09937866371)
(3.55170821 0.0165090737 0.01316468967)
(3.585917373 0.02801842693 -0.02373151452)
(3.58023995 0.005465504625 -0.00324379007)
(3.590010208 -0.05356076684 -0.06348515351)
(3.767071339 0.02890680929 -0.005850523134)
(3.695676316 -0.0198260641 -0.04679811807)
(3.58774519 0.006530187487 0.05177928647)
(3.712011051 -0.02628308171 0.06782509683)
(3.760971627 -0.06423579197 0.003152329466)
(3.76202113 0.004688625741 -0.02535748391)
(3.793154213 -0.01711062588 0.003409372704)
(3.841651309 -0.0161556515 -0.00762939636)
(3.874141341 0.01866780004 0.03564158305)
(4.068487047 -0.01747239655 -0.05237302301)
(4.019792243 0.03342723452 0.06430461699)
(4.060465483 0.02535824894 -0.05168166233)
(4.09875571 0.01808744683 0.03130055462)
(4.108503483 0.02082837694 0.04524915752)
(4.159934034 -0.0057013446 0.1116719097)
(4.157981075 0.02656992984 -0.044779635)
(4.197618328 -0.03948732027 -0.05794476519)
(4.238868585 -0.0858664467 0.04418758192)
(4.18138195 -0.01209706602 0.09002277324)
(4.333994504 0.05495709605 -0.005909396591)
(4.393881633 -0.02416024695 0.005334345834)
(4.478469828 0.06012657183 -0.017035767)
(4.453973095 0.0078672695 -0.02887564418)
(4.486591925 -0.06827215763 0.01899550694)
(4.540877662 0.01531079969 -0.04180989106)
(4.595201596 -0.02345019037 0.05475957844)
(4.682342508 0.0129264463 -0.09255925816)
(4.611224185 0.02367960768 0.00731371895)
(4.747764014 0.02075642902 -0.03786500265)
(4.866298887 0.02629019953 -0.04320010137)
(4.881818677 0.05584925674 -0.03141748534)
(4.993639228 0.04979748151 -0.01435368675)
(4.925860083 0.07103119619 -0.0007808996769)
(5.016765838 -0.04950566437 -0.04320334398)
(5.198387739 -0.01408456359 0.002335551344)
(5.142602962 -0.07185275051 -0.007649524852)
(5.205707824 -0.007838025726 0.06542116511)
(5.330840092 0.05234490044 -0.05152900383)
(5.274913065 0.05725032442 -0.1324550666)
(5.342328247 -0.07422191033 -0.009007541197)
(5.464883835 0.025886301 0.001680979512)
(5.527689771 0.03023483452 0.08016019921)
(5.601315115 0.01151571554 -0.01243151483)
(5.763652752 -0.05473553088 0.02127016111)
(5.898956597 -0.03468802338 -0.06077609298)
(5.919871554 0.06694411892 0.01369736654)
(6.022928928 0.05882252116 -0.004227350836)
(6.054598248 -0.01270139997 -0.09690119429)
(6.072659948 -0.0341186473 0.01277531246)
(6.2226747 0.03288697267 0.1385611945)
(6.265494158 0.02544199089 0.0455295924)
(6.332428534 -0.02146591447 0.05816692135)
(6.443453968 -0.003459429007 0.03281944407)
(6.609774124 0.0183424164 -0.04963015035)
(6.648848351 0.07507818885 0.0937390002)
(6.686518988 0.03885304735 0.07227941319)
(6.784984848 0.1177553751 -0.114322279)
(6.959422586 -0.01051093624 0.02291018522)
(7.110243365 0.0139116177 0.02530643215)
(7.196748585 -0.07889511029 0.01234760375)
(7.205921509 0.02551635238 -0.05815756797)
(7.300499878 -0.03459236033 -0.17635016)
(7.601953324 0.002417239956 -0.06687610491)
(7.721071264 -0.1227916658 -0.0260862575)
(7.92054651 -0.1030787324 -0.05230261081)
(7.944315854 -0.04352140179 0.04139279156)
(8.128397208 0.0350731008 -0.03908082352)
(8.312888507 0.08681631728 0.1006498959)
(8.555054117 0.04415368342 0.05814515722)
(8.708277237 -0.1526115658 -0.04640385127)
(8.81913135 0.03843097894 0.02518286222)
(8.950614652 0.02492213931 -0.01920278633)
(9.148057384 -0.081868489 0.04175357214)
(9.355375571 0.132518798 0.05667311431)
(9.604070169 -0.09023721809 -0.05109598707)
(9.882693535 0.02967919563 0.1553220829)
(9.95834586 -0.002776386275 0.03258179829)
(10.09091173 0.07245606526 0.04834966814)
(10.5206952 0.003273484628 -0.1068560575)
(10.64460209 -0.04099290817 0.02265278822)
(10.82357108 0.05545329902 -0.1547075621)
(11.03469807 0.03632678279 0.04302996179)
(11.34049686 -0.1537423167 -0.03994419047)
(11.74667412 0.0249122765 -0.05228090457)
(12.03256133 -0.08862352118 -0.01632835134)
(12.41969256 -0.0347295876 0.1132053255)
(12.76087809 0.04873893493 -0.05225291195)
(13.18603615 -0.02231402271 -0.07793770525)
(13.51047706 -0.0572372026 -0.02374436275)
(13.94951634 -0.04739811508 -0.0131120209)
(14.30538421 -0.005447932999 0.08342946929)
(14.89926567 0.05373299106 -0.03290507516)
(15.37275548 0.07393695286 0.03818724837)
(16.02273373 0.1443651476 -0.006708923712)
(16.83847928 0.02520580465 0.01123911164)
(17.34304114 0.0743833123 0.03594334373)
(18.02516728 0.05236716201 -0.03762307257)
(18.70586425 -0.01382189526 -0.0693676569)
(19.63375117 0.08485282214 0.009582765135)
(20.78084811 0.04107722891 0.1771282948)
(21.70241834 -0.1563537738 -0.0316841831)
(22.63256069 0.04658573218 -0.07249820542)
(23.91757326 0.004420460543 0.0440507217)
(25.1928028 0.08876623619 -0.2045221262)
(26.83537755 -0.03616547957 0.2611474029)
(28.52877191 -0.3090356862 0.0004691858852)
(30.64775652 -0.1531609912 0.05418853232)
(32.94441086 0.1903740128 0.05468532967)
(35.54145342 0.1449108219 0.1902518795)
(38.58719144 -0.278351642 -0.2423942946)
(42.34057939 -0.1251581391 0.2059634193)
(46.647533 0.324993006 0.3822160098)
(52.3024149 0.0105551347 -0.06990858553)
(59.82391111 -0.652741582 -0.01181118891)
(69.6809327 0.03024114042 -0.2941774656)
(83.46452532 0.230432993 0.2763773799)
(105.049104 0.5352918932 -0.003488162796)
(148.5614736 0.1372012228 -0.04523944247)
(2.168229383 -0.02148517508 -0.02539322762)
(2.17635768 0.05020200875 -0.007033055391)
(2.16415516 0.07447992891 -0.02487401657)
(2.158796207 -0.03522983211 -0.01257782648)
(2.256180351 -0.02773489483 -0.05311827227)
(2.250252703 0.03515889083 0.01912260429)
(2.223182214 -0.06699319323 -0.04630338543)
(2.279998231 0.01737071065 -0.0407459889)
(2.308119095 0.01111527113 0.02126673763)
(2.335886143 -0.02688052116 0.03118031748)
(2.285059247 0.004366411668 -0.06272945561)
(2.237255049 -0.01590988238 -0.01841316743)
(2.338029715 0.07164547929 0.02200024114)
(2.369216729 0.0326286356 0.04641743101)
(2.339008918 -0.05084004827 -0.02332309812)
(2.42725215 0.01229982516 -0.006832555437)
(2.406050471 -0.07961723695 0.01216411234)
(2.408105127 -0.002752686937 0.02190459368)
(2.413264967 0.07583103506 0.01033264946)
(2.379978932 -0.02160009011 0.0183320806)
(2.417268887 0.008137607379 -0.01151368069)
(2.465908367 -0.01520119842 -0.001711102466)
(2.441645429 -0.03521386791 -0.04781565857)
(2.388575553 0.03943643203 -0.04465474527)
(2.393554585 0.02180316839 0.01162344117)
(2.499363807 0.04593550402 0.02083228381)
(2.54464149 0.05640014417 0.03478387455)
(2.517093408 0.01192898058 -0.02030526029)
(2.570287333 -0.01574255277 0.01861037149)
(2.547409526 -0.02451193229 -0.03499359211)
(2.582267669 -0.05624950147 -0.03247100082)
(2.593985691 -0.03814851027 0.007667424308)
(2.645929316 0.03841451382 0.003453264253)
(2.622186228 -0.0126089603 0.006330063958)
(2.638765445 -0.03358962724 -0.03277884183)
(2.566077364 0.06154556533 -0.07073864749)
(2.657889398 -0.009242988589 -0.002793945046)
(2.68551783 -0.04393552859 -0.03361649451)
(2.698133975 -0.0008778014348 0.01883052034)
(2.637548119 -0.04491944946 0.003889161742)
(2.682215085 0.06078577804 0.06014137733)
(2.650704976 0.08767384777 0.01356021437)
(2.681137231 -0.03505240241 -0.02189286247)
(2.710203219 -0.0131517207 -0.01200646652)
(2.718013046 -0.005102202753 -0.04830548938)
(2.757592727 0.01614400381 0.06860773027)
(2.84659274 -0.0274971766 -0.07876970587)
(2.915330665 -0.0265594228 0.02219920074)
(2.922095636 0.03687778339 -0.03601955903)
(2.930411282 -0.04922585291 0.02054175569)
(2.988644936 0.001091420585 0.02234140943)
(2.854292356 0.02267962418 -0.01081351744)
(2.905928237 -0.009145344173 -0.01070699461)
(2.926819612 -0.03872162509 0.09786600131)
(2.984175616 -0.001593096862 0.001805044272)
(3.003576339 -0.01266322315 0.01101757799)
(2.965109514 0.006663400999 0.07636256941)
(3.023770012 0.02328842807 0.0993206757)
(3.037018968 -0.001172761573 -0.06656757212)
(3.078442491 0.051766224 0.04179819725)
(3.130483403 -0.0578591054 -0.01527476335)
(3.180724551 0.03837567458 0.03423122737)
(3.14152082 0.04575953401 -0.03996837768)
(3.144888494 0.03081791514 -0.002150097972)
(3.156021779 -0.01123186968 -0.01361906609)
(3.2323531 0.03089700915 -0.03210656005)
(3.326668501 0.0074549771 0.04835557592)
(3.312465228 0.006487282607 0.03789570105)
(3.316053401 -0.04444528151 -0.01129745832)
(3.312332471 -0.04033043793 0.009794159211)
(3.294610526 0.005396874844 0.01830686645)
(3.300727242 0.04203774348 -0.02919205514)
(3.357416876 0.01631152671 -0.009530672315)
(3.321545698 -0.01956083633 -0.009905982679)
(3.416944304 0.0686451546 0.02908242559)
(3.496647512 -0.07063577232 -0.04312727167)
(3.495818501 0.007545635068 0.05298182648)
(3.517690436 -0.04779429738 -0.05617895636)
(3.5254272 0.02701968531 -0.0159442387)
(3.600252447 0.006857252847 0.002235562541)