/*--------------------------------*- C++ -*----------------------------------*\
| =========                 |                                                 |
| \\      /  F ield         | OpenFOAM: The Open Source CFD Toolbox           |
|  \\    /   O peration     | Version:  v1612+                                |
|   \\  /    A nd           | Web:      www.OpenFOAM.com                      |
|    \\/     M anipulation  |                                                 |
\*---------------------------------------------------------------------------*/
FoamFile
{
    version     2.0;
    format      ascii;
    class       volVectorField;
    location    "4.78";
    object      UMean_Ar2;
}
// * * * * * * * * * * * * * * * * * * * * * * * * * * * * * * * * * * * * * //

dimensions      [0 1 -1 0 0 0 0];

internalField   nonuniform List<vector> 
1000
(
(-149.4202298 0.2615174707 0.1944872785)
(-105.949307 -0.1097473272 -0.1815700537)
(-83.485695 -0.4809019649 0.001834146105)
(-69.38874645 0.03148184562 0.09253350835)
(-59.6180519 0.1319936224 -0.1673323304)
(-52.52486408 0.001299696832 0.1212186366)
(-46.98557389 0.1097884616 -0.151635067)
(-42.3276288 0.02910820007 0.06176038014)
(-38.58615197 0.3074007071 0.06803786398)
(-35.62546907 -0.1715679797 -0.2087768758)
(-33.11244719 0.01651173104 -0.03437820956)
(-30.58958403 -0.0623617091 -0.07560689872)
(-28.55378741 0.09157730744 -0.06348123859)
(-26.85786441 0.08429504831 -0.09146283054)
(-25.37677851 -0.08488630779 0.3393726529)
(-23.86802608 0.2144754959 -0.03317075767)
(-22.58257505 -0.04143481847 -0.07387488243)
(-21.53842566 -0.02836598685 0.1274351047)
(-20.61729596 0.1472239574 -0.1417410876)
(-19.80097824 0.1231251656 -0.09493040549)
(-18.91568168 -0.1059161294 -0.0460823497)
(-17.98523966 0.07665715197 0.05351212569)
(-17.52089748 0.1331057999 -0.06404381436)
(-16.64638611 0.04655887444 0.09974847213)
(-16.18657267 -0.01500906695 0.05511586298)
(-15.51926904 -0.009340677081 -0.1257670879)
(-14.92436147 -0.01936892491 0.08824966432)
(-14.35998231 -0.01585171283 -0.07441439432)
(-14.02025849 0.006615254558 0.001737614379)
(-13.71428309 0.007231259443 0.05094796504)
(-13.09738673 0.01900280228 0.08135074123)
(-12.79969735 0.01124386015 -0.09834777223)
(-12.38824097 -0.07558578656 0.05666669162)
(-12.02650833 0.09122219608 -0.07664108055)
(-11.6660115 0.02768709881 0.05185460767)
(-11.433507 0.01460900374 0.01280423048)
(-11.18148526 -0.07759553457 0.05207155774)
(-10.87598543 0.03587641355 -0.02551826814)
(-10.5462923 -0.06229288494 0.01872430368)
(-10.29838018 -0.04300533401 -0.04997835668)
(-10.13083623 0.07269765202 -0.104409942)
(-9.849515218 -0.02283363932 0.08943538715)
(-9.695318827 0.009908866117 -0.01712559008)
(-9.539443721 0.05872337533 0.06384115783)
(-9.373123623 0.03286849113 0.05290682038)
(-9.089420356 0.02259948105 -0.02251574259)
(-8.950915726 -0.04692437901 0.03281592698)
(-8.72767066 0.1334468175 0.01251611542)
(-8.634120247 -0.09797207652 0.1365309827)
(-8.472392537 0.0163802577 -0.04967031303)
(-8.370707788 -0.06481821526 -0.001178473973)
(-8.082095142 -0.03178778343 -0.06007153103)
(-7.901115122 0.04878326472 -0.1129647159)
(-7.88789196 0.1300857098 -0.001993232736)
(-7.783465757 -0.04377172082 0.04050482029)
(-7.579116079 -0.03139651518 0.02694638168)
(-7.318611636 -0.08412836298 -0.07380396084)
(-7.315257574 0.04606979742 -0.0928339919)
(-7.107040849 0.0591150577 0.01100098539)
(-7.006049345 0.04465143092 0.04043347271)
(-6.983297812 -0.01639990474 -0.1561326705)
(-6.824392258 -0.09334403854 0.001061114105)
(-6.642636949 -0.1819242454 -0.02710442206)
(-6.487361557 0.1174061214 -0.01129114776)
(-6.42391303 -0.006895992615 0.004837364684)
(-6.319227302 0.02774908861 -0.03341828378)
(-6.303411116 -0.007474759685 -0.001721385414)
(-6.193648419 -0.004697483105 -0.001361137481)
(-6.060655032 -0.06616402807 -0.08670524187)
(-5.981547261 0.003717714027 -0.0008685977176)
(-5.894765337 0.02304571575 -0.007312272013)
(-5.816910495 -0.00050190872 0.02739849141)
(-5.814087127 0.0370526772 0.0006252616767)
(-5.739452897 0.09442001129 -0.02567972263)
(-5.765538827 -0.09493546719 0.06089069336)
(-5.615231181 -0.06740019206 -0.03690568266)
(-5.506662371 0.009009370083 -0.05428267099)
(-5.422874123 -0.06456163185 -0.01319116847)
(-5.382419295 0.006116880024 -0.01883483458)
(-5.355362952 0.01879490474 -0.03788753554)
(-5.285811569 0.03133969526 -0.003796107639)
(-5.245442697 -0.0361514112 -0.1027367857)
(-5.15979427 0.06158485971 -0.03252419503)
(-5.148223217 -0.07688929054 -0.06945683157)
(-5.059959645 0.03746651674 -0.002049228439)
(-5.028497348 -0.0689973518 0.01297250993)
(-4.948246552 -0.06643563062 0.06731574778)
(-4.790449455 -0.004476897914 -0.0573992735)
(-4.732674958 -0.01035579792 0.03818866915)
(-4.697185201 -0.04313565757 -0.01925078239)
(-4.697545943 0.07086894454 0.0472237708)
(-4.629968027 -0.00606137116 -0.06227784951)
(-4.523217866 -0.0824929435 0.002186875201)
(-4.552991549 0.07787840968 -0.07757943664)
(-4.475535395 -0.04097746831 0.04166076274)
(-4.497325813 0.09888665065 -0.01299765005)
(-4.506217907 -0.03247422588 0.01625445642)
(-4.450585115 0.006832319269 0.03064259629)
(-4.460575065 0.03144066072 -0.02950460732)
(-4.368806806 -0.06004649047 -0.0611686372)
(-4.31480612 -0.04200426075 0.007958551364)
(-4.164070512 0.09121869519 -0.0281154095)
(-4.223192096 0.01797815036 0.00559787585)
(-4.16118522 0.02637866239 0.00556625707)
(-4.135542121 0.05319588514 0.001298527611)
(-4.114515572 -0.05378458423 0.05371001388)
(-4.122253262 0.04093823511 0.04176553714)
(-4.066952347 -0.06168141349 -0.01782167889)
(-4.00176691 -0.01249870818 -0.01774450222)
(-3.930425999 0.03187184079 0.006749723752)
(-3.88238146 0.06090323192 -0.001423660112)
(-3.876876382 -0.01661513069 -0.03367316699)
(-3.786949089 -0.05172791303 0.05896441999)
(-3.873523609 0.04605251279 -0.01556992683)
(-3.778798832 -0.05727460527 -0.04836464518)
(-3.678133911 0.01851678959 0.1365715748)
(-3.722893732 0.0387211857 -0.05381073433)
(-3.649693175 -0.05910416092 0.02435382017)
(-3.533405743 0.02275589553 0.01151942102)
(-3.581227097 0.061258714 0.0496468516)
(-3.465484464 -0.02234924997 0.0212189043)
(-3.475349943 0.07462686122 -0.006482582677)
(-3.481937186 0.0546401574 0.00448737111)
(-3.461694784 -0.01413268426 0.01084048014)
(-3.428680036 0.08880445392 -0.03023992342)
(-3.509233647 0.02365332676 0.02981317038)
(-3.521743839 0.01719758771 -0.0241165353)
(-3.526253146 -0.01641016294 -0.03045604057)
(-3.389519363 -0.02414666098 0.005010006021)
(-3.338214269 -0.0502349155 0.03695070001)
(-3.295691296 0.02183341042 -0.02414110615)
(-3.299420505 -0.07348223195 -0.02131485316)
(-3.280844788 0.05579112905 0.01989506848)
(-3.241602934 -0.007220458973 0.05117654934)
(-3.198792161 -0.01231059758 0.03809248301)
(-3.145821311 0.04343667619 -0.06401502619)
(-3.216058561 0.007000026462 -0.02498830333)
(-3.183554513 0.02731872336 0.02302686391)
(-3.104173264 -0.1022979213 -0.02143800828)
(-3.001758405 -0.04347534864 -0.01604184202)
(-3.023258575 0.06693276981 -0.04188336786)
(-3.043224399 0.01270874052 0.05706437815)
(-2.998062515 -0.01672618997 -0.007743687115)
(-3.00246314 0.03452749669 -0.03547508064)
(-3.013635928 0.006913857753 0.0009414431734)
(-2.995640831 -0.007699961053 0.06537033144)
(-2.937525482 -0.02600116816 -0.05324215472)
(-2.843719975 -0.0191272937 0.000462397996)
(-2.767619522 -0.03331253983 0.07231605438)
(-2.806248337 0.05149084763 0.001635439718)
(-2.839427949 0.04353219964 0.002123433884)
(-2.860605618 0.01620043095 0.04872865541)
(-2.827376609 0.07192155018 0.007843233626)
(-2.823340651 0.01450225905 -0.001624162012)
(-2.820392097 0.02631928484 -0.03540730573)
(-2.91189899 0.05873415771 0.02281123335)
(-2.853687138 -0.05276239249 -0.03044926222)
(-2.736204014 -0.001136658677 -0.01046436621)
(-2.689326208 0.0008670894805 -0.02321972866)
(-2.774926875 0.02541931591 -0.02272256673)
(-2.691778873 0.007925899588 0.006073712119)
(-2.674603272 -0.006422009258 -0.02059733836)
(-2.643471136 0.001011191735 0.009383902015)
(-2.676650426 -0.01146440592 0.006840001116)
(-2.653581715 0.001576319711 -0.008616260144)
(-2.565400692 -0.04603641809 -0.03003035865)
(-2.568711946 0.03422846062 0.07949926737)
(-2.553049793 0.01667427728 -0.02272952523)
(-2.566623826 0.04336169712 -0.0356749827)
(-2.519588789 -0.04884370811 0.009578851576)
(-2.461339702 0.03246490766 0.05474324295)
(-2.460740739 -0.0004148606874 -0.0394460082)
(-2.511685653 0.01098630429 0.0200669742)
(-2.417895874 -0.009064917618 0.01119000492)
(-2.455016551 0.005559496596 -0.04895430365)
(-2.502074888 -0.01034292968 0.0433247771)
(-2.487005424 0.0701681431 -0.05809592643)
(-2.488466632 -0.06394885012 0.02298923222)
(-2.427191234 0.03805529324 -0.002367259648)
(-2.455016431 0.02601029329 -0.03161170978)
(-2.454993141 0.003102581439 -0.01708046561)
(-2.403592804 -0.003133548321 5.584205653e-05)
(-2.432272292 -0.03077801611 0.002036851635)
(-2.342010202 -0.01456176731 0.07643941773)
(-2.306516033 0.03685602446 0.002726010453)
(-2.340611453 0.02201643748 0.01647602777)
(-2.364774167 -0.03724104963 0.001117784616)
(-2.281622794 -0.04643818347 -0.02660552)
(-2.260754273 -0.04315023179 -0.04688278092)
(-2.252515321 0.05774223655 0.01034148501)
(-2.273147038 0.005768484318 -0.003305168734)
(-2.221439536 -0.004986247651 0.005272323237)
(-2.224834547 0.02838885682 -0.01029464759)
(-2.221187075 -0.04424059957 0.006914971505)
(-2.13669283 -0.05375133298 0.0302250525)
(-2.148901584 -0.0002968735837 -0.002847980528)
(-2.212821325 0.03122815775 0.01428487435)
(-2.163458855 -0.02722355651 -0.01842336864)
(-2.13561192 -0.01910788985 0.01297910589)
(-2.139350214 0.07557206915 0.009344024487)
(-148.8692547 0.8301040261 -0.1201391628)
(-105.6435394 -0.4400462504 -0.08641163801)
(-84.00200825 -0.4003036226 0.08263526106)
(-69.46616564 0.1367389295 0.005905845926)
(-59.93047456 -0.2184721199 0.02734138122)
(-52.76101157 0.3195909144 0.0697497096)
(-46.79594484 -0.2012538983 0.05317493615)
(-42.11345863 -0.2268206505 0.05710170959)
(-38.09266125 0.3717818494 0.03600270055)
(-35.36314217 -0.003613216525 0.0004539149106)
(-32.64922381 0.1980152271 0.02002503255)
(-30.61304095 -0.179040854 0.158934228)
(-28.56460959 -0.03136891424 0.008386294466)
(-26.76830571 -0.1319285332 0.02936252462)
(-25.11888626 0.05009718701 0.05519796432)
(-23.9940691 0.1454269253 -0.2666797663)
(-22.82211822 -0.148740302 0.07761630669)
(-21.61315167 -0.01049666727 -0.0245561407)
(-20.55708516 0.2004604911 -0.01844070163)
(-19.63312214 -0.006079361554 0.153882317)
(-19.00982059 -0.1212761803 -0.1131529449)
(-18.27186933 0.06643832642 -0.02703602054)
(-17.34959518 -0.0492207976 0.1327659098)
(-16.79213036 -0.07529496248 0.01119350189)
(-16.20171134 0.08427488529 -0.0898633504)
(-15.63858685 0.006717440386 0.01294843647)
(-15.1329759 -0.1238475122 -0.1341170801)
(-14.67533395 0.06334873975 0.0509021187)
(-14.18966689 -0.0009499355457 0.1270958422)
(-13.46809062 -0.0773093992 -0.05356267465)
(-13.20446775 0.01375594094 0.08003343117)
(-12.78338219 0.1138354257 -0.04175378011)
(-12.53660065 -0.163733487 0.003337810123)
(-12.20996633 0.1920965319 -0.06429481747)
(-11.84486577 0.02893141037 -0.003076272124)
(-11.478976 -0.1445464947 -0.1004660914)
(-11.24436258 0.006641211969 -0.01369958575)
(-10.81857678 -0.1655145599 0.1261343684)
(-10.6190003 0.04562199203 -0.1078229007)
(-10.38987773 0.003273349754 0.117722352)
(-10.14516073 0.03062562202 -0.03845664243)
(-9.88663739 0.1102494206 0.04247673919)
(-9.788816251 0.07165717426 -0.02649099749)
(-9.519135348 0.05805251289 -0.07270928544)
(-9.184341478 -0.02311021824 0.0834359254)
(-8.997158253 -0.1431476871 0.03306587037)
(-8.987201308 0.03984794642 0.006720913262)
(-8.828676566 -0.07271274458 -0.08574810707)
(-8.531542627 0.03350741037 -0.003827082606)
(-8.364961804 0.0378404058 0.003479190885)
(-8.216190776 -0.07954405747 0.02659862963)
(-8.152282093 -0.04117144903 0.01903515308)
(-7.966436104 0.1002534838 0.004383079137)
(-7.719470284 0.04853564907 -0.03333142298)
(-7.544686694 -0.100087001 -0.0005731254092)
(-7.473333133 -0.03457944092 0.01561970218)
(-7.384312878 0.04880279194 -0.05149249039)
(-7.292330139 -0.0153760415 0.06038039817)
(-7.164029552 -0.01128843582 0.02456828304)
(-7.09101506 -0.1074134839 0.09995230662)
(-6.759629031 -0.01879199058 -0.08160376875)
(-6.7507208 0.03058579932 0.004715315653)
(-6.707628292 -0.1019222483 -0.04393839941)
(-6.698685533 0.09343621266 0.01606675652)
(-6.608078037 -0.1135263446 -0.1162403738)
(-6.414392943 -0.04809535336 0.005312225354)
(-6.282681337 -0.02546247785 0.04123452644)
(-6.181940799 0.07991107088 0.05340441)
(-6.156860217 -0.06004131135 0.007213864052)
(-6.048074985 -0.008483271174 -0.0007942992177)
(-6.00416773 0.02728708126 0.08146728985)
(-5.954858246 0.1208832974 0.009726741097)
(-5.909597481 0.02962290756 0.02215088118)
(-5.860626457 0.01821888001 -0.006186223792)
(-5.658789817 -0.05007506063 0.004189206091)
(-5.711441925 -0.04808452661 -0.05643920102)
(-5.59681858 -0.012382917 -0.03813468495)
(-5.509447183 0.07433260543 -0.07339043622)
(-5.524435305 0.0102209546 0.01384493179)
(-5.388952474 0.05580942135 -0.007578098029)
(-5.359157463 -0.03369370137 0.0825483582)
(-5.236897747 0.002113786551 -0.01784311861)
(-5.111523939 0.06704418351 0.04440901545)
(-5.095121252 -0.07675037908 0.0542402485)
(-4.984683955 0.03263724548 -0.01913217303)
(-4.834460329 -0.08524086553 0.07702339881)
(-4.923368692 -0.03691468347 0.02561696413)
(-4.929113362 -0.05021965822 -0.06554836384)
(-4.794029311 -0.005276279136 -0.0689281427)
(-4.71358757 0.0729958963 0.04189884704)
(-4.625639738 -0.04450564006 -0.04391976889)
(-4.583358188 -0.05169898823 -0.006093272728)
(-4.628636592 0.04252168065 0.02716314864)
(-4.596900959 0.02426899243 -0.03405404174)
(-4.506261357 0.021003857 0.03504164408)
(-4.492342283 0.1021584216 4.024490391e-05)
(-4.457391171 0.02927779643 0.02764785047)
(-4.479420234 0.0624407245 -0.04408931621)
(-4.335769904 -0.0197716573 0.06890369221)
(-4.230265902 0.07060861466 -0.07467705905)
(-4.283499351 -0.07926868247 -0.06491273608)
(-4.328130375 0.02940795447 0.01999740897)
(-4.198438288 0.04033549759 -0.002244356379)
(-4.246867426 -0.05496864327 -0.0796633248)
(-4.217943471 0.0559183172 -0.008449899451)
(-4.040675935 -0.01586697716 -0.04129973205)
(-3.998713874 -0.03931773363 0.0463020589)
(-4.024460116 -0.08945324858 0.03203715774)
(-3.931671956 -0.01707961839 -0.02549189393)
(-3.988517945 0.069435599 0.05497982336)
(-3.922201442 -0.1181103517 0.01284310184)
(-3.778485501 0.01199440388 0.0106760429)
(-3.735016212 -0.02937682068 0.04032018288)
(-3.665152414 0.1577007478 0.004427733686)
(-3.734516909 -0.05038912479 -0.02900805496)
(-3.825471671 0.03223153043 -0.0438550225)
(-3.709695638 -0.05913124216 0.005339292555)
(-3.602851008 -0.05349195681 0.06551644651)
(-3.608532542 -0.05115787487 -0.02537477331)
(-3.623346216 0.003181374741 0.03810148817)
(-3.652821498 -0.01570415678 -0.04083433353)
(-3.582064747 0.04375585679 0.008809681077)
(-3.578746963 -0.01260060971 0.005715779607)
(-3.505420236 0.01498595898 0.03485836739)
(-3.542113433 0.04382242279 0.006774708992)
(-3.487815781 0.06769662456 -0.02892756798)
(-3.359544783 0.0002404820089 -0.02748357666)
(-3.348738587 -0.04940849626 -0.03232431237)
(-3.368876852 -0.0462074716 0.02683696153)
(-3.328061021 -0.07447570139 -0.06384762747)
(-3.344449402 0.1200541516 0.04902630384)
(-3.288486605 -0.03644637433 0.02084089273)
(-3.237317704 -0.03283384416 -0.07527677362)
(-3.181540164 -0.01033436382 0.02712782208)
(-3.211814471 -0.0200474983 -0.02719705638)
(-3.186925435 0.08123567145 0.003484124038)
(-3.217345699 0.0255058012 -0.007650865557)
(-3.139760681 0.02023972272 0.03289937993)
(-3.139073779 -0.06995879857 -0.1011745758)
(-3.08354367 -0.03146949107 0.009087785718)
(-3.092113984 0.003009401548 0.0009682641023)
(-2.975800225 -0.02688660766 -0.02536965333)
(-3.002751332 0.05071587201 0.003391888813)
(-2.952394251 -0.06139964184 0.01308479559)
(-2.944117883 0.0288830075 -0.0157995069)
(-2.905155708 0.02100876818 -0.0330545501)
(-2.861813625 -0.06531368266 0.01986502434)
(-2.858684887 -0.1172395619 -0.05469198947)
(-2.85574802 0.05814864916 -0.05992301856)
(-2.863886521 0.0730126858 -0.03581024489)
(-2.849798274 0.01796617245 -0.01589213741)
(-2.802084154 0.04426565734 0.02074402512)
(-2.836217642 -0.001848370338 0.03737265764)
(-2.842726526 -0.02956760423 0.0342432576)
(-2.798347603 0.09514735539 -0.04970897372)
(-2.760031456 0.0177964074 0.03757629349)
(-2.750443061 -0.01920674098 -0.0002160856417)
(-2.803590263 -0.05892635467 0.01651186173)
(-2.787427613 -0.05344364816 -0.05660660637)
(-2.722943912 0.09244510088 0.01512871975)
(-2.792796892 -0.05698761986 0.0187784396)
(-2.72718404 -0.02489047348 -0.03785785144)
(-2.693662067 -0.06236207712 -0.01525758905)
(-2.59043845 0.0558368469 0.08876044351)
(-2.64325255 -0.0254023579 -0.05750712893)
(-2.697075732 -0.02516744212 0.03620301955)
(-2.632758744 -0.03009144067 -0.04064131267)
(-2.573284447 -0.02267845425 0.04344203569)
(-2.495105107 -0.01598640854 0.01655463456)
(-2.475032144 -0.02283413871 -0.0422722586)
(-2.523307217 0.01070351588 0.01111033136)
(-2.565571091 0.0518476467 0.00660272919)
(-2.460773195 0.003929454652 0.01718131201)
(-2.622523512 -0.03178344312 -0.05765571249)
(-2.505137917 0.1184151932 0.07005221877)
(-2.474957781 0.02344581369 0.005174062961)
(-2.497945947 0.04478009928 0.01011928918)
(-2.408529076 -0.08613927097 0.02214557776)
(-2.406080095 -0.03188612404 0.003338751)
(-2.407051446 0.04162260726 -0.009474910157)
(-2.365605841 0.05407104093 0.007101616609)
(-2.424860937 -0.03435169991 -0.01512025984)
(-2.306411344 -0.0008935232503 -0.02409954451)
(-2.377079308 -0.0611010166 0.01562587921)
(-2.359455457 -0.006845216947 -0.02348525112)
(-2.325458935 0.0866180798 0.03595619738)
(-2.314991657 -0.06050203347 -0.02921840999)
(-2.314634786 -0.01893494327 0.05711796042)
(-2.316551541 0.03641533673 -0.02888191351)
(-2.281156263 0.05531650732 0.01516285024)
(-2.22039647 -0.01975191048 0.001185993078)
(-2.297831153 -0.002248388802 0.02050971602)
(-2.208305658 -0.004057742194 0.03660981369)
(-2.19970983 0.00452530889 -0.01329902472)
(-2.213432654 0.01017591784 -2.825312252e-05)
(-2.200610934 0.05533090834 -0.008597948397)
(-2.133782051 -0.007187970217 -0.0158611995)
(-2.166201858 -0.007237623653 0.01043343916)
(-2.202729042 -0.03741193943 -0.01006485962)
(-2.182526935 0.07402512642 -0.03039494286)
(-148.6907599 0.4305698969 0.2015949478)
(-104.9774103 0.1490005626 0.1059867696)
(-83.4158447 -0.5169821045 0.5324126058)
(-69.82895274 -0.2038953506 -0.1527470861)
(-59.71835361 -0.09344573866 0.310087256)
(-52.64234009 0.1004488865 -0.3711583289)
(-46.90483569 -0.312309058 0.07066193576)
(-42.66156833 -0.1298782495 -0.1803017454)
(-38.65172598 0.2016115932 0.05470567765)
(-35.52304795 -0.045499511 -0.08878743648)
(-32.85017085 -0.01682715637 -0.00837668334)
(-30.49542684 -0.07258874996 0.04159216438)
(-28.47072231 -0.04636666266 0.07838645132)
(-26.96524781 0.03547906441 -0.215683492)
(-25.29613793 -0.0480202024 -0.08776544612)
(-23.9539225 0.05868171907 0.006193533813)
(-22.65972386 0.06063464115 0.008618926642)
(-21.7264834 0.05468608844 0.03029929536)
(-20.67553217 -0.08673061393 -0.07358512164)
(-19.86533642 0.108707292 0.06859136659)
(-18.69722527 0.01818327369 0.1475569093)
(-17.92308321 0.1282771777 0.0187374757)
(-17.27900183 0.06547700506 -0.0702223298)
(-16.69725751 0.1361424366 0.108456378)
(-15.99562148 0.1043107623 0.04086709692)
(-15.45778725 -0.05469581312 -0.0001203030369)
(-14.95392095 0.0214480916 0.00748828722)
(-14.65234288 -0.05344906396 -0.07358379217)
(-14.2495742 -0.06016201417 0.1363899501)
(-13.75225035 -0.07405657471 -0.06182267216)
(-13.24772946 -0.003316320455 0.07719561346)
(-12.89035411 -0.002602008151 0.008397594055)
(-12.482697 -0.04586552561 0.1296327288)
(-12.2268552 0.005865544785 -0.01400052021)
(-11.77258781 -0.0504566332 -0.05048829817)
(-11.451627 0.1026297131 0.004871149268)
(-11.23065654 -0.07622660903 -0.1405474544)
(-10.94333559 -0.07029951154 0.05607040608)
(-10.67505024 0.04897478058 -0.02665754025)
(-10.38728415 -0.01082325927 -0.03450955654)
(-10.15121579 0.0734207953 -0.07199408799)
(-9.792682161 0.08332713818 0.0004878316347)
(-9.816210994 0.03556832758 0.104547269)
(-9.619385164 -0.04903508844 -0.03250579689)
(-9.291158778 -0.05861447158 -0.0546551555)
(-9.120908771 -0.06688950123 0.05310758556)
(-8.884138961 0.1175638927 -0.01278318372)
(-8.726288661 -0.03523143659 0.02209019148)
(-8.609340901 -0.00396861114 -0.003627240915)
(-8.396153291 0.05702521841 0.04997029965)
(-8.244115906 0.04474496792 0.03527692929)
(-8.170664766 0.02785243407 -0.07013314902)
(-8.035807721 -0.1042738639 -0.1057926179)
(-7.772943822 -0.04107987119 0.0829364743)
(-7.653049152 -0.002283583118 -0.05583398191)
(-7.649853883 -0.04676587234 0.001615434556)
(-7.437095143 0.05002483375 -0.07050661329)
(-7.342517524 -0.01287669878 0.00898421132)
(-7.093978453 -0.0438374806 -0.06731562425)
(-6.92379805 -0.0220737225 0.04778695531)
(-6.996693431 0.0649081942 -0.02445956281)
(-6.739349739 -0.0733261594 0.08387977746)
(-6.677089759 0.03576402973 0.1067386387)
(-6.55321654 0.1105997852 0.03907556495)
(-6.359264402 -0.09924908109 0.008478883692)
(-6.503634571 0.03987615624 0.05137297707)
(-6.391488127 0.02197735941 -0.0241491403)
(-6.306494806 -0.01735123253 -0.01194027207)
(-6.251395417 0.02136534206 -0.08955829446)
(-6.164989236 0.02836063102 -0.01372383387)
(-6.006737451 -0.07687140847 -0.07201960538)
(-5.95854102 0.0776088517 0.01012748827)
(-5.901887694 0.09098831419 0.04305835558)
(-5.739891663 -0.0537760769 0.02168209499)
(-5.66238439 -0.05593164774 0.01354481726)
(-5.542465881 -0.0170745576 0.03066484675)
(-5.530482261 0.1186470579 0.04941451754)
(-5.433513676 -0.02791781991 0.01314565392)
(-5.427052939 0.04866850209 -0.01939963786)
(-5.398220917 0.05914907104 -0.05841757233)
(-5.324181568 -0.0573170797 -0.03484062796)
(-5.275205371 0.001556954553 0.03397409618)
(-5.141505963 -0.05126722125 -0.05899971794)
(-5.016507278 -0.07480358711 -0.03733604468)
(-4.979645307 -0.008694904503 0.08869731168)
(-4.929879661 -0.03800664801 -0.002828753878)
(-4.875685981 0.1567629859 -0.02607604028)
(-4.867766802 -0.01957578516 0.01709184211)
(-4.862005211 -0.08567201689 0.09626231732)
(-4.753792145 -0.004382192358 0.02473131521)
(-4.71600705 -0.01044791491 0.0373811205)
(-4.707759927 -0.004420596884 0.0118400731)
(-4.658158406 0.08550751053 -0.02305931958)
(-4.610984124 0.06808988779 -0.07652534856)
(-4.553784223 -0.03400985284 -0.02719669065)
(-4.512868719 0.09825630204 0.001966735247)
(-4.417332223 0.05599782462 -0.06640603531)
(-4.3673356 -0.0195234751 -0.06836219148)
(-4.349047271 -0.1360551957 0.03484227879)
(-4.327986368 -0.06168421455 0.03044490799)
(-4.337331601 0.1048723087 0.04375582076)
(-4.290820285 -0.0175570433 0.0187429115)
(-4.196993413 -0.03949996488 0.002280049206)
(-4.032327316 -0.03234783298 0.07563075898)
(-3.946526128 -0.05566760595 -0.004855325446)
(-4.023498686 0.007009780169 -0.0161367578)
(-3.980008127 -0.0402409039 0.03977158161)
(-3.940987277 0.001820220821 -0.00652826202)
(-3.909836986 -0.02039303592 -0.01873805995)
(-3.891000667 0.02992828268 0.02026413476)
(-3.909588096 -0.03721982525 0.06482784415)
(-3.888883481 -0.1255840422 0.01066909416)
(-3.793361464 -0.0639959525 -0.002390326176)
(-3.706609096 0.1069978056 0.03937529848)
(-3.672224544 0.04900061016 0.04625910794)
(-3.751273498 -0.06090934979 0.01269751008)
(-3.662570475 -0.003746009216 -0.0496861118)
(-3.758159527 -0.03083673449 0.03439015921)
(-3.729650978 -0.04750800797 -0.0227323932)
(-3.656609478 0.04753064458 0.01801698644)
(-3.645128375 0.02818674792 0.009580288729)
(-3.638998101 0.02676697286 0.08745469319)
(-3.557922662 0.02056465797 -0.01082378766)
(-3.603479904 0.00419373207 -0.01065227274)
(-3.547120644 0.0009402637596 0.03211595205)
(-3.419724973 0.01632913169 0.006346718874)
(-3.370455672 -0.05443037031 -0.01651909969)
(-3.294136532 0.03928124337 0.08323043417)
(-3.443942867 -0.01180157309 0.02128026912)
(-3.382716449 -0.0688139664 -0.01784371404)
(-3.293074737 0.02388844039 -0.04452095546)
(-3.213651963 -0.02862192472 -0.01109116982)
(-3.263393823 -0.03709975312 0.0149177024)
(-3.232677337 -0.02418282063 0.06838430604)
(-3.235974452 0.09374222405 -0.01676737638)
(-3.209212178 0.04661482987 -0.01897556536)
(-3.168152188 0.1143376536 0.05980538927)
(-3.198804353 -0.1156943274 0.02568994345)
(-3.161040896 -0.1474305521 0.01438770363)
(-3.093908241 -0.0143389299 0.02360825294)
(-3.046299515 0.02181844837 0.01179939302)
(-3.051303339 0.07400256136 -0.0186821944)
(-3.117978026 0.03368972372 0.01709045013)
(-3.100040044 -0.02029681405 0.06756208601)
(-3.02853454 -0.01275334107 0.01447451357)
(-2.883689211 -0.07911601789 -0.001378492621)
(-2.958411771 -0.02478630036 -0.01277535075)
(-2.99308941 -0.04381873326 0.01464542669)
(-2.93769548 0.03661274173 0.04777567138)
(-2.980961584 0.07760474346 0.02929297996)
(-2.907333789 0.009516217451 0.01408689868)
(-2.889048795 0.04967781825 0.02761110369)
(-2.846916132 0.04096210905 -0.06512529158)
(-2.824419087 -0.007167108363 0.003613954551)
(-2.8018685 0.0962558871 -0.01632172831)
(-2.814240143 -0.02839630972 -0.03186332049)
(-2.753345183 -0.03343290107 0.05766745917)
(-2.714520974 0.01835801674 -0.07315943523)
(-2.753295078 0.001984917963 -0.02086115924)
(-2.72650881 0.02341070182 -0.00680854595)
(-2.655827357 -0.02534990525 -0.01034015217)
(-2.668943142 -0.07198856991 0.01473127573)
(-2.652721508 -0.005681824035 -0.02508917922)
(-2.650832498 0.06347419723 -0.007240087768)
(-2.619970578 -0.02017352153 -0.04723758642)
(-2.624762306 0.007579516527 -0.0272893619)
(-2.606199022 -0.02216189922 0.06184643057)
(-2.641041435 -0.03392902184 -0.01818462886)
(-2.632918732 -0.05371803812 -0.002143239103)
(-2.565551453 0.0480003267 0.03233125528)
(-2.552675265 -0.05366536005 -0.01412537841)
(-2.491634841 0.09331718776 0.01295142496)
(-2.502859487 -0.01404417448 0.02367500352)
(-2.454241082 -0.01268264004 -0.03483713088)
(-2.458743591 0.0002294816409 -0.006541794236)
(-2.491520209 0.05434263069 -0.003026430925)
(-2.410559721 -0.012968554 -0.005101288783)
(-2.417380579 -0.01200934209 0.006477385396)
(-2.455125284 0.03943246918 0.01949655152)
(-2.431362867 0.03607472084 0.005574004961)
(-2.397014943 -0.03265715517 -0.0415601876)
(-2.364419667 -0.01215567657 0.03002040536)
(-2.394372986 -0.003814312784 -0.02494159935)
(-2.404983554 0.01537216677 -0.04730687797)
(-2.396761913 -0.06725006603 -0.05177293502)
(-2.308437873 0.07453101886 0.0670117005)
(-2.288499217 -0.01877278618 -0.002495493905)
(-2.247049584 -0.02361812102 0.02578617363)
(-2.26641657 0.002158111023 0.02971595534)
(-2.343901679 0.07769889229 -0.02458578835)
(-2.266037352 -0.06298548287 0.04111389997)
(-2.30826099 0.03348140027 -0.02577980739)
(-2.302880067 -0.04915179034 -0.0402349066)
(-2.247014845 -0.01272461805 0.0108804765)
(-2.264591975 -0.006689044349 -0.005912783066)
(-2.231436611 0.01027701932 0.01163129384)
(-2.280962398 0.04333486676 0.02024267295)
(-2.183501321 0.04145474311 0.0227540581)
(-2.224481347 -0.01466727131 -0.07231351565)
(-2.177415304 0.06235557469 0.009843174281)
(-149.4364439 0.5827767904 0.03911542717)
(-105.4819829 0.0967013735 -0.1356208919)
(-83.39465039 -0.2943596599 -0.1876664176)
(-69.69316325 0.004260216415 -0.2157278907)
(-60.0033346 -0.04400333868 -0.08862820892)
(-52.55742897 0.08097316291 0.2440849864)
(-46.98605896 -0.2118002172 0.1089655544)
(-42.18352673 -0.04484334178 0.05882200482)
(-38.77701817 0.1381114935 -0.1061919022)
(-35.42715199 -0.1605575927 0.03475565034)
(-33.04367305 0.1515899498 0.04805493224)
(-30.58861213 -0.4208129022 -0.04566122763)
(-28.63958222 -0.1118273069 -0.0368919175)
(-26.7087574 0.08613843291 0.150962186)
(-25.40273015 -0.05764666019 0.07436918531)
(-24.02948235 0.1000178331 -0.1377117156)
(-22.8852553 0.04798400473 0.04166649675)
(-21.73153929 -0.1465434255 0.2602838279)
(-20.64984904 0.04628061869 0.06774513755)
(-19.4951436 -0.01198293995 -0.3314900228)
(-18.91239522 0.002637833779 -0.09055567732)
(-18.03361178 0.02898319079 0.09207250689)
(-17.40724224 -0.06439978427 -0.02405409243)
(-16.71434479 0.04422889074 0.009432294172)
(-15.99639079 -0.2080279483 -0.1133851576)
(-15.42671247 0.02861608038 0.1763408358)
(-15.0082611 0.07780694743 -0.1365081913)
(-14.64470101 0.1245007081 0.02992923793)
(-13.99826792 -0.06303526535 0.06909512663)
(-13.51575309 -0.1071054465 0.2130676003)
(-13.15348047 0.03618887907 0.002213841502)
(-12.76324023 -0.03818098774 -0.06638308764)
(-12.37607594 -0.05213375717 0.06514094968)
(-12.10594464 0.06699457607 0.1352667734)
(-11.80450102 0.02381678554 -0.02720133498)
(-11.53969269 0.03274534718 0.05720701054)
(-11.20743668 -0.1680202449 -0.07680577867)
(-10.9117097 0.01487565163 0.111987647)
(-10.77190386 0.05854439167 -0.06100824354)
(-10.54636116 -0.04186993825 -0.1146780382)
(-10.26142164 0.05320515981 0.004393065061)
(-10.08482806 -0.01660108208 -0.0007511923907)
(-9.688614941 0.1389136495 0.03331914357)
(-9.424766452 -0.00163668941 -0.04767735966)
(-9.353056833 -0.001125156972 0.03460652194)
(-9.148123274 -0.07686351575 -0.0550753687)
(-9.012512559 0.1234612525 -0.04221910377)
(-8.825146352 0.04837232498 0.1376203466)
(-8.584887062 -0.02217298859 0.01397909052)
(-8.472774861 0.03064635099 -0.1106661047)
(-8.29394054 -0.05172885299 -0.108822664)
(-8.097974948 0.01977829305 0.06561338164)
(-8.0079881 -0.1438773686 0.0491228403)
(-7.916314029 0.02558850035 0.1033404706)
(-7.796145115 -0.05268978309 -0.1100230105)
(-7.605461187 0.1083733808 0.003074854962)
(-7.453848071 -0.1170763055 -0.08040971712)
(-7.278950544 0.04381637167 0.07643677897)
(-7.262895709 -0.1611304345 -0.01719315625)
(-7.109415877 0.02025598572 0.007613036938)
(-6.992203559 -0.009390205955 -0.1021673011)
(-6.890585928 -0.03407776477 0.07139223813)
(-6.844689896 -0.02753623452 0.03821953332)
(-6.745337493 0.02456392835 0.05913692145)
(-6.586090597 0.01101838523 -0.04847235858)
(-6.502684137 0.05959664862 -0.0642953596)