/*--------------------------------*- C++ -*----------------------------------*\
| =========                 |                                                 |
| \\      /  F ield         | OpenFOAM: The Open Source CFD Toolbox           |
|  \\    /   O peration     | Version:  v1612+                                |
|   \\  /    A nd           | Web:      www.OpenFOAM.com                      |
|    \\/     M anipulation  |                                                 |
\*---------------------------------------------------------------------------*/
FoamFile
{
    version     2.0;
    format      ascii;
    class       volScalarField;
    location    "4.78";
    object      variableHardSphereMeanFreePath_Ar1;
}
// * * * * * * * * * * * * * * * * * * * * * * * * * * * * * * * * * * * * * //

dimensions      [0 1 0 0 0 0 0];

internalField   nonuniform List<scalar> 
1000
(
0.009376596229
0.009435589156
0.009487154526
0.009536732387
0.009586130729
0.009637588364
0.009688288449
0.009730228442
0.00978585999
0.009836379433
0.009884400193
0.009933308816
0.009986603084
0.01004586531
0.01009354619
0.01014849897
0.01020633007
0.01026259079
0.01031842007
0.0103722677
0.01042504841
0.01048390449
0.01054469923
0.01060123615
0.01065784685
0.01071589762
0.01078349451
0.01084368547
0.01090310891
0.01097041498
0.0110321233
0.01109250653
0.01115683052
0.01122664875
0.01129583237
0.01135745265
0.01143082487
0.01150199022
0.01157165937
0.01164590748
0.01171933925
0.01179125482
0.01185834924
0.01193840952
0.01201189974
0.01208961001
0.0121680161
0.01224418173
0.01232434776
0.01240451739
0.01248511764
0.01256617318
0.01264507554
0.01273223059
0.01281123412
0.0128957229
0.01298828275
0.01308336337
0.01317637787
0.01326261472
0.01335358467
0.013454229
0.01354505583
0.01363471235
0.01374900591
0.01384505908
0.01394583718
0.01405349286
0.01415110018
0.01426839697
0.01437079303
0.01447624304
0.0145886512
0.01470316972
0.01482340245
0.01493373765
0.0150450987
0.01517420407
0.01528897743
0.015414438
0.01554164762
0.01567449175
0.01580735769
0.01594035749
0.01607894934
0.01621578554
0.0163518652
0.016488722
0.01663599403
0.01679552829
0.01693737969
0.01707723051
0.01724052677
0.01739110147
0.01755861296
0.01771847352
0.01787848775
0.01804244697
0.01823008011
0.01841841741
0.01860294585
0.01877852572
0.01895853646
0.01914398696
0.01935030703
0.01955533072
0.01975481837
0.01995445256
0.02017845495
0.02038070875
0.02059164519
0.02083100052
0.02104049555
0.02128418595
0.02151518178
0.0217789677
0.02203184281
0.02228472175
0.02255259801
0.02281201099
0.02308693692
0.02337821279
0.02367383371
0.02396954274
0.02427855818
0.02458272062
0.02493070395
0.02525116253
0.02557462489
0.02595741665
0.02630275431
0.02665836198
0.02704783989
0.0274394851
0.02781138118
0.02820912736
0.02866548179
0.02911069505
0.02957292231
0.03002730078
0.03054129389
0.03101608115
0.03151988155
0.03203911283
0.03261023521
0.03318734249
0.03376222287
0.03436121407
0.03498820302
0.03562937223
0.03629582365
0.03701454489
0.03776560311
0.03854008828
0.03936444114
0.04019801861
0.04105237825
0.04195310606
0.04285297574
0.04389321812
0.04489694951
0.04598964127
0.04710676517
0.04829838255
0.04952126372
0.05083005653
0.05223921714
0.05371932138
0.05532690432
0.05690568606
0.05865632386
0.06051405499
0.06247126455
0.06465750207
0.06703419763
0.06930983842
0.07189064955
0.07479756432
0.07783465088
0.08112455159
0.0846490358
0.08861987753
0.09302241932
0.09791622426
0.1030410053
0.1089790642
0.1158866322
0.1231148104
0.1316420567
0.1412281061
0.1526217811
0.1658145765
0.1819947887
0.2007297836
0.2248992669
0.2561468191
0.2975600049
0.3556222472
0.4451615628
0.6290155444
0.009377118446
0.009433021459
0.009482118346
0.009535761905
0.009585460892
0.009638159931
0.00968823199
0.009735722721
0.009783985631
0.00983673112
0.009883520656
0.009935004004
0.009989687672
0.01004177157
0.01009299874
0.01014819974
0.01020330196
0.01025972881
0.01031648057
0.01037261007
0.01042672848
0.01048268174
0.01053872689
0.01059772741
0.01066002911
0.0107207418
0.01077995312
0.01083830296
0.01090364859
0.01097274869
0.0110339834
0.01110010294
0.01116249075
0.01123255531
0.01129773887
0.01136423799
0.01142725891
0.01150408228
0.01157615111
0.0116482078
0.01171762653
0.01179305207
0.01185710834
0.0119376388
0.01201236678
0.01208687516
0.01216774134
0.01224567957
0.01232215481
0.01240267455
0.01247916947
0.0125628776
0.01264731424
0.01273028863
0.01281099337
0.01290105112
0.01298679927
0.01308483971
0.01317861231
0.0132590877
0.01335359498
0.013450205
0.01354363829
0.01364201479
0.01373850831
0.01384319064
0.01394674077
0.01405416082
0.01415197755
0.01426416386
0.0143736464
0.01448444492
0.01459738743
0.01470978708
0.01482141249
0.01493042202
0.01505038656
0.01517848341
0.01529578155
0.01541304838
0.01554619042
0.01567149554
0.01580279206
0.01593345467
0.01607798671
0.016207695
0.01635326883
0.01649005584
0.01663307033
0.01678140587
0.01693329286
0.01708658505
0.0172363768
0.01739074034
0.01755620582
0.01771980856
0.01789593523
0.01804944787
0.01823172753
0.0184208979
0.01860279416
0.0187769537
0.01895760615
0.01915128698
0.01935578476
0.01954963429
0.01974035548
0.0199432907
0.02016501614
0.02037936581
0.02059797155
0.02080924395
0.02104325039
0.02129066091
0.02152298352
0.02177298464
0.0220359962
0.02229015582
0.0225601517
0.02281900842
0.02308048844
0.02337840351
0.02365587578
0.02396536697
0.02426997936
0.02459366622
0.02492448753
0.02523990353
0.02557654388
0.02593262281
0.02631216387
0.02667008372
0.02706086201
0.02744008823
0.02783039145
0.02823668441
0.02865140297
0.02911630137
0.02956681411
0.03003233874
0.03052125128
0.03098230446
0.0315204938
0.03205925079
0.03261055781
0.03317498272
0.03375462122
0.03438883813
0.03501388961
0.03563456156
0.03630609293
0.0370182611
0.03778154193
0.03853623537
0.03935640544
0.04013728555
0.04106647869
0.04194218749
0.04288731608
0.04388832576
0.04488841654
0.04602585399
0.04711530865
0.04830245367
0.04956478374
0.05084672773
0.05226542673
0.05372660669
0.05530286624
0.05691967521
0.05859979747
0.06052389943
0.06246888834
0.06467472686
0.06693409169
0.06936474097
0.07192803716
0.07477525688
0.07782129102
0.08113768753
0.08468624194
0.08866775951
0.09304983194
0.09775627558
0.102980026
0.1089161874
0.1156653788
0.1228605486
0.1315106221
0.1410609007
0.1524307672
0.1656273668
0.1816102343
0.2006915765
0.2247554004
0.2562812989
0.2978745937
0.3556529767
0.4470503517
0.6306519691
0.009378790745
0.009436745381
0.009484834526
0.009536183948
0.009586661393
0.009634893364
0.009687518769
0.009736438744
0.009787654059
0.009831083573
0.009884719349
0.009931455264
0.009992742888
0.01004378492
0.01009707596
0.01015183741
0.01020046023
0.01025285244
0.01031030404
0.01037211423
0.01042674746
0.01048611064
0.01054753261
0.01060247265
0.01066013662
0.01072077257
0.01078239649
0.01083928196
0.01090570829
0.01097094529
0.01103443469
0.01109847045
0.01116185887
0.01122759733
0.01129379282
0.01135741824
0.01143110091
0.01150037267
0.01157347036
0.0116493284
0.01171619085
0.01178934374
0.01185971405
0.01193111435
0.01200739241
0.0120926549
0.01216846928
0.01225010296
0.01232499168
0.01240759929
0.01248087243
0.01256849084
0.01264981491
0.01272620671
0.01281603983
0.01289874365
0.01298576109
0.0130889863
0.01317171809
0.01326097869
0.01335521436
0.01344378253
0.01354139041
0.01363894952
0.01374490705
0.01384709265
0.01395172077
0.01405106584
0.01415546413
0.01426452331
0.01437046294
0.01448595147
0.01459469545
0.01470333796
0.01481983272
0.01493650535
0.0150471884
0.01517649875
0.01529905162
0.0154190207
0.01554818351
0.01567054965
0.01579969865
0.01593551117
0.01607282058
0.01620782608
0.01634473818
0.01649539522
0.01662778495
0.01678525193
0.01693504309
0.01708704214
0.01723735671
0.01739537481
0.01755046411
0.0177276594
0.01789364671
0.01806552241
0.01823028596
0.01842423034
0.01859550053
0.01877516514
0.01896680308
0.01914921779
0.0193404562
0.01953175831
0.01973684476
0.0199396806
0.0201561203
0.02038396314
0.02060460226
0.02081947329
0.02105524758
0.02130130602
0.02155314839
0.02179662841
0.02203104112
0.02228773128
0.02255380116
0.02282480903
0.02310735895
0.02338730444
0.02366709899
0.0239646859
0.02427515358
0.02457983848
0.02492076016
0.02526410691
0.02558139477
0.025926635
0.02629201491
0.02666077184
0.02705623567
0.02743089409
0.02782337085
0.0282317773
0.02866057694
0.02910033212
0.02957589758
0.03003699616
0.03052451662
0.03099951578
0.03152529331
0.03206436673
0.03261780951
0.03318480707
0.03379322177
0.03438871475
0.03501408918
0.03568726456
0.03634304329
0.03705767674
0.03778768384
0.03856419518
0.03933913088
0.04015994556
0.04110237127
0.04195734016
0.04286877603
0.04390423824
0.04491237306
0.04596159104
0.04708951461
0.04828557788
0.04957553375
0.05091633116
0.05233509996
0.05375814223
0.05529281204
0.05692088612
0.05863826785
0.06049839295
0.06257442494
0.06460051675
0.06688290504
0.06929855551
0.07194958624
0.07471119465
0.07783149469
0.08114496243
0.08470979541
0.0887679152
0.09313861841
0.09789776628
0.1030003504
0.108929114
0.115429083
0.1226779108
0.1314668385
0.1411964476
0.15251357
0.165692158
0.1815492167
0.2009381892
0.2250604689
0.2558129187
0.296651818
0.3567531339
0.447057346
0.6305973661
0.009381909071
0.009436818941
0.009485372246
0.009535113899
0.009586639132
0.009635505909
0.009679750892
0.00973163483
0.009781581757
0.00982994285
0.0098860688
0.009937053418
0.009990388248
0.01004377927
0.01009664562
0.01014777223
0.01020292589
0.01025210842
0.01031220606
0.01037154281
0.01042711454
0.0104837204
0.01053874607
0.01060321418
0.01066062292
0.01072073527
0.01077997291
0.01083978524
0.01090176019
0.01096710361
0.01103461256
0.01109342078
0.01116102328
0.01122462655
0.01129082066
0.01136117077
0.01142891105
0.01150374952
0.01157043837
0.01164199067
0.01171173691
0.01178892953
0.01185924994
0.01193293499
0.01201339924
0.01208794894
0.01216872612
0.01224693159
0.01232930437
0.01240214024
0.0124856855
0.01256714243
0.01264521821
0.01272481596
0.01281688383
0.01289693782
0.0129963183
0.01308176041
0.01317195603
0.01325862346
0.0133519016
0.01344150047
0.01354165851
0.01364475148
0.013743165
0.01384606856
0.01394095261
0.01405066802
0.01415825664
0.01426804783
0.01436738099
0.01448515656
0.01459050827
0.01470150524
0.01482398912
0.01493678189
0.01505545631
0.01516936789
0.01529042859
0.01542207626
0.01554305543
0.01566564353
0.01579882047
0.01593011084
0.01607125469
0.01621258357
0.0163512868
0.01649167611
0.01662491212
0.01678193656
0.0169356564
0.01707690181
0.01723905893
0.01740430329
0.01756906304
0.01771428475
0.01788194525
0.01805165966
0.018233563
0.01841497694
0.01859399241
0.01876245139
0.01896111914
0.01914374643
0.019336049
0.01953573276
0.01972841262
0.0199378842
0.020155723
0.02037415667
0.02059971305
0.02081127132
0.02104492163
0.02127840412
0.02153735266
0.02179128361
0.0220437634
0.02229528375
0.0225530992
0.02281338434
0.02308235537
0.0233703801
0.0236541247
0.02395657349
0.02426282709
0.02459478319
0.0249235922
0.02526239752
0.0255954011
0.02593756915
0.02628199766
0.02667593148
0.02704094821
0.02742458169
0.02784490139
0.02826357
0.02867336008
0.02912918631
0.02958277702
0.03003364646
0.03052344638
0.03101479724
0.03154421061
0.03206056811
0.03258820111
0.03317043831
0.03378604647
0.03438944905
0.0350022579
0.0356677439
0.03636097464
0.03703330017
0.03778557246
0.03853780696
0.03933004762
0.04019395498
0.04105129726
0.04189759529
0.04287490285
0.04386581444
0.04490299155
0.04598278218
0.04707874673
0.0483830369
0.049618415
0.05093724671
0.0522981802
0.05376313226
0.05532908664
0.05695582169
0.05871663365
0.06058002903
0.06252994783
0.06461064694
0.06686011755
0.06923627953
0.0720184475
0.0747459617
0.0777604477
0.08113450328
0.08480353126
0.08875829087
0.09322474081
0.09776642953
0.1029948838
0.108853052
0.1154740017
0.1230851653
0.1315488692
0.1411554503
0.1523433803
0.1656706509
0.1816437323
0.200755788
0.2245382648
0.2553469371
0.2972966415
0.3562391748
0.4484960097
0.6303109302
0.009376714749
0.009430867558
0.009483384062
0.009536909691
0.009581939795
0.009636112502
0.009682691658
0.009734006959
0.009782903577
0.00983670984
0.009884868823
0.009936902008
0.009991407004
0.01004314564
0.01009440384
0.01014500905
0.01019850325
0.01025752077
0.01031563263
0.01037749171
0.01042755818
0.01048545936
0.01054644319
0.01059908563
0.01066517747
0.01072422065
0.010782311
0.01084285821
0.01090375841
0.0109723491
0.01103638013
0.01110216517
0.01116364439
0.01122327556
0.01129717664
0.01135990368
0.01142710185
0.01149784298
0.01157346281
0.01164063764
0.01170863728
0.01178758805
0.0118601276
0.01193676845
0.01200966001
0.01209266909
0.01216648793
0.01223683943
0.0123220867
0.01239981662
0.01248386695
0.01256043284
0.01264951391
0.01273105635
0.01282151886
0.01291030464
0.01300003673
0.01308408275
0.01317835746
0.01326717936
0.01335604151
0.01344393759
0.01354938687
0.01364518103
0.01373998195
0.0138438843
0.01394951224
0.01405263593
0.01415672327
0.01426073229
0.01436975905
0.01447836817
0.01459285214
0.01471087026
0.01481833043
0.01492778127
0.01504685632
0.01517101601
0.01528544256
0.01542387424
0.0155477051
0.015663205
0.01579999068
0.01592804756
0.01605644185
0.01619332998
0.01634064908
0.01649716505
0.01663427293
0.01678322932
0.01693578113
0.01708420731
0.01725375167
0.017388776
0.01756344872
0.01771926315
0.01787892219
0.01806910353
0.01823446095
0.01842338903
0.01859866187
0.01876362233
0.01894542234
0.01914737551
0.01933337987
0.01954340151
0.01974387589
0.01995679518
0.02016692353
0.02038722978
0.02060106761
0.02083326269
0.02105926549
0.02129043254
0.02154035242
0.02178736818
0.02203784214
0.02229436842
0.02255233331
0.02280935092
0.02308726321
0.02338176167
0.02366518686
0.02397056981
0.02426495252
0.0245826414
0.02489837753
0.02523985618
0.0255911562
0.02592763307
0.0262819175
0.02666278556
0.02705048557
0.02744866029
0.02784222357
0.02825109947
0.02867405805
0.02913372022
0.02959909269
0.03005716916
0.0305194526
0.03102828848
0.03154680291
0.03204848171
0.0326056532
0.0331577434
0.03380122635
0.03438651272
0.03498465849
0.0356416638
0.03633664449
0.03705076826
0.03778635057
0.03852584122
0.03932600113
0.04019945152
0.04107642943
0.04192435281
0.04284154293
0.04386761883
0.04491640992
0.04600018925
0.0471169699
0.04828605131
0.04954904841
0.0508948354
0.05220103555
0.0536902942
0.0552741889
0.05699679056
0.05870341699
0.06055105119
0.06259846503
0.06469546145
0.06678947763
0.06924035106
0.07200485858
0.07477521428
0.07783000445
0.08116846844
0.08471264946
0.08885471134
0.09313414314
0.09777716299
0.1030104102
0.108960968
0.1156290652
0.1229897012
0.1316504567
0.1413623288
0.1524438772
0.1659846522
0.1818706523
0.200940408
0.224961405
0.2557772148
0.2964191241
0.3558418397
0.4482520963
0.6333709482
)
;

boundaryField
{
    bottom
    {
        type            calculated;
        value           nonuniform List<scalar> 
200
(
0.009376596229
0.009435589156
0.009487154526
0.009536732387
0.009586130729
0.009637588364
0.009688288449
0.009730228442
0.00978585999
0.009836379433
0.009884400193
0.009933308816
0.009986603084
0.01004586531
0.01009354619
0.01014849897
0.01020633007
0.01026259079
0.01031842007
0.0103722677
0.01042504841
0.01048390449
0.01054469923
0.01060123615
0.01065784685
0.01071589762
0.01078349451
0.01084368547
0.01090310891
0.01097041498
0.0110321233
0.01109250653
0.01115683052
0.01122664875
0.01129583237
0.01135745265
0.01143082487
0.01150199022
0.01157165937
0.01164590748
0.01171933925
0.01179125482
0.01185834924
0.01193840952
0.01201189974
0.01208961001
0.0121680161
0.01224418173
0.01232434776
0.01240451739
0.01248511764
0.01256617318
0.01264507554
0.01273223059
0.01281123412
0.0128957229
0.01298828275
0.01308336337
0.01317637787
0.01326261472
0.01335358467
0.013454229
0.01354505583
0.01363471235
0.01374900591
0.01384505908
0.01394583718
0.01405349286
0.01415110018
0.01426839697
0.01437079303
0.01447624304
0.0145886512
0.01470316972
0.01482340245
0.01493373765
0.0150450987
0.01517420407
0.01528897743
0.015414438
0.01554164762
0.01567449175
0.01580735769
0.01594035749
0.01607894934
0.01621578554
0.0163518652
0.016488722
0.01663599403
0.01679552829
0.01693737969
0.01707723051
0.01724052677
0.01739110147
0.01755861296
0.01771847352
0.01787848775
0.01804244697
0.01823008011
0.01841841741
0.01860294585
0.01877852572
0.01895853646
0.01914398696
0.01935030703
0.01955533072
0.01975481837
0.01995445256
0.02017845495
0.02038070875
0.02059164519
0.02083100052
0.02104049555
0.02128418595
0.02151518178
0.0217789677
0.02203184281
0.02228472175
0.02255259801
0.02281201099
0.02308693692
0.02337821279
0.02367383371
0.02396954274
0.02427855818
0.02458272062
0.02493070395
0.02525116253
0.02557462489
0.02595741665
0.02630275431
0.02665836198
0.02704783989
0.0274394851
0.02781138118
0.02820912736
0.02866548179
0.02911069505
0.02957292231
0.03002730078
0.03054129389
0.03101608115
0.03151988155
0.03203911283
0.03261023521
0.03318734249
0.03376222287
0.03436121407
0.03498820302
0.03562937223
0.03629582365
0.03701454489
0.03776560311
0.03854008828
0.03936444114
0.04019801861
0.04105237825
0.04195310606
0.04285297574
0.04389321812
0.04489694951
0.04598964127
0.04710676517
0.04829838255
0.04952126372
0.05083005653
0.05223921714
0.05371932138
0.05532690432
0.05690568606
0.05865632386
0.06051405499
0.06247126455
0.06465750207
0.06703419763
0.06930983842
0.07189064955
0.07479756432
0.07783465088
0.08112455159
0.0846490358
0.08861987753
0.09302241932
0.09791622426
0.1030410053
0.1089790642
0.1158866322
0.1231148104
0.1316420567
0.1412281061
0.1526217811
0.1658145765
0.1819947887
0.2007297836
0.2248992669
0.2561468191
0.2975600049
0.3556222472
0.4451615628
0.6290155444
)
;
    }
    top
    {
        type            calculated;
        value           nonuniform List<scalar> 
200
(
0.009376714749
0.009430867558
0.009483384062
0.009536909691
0.009581939795
0.009636112502
0.009682691658
0.009734006959
0.009782903577
0.00983670984
0.009884868823
0.009936902008
0.009991407004
0.01004314564
0.01009440384
0.01014500905
0.01019850325
0.01025752077
0.01031563263
0.01037749171
0.01042755818
0.01048545936
0.01054644319
0.01059908563
0.01066517747
0.01072422065
0.010782311
0.01084285821
0.01090375841
0.0109723491
0.01103638013
0.01110216517
0.01116364439
0.01122327556
0.01129717664
0.01135990368
0.01142710185
0.01149784298
0.01157346281
0.01164063764
0.01170863728
0.01178758805
0.0118601276
0.01193676845
0.01200966001
0.01209266909
0.01216648793
0.01223683943
0.0123220867
0.01239981662
0.01248386695
0.01256043284
0.01264951391
0.01273105635
0.01282151886
0.01291030464
0.01300003673
0.01308408275
0.01317835746
0.01326717936
0.01335604151
0.01344393759
0.01354938687
0.01364518103
0.01373998195
0.0138438843
0.01394951224
0.01405263593
0.01415672327
0.01426073229
0.01436975905
0.01447836817
0.01459285214
0.01471087026
0.01481833043
0.01492778127
0.01504685632
0.01517101601
0.01528544256
0.01542387424
0.0155477051
0.015663205
0.01579999068
0.01592804756
0.01605644185
0.01619332998
0.01634064908
0.01649716505
0.01663427293
0.01678322932
0.01693578113
0.01708420731
0.01725375167
0.017388776
0.01756344872
0.01771926315
0.01787892219
0.01806910353
0.01823446095
0.01842338903
0.01859866187
0.01876362233
0.01894542234
0.01914737551
0.01933337987
0.01954340151
0.01974387589
0.01995679518
0.02016692353
0.02038722978
0.02060106761
0.02083326269
0.02105926549
0.02129043254
0.02154035242
0.02178736818
0.02203784214
0.02229436842
0.02255233331
0.02280935092
0.02308726321
0.02338176167
0.02366518686
0.02397056981
0.02426495252
0.0245826414
0.02489837753
0.02523985618
0.0255911562
0.02592763307
0.0262819175
0.02666278556
0.02705048557
0.02744866029
0.02784222357
0.02825109947
0.02867405805
0.02913372022
0.02959909269
0.03005716916
0.0305194526
0.03102828848
0.03154680291
0.03204848171
0.0326056532
0.0331577434
0.03380122635
0.03438651272
0.03498465849
0.0356416638
0.03633664449
0.03705076826
0.03778635057
0.03852584122
0.03932600113
0.04019945152
0.04107642943
0.04192435281
0.04284154293
0.04386761883
0.04491640992
0.04600018925
0.0471169699
0.04828605131
0.04954904841
0.0508948354
0.05220103555
0.0536902942
0.0552741889
0.05699679056
0.05870341699
0.06055105119
0.06259846503
0.06469546145
0.06678947763
0.06924035106
0.07200485858
0.07477521428
0.07783000445
0.08116846844
0.08471264946
0.08885471134
0.09313414314
0.09777716299
0.1030104102
0.108960968
0.1156290652
0.1229897012
0.1316504567
0.1413623288
0.1524438772
0.1659846522
0.1818706523
0.200940408
0.224961405
0.2557772148
0.2964191241
0.3558418397
0.4482520963
0.6333709482
)
;
    }
    inlet
    {
        type            calculated;
        value           nonuniform List<scalar> 5(0.009376596229 0.009377118446 0.009378790745 0.009381909071 0.009376714749);
    }
    outlet
    {
        type            calculated;
        value           nonuniform List<scalar> 5(0.6290155444 0.6306519691 0.6305973661 0.6303109302 0.6333709482);
    }
    back
    {
        type            symmetry;
    }
    front
    {
        type            symmetry;
    }
}


// ************************************************************************* //
