/*--------------------------------*- C++ -*----------------------------------*\
| =========                 |                                                 |
| \\      /  F ield         | OpenFOAM: The Open Source CFD Toolbox           |
|  \\    /   O peration     | Version:  v1612+                                |
|   \\  /    A nd           | Web:      www.OpenFOAM.com                      |
|    \\/     M anipulation  |                                                 |
\*---------------------------------------------------------------------------*/
FoamFile
{
    version     2.0;
    format      ascii;
    class       volScalarField;
    location    "4.78";
    object      variableHardSphereMeanFreePath_Ar2;
}
// * * * * * * * * * * * * * * * * * * * * * * * * * * * * * * * * * * * * * //

dimensions      [0 1 0 0 0 0 0];

internalField   nonuniform List<scalar> 
1000
(
0.6298663477
0.4489890508
0.3564896892
0.2977263995
0.2562327645
0.2256314844
0.2011512926
0.1819049306
0.1658973782
0.1526392272
0.1414723061
0.131388389
0.1229942188
0.1155326571
0.1090246092
0.1030965507
0.09799730976
0.09321615972
0.08876160929
0.08476689694
0.0811967999
0.07785565936
0.0748059767
0.07203920151
0.069398312
0.06699091917
0.06465535827
0.06253477504
0.06055878402
0.05872044458
0.05694327507
0.05522248448
0.05365502544
0.05216949759
0.05077197707
0.04944137675
0.04818997237
0.04698878138
0.04586964681
0.04479230011
0.04377160603
0.04279480149
0.04186803037
0.04094967303
0.04014454686
0.03925783234
0.03848601989
0.03772314367
0.03698273052
0.03629995663
0.03564690142
0.03496379433
0.03431563116
0.03373098327
0.03310222194
0.03254819797
0.03199840261
0.03146606447
0.03093954489
0.03044759532
0.02995177994
0.02948688338
0.02905589511
0.0286186102
0.02819698516
0.02778709768
0.02737480365
0.02700156915
0.02663665967
0.02625616868
0.02590898892
0.02555623088
0.02522339054
0.02489359989
0.02456564308
0.02426351615
0.02393064599
0.02364469234
0.02334702075
0.02306500765
0.02279874364
0.02251648823
0.02226297492
0.02199706204
0.02174993542
0.02151207966
0.02126380133
0.02103932303
0.02082035318
0.02058591587
0.02035773287
0.02014898695
0.01995118227
0.01974112879
0.01953882945
0.01933841891
0.01914298144
0.01895793423
0.01877143182
0.01858286342
0.01840525619
0.01823578318
0.01805635456
0.0178736656
0.01771944408
0.017554971
0.01738067614
0.01723938723
0.01707682012
0.01692126501
0.01677283107
0.01663132494
0.01647427787
0.01634705875
0.01621471976
0.0160690245
0.01593351547
0.01579379605
0.01567149947
0.01554439429
0.01542083434
0.0153079622
0.01517338401
0.01506129716
0.01494153548
0.01482084558
0.01470684578
0.01459795073
0.01447753202
0.014373141
0.01427022183
0.01415796098
0.01405916963
0.01394247987
0.01385006403
0.01375046072
0.01365308836
0.01355257922
0.01344698015
0.01335475062
0.01326438809
0.01317101977
0.01308260669
0.01299121598
0.01290486125
0.01281933243
0.0127317444
0.01264637201
0.01257224974
0.01248384201
0.01240535279
0.01232183885
0.01224013182
0.01216145372
0.01208398216
0.01200959806
0.01192774908
0.01185816697
0.0117911565
0.01171158803
0.01164446331
0.01156943732
0.01150292842
0.01143736459
0.01137184876
0.01130271558
0.01122958734
0.01116102305
0.01109414461
0.01103665538
0.01096738735
0.01090533106
0.0108476849
0.01078856748
0.01072810892
0.01066692461
0.0106104352
0.01054832586
0.01048949986
0.01043643692
0.01038102367
0.0103232544
0.01026820952
0.01020955043
0.01015955938
0.01010544424
0.01004705152
0.009993549167
0.00994551417
0.009892332329
0.009842769787
0.009793176495
0.009742399183
0.009691919423
0.009637059661
0.009584982833
0.009536257024
0.009484588045
0.009434696454
0.009376703937
0.6308016578
0.4483251195
0.3568148036
0.2974557582
0.2559564003
0.2253512597
0.2014609305
0.1815205491
0.1658552791
0.152402795
0.1411495658
0.1314928823
0.1228760368
0.1155362275
0.1090043684
0.1031405869
0.09779941316
0.0930249753
0.08863997412
0.08479322186
0.08109743857
0.07788217984
0.07483130525
0.07204703001
0.0694051689
0.06695859148
0.06467091939
0.06254895991
0.06055247486
0.05870820741
0.05690831718
0.05522381836
0.05361773169
0.05218889701
0.05081918299
0.04944594718
0.04821189265
0.04701621609
0.04587666628
0.04481339609
0.04381497824
0.04280095094
0.0418826128
0.04094664091
0.04010600898
0.03926460714
0.03843363119
0.03770270254
0.03697309542
0.03627503619
0.03561025198
0.0349316012
0.03429178194
0.0337010404
0.03309455032
0.03254507979
0.03201286649
0.03145701341
0.03094179508
0.03044681701
0.02997998099
0.02951237692
0.02903579009
0.02862019647
0.02819537541
0.02779417022
0.02737679432
0.0270057335
0.02662733745
0.02624970144
0.02588885452
0.02554508092
0.02519430249
0.02487642421
0.02455789311
0.02425348688
0.0239436554
0.02365750586
0.02335495144
0.02307149538
0.02281341214
0.02252271937
0.02225783994
0.02199937464
0.02175363531
0.02151288344
0.02126818598
0.02104097523
0.02080195233
0.02057406453
0.02035958584
0.02015444107
0.01995021784
0.01974839645
0.01953309939
0.01934587429
0.01914508557
0.01895622441
0.01876460103
0.01858219976
0.01839010034
0.0182277205
0.01805312262
0.01787472474
0.01770350014
0.01755331173
0.01739779432
0.01723564284
0.01707074968
0.01690971871
0.01678284704
0.01663189821
0.01649148093
0.01634789112
0.01620404859
0.01607097775
0.01593555479
0.0157948487
0.01567572386
0.01555711982
0.01541952803
0.01528817246
0.01517235217
0.01505985193
0.01494617746
0.01481969149
0.01470031955
0.01459406507
0.01447929753
0.01437738056
0.01426498644
0.01415927398
0.01404917955
0.01394988533
0.0138460733
0.01374407227
0.01365159883
0.01354891082
0.01344770606
0.01335579704
0.01326235016
0.01317172686
0.01308812028
0.01299278502
0.0129061391
0.01281946269
0.01273211154
0.01264856715
0.01256523717
0.01247965528
0.01239733102
0.01232182674
0.01224129172
0.01216586288
0.01209171975
0.01200693202
0.01193285364
0.01185931868
0.01178650822
0.01171357517
0.01163799322
0.01157128204
0.01150448503
0.01143292527
0.01136425145
0.01129784196
0.01122861433
0.01116244853
0.0110979315
0.01102714208
0.01096444538
0.01090109178
0.01084857038
0.01078304377
0.01072662304
0.01066697355
0.01061097315
0.01055145722
0.01048975182
0.01043281912
0.01037529085
0.01032277582
0.01026666352
0.0102123704
0.01015755166
0.01010253386
0.01004783106
0.009994758474
0.00994204252
0.009891086622
0.009837967765
0.009788296556
0.00973782757
0.009682607478
0.009637469307
0.009585091608
0.009539010838
0.009487287394
0.009432508428
0.009376696171
0.6299270849
0.4485996868
0.3563394769
0.2980355179
0.2565007287
0.2253920351
0.2016080791
0.1821546976
0.1660392624
0.1525840698
0.1412741193
0.1315404705
0.1230979497
0.1156050366
0.1090735212
0.1033251578
0.09785365889
0.09312444795
0.08874773716
0.08483714882
0.08120387012
0.07787369226
0.07481990552
0.07200107154
0.06928769574
0.06690210656
0.06469171588
0.06252800223
0.06056184196
0.05865532077
0.05695112943
0.0553138864
0.0536640508
0.05221187325
0.05083109519
0.04942830418
0.04820880535
0.0470661777
0.04591725277
0.04485384701
0.04378896025
0.04275977087
0.04183797579
0.04094304231
0.04008326799
0.03923870081
0.03846161547
0.03772931614
0.03698904254
0.03628496525
0.03559356016
0.03492485927
0.03429279819
0.03372407748
0.03310080335
0.03251088557
0.0320030621
0.03148632944
0.03096233942
0.03046318929
0.0299937428
0.0295108498
0.02906741545
0.02862700084
0.02820159877
0.0277947002
0.02739228819
0.02699871978
0.02663487597
0.02625830048
0.02587220426
0.0255401663
0.02521851215
0.02487853114
0.02456423948
0.02423870896
0.02393796229
0.02364837208
0.02335319586
0.02307002953
0.0228024789
0.02254702446
0.02225859649
0.02200282855
0.02174920801
0.02148648625
0.02127025621
0.02103039649
0.02079929903
0.02057547869
0.02035437817
0.02015744675
0.01994145103
0.01974144769
0.01952579977
0.01933161863
0.01913766823
0.01894502565
0.0187582608
0.01858381105
0.01839939387
0.01822689935
0.01806109917
0.01788231284
0.01771659918
0.01754286846
0.01739704075
0.01723400521
0.01707361897
0.01691004769
0.01677153627
0.01663207288
0.01649176979
0.01634485062
0.01619696856
0.01605336105
0.01593975349
0.01580353267
0.01567488535
0.01555570996
0.01542025548
0.01529284286
0.01517312647
0.01505121229
0.01493996637
0.01482063153
0.01470912079
0.01458753798
0.01447914344
0.01437907028
0.01426944538
0.01415638037
0.01405415526
0.01394877311
0.01384359318
0.01374795645
0.01364956198
0.01355011675
0.01345078571
0.01334942278
0.01326769758
0.01316865397
0.01308133552
0.01298820375
0.01290916396
0.01281915887
0.01273181496
0.01264703288
0.01256670238
0.01247979973
0.01239273545
0.01231793295
0.01224352067
0.01216242189
0.01209107855
0.0120065546
0.01193010422
0.01185074813
0.01178783435
0.01171353375
0.01164242041
0.01157222279
0.01149918053
0.01143617669
0.01136974737
0.01129885288
0.01123373145
0.01116186437
0.01110142137
0.01103067774
0.01097170408
0.01090580896
0.01084770671
0.01078704443
0.01072496626
0.01066280786
0.01060982291
0.01054815322
0.01049529511
0.01043077289
0.01038009505
0.01032196026
0.01026552053
0.01021006886
0.01015522652
0.01010197613
0.01004939022
0.009994730274
0.0099450206
0.009892584172
0.00983844994
0.009788827806
0.009740060525
0.009689785208
0.009640908428
0.009591516682
0.009543222297
0.009487500106
0.009435554582
0.009376878379
0.6346994586
0.4491008754
0.3570442749
0.2975872608
0.2563730075
0.2258460588
0.2013094375
0.1817442621
0.1658052876
0.1524915311
0.1414263308
0.1315474312
0.1230876096
0.1156771542
0.1090629358
0.1033100266
0.09792855671
0.09317750858
0.08884724074
0.08484853466
0.08118767205
0.07789258109
0.07486514736
0.07199320451
0.06932780374
0.06689077317
0.06470354303
0.0625172689
0.06052951141
0.05869502389
0.05688396877
0.05524873358
0.05369170082
0.05221592939
0.05080380907
0.04949579324
0.04819758464
0.04701865878
0.0458886583
0.04482366493
0.0437782491
0.04279751242
0.04182640907
0.04096252208
0.04009020623
0.03927663379
0.03847370437
0.03773953884
0.03700380822
0.03627968724
0.03560177844
0.03495431526
0.0342948542
0.03367959769
0.03308484904
0.03251703008
0.03199617966
0.03147241708
0.03094527452
0.03042878142
0.0299758972
0.02952097748
0.02906452124
0.02862114017
0.02818723649
0.02779480527
0.02737981915
0.0270045657
0.02661946632
0.02624494185
0.02589347597
0.0255562049
0.02521633669
0.02487850974
0.02457502598
0.02423144353
0.02393866996
0.02364507874
0.02336184523
0.02306795167
0.02278663927
0.02251484346
0.02226704765
0.02201088706
0.02174727762
0.02150241243
0.02125565504
0.02103652208
0.02081049339
0.02058513347
0.0203688212
0.02015862442
0.01994301809
0.0197319204
0.01953132613
0.01935398204
0.01913757524
0.01894575177
0.01876096391
0.01858570805
0.01839884926
0.01822977414
0.0180561766
0.01789078301
0.01772255991
0.01755021079
0.0173923956
0.01724022232
0.01706854199
0.01692680515
0.01678057603
0.01663330359
0.01648593847
0.01634055236
0.01620092783
0.01606305904
0.01593127029
0.01581347264
0.01567871751
0.0155485719
0.0154240706
0.01529995069
0.01517769516
0.01505982377
0.01493615883
0.01482593072
0.01470900015
0.01459418183
0.01447836171
0.01436737986
0.01426108275
0.01415125258
0.01405573688
0.01395241781
0.01385079868
0.01374819806
0.01364119401
0.01354321745
0.01344072243
0.01335643226
0.01326420572
0.01317417154
0.01308365449
0.01298932401
0.01290761326
0.01282195989
0.01273296488
0.01264917441
0.01256904788
0.01248032379
0.01239215734
0.01231791763
0.01223926308
0.01216154345
0.01208090438
0.01200050332
0.01192865439
0.01185863354
0.01178764818
0.01171316262
0.01164376317
0.01157118658
0.0115011952
0.01143294632
0.01136120561
0.01130097642
0.0112340652
0.01116592502
0.01110356377
0.01103471803
0.01096925054
0.01090574064
0.0108466442
0.01078476023
0.01072469702
0.01066702195
0.01061517332
0.01054826838
0.01049609497
0.01043625998
0.01037785982
0.01032488197
0.01026673532
0.01020981779
0.01016024209
0.01010107311
0.01004689721
0.00999496505
0.009943398061
0.009891163989
0.00984148642
0.009788286358
0.009740011972
0.009689829979
0.009642068055
0.009588777791
0.009538430384
0.009492249465
0.00943719332
0.009374982349
0.6331866883
0.4490941776
0.3560637896
0.2975848218
0.2563238686
0.2255274158
0.2009517379
0.1816652347
0.165754297
0.152538316
0.1415758098
0.1316754864
0.1232192372
0.1157623988
0.1089654979
0.1031152844
0.09793496246
0.09312431917
0.08882515445
0.08489926897
0.08118389848
0.07801227489
0.07489176259
0.07208411921
0.06938190442
0.06689127908
0.06463054137
0.0625042899
0.06047441078
0.05865425706
0.05695778987
0.05525906185
0.05363957128
0.05218924004
0.0507954896
0.04958302123
0.0482398393
0.0470054939
0.04587080373
0.04478134895
0.04380238226
0.04283474055
0.04187795427
0.04093310467
0.0400638031
0.03926976412
0.03843295418
0.03773696885
0.03702119125
0.03631563751
0.03564504185
0.03497093415
0.03430566609
0.0337002037
0.03312412729
0.03252120551
0.03200067572
0.03147166044
0.03096398954
0.03045895849
0.02999070577
0.02952670828
0.02907024215
0.02863718738
0.02819117032
0.02779157216
0.02739758316
0.02700517069
0.02663145799
0.02627583184
0.02589759595
0.02555608904
0.02521049464
0.02490457955
0.02457470226
0.02426047358
0.02393803425
0.02362995944
0.02334789871
0.02307038506
0.02278526108
0.02252565241
0.02226672633
0.02201545383
0.02176842813
0.02150582344
0.02126722214
0.02102818352
0.02079891752
0.02057689127
0.02036278338
0.02013808985
0.01994114117
0.0197455003
0.01953205695
0.01934277189
0.0191436796
0.01894695239
0.01876664205
0.01857024328
0.01840364361
0.01822805874
0.01805226807
0.01788420731
0.01771075561
0.01754539579
0.01740118986
0.01723233461
0.01707116273
0.01692538684
0.01677768846
0.01662619444
0.01647845666
0.01634054818
0.01619876972
0.01606655637
0.01592323184
0.01580536068
0.01567631534
0.0155482358
0.0154247353
0.01530583524
0.01517888723
0.01505248777
0.01493727326
0.01482199427
0.01470631376
0.01459471184
0.01447696516
0.01436842755
0.01426808175
0.0141565514
0.01404964144
0.01394606015
0.01384627039
0.01373613019
0.01363931128
0.0135421146
0.01344676018
0.0133559255
0.01325804844
0.01316921509
0.01307824407
0.01298842139
0.01290513076
0.01282113184
0.01273390243
0.01265479632
0.01257293439
0.01247784141
0.01239855104
0.01231976056
0.01224020314
0.01216119381
0.01208265029
0.01200225511
0.01192577951
0.01185426234
0.01178531266
0.01172057167
0.01164642819
0.01157224496
0.01149775921
0.01142702474
0.01136084089
0.01129973386
0.0112308636
0.01116705726
0.0110983513
0.01103537229
0.0109784532
0.01091297655
0.01084871849
0.01078602577
0.01072969145
0.0106719798
0.01061074486
0.01055511661
0.01049214596
0.01043373921
0.01038048529
0.01032520871
0.01027221934
0.01021067327
0.01016142355
0.01010319687
0.01004957606
0.009994776705
0.009943660221
0.009890837772
0.00983793984
0.009789902362
0.009743952116
0.009692867477
0.009642289661
0.009592029007
0.009537948553
0.009490247148
0.009440181902
0.0093774955
)
;

boundaryField
{
    bottom
    {
        type            calculated;
        value           nonuniform List<scalar> 
200
(
0.6298663477
0.4489890508
0.3564896892
0.2977263995
0.2562327645
0.2256314844
0.2011512926
0.1819049306
0.1658973782
0.1526392272
0.1414723061
0.131388389
0.1229942188
0.1155326571
0.1090246092
0.1030965507
0.09799730976
0.09321615972
0.08876160929
0.08476689694
0.0811967999
0.07785565936
0.0748059767
0.07203920151
0.069398312
0.06699091917
0.06465535827
0.06253477504
0.06055878402
0.05872044458
0.05694327507
0.05522248448
0.05365502544
0.05216949759
0.05077197707
0.04944137675
0.04818997237
0.04698878138
0.04586964681
0.04479230011
0.04377160603
0.04279480149
0.04186803037
0.04094967303
0.04014454686
0.03925783234
0.03848601989
0.03772314367
0.03698273052
0.03629995663
0.03564690142
0.03496379433
0.03431563116
0.03373098327
0.03310222194
0.03254819797
0.03199840261
0.03146606447
0.03093954489
0.03044759532
0.02995177994
0.02948688338
0.02905589511
0.0286186102
0.02819698516
0.02778709768
0.02737480365
0.02700156915
0.02663665967
0.02625616868
0.02590898892
0.02555623088
0.02522339054
0.02489359989
0.02456564308
0.02426351615
0.02393064599
0.02364469234
0.02334702075
0.02306500765
0.02279874364
0.02251648823
0.02226297492
0.02199706204
0.02174993542
0.02151207966
0.02126380133
0.02103932303
0.02082035318
0.02058591587
0.02035773287
0.02014898695
0.01995118227
0.01974112879
0.01953882945
0.01933841891
0.01914298144
0.01895793423
0.01877143182
0.01858286342
0.01840525619
0.01823578318
0.01805635456
0.0178736656
0.01771944408
0.017554971
0.01738067614
0.01723938723
0.01707682012
0.01692126501
0.01677283107
0.01663132494
0.01647427787
0.01634705875
0.01621471976
0.0160690245
0.01593351547
0.01579379605
0.01567149947
0.01554439429
0.01542083434
0.0153079622
0.01517338401
0.01506129716
0.01494153548
0.01482084558
0.01470684578
0.01459795073
0.01447753202
0.014373141
0.01427022183
0.01415796098
0.01405916963
0.01394247987
0.01385006403
0.01375046072
0.01365308836
0.01355257922
0.01344698015
0.01335475062
0.01326438809
0.01317101977
0.01308260669
0.01299121598
0.01290486125
0.01281933243
0.0127317444
0.01264637201
0.01257224974
0.01248384201
0.01240535279
0.01232183885
0.01224013182
0.01216145372
0.01208398216
0.01200959806
0.01192774908
0.01185816697
0.0117911565
0.01171158803
0.01164446331
0.01156943732
0.01150292842
0.01143736459
0.01137184876
0.01130271558
0.01122958734
0.01116102305
0.01109414461
0.01103665538
0.01096738735
0.01090533106
0.0108476849
0.01078856748
0.01072810892
0.01066692461
0.0106104352
0.01054832586
0.01048949986
0.01043643692
0.01038102367
0.0103232544
0.01026820952
0.01020955043
0.01015955938
0.01010544424
0.01004705152
0.009993549167
0.00994551417
0.009892332329
0.009842769787
0.009793176495
0.009742399183
0.009691919423
0.009637059661
0.009584982833
0.009536257024
0.009484588045
0.009434696454
0.009376703937
)
;
    }
    top
    {
        type            calculated;
        value           nonuniform List<scalar> 
200
(
0.6331866883
0.4490941776
0.3560637896
0.2975848218
0.2563238686
0.2255274158
0.2009517379
0.1816652347
0.165754297
0.152538316
0.1415758098
0.1316754864
0.1232192372
0.1157623988
0.1089654979
0.1031152844
0.09793496246
0.09312431917
0.08882515445
0.08489926897
0.08118389848
0.07801227489
0.07489176259
0.07208411921
0.06938190442
0.06689127908
0.06463054137
0.0625042899
0.06047441078
0.05865425706
0.05695778987
0.05525906185
0.05363957128
0.05218924004
0.0507954896
0.04958302123
0.0482398393
0.0470054939
0.04587080373
0.04478134895
0.04380238226
0.04283474055
0.04187795427
0.04093310467
0.0400638031
0.03926976412
0.03843295418
0.03773696885
0.03702119125
0.03631563751
0.03564504185
0.03497093415
0.03430566609
0.0337002037
0.03312412729
0.03252120551
0.03200067572
0.03147166044
0.03096398954
0.03045895849
0.02999070577
0.02952670828
0.02907024215
0.02863718738
0.02819117032
0.02779157216
0.02739758316
0.02700517069
0.02663145799
0.02627583184
0.02589759595
0.02555608904
0.02521049464
0.02490457955
0.02457470226
0.02426047358
0.02393803425
0.02362995944
0.02334789871
0.02307038506
0.02278526108
0.02252565241
0.02226672633
0.02201545383
0.02176842813
0.02150582344
0.02126722214
0.02102818352
0.02079891752
0.02057689127
0.02036278338
0.02013808985
0.01994114117
0.0197455003
0.01953205695
0.01934277189
0.0191436796
0.01894695239
0.01876664205
0.01857024328
0.01840364361
0.01822805874
0.01805226807
0.01788420731
0.01771075561
0.01754539579
0.01740118986
0.01723233461
0.01707116273
0.01692538684
0.01677768846
0.01662619444
0.01647845666
0.01634054818
0.01619876972
0.01606655637
0.01592323184
0.01580536068
0.01567631534
0.0155482358
0.0154247353
0.01530583524
0.01517888723
0.01505248777
0.01493727326
0.01482199427
0.01470631376
0.01459471184
0.01447696516
0.01436842755
0.01426808175
0.0141565514
0.01404964144
0.01394606015
0.01384627039
0.01373613019
0.01363931128
0.0135421146
0.01344676018
0.0133559255
0.01325804844
0.01316921509
0.01307824407
0.01298842139
0.01290513076
0.01282113184
0.01273390243
0.01265479632
0.01257293439
0.01247784141
0.01239855104
0.01231976056
0.01224020314
0.01216119381
0.01208265029
0.01200225511
0.01192577951
0.01185426234
0.01178531266
0.01172057167
0.01164642819
0.01157224496
0.01149775921
0.01142702474
0.01136084089
0.01129973386
0.0112308636
0.01116705726
0.0110983513
0.01103537229
0.0109784532
0.01091297655
0.01084871849
0.01078602577
0.01072969145
0.0106719798
0.01061074486
0.01055511661
0.01049214596
0.01043373921
0.01038048529
0.01032520871
0.01027221934
0.01021067327
0.01016142355
0.01010319687
0.01004957606
0.009994776705
0.009943660221
0.009890837772
0.00983793984
0.009789902362
0.009743952116
0.009692867477
0.009642289661
0.009592029007
0.009537948553
0.009490247148
0.009440181902
0.0093774955
)
;
    }
    inlet
    {
        type            calculated;
        value           nonuniform List<scalar> 5(0.6298663477 0.6308016578 0.6299270849 0.6346994586 0.6331866883);
    }
    outlet
    {
        type            calculated;
        value           nonuniform List<scalar> 5(0.009376703937 0.009376696171 0.009376878379 0.009374982349 0.0093774955);
    }
    back
    {
        type            symmetry;
    }
    front
    {
        type            symmetry;
    }
}


// ************************************************************************* //
