# Probe 0 (5e-06 5e-06 5e-06)
#           Probe                 0
#            Time
            1e-08   1.397867368e-08
            2e-08   1.397774668e-08
            3e-08   1.398064165e-08
            4e-08    1.39832324e-08
            5e-08   1.398461492e-08
            6e-08   1.398752012e-08
            7e-08   1.399216027e-08
            8e-08   1.399648465e-08
            9e-08   1.399813987e-08
            1e-07   1.400332085e-08
          1.1e-07   1.400759218e-08
          1.2e-07   1.400989954e-08
          1.3e-07   1.400556062e-08
          1.4e-07   1.400907046e-08
          1.5e-07   1.401949542e-08
          1.6e-07   1.402227127e-08
          1.7e-07   1.402067318e-08
          1.8e-07   1.402370986e-08
          1.9e-07   1.402494374e-08
            2e-07    1.40284127e-08
          2.1e-07   1.403450512e-08
          2.2e-07   1.403333723e-08
          2.3e-07   1.403539986e-08
          2.4e-07   1.403369185e-08
          2.5e-07   1.403740855e-08
          2.6e-07    1.40414259e-08
          2.7e-07   1.404327566e-08
          2.8e-07    1.40466725e-08
          2.9e-07    1.40488548e-08
            3e-07   1.404657576e-08
          3.1e-07   1.404710352e-08
          3.2e-07   1.404508476e-08
          3.3e-07   1.405052918e-08
          3.4e-07   1.405105619e-08
          3.5e-07   1.405216849e-08
          3.6e-07   1.406281079e-08
          3.7e-07   1.406062134e-08
          3.8e-07   1.406086266e-08
          3.9e-07   1.406361458e-08
            4e-07   1.406483081e-08
          4.1e-07    1.40655239e-08
          4.2e-07    1.40701068e-08
          4.3e-07   1.406914407e-08
          4.4e-07   1.406613606e-08
          4.5e-07   1.406518779e-08
          4.6e-07   1.406534177e-08
          4.7e-07   1.406685762e-08
          4.8e-07   1.406902091e-08
          4.9e-07    1.40730371e-08
            5e-07   1.407673483e-08
          5.1e-07   1.408168916e-08
          5.2e-07   1.408613923e-08
          5.3e-07   1.408770576e-08
          5.4e-07   1.408826246e-08
          5.5e-07   1.408858054e-08
          5.6e-07   1.409022508e-08
          5.7e-07   1.409660808e-08
          5.8e-07   1.409337435e-08
          5.9e-07   1.409602285e-08
            6e-07   1.409423936e-08
          6.1e-07   1.409588339e-08
          6.2e-07   1.409692379e-08
          6.3e-07   1.410072213e-08
          6.4e-07   1.410271875e-08
          6.5e-07   1.409696243e-08
          6.6e-07   1.409781475e-08
          6.7e-07   1.409835499e-08
          6.8e-07   1.410731401e-08
          6.9e-07   1.411527568e-08
            7e-07   1.411442965e-08
          7.1e-07   1.411637614e-08
          7.2e-07   1.411899311e-08
          7.3e-07   1.411840952e-08
          7.4e-07   1.411584579e-08
          7.5e-07   1.411474026e-08
          7.6e-07   1.411884352e-08
          7.7e-07   1.412412811e-08
          7.8e-07    1.41223124e-08
          7.9e-07   1.412684524e-08
            8e-07   1.412561781e-08
          8.1e-07   1.412634555e-08
          8.2e-07   1.413253691e-08
          8.3e-07   1.413533204e-08
          8.4e-07   1.413513309e-08
          8.5e-07    1.41380944e-08
          8.6e-07   1.413604063e-08
          8.7e-07   1.414181227e-08
          8.8e-07   1.414797085e-08
          8.9e-07   1.414707306e-08
            9e-07    1.41491141e-08
          9.1e-07   1.415454448e-08
          9.2e-07   1.415524401e-08
          9.3e-07   1.415438253e-08
          9.4e-07   1.415860725e-08
          9.5e-07   1.416214916e-08
          9.6e-07   1.416680591e-08
          9.7e-07   1.416518591e-08
          9.8e-07   1.416996305e-08
          9.9e-07   1.417346074e-08
            1e-06   1.417582849e-08
         1.01e-06   1.417355202e-08
         1.02e-06   1.417387569e-08
         1.03e-06   1.417559559e-08
         1.04e-06   1.417762752e-08
         1.05e-06   1.417696093e-08
         1.06e-06    1.41794874e-08
         1.07e-06   1.417747309e-08
         1.08e-06   1.417996654e-08
         1.09e-06    1.41801468e-08
          1.1e-06   1.417883296e-08
         1.11e-06   1.418543015e-08
         1.12e-06   1.418908426e-08
         1.13e-06    1.41876566e-08
         1.14e-06   1.419358225e-08
         1.15e-06   1.419330956e-08
         1.16e-06   1.419436229e-08
         1.17e-06   1.419496131e-08
         1.18e-06     1.4187434e-08
         1.19e-06   1.418767173e-08
          1.2e-06   1.418753855e-08
         1.21e-06   1.419036014e-08
         1.22e-06   1.419106254e-08
         1.23e-06   1.419121913e-08
         1.24e-06   1.419536053e-08
         1.25e-06   1.419869897e-08
         1.26e-06   1.419889784e-08
         1.27e-06   1.419553974e-08
         1.28e-06   1.419855935e-08
         1.29e-06   1.420251771e-08
          1.3e-06   1.420174582e-08
         1.31e-06   1.420336311e-08
         1.32e-06   1.421179316e-08
         1.33e-06     1.4213252e-08
         1.34e-06   1.421182521e-08
         1.35e-06   1.421150775e-08
         1.36e-06   1.421342552e-08
         1.37e-06   1.421385287e-08
         1.38e-06   1.421638797e-08
         1.39e-06   1.421359349e-08
          1.4e-06   1.421634955e-08
         1.41e-06   1.422127777e-08
         1.42e-06   1.422623863e-08
         1.43e-06   1.422785206e-08
         1.44e-06   1.423287077e-08
         1.45e-06   1.423402108e-08
         1.46e-06   1.423410068e-08
         1.47e-06   1.423362843e-08
         1.48e-06   1.423211735e-08
         1.49e-06   1.423737854e-08
          1.5e-06   1.423604157e-08
         1.51e-06   1.423861157e-08
         1.52e-06   1.424360192e-08
         1.53e-06   1.424139636e-08
         1.54e-06   1.424296471e-08
         1.55e-06   1.424014574e-08
         1.56e-06   1.424355954e-08
         1.57e-06   1.424681385e-08
         1.58e-06   1.424489864e-08
         1.59e-06   1.424561945e-08
          1.6e-06   1.424836763e-08
         1.61e-06   1.424694565e-08
         1.62e-06   1.424807418e-08
         1.63e-06   1.425414969e-08
         1.64e-06   1.425501114e-08
         1.65e-06    1.42560215e-08
         1.66e-06   1.425778367e-08
         1.67e-06   1.426249916e-08
         1.68e-06   1.426849498e-08
         1.69e-06   1.426897518e-08
          1.7e-06   1.426764097e-08
         1.71e-06   1.427273965e-08
         1.72e-06   1.427695918e-08
         1.73e-06   1.427293582e-08
         1.74e-06   1.427366717e-08
         1.75e-06   1.427632245e-08
         1.76e-06   1.427669987e-08
         1.77e-06   1.427336957e-08
         1.78e-06   1.426885251e-08
         1.79e-06   1.427324387e-08
          1.8e-06   1.427230631e-08
         1.81e-06   1.427357365e-08
         1.82e-06   1.427185457e-08
         1.83e-06    1.42726165e-08
         1.84e-06   1.426840688e-08
         1.85e-06   1.426642237e-08
         1.86e-06    1.42697997e-08
         1.87e-06   1.427135221e-08
         1.88e-06   1.427353918e-08
         1.89e-06   1.427506715e-08
          1.9e-06   1.427661537e-08
         1.91e-06    1.42761368e-08
         1.92e-06   1.428031154e-08
         1.93e-06   1.427830451e-08
         1.94e-06   1.427967087e-08
         1.95e-06   1.428075676e-08
         1.96e-06   1.428220659e-08
         1.97e-06   1.428227574e-08
         1.98e-06   1.428398712e-08
         1.99e-06   1.428437631e-08
            2e-06   1.428815872e-08
         2.01e-06   1.428789651e-08
         2.02e-06   1.429311904e-08
         2.03e-06   1.429713016e-08
         2.04e-06   1.429692452e-08
         2.05e-06   1.429953731e-08
         2.06e-06   1.430820421e-08
         2.07e-06   1.430868838e-08
         2.08e-06   1.430614595e-08
         2.09e-06   1.430435358e-08
          2.1e-06   1.430548496e-08
         2.11e-06   1.430623562e-08
         2.12e-06   1.430811557e-08
         2.13e-06   1.431028282e-08
         2.14e-06    1.43093437e-08
         2.15e-06   1.430966913e-08
         2.16e-06   1.431028616e-08
         2.17e-06   1.431072483e-08
         2.18e-06   1.431082517e-08
         2.19e-06    1.43112541e-08
          2.2e-06   1.431347296e-08
         2.21e-06   1.431660416e-08
         2.22e-06   1.431382561e-08
         2.23e-06   1.431483334e-08
         2.24e-06    1.43145846e-08
         2.25e-06   1.431807049e-08
         2.26e-06   1.432056439e-08
         2.27e-06   1.431999887e-08
         2.28e-06   1.432206923e-08
         2.29e-06   1.432345768e-08
          2.3e-06   1.432784474e-08
         2.31e-06   1.432898676e-08
         2.32e-06   1.433076931e-08
         2.33e-06   1.433115264e-08
         2.34e-06   1.432901775e-08
         2.35e-06   1.432751372e-08
         2.36e-06   1.432983206e-08
         2.37e-06   1.433061557e-08
         2.38e-06   1.432775609e-08
         2.39e-06   1.433071358e-08
          2.4e-06    1.43307446e-08
         2.41e-06   1.433237122e-08
         2.42e-06   1.433247026e-08
         2.43e-06   1.433085485e-08
         2.44e-06   1.433263017e-08
         2.45e-06   1.433312473e-08
         2.46e-06   1.433149901e-08
         2.47e-06   1.433084365e-08
         2.48e-06   1.433173277e-08
         2.49e-06   1.433270348e-08
          2.5e-06   1.433459909e-08
         2.51e-06   1.433680801e-08
         2.52e-06   1.433472459e-08
         2.53e-06   1.433837572e-08
         2.54e-06   1.434184482e-08
         2.55e-06    1.43438048e-08
         2.56e-06   1.434278138e-08
         2.57e-06   1.434223743e-08
         2.58e-06   1.434444372e-08
         2.59e-06   1.434688132e-08
          2.6e-06   1.434642923e-08
         2.61e-06   1.434573287e-08
         2.62e-06   1.434727122e-08
         2.63e-06   1.435287833e-08
         2.64e-06    1.43510908e-08
         2.65e-06   1.435724877e-08
         2.66e-06   1.435755524e-08
         2.67e-06   1.435805396e-08
         2.68e-06   1.435615362e-08
         2.69e-06    1.43555464e-08
          2.7e-06    1.43587703e-08
         2.71e-06   1.435659237e-08
         2.72e-06    1.43603059e-08
         2.73e-06   1.436444712e-08
         2.74e-06    1.43656877e-08
         2.75e-06   1.436662318e-08
         2.76e-06   1.436530899e-08
         2.77e-06   1.436840099e-08
         2.78e-06   1.437240884e-08
         2.79e-06   1.437278119e-08
          2.8e-06   1.437716763e-08
         2.81e-06   1.437926154e-08
         2.82e-06   1.437528185e-08
         2.83e-06   1.437562094e-08
         2.84e-06   1.437498881e-08
         2.85e-06   1.437609432e-08
         2.86e-06   1.437621598e-08
         2.87e-06   1.437286749e-08
         2.88e-06   1.437408325e-08
         2.89e-06   1.437510382e-08
          2.9e-06   1.437597051e-08
         2.91e-06   1.437492826e-08
         2.92e-06   1.437426677e-08
         2.93e-06   1.437165004e-08
         2.94e-06   1.437252419e-08
         2.95e-06   1.437323825e-08
         2.96e-06   1.437786844e-08
         2.97e-06   1.437452896e-08
         2.98e-06   1.437634621e-08
         2.99e-06   1.437322411e-08
            3e-06   1.437036825e-08
         3.01e-06     1.4370917e-08
         3.02e-06   1.436994515e-08
         3.03e-06   1.437106742e-08
         3.04e-06   1.437541642e-08
         3.05e-06   1.437927821e-08
         3.06e-06   1.438416964e-08
         3.07e-06   1.438102652e-08
         3.08e-06   1.438531297e-08
         3.09e-06   1.438601897e-08
          3.1e-06    1.43886883e-08
         3.11e-06   1.438395434e-08
         3.12e-06   1.438798802e-08
         3.13e-06   1.439363482e-08
         3.14e-06   1.439503421e-08
         3.15e-06   1.439338518e-08
         3.16e-06   1.439394952e-08
         3.17e-06   1.439710804e-08
         3.18e-06   1.439985702e-08
         3.19e-06   1.440309649e-08
          3.2e-06   1.440217581e-08
         3.21e-06   1.440168949e-08
         3.22e-06   1.439809666e-08
         3.23e-06   1.440117679e-08
         3.24e-06   1.440092689e-08
         3.25e-06   1.440044491e-08
         3.26e-06   1.440157299e-08
         3.27e-06    1.44023712e-08
         3.28e-06    1.44035998e-08
         3.29e-06   1.440921485e-08
          3.3e-06   1.441065033e-08
         3.31e-06    1.44103481e-08
         3.32e-06   1.441114877e-08
         3.33e-06   1.440913847e-08
         3.34e-06   1.440702452e-08
         3.35e-06   1.441102243e-08
         3.36e-06   1.441437202e-08
         3.37e-06   1.441346258e-08
         3.38e-06   1.441147215e-08
         3.39e-06   1.441178473e-08
          3.4e-06   1.441341142e-08
         3.41e-06   1.441237808e-08
         3.42e-06   1.440994987e-08
         3.43e-06   1.440463372e-08
         3.44e-06   1.440872455e-08
         3.45e-06   1.440946597e-08
         3.46e-06   1.440922581e-08
         3.47e-06   1.441564545e-08
         3.48e-06   1.442095193e-08
         3.49e-06     1.4422368e-08
          3.5e-06   1.442474379e-08
         3.51e-06   1.442597673e-08
         3.52e-06   1.442478287e-08
         3.53e-06   1.442001504e-08
         3.54e-06   1.442033429e-08
         3.55e-06   1.442083176e-08
         3.56e-06   1.442432289e-08
         3.57e-06   1.442402804e-08
         3.58e-06   1.442471876e-08
         3.59e-06    1.44233763e-08
          3.6e-06   1.442366519e-08
         3.61e-06   1.442245132e-08
         3.62e-06   1.442581957e-08
         3.63e-06    1.44274868e-08
         3.64e-06   1.442699368e-08
         3.65e-06   1.443098867e-08
         3.66e-06   1.443015033e-08
         3.67e-06   1.442868103e-08
         3.68e-06   1.443436611e-08
         3.69e-06    1.44342983e-08
          3.7e-06   1.443407747e-08
         3.71e-06    1.44336992e-08
         3.72e-06   1.443166036e-08
         3.73e-06   1.443346363e-08
         3.74e-06   1.442980632e-08
         3.75e-06   1.443106835e-08
         3.76e-06   1.442579965e-08
         3.77e-06   1.442634713e-08
         3.78e-06   1.443265241e-08
         3.79e-06   1.443352041e-08
          3.8e-06    1.44315497e-08
         3.81e-06   1.443188575e-08
         3.82e-06    1.44344331e-08
         3.83e-06   1.443612896e-08
         3.84e-06   1.444144959e-08
         3.85e-06   1.444123549e-08
         3.86e-06   1.444377362e-08
         3.87e-06   1.444472047e-08
         3.88e-06   1.444617381e-08
         3.89e-06   1.444150659e-08
          3.9e-06   1.444373989e-08
         3.91e-06    1.44450864e-08
         3.92e-06   1.445396743e-08
         3.93e-06   1.445400336e-08
         3.94e-06    1.44544158e-08
         3.95e-06   1.445986977e-08
         3.96e-06   1.446157207e-08
         3.97e-06   1.445942759e-08
         3.98e-06   1.446182442e-08
         3.99e-06   1.446145999e-08
            4e-06   1.445957487e-08
         4.01e-06   1.446136478e-08
         4.02e-06   1.446742892e-08
         4.03e-06   1.446503198e-08
         4.04e-06   1.446367511e-08
         4.05e-06   1.446309329e-08
         4.06e-06    1.44623498e-08
         4.07e-06   1.446407761e-08
         4.08e-06   1.446690279e-08
         4.09e-06   1.447151212e-08
          4.1e-06    1.44737067e-08
         4.11e-06   1.447378774e-08
         4.12e-06   1.447185485e-08
         4.13e-06   1.447243074e-08
         4.14e-06   1.446963789e-08
         4.15e-06   1.446760521e-08
         4.16e-06   1.446626437e-08
         4.17e-06   1.446994766e-08
         4.18e-06   1.446938915e-08
         4.19e-06   1.446625044e-08
          4.2e-06   1.447124101e-08
         4.21e-06   1.447305304e-08
         4.22e-06   1.447035166e-08
         4.23e-06   1.446881849e-08
         4.24e-06    1.44724961e-08
         4.25e-06   1.447450399e-08
         4.26e-06   1.447722912e-08
         4.27e-06   1.447791809e-08
         4.28e-06   1.447266037e-08
         4.29e-06   1.447353575e-08
          4.3e-06   1.446987346e-08
         4.31e-06   1.446982341e-08
         4.32e-06   1.447244605e-08
         4.33e-06   1.446992139e-08
         4.34e-06   1.447155315e-08
         4.35e-06   1.447751339e-08
         4.36e-06   1.447683647e-08
         4.37e-06   1.447606833e-08
         4.38e-06   1.447584166e-08
         4.39e-06   1.447947673e-08
          4.4e-06   1.448091936e-08
         4.41e-06   1.448024539e-08
         4.42e-06   1.448152438e-08
         4.43e-06   1.448376422e-08
         4.44e-06   1.448396329e-08
         4.45e-06   1.448711796e-08
         4.46e-06    1.44881864e-08
         4.47e-06   1.448821281e-08
         4.48e-06   1.448621752e-08
         4.49e-06   1.448931876e-08
          4.5e-06   1.448856279e-08
         4.51e-06   1.448701521e-08
         4.52e-06   1.448585989e-08
         4.53e-06   1.448732139e-08
         4.54e-06   1.448506302e-08
         4.55e-06   1.448898975e-08
         4.56e-06   1.448616585e-08
         4.57e-06   1.448758388e-08
         4.58e-06   1.448596766e-08
         4.59e-06   1.448912514e-08
          4.6e-06   1.448960204e-08
         4.61e-06   1.448828071e-08
         4.62e-06   1.449258067e-08
         4.63e-06   1.449568705e-08
         4.64e-06   1.449542021e-08
         4.65e-06   1.449370855e-08
         4.66e-06   1.449021968e-08
         4.67e-06    1.44935574e-08
         4.68e-06   1.449084088e-08
         4.69e-06   1.449229361e-08
          4.7e-06    1.44975642e-08
         4.71e-06    1.44957053e-08
         4.72e-06   1.449472745e-08
         4.73e-06   1.449926396e-08
         4.74e-06   1.449923709e-08
         4.75e-06   1.449669081e-08
         4.76e-06   1.449879271e-08
         4.77e-06    1.44971188e-08
         4.78e-06   1.449816934e-08
         4.79e-06   1.449762403e-08
          4.8e-06   1.450002401e-08
         4.81e-06   1.450143105e-08
         4.82e-06   1.449813804e-08
         4.83e-06   1.449439952e-08
         4.84e-06   1.449407621e-08
         4.85e-06   1.449348091e-08
         4.86e-06   1.449245532e-08
         4.87e-06   1.449429332e-08
         4.88e-06   1.449670998e-08
         4.89e-06   1.449028465e-08
          4.9e-06   1.449174927e-08
         4.91e-06   1.448956633e-08
         4.92e-06   1.449300795e-08
         4.93e-06   1.449470491e-08
         4.94e-06   1.450147725e-08
         4.95e-06     1.4502148e-08
         4.96e-06    1.45064094e-08
         4.97e-06   1.450788944e-08
         4.98e-06   1.451003925e-08
         4.99e-06   1.450945633e-08
            5e-06   1.451404942e-08
         5.01e-06   1.451632829e-08
         5.02e-06    1.45173026e-08
         5.03e-06   1.451930163e-08
         5.04e-06   1.451704498e-08
         5.05e-06   1.451940124e-08
         5.06e-06   1.451820543e-08
         5.07e-06   1.451289741e-08
         5.08e-06   1.451257559e-08
         5.09e-06     1.4513979e-08
          5.1e-06   1.450961244e-08
         5.11e-06   1.451118068e-08
         5.12e-06   1.451540793e-08
         5.13e-06   1.452024159e-08
         5.14e-06   1.451978437e-08
         5.15e-06   1.451815201e-08
         5.16e-06   1.452057833e-08
         5.17e-06   1.452341475e-08
         5.18e-06     1.4518558e-08
         5.19e-06   1.451929923e-08
          5.2e-06   1.451868922e-08
         5.21e-06   1.452048934e-08
         5.22e-06   1.452084064e-08
         5.23e-06   1.452767529e-08
         5.24e-06   1.452454724e-08
         5.25e-06   1.452936319e-08
         5.26e-06   1.453029983e-08
         5.27e-06   1.452742194e-08
         5.28e-06   1.452816123e-08
         5.29e-06   1.452855815e-08
          5.3e-06   1.452921819e-08
         5.31e-06   1.452903203e-08
         5.32e-06   1.452262551e-08
         5.33e-06   1.452598211e-08
         5.34e-06   1.452689717e-08
         5.35e-06   1.453121633e-08
         5.36e-06   1.453110027e-08
         5.37e-06   1.452878209e-08
         5.38e-06   1.453207052e-08
         5.39e-06   1.453100836e-08
          5.4e-06   1.453473943e-08
         5.41e-06   1.453693808e-08
         5.42e-06   1.453771578e-08
         5.43e-06   1.453720173e-08
         5.44e-06   1.453618405e-08
         5.45e-06   1.453750184e-08
         5.46e-06   1.453879057e-08
         5.47e-06   1.453775013e-08
         5.48e-06   1.453551172e-08
         5.49e-06   1.453545516e-08
          5.5e-06   1.453573371e-08
         5.51e-06   1.453371136e-08
         5.52e-06    1.45292887e-08
         5.53e-06   1.452885821e-08
         5.54e-06   1.452951762e-08
         5.55e-06      1.452526e-08
         5.56e-06   1.452598308e-08
         5.57e-06   1.452936606e-08
         5.58e-06   1.453114042e-08
         5.59e-06   1.453020797e-08
          5.6e-06   1.452764424e-08
         5.61e-06   1.453162988e-08
         5.62e-06   1.453399105e-08
         5.63e-06   1.453493862e-08
         5.64e-06    1.45394915e-08
         5.65e-06   1.453636385e-08
         5.66e-06   1.453823177e-08
         5.67e-06    1.45390826e-08
         5.68e-06   1.453808319e-08
         5.69e-06   1.453524414e-08
          5.7e-06   1.453307199e-08
         5.71e-06   1.453511999e-08
         5.72e-06   1.453439125e-08
         5.73e-06   1.453386904e-08
         5.74e-06   1.453112916e-08
         5.75e-06   1.453019717e-08
         5.76e-06   1.453385336e-08
         5.77e-06   1.453807144e-08
         5.78e-06   1.453461946e-08
         5.79e-06   1.453702276e-08
          5.8e-06   1.454304706e-08
         5.81e-06   1.454388191e-08
         5.82e-06   1.454202313e-08
         5.83e-06   1.453897703e-08
         5.84e-06   1.454062606e-08
         5.85e-06   1.453905817e-08
         5.86e-06   1.453856071e-08
         5.87e-06   1.453924454e-08
         5.88e-06   1.454052803e-08
         5.89e-06   1.453949042e-08
          5.9e-06   1.453988002e-08
         5.91e-06   1.454335146e-08
         5.92e-06   1.454339159e-08
         5.93e-06   1.454603921e-08
         5.94e-06   1.454363068e-08
         5.95e-06   1.454644548e-08
         5.96e-06   1.454531632e-08
         5.97e-06   1.454820128e-08
         5.98e-06   1.455089951e-08
         5.99e-06   1.454972499e-08
            6e-06   1.454615697e-08
         6.01e-06   1.454360863e-08
         6.02e-06   1.454028211e-08
         6.03e-06   1.454401609e-08
         6.04e-06   1.454650291e-08
         6.05e-06   1.454829846e-08
         6.06e-06   1.455270535e-08
         6.07e-06   1.455504003e-08
         6.08e-06   1.455563035e-08
         6.09e-06   1.456009027e-08
          6.1e-06   1.456125447e-08
         6.11e-06   1.456021762e-08
         6.12e-06   1.456161048e-08
         6.13e-06    1.45609469e-08
         6.14e-06   1.456165593e-08
         6.15e-06   1.456124812e-08
         6.16e-06    1.45637476e-08
         6.17e-06   1.455869731e-08
         6.18e-06   1.456124292e-08
         6.19e-06   1.456186323e-08
          6.2e-06    1.45626888e-08
         6.21e-06   1.456189532e-08
         6.22e-06   1.456186691e-08
         6.23e-06   1.455869629e-08
         6.24e-06   1.456023553e-08
         6.25e-06   1.456023007e-08
         6.26e-06   1.456112149e-08
         6.27e-06   1.455869141e-08
         6.28e-06   1.456054079e-08
         6.29e-06   1.456141586e-08
          6.3e-06   1.456335943e-08
         6.31e-06   1.456226076e-08
         6.32e-06   1.456388976e-08
         6.33e-06    1.45657519e-08
         6.34e-06   1.456254659e-08
         6.35e-06   1.456145994e-08
         6.36e-06   1.456500259e-08
         6.37e-06   1.456618658e-08
         6.38e-06    1.45628859e-08
         6.39e-06    1.45562349e-08
          6.4e-06   1.455946169e-08
         6.41e-06   1.456360971e-08
         6.42e-06   1.456393289e-08
         6.43e-06   1.456719167e-08
         6.44e-06   1.456907999e-08
         6.45e-06   1.457728557e-08
         6.46e-06   1.457587582e-08
         6.47e-06   1.457667186e-08
         6.48e-06   1.457546746e-08
         6.49e-06   1.457835551e-08
          6.5e-06   1.458038012e-08
         6.51e-06   1.457930927e-08
         6.52e-06   1.457878675e-08
         6.53e-06   1.458467476e-08
         6.54e-06   1.458146576e-08
         6.55e-06   1.458437392e-08
         6.56e-06   1.458263422e-08
         6.57e-06   1.458124675e-08
         6.58e-06    1.45847235e-08
         6.59e-06    1.45820359e-08
          6.6e-06   1.458695205e-08
         6.61e-06   1.458293151e-08
         6.62e-06   1.458258084e-08
         6.63e-06   1.458399169e-08
         6.64e-06   1.458599979e-08
         6.65e-06   1.458332907e-08
         6.66e-06   1.458267537e-08
         6.67e-06   1.458887611e-08
         6.68e-06   1.458810431e-08
         6.69e-06   1.458628341e-08
          6.7e-06   1.458951626e-08
         6.71e-06   1.458841817e-08
         6.72e-06   1.458822669e-08
         6.73e-06   1.458637581e-08
         6.74e-06   1.458610884e-08
         6.75e-06   1.458635137e-08
         6.76e-06   1.458395408e-08
         6.77e-06   1.458649687e-08
         6.78e-06   1.458354402e-08
         6.79e-06   1.458816591e-08
          6.8e-06   1.459203821e-08
         6.81e-06   1.459228437e-08
         6.82e-06   1.459086271e-08
         6.83e-06   1.458907719e-08
         6.84e-06   1.458553866e-08
         6.85e-06   1.458640538e-08
         6.86e-06   1.458698371e-08
         6.87e-06   1.458696774e-08
         6.88e-06   1.459011755e-08
         6.89e-06   1.459442594e-08
          6.9e-06   1.459414927e-08
         6.91e-06    1.45943958e-08
         6.92e-06   1.459430066e-08
         6.93e-06    1.45894152e-08
         6.94e-06   1.459142449e-08
         6.95e-06   1.458946555e-08
         6.96e-06   1.459386248e-08
         6.97e-06   1.458919089e-08
         6.98e-06   1.458849731e-08
         6.99e-06   1.458721016e-08
            7e-06   1.458541173e-08
         7.01e-06   1.458440522e-08
         7.02e-06   1.458423056e-08
         7.03e-06   1.458538526e-08
         7.04e-06   1.458739718e-08
         7.05e-06   1.459178867e-08
         7.06e-06   1.459094183e-08
         7.07e-06   1.459156125e-08
         7.08e-06   1.459641054e-08
         7.09e-06   1.459980098e-08
          7.1e-06   1.460451358e-08
         7.11e-06   1.460603733e-08
         7.12e-06    1.46075582e-08
         7.13e-06   1.460404601e-08
         7.14e-06    1.46048785e-08
         7.15e-06   1.460238462e-08
         7.16e-06   1.460231771e-08
         7.17e-06   1.460358728e-08
         7.18e-06   1.460641439e-08
         7.19e-06   1.460174734e-08
          7.2e-06   1.460764204e-08
         7.21e-06   1.460886711e-08
         7.22e-06   1.460905168e-08
         7.23e-06   1.461101719e-08
         7.24e-06   1.460854295e-08
         7.25e-06   1.460884921e-08
         7.26e-06   1.460748713e-08
         7.27e-06   1.460895561e-08
         7.28e-06   1.461618737e-08
         7.29e-06   1.461637241e-08
          7.3e-06   1.461006992e-08
         7.31e-06   1.460905531e-08
         7.32e-06   1.460347662e-08
         7.33e-06   1.460881625e-08
         7.34e-06   1.460777769e-08
         7.35e-06   1.460451198e-08
         7.36e-06    1.46055344e-08
         7.37e-06   1.460551378e-08
         7.38e-06   1.460708231e-08
         7.39e-06   1.460833218e-08
          7.4e-06   1.460653107e-08
         7.41e-06   1.460185079e-08
         7.42e-06   1.460499712e-08
         7.43e-06    1.46088152e-08
         7.44e-06   1.460821798e-08
         7.45e-06   1.460660677e-08
         7.46e-06   1.461303806e-08
         7.47e-06   1.461663619e-08
         7.48e-06   1.461261119e-08
         7.49e-06   1.461076688e-08
          7.5e-06   1.460735585e-08
         7.51e-06   1.460857149e-08
         7.52e-06    1.46087865e-08
         7.53e-06   1.460692476e-08
         7.54e-06   1.461051138e-08
         7.55e-06    1.46112552e-08
         7.56e-06   1.461142595e-08
         7.57e-06   1.461009359e-08
         7.58e-06   1.461744844e-08
         7.59e-06   1.461702716e-08
          7.6e-06   1.462306211e-08
         7.61e-06   1.462261815e-08
         7.62e-06    1.46237618e-08
         7.63e-06   1.461874638e-08
         7.64e-06    1.46202114e-08
         7.65e-06   1.462739001e-08
         7.66e-06   1.462293214e-08
         7.67e-06   1.461991397e-08
         7.68e-06   1.461954793e-08
         7.69e-06   1.461685542e-08
          7.7e-06   1.462086241e-08
         7.71e-06   1.462162894e-08
         7.72e-06   1.461990399e-08
         7.73e-06   1.461779064e-08
         7.74e-06   1.461707542e-08
         7.75e-06    1.46199978e-08
         7.76e-06   1.462289096e-08
         7.77e-06   1.462506711e-08
         7.78e-06   1.462406612e-08
         7.79e-06   1.463052995e-08
          7.8e-06   1.462436755e-08
         7.81e-06   1.462424107e-08
         7.82e-06   1.462362521e-08
         7.83e-06   1.462411338e-08
         7.84e-06   1.462521767e-08
         7.85e-06   1.462125512e-08
         7.86e-06   1.461883139e-08
         7.87e-06   1.462416513e-08
         7.88e-06   1.462770386e-08
         7.89e-06    1.46300846e-08
          7.9e-06   1.462753534e-08
         7.91e-06   1.462748319e-08
         7.92e-06   1.462230678e-08
         7.93e-06    1.46199734e-08
         7.94e-06   1.462418651e-08
         7.95e-06   1.462176246e-08
         7.96e-06   1.462358746e-08
         7.97e-06   1.462683422e-08
         7.98e-06   1.462615983e-08
         7.99e-06   1.462215479e-08
            8e-06   1.462457155e-08
         8.01e-06   1.462882423e-08
         8.02e-06   1.462621833e-08
         8.03e-06   1.462247273e-08
         8.04e-06   1.462482748e-08
         8.05e-06   1.461916936e-08
         8.06e-06   1.462263054e-08
         8.07e-06    1.46273799e-08
         8.08e-06   1.462746565e-08
         8.09e-06   1.462826704e-08
          8.1e-06   1.462979206e-08
         8.11e-06   1.463622957e-08
         8.12e-06   1.463568906e-08
         8.13e-06   1.463281448e-08
         8.14e-06   1.463284608e-08
         8.15e-06   1.463102072e-08
         8.16e-06   1.462809085e-08
         8.17e-06   1.462721769e-08
         8.18e-06   1.463117698e-08
         8.19e-06   1.463209803e-08
          8.2e-06   1.463285328e-08
         8.21e-06   1.463564798e-08
         8.22e-06    1.46376667e-08
         8.23e-06   1.463984776e-08
         8.24e-06   1.463716221e-08
         8.25e-06   1.463452509e-08
         8.26e-06   1.463862953e-08
         8.27e-06   1.463599838e-08
         8.28e-06   1.463914446e-08
         8.29e-06   1.464069689e-08
          8.3e-06   1.464207771e-08
         8.31e-06   1.464470783e-08