# Probe 0 (5e-06 5e-06 5e-06)
#           Probe                 0
#            Time
            1e-08       9805.082932
            2e-08       9707.008165
            3e-08       9611.472257
            4e-08       9524.525474
            5e-08       9458.311045
            6e-08       9401.382451
            7e-08       9342.872714
            8e-08       9279.812867
            9e-08       9226.801815
            1e-07       9176.048236
          1.1e-07       9135.974251
          1.2e-07        9092.64854
          1.3e-07       9061.134708
          1.4e-07       9022.774312
          1.5e-07       8988.764025
          1.6e-07       8955.675527
          1.7e-07       8927.915001
          1.8e-07       8896.559866
          1.9e-07       8873.795533
            2e-07       8845.774559
          2.1e-07        8823.21626
          2.2e-07       8800.445595
          2.3e-07       8771.369618
          2.4e-07       8751.991373
          2.5e-07       8723.514018
          2.6e-07       8701.173374
          2.7e-07       8682.086557
          2.8e-07       8664.447122
          2.9e-07       8647.330408
            3e-07       8635.138079
          3.1e-07       8618.937131
          3.2e-07       8601.420132
          3.3e-07       8588.006049
          3.4e-07       8566.832454
          3.5e-07       8553.589833
          3.6e-07       8535.968461
          3.7e-07       8522.698715
          3.8e-07       8508.738379
          3.9e-07       8499.105639
            4e-07       8485.855921
          4.1e-07       8475.034955
          4.2e-07       8464.659564
          4.3e-07       8450.147567
          4.4e-07       8435.956063
          4.5e-07       8423.455442
          4.6e-07       8410.303202
          4.7e-07       8398.622426
          4.8e-07       8387.568026
          4.9e-07       8377.978887
            5e-07       8369.307187
          5.1e-07        8355.89271
          5.2e-07       8344.499746
          5.3e-07       8337.241525
          5.4e-07       8326.522689
          5.5e-07       8316.765187
          5.6e-07        8309.99259
          5.7e-07       8300.043992
          5.8e-07       8292.906669
          5.9e-07       8281.529384
            6e-07       8273.787334
          6.1e-07       8264.301989
          6.2e-07       8256.625842
          6.3e-07       8246.637853
          6.4e-07       8239.306117
          6.5e-07       8233.657568
          6.6e-07       8224.226558
          6.7e-07       8215.554764
          6.8e-07       8208.787076
          6.9e-07       8200.836684
            7e-07       8195.688372
          7.1e-07       8189.470712
          7.2e-07        8183.60045
          7.3e-07       8178.038001
          7.4e-07       8171.635811
          7.5e-07       8164.626632
          7.6e-07       8159.947202
          7.7e-07       8153.036636
          7.8e-07       8148.313944
          7.9e-07       8141.956336
            8e-07       8136.142975
          8.1e-07       8129.980359
          8.2e-07       8124.760574
          8.3e-07       8119.094987
          8.4e-07         8113.5297
          8.5e-07        8109.36812
          8.6e-07       8104.421291
          8.7e-07        8098.73426
          8.8e-07       8093.281323
          8.9e-07       8089.710261
            9e-07       8085.663469
          9.1e-07       8080.051683
          9.2e-07       8077.190442
          9.3e-07       8072.230102
          9.4e-07       8069.409827
          9.5e-07       8065.610716
          9.6e-07       8061.015208
          9.7e-07        8056.29686
          9.8e-07       8051.802396
          9.9e-07       8047.910313
            1e-06       8045.122874
         1.01e-06       8040.712727
         1.02e-06       8036.182788
         1.03e-06       8034.214546
         1.04e-06       8030.809357
         1.05e-06       8028.730246
         1.06e-06       8026.115107
         1.07e-06       8022.382918
         1.08e-06       8017.561758
         1.09e-06       8013.463487
          1.1e-06       8009.829184
         1.11e-06       8006.135517
         1.12e-06       8001.881867
         1.13e-06       7999.450108
         1.14e-06       7995.764067
         1.15e-06       7991.703924
         1.16e-06       7988.753475
         1.17e-06       7985.664086
         1.18e-06       7982.395454
         1.19e-06       7978.007958
          1.2e-06       7974.496432
         1.21e-06       7970.352509
         1.22e-06         7966.6095
         1.23e-06       7964.211471
         1.24e-06       7960.884389
         1.25e-06       7957.069972
         1.26e-06        7953.37774
         1.27e-06       7951.321349
         1.28e-06       7948.050356
         1.29e-06       7945.785102
          1.3e-06       7943.095088
         1.31e-06       7939.831877
         1.32e-06       7937.107296
         1.33e-06       7935.551008
         1.34e-06       7932.442403
         1.35e-06       7929.658716
         1.36e-06        7927.49365
         1.37e-06       7924.008858
         1.38e-06        7921.06052
         1.39e-06       7918.148869
          1.4e-06       7914.018991
         1.41e-06       7910.967203
         1.42e-06       7908.639797
         1.43e-06       7905.629339
         1.44e-06       7903.031875
         1.45e-06       7899.731664
         1.46e-06       7896.525044
         1.47e-06        7894.54704
         1.48e-06       7892.624008
         1.49e-06       7890.038423
          1.5e-06       7887.023708
         1.51e-06       7885.315278
         1.52e-06       7882.668745
         1.53e-06       7879.106882
         1.54e-06       7876.222845
         1.55e-06       7874.162067
         1.56e-06       7871.713877
         1.57e-06       7869.443864
         1.58e-06       7868.369697
         1.59e-06       7866.377403
          1.6e-06       7864.298709
         1.61e-06       7863.328081
         1.62e-06       7860.956141
         1.63e-06       7858.071215
         1.64e-06       7855.974939
         1.65e-06        7853.95053
         1.66e-06       7850.944935
         1.67e-06       7847.948757
         1.68e-06       7847.333545
         1.69e-06       7845.787703
          1.7e-06       7842.718159
         1.71e-06       7841.166464
         1.72e-06       7839.740638
         1.73e-06       7837.558042
         1.74e-06        7835.81755
         1.75e-06       7834.739298
         1.76e-06       7833.020425
         1.77e-06       7830.796874
         1.78e-06       7828.739734
         1.79e-06       7827.277675
          1.8e-06       7825.756638
         1.81e-06       7823.745937
         1.82e-06       7821.892494
         1.83e-06       7820.594032
         1.84e-06       7819.250587
         1.85e-06       7817.564624
         1.86e-06        7816.73419
         1.87e-06       7815.396442
         1.88e-06       7813.585939
         1.89e-06       7813.111339
          1.9e-06       7811.975126
         1.91e-06       7810.733105
         1.92e-06       7808.970051
         1.93e-06       7807.431354
         1.94e-06        7805.36362
         1.95e-06       7803.907312
         1.96e-06       7801.561448
         1.97e-06       7799.920962
         1.98e-06       7798.795483
         1.99e-06       7796.559801
            2e-06       7795.712921
         2.01e-06       7794.524124
         2.02e-06        7792.96393
         2.03e-06       7791.467375
         2.04e-06       7789.962312
         2.05e-06       7787.987913
         2.06e-06       7787.103355
         2.07e-06       7785.149923
         2.08e-06       7784.605972
         2.09e-06       7783.632237
          2.1e-06       7782.016089
         2.11e-06       7780.565911
         2.12e-06       7778.827618
         2.13e-06        7777.32399
         2.14e-06       7775.547282
         2.15e-06       7774.490561
         2.16e-06       7773.372801
         2.17e-06       7772.337092
         2.18e-06       7770.625728
         2.19e-06       7769.781361
          2.2e-06       7768.144917
         2.21e-06       7767.619261
         2.22e-06       7766.600085
         2.23e-06       7765.219138
         2.24e-06       7764.083806
         2.25e-06       7762.816202
         2.26e-06       7761.880807
         2.27e-06       7760.994097
         2.28e-06       7759.812824
         2.29e-06       7759.008112
          2.3e-06       7758.041549
         2.31e-06        7756.75278
         2.32e-06       7755.493726
         2.33e-06       7754.826688
         2.34e-06       7753.738158
         2.35e-06       7752.703801
         2.36e-06       7751.076046
         2.37e-06        7750.02803
         2.38e-06       7748.765375
         2.39e-06       7747.821259
          2.4e-06       7746.751454
         2.41e-06       7745.295531
         2.42e-06       7744.651508
         2.43e-06       7743.756178
         2.44e-06       7742.348822
         2.45e-06       7741.005523
         2.46e-06       7740.341972
         2.47e-06       7739.252636
         2.48e-06       7738.402616
         2.49e-06        7737.28226
          2.5e-06        7736.76558
         2.51e-06       7736.017971
         2.52e-06       7734.742779
         2.53e-06       7733.733717
         2.54e-06       7733.408853
         2.55e-06        7732.26601
         2.56e-06       7731.401706
         2.57e-06       7730.561525
         2.58e-06       7729.362056
         2.59e-06       7728.579564
          2.6e-06       7728.008357
         2.61e-06       7727.234702
         2.62e-06       7726.737061
         2.63e-06       7725.533389
         2.64e-06       7724.679282
         2.65e-06       7723.336315
         2.66e-06       7723.197491
         2.67e-06        7722.35004
         2.68e-06       7721.204559
         2.69e-06       7721.371972
          2.7e-06       7720.575712
         2.71e-06       7720.196783
         2.72e-06       7719.536661
         2.73e-06       7718.660614
         2.74e-06       7717.995271
         2.75e-06       7716.873351
         2.76e-06       7715.661272
         2.77e-06       7714.598456
         2.78e-06       7714.014225
         2.79e-06       7712.693329
          2.8e-06       7711.682898
         2.81e-06       7710.806572
         2.82e-06       7710.375493
         2.83e-06       7709.736087
         2.84e-06       7708.642595
         2.85e-06       7708.525103
         2.86e-06       7707.934041
         2.87e-06       7707.068891
         2.88e-06        7706.37649
         2.89e-06       7705.513646
          2.9e-06       7704.752612
         2.91e-06       7703.982738
         2.92e-06       7703.442893
         2.93e-06       7702.820505
         2.94e-06       7701.565996
         2.95e-06       7700.759647
         2.96e-06       7699.562411
         2.97e-06       7699.772411
         2.98e-06       7698.733419
         2.99e-06        7698.31672
            3e-06        7697.25022
         3.01e-06       7696.738479
         3.02e-06       7695.756971
         3.03e-06       7695.167522
         3.04e-06       7694.366016
         3.05e-06       7693.742737
         3.06e-06       7692.979716
         3.07e-06       7692.204405
         3.08e-06        7691.44729
         3.09e-06       7690.451779
          3.1e-06       7689.844226
         3.11e-06       7689.995555
         3.12e-06       7689.863475
         3.13e-06       7689.197772
         3.14e-06       7688.145256
         3.15e-06          7687.479
         3.16e-06       7686.514883
         3.17e-06       7685.308971
         3.18e-06        7684.34175
         3.19e-06       7683.552398
          3.2e-06       7682.641545
         3.21e-06       7681.926652
         3.22e-06       7680.746892
         3.23e-06       7679.743744
         3.24e-06       7678.976616
         3.25e-06       7678.191084
         3.26e-06       7678.034475
         3.27e-06       7677.719435
         3.28e-06       7676.806425
         3.29e-06       7675.669014
          3.3e-06       7675.006607
         3.31e-06       7674.421154
         3.32e-06       7673.839175
         3.33e-06       7673.429933
         3.34e-06       7672.756774
         3.35e-06       7671.716897
         3.36e-06       7671.114475
         3.37e-06       7670.675895
         3.38e-06       7670.379533
         3.39e-06        7669.80528
          3.4e-06       7669.124791
         3.41e-06       7668.859425
         3.42e-06       7667.979079
         3.43e-06       7667.561125
         3.44e-06       7666.580967
         3.45e-06       7665.557499
         3.46e-06       7665.429434
         3.47e-06       7664.874158
         3.48e-06       7664.239027
         3.49e-06       7663.910882
          3.5e-06       7663.393952
         3.51e-06       7663.411311
         3.52e-06       7662.578793
         3.53e-06        7661.97347
         3.54e-06       7660.979272
         3.55e-06       7660.498724
         3.56e-06       7659.487553
         3.57e-06        7659.08081
         3.58e-06       7658.690456
         3.59e-06       7657.653672
          3.6e-06       7656.890618
         3.61e-06       7656.938223
         3.62e-06       7656.505613
         3.63e-06       7655.522238
         3.64e-06        7654.76736
         3.65e-06       7654.383572
         3.66e-06       7654.110006
         3.67e-06       7653.941863
         3.68e-06       7652.764413
         3.69e-06        7652.04447
          3.7e-06       7651.582608
         3.71e-06       7651.403282
         3.72e-06       7650.845554
         3.73e-06       7650.784247
         3.74e-06       7650.533798
         3.75e-06       7649.591907
         3.76e-06       7648.895588
         3.77e-06       7648.638069
         3.78e-06       7647.858335
         3.79e-06       7647.396123
          3.8e-06       7647.012669
         3.81e-06       7646.148275
         3.82e-06       7645.653123
         3.83e-06       7644.961913
         3.84e-06        7643.74677
         3.85e-06       7643.359998
         3.86e-06       7642.717291
         3.87e-06       7641.782057
         3.88e-06       7640.912776
         3.89e-06       7640.807087
          3.9e-06       7640.238627
         3.91e-06       7639.322522
         3.92e-06       7638.462714
         3.93e-06       7637.901905
         3.94e-06       7637.584486
         3.95e-06       7636.731633
         3.96e-06       7636.030431
         3.97e-06       7635.494502
         3.98e-06       7634.629155
         3.99e-06       7634.212835
            4e-06       7633.492267
         4.01e-06       7633.254653
         4.02e-06       7632.718372
         4.03e-06       7632.395988
         4.04e-06       7632.507595
         4.05e-06       7631.718713
         4.06e-06       7631.506394
         4.07e-06       7630.814719
         4.08e-06       7630.400947
         4.09e-06       7629.898692
          4.1e-06       7629.606224
         4.11e-06        7629.13921
         4.12e-06       7629.057396
         4.13e-06       7628.381115
         4.14e-06       7628.248921
         4.15e-06        7628.14213
         4.16e-06        7627.55817
         4.17e-06       7627.239904
         4.18e-06       7626.957921
         4.19e-06       7626.838694
          4.2e-06       7625.896198
         4.21e-06       7625.250287
         4.22e-06       7624.857296
         4.23e-06       7624.709469
         4.24e-06       7623.932895
         4.25e-06       7623.198986
         4.26e-06       7622.786706
         4.27e-06       7622.544413
         4.28e-06       7622.697319
         4.29e-06       7622.057393
          4.3e-06       7621.745023
         4.31e-06       7621.901944
         4.32e-06       7621.808427
         4.33e-06       7621.430801
         4.34e-06        7621.08328
         4.35e-06        7620.55412
         4.36e-06        7620.40067
         4.37e-06       7619.593705
         4.38e-06       7619.106954
         4.39e-06       7618.957423
          4.4e-06       7618.571335
         4.41e-06       7618.187526
         4.42e-06       7618.363671
         4.43e-06       7617.926058
         4.44e-06       7617.802655
         4.45e-06       7617.781491
         4.46e-06       7617.826616
         4.47e-06       7617.955815
         4.48e-06       7617.062497
         4.49e-06       7616.030994
          4.5e-06       7615.572696
         4.51e-06       7615.675596
         4.52e-06        7615.68345
         4.53e-06       7615.494252
         4.54e-06        7614.89931
         4.55e-06       7614.391835
         4.56e-06       7614.019777
         4.57e-06       7613.995819
         4.58e-06       7613.850789
         4.59e-06       7613.485327
          4.6e-06       7613.326028
         4.61e-06       7612.852272
         4.62e-06       7612.208856
         4.63e-06       7611.586392
         4.64e-06       7610.953467
         4.65e-06       7610.721562
         4.66e-06       7610.315661
         4.67e-06        7609.78819
         4.68e-06       7609.458807
         4.69e-06       7609.010083
          4.7e-06       7608.302436
         4.71e-06       7608.243389
         4.72e-06       7607.918672
         4.73e-06       7607.620496
         4.74e-06       7607.362517
         4.75e-06       7607.027906
         4.76e-06       7606.584435
         4.77e-06       7606.367923
         4.78e-06       7606.369486
         4.79e-06       7606.047096
          4.8e-06        7605.59673
         4.81e-06       7605.237158
         4.82e-06       7604.969777
         4.83e-06       7604.870895
         4.84e-06       7604.536106
         4.85e-06       7604.183211
         4.86e-06       7603.863251
         4.87e-06       7603.331886
         4.88e-06       7603.376301
         4.89e-06       7602.891754
          4.9e-06       7602.485887
         4.91e-06       7602.144795
         4.92e-06       7601.906965
         4.93e-06       7601.633182
         4.94e-06       7600.872652
         4.95e-06       7600.577308
         4.96e-06        7599.95974
         4.97e-06       7599.971722
         4.98e-06       7599.820992
         4.99e-06       7599.491931
            5e-06       7599.089699
         5.01e-06       7599.055648
         5.02e-06       7598.582458
         5.03e-06       7598.312768
         5.04e-06       7598.168544
         5.05e-06       7597.541055
         5.06e-06       7597.097724
         5.07e-06       7596.658454
         5.08e-06       7596.552465
         5.09e-06       7596.024509
          5.1e-06       7595.648182
         5.11e-06       7595.494672
         5.12e-06        7595.15095
         5.13e-06       7594.896052
         5.14e-06       7594.834877
         5.15e-06       7594.563646
         5.16e-06         7594.1114
         5.17e-06       7593.941458
         5.18e-06        7593.42036
         5.19e-06        7593.04801
          5.2e-06       7592.714171
         5.21e-06       7592.667716
         5.22e-06       7592.483861
         5.23e-06       7592.078464
         5.24e-06       7591.975489
         5.25e-06       7591.759925
         5.26e-06       7591.680041
         5.27e-06       7591.280187
         5.28e-06       7591.153446
         5.29e-06        7591.10472
          5.3e-06       7590.474431
         5.31e-06       7590.160306
         5.32e-06       7590.446451
         5.33e-06       7589.923384
         5.34e-06       7589.680459
         5.35e-06       7589.513557
         5.36e-06       7589.012747
         5.37e-06       7588.823133
         5.38e-06       7588.933068
         5.39e-06       7588.529104
          5.4e-06       7588.122854
         5.41e-06       7588.099935
         5.42e-06        7588.01519
         5.43e-06       7587.688937
         5.44e-06       7587.458303
         5.45e-06       7587.075988
         5.46e-06       7586.579733
         5.47e-06       7586.173649
         5.48e-06       7585.792549
         5.49e-06       7585.454469
          5.5e-06       7584.994705
         5.51e-06       7584.661052
         5.52e-06       7584.334883
         5.53e-06       7584.315601
         5.54e-06       7583.942254
         5.55e-06       7584.012619
         5.56e-06       7583.735733
         5.57e-06       7583.749631
         5.58e-06       7583.474884
         5.59e-06       7583.415703
          5.6e-06       7583.088408
         5.61e-06       7582.671107
         5.62e-06       7582.632768
         5.63e-06        7581.86157
         5.64e-06       7581.516291
         5.65e-06       7581.075231
         5.66e-06       7580.693878
         5.67e-06       7580.586323
         5.68e-06       7580.370286
         5.69e-06       7580.275266
          5.7e-06       7580.186838
         5.71e-06       7579.871781
         5.72e-06        7579.44539
         5.73e-06       7578.951116
         5.74e-06       7578.656788
         5.75e-06       7578.526355
         5.76e-06       7578.228871
         5.77e-06       7578.062547
         5.78e-06       7577.488897
         5.79e-06       7577.326844
          5.8e-06       7577.317105
         5.81e-06       7577.000081
         5.82e-06       7576.675445
         5.83e-06       7576.535455
         5.84e-06       7576.160398
         5.85e-06        7576.10396
         5.86e-06       7575.651048
         5.87e-06       7575.566243
         5.88e-06        7575.13028
         5.89e-06       7574.786517
          5.9e-06       7574.366727
         5.91e-06       7574.339215
         5.92e-06        7574.14921
         5.93e-06         7573.7777
         5.94e-06        7573.41139
         5.95e-06       7573.515971
         5.96e-06       7573.312271
         5.97e-06       7573.273189
         5.98e-06       7572.841338
         5.99e-06       7572.499255
            6e-06       7572.124027
         6.01e-06       7571.893895
         6.02e-06       7571.673086
         6.03e-06       7571.250909
         6.04e-06       7571.150931
         6.05e-06        7570.81808
         6.06e-06       7570.456009
         6.07e-06       7569.931986
         6.08e-06       7570.020441
         6.09e-06       7570.340977
          6.1e-06       7570.129028
         6.11e-06       7569.958423
         6.12e-06       7569.583319
         6.13e-06       7569.436019
         6.14e-06       7569.247008
         6.15e-06       7569.025478
         6.16e-06       7568.555866
         6.17e-06       7568.440921
         6.18e-06       7568.260843
         6.19e-06       7567.904344
          6.2e-06       7567.757365
         6.21e-06       7567.536163
         6.22e-06         7567.1861
         6.23e-06       7566.913084
         6.24e-06       7566.484472
         6.25e-06       7566.465742
         6.26e-06       7566.062468
         6.27e-06       7565.555504
         6.28e-06       7565.381271
         6.29e-06       7564.917879
          6.3e-06       7564.719037
         6.31e-06       7564.607418
         6.32e-06       7564.641206
         6.33e-06       7564.395651
         6.34e-06       7564.112515
         6.35e-06       7564.315465
         6.36e-06       7564.184729
         6.37e-06       7563.912872
         6.38e-06       7563.654714
         6.39e-06       7563.856321
          6.4e-06       7563.527123
         6.41e-06       7563.376972
         6.42e-06       7563.098358
         6.43e-06       7562.821282
         6.44e-06       7562.396045
         6.45e-06        7562.17078
         6.46e-06       7561.740423
         6.47e-06       7561.637781
         6.48e-06       7561.250368
         6.49e-06       7560.869659
          6.5e-06       7560.443246
         6.51e-06       7559.936755
         6.52e-06       7559.542987
         6.53e-06       7559.308793
         6.54e-06       7558.935955
         6.55e-06       7558.644316
         6.56e-06       7558.363711
         6.57e-06       7558.299393
         6.58e-06        7557.72463
         6.59e-06       7557.605972
          6.6e-06       7557.449032
         6.61e-06       7557.369482
         6.62e-06       7557.103618
         6.63e-06       7556.814074
         6.64e-06       7556.700806
         6.65e-06       7556.357872
         6.66e-06       7556.098489
         6.67e-06       7555.890256
         6.68e-06       7555.460981
         6.69e-06       7555.301884
          6.7e-06       7555.117798
         6.71e-06       7554.857302
         6.72e-06       7554.569562
         6.73e-06       7554.325558
         6.74e-06       7554.548057
         6.75e-06       7554.172915
         6.76e-06        7554.04076
         6.77e-06       7553.518336
         6.78e-06        7553.87783
         6.79e-06       7553.313873
          6.8e-06       7553.207186
         6.81e-06       7553.085322
         6.82e-06       7553.052987
         6.83e-06       7552.749515
         6.84e-06       7552.576714
         6.85e-06       7552.413639
         6.86e-06       7552.508362
         6.87e-06       7552.384042
         6.88e-06       7552.059994
         6.89e-06       7551.969146
          6.9e-06       7551.736989
         6.91e-06       7551.771496
         6.92e-06       7551.720147
         6.93e-06       7551.363048
         6.94e-06        7551.00952
         6.95e-06       7550.794951
         6.96e-06       7550.769008
         6.97e-06       7550.728259
         6.98e-06       7550.729071
         6.99e-06       7550.763598
            7e-06       7550.557831
         7.01e-06       7550.265791
         7.02e-06       7550.211599
         7.03e-06         7549.9809
         7.04e-06       7550.079602
         7.05e-06       7549.950501
         7.06e-06       7550.150763
         7.07e-06       7549.948376
         7.08e-06       7549.482634
         7.09e-06        7549.43256
          7.1e-06       7549.157378
         7.11e-06       7548.646375
         7.12e-06       7548.495819
         7.13e-06       7548.772416
         7.14e-06       7548.623286
         7.15e-06       7548.380472
         7.16e-06       7548.286401
         7.17e-06       7548.142668
         7.18e-06        7547.70682
         7.19e-06       7547.723503
          7.2e-06       7547.584712
         7.21e-06       7547.361307
         7.22e-06       7547.355642
         7.23e-06       7547.331361
         7.24e-06       7547.159204
         7.25e-06       7546.837646
         7.26e-06       7546.774802
         7.27e-06       7546.851693
         7.28e-06       7546.674571
         7.29e-06       7546.767062
          7.3e-06       7546.472517
         7.31e-06        7546.41044
         7.32e-06       7546.487125
         7.33e-06       7546.364917
         7.34e-06       7546.468314
         7.35e-06       7546.086654
         7.36e-06       7546.060194
         7.37e-06       7545.853078
         7.38e-06       7545.668352
         7.39e-06       7545.536734
          7.4e-06       7545.386378
         7.41e-06       7545.137696
         7.42e-06       7545.009035
         7.43e-06       7544.504032
         7.44e-06         7544.3225
         7.45e-06        7544.26454
         7.46e-06       7544.143538
         7.47e-06       7543.917231
         7.48e-06       7543.775829
         7.49e-06       7543.847981
          7.5e-06       7543.846084
         7.51e-06       7543.629027
         7.52e-06        7543.41209
         7.53e-06       7543.195605
         7.54e-06       7542.931695
         7.55e-06       7543.113774
         7.56e-06       7543.134961
         7.57e-06       7542.944225
         7.58e-06        7542.77093
         7.59e-06       7542.544739
          7.6e-06       7542.204316
         7.61e-06       7541.904196
         7.62e-06       7541.864742
         7.63e-06       7541.621582
         7.64e-06       7541.244294
         7.65e-06       7540.993704
         7.66e-06       7541.063127
         7.67e-06       7540.856237
         7.68e-06       7540.662269
         7.69e-06       7540.580297
          7.7e-06       7540.577553
         7.71e-06       7540.519111
         7.72e-06       7540.437619
         7.73e-06       7540.226578
         7.74e-06       7540.205797
         7.75e-06       7540.108596
         7.76e-06       7539.994907
         7.77e-06       7539.842931
         7.78e-06       7539.843956
         7.79e-06       7539.672296
          7.8e-06       7539.708065
         7.81e-06       7539.312874
         7.82e-06       7539.120243
         7.83e-06       7539.153637
         7.84e-06       7539.123819
         7.85e-06       7539.024041
         7.86e-06       7538.908841
         7.87e-06       7538.536156
         7.88e-06       7538.325365
         7.89e-06        7538.07295
          7.9e-06       7537.963619
         7.91e-06       7537.950524
         7.92e-06         7537.9304
         7.93e-06        7537.88992
         7.94e-06       7537.859222
         7.95e-06       7537.729193
         7.96e-06         7537.7346
         7.97e-06       7537.695805
         7.98e-06       7537.476019
         7.99e-06       7537.334992
            8e-06       7537.085005
         8.01e-06       7536.915747
         8.02e-06       7536.660369
         8.03e-06       7536.511309
         8.04e-06       7536.547128
         8.05e-06       7536.633453
         8.06e-06       7536.247465
         8.07e-06       7536.230488
         8.08e-06        7535.95515
         8.09e-06        7535.59464
          8.1e-06       7535.611548
         8.11e-06       7535.166635
         8.12e-06       7535.123459
         8.13e-06       7535.200948
         8.14e-06       7534.872079
         8.15e-06       7534.582075
         8.16e-06       7534.655474
         8.17e-06       7534.365367
         8.18e-06       7534.239531
         8.19e-06       7534.312154
          8.2e-06       7534.183144
         8.21e-06       7533.954967
         8.22e-06       7533.596796
         8.23e-06       7533.609841
         8.24e-06       7533.300091
         8.25e-06       7533.258267
         8.26e-06       7533.118407
         8.27e-06       7532.925546
         8.28e-06       7533.030328
         8.29e-06       7533.145436
          8.3e-06       7532.889494
         8.31e-06       7532.650632