# Probe 0 (5e-06 5e-06 5e-06)
#           Probe                 0
#            Time
            1e-08       10006.14792
            2e-08       9984.521258
            3e-08       9977.758346
            4e-08       9968.592024
            5e-08       9957.093091
            6e-08        9953.86791
            7e-08       9956.532634
            8e-08       9954.584388
            9e-08       9942.259132
            1e-07       9945.618652
          1.1e-07        9948.16805
          1.2e-07       9938.999493
          1.3e-07       9904.201447
          1.4e-07       9901.245236
          1.5e-07       9931.085617
          1.6e-07       9925.578021
          1.7e-07       9902.518387
          1.8e-07        9897.63011
          1.9e-07       9889.251218
            2e-07       9887.100968
          2.1e-07       9899.617202
          2.2e-07       9878.882451
          2.3e-07       9867.594309
          2.4e-07       9845.467379
          2.5e-07       9840.582791
          2.6e-07       9841.185941
          2.7e-07       9833.900208
          2.8e-07       9834.592693
          2.9e-07       9829.594439
            3e-07       9808.623279
          3.1e-07        9796.32353
          3.2e-07       9771.100358
          3.3e-07       9782.974523
          3.4e-07       9764.757409
          3.5e-07       9756.601184
          3.6e-07       9786.459795
          3.7e-07       9762.697365
          3.8e-07       9748.835976
          3.9e-07       9750.521891
            4e-07       9741.275496
          4.1e-07       9732.044552
          4.2e-07        9740.61037
          4.3e-07       9719.295178
          4.4e-07       9688.458113
          4.5e-07       9668.864335
          4.6e-07       9652.846767
          4.7e-07       9644.561497
          4.8e-07       9639.711064
          4.9e-07       9644.840751
            5e-07       9649.515733
          5.1e-07       9653.043585
          5.2e-07        9656.75932
          5.3e-07       9653.059984
          5.4e-07       9639.989688
          5.5e-07       9626.689988
          5.6e-07       9623.724487
          5.7e-07       9636.830912
          5.8e-07       9611.265889
          5.9e-07       9604.932561
            6e-07       9584.310595
          6.1e-07       9576.124384
          6.2e-07       9567.844661
          6.3e-07       9567.609768
          6.4e-07       9563.704472
          6.5e-07       9528.321314
          6.6e-07       9515.274246
          6.7e-07       9502.005851
          6.8e-07       9529.203833
          6.9e-07       9549.549384
            7e-07       9536.074689
          7.1e-07       9532.754943
          7.2e-07       9532.862065
          7.3e-07       9519.359582
          7.4e-07       9495.397937
          7.5e-07       9476.435891
          7.6e-07        9484.95983
          7.7e-07       9493.992241
          7.8e-07       9476.136743
          7.9e-07       9482.670685
            8e-07       9464.797093
          8.1e-07       9454.723421
          8.2e-07       9470.431104
          8.3e-07       9470.109846
          8.4e-07       9456.759718
          8.5e-07       9460.279569
          8.6e-07       9439.991791
          8.7e-07       9452.010473
          8.8e-07       9466.037369
          8.9e-07        9453.75141
            9e-07       9452.982103
          9.1e-07       9463.052877
          9.2e-07       9459.091766
          9.3e-07       9443.185124
          9.4e-07       9454.498662
          9.5e-07       9460.427778
          9.6e-07       9468.995867
          9.7e-07       9449.988611
          9.8e-07       9459.036011
          9.9e-07       9464.061969
            1e-06       9466.972474
         1.01e-06       9445.514696
         1.02e-06       9434.810155
         1.03e-06       9436.926671
         1.04e-06       9436.521647
         1.05e-06       9427.988559
         1.06e-06       9431.721721
         1.07e-06        9412.74863
         1.08e-06       9410.074281
         1.09e-06       9399.338159
          1.1e-06       9383.365187
         1.11e-06       9401.149657
         1.12e-06       9404.536246
         1.13e-06       9391.327509
         1.14e-06       9405.885731
         1.15e-06       9392.694683
         1.16e-06       9388.390615
         1.17e-06       9381.660817
         1.18e-06       9339.507008
         1.19e-06        9327.09221
          1.2e-06       9315.672972
         1.21e-06       9314.839179
         1.22e-06        9306.05702
         1.23e-06       9299.113807
         1.24e-06       9306.198077
         1.25e-06       9308.166652
         1.26e-06       9296.986952
         1.27e-06       9275.886611
         1.28e-06       9277.998338
         1.29e-06       9287.355252
          1.3e-06       9275.065329
         1.31e-06       9270.960381
         1.32e-06       9297.577529
         1.33e-06       9298.466941
         1.34e-06       9281.701917
         1.35e-06       9270.714518
         1.36e-06       9271.352561
         1.37e-06       9260.894318
         1.38e-06       9261.231539
         1.39e-06       9238.958189
          1.4e-06       9235.800898
         1.41e-06       9245.592326
         1.42e-06       9258.036844
         1.43e-06       9253.778396
         1.44e-06       9265.281267
         1.45e-06       9257.769278
         1.46e-06       9246.079328
         1.47e-06        9236.47061
         1.48e-06       9222.751171
         1.49e-06       9234.978703
          1.5e-06       9217.647213
         1.51e-06        9221.80936
         1.52e-06       9232.395086
         1.53e-06       9209.025499
         1.54e-06       9204.159135
         1.55e-06       9183.962497
         1.56e-06       9188.435963
         1.57e-06       9192.968695
         1.58e-06       9180.357808
         1.59e-06        9175.20886
          1.6e-06        9178.11534
         1.61e-06       9168.125604
         1.62e-06       9162.999135
         1.63e-06       9176.310591
         1.64e-06       9171.009219
         1.65e-06       9166.667079
         1.66e-06       9161.098758
         1.67e-06       9167.891256
         1.68e-06        9190.14097
         1.69e-06       9185.427567
          1.7e-06       9166.429368
         1.71e-06       9180.786349
         1.72e-06       9191.989891
         1.73e-06       9165.512856
         1.74e-06       9160.690079
         1.75e-06       9166.974922
         1.76e-06       9160.730622
         1.77e-06       9136.761517
         1.78e-06        9108.66778
         1.79e-06       9120.056999
          1.8e-06       9109.108089
         1.81e-06       9105.037482
         1.82e-06       9089.277303
         1.83e-06       9086.334121
         1.84e-06       9062.512341
         1.85e-06       9046.268393
         1.86e-06       9056.323638
         1.87e-06       9056.390059
         1.88e-06       9056.798159
         1.89e-06       9060.861266
          1.9e-06       9061.952573
         1.91e-06       9053.817473
         1.92e-06       9062.564106
         1.93e-06       9046.773593
         1.94e-06       9042.348716
         1.95e-06       9039.577198
         1.96e-06       9033.944739
         1.97e-06       9026.088114
         1.98e-06       9027.510644
         1.99e-06        9018.15295
            2e-06       9029.116554
         2.01e-06       9022.024113
         2.02e-06       9035.621433
         2.03e-06       9044.439144
         2.04e-06       9035.862457
         2.05e-06       9036.355578
         2.06e-06        9067.33136
         2.07e-06        9059.14754
         2.08e-06       9045.837903
         2.09e-06       9033.405778
          2.1e-06       9029.563488
         2.11e-06       9024.986641
         2.12e-06       9023.526601
         2.13e-06       9024.152908
         2.14e-06       9010.773458
         2.15e-06       9006.328878
         2.16e-06       9003.009365
         2.17e-06       8998.961007
         2.18e-06       8989.989241
         2.19e-06       8987.159206
          2.2e-06       8987.224655
         2.21e-06       8997.108433
         2.22e-06       8980.260719
         2.23e-06       8976.556481
         2.24e-06       8969.088091
         2.25e-06       8976.327977
         2.26e-06       8981.176553
         2.27e-06       8973.800184
         2.28e-06       8975.615669
         2.29e-06       8976.766611
          2.3e-06       8989.123974
         2.31e-06       8986.362288
         2.32e-06       8986.280631
         2.33e-06       8984.066398
         2.34e-06       8969.210633
         2.35e-06       8956.867266
         2.36e-06       8956.844933
         2.37e-06       8953.924024
         2.38e-06        8934.85062
         2.39e-06       8941.308315
          2.4e-06        8935.02638
         2.41e-06       8933.112231
         2.42e-06       8929.613611
         2.43e-06       8917.677357
         2.44e-06       8916.573188
         2.45e-06       8910.429404
         2.46e-06       8899.883192
         2.47e-06       8890.503353
         2.48e-06       8888.924447
         2.49e-06        8885.96394
          2.5e-06       8890.606076
         2.51e-06       8894.984018
         2.52e-06       8878.645643
         2.53e-06       8887.135576
         2.54e-06       8899.155823
         2.55e-06       8900.396362
         2.56e-06        8890.48534
         2.57e-06       8882.996219
         2.58e-06       8884.688513
         2.59e-06       8889.444806
          2.6e-06       8883.945033
         2.61e-06         8876.2031
         2.62e-06        8879.30785
         2.63e-06       8894.220733
         2.64e-06         8881.7138
         2.65e-06       8897.796905
         2.66e-06       8898.402534
         2.67e-06       8894.697177
         2.68e-06       8879.719933
         2.69e-06       8878.323223
          2.7e-06       8886.242454
         2.71e-06       8875.065072
         2.72e-06       8885.718726
         2.73e-06       8896.649362
         2.74e-06       8897.142283
         2.75e-06       8893.554793
         2.76e-06       8880.337694
         2.77e-06       8885.687254
         2.78e-06       8897.865452
         2.79e-06       8890.707218
          2.8e-06       8901.480638
         2.81e-06       8903.872879
         2.82e-06       8885.270615
         2.83e-06       8882.206067
         2.84e-06       8872.222035
         2.85e-06       8875.955674
         2.86e-06       8872.328765
         2.87e-06       8853.401412
         2.88e-06       8853.281915
         2.89e-06       8851.465315
          2.9e-06       8849.674327
         2.91e-06       8840.228237
         2.92e-06       8834.080761
         2.93e-06       8819.108194
         2.94e-06       8814.013001
         2.95e-06       8811.264455
         2.96e-06       8821.505996
         2.97e-06       8809.527827
         2.98e-06       8809.895589
         2.99e-06       8794.121808
            3e-06       8775.163625
         3.01e-06       8773.876559
         3.02e-06       8762.971347
         3.03e-06       8763.488699
         3.04e-06       8775.080771
         3.05e-06       8786.289897
         3.06e-06       8800.138867
         3.07e-06       8781.947482
         3.08e-06       8793.625379
         3.09e-06       8789.304864
          3.1e-06       8796.132974
         3.11e-06       8777.936243
         3.12e-06       8792.999249
         3.13e-06        8810.61135
         3.14e-06       8808.499107
         3.15e-06        8797.29012
         3.16e-06        8792.21717
         3.17e-06       8796.060179
         3.18e-06       8799.668867
         3.19e-06       8806.747417
          3.2e-06       8796.396406
         3.21e-06       8789.153369
         3.22e-06       8766.123558
         3.23e-06       8770.829942
         3.24e-06       8763.982129
         3.25e-06       8756.301778
         3.26e-06       8759.412648
         3.27e-06       8760.584995
         3.28e-06        8758.40017
         3.29e-06       8771.796891
          3.3e-06       8772.359626
         3.31e-06       8766.736626
         3.32e-06       8765.498761
         3.33e-06       8754.284734
         3.34e-06         8740.8961
         3.35e-06       8748.668587
         3.36e-06       8757.184272
         3.37e-06       8750.183756
         3.38e-06       8739.982062
         3.39e-06       8736.788887
          3.4e-06       8737.967085
         3.41e-06       8731.793029
         3.42e-06       8715.462434
         3.43e-06         8691.0009
         3.44e-06       8699.600774
         3.45e-06       8694.332292
         3.46e-06       8692.436319
         3.47e-06       8713.352501
         3.48e-06       8729.077219
         3.49e-06        8732.36139
          3.5e-06       8737.501091
         3.51e-06       8742.209396
         3.52e-06       8730.885533
         3.53e-06       8707.425603
         3.54e-06       8701.219107
         3.55e-06       8698.694531
         3.56e-06       8704.552498
         3.57e-06       8699.737053
         3.58e-06       8699.422155
         3.59e-06       8685.553435
          3.6e-06        8680.65061
         3.61e-06        8676.18714
         3.62e-06       8685.952599
         3.63e-06       8684.407095
         3.64e-06        8676.44351
         3.65e-06       8688.680364
         3.66e-06       8683.139528
         3.67e-06       8676.055183
         3.68e-06       8688.551334
         3.69e-06       8682.770764
          3.7e-06       8677.901676
         3.71e-06       8674.572622
         3.72e-06       8661.912543
         3.73e-06       8668.426374
         3.74e-06       8652.050436
         3.75e-06       8649.273723
         3.76e-06       8622.604196
         3.77e-06       8622.459346
         3.78e-06       8641.089956
         3.79e-06       8640.051619
          3.8e-06        8629.08722
         3.81e-06       8623.089944
         3.82e-06       8628.962522
         3.83e-06       8630.115524
         3.84e-06       8640.244404
         3.85e-06       8635.779561
         3.86e-06       8640.227328
         3.87e-06       8635.735776
         3.88e-06       8634.476063
         3.89e-06       8614.685494
          3.9e-06       8618.504856
         3.91e-06       8615.630687
         3.92e-06       8643.159683
         3.93e-06       8637.907939
         3.94e-06       8636.612655
         3.95e-06       8650.359547
         3.96e-06       8650.788826
         3.97e-06       8637.921416
         3.98e-06       8639.350492
         3.99e-06        8634.01852
            4e-06       8620.408171
         4.01e-06       8625.174462
         4.02e-06       8644.252554
         4.03e-06       8631.606716
         4.04e-06       8627.441264
         4.05e-06       8618.513625
         4.06e-06       8613.185993
         4.07e-06       8613.835988
         4.08e-06       8621.185412
         4.09e-06       8634.092059
          4.1e-06       8639.806621
         4.11e-06       8635.799906
         4.12e-06       8627.615725
         4.13e-06       8624.163133
         4.14e-06       8611.881395
         4.15e-06        8603.08711
         4.16e-06       8592.367056
         4.17e-06       8603.781466
         4.18e-06        8599.40911
         4.19e-06       8585.715623
          4.2e-06       8596.416033
         4.21e-06       8598.010392
         4.22e-06        8583.22281
         4.23e-06       8576.104017
         4.24e-06       8582.973027
         4.25e-06        8583.94651
         4.26e-06       8590.747075
         4.27e-06       8590.844951
         4.28e-06       8572.249152
         4.29e-06       8569.417753
          4.3e-06        8552.53254
         4.31e-06       8553.720487
         4.32e-06       8563.063325
         4.33e-06       8549.644189
         4.34e-06       8552.565919
         4.35e-06       8570.663663
         4.36e-06       8566.434517
         4.37e-06       8556.317594
         4.38e-06       8550.273846
         4.39e-06       8563.007159
          4.4e-06       8564.848693
         4.41e-06       8558.497122
         4.42e-06       8565.280094
         4.43e-06       8569.696396
         4.44e-06       8569.226434
         4.45e-06        8581.11652
         4.46e-06       8585.628755
         4.47e-06       8586.850038
         4.48e-06       8570.869596
         4.49e-06       8572.915995
          4.5e-06       8565.508796
         4.51e-06       8560.551754
         4.52e-06       8556.278836
         4.53e-06       8559.821033
         4.54e-06       8545.403921
         4.55e-06       8555.624171
         4.56e-06       8541.348777
         4.57e-06       8546.351332
         4.58e-06       8539.047901
         4.59e-06       8547.312441
          4.6e-06       8547.540604
         4.61e-06       8537.912917
         4.62e-06       8548.214723
         4.63e-06       8553.885676
         4.64e-06        8546.89747
         4.65e-06       8538.295948
         4.66e-06       8520.716473
         4.67e-06       8528.181201
         4.68e-06       8514.332934
         4.69e-06       8515.556937
          4.7e-06       8528.635024
         4.71e-06       8520.912566
         4.72e-06       8514.080758
         4.73e-06       8528.563524
         4.74e-06       8525.630662
         4.75e-06       8512.592374
         4.76e-06       8516.195781
         4.77e-06       8507.785163
         4.78e-06       8511.591816
         4.79e-06       8506.264058
          4.8e-06       8510.852362
         4.81e-06       8512.959005
         4.82e-06       8497.546188
         4.83e-06        8482.10778
         4.84e-06        8477.48764
         4.85e-06       8471.658892
         4.86e-06       8464.639733
         4.87e-06       8466.526064
         4.88e-06       8476.157335
         4.89e-06       8446.388551
          4.9e-06       8447.745554
         4.91e-06       8436.136437
         4.92e-06       8446.776003
         4.93e-06       8450.409389
         4.94e-06       8468.663171
         4.95e-06        8467.93454
         4.96e-06       8478.569841
         4.97e-06       8483.568137
         4.98e-06       8490.192287
         4.99e-06       8484.740763
            5e-06       8498.046306
         5.01e-06       8506.293117
         5.02e-06        8505.20006
         5.03e-06       8509.982656
         5.04e-06         8499.8255
         5.05e-06       8502.346498
         5.06e-06       8492.988031
         5.07e-06       8468.458476
         5.08e-06       8466.206673
         5.09e-06       8466.041482
          5.1e-06       8445.821372
         5.11e-06       8450.025316
         5.12e-06       8462.318227
         5.13e-06       8478.121199
         5.14e-06       8475.193977
         5.15e-06       8466.204105
         5.16e-06       8470.728856
         5.17e-06       8479.791689
         5.18e-06       8455.962023
         5.19e-06       8454.776323
          5.2e-06       8448.686083
         5.21e-06       8454.935178
         5.22e-06       8454.476675
         5.23e-06       8476.226872
         5.24e-06       8463.015264
         5.25e-06       8478.917643
         5.26e-06       8481.691881
         5.27e-06       8466.538145
         5.28e-06       8467.992699
         5.29e-06       8468.816045
          5.3e-06       8464.903092
         5.31e-06       8460.708695
         5.32e-06       8439.271566
         5.33e-06       8446.633321
         5.34e-06       8447.177868
         5.35e-06       8461.828932
         5.36e-06       8456.056727
         5.37e-06        8445.12598
         5.38e-06       8458.922107
         5.39e-06        8450.35008
          5.4e-06       8460.540033
         5.41e-06       8467.993395
         5.42e-06       8470.013997
         5.43e-06       8464.975996
         5.44e-06       8458.401282
         5.45e-06       8459.208941
         5.46e-06       8458.802632
         5.47e-06       8450.158767
         5.48e-06       8437.743081
         5.49e-06       8433.748042
          5.5e-06       8429.585599
         5.51e-06       8418.523965
         5.52e-06       8398.703863
         5.53e-06       8396.175307
         5.54e-06       8394.649208
         5.55e-06       8379.312943
         5.56e-06        8378.98096
         5.57e-06         8391.9215
         5.58e-06       8395.559682
         5.59e-06       8391.226622
          5.6e-06       8378.324012
         5.61e-06       8388.285752
         5.62e-06       8396.842915
         5.63e-06       8391.899584
         5.64e-06       8405.059283
         5.65e-06       8388.584572
         5.66e-06       8391.988749
         5.67e-06       8393.194991
         5.68e-06       8387.430619
         5.69e-06       8375.483771
          5.7e-06       8366.349859
         5.71e-06       8371.022723
         5.72e-06       8362.943902
         5.73e-06       8355.208106
         5.74e-06       8341.472373
         5.75e-06       8336.580811
         5.76e-06       8346.882213
         5.77e-06       8360.848332
         5.78e-06       8341.837944
         5.79e-06       8349.300619
          5.8e-06       8371.593562
         5.81e-06       8370.862695
         5.82e-06       8360.240608
         5.83e-06        8347.18283
         5.84e-06       8348.809591
         5.85e-06       8342.452088
         5.86e-06       8335.663407
         5.87e-06       8336.767127
         5.88e-06       8336.602501
         5.89e-06       8328.941627
          5.9e-06       8325.591712
         5.91e-06       8338.100664
         5.92e-06        8336.02895
         5.93e-06       8341.568949
         5.94e-06        8329.02533
         5.95e-06       8340.245776
         5.96e-06        8333.83422
         5.97e-06       8344.046508
         5.98e-06       8348.940486
         5.99e-06       8340.872845
            6e-06       8323.130585
         6.01e-06       8310.779462
         6.02e-06       8295.814188
         6.03e-06       8304.876908
         6.04e-06       8312.749297
         6.05e-06       8315.923139
         6.06e-06       8328.257655
         6.07e-06       8330.883434
         6.08e-06       8334.179236
         6.09e-06       8354.209422
          6.1e-06       8356.476735
         6.11e-06       8350.126752
         6.12e-06       8351.343042
         6.13e-06        8347.01493
         6.14e-06       8347.574468
         6.15e-06       8342.930387
         6.16e-06       8347.206971
         6.17e-06        8327.76581
         6.18e-06       8334.120486
         6.19e-06       8331.902249
          6.2e-06       8333.258498
         6.21e-06       8327.904706
         6.22e-06        8323.46187
         6.23e-06        8308.22457
         6.24e-06       8309.030778
         6.25e-06       8308.785174
         6.26e-06       8307.185791
         6.27e-06        8292.72451
         6.28e-06       8297.174008
         6.29e-06       8294.472498
          6.3e-06       8299.691062
         6.31e-06       8294.896496
         6.32e-06       8300.493926
         6.33e-06       8304.444052
         6.34e-06        8289.21266
         6.35e-06       8287.336953
         6.36e-06       8299.118159
         6.37e-06       8300.368529
         6.38e-06       8284.945947
         6.39e-06       8262.379993
          6.4e-06       8271.004608
         6.41e-06          8284.643
         6.42e-06       8283.334926
         6.43e-06       8290.767082
         6.44e-06       8293.087417
         6.45e-06       8320.236731
         6.46e-06       8310.668989
         6.47e-06        8311.57158
         6.48e-06       8302.475577
         6.49e-06       8308.802911
          6.5e-06       8310.676764
         6.51e-06       8300.558413
         6.52e-06       8293.849365
         6.53e-06       8312.490355
         6.54e-06       8296.183502
         6.55e-06       8303.290514
         6.56e-06       8293.223199
         6.57e-06        8287.10902
         6.58e-06       8293.144382
         6.59e-06       8281.641028
          6.6e-06       8297.806593
         6.61e-06       8281.820698
         6.62e-06       8277.170618
         6.63e-06       8278.880294
         6.64e-06        8284.87317
         6.65e-06        8270.74945
         6.66e-06       8265.111066
         6.67e-06       8285.280923
         6.68e-06       8277.449317
         6.69e-06       8268.376728
          6.7e-06       8277.952343
         6.71e-06       8270.652009
         6.72e-06       8266.543444
         6.73e-06       8256.976981
         6.74e-06       8258.158827
         6.75e-06         8254.4807
         6.76e-06       8243.772701
         6.77e-06       8246.913657
         6.78e-06        8240.13089
         6.79e-06        8250.17008
          6.8e-06       8263.650951
         6.81e-06       8262.569161
         6.82e-06       8256.846974
         6.83e-06        8247.04291
         6.84e-06       8231.232606
         6.85e-06       8231.992403
         6.86e-06       8235.615089
         6.87e-06       8233.957351
         6.88e-06       8242.584776
         6.89e-06        8256.32546
          6.9e-06       8251.992489
         6.91e-06       8253.987082
         6.92e-06       8252.243824
         6.93e-06       8229.798409
         6.94e-06       8232.696806
         6.95e-06       8222.875231
         6.96e-06       8238.616354
         6.97e-06       8220.734209
         6.98e-06       8218.593607
         6.99e-06       8214.201747
            7e-06       8205.310072
         7.01e-06       8197.397787
         7.02e-06       8195.850239
         7.03e-06       8197.563569
         7.04e-06        8205.69987
         7.05e-06       8220.167837
         7.06e-06        8219.87039
         7.07e-06       8219.674158
         7.08e-06       8231.447714
         7.09e-06       8243.161852
          7.1e-06       8257.040817
         7.11e-06        8256.23642
         7.12e-06       8259.519936
         7.13e-06        8250.24783
         7.14e-06       8251.129948
         7.15e-06       8239.394394
         7.16e-06       8237.372153
         7.17e-06        8240.48556
         7.18e-06       8244.929024
         7.19e-06       8228.527032
          7.2e-06       8248.019546
         7.21e-06       8250.409329
         7.22e-06       8250.190468
         7.23e-06       8256.827223
         7.24e-06       8246.139694
         7.25e-06       8242.604956
         7.26e-06       8236.606377
         7.27e-06       8243.210494
         7.28e-06       8267.527146
         7.29e-06       8269.100856
          7.3e-06        8242.24325
         7.31e-06       8237.455877
         7.32e-06       8218.089438
         7.33e-06       8237.577182
         7.34e-06       8233.669834
         7.35e-06       8217.173204
         7.36e-06       8220.063599
         7.37e-06        8217.54469
         7.38e-06       8220.764591
         7.39e-06       8223.630083
          7.4e-06        8215.01725
         7.41e-06       8196.203162
         7.42e-06       8204.819018
         7.43e-06       8212.573406
         7.44e-06       8207.189453
         7.45e-06       8200.457668
         7.46e-06       8222.570512
         7.47e-06       8232.735472
         7.48e-06       8216.280327
         7.49e-06       8210.134427
          7.5e-06       8197.295436
         7.51e-06       8199.103681
         7.52e-06       8197.273987
         7.53e-06       8187.808345
         7.54e-06       8196.864743
         7.55e-06        8201.82387
         7.56e-06       8202.774428
         7.57e-06        8195.73129
         7.58e-06       8219.928931
         7.59e-06       8215.736784
          7.6e-06       8232.847438
         7.61e-06       8227.257521
         7.62e-06       8230.789412
         7.63e-06       8209.238251
         7.64e-06       8209.613715
         7.65e-06       8232.501406
         7.66e-06       8217.073597
         7.67e-06        8203.12017
         7.68e-06       8200.084268
         7.69e-06       8188.334297
          7.7e-06       8202.747213
         7.71e-06       8205.028689
         7.72e-06       8197.726331
         7.73e-06       8187.428548
         7.74e-06       8184.608158
         7.75e-06       8193.483461
         7.76e-06       8202.561208
         7.77e-06       8208.955092
         7.78e-06       8205.103205
         7.79e-06        8225.91653
          7.8e-06       8203.789843
         7.81e-06       8198.997976
         7.82e-06       8193.858895
         7.83e-06        8195.61351
         7.84e-06       8199.729833
         7.85e-06       8183.523274
         7.86e-06        8172.92094
         7.87e-06       8187.365035
         7.88e-06       8197.308272
         7.89e-06       8202.540302
          7.9e-06       8192.279731
         7.91e-06       8191.207652
         7.92e-06       8172.214109
         7.93e-06       8163.713876
         7.94e-06       8178.563035
         7.95e-06       8167.215444
         7.96e-06       8174.355848
         7.97e-06       8185.431633
         7.98e-06       8180.379411
         7.99e-06       8163.231364
            8e-06       8168.907674
         8.01e-06       8182.130005
         8.02e-06       8168.996059
         8.03e-06       8153.160507
         8.04e-06       8162.178325
         8.05e-06        8142.82225
         8.06e-06        8150.44338
         8.07e-06       8167.001143
         8.08e-06       8163.826724
         8.09e-06       8162.512155
          8.1e-06       8167.227426
         8.11e-06       8184.741955
         8.12e-06       8181.879559
         8.13e-06       8172.635467
         8.14e-06       8168.067506
         8.15e-06       8157.405947
         8.16e-06       8147.981476
         8.17e-06       8140.708071
         8.18e-06        8153.58711
         8.19e-06       8157.883694
          8.2e-06       8158.464083
         8.21e-06        8165.47067
         8.22e-06       8167.789383
         8.23e-06       8175.780014
         8.24e-06       8162.217658
         8.25e-06        8151.74281
         8.26e-06       8164.734059
         8.27e-06       8153.337009
         8.28e-06       8165.637807
         8.29e-06       8172.407772
          8.3e-06       8173.994943
         8.31e-06       8180.003634