# Probe 0 (5e-06 5e-06 5e-06)
#           Probe                 0
#            Time
            1e-08       9952.551652
            2e-08       9955.421736
            3e-08       9946.461951
            4e-08       9938.452096
            5e-08       9934.181005
            6e-08       9925.213155
            7e-08       9910.910456
            8e-08       9897.603864
            9e-08       9892.516411
            1e-07       9876.612992
          1.1e-07       9863.525432
          1.2e-07        9856.46446
          1.3e-07       9869.747555
          1.4e-07       9859.000884
          1.5e-07       9827.165759
          1.6e-07       9818.710375
          1.7e-07       9823.577153
          1.8e-07       9814.331865
          1.9e-07       9810.578313
            2e-07       9800.035001
          2.1e-07       9781.551809
          2.2e-07       9785.091622
          2.3e-07       9778.840946
          2.4e-07        9784.01662
          2.5e-07        9772.75847
          2.6e-07       9760.607523
          2.7e-07       9755.018947
          2.8e-07       9744.766545
          2.9e-07       9738.186873
            3e-07       9745.058341
          3.1e-07       9743.466588
          3.2e-07       9749.557031
          3.3e-07       9733.142286
          3.4e-07       9731.555185
          3.5e-07       9728.206485
          3.6e-07       9696.238284
          3.7e-07       9702.804554
          3.8e-07       9702.080566
          3.9e-07       9693.829064
            4e-07       9690.184996
          4.1e-07       9688.109101
          4.2e-07       9674.396581
          4.3e-07       9677.275185
          4.4e-07       9686.276069
          4.5e-07       9689.115733
          4.6e-07       9688.654553
          4.7e-07       9684.116028
          4.8e-07       9677.643515
          4.9e-07       9665.641318
            5e-07       9654.607012
          5.1e-07       9639.847211
          5.2e-07       9626.613302
          5.3e-07        9621.95997
          5.4e-07       9620.306978
          5.5e-07       9619.362673
          5.6e-07       9614.482221
          5.7e-07       9595.568425
          5.8e-07        9605.14472
          5.9e-07       9597.300636
            6e-07       9602.581954
          6.1e-07        9597.71349
          6.2e-07       9594.634117
          6.3e-07       9583.402093
          6.4e-07       9577.504418
          6.5e-07       9594.519755
          6.6e-07       9591.998015
          6.7e-07       9590.400022
          6.8e-07       9563.947749
          6.9e-07       9540.515483
            7e-07       9543.002117
          7.1e-07        9537.28225
          7.2e-07       9529.598772
          7.3e-07       9531.311529
          7.4e-07       9538.840294
          7.5e-07       9542.089063
          7.6e-07       9530.037768
          7.7e-07       9514.544438
          7.8e-07       9519.864235
          7.9e-07       9506.590449
            8e-07       9510.182557
          8.1e-07       9508.052613
          8.2e-07       9489.955412
          8.3e-07       9481.799207
          8.4e-07       9482.379456
          8.5e-07       9473.747082
          8.6e-07       9479.732903
          8.7e-07       9462.922975
          8.8e-07       9445.026502
          8.9e-07       9447.632825
            9e-07       9441.708869
          9.1e-07       9425.969817
          9.2e-07       9423.944699
          9.3e-07       9426.438747
          9.4e-07       9414.215684
          9.5e-07       9403.983147
          9.6e-07       9390.550683
          9.7e-07       9395.220904
          9.8e-07        9381.45727
          9.9e-07       9371.395648
            1e-06       9364.591981
         1.01e-06       9371.133238
         1.02e-06       9370.202848
         1.03e-06       9365.260935
         1.04e-06       9359.426577
         1.05e-06       9361.340109
         1.06e-06       9354.090176
         1.07e-06       9359.869842
         1.08e-06       9352.716003
         1.09e-06       9352.199079
          1.1e-06       9355.967484
         1.11e-06       9337.064115
         1.12e-06       9326.613953
         1.13e-06       9330.695102
         1.14e-06       9313.770187
         1.15e-06       9314.548218
         1.16e-06       9311.545059
         1.17e-06       9309.836724
         1.18e-06       9331.331649
         1.19e-06       9330.651846
          1.2e-06       9331.032688
         1.21e-06       9322.968551
         1.22e-06       9320.962417
         1.23e-06       9320.515224
         1.24e-06        9308.69841
         1.25e-06       9299.186127
         1.26e-06       9298.619862
         1.27e-06       9308.187471
         1.28e-06       9299.583706
         1.29e-06       9288.319953
          1.3e-06       9290.515105
         1.31e-06       9285.916505
         1.32e-06       9261.991772
         1.33e-06       9257.859234
         1.34e-06        9261.90095
         1.35e-06       9262.800521
         1.36e-06       9257.367836
         1.37e-06       9256.157766
         1.38e-06        9248.98349
         1.39e-06       9256.892209
          1.4e-06       9249.092155
         1.41e-06       9235.164731
         1.42e-06       9221.171105
         1.43e-06       9216.625558
         1.44e-06       9202.503866
         1.45e-06       9199.270845
         1.46e-06       9199.047179
         1.47e-06       9200.374245
         1.48e-06       9204.622138
         1.49e-06       9189.842508
          1.5e-06       9193.595518
         1.51e-06       9186.382918
         1.52e-06       9172.397586
         1.53e-06       9178.575376
         1.54e-06       9174.181907
         1.55e-06        9182.08067
         1.56e-06       9172.516256
         1.57e-06       9163.410065
         1.58e-06       9168.767858
         1.59e-06       9166.750939
          1.6e-06       9159.066228
         1.61e-06        9163.04151
         1.62e-06       9159.886423
         1.63e-06       9142.923775
         1.64e-06       9140.521744
         1.65e-06       9137.705511
         1.66e-06       9132.796275
         1.67e-06       9119.675266
         1.68e-06       9103.025193
         1.69e-06       9101.693318
          1.7e-06       9105.394432
         1.71e-06       9091.260555
         1.72e-06       9079.584128
         1.73e-06       9090.717282
         1.74e-06       9088.692306
         1.75e-06       9081.344936
         1.76e-06       9080.301162
         1.77e-06       9089.516243
         1.78e-06       9102.033518
         1.79e-06       9089.864289
          1.8e-06       9092.460739
         1.81e-06       9088.951217
         1.82e-06       9093.712108
         1.83e-06       9091.601606
         1.84e-06       9103.269566
         1.85e-06       9108.776473
         1.86e-06       9099.406988
         1.87e-06       9095.103952
         1.88e-06       9089.046656
         1.89e-06        9084.81754
          1.9e-06       9080.534832
         1.91e-06       9081.858397
         1.92e-06       9070.320518
         1.93e-06        9075.86518
         1.94e-06       9072.089987
         1.95e-06       9069.091112
         1.96e-06       9065.089054
         1.97e-06       9064.898226
         1.98e-06       9060.177098
         1.99e-06       9059.103883
            2e-06       9048.681722
         2.01e-06        9049.40376
         2.02e-06       9035.036272
         2.03e-06       9024.020501
         2.04e-06       9024.584872
         2.05e-06       9017.417662
         2.06e-06       8993.693413
         2.07e-06       8992.370349
         2.08e-06         8999.3206
         2.09e-06       9004.224415
          2.1e-06       9001.128656
         2.11e-06       8999.075352
         2.12e-06       8993.935647
         2.13e-06       8988.014969
         2.14e-06       8990.579936
         2.15e-06       8989.690998
         2.16e-06       8988.005846
         2.17e-06       8986.808027
         2.18e-06       8986.534063
         2.19e-06       8985.363075
          2.2e-06        8979.30855
         2.21e-06       8970.773101
         2.22e-06       8978.346762
         2.23e-06       8975.599034
         2.24e-06        8976.27717
         2.25e-06       8966.779422
         2.26e-06        8959.99206
         2.27e-06        8961.53061
         2.28e-06       8955.899545
         2.29e-06       8952.125617
          2.3e-06       8940.214073
         2.31e-06       8937.116511
         2.32e-06        8932.28424
         2.33e-06       8931.245495
         2.34e-06       8937.032468
         2.35e-06       8941.112161
         2.36e-06       8934.824598
         2.37e-06       8932.700881
         2.38e-06       8940.454584
         2.39e-06       8932.435278
          2.4e-06         8932.3512
         2.41e-06       8927.944393
         2.42e-06       8927.676166
         2.43e-06       8932.052441
         2.44e-06       8927.243113
         2.45e-06       8925.903929
         2.46e-06       8930.307034
         2.47e-06       8932.082783
         2.48e-06       8929.673753
         2.49e-06        8927.04457
          2.5e-06       8921.913047
         2.51e-06       8915.937938
         2.52e-06       8921.573431
         2.53e-06       8911.700274
         2.54e-06        8902.33182
         2.55e-06        8897.04416
         2.56e-06       8899.804656
         2.57e-06       8901.272308
         2.58e-06       8895.321303
         2.59e-06       8888.752061
          2.6e-06       8889.969975
         2.61e-06       8891.846349
         2.62e-06       8887.701851
         2.63e-06       8872.615726
         2.64e-06       8877.421697
         2.65e-06       8860.878738
         2.66e-06       8860.056424
         2.67e-06       8858.718462
         2.68e-06       8863.818006
         2.69e-06       8865.448234
          2.7e-06       8856.797084
         2.71e-06       8862.640304
         2.72e-06       8852.680044
         2.73e-06       8841.588882
         2.74e-06       8838.269647
         2.75e-06       8835.767758
         2.76e-06       8839.282749
         2.77e-06       8831.015443
         2.78e-06       8820.313528
         2.79e-06        8819.32008
          2.8e-06         8807.6271
         2.81e-06       8802.052089
         2.82e-06       8812.651712
         2.83e-06        8811.74795
         2.84e-06       8813.432819
         2.85e-06       8810.486487
         2.86e-06       8810.162312
         2.87e-06       8819.089836
         2.88e-06       8815.847181
         2.89e-06       8813.126236
          2.9e-06       8810.816391
         2.91e-06       8813.594218
         2.92e-06       8815.357812
         2.93e-06       8822.338482
         2.94e-06       8820.005748
         2.95e-06       8818.100794
         2.96e-06       8805.760716
         2.97e-06       8814.658739
         2.98e-06       8809.815336
         2.99e-06       8818.138511
            3e-06       8825.760397
         3.01e-06       8824.295224
         3.02e-06       8826.890282
         3.03e-06       8823.893653
         3.04e-06       8812.293022
         3.05e-06       8802.007732
         3.06e-06       8789.001298
         3.07e-06       8797.356222
         3.08e-06       8785.964562
         3.09e-06       8784.090061
          3.1e-06       8777.007088
         3.11e-06       8789.573297
         3.12e-06       8778.864587
         3.13e-06       8763.900252
         3.14e-06       8760.196634
         3.15e-06       8764.561139
         3.16e-06       8763.067203
         3.17e-06       8754.711594
         3.18e-06        8747.44739
         3.19e-06       8738.896558
          3.2e-06       8741.325716
         3.21e-06       8742.609176
         3.22e-06       8752.098312
         3.23e-06       8743.962506
         3.24e-06       8744.622258
         3.25e-06       8745.894852
         3.26e-06       8742.916681
         3.27e-06       8740.810131
         3.28e-06       8737.568969
         3.29e-06       8722.774728
          3.3e-06       8718.997531
         3.31e-06       8719.792627
         3.32e-06       8717.686461
         3.33e-06       8722.975766
         3.34e-06       8728.542028
         3.35e-06        8718.01877
         3.36e-06       8709.214005
         3.37e-06       8711.603482
         3.38e-06       8716.835973
         3.39e-06       8716.014001
          3.4e-06       8711.737931
         3.41e-06       8714.453983
         3.42e-06       8720.840396
         3.43e-06       8734.842533
         3.44e-06       8724.065317
         3.45e-06       8722.113801
         3.46e-06       8722.745877
         3.47e-06       8705.869531
         3.48e-06       8691.949848
         3.49e-06       8688.239922
          3.5e-06        8682.02001
         3.51e-06        8678.79429
         3.52e-06       8681.917728
         3.53e-06        8694.40545
         3.54e-06       8693.568603
         3.55e-06       8692.264779
         3.56e-06       8683.121533
         3.57e-06       8683.893293
         3.58e-06       8682.085513
         3.59e-06       8685.599483
          3.6e-06       8684.843148
         3.61e-06       8688.021696
         3.62e-06       8679.205385
         3.63e-06       8674.845514
         3.64e-06       8676.134746
         3.65e-06       8665.696768
         3.66e-06       8667.885868
         3.67e-06        8671.72421
         3.68e-06        8656.88433
         3.69e-06       8657.061154
          3.7e-06        8657.63702
         3.71e-06       8658.623577
         3.72e-06        8663.94332
         3.73e-06       8659.238006
         3.74e-06       8668.784354
         3.75e-06       8665.488732
         3.76e-06       8679.257485
         3.77e-06       8677.825497
         3.78e-06       8661.354362
         3.79e-06       8659.089898
          3.8e-06        8664.23216
         3.81e-06       8663.355017
         3.82e-06       8656.709667
         3.83e-06       8652.289089
         3.84e-06       8638.437872
         3.85e-06       8638.994709
         3.86e-06        8632.39629
         3.87e-06       8629.936317
         3.88e-06       8626.162156
         3.89e-06       8638.289642
          3.9e-06       8632.483926
         3.91e-06       8628.985856
         3.92e-06       8605.957583
         3.93e-06       8605.864563
         3.94e-06       8604.796956
         3.95e-06       8590.694776
         3.96e-06       8586.298983
         3.97e-06       8591.837028
         3.98e-06       8585.647602
         3.99e-06       8586.588318
            4e-06       8591.456558
         4.01e-06       8586.834131
         4.02e-06       8571.196213
         4.03e-06        8577.37313
         4.04e-06       8580.872208
         4.05e-06       8582.373154
         4.06e-06       8584.291615
         4.07e-06       8579.834075
         4.08e-06        8572.55159
         4.09e-06       8560.686392
          4.1e-06       8555.044295
         4.11e-06       8554.836021
         4.12e-06       8559.804973
         4.13e-06       8558.324139
         4.14e-06       8565.508542
         4.15e-06       8570.742147
         4.16e-06       8574.196592
         4.17e-06       8564.711323
         4.18e-06       8566.148761
         4.19e-06       8574.232475
          4.2e-06       8561.383729
         4.21e-06        8556.72432
         4.22e-06       8563.671716
         4.23e-06       8567.617805
         4.24e-06       8558.156089
         4.25e-06       8552.995635
         4.26e-06       8545.997942
         4.27e-06       8544.229886
         4.28e-06       8557.733769
         4.29e-06       8555.483621
          4.3e-06       8564.902264
         4.31e-06       8565.031078
         4.32e-06       8558.284784
         4.33e-06       8564.778916
         4.34e-06       8560.580879
         4.35e-06       8545.268376
         4.36e-06       8547.005762
         4.37e-06       8548.977788
         4.38e-06       8549.559834
         4.39e-06       8540.231729
          4.4e-06       8536.533205
         4.41e-06       8538.260836
         4.42e-06       8534.982676
         4.43e-06       8529.245522
         4.44e-06        8528.73584
         4.45e-06        8520.66404
         4.46e-06       8517.932368
         4.47e-06       8517.864871
         4.48e-06       8522.967019
         4.49e-06       8515.038439
          4.5e-06       8516.970309
         4.51e-06       8520.926791
         4.52e-06       8523.881918
         4.53e-06       8520.143837
         4.54e-06        8525.92092
         4.55e-06       8515.879159
         4.56e-06       8523.099196
         4.57e-06        8519.47269
         4.58e-06       8523.606203
         4.59e-06       8515.533181
          4.6e-06        8514.31468
         4.61e-06       8517.691296
         4.62e-06       8506.708891
         4.63e-06       8498.785832
         4.64e-06       8499.466082
         4.65e-06       8503.831106
         4.66e-06       8512.736865
         4.67e-06       8504.216691
         4.68e-06        8511.15034
         4.69e-06       8507.441539
          4.7e-06         8494.0024
         4.71e-06       8498.739315
         4.72e-06        8501.23239
         4.73e-06       8489.673877
         4.74e-06       8489.742268
         4.75e-06       8496.227608
         4.76e-06       8490.873666
         4.77e-06       8495.137089
         4.78e-06       8492.461066
         4.79e-06       8493.849992
          4.8e-06       8487.739228
         4.81e-06       8484.159187
         4.82e-06       8492.540773
         4.83e-06       8502.068675
         4.84e-06       8502.893285
         4.85e-06       8504.411824
         4.86e-06       8507.028808
         4.87e-06        8502.33953
         4.88e-06       8496.178747
         4.89e-06       8512.570917
          4.9e-06       8508.830987
         4.91e-06       8514.405921
         4.92e-06       8505.618554
         4.93e-06       8501.289886
         4.94e-06       8484.041675
         4.95e-06       8482.335696
         4.96e-06       8471.507237
         4.97e-06       8467.750367
         4.98e-06       8462.297013
         4.99e-06       8463.775268
            5e-06       8452.136059
         5.01e-06       8446.368572
         5.02e-06       8443.904222
         5.03e-06       8438.850751
         5.04e-06       8444.555728
         5.05e-06       8438.599034
         5.06e-06       8441.621431
         5.07e-06       8455.053496
         5.08e-06       8455.868695
         5.09e-06       8452.314374
          5.1e-06       8463.379352
         5.11e-06        8459.40334
         5.12e-06       8448.697298
         5.13e-06       8436.475869
         5.14e-06       8437.630951
         5.15e-06       8441.756494
         5.16e-06       8435.625261
         5.17e-06       8428.464652
         5.18e-06       8440.730192
         5.19e-06       8438.856813
          5.2e-06       8440.398507
         5.21e-06       8435.850026
         5.22e-06       8434.962746
         5.23e-06       8417.722872
         5.24e-06       8425.607746
         5.25e-06       8413.471977
         5.26e-06       8411.114221
         5.27e-06        8418.36117
         5.28e-06       8416.498786
         5.29e-06       8415.499105
          5.3e-06       8413.837038
         5.31e-06       8414.305778
         5.32e-06       8430.456357
         5.33e-06       8421.989744
         5.34e-06       8419.683446
         5.35e-06       8408.807942
         5.36e-06       8409.099957
         5.37e-06       8414.935153
         5.38e-06       8406.659175
         5.39e-06       8409.331199
          5.4e-06       8399.949681
         5.41e-06       8394.427355
         5.42e-06       8392.475098
         5.43e-06       8393.765463
         5.44e-06        8396.32076
         5.45e-06       8393.012095
         5.46e-06       8389.777937
         5.47e-06       8392.388866
         5.48e-06        8398.00944
         5.49e-06       8398.151506
          5.5e-06       8397.451822
         5.51e-06       8402.533425
         5.52e-06       8413.659519
         5.53e-06       8414.743457
         5.54e-06       8413.083172
         5.55e-06       8423.810306
         5.56e-06       8421.987295
         5.57e-06       8413.464733
         5.58e-06       8408.998925
         5.59e-06       8411.345408
          5.6e-06       8417.801114
         5.61e-06       8407.767553
         5.62e-06       8401.830401
         5.63e-06       8399.449206
         5.64e-06       8388.019555
         5.65e-06       8395.869219
         5.66e-06       8391.180104
         5.67e-06       8389.045297
         5.68e-06       8391.552967
         5.69e-06       8398.681609
          5.7e-06       8404.140748
         5.71e-06       8398.993521
         5.72e-06       8400.824623
         5.73e-06       8402.137063
         5.74e-06       8409.027275
         5.75e-06       8411.372601
         5.76e-06       8402.176496
         5.77e-06       8391.582455
         5.78e-06       8400.251142
         5.79e-06       8394.214755
          5.8e-06       8379.106914
         5.81e-06       8377.015907
         5.82e-06       8381.672388
         5.83e-06       8389.310133
         5.84e-06       8385.174335
         5.85e-06       8389.106586
         5.86e-06       8390.354679
         5.87e-06       8388.639054
         5.88e-06       8385.420114
         5.89e-06       8388.022267
          5.9e-06       8387.045102
         5.91e-06       8378.344427
         5.92e-06       8378.243918
         5.93e-06       8371.615598
         5.94e-06       8377.645083
         5.95e-06       8370.599058
         5.96e-06       8373.424718
         5.97e-06       8366.207629
         5.98e-06       8359.464601
         5.99e-06       8362.398981
            6e-06        8371.32093
         6.01e-06       8377.700319
         6.02e-06       8386.036754
         6.03e-06       8376.679897
         6.04e-06       8370.455396
         6.05e-06       8365.964649
         6.06e-06       8354.955446
         6.07e-06         8349.1302
         6.08e-06       8347.658081
         6.09e-06       8336.546472
          6.1e-06        8333.64894
         6.11e-06       8336.229453
         6.12e-06       8332.763133
         6.13e-06       8334.414309
         6.14e-06       8332.650045
         6.15e-06        8333.66475
         6.16e-06       8327.448045
         6.17e-06       8340.014997
         6.18e-06        8333.67768
         6.19e-06       8332.134314
          6.2e-06       8330.080795
         6.21e-06       8332.054472
         6.22e-06       8332.125159
         6.23e-06       8340.017535
         6.24e-06       8336.184869
         6.25e-06       8336.198457
         6.26e-06        8333.97985
         6.27e-06       8340.029682
         6.28e-06       8335.425047
         6.29e-06       8333.247358
          6.3e-06        8328.41311
         6.31e-06       8331.145412
         6.32e-06       8327.094633
         6.33e-06       8322.467064
         6.34e-06       8330.434479
         6.35e-06       8333.137689
         6.36e-06       8324.328779
         6.37e-06       8321.387312
         6.38e-06         8329.5906
         6.39e-06       8346.150832
          6.4e-06       8338.111441
         6.41e-06       8327.790861
         6.42e-06       8326.987414
         6.43e-06       8318.891289
         6.44e-06        8314.20438
         6.45e-06       8293.875374
         6.46e-06       8297.363627
         6.47e-06       8295.393695
         6.48e-06       8298.374388
         6.49e-06       8291.229159
          6.5e-06       8286.224621
         6.51e-06       8288.871135
         6.52e-06       8290.162872
         6.53e-06       8275.621239
         6.54e-06       8283.542617
         6.55e-06       8276.363444
         6.56e-06       8280.657204
         6.57e-06       8284.083576
         6.58e-06       8275.501002
         6.59e-06       8282.134561
          6.6e-06       8270.005409
         6.61e-06       8279.923281
         6.62e-06       8280.788996
         6.63e-06       8277.306613
         6.64e-06       8272.353126
         6.65e-06       8278.941925
         6.66e-06       8280.555603
         6.67e-06       8265.264305
         6.68e-06       8267.165716
         6.69e-06       8271.653805
          6.7e-06        8263.68765
         6.71e-06       8266.392417
         6.72e-06       8266.864192
         6.73e-06       8271.425988
         6.74e-06       8272.084223
         6.75e-06       8271.486229
         6.76e-06       8277.399418
         6.77e-06       8271.127507
         6.78e-06       8278.411391
         6.79e-06       8267.013945
          6.8e-06       8257.479809
         6.81e-06       8256.874197
         6.82e-06       8260.372624
         6.83e-06       8264.769015
         6.84e-06       8273.490301
         6.85e-06       8271.353067
         6.86e-06       8269.927383
         6.87e-06       8269.966745
         6.88e-06       8262.207048
         6.89e-06       8251.607637
          6.9e-06       8252.287787
         6.91e-06       8251.681717
         6.92e-06       8251.915615
         6.93e-06       8263.936534
         6.94e-06        8258.98997
         6.95e-06       8263.812549
         6.96e-06        8252.99289
         6.97e-06        8264.48899
         6.98e-06       8266.197466
         6.99e-06       8269.369214
            7e-06       8273.803352
         7.01e-06       8276.286224
         7.02e-06       8276.717181
         7.03e-06       8273.868617
         7.04e-06       8268.908264
         7.05e-06       8258.093802
         7.06e-06        8260.17787
         7.07e-06       8258.653418
         7.08e-06       8246.730784
         7.09e-06       8238.407521
          7.1e-06       8226.855589
         7.11e-06        8223.12472
         7.12e-06       8219.402963
         7.13e-06       8228.000849
         7.14e-06       8225.961912
         7.15e-06       8232.071814
         7.16e-06       8232.235809
         7.17e-06       8229.124656
         7.18e-06       8222.201795
         7.19e-06        8233.63402
          7.2e-06       8219.197856
         7.21e-06       8216.201546
         7.22e-06        8215.75025
         7.23e-06       8210.946093
         7.24e-06       8216.994269
         7.25e-06       8216.245319
         7.26e-06       8219.576821
         7.27e-06        8215.98514
         7.28e-06       8198.325504
         7.29e-06       8197.874259
          7.3e-06       8213.261008
         7.31e-06       8215.741365
         7.32e-06       8229.395758
         7.33e-06       8216.325928
         7.34e-06       8218.866002
         7.35e-06       8226.859505
         7.36e-06       8224.355904
         7.37e-06       8224.406393
         7.38e-06       8220.567285
         7.39e-06       8217.509724
          7.4e-06       8221.916237
         7.41e-06       8233.380388
         7.42e-06       8225.671436
         7.43e-06       8216.328485
         7.44e-06       8217.789034
         7.45e-06       8221.730978
         7.46e-06       8206.010249
         7.47e-06       8197.231048
         7.48e-06       8207.052546
         7.49e-06       8211.557722
          7.5e-06       8219.898014
         7.51e-06       8216.924452
         7.52e-06       8216.398674
         7.53e-06       8220.952818
         7.54e-06       8212.182067
         7.55e-06       8210.364577
         7.56e-06       8209.947419
         7.57e-06        8213.20314
         7.58e-06       8195.250807
         7.59e-06        8196.27779
          7.6e-06       8181.580942
         7.61e-06       8182.661011
         7.62e-06       8179.879094
         7.63e-06       8192.087701
         7.64e-06       8188.519201
         7.65e-06       8171.061225
         7.66e-06       8181.897123
         7.67e-06       8189.243528
         7.68e-06       8190.135046
         7.69e-06       8196.696518
          7.7e-06       8186.934096
         7.71e-06         8185.0682
         7.72e-06       8189.267835
         7.73e-06       8194.416705
         7.74e-06       8196.160142
         7.75e-06       8189.039369
         7.76e-06       8181.997304
         7.77e-06       8176.705379
         7.78e-06       8179.139033
         7.79e-06       8163.439446
          7.8e-06       8178.406082
         7.81e-06       8178.713617
         7.82e-06         8180.2113
         7.83e-06       8179.024129
         7.84e-06       8176.339403
         7.85e-06       8185.978089
         7.86e-06       8191.880575
         7.87e-06       8178.898278
         7.88e-06       8170.298993
         7.89e-06        8164.51994
          7.9e-06       8170.708245
         7.91e-06       8170.834909
         7.92e-06       8183.418616
         7.93e-06       8189.098797
         7.94e-06       8178.846295
         7.95e-06       8184.743224
         7.96e-06       8180.303111
         7.97e-06        8172.41124
         7.98e-06       8174.049702
         7.99e-06       8183.788477
            8e-06       8177.910092
         8.01e-06       8167.578753
         8.02e-06       8173.907552
         8.03e-06       8183.014829
         8.04e-06       8177.287887
         8.05e-06       8191.057214
         8.06e-06       8182.630862
         8.07e-06       8171.085767
         8.08e-06       8170.877517
         8.09e-06       8168.931479
          8.1e-06       8165.229784
         8.11e-06       8149.626744
         8.12e-06       8150.935399
         8.13e-06        8157.89956
         8.14e-06       8157.822975
         8.15e-06       8162.248957
         8.16e-06       8169.359272
         8.17e-06       8171.479745
         8.18e-06       8161.869953
         8.19e-06       8159.636432
          8.2e-06       8157.805505
         8.21e-06       8151.034879
         8.22e-06       8146.148471
         8.23e-06        8140.87317
         8.24e-06       8147.369268
         8.25e-06       8153.754445
         8.26e-06       8143.819166
         8.27e-06       8150.186463
         8.28e-06       8142.573774
         8.29e-06       8138.820534
          8.3e-06       8135.483971
         8.31e-06       8129.133282