# Probe 0 (5e-06 5e-06 5e-06)
#           Probe                 0
#            Time
            1e-08       486.3975559
            2e-08       555.1117523
            3e-08       616.1902907
            4e-08       670.0006982
            5e-08       710.8563368
            6e-08       746.3040542
            7e-08       783.2276958
            8e-08       823.9321949
            9e-08       859.0448721
            1e-07       893.5881679
          1.1e-07       921.6328793
          1.2e-07       952.7014452
          1.3e-07       975.9596184
          1.4e-07       1004.967506
          1.5e-07       1031.352712
          1.6e-07       1057.734877
          1.7e-07       1080.490766
          1.8e-07        1106.77756
          1.9e-07       1126.376698
            2e-07       1151.033357
          2.1e-07       1171.268166
          2.2e-07       1192.326291
          2.3e-07       1219.825125
          2.4e-07       1238.562689
          2.5e-07       1266.832837
          2.6e-07        1289.67317
          2.7e-07       1309.562767
          2.8e-07       1328.426516
          2.9e-07        1346.96961
            3e-07       1360.491683
          3.1e-07        1378.64536
          3.2e-07       1398.790081
          3.3e-07       1414.430476
          3.4e-07       1439.690983
          3.5e-07       1455.867114
          3.6e-07       1477.738018
          3.7e-07       1494.571474
          3.8e-07       1512.608007
          3.9e-07       1525.120337
            4e-07       1542.786939
          4.1e-07        1557.38454
          4.2e-07       1571.615522
          4.3e-07       1591.978185
          4.4e-07       1612.044871
          4.5e-07       1630.290925
          4.6e-07       1649.657728
          4.7e-07       1667.225829
          4.8e-07       1684.138033
          4.9e-07       1699.019654
            5e-07       1712.615484
          5.1e-07       1734.119502
          5.2e-07       1752.759245
          5.3e-07       1764.562616
          5.4e-07       1782.756214
          5.5e-07       1799.258682
          5.6e-07       1810.956562
          5.7e-07       1828.467839
          5.8e-07       1841.114566
          5.9e-07       1861.661915
            6e-07       1875.651905
          6.1e-07       1893.472666
          6.2e-07       1907.888679
          6.3e-07       1926.903228
          6.4e-07       1941.060964
          6.5e-07       1952.224708
          6.6e-07        1970.91751
          6.7e-07       1988.518957
          6.8e-07       2002.331067
          6.9e-07       2018.899618
            7e-07       2029.696751
          7.1e-07       2042.877544
          7.2e-07       2055.368666
          7.3e-07       2067.347091
          7.4e-07       2081.425024
          7.5e-07       2096.974061
          7.6e-07       2107.394073
          7.7e-07       2123.105103
          7.8e-07       2133.847574
          7.9e-07       2148.633254
            8e-07       2162.067832
          8.1e-07        2176.81885
          8.2e-07       2189.286748
          8.3e-07       2202.972435
          8.4e-07       2216.569803
          8.5e-07       2226.838339
          8.6e-07       2239.184436
          8.7e-07       2253.381949
          8.8e-07       2267.099594
          8.9e-07       2276.522649
            9e-07       2286.990783
          9.1e-07       2301.628473
          9.2e-07       2309.027245
          9.3e-07        2322.25278
          9.4e-07       2329.641298
          9.5e-07       2340.144837
          9.6e-07       2352.613027
          9.7e-07       2365.606342
          9.8e-07       2377.859925
          9.9e-07       2388.962745
            1e-06       2396.805472
         1.01e-06        2409.25391
         1.02e-06       2422.056671
         1.03e-06       2427.654838
         1.04e-06       2437.852858
         1.05e-06       2443.857429
         1.06e-06       2451.602212
         1.07e-06       2462.439199
         1.08e-06       2476.894409
         1.09e-06       2489.358217
          1.1e-06       2500.317468
         1.11e-06       2511.656177
         1.12e-06       2524.843963
         1.13e-06       2532.362006
         1.14e-06       2543.681773
         1.15e-06       2556.510991
         1.16e-06       2565.989196
         1.17e-06       2575.991811
         1.18e-06       2586.566169
         1.19e-06       2600.568871
          1.2e-06       2612.498618
         1.21e-06       2626.220362
         1.22e-06       2638.543309
         1.23e-06       2646.738781
         1.24e-06       2658.164245
         1.25e-06       2670.995978
         1.26e-06        2683.89223
         1.27e-06       2691.114801
         1.28e-06       2702.374671
         1.29e-06       2710.451679
          1.3e-06       2719.887308
         1.31e-06         2731.5155
         1.32e-06       2741.467866
         1.33e-06       2746.979309
         1.34e-06       2758.475428
         1.35e-06       2768.607664
         1.36e-06       2776.186305
         1.37e-06       2789.479244
         1.38e-06       2800.337217
         1.39e-06       2811.476243
          1.4e-06       2827.010702
         1.41e-06       2838.732918
         1.42e-06       2847.883675
         1.43e-06        2859.38317
         1.44e-06       2869.738154
         1.45e-06       2882.747738
         1.46e-06       2894.921043
         1.47e-06       2903.413211
         1.48e-06       2911.096728
         1.49e-06       2921.504216
          1.5e-06        2933.85097
         1.51e-06       2940.792307
         1.52e-06       2951.710443
         1.53e-06        2966.50648
         1.54e-06       2978.267256
         1.55e-06        2987.25643
         1.56e-06       2997.472609
         1.57e-06       3006.598199
         1.58e-06       3012.034501
         1.59e-06       3020.541673
          1.6e-06       3029.660802
         1.61e-06       3033.865147
         1.62e-06       3044.066745
         1.63e-06       3056.790784
         1.64e-06       3066.206806
         1.65e-06       3075.006915
         1.66e-06       3088.662709
         1.67e-06        3101.93604
         1.68e-06       3104.929513
         1.69e-06       3111.858322
          1.7e-06        3125.82971
         1.71e-06       3132.942917
         1.72e-06       3139.489613
         1.73e-06       3149.801832
         1.74e-06       3158.134272
         1.75e-06       3162.770448
         1.76e-06       3171.005901
         1.77e-06       3181.662276
         1.78e-06       3191.139957
         1.79e-06       3198.616982
          1.8e-06       3206.022052
         1.81e-06       3215.728802
         1.82e-06       3224.610857
         1.83e-06       3231.000951
         1.84e-06       3237.554438
         1.85e-06       3245.868084
         1.86e-06       3250.141668
         1.87e-06       3256.809445
         1.88e-06       3265.846781
         1.89e-06       3268.217287
          1.9e-06       3273.474164
         1.91e-06       3280.161644
         1.92e-06       3289.053168
         1.93e-06       3296.746697
         1.94e-06          3307.112
         1.95e-06       3314.825726
         1.96e-06       3326.897646
         1.97e-06       3335.263991
         1.98e-06       3341.168689
         1.99e-06       3352.015353
            2e-06       3357.543093
         2.01e-06       3363.725861
         2.02e-06       3371.968238
         2.03e-06       3380.021846
         2.04e-06       3388.003824
         2.05e-06       3398.698917
         2.06e-06       3403.495699
         2.07e-06       3413.976715
         2.08e-06       3417.017645
         2.09e-06       3422.210167
          2.1e-06       3430.933265
         2.11e-06       3438.813092
         2.12e-06       3448.164333
         2.13e-06       3457.022977
         2.14e-06       3466.838075
         2.15e-06       3472.913112
         2.16e-06       3478.636986
         2.17e-06       3484.990887
         2.18e-06        3494.73042
         2.19e-06       3499.400994
          2.2e-06       3508.717508
         2.21e-06       3511.752598
         2.22e-06       3517.191965
         2.23e-06       3525.478311
         2.24e-06       3532.293133
         2.25e-06       3539.387073
         2.26e-06       3544.986876
         2.27e-06        3550.30614
         2.28e-06       3557.071101
         2.29e-06       3561.642796
          2.3e-06       3567.333545
         2.31e-06       3575.029095
         2.32e-06       3582.723552
         2.33e-06       3586.523747
         2.34e-06       3592.748037
         2.35e-06       3599.461088
         2.36e-06       3609.179586
         2.37e-06       3615.447933
         2.38e-06       3623.160069
         2.39e-06       3628.914359
          2.4e-06       3635.623078
         2.41e-06       3644.264049
         2.42e-06       3648.362815
         2.43e-06       3653.928286
         2.44e-06       3662.356976
         2.45e-06       3670.831005
         2.46e-06       3674.811514
         2.47e-06       3681.864035
         2.48e-06       3687.240145
         2.49e-06       3694.430805
          2.5e-06       3697.455743
         2.51e-06       3702.178995
         2.52e-06       3710.344928
         2.53e-06       3716.951315
         2.54e-06       3719.067998
         2.55e-06       3725.510639
         2.56e-06       3731.882838
         2.57e-06       3737.370773
         2.58e-06       3744.509011
         2.59e-06       3749.949334
          2.6e-06       3753.808422
         2.61e-06       3758.922509
         2.62e-06       3762.083737
         2.63e-06        3770.10232
         2.64e-06       3775.401001
         2.65e-06       3784.533224
         2.66e-06       3784.904991
         2.67e-06       3791.062083
         2.68e-06       3798.542741
         2.69e-06       3797.497359
          2.7e-06       3802.607954
         2.71e-06        3805.04696
         2.72e-06       3809.460169
         2.73e-06       3815.336244
         2.74e-06       3820.097106
         2.75e-06       3827.644111
         2.76e-06       3835.793915
         2.77e-06       3843.083782
         2.78e-06       3847.076622
         2.79e-06       3855.850757
          2.8e-06       3862.836757
         2.81e-06       3869.079455
         2.82e-06       3871.678478
         2.83e-06        3876.34255
         2.84e-06       3884.092103
         2.85e-06       3884.695325
         2.86e-06       3889.033731
         2.87e-06       3894.415763
         2.88e-06       3899.797382
         2.89e-06       3905.874404
          2.9e-06       3911.324724
         2.91e-06       3916.751435
         2.92e-06        3920.16031
         2.93e-06       3924.983476
         2.94e-06       3933.747822
         2.95e-06       3939.520579
         2.96e-06       3947.958642
         2.97e-06       3946.637361
         2.98e-06       3953.405773
         2.99e-06       3957.114227
            3e-06       3964.878196
         3.01e-06       3968.354335
         3.02e-06       3975.630525
         3.03e-06       3979.546396
         3.04e-06        3985.61675
         3.05e-06       3989.763771
         3.06e-06       3995.763804
         3.07e-06       4001.670707
         3.08e-06       4007.206564
         3.09e-06       4014.502163
          3.1e-06       4017.906539
         3.11e-06       4017.605478
         3.12e-06       4018.670766
         3.13e-06       4023.649633
         3.14e-06       4031.545691
         3.15e-06       4036.176436
         3.16e-06       4043.909167
         3.17e-06       4052.705957
         3.18e-06       4060.321333
         3.19e-06       4066.153893
          3.2e-06        4073.00429
         3.21e-06       4078.465673
         3.22e-06       4087.490028
         3.23e-06       4095.171506
         3.24e-06       4101.256017
         3.25e-06       4107.062486
         3.26e-06       4108.589218
         3.27e-06       4110.324107
         3.28e-06       4117.656499
         3.29e-06       4126.792167
          3.3e-06       4132.064957
         3.31e-06       4136.574316
         3.32e-06       4141.037186
         3.33e-06       4144.505575
         3.34e-06       4149.569166
         3.35e-06       4157.776627
         3.36e-06       4162.608255
         3.37e-06       4166.121995
         3.38e-06       4168.572281
         3.39e-06       4173.079699
          3.4e-06       4178.395839
         3.41e-06       4180.568427
         3.42e-06       4187.386304
         3.43e-06       4191.060803
         3.44e-06       4198.709734
         3.45e-06       4207.189793
         3.46e-06       4208.114001
         3.47e-06       4212.619375
         3.48e-06       4217.979317
         3.49e-06        4220.08162
          3.5e-06       4224.424681
         3.51e-06       4224.748092
         3.52e-06       4231.539454
         3.53e-06        4236.29772
         3.54e-06       4243.573225
         3.55e-06       4248.584898
         3.56e-06       4256.413642
         3.57e-06       4260.408583
         3.58e-06       4263.410447
         3.59e-06       4272.323096
          3.6e-06       4278.372124
         3.61e-06       4278.118165
         3.62e-06       4281.604267
         3.63e-06       4289.891893
         3.64e-06        4295.93978
         3.65e-06       4299.609872
         3.66e-06       4301.918033
         3.67e-06        4303.23366
         3.68e-06       4313.227207
         3.69e-06       4318.558207
          3.7e-06       4322.758179
         3.71e-06       4324.881171
         3.72e-06       4329.680807
         3.73e-06        4330.25767
         3.74e-06       4332.334349
         3.75e-06        4340.10996
         3.76e-06       4346.362298
         3.77e-06       4348.784683
         3.78e-06       4354.667365
         3.79e-06        4359.53473
          3.8e-06       4362.856394
         3.81e-06       4370.306664
         3.82e-06       4374.412145
         3.83e-06       4379.739792
         3.84e-06       4390.763194
         3.85e-06       4394.660299
         3.86e-06       4400.171332
         3.87e-06       4408.587181
         3.88e-06       4415.273249
         3.89e-06       4417.325092
          3.9e-06       4422.281622
         3.91e-06       4430.649544
         3.92e-06        4437.49552
         3.93e-06       4443.280823
         3.94e-06       4446.300116
         3.95e-06        4453.79035
         3.96e-06       4460.058688
         3.97e-06        4464.59839
         3.98e-06       4472.709453
         3.99e-06       4476.833874
            4e-06       4483.193003
         4.01e-06       4485.427824
         4.02e-06       4489.643906
         4.03e-06       4493.376037
         4.04e-06       4492.224159
         4.05e-06         4498.7897
         4.06e-06        4501.60009
         4.07e-06       4507.635271
         4.08e-06        4511.18251
         4.09e-06       4516.364957
          4.1e-06       4519.220956
         4.11e-06       4523.666032
         4.12e-06       4524.403022
         4.13e-06       4529.907259
         4.14e-06       4531.611443
         4.15e-06       4532.555643
         4.16e-06        4538.31278
         4.17e-06       4541.122154
         4.18e-06        4543.17157
         4.19e-06       4545.036737
          4.2e-06       4553.717409
         4.21e-06        4558.89786
         4.22e-06       4563.755754
         4.23e-06        4564.88386
         4.24e-06       4572.411956
         4.25e-06       4579.271986
         4.26e-06       4582.955053
         4.27e-06       4585.717275
         4.28e-06        4583.89882
         4.29e-06       4590.343847
          4.3e-06       4593.059857
         4.31e-06        4591.70186
         4.32e-06       4592.438402
         4.33e-06       4596.259142
         4.34e-06       4599.757538
         4.35e-06       4604.659718
         4.36e-06       4606.408803
         4.37e-06       4613.450901
         4.38e-06        4619.01984
         4.39e-06       4620.216437
          4.4e-06       4624.013249
         4.41e-06       4627.901978
         4.42e-06       4625.900104
         4.43e-06        4630.17993
         4.44e-06        4631.46845
         4.45e-06       4631.698541
         4.46e-06       4631.284376
         4.47e-06        4630.20294
         4.48e-06       4638.578062
         4.49e-06       4648.586014
          4.5e-06       4653.233099
         4.51e-06       4652.243883
         4.52e-06       4652.036837
         4.53e-06       4654.268316
         4.54e-06       4660.134375
         4.55e-06        4665.03404
         4.56e-06       4668.461386
         4.57e-06       4669.013433
         4.58e-06       4669.979508
         4.59e-06       4674.050742
          4.6e-06       4675.706797
         4.61e-06       4680.329833
         4.62e-06       4686.562602
         4.63e-06       4692.956033
         4.64e-06       4698.912203
         4.65e-06       4700.889863
         4.66e-06        4705.30499
         4.67e-06       4710.777689
         4.68e-06       4714.387698
         4.69e-06       4718.756358
          4.7e-06       4725.998798
         4.71e-06        4726.64255
         4.72e-06       4729.723318
         4.73e-06        4732.57411
         4.74e-06       4735.585764
         4.75e-06       4738.942179
         4.76e-06        4743.44791
         4.77e-06       4745.424863
         4.78e-06        4745.74669
         4.79e-06       4749.056861
          4.8e-06       4753.746121
         4.81e-06       4756.895183
         4.82e-06       4759.860288
         4.83e-06       4761.101474
         4.84e-06       4764.549151
         4.85e-06       4768.157619
         4.86e-06       4771.237378
         4.87e-06       4776.362484
         4.88e-06       4775.994771
         4.89e-06       4781.395463
          4.9e-06       4785.784795
         4.91e-06       4788.979033
         4.92e-06       4791.621688
         4.93e-06       4794.563015
         4.94e-06       4802.237729
         4.95e-06       4805.707287
         4.96e-06       4811.060796
         4.97e-06       4812.071735
         4.98e-06       4813.657055
         4.99e-06       4816.873588
            5e-06       4821.100912
         5.01e-06       4821.537421
         5.02e-06       4826.361904
         5.03e-06       4829.210565
         5.04e-06        4830.88757
         5.05e-06       4837.365667
         5.06e-06       4842.373342
         5.07e-06       4846.737678
         5.08e-06       4847.748346
         5.09e-06       4853.329853
          5.1e-06       4856.866986
         5.11e-06       4858.727389
         5.12e-06       4862.631855
         5.13e-06       4865.135248
         5.14e-06       4866.605108
         5.15e-06       4869.429952
         5.16e-06       4874.137896
         5.17e-06       4875.791379
         5.18e-06       4881.279881
         5.19e-06       4885.367411
          5.2e-06       4889.317043
         5.21e-06       4889.937033
         5.22e-06       4891.682175
         5.23e-06       4895.769397
         5.24e-06       4897.307814
         5.25e-06        4899.64985
         5.26e-06       4900.384598
         5.27e-06       4904.747085
         5.28e-06       4906.101724
         5.29e-06       4906.859398
          5.3e-06       4913.219105
         5.31e-06       4916.823576
         5.32e-06       4914.114492
         5.33e-06        4919.41782
         5.34e-06       4922.517075
         5.35e-06       4924.147026
         5.36e-06       4929.541802
         5.37e-06       4931.814433
         5.38e-06       4930.322305
         5.39e-06       4935.051147
          5.4e-06       4938.769835
         5.41e-06       4939.871649
         5.42e-06       4940.789822
         5.43e-06       4943.750888
         5.44e-06       4946.643032
         5.45e-06       4950.866377
         5.46e-06       4956.145382
         5.47e-06        4961.07993
         5.48e-06       4965.050397
         5.49e-06       4968.928956
          5.5e-06       4974.299098
         5.51e-06       4977.695496
         5.52e-06       4980.678753
         5.53e-06       4981.894986
         5.54e-06       4985.933727
         5.55e-06       4985.176472
         5.56e-06       4988.297256
         5.57e-06       4988.136629
         5.58e-06       4991.257351
         5.59e-06       4992.152252
          5.6e-06       4995.249943
         5.61e-06        5000.61912
         5.62e-06       5000.940347
         5.63e-06       5009.567316
         5.64e-06       5013.674128
         5.65e-06        5018.35438
         5.66e-06       5021.772706
         5.67e-06       5024.135664
         5.68e-06       5025.993887
         5.69e-06       5027.347393
          5.7e-06       5028.287957
         5.71e-06       5031.178436
         5.72e-06       5036.821592
         5.73e-06       5042.762736
         5.74e-06       5046.249322
         5.75e-06       5047.602646
         5.76e-06       5051.203807
         5.77e-06       5053.176381
         5.78e-06       5059.071015
         5.79e-06       5060.584775
          5.8e-06       5061.066423
         5.81e-06       5065.103031
         5.82e-06       5068.772583
         5.83e-06       5070.400919
         5.84e-06       5075.171156
         5.85e-06       5075.561024
         5.86e-06       5080.445765
         5.87e-06       5082.142776
         5.88e-06       5087.210763
         5.89e-06       5090.948585
          5.9e-06       5095.832843
         5.91e-06       5096.474893
         5.92e-06        5098.74498
         5.93e-06       5103.262126
         5.94e-06       5106.518059
         5.95e-06        5106.08241
         5.96e-06       5108.214786
         5.97e-06       5108.902644
         5.98e-06       5114.290754
         5.99e-06       5117.890369
            6e-06        5122.31526
         6.01e-06       5125.181057
         6.02e-06       5127.634138
         6.03e-06       5132.700663
         6.04e-06       5134.305411
         6.05e-06       5137.789951
         6.06e-06       5142.007978
         6.07e-06       5148.197273
         6.08e-06       5147.074048
         6.09e-06       5143.818944
          6.1e-06        5145.76743
         6.11e-06       5148.472347
         6.12e-06        5152.34626
         6.13e-06       5154.271721
         6.14e-06       5156.334689
         6.15e-06       5159.704147
         6.16e-06       5164.632141
         6.17e-06       5164.930108
         6.18e-06       5168.528588
         6.19e-06       5173.250041
          6.2e-06       5174.991902
         6.21e-06       5177.329633
         6.22e-06       5181.798733
         6.23e-06       5185.305172
         6.24e-06       5190.255313
         6.25e-06       5190.484483
         6.26e-06       5195.526133
         6.27e-06       5200.728039
         6.28e-06       5203.363304
         6.29e-06       5209.573198
          6.3e-06       5211.497989
         6.31e-06       5211.956269
         6.32e-06       5212.781171
         6.33e-06       5215.828688
         6.34e-06       5219.105281
         6.35e-06        5216.99727
         6.36e-06       5218.394976
         6.37e-06       5221.556955
         6.38e-06       5224.718874
         6.39e-06       5222.473459
          6.4e-06       5225.749922
         6.41e-06       5227.628704
         6.42e-06       5229.851139
         6.43e-06       5235.143624
         6.44e-06       5239.748639
         6.45e-06       5243.368414
         6.46e-06       5247.423388
         6.47e-06       5249.805926
         6.48e-06       5254.456362
         6.49e-06       5258.808872
          6.5e-06       5264.673133
         6.51e-06       5270.880786
         6.52e-06       5275.690991
         6.53e-06       5279.012245
         6.54e-06       5283.432851
         6.55e-06       5287.166229
         6.56e-06       5290.899527
         6.57e-06       5291.953081
         6.58e-06       5298.778128
         6.59e-06       5300.381288
          6.6e-06       5302.465375
         6.61e-06       5303.633369
         6.62e-06       5307.045699
         6.63e-06       5310.572467
         6.64e-06       5312.038117
         6.65e-06       5316.320491
         6.66e-06       5319.572279
         6.67e-06       5322.434719
         6.68e-06        5327.33511
         6.69e-06       5329.831052
          6.7e-06       5332.258265
         6.71e-06        5335.53266
         6.72e-06       5338.898585
         6.73e-06       5341.531747
         6.74e-06       5339.562603
         6.75e-06       5344.141974
         6.76e-06       5346.065276
         6.77e-06       5352.292968
         6.78e-06       5348.240413
         6.79e-06       5355.360944
          6.8e-06       5356.002007
         6.81e-06       5358.177025
         6.82e-06        5358.68071
         6.83e-06       5361.702789
         6.84e-06       5364.656136
         6.85e-06       5367.266031
         6.86e-06       5365.663468
         6.87e-06       5367.288924
         6.88e-06       5369.944568
         6.89e-06       5372.485709
          6.9e-06       5375.965411
         6.91e-06       5374.637638
         6.92e-06       5376.308799
         6.93e-06       5380.727003
         6.94e-06        5385.30534
         6.95e-06        5387.86916
         6.96e-06       5388.418545
         6.97e-06       5389.105274
         6.98e-06          5388.533
         6.99e-06       5388.189635
            7e-06        5390.31849
         7.01e-06       5394.713468
         7.02e-06       5395.697746
         7.03e-06       5398.146972
         7.04e-06       5397.643396
         7.05e-06       5399.451687
         7.06e-06       5396.498898
         7.07e-06       5398.971004
         7.08e-06       5405.196902
         7.09e-06       5406.020903
          7.1e-06       5409.477087
         7.11e-06       5415.885737
         7.12e-06       5418.334699
         7.13e-06         5414.6498
         7.14e-06       5416.938566
         7.15e-06        5419.34174
         7.16e-06       5421.332918
         7.17e-06       5422.797679
         7.18e-06       5428.908357
         7.19e-06       5427.970026
          7.2e-06       5430.281515
         7.21e-06       5432.135264
         7.22e-06       5433.325315
         7.23e-06       5433.988995
         7.24e-06       5435.407887
         7.25e-06       5440.282389
         7.26e-06       5441.357966
         7.27e-06       5440.053542
         7.28e-06       5442.204693
         7.29e-06       5441.403736
          7.3e-06       5445.202534
         7.31e-06        5446.36962
         7.32e-06       5445.202534
         7.33e-06       5444.813504
         7.34e-06       5445.408491
         7.35e-06       5449.802183
         7.36e-06       5450.854824
         7.37e-06       5453.234685
         7.38e-06       5455.843345
         7.39e-06       5457.582432
          7.4e-06       5459.618975
         7.41e-06       5460.694444
         7.42e-06       5464.103869
         7.43e-06        5470.30475
         7.44e-06       5473.805529
         7.45e-06       5474.652113
         7.46e-06       5476.093585
         7.47e-06       5479.136658
         7.48e-06       5480.829776
         7.49e-06       5480.326418
          7.5e-06       5480.761136
         7.51e-06       5483.369425
         7.52e-06       5485.931921
         7.53e-06       5488.517261
         7.54e-06       5492.864217
         7.55e-06       5490.667873
         7.56e-06       5490.324692
         7.57e-06       5492.383769
         7.58e-06       5495.289319
         7.59e-06       5497.851659
          7.6e-06       5502.976237
         7.61e-06       5506.979721
         7.62e-06       5507.666024
         7.63e-06       5510.937371
         7.64e-06       5515.947231
         7.65e-06       5519.264192
         7.66e-06       5518.463551
         7.67e-06       5521.483094
         7.68e-06       5522.901348
         7.69e-06       5525.097334
          7.7e-06       5525.394705
         7.71e-06       5525.829324
         7.72e-06       5526.812931
         7.73e-06       5529.329114
         7.74e-06       5529.512108
         7.75e-06       5531.502156
         7.76e-06        5532.98896
         7.77e-06       5534.384259
         7.78e-06       5534.658742
         7.79e-06       5537.563673
          7.8e-06       5537.289193
         7.81e-06       5541.337733
         7.82e-06        5544.35693
         7.83e-06        5544.53991
         7.84e-06       5544.288313
         7.85e-06       5546.186725
         7.86e-06       5548.016502
         7.87e-06       5553.094049
         7.88e-06        5556.11307
         7.89e-06       5559.589463
          7.9e-06        5560.41281
         7.91e-06       5561.533472
         7.92e-06       5561.602084
         7.93e-06       5561.396249
         7.94e-06       5561.968013
         7.95e-06        5564.73533
         7.96e-06       5564.117833
         7.97e-06       5564.964032
         7.98e-06        5567.45687
         7.99e-06       5570.224112
            8e-06       5573.311487
         8.01e-06       5575.598401
         8.02e-06       5579.326017
         8.03e-06       5581.567128
         8.04e-06       5581.155497
         8.05e-06       5579.806257
         8.06e-06        5584.79154
         8.07e-06       5585.729126
         8.08e-06        5589.15928
         8.09e-06        5593.20679
          8.1e-06       5594.395873
         8.11e-06       5600.272591
         8.12e-06       5601.278705
         8.13e-06       5600.021061
         8.14e-06       5604.800065
         8.15e-06       5608.870134
         8.16e-06       5607.543941
         8.17e-06       5611.705417
         8.18e-06       5613.191638
         8.19e-06       5612.254177
          8.2e-06       5614.563525
         8.21e-06       5617.741696
         8.22e-06       5622.817524
         8.23e-06       5622.771796
         8.24e-06       5626.475702
         8.25e-06        5627.48169
         8.26e-06       5629.402199
         8.27e-06        5631.00261
         8.28e-06       5630.293858
         8.29e-06       5629.287884
          8.3e-06       5632.694459
         8.31e-06       5636.306742