/*--------------------------------*- C++ -*----------------------------------*\
| =========                 |                                                 |
| \\      /  F ield         | OpenFOAM: The Open Source CFD Toolbox           |
|  \\    /   O peration     | Version:  v1706                                 |
|   \\  /    A nd           | Web:      www.OpenFOAM.com                      |
|    \\/     M anipulation  |                                                 |
\*---------------------------------------------------------------------------*/
FoamFile
{
    version     2.0;
    format      ascii;
    class       labelField;
    location    "0.008/lagrangian/dsmc";
    object      origId;
}
// * * * * * * * * * * * * * * * * * * * * * * * * * * * * * * * * * * * * * //


182963
(
30477694
30679728
30583035
1807680
30665968
1801895
30729240
30655454
30676935
30721299
19198693
1692960
19221376
19189545
30671166
1693148
30708190
1810084
30585559
30554979
1693275
1806780
19175004
30667500
30598902
30503573
30789729
1804844
19225900
30715878
30708471
30704951
30698335
30621932
1693993
30715055
19233113
1694049
1694068
30750922
30742001
30728190
1694353
19250712
19210373
30758055
30753588
1694614
30675440
19233692
30707490
30705817
30686367
1694814
19192855
1807704
30735186
30817967
30678036
30755573
30666836
1812442
30790788
1695072
19226476
30781440
30748497
30493256
30770910
30641947
1808886
30686854
30748772
30830334
1807544
30755241
19266297
30745085
30775349
30769385
30566768
19227816
30785106
30692418
30734721
30752457
1695659
1807208
30692071
30762861
19274841
19246684
30779374
30733901
1695893
19234838
30644405
30742748
30823336
30711799
30645619
30759266
30685584
30726997
30621644
1810864
30707876
30746338
19243776
30791557
30585882
19238560
30734459
30741391
30760469
30770904
19247054
30806667
19264783
30604746
19222390
19255369
19249935
30760792
1811594
30803115
30757756
19183159
1813092
30754968
30742896
30483070
19258927
30626228
30800905
1811631
30738652
30785274
30778750
30668071
30800601
30705512
30611897
30778452
30592614
1814075
30529011
1808399
30599798
30807769
30690469
30815926
30784786
30791549
1696634
19238334
30793741
30769639
1812053
1811347
30658066
19251677
1804221
30697103
30800931
30821705
30670871
1813539
30762056
19273007
1814945
30760701
30728221
19251684
30741988
30744480
19263231
1812859
30697118
30798399
30761700
30766767
30803707
19270373
30661618
19258310
30823040
1812676
1697086
30786395
30800581
30713550
1811745
1697155
1810159
30781115
30764162
30838737
1812250
30817361
19245516
30732690
30790148
30823962
1810587
30713685
1813109
1814263
30787047
30783523
30814355
19275692
19244542
30773089
30761998
30804298
30828305
30808188
19253682
30664291
1697359
30793429
30835289
30834998
30657086
30841454
1697404
30706856
30633265
1815096
1815609
30760749
1808694
30808893
30766438
30739546
30787266
19274313
30822599
19224549
30767502
30677250
1697566
1814018
1697599
30706905
30761755
30792270
19267640
19277603
19223541
30712983
30805265
30759839
1697705
30661939
30802806
30791942
30613774
1815389
30791072
30849663
1815724
1697747
30710580
30807989
1815459
1815921
19221229
30780154
30808285
30737323
1697783
30835416
30830421
30771854
1697799
1697800
30833914
30834197
19277235
30857929
30814489
30770374
19279315
30704628
1813703
30837297
1697853
30663668
30778424
30812595
30850690
30684023
19272692
1814480
30833579
30652659
30836072
1697920
30677221
1814459
1697939
30823201
30815642
30748687
30696169
30824002
1697964
30505448
30768266
30799632
30799596
30584379
30700149
30824842
30644103
1815175
19224137
30791948
30789818
30827392
19252470
30820282
1811874
30823307
30730144
19277951
1698066
1698067
30783778
30828316
30839644
1812308
30827263
30753350
30721382
1813287
1698107
30684356
30787014
30575947
30783194
19266495
30778577
30670603
30764139
19285753
1814076
30802757
30805263
30794050
30732077
30835617
19273699
1698193
30798391
30796587
19244174
30640509
30748123
30806800
19295268
30840628
30738291
30791240
30816237
1814364
30727608
30820888
30638734
1813056
1698283
30758605
30804341
30697404
30617729
30822112
30758157
30809571
19266888
30757904
30636133
1816286
1698320
30767830
30826434
30771596
30547220
30823503
30639958
30683701
30801457
19276805
1814725
1698373
1698390
30798018
19260073
30745054
30829216
1698404
30652644
30850100
1816339
30765753
19292376
1815553
19245306
30720017
30741539
30724389
30802964
30791689
19276603
19322000
30765003
30803675
30725782
30863359
30811981
30753623
30793187
30668214
30648785
30813389
19282828
1698523
30823623
30696784
30819926
30864238
19213087
30848760
30832648
19276052
19277952
30840333
1816602
30714503
1816248
19289437
1698588
30785729
19276853
19240647
30725984
30819641
19276986
30798015
30831718
30850677
30840936
1816490
30871989
30595221
30745611
30859837
1814575
1698667
30711816
19266899
1814674
30859222
30673220
1698689
1816453
30830329
30645316
30840973
1814624
19262990
30808784
30779629
30851867
30884947
1698739
30832343
30717041
30707415
1816844
1698764
1698768
30736036
30848773
30812023
19271621
30742859
19298943
1816909
30836378
30814037
19297777
30857391
30740416
1698813
30833456
19259106
30775312
1698830
30738938
1813757
1698847
30808937
30757049
30720661
30842193
1814143
30802451
1815820
1816199
1698871
30743734
30762048
19278178
19284590
1698887
1698888
19267893
30864842
30811604
19297598
1816910
1698905
30766425
30813166
19275460
30839472
30830949
30835691
30863189
1698918
1698919
30667944
19284767
30792830
30595220
30703887
30691073
1817189
30755854
30830455
30761015
19288260
30852669
30830731
30808256
1698976
30755843
30813780
19295454
30706777
1698992
30464844
19294469
19250721
30821231
30759212
1813862
30846779
1815192
1815882
30720021
30546672
30810172
30775218
30753045
30876003
30857587
19303384
30833785
30826989
1699054
30698987
30834814
30853675
30795031
1814838
19305332
1699077
19236787
30761250
30834497
30792469
30870421
30771606
19297180
19298954
30803319
19306946
1699096
1811911
19271922
19289270
19304015
30813688
1699110
30713392
30848841
19292173
19299905
1699123
1699125
30767305
30792018
30636842
30807467
30845240
30851123
1699148
30513254
19281469
19281713
30899451
19296438
1699173
1699174
30797176
19280483
30817718
19307889
1817583
30754647
30818356
30853665
30814110
30838189
1814642
1817278
1699206
30791051
30878450
30514405
30802435
30811878
30853679
1816791
30837646
19286117
30843572
1817736
1699230
30829854
19270409
30860147
30841562
30831388
30829535
30822307
1699257
19266872
19289224
19296231
1815072
1816527
1817087
1699272
30618765
30800792
19280487
30825187
30859871
30854307
30901401
30835915
1815555
1699292
30840240
30861231
30840082
1813647
19298732
30815671
30849788
30853105
30859197
30764130
30832157
30841222
19267880
1817677
1699319
30808904
30884359
30770711
30866166
30772292
30785170
19295457
30775664
30839464
30828596
30822081
1816863
30798747
30799369
30836020
30803997
1815841
1699357
19290221
19290989
19296995
30858637
30753265
1815444
30891703
1699374
30879360
30796875
19293884
30843703
30859869
19252059
30840653
19300397
19300907
1699410
30579493
30699190
19292988
30857698
19309817
30871454
1817678
30801538
19273667
30775852
19304396
30630419
30850978
19305918
1809707
30848154
30822700
1812532
1813540
30678725
30776449
30772574
19274496
30837311
30811855
19286538
19281118
30834753
1817714
1699500
30830129
30849367
19273490
30850109
30855839
30886404
30660134
1815433
30624262
1699516
1699517
30756702
30659525
19302896
30811106
30846650
1818034
1699531
30709867
30861549
1815556
1699551
1699553
1811510
30836882
19289226
19299329
30789713
30830665
30879972
19311354
19266296
30844177
19288049
30742132
19298171
30862560
1699585
30814337
30840972
30661086
30802776
30684536
30910073
19283009
30816533
30858630
19299322
30823632
30808483
30832023
19288452
30771167
1699628
30836698
30806374
19307894
30847958
30688331
1818199
30715800
30807389
19277662
19264934
19305901
30848888
1816861
1699665
30853666
19287867
30858061
30793092
19308452
1815973
1816845
19280492
30838420
30800033
19302108
30647588
19283584
30883392
30732345
30827657
30885923
30754621
30778104
30678485
30806780
30713959
1699729
30862169
19272175
30833263
30855547
19309658
30819945
30792588
30800882
30803386
30787314
1813374
30836400
30786791
19301283
30826589
30822713
30834359
30833611
1813562
1813920
19308662
1812721
1818198
19270599
30826737
30677210
30846427
1814793
30837779
1817126
1818289
1699779
30788107
30846150
19277019
19312171
19297402
1817762
1699798
30833589
19265172
30825345
30901412
19314667
30749550
19256923
30781639
19281656
30831982
30809234
1816315
1699827
19266303
30820879
30838217
19291566
19298746
19306907
1699844
30812008
30825795
30693633
30821201
1814569
19291559
1815367
1699863
30807904
30821681
1814389
19289830
30887020
30805293
30865148
1816274
1699873
30781124
1814160
1814270
30843378
30851255
30823625
30773247
30923020
19296992
1817108
1818083
1818200
30660378
30854187
30835111
30738780
30853361
30866838
19298432
30845836
30869260
30843990
1815687
30794748
30764476
30578818
30801861
19283777
30863793
30818854
30880252
30831634
1816105
1816372
1817064
30790165
30830625
19278164
30890403
19294212
30917651
30808895
1815387
30828893
1817612
30735828
30747733
30739085
19298595
30902362
19304970
30867362
30718917
30843375
19295494
30736067
1814857
19301504
19320823
30674757
30745596
1699959
30822111
30904928
30716384
19289250
30726995
30859219
19300886
30762640
30654825
30834356
19271926
30785333
1815637
19314710
30881307
30868362
1699991
1699992
19301486
30813803
1700016
30794773
30793517
30789516
19295481
30836982
19305773
30865572
30736765
30833403
19314514
1818568
1700032
1700033
30781998
30583197
19303419
30848261
30891439
19315839
19310584
1817364
1700041
30781108
30832290
30856171
30855432
30876010
19294878
19315045
30873954
30752069
19309531
1818608
1700061
1700062
1700063
19292964
30766335
30859849
30369274
19294311
19302871
30757046
1700078
1700081
1700082
19260844
30755500
30836047
30856800
30831362
19292935
30756070
19313892
1817322
1818508
19279596
30819601
30882758
1813960
30836674
30830714
1815115
30873060
30753100
19313022
1818345
1700114
1700115
30794439
30826736
19278180
30756160
19303202
30824121
30850077
30860326
1817419
1816233
30824875
30817044
30882753
30776234
19304428
30840837
30609650
19315919
1700160
19256941
30787924
30861377
30859845
30803055
30750554
30859259
1818346
30862469
30742528
19298060
1814730
30881891
19305906
19299415
1700190
19290622
30760377
19325694
19306928
30615966
30897356
30866804
1818260
1700202
1700204
19234464
30671661
30567392
30802174
30781288
30846168
30809541
1815123
30861345
19305405
1812788
1818725
1700221
30830149
19280273
30812572
30817643
30824155
30852212
30774051
30867088
19311011
1816368
1817255
1817257
1818649
30796780
30742257
30804595
19280898
30804576
1814870
19305932
30874576
30897374
30678371
19322587
30813684
30841887
30836053
30766749
19304592
30864366
19313906
1700271
30781317
30859248
30844291
30863204
30926158
19297069
30874268
19310606
30896731
1816541
1700292
1700294
30747444
30840353
30863466
30848864
19294137
19309854
30890833
30894206
19316612
1817190
1818243
30865462
19278553
30757064
30841580
30829193
30701374
30867137
30873024
30916416
19307128
30885808
19309636
30882183
30816858
30831351
19294104
19294884
19297997
30647722
1814745
19310608
19309613
19312573
19308508
19314861
1818528
1700342
1700343
30795297
30726055
19291752
19298882
19301661
19306519
19306291
30885928
30908139
19309268
30888651
30647025
30788115
30804620
1814334
30882114
30833594
30815915
19318124
30824258
1815059
19308485
30852759
30876131
19309257
30927096
19311031
30834661
1818320
1818788
30767330
30791663
1813583
30855212
1813744
1813994
19294373
30912932
19295510
19300913
30873329
30778653
30840876
30855885
19304434
30629687
19313221
19313623
30758165
1817645
1818713
1700390
30758661
30787504
30804815
30838213
30857092
19289230
30606008
30801813
19301281
19315337
1818455
1700405
1700408
30520224
30716236
30879971
19290010
30708216
30785329
1814835
30802444
19309255
30859273
19312913
1815837
19308259
19324235
1700416
30695194
30671635
30816199
30832939
30697595
19257778
1815321
19309269
30802733
30804195
19327831
30881296
30839716
30883195
30748113
30752424
1817779
1818607
1700426
1700427
30863206
30817716
30908766
30865881
19308461
19340689
30889295
19308300
1817608
1700441
30804617
1811616
30765082
30870062
30748973
30858049
30827220
30800577
30753529
30856025
19315706
19213705
30720125
19289238
30854915
30816823
30870855
19300944
30870535
30866514
19307475
19308256
19311557
30835374
30946046
19281661
19285939
19297408
30836879
19301138
30886813
30825475
30872049
30887465
30925519
19317845
19320281
30879772
1700494
30782956
30799029
30844809
19285289
30865458
30835678
30884751
30846441
19306510
30856782
30809868
19311980
19308955
19306170
19312774
30845796
19312742
19313515
1700512
30761383
30832643
30849168
1813696
30811418
30826689
30846443
30860435
30714281
30890701
30791026
30790724
19311610
30886524
30759414
19309237
1816030
1816086
19315105
30748579
30823652
30836044
19282226
30814294
19293924
1814589
19289525
19295954
30834441
30775869
19309156
19320684
30839457
30823990
30758001
30842805
30871498
30893143
30633803
30796109
19303086
1813968
30881941
30868915
19312530
19311508
30903424
19225923
30784466
30851477
30762499
19296250
30801719
30890996
30828910
30898519
30845558
30860738
1815405
30940776
19314100
30886251
19307274
19309272
19315478
30829698
1816840
19329702
30696992
1700571
30848149
30831380
30843981
30812900
1815608
30785570
30889292
30829492
30823237
19314921
1817141
1818883
30702868
30771302
30849517
19248802
19289806
30853975
30835708
30862260
30854017
30864929
19297775
19304392
30874517
19319880
19318457
30808567
19314273
1817460
1700606
30784772
30855113
30897559
30823315
30850056
30846455
30904924
30783781
19298214
30757073
30764026
30785863
30845538
19309261
30888386
30884636
30784151
19326655
19316209
1817738
1819074
30809431
1700620
1700621
30802123
30849186
30937233
30890177
30704944
1700634
30831398
30880271
19278148
1813561
30801433
19297207
30859562
19298950
30859509
19303429
30781375
19307859
19315476
30849439
30882248
1817766
1700656
30821116
30833452
19290442
19289053
30876765
19315079
30844579
19325023
19316607
19318050
1816701
30841437
1700667
1700669
19288864
30855874
30855437
30787879
30858625
30864547
30858320
19304762
19298933
30864939
19310794
30851220
30832269
19309090
30910361
19314891
30887716
30913256
30650284
30857385
19316036
19310840
30801319
30816144
19319615
30885023
19348068
1817879
1700683
30829803
30832945
30881820
30651720
30867781
19298947
30825667
30925850
19309240
30638323
30914190
19307518
30757337
19311964
19315485
19316969
19319117
19315306
1816887
30871647
1819434
1819490
30763501
19291989
30853993
19307105
30784469
19306315
30883801
30788256
30892040
19311613
19316838
1816029
30889612
19316008
30893271
30900204
19318385
19322875
1818122
19275631
30858657
30868633
30877007
19302235
19302035
30861624
30885620
30892910
19317663
19318331
30876320
30840034
30832577
30794707
1817530
1700730
1700732
30863500
30737134
30836996
30879493
1812656
19307856
30880390
19323054
19317959
19319584
30723825
30821993
1819016
1819184
30674772
30746895
30803678
30845841
30794735
19293316
19299122
30864669
19325110
30924917
30845822
19296430
19337370
30805819
1815618
30875808
19303804
30759870
19305730
19308839
19301901
19311965
19315486
19319899
30855484
19318947
30835367
1817059
30804919
1816655
1700760
1700763
30838235
30820910
30770563
30753367
30791954
30875177
1814813
30809889
30848847
19303217
30760680
30913570
19307925
30835096
30846916
19315853
30856036
19315647
30831675
19327610
30803664
1818829
1819491
19251689
19257126
19276008
30807405
19296038
30809820
30898319
30871480
19306525
19307700
19310408
19318997
30841845
19324367
19327485
19326120
1700795
1700796
1700800
30633718
30747503
30804276
30852521
19293150
19302098
30877352
19299550
30907166
30872751
19303053
30844275
30887137
19309667
30753274
30866161
19308067
19315507
19317358
19323437
1818727
1818945
1700813
19284745
30840033
30786567
30864958
30874226
30786341
30773464
30882249
19306362
19310600
30894802
30814607
19308074
30819335
30894524
19314112
19318817
19318769
19320889
30845508
1817865
1818532
1819027
1700827
1700828
30825200
30826131
30732029
19284219
19286764
30855227
30790415
30837600
30875135
19289045
30843057
19307280
30847367
30847955
1815817
30888369
19312176
30851231
19319329
30892024
30879429
1700839
1700841
30648112
30689163
30743418
30784480
30865275
30698145
30796548
30856752
30825463
30879497
30863143
19309999
30836360
19317594
19316875
19328944
1700862
1700863
1700865
19237169
30787166
19292539
30823945
30776278
30814586
19303971
30850058
30818416
19300730
30818418
19301104
30865875
30781026
30856443
30861919
19318972
19311276
30894210
30892044
19292331
1816841
19322716
19325798
19327911
30702761
1817353
1817403
30899255
1818219
30777414
1700876
1700878
30740718
30844591
1813777
19293113
30780822
19294286
30863484
30853988
30741705
30872754
30877713
30883522
30684945
30840948
19312193
1816479
19327135
19322094
19327060
19314488
1817466
1700891
1700896
30762307
30551345
30791033
19284389
30737086
30841576
30818013
30815033
30857752
19297807
19242584
30771222
30877333
30774038
19309608
19302430
1816054
19306132
19318363
19316030
30904101
30885045
19318599
1816509
19314011
19322626
1817152
30867965
19330516
1819160
1700909
30797178
30788409
30825670
30836713
19299520
19307315
19314086
19313005
30868820
1816312
30904441
19314697
30907301
19314074
19317626
19323262
19321437
19329527
19325043
19325623
30776548
30819655
1700923
1700924
1700925
1700927
30789215
30831081
19271189
30863369
30923345
30889768
19293533
30849973
30866155
30883213
30890512
19312538
30773127
19311936
30709050
30749936
30888674
19316051
30899293
19314890
30876611
19321132
19347097
30899852
30909204
19330181
1818396
1819183
1700948
30815929
30699562
30826401
30725771
19300594
19305327
30858001
30869910
19309287
30836634
19315051
1816336
19317828
19316803
19323174
19312190
30830440
30875172
19320019
1817159
1700963
1700964
1700968
30808292
30839771
30848575
1814033
30637632
19294294
19303006
30861641
30882749
30784175
30894213
30674316
30872286
30760703
30830521
19307980
19293331
30898311
30684622
30878571
1816480
19336203
19321523
30906814
30896708
19317270
19320083
19319222
19323820
19323800
19326352
30706832
1818650
1700982
30845879
30758926
30809188
30854308
30856468
30868662
19300325
19299932
30784023
30874271
30791602
30765567
19310019
19314113
30905664
30863147
19313948
19315246
19321078
30894831
19319451
30805133
19319959
30865233
19327159
19324457
30920356
1817479
1819720
1701002
30825487
30834815
30837295
30849764
30858054
30735829
30732185
30734752
30867770
19301917
19305329
30866485
30841832
30860937
19281257
30765383
30881611
30946344
19315667
30818962
19314071
30892616
19316999
19321060
30869270
19324183
30901148
1817436
19323722
1818753
19278932
30585339
30867738
30875483
30881619
19309248
19303390
30721572
19306319
30896601
19314755
30888388
30775950
19306532
30906298
19317820
1811478
19316628
19317177
30882563
30853347
19316681
19322057
30943279
19321439
19325900
19316616
30896254
19323696
19328661
19322807
1701027
1701028
1812140
30856758
19298757
30781682
19304738
19301277
19305340
30890504
19310661
19310583
1815654
19307447
19313012
30886834
19310475
30905640
30868347
19314741
19325131
30827876
30903151
30961570
19321168
19338737
19325575
19319043
19323825
1817777
1818246
1701043
1701044
30657694
30799339
30776590
30823202
30841145
30860117
30875493
30872732
30913884
30863764
30882872
30889294
1814954
19314170
30803537
19312747
30863194
30835905
30893256
19317430
19319683
19318374
30896701
30822388
19327389
30877024
30727950
19322512
19326749
19325193
19326879
30801084
30663347
30826751
30863186
30826996
1814140
30901382
19305726
30888690
19307144
30884791
19312724
30931880
19315898
19318551
30892042
19302221
30895437
19315947
19312342
30687400
30837281
30661995
30919661
19328578
30905293
1701073
1701074
30752772
30809804
19298927
30929642
30874270
30792881
30874266
19334264
30857724
30877331
19306107
19316819
30882582
30889883
19287471
19314141
19309244
19323003
30771020
19319351
30766396
19323945
19320458
19314020
19317371
19316992
19320865
30914304
19320965
19330465
1817915
1817998
30922401
1819524
1819540
1701093
30848275
19293118
30832820
19300692
30830439
30819316
19310965
19318519
30777500
30636518
19318207
30895152
19311042
19320121
30895148
30939154
19318474
1816978
1817003
19325846
1817204
19319382
1817275
19325182
1818587
30648225
1701111
30837498
30798419
19280496
19280468
30861079
30859246
30825077
30861950
30873940
30801072
30564238
30856402
30751706
30845809
19308478
19304453
30721616
30881625
19305179
30811678
30860241
30891381
30891728
19315877
30812806
19315156
19314464
19318731
30904422
30891693
19319218
19318355
19316611
19315173
19321254
19326118
19319170
19324065
1819135
30592672
30845834
19294315
30856776
30820435
19311358
30926157
30858901
30825426
30817925
30810169
1815948
30873624
19314878
30843658
30893570
30940769
30909896
19320259
19318137
19324595
30841236
19321130
30766039
19321846
30908885
19326218
19315202
19324448
19319962
19326160
30877782
19317581
30724485
1819937
1701149
1701150
30703242
30840345
30805226
30832014
30788188
30564510
30789510
30815007
30864345
30859565
19302423
30804804
30856659
30868067
30848529
30809174
30870550
30867726
1815725
30867723
1815914
19312721
30874878
19313947
30867097
19318575
30742215
19322731
19317810
19325864
19319806
19319887
19320654
30905864
30906321
19319409
19319343
19323786
19328085
30901838
19323797
1818121
19294508
1819447
1819556
1818073
1701163
1701164
30856488
30859873
30852189
19291475
19299177
19304158
19305510
19296725
30843582
19309649
19307082
19306929
1815634
30582263
30825138
30885072
19314039
19329196
1816400
30889899
30883807
19318538
19320832
1813850
19318365
30856451
30905061
19313551
19340114
19329297
19326874
30797962
19320500
1818379
1819381
1819538
30853112
1701184
30822439
30817347
30882759
19294688
19295830
30861348
30869897
30832207
30874832
19305763
30867721
19305534
19310777
19310378
19313336
30819863
19307689
19316836
19320699
30836670
30900541
19312950
19347872
19318720
19322606
19325339
19313745
30776398
19329720
19301855
30857392
19319931
30840908
19329608
19330057
1701198
1701199
1701203
30803992
30791951
30857415
30803092
30877348
30826612
19303014
30832010
30846743
1815386
30876449
19314091
30883822
30877354
30722408
30760269
19310199
30775864
30663010
19306900
19310420
30894838
30894835
30881305
30844925
19321829
19318535
19316071
1816693
19316887
19323813
19348071
19327708
19333217
1819522
1819735
1701217
30829200
30792214
30824896
30814936
30716619
30842168
30626028
1814702
30878573
30779874
30835612
19298577
30851460
30893140
19305366
30886843
30823304
30885347
19308698
19319521
1816385
19311038
19317288
19322059
19327303
19319412
30897654
1816961
19323082
19327861
19327890
19332769
1701232
1701233
1701234
30645350
30778019
19286498
30862587
30799300
30708705
19297421
19293114
30847689
30844576
19298545
30759648
30841235
30872121
30869280
30781982
19307917
30868087
30867274
30892630
30856419
19312399
19314866
30852165
19313898
19309631
30900861
19320474
30879050
30942975
19326146
19318739
19319133
19324655
19327688
19334846
1817135
19328493
1817336
19327609
19329283
1817703
30944878
30884742
1819815
1701244
30694889
30843413
30845429
30866506
30826723
30883803
19299347
30753539
19305535
30883820
1815840
30941749
30897372
19317173
30824817
30901538
19314902
19308636
30897688
19313773
30816440
19315635
19322845
19324029
19319356
19322899
19321935
19327545
19319750
19332761
1701266
1701267
30785082
30825776
30772165
30850067
30783214
19295265
30720397
30864334
19307464
19312929
30879790
19310180
19316253
19314468
30896737
30827329
19314786
19314108
19317743
19323777
19312350
19318780
30821642
19322988
19325537
19324625
30878528
19330333
19328846
30902992
30917762
19333763
1818812
1819182
1701285
1701287
1701289
1701290
30828795
30785991
19297795
30839185
30879179
30909766
19308464
30881930
30877020
30889286
30712108
30901207
30839726
19311905
30892936
30847576
19315868
19323591
1816620
19320126
19319086
19318182
19319144
19321859
19320683
19322422
19321261
19329281
19326220
19318920
30882744
1819554
1819718
30803560
30837897
30889782
19285736
30800593
30838545
30790734
30844906
30822068
19301843
30848890
19310392
19307694
19313370
19312353
30884159
19311047
19320124
19318614
30869136
30690018
30842664
30906940
19311547
19321075
30918905
19326299
19322882
19328947
19350979
19329319
19332184
1817674
19332992
1819417
1819533
1819553
30831080
1701321
30813200
30824570
30844571
1814373
30796723
30746786
30874870
30873785
30871485
1815564
30869905
19305551
30877930
30876421
19310596
30863741
30742141
30903160
19312838
30883771
30888397
30874798
19317784
19315150
30775958
1816890
19320527
19323993
19320348
30815952
19328540
19325784
30763155
1818031
1818931
1819014
1817586
1701336
1701337
19302826
30848552
19297195
30876761
30778277
30907798
30871729
30866194
30890534
30879145
30706594
19290226
30890507
19309637
19320092
19316019
19315085
19316851
30906639
30908455
19315256
19316606
19322486
19317561
30907592
19320342
19316300
19320061
30884710
19322308
30894672
1817899
1701345
1701349
30820559
30842205
30722002
30859866
30915776
30871772
30867420
30874865
30885371
30762919
30827654
30873035
30723656
30904606
30887755
19299144
30881028
30797434
30504477
19321443
19324780
19322074
30821026
19320537
19326694
19319903
19322259
19322231
19320101
19318776
19325020
19326577
19322142
19329131
30784421
19328835
19332468
30896267
19330796
30858848
19338721
1701364
1701365
30848580
19301076
30909095
19304983
30873045
30815534
19309652
19306943
30694526
30859234
30881927
1815735
19306704
19296093
30888687
30842475
30792286
30877351
19318707
19306299
1816621
19323208
30940150
19321287
30759210
19321644
19311807
19326327
19318213
19323684
19324414
19327774
19323045
30860164
30874250
30902466
19327104
1819449
1701383
1701384
1701387
30748766
19282878
30792093
19324521
30803289
30875504
30859858
30842462
30934064
30858588
30797956
19311756
30844016
1815286
30936581
19303903
19315681
30843974
19318038
30911448
19316206
19319178
19315494
19319717
30851570
19320396
19322064
19318388
1817001
19316092
19322060
19325824
30908250
19332127
30898304
30480272
30772241
19329497
19324034
1817435
19333413
19322310
19333773
19333617
1820077
1701397
1701398
1701399
30823942
30877813
19290031
19291944
30835614
19299510
30879185
30889479
30878251
30859855
30782541
30872096
30876427
30859809
30886814
19317237
19321253
19315398
19319155
19324540
19320285
30887430
19321295
30899899
30906954
19315312
19325576
19340494
19320093
19319017
19332705
19322818
19332770
19328674
30706937
19326917
19336107
30915759
19333152
19334237
19334273
19330828
19340702
30764161
1819776
1820035
1820283
1701412
1701413
1701414
1701416
1701418
30816243
30826428
30857121
30865844
30864340
30802140
30851241
30874261
30866441
30852460
30881632
30888088
30883177
19318218
30881951
30869774
19318722
19315509
19319567
19323483
30896376
19313530
30907927
30901829
19317246
30896373
30836623
19328732
30828880
19326580
19327917
19313166
19327878
19341855
19325913
19322334
30907614
19333181
30904740
1817577
19325242
19335473
19331643
1701432
1701433
30833891
30837304
30844020
30794027
30798708
19296421
30765773
30861046
30762200
19331127
30876121
19308474
19304034
30819303
30701480
30836681
30893569
19314088
30881161
30857751
30885061
19324340
30813498
19312565
19319169
19327441
19296828
1816784
1816821
19320059
19327711
19349040
19324891
19320341
19324754
19326409
19339701
30911157
19323263
19360325
30917160
19329698
19326103
19327550
30871471
1820017
1701444
1701446
30795347
30811426
19287692
30761147
30825139
30797476
19302828
30852744
30861996
30876129
30868670
30888692
19316465
30920538
19315497
30692670
30864630
19304969
30876741
19321234
19316111
19314277
19327641
30890214
30904307
19315504
19319031
19318750
30845550
19324290
19324734
19323617
19324918
19321235
30806766
19316857
19323817
19317941
19324967
19328520
30881190
19320153
19330395
1817270
19327689
19337097
30960958
19325162
19329685
19309100
19318325
19332772
1818072
1818105
1818754
1819353
1819816
1701459
1701463
30868529
30861333
30765779
19294893
30721363
30871470
19308329
30875191
30879765
30883172
19310768
30882254
19300314
30877326
19309127
19316021
30791050
30891387
19312548
30745033
30884456
30904104
19311225
19314915
30888259
19321315
30802749
30887972
19318578
30945749
19325223
19331318
30829781
19320014
19323311
30816389
30818968
19326916
19329256
19333612
19322040
19327317
19331772
19333758
19324623
19328341
19329170
19334111
30878238
19335368
19335911
1818084
1818381
1818930
1701480
1701481
30803647
30782313
30695415
30843400
30836992
30795054
30830426
30819660
19273856
30883215
30866198
30866442
19306304
30891430
30788181
30889257
30543836
19313885
30888362
19307869
30892038
19319314
30816497
30896266
19317437
19317107
19320090
1816811
30897242
30906629
19319753
19322239
19325549
19325208
19329044
19326782
19322021
19326920
19327995
19321239
19324782
19317555
19328968
19331657
19333399
30938812
1817780
19336126
1818509
1819572
1701499
30781120
30841280
30854923
30679874
30872736
30871467
19311998
30932197
19286900
30828282
30877634
30818232
19305955
19313811
19309066
30902717
30811084
30887147
30946342
30902378
30894793
19317552
19316609
19311742
30736052
19310301
19321033
19316034
19318135
30896378
19321116
19317619
19319432
19325973
30901203
19326587
19322617
19323441
30951966
19325748
19322687
30801127
19327269
19352534
19316172
19321856
19329264
19328726
19331132
19328673
19334613
19328169
19337311
1818999
1819399
19307493
1701512
30824292
30824157
30855216
30840352
1814336
30864082
30869245
30826725
19303016
30856461
1815069
30848220
30746265
30834772
30646548
30780516
30868088
19311801
30695180
30869550
30930297
19320141