/*--------------------------------*- C++ -*----------------------------------*\
| =========                 |                                                 |
| \\      /  F ield         | OpenFOAM: The Open Source CFD Toolbox           |
|  \\    /   O peration     | Version:  v1706                                 |
|   \\  /    A nd           | Web:      www.OpenFOAM.com                      |
|    \\/     M anipulation  |                                                 |
\*---------------------------------------------------------------------------*/
FoamFile
{
    version     2.0;
    format      ascii;
    class       volScalarField;
    location    "7";
    object      dsmcSigmaTcRMax;
}
// * * * * * * * * * * * * * * * * * * * * * * * * * * * * * * * * * * * * * //

dimensions      [0 3 -1 0 0 0 0];


internalField   nonuniform List<scalar> 
500
(
1.207713142e-15
1.301603036e-15
1.220209436e-15
1.255792456e-15
1.229301963e-15
1.211318766e-15
1.210140414e-15
1.198737983e-15
1.215951008e-15
1.235312595e-15
1.279545682e-15
1.235791102e-15
1.228934291e-15
1.233776912e-15
1.211929706e-15
1.237646419e-15
1.204029766e-15
1.219208437e-15
1.224625123e-15
1.245753898e-15
1.258532458e-15
1.246142711e-15
1.240207939e-15
1.268193464e-15
1.252071266e-15
1.24211949e-15
1.236264397e-15
1.241633934e-15
1.2462364e-15
1.224582989e-15
1.2448692e-15
1.21470517e-15
1.259136942e-15
1.236815172e-15
1.225046648e-15
1.234850007e-15
1.216762029e-15
1.264350474e-15
1.231629959e-15
1.19976589e-15
1.228878536e-15
1.250196901e-15
1.235208154e-15
1.229526626e-15
1.225920288e-15
1.221269017e-15
1.234219315e-15
1.294204664e-15
1.22382606e-15
1.24473609e-15
1.25343135e-15
1.219304121e-15
1.228218462e-15
1.238167347e-15
1.240569089e-15
1.267838472e-15
1.220052313e-15
1.207631455e-15
1.239726923e-15
1.277759188e-15
1.228290903e-15
1.255878699e-15
1.229719052e-15
1.244440944e-15
1.247053946e-15
1.328018984e-15
1.24390805e-15
1.261503383e-15
1.229850335e-15
1.296344291e-15
1.277907014e-15
1.298324055e-15
1.211104569e-15
1.254845004e-15
1.261443267e-15
1.235799804e-15
1.298156989e-15
1.266953954e-15
1.219085061e-15
1.236686152e-15
1.235468268e-15
1.321913482e-15
1.211067313e-15
1.254254577e-15
1.288256301e-15
1.286217015e-15
1.25327078e-15
1.220808647e-15
1.266353488e-15
1.278003578e-15
1.232176712e-15
1.271256173e-15
1.254745556e-15
1.27247856e-15
1.230534045e-15
1.223559127e-15
1.241152396e-15
1.280307398e-15
1.227076202e-15
1.258655841e-15
1.27765677e-15
1.254513081e-15
1.240459288e-15
1.240503416e-15
1.231017127e-15
1.321826172e-15
1.271723998e-15
1.280556067e-15
1.264191573e-15
1.246109229e-15
1.283039839e-15
1.253416952e-15
1.266364365e-15
1.231522317e-15
1.277600139e-15
1.275458025e-15
1.232691741e-15
1.302381259e-15
1.264713365e-15
1.286609705e-15
1.254015096e-15
1.274178311e-15
1.27657745e-15
1.277637754e-15
1.353851244e-15
1.24439527e-15
1.244908713e-15
1.266520975e-15
1.248729731e-15
1.250791885e-15
1.284953171e-15
1.268792025e-15
1.239700227e-15
1.293701014e-15
1.311553831e-15
1.247483987e-15
1.310135106e-15
1.250760037e-15
1.265728917e-15
1.244638751e-15
1.278809496e-15
1.25660114e-15
1.250211928e-15
1.294954473e-15
1.273591212e-15
1.280820405e-15
1.285726466e-15
1.248199259e-15
1.252008621e-15
1.279997816e-15
1.247486702e-15
1.286934726e-15
1.256593337e-15
1.236732195e-15
1.239180584e-15
1.262482827e-15
1.27352779e-15
1.243475016e-15
1.253348396e-15
1.243963947e-15
1.269394963e-15
1.265717593e-15
1.281728905e-15
1.264951083e-15
1.31301312e-15
1.245169222e-15
1.280815309e-15
1.306055538e-15
1.281035012e-15
1.235594553e-15
1.289896393e-15
1.271761846e-15
1.254095965e-15
1.287009324e-15
1.261582216e-15
1.244408255e-15
1.271414551e-15
1.281654978e-15
1.293389367e-15
1.220234614e-15
1.266461857e-15
1.253584652e-15
1.293599139e-15
1.296279557e-15
1.243357881e-15
1.276165082e-15
1.281100155e-15
1.245000652e-15
1.301651962e-15
1.233367706e-15
1.269928523e-15
1.269987506e-15
1.293860567e-15
1.284535801e-15
1.276986304e-15
1.265444023e-15
1.270607746e-15
1.339509373e-15
1.235106057e-15
1.240932306e-15
1.260432472e-15
1.291066216e-15
1.278092925e-15
1.288095918e-15
1.254510027e-15
1.317152742e-15
1.263981444e-15
1.253586314e-15
1.27527729e-15
1.251418028e-15
1.279952179e-15
1.254668633e-15
1.247151428e-15
1.238204434e-15
1.26516195e-15
1.307426817e-15
1.295198586e-15
1.257715603e-15
1.306251719e-15
1.297673926e-15
1.250000706e-15
1.299180405e-15
1.265656096e-15
1.277573647e-15
1.291882004e-15
1.274471889e-15
1.302477998e-15
1.295660907e-15
1.296467235e-15
1.245002517e-15
1.303467933e-15
1.261109048e-15
1.279929379e-15
1.282634183e-15
1.273729657e-15
1.293183128e-15
1.357782366e-15
1.242360021e-15
1.27488171e-15
1.275681986e-15
1.259581287e-15
1.273928981e-15
1.28164842e-15
1.291618648e-15
1.25619846e-15
1.30648227e-15
1.26606577e-15
1.290638321e-15
1.260453801e-15
1.281185838e-15
1.283929235e-15
1.253731284e-15
1.263527638e-15
1.282123939e-15
1.291872077e-15
1.299235161e-15
1.278830738e-15
1.288015546e-15
1.326554349e-15
1.286730537e-15
1.266844378e-15
1.269700361e-15
1.255041434e-15
1.297452145e-15
1.274346673e-15
1.27760921e-15
1.283488341e-15
1.340732801e-15
1.29184382e-15
1.286432822e-15
1.266429381e-15
1.272980336e-15
1.263353334e-15
1.253859018e-15
1.282630907e-15
1.284507504e-15
1.293949843e-15
1.299778768e-15
1.334178406e-15
1.317665885e-15
1.293864271e-15
1.308851723e-15
1.28169832e-15
1.296639425e-15
1.309718811e-15
1.293166467e-15
1.286542171e-15
1.289264327e-15
1.253436763e-15
1.290802863e-15
1.268902755e-15
1.294116458e-15
1.254612369e-15
1.26985086e-15
1.326554622e-15
1.295416248e-15
1.307143013e-15
1.271705352e-15
1.278649433e-15
1.275824671e-15
1.273722732e-15
1.300004538e-15
1.287892078e-15
1.295292863e-15
1.289204439e-15
1.309742609e-15
1.27569122e-15
1.304306815e-15
1.310467133e-15
1.270735514e-15
1.328251075e-15
1.306881493e-15
1.296513798e-15
1.318197397e-15
1.264773576e-15
1.328103345e-15
1.285289003e-15
1.279929453e-15
1.32690149e-15
1.316689614e-15
1.273516652e-15
1.265918735e-15
1.291085475e-15
1.271963269e-15
1.281070676e-15
1.316480833e-15
1.308415256e-15
1.287103255e-15
1.298893055e-15
1.295963192e-15
1.274413172e-15
1.275586496e-15
1.260434239e-15
1.309315751e-15
1.274718235e-15
1.303598094e-15
1.270497234e-15
1.349386847e-15
1.276862738e-15
1.356439087e-15
1.328164187e-15
1.295315462e-15
1.303263462e-15
1.313010728e-15
1.284371175e-15
1.259711458e-15
1.320919385e-15
1.295825257e-15
1.285290432e-15
1.317150458e-15
1.318815379e-15
1.292008359e-15
1.286392024e-15
1.280770063e-15
1.309677214e-15
1.316306447e-15
1.279257703e-15
1.30818587e-15
1.347314913e-15
1.274702325e-15
1.277864175e-15
1.271299613e-15
1.344340381e-15
1.304856189e-15
1.2645419e-15
1.296946731e-15
1.314838664e-15
1.295569232e-15
1.276513078e-15
1.322508839e-15
1.336732404e-15
1.339738134e-15
1.324039337e-15
1.286354772e-15
1.302088444e-15
1.305853501e-15
1.264417119e-15
1.3240617e-15
1.279068369e-15
1.291468468e-15
1.323137492e-15
1.295993451e-15
1.300968352e-15
1.289979028e-15
1.305998681e-15
1.275931175e-15
1.299989501e-15
1.31026716e-15
1.325786262e-15
1.300964681e-15
1.293384997e-15
1.296625522e-15
1.284396377e-15
1.32565209e-15
1.295045785e-15
1.308204944e-15
1.353016452e-15
1.350433363e-15
1.289813953e-15
1.331727906e-15
1.382446062e-15
1.282854259e-15
1.313334654e-15
1.313774969e-15
1.351441148e-15
1.306265879e-15
1.305627604e-15
1.332098402e-15
1.330313907e-15
1.292386868e-15
1.322982127e-15
1.329744416e-15
1.290968722e-15
1.327829213e-15
1.30055075e-15
1.345331349e-15
1.288911928e-15
1.285540623e-15
1.28712202e-15
1.312509475e-15
1.322909528e-15
1.272289083e-15
1.321347194e-15
1.294942939e-15
1.301851395e-15
1.357039314e-15
1.320404975e-15
1.306151008e-15
1.333507915e-15
1.312008217e-15
1.330534878e-15
1.298600743e-15
1.319695577e-15
1.321903873e-15
1.31074674e-15
1.2982299e-15
1.307657072e-15
1.305207419e-15
1.307948509e-15
1.331066385e-15
1.356449376e-15
1.293006271e-15
1.289468219e-15
1.327980608e-15
1.296605116e-15
1.314646015e-15
1.315270429e-15
1.3594915e-15
1.41613985e-15
1.311537814e-15
1.326112616e-15
1.313949261e-15
1.354571387e-15
1.28962028e-15
1.288858467e-15
1.307435904e-15
1.311059818e-15
1.346790875e-15
1.343094944e-15
1.330114693e-15
1.371413921e-15
1.309653621e-15
1.317515398e-15
1.400495987e-15
1.337287592e-15
1.288232572e-15
1.311088683e-15
1.308577233e-15
1.290135818e-15
1.318853407e-15
1.307889622e-15
1.295889019e-15
1.324830594e-15
1.313126906e-15
1.286847527e-15
1.321645e-15
1.301178573e-15
1.308528669e-15
1.3397728e-15
1.331119901e-15
1.356353511e-15
1.309519724e-15
1.289269101e-15
1.352388734e-15
1.317619651e-15
1.311506587e-15
1.381559922e-15
1.293855078e-15
1.281016602e-15
1.329118037e-15
1.331963934e-15
1.27833432e-15
1.326975345e-15
1.344952897e-15
1.3164879e-15
1.316433135e-15
1.349344397e-15
1.393827668e-15
1.318699994e-15
1.308001333e-15
)
;

boundaryField
{
    upperWall
    {
        type            zeroGradient;
    }
    lowerWall
    {
        type            zeroGradient;
    }
    periodicX_half0
    {
        type            cyclic;
    }
    periodicX_half1
    {
        type            cyclic;
    }
    frontAndBack
    {
        type            empty;
    }
}


// ************************************************************************* //
