/*--------------------------------*- C++ -*----------------------------------*\
| =========                 |                                                 |
| \\      /  F ield         | OpenFOAM: The Open Source CFD Toolbox           |
|  \\    /   O peration     | Version:  v1706                                 |
|   \\  /    A nd           | Web:      www.OpenFOAM.com                      |
|    \\/     M anipulation  |                                                 |
\*---------------------------------------------------------------------------*/
FoamFile
{
    version     2.0;
    format      ascii;
    class       volScalarField;
    location    "7";
    object      dsmcRhoNMean_mixture;
}
// * * * * * * * * * * * * * * * * * * * * * * * * * * * * * * * * * * * * * //

dimensions      [0 -3 0 0 0 0 0];


internalField   nonuniform List<scalar> 
500
(
113.7978467
113.7299467
113.7472767
113.7612967
113.79035
113.02196
113.01279
113.0253667
113.0496
113.0183533
112.39672
112.41467
112.4227433
112.4188033
112.4107467
111.85706
111.8684733
111.8713033
111.85205
111.8503433
111.3210567
111.3138167
111.3451267
111.34878
111.3285833
110.8339333
110.8367767
110.7907267
110.7813033
110.7664533
110.27405
110.32999
110.2863933
110.27113
110.27212
109.8096367
109.78098
109.78017
109.7987167
109.8034733
109.3613633
109.3187267
109.2886333
109.3209067
109.3219933
108.8456833
108.8615867
108.8507267
108.8579833
108.8589033
108.38947
108.37045
108.4631067
108.4117467
108.3992333
107.9560867
107.9514867
107.9587533
107.9496733
107.9452967
107.5120533
107.5143033
107.4928167
107.52441
107.5062733
107.0546533
107.02662
107.08165
107.0459667
107.03369
106.63495
106.6182633
106.62864
106.61129
106.6015767
106.1849033
106.1753233
106.1642
106.2028533
106.1660633
105.7524833
105.7822567
105.7408733
105.7802267
105.8084
105.3426167
105.3345767
105.3448767
105.32596
105.34851
104.9522833
104.93931
104.94297
104.9398833
104.96416
104.54092
104.5258367
104.5634167
104.55471
104.5795233
104.1291433
104.1309
104.1205433
104.1586067
104.1434
103.7431533
103.7752
103.7627733
103.77
103.76218
103.36618
103.3355233
103.38737
103.3487967
103.4080933
102.95915
102.99075
102.9988067
103.0072333
102.9979533
102.5925
102.5738033
102.60253
102.5808467
102.5775867
102.18953
102.18378
102.2111333
102.2194567
102.1758467
101.8156667
101.8368867
101.8136033
101.8653067
101.8453567
101.4756333
101.4410067
101.42216
101.439
101.4360033
101.06103
101.0648767
101.0921733
101.0529167
101.0859133
100.6893533
100.68772
100.6970233
100.6847167
100.69866
100.3243967
100.3430367
100.34042
100.33802
100.31009
99.98425667
99.93392333
99.98405333
99.99265667
100.0215167
99.61652
99.61452667
99.66414
99.66770667
99.64445
99.25468667
99.23624667
99.28353
99.29437333
99.24301667
98.90439333
98.96648
98.93973
98.94416
98.93747667
98.59006333
98.59970333
98.64245333
98.61154
98.58117
98.28518333
98.28505667
98.24229333
98.26777333
98.30566
97.93250667
97.97845333
97.90736667
97.90188
97.92343667
97.59241667
97.60195333
97.57651
97.64042333
97.61046333
97.30583
97.32590667
97.28819667
97.26379333
97.29172333
96.97588667
96.94867333
96.96425333
96.94772333
96.96353333
96.63107667
96.61839667
96.62489333
96.62399667
96.65574667
96.31855
96.26147667
96.3222
96.27671333
96.26061333
95.98560667
95.97937667
95.98717
95.94845333
95.99286333
95.68470667
95.65355667
95.64781
95.6413
95.61476667
95.38011
95.32068667
95.33009
95.36095333
95.33269
95.00838333
95.00228333
94.99652333
95.03057333
95.03469333
94.71553
94.70087
94.71708667
94.74336667
94.72141
94.44646667
94.42639667
94.43323
94.46222
94.45015
94.13346333
94.11426333
94.14112
94.12885
94.12998333
93.80045
93.80083667
93.82515667
93.82561667
93.85391667
93.53638667
93.52448333
93.54139667
93.56094667
93.50563667
93.23450333
93.25037
93.28237333
93.28285333
93.26773
92.95369667
92.99547333
92.97870667
92.99869667
92.97192667
92.68764
92.66742
92.67305333
92.70182667
92.69046667
92.40974667
92.36676333
92.37873667
92.39689333
92.42286333
92.09697
92.11177333
92.08965333
92.09981
92.10929
91.84579333
91.85945
91.8379
91.84161333
91.82654667
91.52516667
91.53212667
91.51809667
91.54724
91.50878667
91.28809333
91.27028
91.2237
91.27281667
91.26687667
90.99289
90.96698667
90.97430333
90.99112667
91.01123667
90.70024667
90.7575
90.71543
90.70700333
90.69915667
90.44210667
90.45677667
90.45139
90.42218333
90.44694667
90.22326667
90.19044333
90.18001333
90.14712333
90.15493
89.89788667
89.91139333
89.93237667
89.89511
89.93081667
89.64387333
89.67744667
89.70020333
89.68096667
89.67423667
89.37932
89.38259667
89.39696667
89.41391667
89.41053333
89.13430333
89.14910667
89.18108
89.15122667
89.16131667
88.88662333
88.89751
88.91245667
88.87657333
88.94143
88.66551667
88.63308333
88.65502333
88.66549
88.67142667
88.41138
88.41716
88.4143
88.42647
88.42293333
88.16346667
88.15285
88.16732
88.17869333
88.15019
87.9307
87.92177333
87.88979667
87.98507333
87.92115333
87.69713667
87.68545333
87.70499
87.67329
87.67951
87.44951
87.46717333
87.43642
87.44624333
87.43151
87.1957
87.20475
87.16546333
87.21679333
87.18798667
86.94753667
86.96951667
86.95134333
86.98733667
86.95165
86.74171333
86.70776
86.72735333
86.68764
86.73985667
86.48581667
86.47354667
86.45917
86.46227
86.47823
86.22106
86.25505667
86.25778333
86.23345
86.23655333
86.00614333
86.02470333
85.98826
85.98321667
85.97709
85.75307667
85.74749667
85.7694
85.73736333
85.72787667
85.52903333
85.53103667
85.57019333
85.53627
85.53073333
85.33194
85.32159333
85.33238333
85.33918667
85.32952667
85.10126333
85.11254667
85.10772333
85.13289333
85.08797
84.87471667
84.89490667
84.86338333
84.85391667
84.91169667
84.62709667
84.59805
84.63351
84.66326667
84.63356333
84.41118667
84.44888
84.41776333
84.43272
84.40682667
84.20785333
84.19780667
84.18691
84.19116
84.19784
83.98299667
83.97864333
83.98645667
83.94218667
83.97512667
83.72063667
83.70937
83.73570667
83.75551667
83.76777333
83.51599
83.51087667
83.50342
83.53882667
83.50123333
83.28998
83.26264667
83.28497
83.27773
83.26825333
83.05968667
83.02620333
83.08053
83.07147
83.04881667
82.8223
82.81658
82.82605333
82.83022333
82.83387667
82.60788667
82.61083667
82.57711333
82.58981667
82.61278
82.34072667
82.33944333
82.34228333
82.37727333
82.32852
82.08574333
82.08516667
82.09793
82.12391333
82.12037
81.83139333
81.84770333
81.84916667
81.84071
81.79900667
81.54972333
81.54127333
81.50308667
81.47967667
81.51205333
)
;

boundaryField
{
    upperWall
    {
        type            calculated;
        value           uniform 0;
    }
    lowerWall
    {
        type            calculated;
        value           uniform 0;
    }
    periodicX_half0
    {
        type            cyclic;
    }
    periodicX_half1
    {
        type            cyclic;
    }
    frontAndBack
    {
        type            empty;
    }
}


// ************************************************************************* //
