/*--------------------------------*- C++ -*----------------------------------*\
| =========                 |                                                 |
| \\      /  F ield         | OpenFOAM: The Open Source CFD Toolbox           |
|  \\    /   O peration     | Version:  v1706                                 |
|   \\  /    A nd           | Web:      www.OpenFOAM.com                      |
|    \\/     M anipulation  |                                                 |
\*---------------------------------------------------------------------------*/
FoamFile
{
    version     2.0;
    format      ascii;
    class       volVectorField;
    location    "7";
    object      fD_O2;
}
// * * * * * * * * * * * * * * * * * * * * * * * * * * * * * * * * * * * * * //

dimensions      [1 -1 -2 0 0 0 0];


internalField   uniform (0 0 0);

boundaryField
{
    upperWall
    {
        type            calculated;
        value           nonuniform List<vector> 5((-0.005470252467 0.2926874581 8.642855559e-05) (-0.005080865722 0.292574067 1.551409791e-05) (-0.005259635416 0.2919333074 9.220741806e-05) (-0.004928349525 0.2923201031 -4.820884908e-06) (-0.005271097572 0.2921333883 0.0001274070898));
    }
    lowerWall
    {
        type            calculated;
        value           nonuniform List<vector> 5((0.005117839078 -0.2944587296 0.000121067787) (0.005246920398 -0.2943617682 8.257072475e-05) (0.005203411675 -0.2946530154 8.325028386e-05) (0.005241684486 -0.2948742702 0.0001473183165) (0.005313720871 -0.2944885404 -2.321412351e-06));
    }
    periodicX_half0
    {
        type            cyclic;
    }
    periodicX_half1
    {
        type            cyclic;
    }
    frontAndBack
    {
        type            empty;
    }
}


// ************************************************************************* //
