/*--------------------------------*- C++ -*----------------------------------*\
| =========                 |                                                 |
| \\      /  F ield         | OpenFOAM: The Open Source CFD Toolbox           |
|  \\    /   O peration     | Version:  v1706                                 |
|   \\  /    A nd           | Web:      www.OpenFOAM.com                      |
|    \\/     M anipulation  |                                                 |
\*---------------------------------------------------------------------------*/
FoamFile
{
    version     2.0;
    format      ascii;
    class       volScalarField;
    location    "7";
    object      Ma_N2;
}
// * * * * * * * * * * * * * * * * * * * * * * * * * * * * * * * * * * * * * //

dimensions      [0 0 0 0 0 0 0];


internalField   nonuniform List<scalar> 
500
(
0.0163861653
0.01634353556
0.01630102999
0.01661628685
0.01621607026
0.02090397381
0.02113944167
0.02093126539
0.02106826451
0.02108398242
0.02487720011
0.02452176583
0.02482510184
0.02476845406
0.02473759865
0.02817371398
0.02848644923
0.02780598205
0.02799251431
0.02797568527
0.03170663535
0.03129402468
0.0319181273
0.03148078958
0.03159311893
0.03458977943
0.03486436459
0.03484758357
0.03469948832
0.03482568012
0.0382640758
0.03807317126
0.0379881694
0.03803930759
0.03800566077
0.04127762491
0.04131351214
0.04120863428
0.04122852416
0.04132033926
0.04380677091
0.04396008638
0.04415877482
0.04411515034
0.04390520504
0.04690266534
0.04700830142
0.04679762238
0.04702321218
0.04689702017
0.05029107368
0.05029380568
0.05026167729
0.04990977984
0.05010097857
0.05283047512
0.05303456822
0.05296394763
0.05299519511
0.05312147769
0.0560689604
0.05587064288
0.05605460745
0.05621249751
0.05622789533
0.05892626236
0.058872139
0.05875466779
0.05890963821
0.05872281381
0.0617277062
0.06142037195
0.06157110141
0.06150905286
0.06132964434
0.06442333226
0.06445868571
0.06429044577
0.06442328726
0.06423288883
0.06729297883
0.06718031039
0.06734492565
0.06722909561
0.06740789482
0.0702456446
0.07019494873
0.07031521027
0.07000718018
0.06998770553
0.07254377991
0.07231950849
0.07267804978
0.07275757932
0.07298067383
0.07552405036
0.07538075025
0.07528097388
0.07544817217
0.07528486279
0.07795732751
0.07785504325
0.0783050799
0.0780394078
0.0778157519
0.08058572092
0.08076593248
0.08044778804
0.08055146405
0.08063520555
0.0836110492
0.08357292227
0.08320666771
0.08320696011
0.08320511097
0.08646011747
0.08623377222
0.08630555304
0.08613942294
0.08635363809
0.08896637034
0.08893807972
0.08868252997
0.08904039129
0.0890621171
0.09140488548
0.0913116409
0.09155217647
0.0915790779
0.09139528589
0.09392462532
0.094044624
0.09421164842
0.09398295769
0.09412339469
0.09681954031
0.09660361799
0.09635373643
0.09661270346
0.09671742478
0.09925701158
0.09916648132
0.09913204851
0.09930122074
0.0992334724
0.1016717665
0.1017446017
0.101937375
0.1019468285
0.1014523325
0.1043032058
0.1042278283
0.1044570037
0.1044769572
0.1047022079
0.1068092351
0.1071189676
0.1070390445
0.1068775138
0.1069140186
0.1092877386
0.1093585883
0.1093834035
0.1095397889
0.1095061312
0.1121789
0.1119651135
0.1117400969
0.1118295791
0.1118539768
0.1144739614
0.1142182993
0.1146368734
0.1145741958
0.1144971183
0.116849167
0.1170797588
0.1169775882
0.1166102407
0.116836958
0.1194315228
0.1193790463
0.1195887331
0.1195924197
0.1195014082
0.1218115213
0.1217481766
0.1218490532
0.1218401876
0.1220071469
0.1240991354
0.124243592
0.1244144096
0.1242196648
0.1243924866
0.1265882655
0.1266450275
0.1264200195
0.1266585135
0.1267152259
0.1291472711
0.1286548994
0.1293878316
0.1293892426
0.1288529995
0.1314692907
0.1315703757
0.1313954774
0.1313591012
0.1312999195
0.1334472568
0.1340085534
0.1336815002
0.1336912889
0.1339780821
0.1363898265
0.136108411
0.1360846249
0.136166139
0.1361097566
0.1385553727
0.1386072373
0.138359545
0.138645588
0.1385320384
0.1406743246
0.1406426524
0.1408025858
0.1408616408
0.1405434889
0.1429694997
0.143215736
0.1427227168
0.1430778492
0.1429987173
0.1455827328
0.1455755739
0.1455111528
0.1454212525
0.1451384148
0.1478871227
0.148023297
0.147822826
0.1475643823
0.1476860376
0.1498530635
0.1501078946
0.1502085562
0.1503610869
0.1501652198
0.1525364528
0.1522449523
0.1526042076
0.152684119
0.1526918723
0.1548570118
0.154929712
0.1544661187
0.1544119694
0.1547874497
0.1568393598
0.1570430426
0.1568690078
0.1570250104
0.1570933566
0.1593004498
0.1595056578
0.1595253821
0.1590933058
0.1591746541
0.1615220943
0.1614816264
0.1614841015
0.1615998349
0.1614125698
0.1636993534
0.163604995
0.163822393
0.1634630286
0.1636733713
0.1660361939
0.1656647543
0.1656728468
0.1657229944
0.1657249231
0.1680798962
0.1680756009
0.1680067186
0.1680665705
0.1679964246
0.1703558367
0.1702800356
0.1703645696
0.1702831267
0.1703142861
0.1724464657
0.1727819984
0.1724889978
0.1722337613
0.1721969624
0.1742404185
0.174216564
0.1743830415
0.1745243034
0.1743060244
0.1767825063
0.1768652414
0.1767262727
0.1764517507
0.1769765632
0.1787303707
0.1790670153
0.1790895285
0.1790705544
0.1789278134
0.181147711
0.1808681423
0.1815361356
0.1811429374
0.1812414896
0.1834624518
0.1831195919
0.1832033955
0.1835811551
0.1829267936
0.1856121105
0.1853175276
0.1857738688
0.1854769123
0.1853497526
0.1878213165
0.1877827828
0.1878081584
0.1875602166
0.1878750667
0.1896911274
0.1899226301
0.1897515662
0.18946567
0.1897577124
0.192030468
0.191588255
0.1919035814
0.1917305252
0.1920554059
0.1936220033
0.1940010464
0.1941144151
0.1937689571
0.1934658314
0.196188154
0.1959411094
0.1959128844
0.1960049512
0.1963199613
0.1981553633
0.1983396308
0.1980007369
0.197989322
0.1980675136
0.2000847889
0.200085384
0.200317764
0.2000129164
0.2003741694
0.2019887826
0.2021001796
0.2023167579
0.2021437934
0.2022491596
0.2045814653
0.2042128398
0.204015879
0.2041340166
0.2041820484
0.2063178522
0.2064302785
0.2064486332
0.2065387795
0.2063820974
0.2085318283
0.2085431418
0.2083018396
0.2082379122
0.2083336955
0.2103657069
0.2103681452
0.2103604337
0.210622287
0.2105780445
0.2123637041
0.2126081054
0.2125779608
0.2123341975
0.2125067597
0.214599392
0.2146284489
0.2145627791
0.2146530544
0.2143636808
0.2161895175
0.2164790973
0.2166624534
0.2164191964
0.2165675424
0.218509246
0.2186943969
0.2183194075
0.2187096109
0.2185533617
0.2209299684
0.2204825875
0.2208373341
0.2206267013
0.2207500551
0.2227762357
0.2227144636
0.2225087279
0.2227112214
0.2225156105
0.2246290264
0.2247428528
0.2245657965
0.2246533141
0.2246566695
0.226357812
0.2265146306
0.2265244302
0.226755944
0.2262373376
0.2283513339
0.2281749028
0.2281050212
0.2284538271
0.2283784702
0.2303198575
0.230475601
0.2302827209
0.2300564597
0.2300338658
0.2321492498
0.232298561
0.2320778391
0.2322257326
0.2324291502
0.2343370713
0.233953947
0.2343784025
0.2341937097
0.2342446108
0.2360312287
0.2364561718
0.2362673763
0.2360788833
0.2360465704
0.2384404508
0.2378983874
0.2382309145
0.2380481497
0.2380180828
0.2404541604
0.2405011123
0.2401791486
0.2402335312
0.2399590825
0.2424860168
0.2421874994
0.2424566392
0.2423745019
0.2425321811
0.2446974397
0.2444690655
0.2444677144
0.2443577998
0.2442779618
0.2465666163
0.2465740473
0.2464884514
0.2464091698
0.2465233892
0.248597956
0.2485323069
0.2486265337
0.2485274588
0.2484741606
0.2506554972
0.2509214904
0.2507178739
0.2508182374
0.2505537088
0.2529824447
0.2530278079
0.2531739813
0.2533370569
0.2531869247
0.2561212154
0.2558033071
0.2559816396
0.2558693393
0.2560204414
)
;

boundaryField
{
    upperWall
    {
        type            calculated;
        value           nonuniform List<scalar> 5(0.2582321428 0.2587607534 0.2581863182 0.2573581266 0.2577816313);
    }
    lowerWall
    {
        type            calculated;
        value           nonuniform List<scalar> 5(0.01357301001 0.01354438293 0.0147054995 0.01250106228 0.01195263432);
    }
    periodicX_half0
    {
        type            cyclic;
    }
    periodicX_half1
    {
        type            cyclic;
    }
    frontAndBack
    {
        type            empty;
    }
}


// ************************************************************************* //
