/*--------------------------------*- C++ -*----------------------------------*\
| =========                 |                                                 |
| \\      /  F ield         | OpenFOAM: The Open Source CFD Toolbox           |
|  \\    /   O peration     | Version:  v1706                                 |
|   \\  /    A nd           | Web:      www.OpenFOAM.com                      |
|    \\/     M anipulation  |                                                 |
\*---------------------------------------------------------------------------*/
FoamFile
{
    version     2.0;
    format      ascii;
    class       volScalarField;
    location    "7";
    object      mctTimeStepRatio_O2;
}
// * * * * * * * * * * * * * * * * * * * * * * * * * * * * * * * * * * * * * //

dimensions      [0 0 0 0 0 0 0];


internalField   nonuniform List<scalar> 
500
(
19.58848451
19.5745455
19.57451195
19.57576498
19.58734312
19.67389799
19.66787651
19.6671806
19.67223914
19.67273096
19.76201215
19.75427926
19.74569533
19.75516817
19.75492297
19.82628641
19.81145162
19.81949559
19.83754779
19.82748525
19.89592656
19.89525784
19.90068727
19.90792374
19.90401595
19.97998173
19.96874132
19.96476909
19.99509712
19.99856955
20.04706566
20.03339886
20.04475826
20.04942863
20.05881831
20.12096609
20.13288664
20.12537376
20.134528
20.10956606
20.17820209
20.18541073
20.19052874
20.19534423
20.19724499
20.26912206
20.26024413
20.2606107
20.25884935
20.26073968
20.3356806
20.33070838
20.30356667
20.33237336
20.31900753
20.4001047
20.39168214
20.3938442
20.37855602
20.39180261
20.47128338
20.45493267
20.4436221
20.44730485
20.44900537
20.52022044
20.53355464
20.50378304
20.50079822
20.52228456
20.57851129
20.57132983
20.57276042
20.58350361
20.59952133
20.65537883
20.66288332
20.64857844
20.64637824
20.65370045
20.72133539
20.70630676
20.70388106
20.72405621
20.70047322
20.79292691
20.77253213
20.78222538
20.78939305
20.77832778
20.85334879
20.84731969
20.85863005
20.83550855
20.84841397
20.90707974
20.91930069
20.89771636
20.8920416
20.89219668
20.97720328
20.97309175
20.96101051
20.95872298
20.97646452
21.04351604
21.03882776
21.02811593
21.02403328
21.03317055
21.10669679
21.12030914
21.10282899
21.10127653
21.08866716
21.16298967
21.16805887
21.16911258
21.14960581
21.14338482
21.2347198
21.23482348
21.22425426
21.24127725
21.24770799
21.26938125
21.27803672
21.29526799
21.28320039
21.2884231
21.3440902
21.34511983
21.35163219
21.34498292
21.33730037
21.40088227
21.41500943
21.4181885
21.41153351
21.4172141
21.47895275
21.46767434
21.47205593
21.47526288
21.47115494
21.5381771
21.55123766
21.5390003
21.54239054
21.5234624
21.60533336
21.60501282
21.60423279
21.59274647
21.6019553
21.64750434
21.6702487
21.65752527
21.64155473
21.64384967
21.71512769
21.70174768
21.70916885
21.70727619
21.71545361
21.77764173
21.77898989
21.76670287
21.77265373
21.78639212
21.84447158
21.81757496
21.84382384
21.83507866
21.82237447
21.89211391
21.88246928
21.89434956
21.89034031
21.90641063
21.96186235
21.93672427
21.97267365
21.97143331
21.95587232
22.01712919
22.00890877
22.01733556
22.03494643
22.01848126
22.08190335
22.08424729
22.08480049
22.07862664
22.07573898
22.13039716
22.12662308
22.1298671
22.14369747
22.13221083
22.19349563
22.18697261
22.17771502
22.1746991
22.19452083
22.25907922
22.24737956
22.24448665
22.2614231
22.26479759
22.31631846
22.32390212
22.29978494
22.31854392
22.32541065
22.38495434
22.36589077
22.37528954
22.39786444
22.37899914
22.44096006
22.45692659
22.44436108
22.44130099
22.4541654
22.51641453
22.51939462
22.50163009
22.50093858
22.49956373
22.57003247
22.58399791
22.59478749
22.56610809
22.57109175
22.62797099
22.63886251
22.63064957
22.61955213
22.64002178
22.68961535
22.68096487
22.67429716
22.68239597
22.6740365
22.71894216
22.73197756
22.72805447
22.74085048
22.7445095
22.79606529
22.80041659
22.79530705
22.80258572
22.79491073
22.85209251
22.85761257
22.86068473
22.83918734
22.86639815
22.91641232
22.92019251
22.88715542
22.90504651
22.91307706
22.95249724
22.95059582
22.96707243
22.95086879
22.96187086
22.99653853
23.02678831
22.99953882
23.01198703
23.00872631
23.04704266
23.06711586
23.06886571
23.06693454
23.05141449
23.1233309
23.14381031
23.14457203
23.14910069
23.12854712
23.17602789
23.18839406
23.189645
23.20098426
23.19204582
23.24977368
23.2413853
23.25148205
23.23131942
23.24513592
23.28795318
23.29005116
23.32593598
23.30985613
23.29850804
23.36423331
23.3600797
23.37782035
23.37364471
23.33988971
23.40744081
23.41603904
23.41965325
23.43793872
23.4198517
23.47272565
23.46636809
23.45970796
23.4734701
23.45392396
23.50389419
23.50329522
23.51102435
23.53010822
23.53599094
23.5708994
23.56084303
23.56298262
23.57829865
23.56536293
23.65380437
23.61891236
23.6067896
23.61709473
23.63149177
23.67672225
23.67461756
23.68090443
23.68004575
23.67138605
23.73053441
23.71039559
23.72447584
23.73603517
23.71932075
23.79719208
23.77903456
23.77676321
23.79125024
23.78309575
23.82685323
23.84531382
23.81590436
23.82836263
23.83016485
23.88123965
23.90419507
23.88526187
23.88539118
23.8896502
23.94964236
23.94774852
23.93947843
23.93398615
23.94405725
24.00415704
24.00003193
23.99789549
23.95580583
24.01392663
24.04158584
24.04733699
24.04708168
24.03252668
24.05427775
24.09387719
24.10301231
24.10811792
24.10591498
24.11860771
24.15390589
24.15903074
24.17141331
24.16047639
24.1530355
24.2018946
24.2056859
24.18196183
24.1891728
24.21384507
24.26373397
24.24856156
24.24203143
24.27959917
24.25436296
24.30951216
24.32028968
24.31470403
24.2967468
24.31511779
24.36439071
24.36999171
24.34845269
24.35446855
24.39513203
24.39917462
24.38831144
24.40888844
24.41569432
24.42482862
24.47076387
24.46878865
24.45490925
24.4601311
24.46053747
24.50332722
24.49689199
24.49606793
24.51298565
24.50348681
24.56084756
24.55408835
24.56997537
24.56366983
24.55609183
24.62164442
24.62409443
24.60446582
24.59284082
24.62177529
24.66256763
24.64880737
24.65676983
24.68726413
24.64521577
24.68630368
24.73714967
24.73576716
24.71696473
24.70682489
24.7545745
24.74135129
24.77200695
24.74943493
24.76848087
24.81463615
24.8055103
24.82280617
24.83230803
24.8249782
24.85138121
24.86023648
24.86335446
24.87292059
24.84965032
24.93283923
24.89878678
24.89731917
24.91930227
24.91136987
24.95459661
24.94757023
24.94596285
24.96193165
24.96063924
25.005999
24.99475322
24.99484891
25.03169515
25.02780383
25.02991448
25.06359806
25.06098091
25.06339155
25.05344991
25.09035142
25.1082828
25.10801312
25.12388848
25.10977241
25.15656361
25.16205866
25.1544216
25.17374036
25.1659386
25.21975963
25.2261325
25.23781288
25.21535794
25.2377687
25.30867195
25.28746134
25.28662805
25.26367891
25.28445324
25.34524128
25.34141562
25.36137606
25.33998963
25.35584355
25.40666597
25.41112664
25.44231157
25.43174386
25.43212329
)
;

boundaryField
{
    upperWall
    {
        type            calculated;
        value           nonuniform List<scalar> 5(25.40666597 25.41112664 25.44231157 25.43174386 25.43212329);
    }
    lowerWall
    {
        type            calculated;
        value           nonuniform List<scalar> 5(19.58848451 19.5745455 19.57451195 19.57576498 19.58734312);
    }
    periodicX_half0
    {
        type            cyclic;
    }
    periodicX_half1
    {
        type            cyclic;
    }
    frontAndBack
    {
        type            empty;
    }
}


// ************************************************************************* //
