/*--------------------------------*- C++ -*----------------------------------*\
| =========                 |                                                 |
| \\      /  F ield         | OpenFOAM: The Open Source CFD Toolbox           |
|  \\    /   O peration     | Version:  v1706                                 |
|   \\  /    A nd           | Web:      www.OpenFOAM.com                      |
|    \\/     M anipulation  |                                                 |
\*---------------------------------------------------------------------------*/
FoamFile
{
    version     2.0;
    format      ascii;
    class       volScalarField;
    location    "7";
    object      meanCollisionTime_O2;
}
// * * * * * * * * * * * * * * * * * * * * * * * * * * * * * * * * * * * * * //

dimensions      [0 0 1 0 0 0 0];


internalField   nonuniform List<scalar> 
500
(
0.0001958848451
0.000195745455
0.0001957451195
0.0001957576498
0.0001958734312
0.0001967389799
0.0001966787651
0.000196671806
0.0001967223914
0.0001967273096
0.0001976201215
0.0001975427926
0.0001974569533
0.0001975516817
0.0001975492297
0.0001982628641
0.0001981145162
0.0001981949559
0.0001983754779
0.0001982748525
0.0001989592656
0.0001989525784
0.0001990068727
0.0001990792374
0.0001990401595
0.0001997998173
0.0001996874132
0.0001996476909
0.0001999509712
0.0001999856955
0.0002004706566
0.0002003339886
0.0002004475826
0.0002004942863
0.0002005881831
0.0002012096609
0.0002013288664
0.0002012537376
0.00020134528
0.0002010956606
0.0002017820209
0.0002018541073
0.0002019052874
0.0002019534423
0.0002019724499
0.0002026912206
0.0002026024413
0.000202606107
0.0002025884935
0.0002026073968
0.000203356806
0.0002033070838
0.0002030356667
0.0002033237336
0.0002031900753
0.000204001047
0.0002039168214
0.000203938442
0.0002037855602
0.0002039180261
0.0002047128338
0.0002045493267
0.000204436221
0.0002044730485
0.0002044900537
0.0002052022044
0.0002053355464
0.0002050378304
0.0002050079822
0.0002052228456
0.0002057851129
0.0002057132983
0.0002057276042
0.0002058350361
0.0002059952133
0.0002065537883
0.0002066288332
0.0002064857844
0.0002064637824
0.0002065370045
0.0002072133539
0.0002070630676
0.0002070388106
0.0002072405621
0.0002070047322
0.0002079292691
0.0002077253213
0.0002078222538
0.0002078939305
0.0002077832778
0.0002085334879
0.0002084731969
0.0002085863005
0.0002083550855
0.0002084841397
0.0002090707974
0.0002091930069
0.0002089771636
0.000208920416
0.0002089219668
0.0002097720328
0.0002097309175
0.0002096101051
0.0002095872298
0.0002097646452
0.0002104351604
0.0002103882776
0.0002102811593
0.0002102403328
0.0002103317055
0.0002110669679
0.0002112030914
0.0002110282899
0.0002110127653
0.0002108866716
0.0002116298967
0.0002116805887
0.0002116911258
0.0002114960581
0.0002114338482
0.000212347198
0.0002123482348
0.0002122425426
0.0002124127725
0.0002124770799
0.0002126938125
0.0002127803672
0.0002129526799
0.0002128320039
0.000212884231
0.000213440902
0.0002134511983
0.0002135163219
0.0002134498292
0.0002133730037
0.0002140088227
0.0002141500943
0.000214181885
0.0002141153351
0.000214172141
0.0002147895275
0.0002146767434
0.0002147205593
0.0002147526288
0.0002147115494
0.000215381771
0.0002155123766
0.000215390003
0.0002154239054
0.000215234624
0.0002160533336
0.0002160501282
0.0002160423279
0.0002159274647
0.000216019553
0.0002164750434
0.000216702487
0.0002165752527
0.0002164155473
0.0002164384967
0.0002171512769
0.0002170174768
0.0002170916885
0.0002170727619
0.0002171545361
0.0002177764173
0.0002177898989
0.0002176670287
0.0002177265373
0.0002178639212
0.0002184447158
0.0002181757496
0.0002184382384
0.0002183507866
0.0002182237447
0.0002189211391
0.0002188246928
0.0002189434956
0.0002189034031
0.0002190641063
0.0002196186235
0.0002193672427
0.0002197267365
0.0002197143331
0.0002195587232
0.0002201712919
0.0002200890877
0.0002201733556
0.0002203494643
0.0002201848126
0.0002208190335
0.0002208424729
0.0002208480049
0.0002207862664
0.0002207573898
0.0002213039716
0.0002212662308
0.000221298671
0.0002214369747
0.0002213221083
0.0002219349563
0.0002218697261
0.0002217771502
0.000221746991
0.0002219452083
0.0002225907922
0.0002224737956
0.0002224448665
0.000222614231
0.0002226479759
0.0002231631846
0.0002232390212
0.0002229978494
0.0002231854392
0.0002232541065
0.0002238495434
0.0002236589077
0.0002237528954
0.0002239786444
0.0002237899914
0.0002244096006
0.0002245692659
0.0002244436108
0.0002244130099
0.000224541654
0.0002251641453
0.0002251939462
0.0002250163009
0.0002250093858
0.0002249956373
0.0002257003247
0.0002258399791
0.0002259478749
0.0002256610809
0.0002257109175
0.0002262797099
0.0002263886251
0.0002263064957
0.0002261955213
0.0002264002178
0.0002268961535
0.0002268096487
0.0002267429716
0.0002268239597
0.000226740365
0.0002271894216
0.0002273197756
0.0002272805447
0.0002274085048
0.000227445095
0.0002279606529
0.0002280041659
0.0002279530705
0.0002280258572
0.0002279491073
0.0002285209251
0.0002285761257
0.0002286068473
0.0002283918734
0.0002286639815
0.0002291641232
0.0002292019251
0.0002288715542
0.0002290504651
0.0002291307706
0.0002295249724
0.0002295059582
0.0002296707243
0.0002295086879
0.0002296187086
0.0002299653853
0.0002302678831
0.0002299953882
0.0002301198703
0.0002300872631
0.0002304704266
0.0002306711586
0.0002306886571
0.0002306693454
0.0002305141449
0.000231233309
0.0002314381031
0.0002314457203
0.0002314910069
0.0002312854712
0.0002317602789
0.0002318839406
0.00023189645
0.0002320098426
0.0002319204582
0.0002324977368
0.000232413853
0.0002325148205
0.0002323131942
0.0002324513592
0.0002328795318
0.0002329005116
0.0002332593598
0.0002330985613
0.0002329850804
0.0002336423331
0.000233600797
0.0002337782035
0.0002337364471
0.0002333988971
0.0002340744081
0.0002341603904
0.0002341965325
0.0002343793872
0.000234198517
0.0002347272565
0.0002346636809
0.0002345970796
0.000234734701
0.0002345392396
0.0002350389419
0.0002350329522
0.0002351102435
0.0002353010822
0.0002353599094
0.000235708994
0.0002356084303
0.0002356298262
0.0002357829865
0.0002356536293
0.0002365380437
0.0002361891236
0.000236067896
0.0002361709473
0.0002363149177
0.0002367672225
0.0002367461756
0.0002368090443
0.0002368004575
0.0002367138605
0.0002373053441
0.0002371039559
0.0002372447584
0.0002373603517
0.0002371932075
0.0002379719208
0.0002377903456
0.0002377676321
0.0002379125024
0.0002378309575
0.0002382685323
0.0002384531382
0.0002381590436
0.0002382836263
0.0002383016485
0.0002388123965
0.0002390419507
0.0002388526187
0.0002388539118
0.000238896502
0.0002394964236
0.0002394774852
0.0002393947843
0.0002393398615
0.0002394405725
0.0002400415704
0.0002400003193
0.0002399789549
0.0002395580583
0.0002401392663
0.0002404158584
0.0002404733699
0.0002404708168
0.0002403252668
0.0002405427775
0.0002409387719
0.0002410301231
0.0002410811792
0.0002410591498
0.0002411860771
0.0002415390589
0.0002415903074
0.0002417141331
0.0002416047639
0.000241530355
0.000242018946
0.000242056859
0.0002418196183
0.000241891728
0.0002421384507
0.0002426373397
0.0002424856156
0.0002424203143
0.0002427959917
0.0002425436296
0.0002430951216
0.0002432028968
0.0002431470403
0.000242967468
0.0002431511779
0.0002436439071
0.0002436999171
0.0002434845269
0.0002435446855
0.0002439513203
0.0002439917462
0.0002438831144
0.0002440888844
0.0002441569432
0.0002442482862
0.0002447076387
0.0002446878865
0.0002445490925
0.000244601311
0.0002446053747
0.0002450332722
0.0002449689199
0.0002449606793
0.0002451298565
0.0002450348681
0.0002456084756
0.0002455408835
0.0002456997537
0.0002456366983
0.0002455609183
0.0002462164442
0.0002462409443
0.0002460446582
0.0002459284082
0.0002462177529
0.0002466256763
0.0002464880737
0.0002465676983
0.0002468726413
0.0002464521577
0.0002468630368
0.0002473714967
0.0002473576716
0.0002471696473
0.0002470682489
0.000247545745
0.0002474135129
0.0002477200695
0.0002474943493
0.0002476848087
0.0002481463615
0.000248055103
0.0002482280617
0.0002483230803
0.000248249782
0.0002485138121
0.0002486023648
0.0002486335446
0.0002487292059
0.0002484965032
0.0002493283923
0.0002489878678
0.0002489731917
0.0002491930227
0.0002491136987
0.0002495459661
0.0002494757023
0.0002494596285
0.0002496193165
0.0002496063924
0.00025005999
0.0002499475322
0.0002499484891
0.0002503169515
0.0002502780383
0.0002502991448
0.0002506359806
0.0002506098091
0.0002506339155
0.0002505344991
0.0002509035142
0.000251082828
0.0002510801312
0.0002512388848
0.0002510977241
0.0002515656361
0.0002516205866
0.000251544216
0.0002517374036
0.000251659386
0.0002521975963
0.000252261325
0.0002523781288
0.0002521535794
0.000252377687
0.0002530867195
0.0002528746134
0.0002528662805
0.0002526367891
0.0002528445324
0.0002534524128
0.0002534141562
0.0002536137606
0.0002533998963
0.0002535584355
0.0002540666597
0.0002541112664
0.0002544231157
0.0002543174386
0.0002543212329
)
;

boundaryField
{
    upperWall
    {
        type            calculated;
        value           nonuniform List<scalar> 5(0.0002540666597 0.0002541112664 0.0002544231157 0.0002543174386 0.0002543212329);
    }
    lowerWall
    {
        type            calculated;
        value           nonuniform List<scalar> 5(0.0001958848451 0.000195745455 0.0001957451195 0.0001957576498 0.0001958734312);
    }
    periodicX_half0
    {
        type            cyclic;
    }
    periodicX_half1
    {
        type            cyclic;
    }
    frontAndBack
    {
        type            empty;
    }
}


// ************************************************************************* //
