/*--------------------------------*- C++ -*----------------------------------*\
| =========                 |                                                 |
| \\      /  F ield         | OpenFOAM: The Open Source CFD Toolbox           |
|  \\    /   O peration     | Version:  v1706                                 |
|   \\  /    A nd           | Web:      www.OpenFOAM.com                      |
|    \\/     M anipulation  |                                                 |
\*---------------------------------------------------------------------------*/
FoamFile
{
    version     2.0;
    format      ascii;
    class       volScalarField;
    location    "7";
    object      p_mixture;
}
// * * * * * * * * * * * * * * * * * * * * * * * * * * * * * * * * * * * * * //

dimensions      [1 -1 -2 0 0 0 0];


internalField   nonuniform List<scalar> 
500
(
1.400315028
1.399577394
1.400000553
1.400538603
1.40052412
1.40137536
1.401233753
1.40100751
1.401451164
1.401195293
1.402212692
1.402364653
1.40250052
1.402668127
1.402241055
1.403317715
1.40320925
1.403240752
1.402910386
1.402988941
1.403592914
1.403297584
1.404184993
1.403868764
1.403653619
1.404069826
1.403970557
1.403875749
1.403764842
1.403538687
1.403986368
1.404565244
1.404123709
1.404227839
1.403712871
1.4038847
1.403805492
1.403855708
1.404458449
1.404213785
1.404370133
1.404274761
1.403697444
1.404194491
1.404068603
1.404484545
1.404485611
1.404429083
1.404397054
1.404234312
1.404773196
1.404223472
1.405515366
1.404720625
1.404389062
1.404585475
1.405358374
1.404898446
1.405052974
1.404548492
1.40492546
1.405031725
1.404716017
1.405154137
1.405455226
1.404993597
1.404515305
1.405563929
1.404910719
1.404852949
1.405072218
1.404962879
1.405100036
1.404859579
1.404838265
1.405287516
1.405296415
1.405063959
1.405705831
1.404780979
1.404791181
1.405370211
1.405020518
1.405573871
1.405336763
1.40507409
1.405299061
1.405147551
1.405049522
1.405105046
1.405735258
1.405354501
1.405395161
1.405716671
1.405776859
1.406106378
1.405364324
1.405777717
1.405967652
1.406222712
1.405678752
1.405195882
1.405418361
1.406359648
1.405915063
1.405702331
1.40630301
1.406139916
1.406073693
1.406056815
1.405879689
1.405500996
1.406447596
1.405716263
1.406465865
1.405825671
1.40601312
1.40597761
1.406116564
1.405903087
1.40587659
1.405686256
1.405711455
1.40595766
1.405376448
1.405271889
1.405732745
1.405638928
1.406239944
1.405272543
1.405726679
1.405716954
1.405184911
1.406315569
1.405934553
1.405725297
1.406345195
1.405342446
1.405795736
1.405377622
1.405332967
1.405503562
1.40566133
1.404902638
1.405826592
1.405529556
1.405211638
1.405383671
1.405573185
1.405648512
1.405600891
1.405242315
1.405438041
1.405649284
1.404769894
1.405461882
1.40515215
1.405356974
1.40570181
1.405894213
1.405215965
1.405317208
1.405954757
1.406276242
1.405462414
1.40586811
1.405187926
1.405590759
1.405885126
1.405060286
1.405398142
1.405877602
1.40595678
1.40597223
1.40602072
1.405520203
1.406078438
1.406400215
1.405768077
1.405950386
1.405906501
1.405846791
1.405225119
1.406163823
1.406089419
1.405858766
1.405881684
1.404973763
1.40593374
1.405754827
1.405615611
1.40563735
1.405455113
1.406261154
1.40575128
1.406309761
1.406427683
1.406377653
1.405585687
1.405986192
1.406322984
1.405876238
1.406075777
1.405662458
1.405928843
1.405724616
1.40581074
1.405948516
1.405967246
1.406625181
1.406175308
1.405669343
1.406173171
1.405346928
1.405323625
1.405766855
1.40609607
1.405822831
1.405345828
1.405995655
1.405614972
1.405229437
1.405260777
1.405630906
1.404854761
1.406074527
1.405186467
1.405079303
1.405856755
1.405215469
1.405353622
1.405035347
1.405277635
1.405328526
1.405092306
1.405423981
1.405223706
1.405506731
1.405406421
1.405475526
1.406245935
1.405972063
1.40580183
1.40589954
1.405422438
1.406179201
1.405676118
1.406026039
1.405666164
1.405478433
1.405697924
1.405421782
1.405864241
1.405898909
1.405490995
1.405650901
1.405454326
1.405621041
1.406142468
1.405215577
1.405466406
1.405323557
1.405554183
1.405815531
1.406038614
1.405787698
1.406066012
1.406060216
1.406285624
1.405812867
1.405759323
1.405819895
1.405905879
1.406319616
1.406025123
1.406001144
1.405293879
1.406027927
1.406172914
1.406022264
1.405605507
1.405662658
1.40528842
1.405963399
1.405636655
1.405990268
1.405795916
1.406374869
1.406061728
1.405989745
1.405729623
1.405397301
1.40551961
1.405598533
1.405106732
1.406040782
1.405728408
1.405407914
1.406189567
1.406084341
1.405632541
1.405867104
1.405814935
1.406244936
1.405879575
1.405697012
1.40622047
1.406147721
1.405681104
1.405828073
1.405892502
1.405804741
1.405588236
1.40523179
1.405565427
1.406600527
1.406221456
1.405536654
1.405605453
1.405768277
1.405967488
1.405770577
1.405781194
1.405500797
1.406110844
1.405533023
1.4060214
1.406481414
1.405933604
1.406056154
1.40579606
1.405762077
1.406048888
1.405972827
1.40624747
1.405180528
1.405280971
1.406297883
1.406055165
1.406254358
1.405303487
1.405634666
1.405841746
1.405696001
1.406477163
1.405753933
1.405588724
1.40578935
1.406468727
1.40615678
1.405911829
1.405935674
1.406205958
1.406010686
1.406341046
1.406047825
1.406056639
1.406146192
1.40606521
1.406060681
1.40635564
1.406013181
1.405602124
1.407371985
1.406027021
1.406491969
1.406108571
1.406488934
1.405791106
1.406203052
1.406243509
1.406638159
1.405861939
1.406009665
1.406206201
1.406107679
1.406333403
1.405971401
1.406594828
1.406326622
1.406144086
1.406795405
1.406163271
1.406570268
1.406455044
1.406744517
1.406187749
1.406260714
1.405470187
1.406497112
1.406077464
1.406437959
1.406173116
1.406286312
1.406465644
1.405506334
1.406349864
1.406514505
1.405875075
1.406452898
1.406887629
1.406737724
1.405933498
1.405556529
1.406003358
1.405803751
1.406287631
1.40647095
1.405927136
1.40601855
1.406141174
1.406164169
1.407068619
1.406525563
1.406653379
1.406778384
1.406248189
1.406758875
1.406778224
1.407004176
1.406440159
1.406894333
1.407021362
1.407321611
1.406446951
1.406624084
1.407095923
1.406687394
1.405949702
1.407076496
1.406594207
1.406337268
1.406334086
1.407448829
1.406539973
1.40695592
1.407544984
1.406810326
1.407372001
1.406815924
1.407239747
1.407312284
1.407211805
1.40756015
1.407090679
1.40744021
1.407465176
1.407688577
1.407383209
1.407190438
1.407251653
1.40719919
1.407483786
1.407615084
1.407961037
1.407174096
1.407340228
1.407640796
1.407646618
1.407121941
1.407204966
1.406980169
1.407608256
1.407083147
1.407098008
1.407627558
1.407076974
1.407887264
1.407414488
1.407449339
1.408256709
1.407988972
1.40791736
1.407878032
1.408080372
1.40854328
1.408516201
1.408119212
1.407982549
1.408804617
1.408243347
1.408268727
1.408035797
1.408460543
1.407729044
1.408576847
1.408322198
1.40895477
1.409623797
1.408776056
1.408772525
1.409204071
1.409386571
1.409633467
1.408635228
1.410402771
1.41009739
1.409424569
1.409036971
1.409485765
)
;

boundaryField
{
    upperWall
    {
        type            calculated;
        value           nonuniform List<scalar> 5(1.405334113 1.406086142 1.405037741 1.404672246 1.405094602);
    }
    lowerWall
    {
        type            calculated;
        value           nonuniform List<scalar> 5(1.405430351 1.404077636 1.405309152 1.405775661 1.405643588);
    }
    periodicX_half0
    {
        type            cyclic;
    }
    periodicX_half1
    {
        type            cyclic;
    }
    frontAndBack
    {
        type            empty;
    }
}


// ************************************************************************* //
