/*--------------------------------*- C++ -*----------------------------------*\
| =========                 |                                                 |
| \\      /  F ield         | OpenFOAM: The Open Source CFD Toolbox           |
|  \\    /   O peration     | Version:  v1706                                 |
|   \\  /    A nd           | Web:      www.OpenFOAM.com                      |
|    \\/     M anipulation  |                                                 |
\*---------------------------------------------------------------------------*/
FoamFile
{
    version     2.0;
    format      ascii;
    class       volScalarField;
    location    "7";
    object      rhoM_O2;
}
// * * * * * * * * * * * * * * * * * * * * * * * * * * * * * * * * * * * * * //

dimensions      [1 -3 0 0 0 0 0];


internalField   nonuniform List<scalar> 
500
(
5.436258913e-07
5.440168583e-07
5.440017977e-07
5.439011656e-07
5.436139493e-07
5.403755405e-07
5.405772612e-07
5.405675251e-07
5.403680102e-07
5.403832229e-07
5.372621802e-07
5.374082224e-07
5.376091825e-07
5.373152726e-07
5.373689736e-07
5.347773337e-07
5.35170963e-07
5.349490854e-07
5.344161836e-07
5.347242413e-07
5.322176406e-07
5.323540227e-07
5.32124843e-07
5.319080617e-07
5.320048907e-07
5.293900514e-07
5.297355324e-07
5.298560933e-07
5.290397024e-07
5.288949533e-07
5.270151929e-07
5.274184823e-07
5.271292123e-07
5.269368474e-07
5.267421245e-07
5.246499945e-07
5.24296755e-07
5.2448197e-07
5.241775633e-07
5.247872133e-07
5.226590291e-07
5.224026947e-07
5.222647153e-07
5.221334295e-07
5.220780552e-07
5.197314163e-07
5.198553239e-07
5.199895762e-07
5.19991782e-07
5.199427971e-07
5.175173563e-07
5.175895406e-07
5.183198275e-07
5.176093932e-07
5.179252855e-07
5.153377531e-07
5.155088962e-07
5.155523286e-07
5.158099561e-07
5.156190364e-07
5.130977554e-07
5.134819528e-07
5.138170891e-07
5.137331149e-07
5.135132149e-07
5.113340681e-07
5.110348338e-07
5.116774193e-07
5.118400434e-07
5.113009044e-07
5.094648045e-07
5.095712936e-07
5.095391948e-07
5.093241629e-07
5.088993475e-07
5.069877926e-07
5.068409137e-07
5.071536874e-07
5.071910346e-07
5.07060053e-07
5.050260356e-07
5.052552914e-07
5.053632257e-07
5.04875886e-07
5.05479527e-07
5.028005661e-07
5.032608271e-07
5.031045163e-07
5.028011746e-07
5.031280961e-07
5.008602591e-07
5.010098002e-07
5.007276041e-07
5.012398926e-07
5.009691822e-07
4.990157922e-07
4.988092795e-07
4.993022479e-07
4.994589389e-07
4.9946974e-07
4.969885445e-07
4.970615656e-07
4.974429486e-07
4.974473603e-07
4.970846129e-07
4.950324923e-07
4.950807167e-07
4.953445814e-07
4.954503098e-07
4.952378641e-07
4.930950757e-07
4.927704362e-07
4.931483203e-07
4.932873646e-07
4.93529399e-07
4.913240863e-07
4.91190975e-07
4.912082414e-07
4.916566365e-07
4.918737982e-07
4.892311957e-07
4.893194295e-07
4.895311146e-07
4.890953461e-07
4.889712863e-07
4.881138211e-07
4.878778717e-07
4.875116253e-07
4.877050551e-07
4.876753143e-07
4.860064023e-07
4.85916419e-07
4.857851332e-07
4.859407594e-07
4.861592901e-07
4.843314052e-07
4.838519001e-07
4.838682538e-07
4.839966492e-07
4.839230956e-07
4.821133899e-07
4.823583908e-07
4.822769267e-07
4.821895296e-07
4.82265365e-07
4.803157782e-07
4.800969432e-07
4.80335783e-07
4.802479295e-07
4.807005841e-07
4.784889581e-07
4.785420505e-07
4.784287157e-07
4.788057631e-07
4.785704223e-07
4.771586053e-07
4.766711896e-07
4.769793994e-07
4.773164374e-07
4.773057885e-07
4.752786168e-07
4.755700165e-07
4.754333302e-07
4.75477295e-07
4.75332698e-07
4.734651839e-07
4.734229686e-07
4.738425355e-07
4.736237005e-07
4.733596076e-07
4.716591292e-07
4.722438303e-07
4.716582925e-07
4.718785727e-07
4.721984963e-07
4.702619925e-07
4.704575521e-07
4.702463234e-07
4.703520519e-07
4.699279211e-07
4.684325863e-07
4.689718013e-07
4.682547495e-07
4.681932901e-07
4.686017518e-07
4.669186919e-07
4.671524355e-07
4.669568759e-07
4.664455762e-07
4.668843112e-07
4.652042178e-07
4.651190266e-07
4.651044984e-07
4.652776192e-07
4.653409042e-07
4.637825126e-07
4.63903682e-07
4.637918684e-07
4.634831262e-07
4.637449372e-07
4.62091314e-07
4.622556875e-07
4.624859321e-07
4.625425234e-07
4.620524455e-07
4.603899989e-07
4.606236663e-07
4.606944816e-07
4.603206289e-07
4.601587655e-07
4.589318592e-07
4.586927912e-07
4.592709508e-07
4.587925106e-07
4.587375927e-07
4.571275539e-07
4.574693078e-07
4.573176369e-07
4.568906158e-07
4.572503206e-07
4.556561792e-07
4.553041567e-07
4.555506029e-07
4.556298612e-07
4.553777863e-07
4.537514699e-07
4.536622473e-07
4.541061546e-07
4.540798366e-07
4.541715693e-07
4.52259558e-07
4.520947281e-07
4.517867465e-07
4.52350454e-07
4.523166818e-07
4.50793888e-07
4.505904178e-07
4.506971351e-07
4.509938593e-07
4.50621756e-07
4.492575549e-07
4.493744647e-07
4.495285696e-07
4.494039013e-07
4.496423608e-07
4.483106388e-07
4.480660943e-07
4.481537196e-07
4.479065889e-07
4.47922334e-07
4.464913491e-07
4.464019743e-07
4.464911969e-07
4.463160224e-07
4.466081067e-07
4.45127224e-07
4.449929717e-07
4.449577543e-07
4.453915451e-07
4.449247426e-07
4.435063082e-07
4.434968002e-07
4.441326161e-07
4.437872872e-07
4.435770473e-07
4.425145146e-07
4.425331501e-07
4.422835854e-07
4.425059194e-07
4.422919524e-07
4.413021364e-07
4.40724205e-07
4.412580956e-07
4.410542451e-07
4.410767599e-07
4.400334712e-07
4.397035833e-07
4.396241729e-07
4.396860126e-07
4.400498249e-07
4.383256907e-07
4.378897701e-07
4.379678874e-07
4.378246596e-07
4.382145618e-07
4.369989129e-07
4.36758704e-07
4.366582239e-07
4.364924052e-07
4.366675037e-07
4.353004882e-07
4.354648617e-07
4.35284667e-07
4.356646809e-07
4.3541253e-07
4.3432946e-07
4.342832133e-07
4.335850253e-07
4.338941479e-07
4.340778415e-07
4.325996971e-07
4.326442704e-07
4.323359845e-07
4.323388749e-07
4.329658674e-07
4.314631544e-07
4.313130809e-07
4.311324298e-07
4.308975453e-07
4.311949541e-07
4.299828802e-07
4.301080049e-07
4.302224806e-07
4.299667547e-07
4.303498872e-07
4.291358357e-07
4.290821348e-07
4.289882723e-07
4.286461381e-07
4.285323469e-07
4.276303084e-07
4.278040377e-07
4.277485112e-07
4.274240999e-07
4.276790651e-07
4.258689791e-07
4.26425993e-07
4.266605732e-07
4.265206922e-07
4.262633689e-07
4.251287279e-07
4.25187449e-07
4.25069094e-07
4.251043114e-07
4.25248452e-07
4.239635092e-07
4.243165965e-07
4.240205569e-07
4.238370914e-07
4.241360975e-07
4.224670334e-07
4.227322673e-07
4.228128947e-07
4.225425646e-07
4.227359183e-07
4.216328436e-07
4.213975789e-07
4.218602739e-07
4.215923778e-07
4.216517074e-07
4.204402421e-07
4.200431899e-07
4.203657758e-07
4.203682098e-07
4.202963297e-07
4.189558604e-07
4.189680306e-07
4.191480732e-07
4.192334166e-07
4.190499511e-07
4.177288781e-07
4.178300427e-07
4.178630543e-07
4.186163885e-07
4.175546924e-07
4.168190811e-07
4.167046814e-07
4.167196659e-07
4.169512797e-07
4.165377978e-07
4.15650972e-07
4.154708533e-07
4.154058189e-07
4.154919229e-07
4.152333066e-07
4.143636712e-07
4.142222689e-07
4.140660342e-07
4.142708736e-07
4.143821547e-07
4.132606726e-07
4.132234014e-07
4.135980908e-07
4.135139644e-07
4.130294391e-07
4.11913814e-07
4.121717457e-07
4.123344458e-07
4.117616867e-07
4.121479378e-07
4.109267363e-07
4.106764109e-07
4.108238222e-07
4.110655524e-07
4.107734681e-07
4.09728506e-07
4.096492477e-07
4.099808091e-07
4.099049736e-07
4.091388608e-07
4.088250223e-07
4.090414994e-07
4.086636153e-07
4.086068718e-07
4.083897102e-07
4.074840206e-07
4.074166282e-07
4.076497632e-07
4.075781113e-07
4.075581065e-07
4.066980551e-07
4.067115184e-07
4.066798759e-07
4.064360159e-07
4.066885472e-07
4.054154703e-07
4.055186126e-07
4.051998299e-07
4.053944767e-07
4.054613367e-07
4.041094578e-07
4.041525859e-07
4.044334128e-07
4.046275272e-07
4.041149344e-07
4.032470485e-07
4.034596463e-07
4.033275238e-07
4.028351639e-07
4.03532211e-07
4.025972369e-07
4.017829758e-07
4.017946135e-07
4.020894362e-07
4.022546463e-07
4.012542576e-07
4.014385597e-07
4.009347903e-07
4.013107728e-07
4.010211986e-07
4.000224832e-07
4.001463909e-07
3.999185803e-07
3.996952575e-07
3.998190891e-07
3.991974211e-07
3.990313742e-07
3.98986877e-07
3.987602074e-07
3.991978014e-07
3.976357588e-07
3.981423425e-07
3.981969562e-07
3.977982307e-07
3.979122501e-07
3.970424625e-07
3.971475824e-07
3.970606417e-07
3.969495128e-07
3.969436559e-07
3.960287626e-07
3.961996775e-07
3.960944815e-07
3.955955042e-07
3.956116297e-07
3.953467761e-07
3.948127334e-07
3.948490158e-07
3.947953909e-07
3.949926999e-07
3.941058741e-07
3.937931766e-07
3.937634357e-07
3.936318456e-07
3.938521259e-07
3.927809979e-07
3.927445634e-07
3.927797809e-07
3.924845019e-07
3.925986734e-07
3.91539031e-07
3.914707259e-07
3.913157082e-07
3.916546478e-07
3.912683206e-07
3.898843429e-07
3.902855025e-07
3.90212025e-07
3.904627308e-07
3.902673994e-07
3.889765996e-07
3.890436878e-07
3.887477242e-07
3.890036022e-07
3.888183873e-07
3.876304256e-07
3.876203092e-07
3.87113193e-07
3.873372764e-07
3.872635707e-07
)
;

boundaryField
{
    upperWall
    {
        type            calculated;
        value           nonuniform List<scalar> 5(3.864714202e-07 3.881475192e-07 3.86189424e-07 3.85863944e-07 3.859440178e-07);
    }
    lowerWall
    {
        type            calculated;
        value           nonuniform List<scalar> 5(5.46118309e-07 5.460509058e-07 5.462951076e-07 5.469655694e-07 5.454753119e-07);
    }
    periodicX_half0
    {
        type            cyclic;
    }
    periodicX_half1
    {
        type            cyclic;
    }
    frontAndBack
    {
        type            empty;
    }
}


// ************************************************************************* //
