/*--------------------------------*- C++ -*----------------------------------*\
| =========                 |                                                 |
| \\      /  F ield         | OpenFOAM: The Open Source CFD Toolbox           |
|  \\    /   O peration     | Version:  v1706                                 |
|   \\  /    A nd           | Web:      www.OpenFOAM.com                      |
|    \\/     M anipulation  |                                                 |
\*---------------------------------------------------------------------------*/
FoamFile
{
    version     2.0;
    format      ascii;
    class       volScalarField;
    location    "7";
    object      translationalT_mixture;
}
// * * * * * * * * * * * * * * * * * * * * * * * * * * * * * * * * * * * * * //

dimensions      [0 0 0 1 0 0 0];


internalField   nonuniform List<scalar> 
500
(
2074.760164
2074.905295
2075.216419
2075.75812
2075.20667
2090.585038
2090.543403
2089.973281
2090.186959
2090.383119
2103.470624
2103.362671
2103.415391
2103.74049
2103.250695
2115.284575
2114.905287
2114.899265
2114.765309
2114.915993
2125.886345
2125.577278
2126.323353
2125.774746
2125.834555
2135.955279
2135.749474
2136.492912
2136.505849
2136.448031
2146.672344
2146.468572
2146.642055
2147.098404
2146.291736
2155.595071
2156.036104
2156.129138
2156.690505
2156.221387
2165.17929
2165.876659
2165.58238
2165.709668
2165.493984
2175.614525
2175.298345
2175.427814
2175.233188
2174.962739
2185.220744
2184.748987
2184.890888
2184.68996
2184.426431
2193.699999
2195.000651
2194.134602
2194.560516
2193.861511
2203.293341
2203.413879
2203.359116
2203.398723
2204.242657
2212.814409
2212.640519
2213.154557
2212.863437
2213.026246
2221.648114
2221.822911
2221.823573
2221.804868
2221.973603
2231.406056
2231.621523
2231.48616
2231.693027
2230.997582
2239.7389
2240.031427
2240.350501
2240.399036
2239.424657
2248.90608
2249.437843
2248.975411
2249.222404
2248.829819
2258.332276
2257.999701
2257.986277
2258.569264
2258.143572
2267.817257
2266.947525
2266.799378
2267.294436
2267.167699
2276.092879
2275.272625
2275.859212
2276.551244
2276.163879
2284.599701
2284.870142
2284.878763
2284.612041
2284.756795
2293.220869
2293.283306
2293.677016
2293.33997
2293.247143
2302.198233
2301.798739
2301.560561
2301.599725
2301.457634
2310.509624
2310.617907
2310.012391
2310.905352
2310.023452
2318.623068
2319.513971
2318.738471
2319.541019
2318.934656
2327.890099
2327.38893
2327.040088
2327.730424
2327.555613
2335.688298
2337.515927
2336.283294
2336.648883
2336.022921
2344.615919
2344.811285
2344.441279
2344.086158
2344.862115
2353.599841
2353.105649
2353.1763
2353.78129
2353.581497
2362.281574
2361.240231
2361.630697
2362.042156
2361.221703
2370.083489
2370.754643
2369.911397
2370.288951
2369.929369
2378.416475
2378.635433
2378.52991
2378.988648
2378.166826
2388.194822
2387.482929
2387.030007
2387.269186
2387.103212
2395.852002
2395.16581
2395.948313
2395.867367
2396.111846
2403.699329
2404.418914
2403.926885
2403.599645
2404.651934
2411.81828
2411.718955
2411.701802
2412.687091
2411.629637
2420.421588
2419.325978
2419.519014
2421.307889
2420.46681
2428.43618
2428.236454
2428.554726
2428.356931
2428.221548
2436.791242
2436.492861
2437.350568
2436.589219
2436.583813
2445.104983
2445.014367
2444.968477
2444.666529
2444.731134
2452.785821
2453.258012
2453.33348
2453.38893
2453.730736
2461.533366
2462.10658
2461.436349
2461.152291
2461.523113
2469.354153
2470.092771
2469.412259
2469.570482
2469.569356
2476.851904
2476.978925
2477.182991
2478.004109
2477.323106
2485.574112
2485.552791
2485.118079
2485.688387
2485.291129
2494.019728
2493.615001
2494.19623
2493.392838
2492.86565
2501.856299
2501.887022
2501.962486
2501.089975
2501.792745
2510.451065
2510.495628
2510.01002
2509.414114
2508.883101
2518.679039
2518.291586
2518.199877
2517.88351
2517.516927
2526.755833
2526.249052
2526.389348
2526.439261
2524.944647
2533.804376
2533.772477
2533.614844
2534.025103
2533.852668
2541.674918
2540.98416
2540.529255
2540.988563
2541.803868
2549.935927
2549.295014
2549.744212
2549.604813
2549.481578
2557.203813
2557.872004
2557.872955
2557.831538
2557.609329
2565.335019
2565.237761
2566.245042
2566.005331
2565.009477
2573.32301
2573.014062
2572.946909
2573.898852
2573.035833
2581.066774
2580.326317
2581.99471
2581.315436
2581.6068
2589.628487
2588.81942
2589.441628
2588.762655
2588.944335
2596.928404
2596.858188
2597.591814
2597.637909
2597.612579
2604.59702
2605.773455
2605.467197
2605.782268
2604.529622
2613.120571
2612.444583
2613.52091
2612.896353
2613.395614
2620.943387
2620.354749
2620.107221
2620.28887
2620.193416
2628.623727
2628.871714
2627.895407
2628.982868
2629.059734
2636.950583
2636.185195
2635.590017
2636.156707
2636.253782
2643.605433
2643.533947
2643.727967
2643.265125
2643.69392
2651.926426
2651.765105
2651.879791
2651.233651
2651.851888
2658.051823
2657.800417
2658.77013
2659.201409
2659.27716
2665.691646
2665.993326
2665.937852
2666.737714
2666.273969
2673.195697
2673.859617
2673.579459
2674.555761
2673.783535
2681.180863
2681.05106
2681.653222
2680.911815
2681.648982
2688.980356
2689.321062
2689.050947
2688.549266
2689.409944
2696.688754
2696.305817
2696.498236
2696.969884
2696.351371
2704.13294
2703.756019
2703.88497
2703.520597
2704.120979
2711.311062
2711.524285
2710.981171
2710.961466
2711.797307
2718.940519
2719.094781
2719.62008
2719.2247
2719.604458
2726.771446
2727.345011
2726.689272
2726.349913
2727.24543
2734.408721
2734.396809
2733.92091
2733.635801
2733.986337
2741.198922
2742.290778
2742.230291
2742.352713
2742.196241
2748.49939
2749.064983
2749.299906
2748.825464
2749.856287
2758.075387
2757.186515
2756.778119
2756.200606
2757.273276
2764.083653
2765.21499
2764.869195
2764.832878
2765.318625
2771.989348
2771.969753
2772.483432
2772.512527
2772.943965
2779.650944
2778.940285
2779.597954
2779.41459
2780.175715
2786.515394
2787.045702
2787.45531
2787.225834
2786.964193
2794.318506
2794.591056
2794.817467
2793.663453
2793.999894
2802.435194
2802.885317
2801.704617
2802.939915
2802.11302
2810.325867
2810.247595
2809.816131
2810.440025
2810.191384
2817.680149
2818.161616
2818.325146
2818.880498
2817.716735
2825.626682
2825.823284
2826.008884
2826.885919
2825.389997
2834.101764
2834.377543
2834.059124
2833.653121
2833.934842
2840.88984
2841.399204
2842.259833
2841.066934
2841.28658
2848.661176
2849.141115
2849.648982
2848.83357
2849.187883
2857.417287
2857.451532
2857.227473
2856.579512
2857.429461
2866.888072
2866.540993
2866.06735
2865.843005
2866.128469
2874.914144
2874.756215
2875.119646
2874.39842
2875.277229
2883.627829
2883.724745
2883.148328
2882.793059
2883.002096
2893.270278
2892.767542
2893.616952
2894.075004
2892.459319
2902.666379
2902.976947
2903.300991
2904.109645
2903.53263
2916.062688
2915.733422
2915.707652
2915.743304
2915.513497
)
;

boundaryField
{
    upperWall
    {
        type            calculated;
        value           nonuniform List<scalar> 5(2924.608431 2920.844631 2925.190517 2924.950045 2924.451038);
    }
    lowerWall
    {
        type            calculated;
        value           nonuniform List<scalar> 5(2063.141232 2063.883534 2065.523588 2064.884685 2064.054048);
    }
    periodicX_half0
    {
        type            cyclic;
    }
    periodicX_half1
    {
        type            cyclic;
    }
    frontAndBack
    {
        type            empty;
    }
}


// ************************************************************************* //
