/*--------------------------------*- C++ -*----------------------------------*\
| =========                 |                                                 |
| \\      /  F ield         | OpenFOAM: The Open Source CFD Toolbox           |
|  \\    /   O peration     | Version:  v1706                                 |
|   \\  /    A nd           | Web:      www.OpenFOAM.com                      |
|    \\/     M anipulation  |                                                 |
\*---------------------------------------------------------------------------*/
FoamFile
{
    version     2.0;
    format      ascii;
    class       volScalarField;
    location    "0.3";
    object      dsmcRhoNMean_Ar;
}
// * * * * * * * * * * * * * * * * * * * * * * * * * * * * * * * * * * * * * //

dimensions      [0 -3 0 0 0 0 0];


internalField   nonuniform List<scalar> 
1000
(
97.19674797
97.11906504
97.32121951
97.21833333
97.42373984
97.37963415
97.26670732
97.42422764
97.33292683
97.44678862
97.57203252
97.50300813
97.41756098
97.25239837
97.42317073
97.73589431
97.39955285
97.39849593
97.30321138
97.36028455
97.48804878
97.45288618
97.34439024
97.30861789
97.3246748
97.37337398
97.23898374
97.34678862
97.47349593
97.47028455
97.26817073
97.44256098
97.43666667
97.48402439
97.4454878
97.34247967
97.44565041
97.20097561
97.35284553
97.27857724
97.43422764
97.40028455
97.27443089
97.37784553
97.28788618
97.26520325
97.34154472
97.23487805
97.2699187
97.40853659
97.25093496
97.33329268
97.19134146
97.36252033
97.36939024
97.38178862
97.22247967
97.16691057
97.10857724
97.07130081
97.1402439
97.22455285
97.09134146
97.34203252
97.12227642
97.20138211
97.49329268
97.41593496
97.20186992
97.18727642
97.18528455
97.0897561
97.13231707
97.13703252
96.90565041
97.05203252
97.16292683
97.39252033
97.07434959
97.12052846
97.21719512
97.20073171
97.24569106
97.0445122
96.89865854
97.05463415
97.13134146
97.11621951
96.97504065
97.0203252
97.06182927
97.06361789
97.13056911
97.13593496
96.80841463
96.8753252
97.03044715
96.94934959
96.91081301
97.07219512
96.99682927
97.03890244
96.96142276
96.94105691
97.1797561
97.03146341
96.99382114
97.04
96.93101626
97.05166667
97.23979675
97.24223577
97.16536585
97.12382114
97.09597561
96.93365854
96.98073171
97.20593496
97.02126016
96.91650407
96.91410569
97.01284553
97.08093496
97.20678862
97.12841463
97.08764228
97.04573171
97.00260163
96.96886179
97.11121951
97.11686992
97.09211382
96.96069106
97.00174797
97.05926829
96.95853659
96.91731707
97.28686992
97.07121951
97.02398374
97.19138211
97.23121951
97.12910569
97.0948374
97.07101626
97.10829268
97.09211382
97.10325203
97.09182927
97.16556911
97.11845528
97.13670732
97.06849593
97.16711382
97.17869919
97.31719512
97.05
97.02613821
96.96398374
97.23191057
97.29682927
97.45004065
97.08813008
97.08361789
97.29735772
97.27329268
97.26808943
97.2449187
97.19979675
97.00178862
97.20463415
97.06873984
97.22747967
97.2649187
96.89386179
97.22138211
97.34634146
97.21695122
97.13471545
97.0199187
97.2545122
97.33792683
97.26430894
97.32585366
97.24593496
97.34138211
97.28577236
97.29605691
97.16121951
97.14191057
97.34272358
97.42898374
97.21203252
97.31849593
97.09638211
97.37357724
97.36447154
97.43719512
97.45402439
97.17105691
97.43422764
97.28552846
97.2804065
97.33947154
97.4548374
97.3351626
97.25573171
97.40028455
97.43020325
97.43012195
97.51231707
97.5050813
97.53922764
97.1596748
97.45434959
97.40817073
97.38158537
97.40243902
97.52837398
97.56044715
97.35365854
97.12800813
97.3495122
97.23573171
97.2395122
97.12764228
97.48052846
97.4545935
97.53166667
97.52166667
97.47093496
97.65634146
97.50126016
97.55776423
97.31430894
97.3599187
97.37934959
97.2799187
97.18223577
97.33617886
97.33418699
97.4195122
97.38813008
97.3647561
97.22630081
97.22479675
97.24752033
97.28605691
97.31378049
97.18979675
97.28695122
97.4199187
97.40447154
97.36873984
97.28134146
97.40288618
97.30495935
97.22723577
97.04910569
97.08264228
96.9354878
97.0550813
97.04886179
97.20321138
97.2745122
97.07443089
97.25463415
97.28621951
97.2004878
97.06926829
97.03146341
97.13300813
97.1498374
97.14410569
97.16174797
97.19378049
97.17227642
97.19138211
97.14138211
97.18227642
97.21646341
97.16577236
97.16199187
97.06313008
96.95873984
96.99288618
97.04719512
97.04349593
97.10853659
97.0846748
97.06520325
97.09906504
97.14365854
96.88170732
97.00414634
97.05215447
97.00247967
96.97158537
96.97146341
96.96845528
97.02219512
96.92296748
96.91495935
97.02780488
96.94052846
97.00158537
96.89207317
96.94955285
97.17052846
97.24154472
97.07727642
97.16268293
97.04552846
97.0554878
96.9345122
96.90414634
96.96101626
97.18146341
97.04325203
97.00654472
97.02195122
96.98752033
96.98971545
96.9954878
97.06569106
96.98658537
97.0648374
97.09569106
96.9497561
97.12752033
97.12085366
97.10581301
97.02085366
97.05211382
97.04378049
96.97735772
97.15390244
97.13528455
97.06609756
97.06760163
97.13487805
97.3053252
97.16195122
96.96252033
97.02154472
97.02333333
97.15581301
97.04365854
97.07735772
97.02284553
97.25085366
97.15650407
97.29256098
97.18012195
97.27158537
97.21556911
97.05247967
97.02845528
97.23162602
97.13670732
97.28630081
97.20150407
97.20666667
97.06804878
97.15727642
97.14434959
97.13963415
97.20902439
97.1054878
97.32520325
97.11695122
97.23857724
97.25796748
97.2295935
97.21630081
97.25902439
97.22569106
97.27678862
97.20780488
97.13800813
97.24028455
97.2547561
97.1495935
97.31060976
97.4849187
97.24963415
97.26634146
97.18463415
97.23780488
97.09357724
97.32569106
97.26601626
97.27813008
97.28186992
97.11800813
97.14686992
97.23703252
97.17105691
97.25723577
97.31325203
97.31093496
97.36638211
97.30154472
97.20406504
97.30113821
97.13012195
97.2000813
97.25260163
97.39357724
97.42556911
97.74898374
97.61109756
97.65126016
97.51052846
97.4151626
97.41430894
97.4496748
97.48890244
97.51373984
97.42439024
97.23223577
97.1998374
97.38845528
97.32134146
97.45650407
97.44800813
97.37146341
97.48317073
97.16162602
97.42247967
97.52378049
97.40784553
97.41060976
97.35686992
97.43707317
97.48947154
97.24430894
97.22914634
97.33130081
97.54650407
97.28760163
97.25060976
97.3047561
97.37869919
97.26439024
97.30357724
97.19199187
97.30402439
97.43756098
97.26044715
97.31650407
97.3403252
97.39203252
97.53317073
97.47613821
97.32715447
97.43280488
97.21252033
97.14841463
97.06621951
97.2302439
97.13589431
97.06101626
97.1904878
97.11235772
97.21512195
97.19170732
97.33642276
97.16788618
97.32723577
97.08711382
97.08654472
97.04434959
97.01569106
97.08345528
97.14662602
97.14203252
97.02743902
97.22837398
97.05252033
97.22764228
97.2602439
97.1454878
97.07028455
97.1149187
97.15378049
96.95971545
96.90227642
97.13756098
97.04337398
97.02829268
96.90504065
97.04605691
97.00808943
96.93276423
97.18943089
97.065
97.06727642
96.94081301
96.92430894
97.01455285
97.03443089
96.9547561
96.85215447
96.87280488
97.13313008
97.20573171
97.00792683
97.09715447
97.18800813
97.04654472
97.13239837
97.08613821
97.06654472
97.00995935
96.9951626
96.99589431
97.13544715
96.92333333
97.07841463
96.96642276
96.95373984
97.07934959
97.0804878
97.1898374
97.1349187
97.18146341
97.08256098
97.00073171
97.23044715
97.11378049
97.11922764
97.15219512
97.12825203
97.11520325
96.98406504
97.19337398
97.23060976
97.11804878
97.13756098
97.13361789
97.26227642
97.21605691
97.20898374
97.19349593
97.34743902
97.11621951
96.9902439
97.09662602
96.93886179
97.18361789
97.2099187
97.26085366
97.24995935
97.17739837
97.14682927
97.18292683
97.15918699
97.26699187
97.23760163
97.23642276
97.23934959
96.99227642
97.26845528
97.14044715
97.14430894
97.16495935
97.03890244
97.2449187
97.29117886
97.31825203
97.2004878
97.19918699
97.27337398
97.11337398
97.1052439
96.98069106
97.15873984
97.13235772
97.28869919
97.24800813
97.19857724
97.19821138
97.18918699
97.20662602
97.34365854
97.02333333
97.13109756
97.19406504
97.18796748
97.30166667
97.18065041
97.20898374
97.06272358
97.35638211
97.39504065
97.36906504
97.07455285
97.22585366
97.45780488
97.13402439
97.19195122
97.34768293
97.30296748
97.28634146
97.32752033
97.24691057
97.34581301
97.35849593
97.52556911
97.52097561
97.45735772
97.52504065
97.4254878
97.36264228
97.36056911
97.38808943
97.28369919
97.50349593
97.45012195
97.23658537
97.45321138
97.27378049
97.28365854
97.53373984
97.4649187
97.47065041
97.37333333
97.35723577
97.50422764
97.2847561
97.36772358
97.36447154
97.5095122
97.52386179
97.39227642
97.27276423
97.22894309
97.44772358
97.31162602
97.33313008
97.26227642
97.1503252
97.1251626
97.26028455
97.28020325
97.22902439
97.3104065
97.4397561
97.48170732
97.17837398
97.19552846
97.36203252
97.64382114
97.2704065
97.03699187
97.26902439
97.30382114
97.09304878
97.08756098
97.26930894
97.24601626
97.03703252
97.06780488
97.22365854
97.22682927
97.18898374
97.33784553
97.27995935
97.25845528
96.97654472
97.2352439
97.06569106
97.11215447
97.13995935
97.21898374
97.14512195
97.18369919
97.29686992
97.25699187
97.20260163
97.03349593
97.07699187
97.06605691
97.18247967
96.91772358
97.06760163
97.01772358
97.12296748
97.07186992
96.91788618
96.94666667
97.01365854
96.93723577
96.9151626
96.91995935
97.00430894
96.96556911
96.99020325
97.09760163
96.94422764
97.04227642
97.06231707
96.86276423
97.10930894
97.01292683
97.05662602
96.9254878
97.00060976
97.03800813
97.02691057
97.17658537
96.96573171
97.03402439
97.22418699
97.0695122
97.10252033
97.02686992
97.09012195
97.09243902
97.01455285
96.94638211
96.87723577
97.0952439
97.02479675
97.02276423
97.19292683
97.0104878
96.91349593
97.12349593
97.04085366
97.26939024
97.1799187
97.0603252
97.16581301
97.23882114
97.16569106
97.19369919
97.29646341
97.16130081
97.09585366
97.23020325
97.27686992
97.16678862
97.22971545
97.2603252
96.94495935
97.12077236
97.11670732
97.09630081
97.18556911
97.21134146
97.24630081
97.26276423
97.12764228
96.91971545
97.16865854
97.19686992
97.1998374
97.35943089
97.38243902
97.14544715
97.22894309
97.12695122
97.07268293
97.13886179
97.20963415
97.17373984
97.24658537
97.35869919
97.44219512
97.29601626
97.22382114
97.21219512
97.33182927
97.10276423
97.07109756
97.09780488
97.14654472
97.08719512
97.24825203
97.2447561
97.18288618
97.24552846
97.08971545
97.23117886
97.39121951
97.33439024
97.19073171
97.27199187
97.36065041
97.11674797
97.15276423
97.26349593
97.33199187
97.45792683
97.42365854
97.35195122
97.23455285
97.29337398
97.34447154
97.1752439
97.15231707
97.38780488
97.37922764
97.50288618
97.30097561
97.21865854
97.15308943
97.30833333
97.36390244
97.43947154
97.53239837
97.59317073
97.33544715
97.45910569
97.51593496
97.3098374
97.55853659
97.48947154
97.35723577
97.25930894
97.18479675
97.3203252
97.40235772
97.46577236
97.50130081
97.41601626
97.40235772
97.52869919
97.3251626
97.41361789
97.3852439
97.36886179
97.5004878
97.33191057
97.37231707
97.26979675
97.23536585
97.15796748
97.22410569
97.27097561
97.22028455
97.42373984
97.23028455
97.28654472
97.12158537
97.16256098
97.36410569
97.26191057
97.28402439
97.12077236
97.23711382
97.29796748
97.46060976
97.15373984
97.30536585
97.29772358
97.25853659
97.16918699
97.11219512
97.09369919
97.08004065
96.9702439
97.2553252
97.10284553
97.17105691
97.26296748
97.26333333
97.23804878
97.25398374
97.07373984
97.15117886
97.1148374
97.19650407
97.09280488
97.19747967
97.10004065
97.09772358
97.35093496
97.25837398
97.11052846
97.12386179
97.34772358
97.20731707
96.96601626
96.94288618
97.0204878
97.0298374
96.90971545
97.13666667
97.04422764
96.99833333
96.98495935
96.98036585
97.05674797
96.94589431
96.98585366
96.84300813
96.9804878
96.87260163
97.0204878
96.97630081
96.97882114
97.20434959
96.97439024
97.08926829
96.9902439
96.88971545
97.08077236
97.09162602
97.0747561
96.98313008
97.08902439
96.915
97.02333333
97.04117886
97.29292683
97.14902439
97.17191057
97.1845122
97.02052846
96.98223577
97.10077236
96.95097561
96.91235772
96.95150407
96.87577236
96.94162602
96.98463415
97.20174797
97.20747967
97.2597561
97.06353659
97.10617886
97.0896748
97.21398374
97.2299187
97.04373984
97.22882114
97.12613821
97.06678862
97.08313008
97.08804878
97.17394309
97.18105691
97.1401626
97.05784553
96.97012195
97.18150407
96.97300813
96.85215447
97.21682927
97.22776423
97.18020325
97.3048374
97.1199187
97.1052439
97.18845528
97.37995935
97.19304878
97.22873984
97.1497561
97.15772358
97.06004065
97.14776423
97.25386179
97.06869919
97.23691057
97.04898374
97.08638211
97.14804878
97.3951626
97.30707317
97.2848374
97.18325203
97.09199187
97.29719512
97.18654472
97.07861789
97.15097561
97.26004065
97.17739837
97.21756098
97.39642276
97.33739837
97.37670732
97.2445935
97.19073171
97.16093496
97.38154472
97.15313008
97.1545122
97.23829268
97.32873984
97.23825203
97.31357724
97.40394309
97.42512195
97.32512195
)
;

boundaryField
{
    bottom
    {
        type            calculated;
        value           nonuniform List<scalar> 
200
(
97.19674797
97.11906504
97.32121951
97.21833333
97.42373984
97.37963415
97.26670732
97.42422764
97.33292683
97.44678862
97.57203252
97.50300813
97.41756098
97.25239837
97.42317073
97.73589431
97.39955285
97.39849593
97.30321138
97.36028455
97.48804878
97.45288618
97.34439024
97.30861789
97.3246748
97.37337398
97.23898374
97.34678862
97.47349593
97.47028455
97.26817073
97.44256098
97.43666667
97.48402439
97.4454878
97.34247967
97.44565041
97.20097561
97.35284553
97.27857724
97.43422764
97.40028455
97.27443089
97.37784553
97.28788618
97.26520325
97.34154472
97.23487805
97.2699187
97.40853659
97.25093496
97.33329268
97.19134146
97.36252033
97.36939024
97.38178862
97.22247967
97.16691057
97.10857724
97.07130081
97.1402439
97.22455285
97.09134146
97.34203252
97.12227642
97.20138211
97.49329268
97.41593496
97.20186992
97.18727642
97.18528455
97.0897561
97.13231707
97.13703252
96.90565041
97.05203252
97.16292683
97.39252033
97.07434959
97.12052846
97.21719512
97.20073171
97.24569106
97.0445122
96.89865854
97.05463415
97.13134146
97.11621951
96.97504065
97.0203252
97.06182927
97.06361789
97.13056911
97.13593496
96.80841463
96.8753252
97.03044715
96.94934959
96.91081301
97.07219512
96.99682927
97.03890244
96.96142276
96.94105691
97.1797561
97.03146341
96.99382114
97.04
96.93101626
97.05166667
97.23979675
97.24223577
97.16536585
97.12382114
97.09597561
96.93365854
96.98073171
97.20593496
97.02126016
96.91650407
96.91410569
97.01284553
97.08093496
97.20678862
97.12841463
97.08764228
97.04573171
97.00260163
96.96886179
97.11121951
97.11686992
97.09211382
96.96069106
97.00174797
97.05926829
96.95853659
96.91731707
97.28686992
97.07121951
97.02398374
97.19138211
97.23121951
97.12910569
97.0948374
97.07101626
97.10829268
97.09211382
97.10325203
97.09182927
97.16556911
97.11845528
97.13670732
97.06849593
97.16711382
97.17869919
97.31719512
97.05
97.02613821
96.96398374
97.23191057
97.29682927
97.45004065
97.08813008
97.08361789
97.29735772
97.27329268
97.26808943
97.2449187
97.19979675
97.00178862
97.20463415
97.06873984
97.22747967
97.2649187
96.89386179
97.22138211
97.34634146
97.21695122
97.13471545
97.0199187
97.2545122
97.33792683
97.26430894
97.32585366
97.24593496
97.34138211
97.28577236
97.29605691
97.16121951
97.14191057
97.34272358
97.42898374
97.21203252
97.31849593
97.09638211
97.37357724
97.36447154
97.43719512
97.45402439
97.17105691
)
;
    }
    top
    {
        type            calculated;
        value           nonuniform List<scalar> 
200
(
97.34447154
97.1752439
97.15231707
97.38780488
97.37922764
97.50288618
97.30097561
97.21865854
97.15308943
97.30833333
97.36390244
97.43947154
97.53239837
97.59317073
97.33544715
97.45910569
97.51593496
97.3098374
97.55853659
97.48947154
97.35723577
97.25930894
97.18479675
97.3203252
97.40235772
97.46577236
97.50130081
97.41601626
97.40235772
97.52869919
97.3251626
97.41361789
97.3852439
97.36886179
97.5004878
97.33191057
97.37231707
97.26979675
97.23536585
97.15796748
97.22410569
97.27097561
97.22028455
97.42373984
97.23028455
97.28654472
97.12158537
97.16256098
97.36410569
97.26191057
97.28402439
97.12077236
97.23711382
97.29796748
97.46060976
97.15373984
97.30536585
97.29772358
97.25853659
97.16918699
97.11219512
97.09369919
97.08004065
96.9702439
97.2553252
97.10284553
97.17105691
97.26296748
97.26333333
97.23804878
97.25398374
97.07373984
97.15117886
97.1148374
97.19650407
97.09280488
97.19747967
97.10004065
97.09772358
97.35093496
97.25837398
97.11052846
97.12386179
97.34772358
97.20731707
96.96601626
96.94288618
97.0204878
97.0298374
96.90971545
97.13666667
97.04422764
96.99833333
96.98495935
96.98036585
97.05674797
96.94589431
96.98585366
96.84300813
96.9804878
96.87260163
97.0204878
96.97630081
96.97882114
97.20434959
96.97439024
97.08926829
96.9902439
96.88971545
97.08077236
97.09162602
97.0747561
96.98313008
97.08902439
96.915
97.02333333
97.04117886
97.29292683
97.14902439
97.17191057
97.1845122
97.02052846
96.98223577
97.10077236
96.95097561
96.91235772
96.95150407
96.87577236
96.94162602
96.98463415
97.20174797
97.20747967
97.2597561
97.06353659
97.10617886
97.0896748
97.21398374
97.2299187
97.04373984
97.22882114
97.12613821
97.06678862
97.08313008
97.08804878
97.17394309
97.18105691
97.1401626
97.05784553
96.97012195
97.18150407
96.97300813
96.85215447
97.21682927
97.22776423
97.18020325
97.3048374
97.1199187
97.1052439
97.18845528
97.37995935
97.19304878
97.22873984
97.1497561
97.15772358
97.06004065
97.14776423
97.25386179
97.06869919
97.23691057
97.04898374
97.08638211
97.14804878
97.3951626
97.30707317
97.2848374
97.18325203
97.09199187
97.29719512
97.18654472
97.07861789
97.15097561
97.26004065
97.17739837
97.21756098
97.39642276
97.33739837
97.37670732
97.2445935
97.19073171
97.16093496
97.38154472
97.15313008
97.1545122
97.23829268
97.32873984
97.23825203
97.31357724
97.40394309
97.42512195
97.32512195
)
;
    }
    inlet
    {
        type            cyclic;
    }
    outlet
    {
        type            cyclic;
    }
    back
    {
        type            symmetry;
    }
    front
    {
        type            symmetry;
    }
}


// ************************************************************************* //
