/*--------------------------------*- C++ -*----------------------------------*\
| =========                 |                                                 |
| \\      /  F ield         | OpenFOAM: The Open Source CFD Toolbox           |
|  \\    /   O peration     | Version:  v1706                                 |
|   \\  /    A nd           | Web:      www.OpenFOAM.com                      |
|    \\/     M anipulation  |                                                 |
\*---------------------------------------------------------------------------*/
FoamFile
{
    version     2.0;
    format      ascii;
    class       volScalarField;
    location    "0.3";
    object      Ma_Ar;
}
// * * * * * * * * * * * * * * * * * * * * * * * * * * * * * * * * * * * * * //

dimensions      [0 0 0 0 0 0 0];


internalField   nonuniform List<scalar> 
1000
(
0.00050215574
0.0004463557591
0.0006150582594
0.0006026663155
0.0008740590373
0.0006563142739
0.0005339626268
0.001184982208
0.0005740320353
0.001349041424
0.001539208269
0.001478049611
0.001646616759
0.0005674661501
0.0004824207369
0.0005528555832
0.0007072511476
0.001100560501
0.0005812608752
0.0004534598402
0.0007684973221
0.0008787718209
0.001322614518
0.0009322130603
0.0004212182269
0.000380999597
0.0003823816745
0.0005276772422
0.0004154564218
0.0006968827627
0.0008512129463
0.0005468509837
0.001503655869
0.001366763738
0.000745752113
0.001081320449
0.0008076970687
0.0005802137906
0.0002272408213
0.0003291664255
0.000483802767
0.000873668274
0.001159375596
0.0009962441244
0.0009832675466
0.001010786086
0.0005303158411
0.0003736506005
0.0003966872741
0.0006100406971
0.001021748517
0.0008337281517
0.0003390316693
0.001256941251
0.0007669178551
0.0006198019266
0.0006786264093
0.000282198171
0.0003684502338
0.0006166292966
0.001421731101
0.001390489107
0.0009453592896
0.0009640908484
0.0005848451664
0.0008515885956
0.001058540687
0.00141159352
0.000485434272
0.0005763097838
0.0005307891567
0.0003815259137
0.0006641077098
0.0007797537821
0.001592153613
0.001562447168
0.000885729903
0.000778397311
0.0002895791442
0.0005291736685
0.0003744328726
0.0002960163731
0.0007023360441
0.0005197391795
0.0005210414454
0.0008116767015
0.001282640788
0.0006580969289
0.0005938504444
0.0007722060701
0.0007840948585
0.001082094889
0.00056422368
0.0009993297234
0.00068957162
0.001508840025
0.00155439353
0.0005713613356
0.001135591177
0.0004842517311
0.000887600498
0.0004398870479
0.0005685443033
0.000872353418
0.0006584098409
0.0007733305293
0.001337700927
0.000914398939
0.0006204258097
0.000589118202
0.0008491425941
0.0007546514503
0.001267235293
0.0008312198703
0.001248050191
0.0005145254311
0.0002487266445
0.0004985575848
0.000618390267
0.0004905398021
0.0004533386386
0.0008903114934
0.001306474036
0.001066783572
0.0007482963734
0.0005396441296
0.0009020782365
0.001607356224
0.001216831678
0.001026276283
0.0006790450348
0.0007386645064
0.0007193095579
0.0009192521781
0.0001658561883
0.0004238402249
0.0005935899975
0.0006577141212
0.0007295334149
0.001225254632
0.0003675844112
0.0004183959897
0.0009447248011
0.0007186847077
0.0009290073762
0.0007531109544
0.0002556105886
5.204484843e-05
0.001354885769
0.000638762625
0.0006295929151
0.0004526698518
0.0006722093722
0.000950262751
0.0007127354622
0.0004794388057
0.0003455106211
0.0002654467575
0.001051843323
0.001164650621
0.0009574056435
0.0005354663948
0.001205833932
0.0008138793063
0.001254637385
0.0002774175495
0.0007708918184
0.0009750394721
0.0009007039947
0.0005026112076
0.0005770159771
0.000252854738
0.0006095562148
0.0009614917636
0.0005480057879
0.0007051490026
0.0007900686078
0.0004383929332
0.0008532960789
0.001525010732
0.001809736263
0.002055021998
0.001364953052
0.0009342829084
0.00121979951
0.001005428315
0.000775055494
0.0005927252972
0.0004870792335
0.0009625271151
0.0006903775296
0.0006333565806
0.0007993107956
0.0003744256467
0.0004466260824
0.0008428647918
0.001372815523
0.0008136029639
0.0005311379869
0.0006793599084
0.0006887649313
0.0006323381254
0.0009240445673
0.001123101057
0.0005838784687
0.0009443212662
0.0008316072469
0.0002867170349
0.0004691110826
0.001165306126
0.000619134482
0.001349088652
0.001154684822
0.001283222373
0.0008253032082
0.0008662612875
0.0006106444667
0.0007438538467
0.001134605548
0.0006017878052
0.0008289607288
0.001325266541
0.001330472547
0.0008376419347
0.0008862978127
0.001252518434
0.001267917801
0.0006657597074
0.001896692148
0.0006536181389
0.000633626612
0.0007029386084
0.0007516042367
0.001384925365
0.001031001715
0.0008666809765
0.0004988063855
0.001449496369
0.001215318215
0.0007926663517
0.0007186602731
0.0006404894315
0.0009259446774
0.0006598533754
0.0007823017296
0.0004829108761
0.001324167349
0.001191205946
0.0008523472706
0.0001614285804
0.001075423198
0.0008621326637
0.0009717854858
0.001415241476
0.0009732228129
0.001023962245
0.0009814760444
0.001046082354
0.0004747680386
0.001043634535
0.0006116538931
0.0007276871787
0.0006135444443
0.001257293834
0.0009527704477
0.0004877434759
0.0005079077595
0.0004498066525
0.0007671460599
0.001019251478
0.0007241134246
0.0008711777479
0.0005562889512
0.0006831273102
0.001729575956
0.000524443468
0.001262491058
0.0006146143721
0.001012663586
0.00098059525
0.0005348679826
0.0009977452188
0.0008634849831
0.0005030288135
0.0008447572792
0.001817505708
0.0003999067751
0.001472393528
0.0008026459795
0.0008911451076
0.001136045496
0.0005990574753
0.0005595060225
0.001250545629
0.0008312495273
0.0006107954088
0.001131284523
0.001225149663
0.001257041492
0.0009782729535
0.0006504479831
0.001247781643
0.001188902233
0.0006133440279
0.001093204854
0.0004883103811
0.0008293389921
0.0007202378352
0.0009318865019
0.001239548016
0.0004789499557
0.001313130658
0.0007889376486
0.0005347933647
0.0006784995892
0.0001692289226
0.001353302698
0.001013405255
0.0003691019281
0.001133180036
0.0006860167887
0.001020646222
0.0005781520203
0.0005274403445
0.0007761149413
0.0006291075633
0.0006610043227
0.0007309543189
0.001316948423
0.0008270010849
0.0004088862183
0.001007842235
0.001375627898
0.001048237222
0.0003675903835
0.000812045715
0.0006037168993
0.00128724204
0.001579433801
0.001450329229
0.0009721865508
0.001849376582
0.001846881529
0.0008668113606
0.0003481794152
0.001283072193
0.0007922641838
0.0005006902526
0.0007396653171
0.0006998330144
0.0008506842993
0.0008280573999
0.0009255373656
0.0002221317364
0.0005707989304
0.001084074317
8.90020174e-05
0.0008457275902
0.0005265638193
0.0004402648598
0.0005694225728
0.001150962222
0.0008589220921
0.0002509946922
0.000283047858
0.001641594009
0.001164175944
0.0007255609843
0.00129674567
0.001473362634
0.001377180773
0.0006478548933
0.001625555477
0.0005365761182
0.001299481445
0.0002674737933
0.0001791034348
0.0003134985427
0.0009983671952
0.001452208257
0.001023803883
0.001137082653
0.0005371735109
0.0005992114311
0.0005882186558
0.000898192674
0.0009807060978
0.0008865997029
0.0004518323556
0.001050202046
0.0007002143243
0.0008296104453
0.0003138520034
0.0008494916474
0.0005381622935
0.0005505818212
0.0007253119654
0.0007177970793
0.001674977425
0.0008558327216
0.0004965667616
0.0007783044635
0.001276350748
0.0008809808909
0.0006951379416
0.001318714925
0.001021959456
0.001223594711
0.001665364051
0.0003818669849
0.00138510784
0.0008013089083
0.001358313369
0.001127593427
0.0003513362115
0.0006308384386
0.0009142692509
0.0006974344303
0.0008235841793
0.0004826028602
0.0009610744397
0.000892239239
0.001079286553
0.001078312365
0.0009225193769
0.0008321490912
0.0002199804172
0.0003514448088
0.0003996122241
0.0005866520022
0.0007970890662
0.0007016124927
0.0006884329949
0.0006320684005
0.0009027497049
0.000869014882
0.001523791299
0.0016140675
0.001522960649
0.0008322198691
0.001120247394
0.0007764077017
0.001028162604
0.0004499651811
0.0008335526781
0.001089079537
0.001446953544
0.0008817674241
0.0004420365498
0.001332591556
0.0009751494459
0.0002959020543
0.0004310229105
0.000433432871
0.0008598160943
0.00107952968
0.001941319191
0.0009033586655
0.0008629383069
0.0005299945557
0.001195392612
0.0006148569671
0.0005276032934
0.0009467885208
0.0009585206679
0.001060621416
0.0006705448493
0.0005856192113
0.0009607265825
0.0004564300918
0.0004989401882
0.0005859221181
0.001175304446
0.0008530205826
0.0004508466678
0.001144369369
0.0009511300343
0.0008637541252
0.001290131696
0.001041642472
0.0009450687397
0.001062576665
0.0005033820098
0.0002711132117
0.001050567753
0.0005544814858
0.001155107207
0.00051859428
0.001741917618
0.0004523096693
0.0008269823545
0.0003901272683
0.0005660181391
0.00106227176
0.0006502882544
0.001147183072
0.001203929847
0.0002599227493
0.000755757719
0.0009349141019
0.001081412347
0.001201196616
0.001040996967
0.0007669112126
0.001415146932
0.001110314669
0.001729986859
0.001520645526
0.0004166628993
0.0008904215339
0.0008935837948
0.001347220849
0.0009154127431
0.0006887614929
0.0004913013333
0.001195091459
0.00140664885
0.0006074542325
0.0009669560758
0.0003121227326
0.000754314408
0.0007415561437
0.000210445418
0.0004868355537
0.0006032711252
0.001077449279
0.0006704730619
0.00109297809
0.0004233540732
0.0007431332091
0.0008136436712
0.0007505379048
0.0006682803544
0.0007371805859
0.0008269458392
0.0002814966504
0.0004249981781
0.0008865485387
0.0012640923
0.0009504784205
0.001104407749
0.0008437777052
0.001255737256
0.001426037932
0.001200677586
0.001026850184
0.0007016200604
0.001217232538
0.001099520344
0.001596020051
0.001693475604
0.002118202238
0.001402471239
0.0007384027001
0.0005618642833
0.001139779252
0.00134015348
0.0006416390286
0.0002779923073
0.0007678813984
0.0009326478424
0.001347066219
0.0004688221022
0.001361781137
0.001583637735
0.0009897610723
0.0005236708644
0.0003790167577
0.0004629391254
0.0006853076908
0.0003795201625
0.001353408407
0.0006414108567
0.001076301667
0.0005390921451
0.0006794535462
0.0002628884065
0.000993516781
0.0008957633706
0.000610299169
0.0009523320297
0.0009538507225
0.0007691629511
0.0006306657304
0.0007080418847
0.0002644747652
0.0002975371443
0.0002803373655
0.001035783284
0.0005504940392
0.0005868276819
0.0002854057452
0.0003858712597
0.0007730843435
0.0009598955341
0.0007755519614
0.0009711589857
0.0008190230569
0.001471629554
0.0008894515747
0.0006194074616
0.001323780889
0.001082805164
0.001255659366
0.001077280592
0.001133025351
0.0009396212712
0.0008871825367
0.0008462092738
0.001091079624
0.0005695657427
0.0003662984724
0.0009005857428
0.0009404122604
0.0005665593572
0.0006283218006
0.001013268857
0.001345901256
0.001013500123
0.0007435045736
0.001262752844
0.001406110852
0.001068567346
0.0008234386194
0.0003882856469
0.0004133184308
0.001108260161
0.0002998415804
0.001039289467
0.000440989287
0.00113990825
0.0001159470658
0.0009067947258
0.0004626171984
0.0003784102423
0.00153420572
0.0004282976756
0.000219269144
0.000881933874
0.001104111883
0.0004347567752
0.0004291364825
0.001302668015
0.0006954111499
0.0011086233
0.001172947338
0.0008123420305
0.0002763903371
0.0007038412755
0.0007199738162
0.0008112239284
0.0009457733198
0.000702620781
0.0004041495464
0.0008448178555
0.0006682645336
0.000913102445
0.0002120778642
0.001359853718
0.001112518589
0.0006129644328
0.0003547165407
0.0005358795071
0.0006534711008
0.001343163482
0.0008284093627
0.001115372797
0.0005994615264
0.001177222806
0.0009712230107
0.00102795113
0.0015773891
0.00084148826
0.0009970402013
0.001419661635
0.000541687718
0.0004235425493
0.0003231063007
0.000932099039
0.001313016071
0.0006311573433
0.0006712113948
0.0006918194176
0.001167220709
0.001498409047
0.001202112736
0.001183409071
0.0006952148049
0.0006354756205
0.001148861114
0.000952372853
0.001138924604
0.0006305048357
0.0006605591007
0.000493976471
0.0004981503803
0.0007791210755
0.0008994676991
0.001753286628
0.001919518128
0.001028743802
0.0006162298073
0.001061704359
0.0005263724372
0.001399798627
0.001215411368
0.001387490969
0.001954558002
0.001431902806
0.0007191115153
0.0007695941876
0.000351361798
0.0007343961233
0.0005948980253
0.0007558480115
0.0007803808447
0.001063568722
0.001048925775
0.0002980048643
0.001434901815
0.0006713627019
0.000604910893
0.0004188917087
0.0008989630936
0.0006283629073
0.0006568222703
0.0005537875825
0.0004933169429
0.0006536305205
0.0004735143641
0.0004960495801
0.0003566309368
0.0005178876403
0.001468567666
0.002077702865
0.001875252935
0.0005493934896
0.0009835148714
0.0008399120732
0.0009366019889
0.0007104582581
0.0008765933283
0.001291323511
0.001607276676
0.00155313684
0.001101694203
0.0002522206443
0.000446639365
0.000916657063
0.001198020115
0.001116686198
0.0006729451084
0.0006414490405
0.0005668738407
0.00121321733
0.0003451713569
0.001028139452
0.0006172949919
0.0007585570765
0.0004566837131
0.001499227279
0.0004358974609
0.0005125671043
0.0007074309982
0.001283716657
0.0008786474234
0.0009745345804
0.0003929011144
0.0006091978667
0.0006632103996
0.0005007382295
0.00103286925
0.001184803615
0.0004302406113
0.0005186670227
0.00019035451
0.00107229595
0.001718341805
0.0004967683318
0.001302424166
0.0006980538722
0.0007319315159
0.001410656006
0.0006588702849
0.0005257288276
0.0009767814954
0.0006147059063
0.0009229135229
0.0009663496228
0.0006510856627
0.0003145051946
0.0006402293306
0.0003556924771
0.0004636436194
0.001029711588
0.0009340923014
0.0005466712937
0.0005369149509
0.000630085928
0.0013415233
0.001457528411
0.001314903134
0.0005312141523
0.0003798803476
0.000816595036
0.0007825513392
0.001068028491
0.0006464168058
0.000821471225
0.0003299720155
0.000651958817
4.637319999e-05
0.0007765980078
0.001038435949
0.0005963834574
0.0007443180225
0.0002477899078
0.0003379950975
0.000804005913
0.000837997655
0.0007100137856
0.0005899781841
0.0007578361462
0.000744552432
0.0006474968998
0.0009247126501
0.0009167748341
0.0006659913275
0.0007866719429
0.001877199747
0.0004431105791
0.0005206211251
0.000485370218
0.0008407417989
0.0004997832186
0.0003500428898
0.000465261337
0.0008053441745
0.000662209379
0.001244595794
0.001534313897
0.001361802533
0.0007342409279
0.0009299987584
0.0008467110189
0.001183286498
0.001180020895
0.001610266486
0.0007711894017
0.0007452688114
0.0002883835889
0.0004780761342
0.0005094389472
0.0008441303842
0.000245545714
0.0004898643792
0.0005788686122
0.00077963848
0.0004868805713
0.0005737271512
0.000770203712
0.0004312765806
0.0003225426949
0.0004118312604
0.0007518026769
0.0005849348741
0.0007251404746
0.0006901025361
0.0006845882064
0.0007271820589
0.001750566738
0.001037837957
0.0005588684186
0.0004675940687
0.001217221831
0.001976847581
0.001517044442
0.001378808366
0.001221094103
0.0009718300537
0.001033545156
0.001096898337
0.00046617031
0.0007265185902
0.0009155323678
0.001162448591
0.0008704925019
0.0009567700345
0.0009264083255
0.000493431094
0.0006769960963
0.0003643659089
0.001125299452
0.001287890847
0.0008805356783
0.001005292087
0.001208935322
0.0004935699842
0.001054315521
0.0008833787045
0.000339132949
0.000279282939
0.0007481305118
0.0004838808133
0.0009322120738
0.001044731195
0.0005935644734
0.0008591638944
0.0007458582736
0.001341668939
0.001375164547
0.0009100432909
0.001087685994
0.001618101018
0.00060144959
0.001068679998
0.001779230827
0.001856060013
0.001606814298
0.0008652123054
0.0004309919955
0.0007402117914
0.0005733639507
0.0003881449738
0.0007816311113
0.001095710852
0.0007595107441
0.0002817866575
0.0008379237059
0.0003494222854
0.0007935826263
0.0006284812783
0.000658911821
0.0006988141007
0.001102575001
0.0004279244822
0.001197430842
0.001053073595
0.001325059437
0.001099577831
0.0008682289849
0.000332782039
0.0009169621935
0.001323514097
0.001588324899
0.0009321665628
0.0008926621362
0.0002492026584
0.001088174135
0.00123221873
0.00101800187
0.0005201318535
0.0007133225847
0.001464671728
0.0009749943223
0.000910238329
0.00184705366
0.001959898574
0.001614191431
0.0008687338972
0.0008581866698
0.0006305550646
0.0005262551659
0.0005482428639
0.001255262775
0.0003567066189
0.0008921671186
0.0004717321437
0.000422262358
0.0008667355519
0.0009064217091
0.0004803155969
0.0007760889667
0.001224764568
0.001787420296
0.001452155893
0.001178571319
0.0009033263754
0.0005787731661
0.0003789091756
0.0005104231593
0.0006625220875
0.0009136274055
0.0004648214277
0.0006424289862
0.000234512692
0.001079002145
0.0006319563013
0.0006802987329
0.001244901892
0.001335090618
0.001173817616
0.001253142569
0.0008264397256
0.0007634108614
0.0006257068539
7.850042937e-05
0.0008887191858
0.0002184071811
0.0007981536534
)
;

boundaryField
{
    bottom
    {
        type            calculated;
        value           nonuniform List<scalar> 
200
(
0.00050215574
0.0004463557591
0.0006150582594
0.0006026663155
0.0008740590373
0.0006563142739
0.0005339626268
0.001184982208
0.0005740320353
0.001349041424
0.001539208269
0.001478049611
0.001646616759
0.0005674661501
0.0004824207369
0.0005528555832
0.0007072511476
0.001100560501
0.0005812608752
0.0004534598402
0.0007684973221
0.0008787718209
0.001322614518
0.0009322130603
0.0004212182269
0.000380999597
0.0003823816745
0.0005276772422
0.0004154564218
0.0006968827627
0.0008512129463
0.0005468509837
0.001503655869
0.001366763738
0.000745752113
0.001081320449
0.0008076970687
0.0005802137906
0.0002272408213
0.0003291664255
0.000483802767
0.000873668274
0.001159375596
0.0009962441244
0.0009832675466
0.001010786086
0.0005303158411
0.0003736506005
0.0003966872741
0.0006100406971
0.001021748517
0.0008337281517
0.0003390316693
0.001256941251
0.0007669178551
0.0006198019266
0.0006786264093
0.000282198171
0.0003684502338
0.0006166292966
0.001421731101
0.001390489107
0.0009453592896
0.0009640908484
0.0005848451664
0.0008515885956
0.001058540687
0.00141159352
0.000485434272
0.0005763097838
0.0005307891567
0.0003815259137
0.0006641077098
0.0007797537821
0.001592153613
0.001562447168
0.000885729903
0.000778397311
0.0002895791442
0.0005291736685
0.0003744328726
0.0002960163731
0.0007023360441
0.0005197391795
0.0005210414454
0.0008116767015
0.001282640788
0.0006580969289
0.0005938504444
0.0007722060701
0.0007840948585
0.001082094889
0.00056422368
0.0009993297234
0.00068957162
0.001508840025
0.00155439353
0.0005713613356
0.001135591177
0.0004842517311
0.000887600498
0.0004398870479
0.0005685443033
0.000872353418
0.0006584098409
0.0007733305293
0.001337700927
0.000914398939
0.0006204258097
0.000589118202
0.0008491425941
0.0007546514503
0.001267235293
0.0008312198703
0.001248050191
0.0005145254311
0.0002487266445
0.0004985575848
0.000618390267
0.0004905398021
0.0004533386386
0.0008903114934
0.001306474036
0.001066783572
0.0007482963734
0.0005396441296
0.0009020782365
0.001607356224
0.001216831678
0.001026276283
0.0006790450348
0.0007386645064
0.0007193095579
0.0009192521781
0.0001658561883
0.0004238402249
0.0005935899975
0.0006577141212
0.0007295334149
0.001225254632
0.0003675844112
0.0004183959897
0.0009447248011
0.0007186847077
0.0009290073762
0.0007531109544
0.0002556105886
5.204484843e-05
0.001354885769
0.000638762625
0.0006295929151
0.0004526698518
0.0006722093722
0.000950262751
0.0007127354622
0.0004794388057
0.0003455106211
0.0002654467575
0.001051843323
0.001164650621
0.0009574056435
0.0005354663948
0.001205833932
0.0008138793063
0.001254637385
0.0002774175495
0.0007708918184
0.0009750394721
0.0009007039947
0.0005026112076
0.0005770159771
0.000252854738
0.0006095562148
0.0009614917636
0.0005480057879
0.0007051490026
0.0007900686078
0.0004383929332
0.0008532960789
0.001525010732
0.001809736263
0.002055021998
0.001364953052
0.0009342829084
0.00121979951
0.001005428315
0.000775055494
0.0005927252972
0.0004870792335
0.0009625271151
0.0006903775296
0.0006333565806
0.0007993107956
0.0003744256467
0.0004466260824
0.0008428647918
0.001372815523
0.0008136029639
0.0005311379869
0.0006793599084
)
;
    }
    top
    {
        type            calculated;
        value           nonuniform List<scalar> 
200
(
0.001457528411
0.001314903134
0.0005312141523
0.0003798803476
0.000816595036
0.0007825513392
0.001068028491
0.0006464168058
0.000821471225
0.0003299720155
0.000651958817
4.637319999e-05
0.0007765980078
0.001038435949
0.0005963834574
0.0007443180225
0.0002477899078
0.0003379950975
0.000804005913
0.000837997655
0.0007100137856
0.0005899781841
0.0007578361462
0.000744552432
0.0006474968998
0.0009247126501
0.0009167748341
0.0006659913275
0.0007866719429
0.001877199747
0.0004431105791
0.0005206211251
0.000485370218
0.0008407417989
0.0004997832186
0.0003500428898
0.000465261337
0.0008053441745
0.000662209379
0.001244595794
0.001534313897
0.001361802533
0.0007342409279
0.0009299987584
0.0008467110189
0.001183286498
0.001180020895
0.001610266486
0.0007711894017
0.0007452688114
0.0002883835889
0.0004780761342
0.0005094389472
0.0008441303842
0.000245545714
0.0004898643792
0.0005788686122
0.00077963848
0.0004868805713
0.0005737271512
0.000770203712
0.0004312765806
0.0003225426949
0.0004118312604
0.0007518026769
0.0005849348741
0.0007251404746
0.0006901025361
0.0006845882064
0.0007271820589
0.001750566738
0.001037837957
0.0005588684186
0.0004675940687
0.001217221831
0.001976847581
0.001517044442
0.001378808366
0.001221094103
0.0009718300537
0.001033545156
0.001096898337
0.00046617031
0.0007265185902
0.0009155323678
0.001162448591
0.0008704925019
0.0009567700345
0.0009264083255
0.000493431094
0.0006769960963
0.0003643659089
0.001125299452
0.001287890847
0.0008805356783
0.001005292087
0.001208935322
0.0004935699842
0.001054315521
0.0008833787045
0.000339132949
0.000279282939
0.0007481305118
0.0004838808133
0.0009322120738
0.001044731195
0.0005935644734
0.0008591638944
0.0007458582736
0.001341668939
0.001375164547
0.0009100432909
0.001087685994
0.001618101018
0.00060144959
0.001068679998
0.001779230827
0.001856060013
0.001606814298
0.0008652123054
0.0004309919955
0.0007402117914
0.0005733639507
0.0003881449738
0.0007816311113
0.001095710852
0.0007595107441
0.0002817866575
0.0008379237059
0.0003494222854
0.0007935826263
0.0006284812783
0.000658911821
0.0006988141007
0.001102575001
0.0004279244822
0.001197430842
0.001053073595
0.001325059437
0.001099577831
0.0008682289849
0.000332782039
0.0009169621935
0.001323514097
0.001588324899
0.0009321665628
0.0008926621362
0.0002492026584
0.001088174135
0.00123221873
0.00101800187
0.0005201318535
0.0007133225847
0.001464671728
0.0009749943223
0.000910238329
0.00184705366
0.001959898574
0.001614191431
0.0008687338972
0.0008581866698
0.0006305550646
0.0005262551659
0.0005482428639
0.001255262775
0.0003567066189
0.0008921671186
0.0004717321437
0.000422262358
0.0008667355519
0.0009064217091
0.0004803155969
0.0007760889667
0.001224764568
0.001787420296
0.001452155893
0.001178571319
0.0009033263754
0.0005787731661
0.0003789091756
0.0005104231593
0.0006625220875
0.0009136274055
0.0004648214277
0.0006424289862
0.000234512692
0.001079002145
0.0006319563013
0.0006802987329
0.001244901892
0.001335090618
0.001173817616
0.001253142569
0.0008264397256
0.0007634108614
0.0006257068539
7.850042937e-05
0.0008887191858
0.0002184071811
0.0007981536534
)
;
    }
    inlet
    {
        type            cyclic;
    }
    outlet
    {
        type            cyclic;
    }
    back
    {
        type            symmetry;
    }
    front
    {
        type            symmetry;
    }
}


// ************************************************************************* //
