/*--------------------------------*- C++ -*----------------------------------*\
| =========                 |                                                 |
| \\      /  F ield         | OpenFOAM: The Open Source CFD Toolbox           |
|  \\    /   O peration     | Version:  v1706                                 |
|   \\  /    A nd           | Web:      www.OpenFOAM.com                      |
|    \\/     M anipulation  |                                                 |
\*---------------------------------------------------------------------------*/
FoamFile
{
    version     2.0;
    format      ascii;
    class       volScalarField;
    location    "0.3";
    object      mctTimeStepRatio_Ar;
}
// * * * * * * * * * * * * * * * * * * * * * * * * * * * * * * * * * * * * * //

dimensions      [0 0 0 0 0 0 0];


internalField   nonuniform List<scalar> 
1000
(
2.502785838
2.504582572
2.499597457
2.501666633
2.49688452
2.497529505
2.500796818
2.496892029
2.499608285
2.497091655
2.493605804
2.495208878
2.496940726
2.501177258
2.497597546
2.49001319
2.496995618
2.497540901
2.500056899
2.498820312
2.495521811
2.496527511
2.499195137
2.500159284
2.499774314
2.499080727
2.501775272
2.498648607
2.49560282
2.496440978
2.50096123
2.496515693
2.49701128
2.495765847
2.497358653
2.4990927
2.496310023
2.502528517
2.498799048
2.500532022
2.496997164
2.497288595
2.500341486
2.498070436
2.500425927
2.500035782
2.498339182
2.501166804
2.500360711
2.497413419
2.501640587
2.499384735
2.502256653
2.498588951
2.498193706
2.498105589
2.501575437
2.502735786
2.504399008
2.505390807
2.5035098
2.501946742
2.505075335
2.498691419
2.503544497
2.501378683
2.495051763
2.497282874
2.502304865
2.502732124
2.502406659
2.504647094
2.503496039
2.503423557
2.509100561
2.505726899
2.50268477
2.497347966
2.504590089
2.503542908
2.501276966
2.501547995
2.500685472
2.505759036
2.50899689
2.50514271
2.503020118
2.502657747
2.506786448
2.506204848
2.504938821
2.504777305
2.502313025
2.502227771
2.510428015
2.509166025
2.504816406
2.507129138
2.508810833
2.504963058
2.50647519
2.504638721
2.506920916
2.508424957
2.502324631
2.505466449
2.506664198
2.505467646
2.507943285
2.505271575
2.500282529
2.500536622
2.502161943
2.502503146
2.503960121
2.507988843
2.506370561
2.501230783
2.5053382
2.507711668
2.508006163
2.50508736
2.503387623
2.500619375
2.502640643
2.503885998
2.505102752
2.505936216
2.506954893
2.503532799
2.503931229
2.504669185
2.507261446
2.506162427
2.504699301
2.507536379
2.508655148
2.499651882
2.50467752
2.506029109
2.501174432
2.500723815
2.503289425
2.50330958
2.504909018
2.503857154
2.503541578
2.502915424
2.503587581
2.502614464
2.504110723
2.502951592
2.504911549
2.502207774
2.501539905
2.498997241
2.505415594
2.505679387
2.50737813
2.500581648
2.499905156
2.49559058
2.504047139
2.504499166
2.499587122
2.499611161
2.500048702
2.500412402
2.502338263
2.506623878
2.502138338
2.504764733
2.502218371
2.501031222
2.509594802
2.501810032
2.499318672
2.501768221
2.502908424
2.506201701
2.50065352
2.498884491
2.500381771
2.49907891
2.501287102
2.49856104
2.500400713
2.499648255
2.502636557
2.503468466
2.498529906
2.495761368
2.501002672
2.499042004
2.504981631
2.498357509
2.499205318
2.497073018
2.495898298
2.502912627
2.496165539
2.500206114
2.500243325
2.498892871
2.496583781
2.498675649
2.500818863
2.497715867
2.496944908
2.497475855
2.495871118
2.495295393
2.494382874
2.503784703
2.496775086
2.498533893
2.49828044
2.497929774
2.494376868
2.493857556
2.499343465
2.503996517
2.498866342
2.501723418
2.501499921
2.504179961
2.495792776
2.496334919
2.494390855
2.495162143
2.496319162
2.491750721
2.49558072
2.493891645
2.499827129
2.498978972
2.497847875
2.500325044
2.503113372
2.49938457
2.498571616
2.497207175
2.497738994
2.498351316
2.501336411
2.501617882
2.501045686
2.500349629
2.499945211
2.502621436
2.500523872
2.497320936
2.497128421
2.498415257
2.500743554
2.497131213
2.499272508
2.501801801
2.50575675
2.504784715
2.5081439
2.50552924
2.505537709
2.501677079
2.499541882
2.505326147
2.500504139
2.49990544
2.502334632
2.505021512
2.506144504
2.503033971
2.503045979
2.50358123
2.502544876
2.501476802
2.501957035
2.501591613
2.502710911
2.502448284
2.501072453
2.502772265
2.502340542
2.505210694
2.507838536
2.506859555
2.505506697
2.505083361
2.503464749
2.504126675
2.504646889
2.504369454
2.503036497
2.509006087
2.506268702
2.504849336
2.505799722
2.506414582
2.50741703
2.506888396
2.505377683
2.507684071
2.508204784
2.505559764
2.50769353
2.505808642
2.509403737
2.50774329
2.502550143
2.500701621
2.504637801
2.502098098
2.505320367
2.504611321
2.50795275
2.508284348
2.507108204
2.501292063
2.504988634
2.505155337
2.50553818
2.506678309
2.506131559
2.505743069
2.504406272
2.506214936
2.504704931
2.503547861
2.507650003
2.503381245
2.503350237
2.503782015
2.505918256
2.504779878
2.504866052
2.505901488
2.502496801
2.502436099
2.504408317
2.504243369
2.502696501
2.499285261
2.502497526
2.507010429
2.505284153
2.505848881
2.50225244
2.505177635
2.504332488
2.505881278
2.500162123
2.50282633
2.499563741
2.50187941
2.49977713
2.501159279
2.505745021
2.505939349
2.500604778
2.503117319
2.499359521
2.502076839
2.501494227
2.504797049
2.502608249
2.503236142
2.502861504
2.501329875
2.504309545
2.499112576
2.504089782
2.501130422
2.500682617
2.50141521
2.501591285
2.50063942
2.500988421
2.500298197
2.501703428
2.50357242
2.500398957
2.500617186
2.50390234
2.498881258
2.495063496
2.501394364
2.500437888
2.502483266
2.500478859
2.503913113
2.498801594
2.500142055
2.499582817
2.499302458
2.503745068
2.503580324
2.501889953
2.502475636
2.501076504
2.499747567
2.499791529
2.497920845
2.499798809
2.502132387
2.499267836
2.503911826
2.501878837
2.500720966
2.497653551
2.497786297
2.489968333
2.492468501
2.491945739
2.495283181
2.497901364
2.496980081
2.496800296
2.495219126
2.495193184
2.497807095
2.501326593
2.502116555
2.497812436
2.499751116
2.496593582
2.496577289
2.498090043
2.49536492
2.503442063
2.497379631
2.495330806
2.497494294
2.497613351
2.498522185
2.49737243
2.494935112
2.501170005
2.50177504
2.499453842
2.493866186
2.499938591
2.5013316
2.499870612
2.497482708
2.500587859
2.499353265
2.502187212
2.499624277
2.496489201
2.500859712
2.499189965
2.498831542
2.497542421
2.494098124
2.495411194
2.498864847
2.496446992
2.502092732
2.503406514
2.505223488
2.500505871
2.503452668
2.505035907
2.502157459
2.503597248
2.501337447
2.502137837
2.499476261
2.503141414
2.499084014
2.505165566
2.505009834
2.50580845
2.506516696
2.504365924
2.502637879
2.502796563
2.50563381
2.500729772
2.505426708
2.501111599
2.500457346
2.503167591
2.505474238
2.504119509
2.50249701
2.507450082
2.508109008
2.502954388
2.505242206
2.505642324
2.509068431
2.505426871
2.505779274
2.507877769
2.501514299
2.504547113
2.50441892
2.507333164
2.508153955
2.505467592
2.505053514
2.507620849
2.509758283
2.50925999
2.502446285
2.501361457
2.505427648
2.50381524
2.501652794
2.505783041
2.502323351
2.504680697
2.504501377
2.506068656
2.505893119
2.506146461
2.503000124
2.507899135
2.504098429
2.5071526
2.507357441
2.504342271
2.504340508
2.501668859
2.502568943
2.50143774
2.503981547
2.505814453
2.50006705
2.503308721
2.503208056
2.502755771
2.502831775
2.503358102
2.50667123
2.501743119
2.500946092
2.503303314
2.502373638
2.502307661
2.499747997
2.501203996
2.501108511
2.501735889
2.498284867
2.50374485
2.506758274
2.50413894
2.507974816
2.50173135
2.501707768
2.499472161
2.500602525
2.501805336
2.50303332
2.502498751
2.503135923
2.500245208
2.500824189
2.501086276
2.50050509
2.506842514
2.499533551
2.502913309
2.502766483
2.502604615
2.50552285
2.501151694
2.499983152
2.499540924
2.50225916
2.501590818
2.500154295
2.504243301
2.504369055
2.507334035
2.50259053
2.503930637
2.500138677
2.50129904
2.501287838
2.501925945
2.50201262
2.501899897
2.498168929
2.50634649
2.503404603
2.501578636
2.502123922
2.499866023
2.502400877
2.501518174
2.50535292
2.498616138
2.497247072
2.498006466
2.504647446
2.501304632
2.495980235
2.504090992
2.502825504
2.49880943
2.499404571
2.499270047
2.498879517
2.501072445
2.498436428
2.498850394
2.494612139
2.49415847
2.496622387
2.495605848
2.497576075
2.498825227
2.498806159
2.497606269
2.500975875
2.494900799
2.495992982
2.501260783
2.49548844
2.500520601
2.500241571
2.494449274
2.496288377
2.496053631
2.497919785
2.498453078
2.495281517
2.500608066
2.498627795
2.498819951
2.495581257
2.494942444
2.498356167
2.500615783
2.501249934
2.496143109
2.499840676
2.499194728
2.500599227
2.503176624
2.504208998
2.500509258
2.499904808
2.501798889
2.499232101
2.496897811
2.495159127
2.502610867
2.502046527
2.498286945
2.490906724
2.500880926
2.506097253
2.500168535
2.499624114
2.504500167
2.504920387
2.500576964
2.500769707
2.505523702
2.504951459
2.50067151
2.501429033
2.502156461
2.49897218
2.50076694
2.5007476
2.508104462
2.501367899
2.505118042
2.503791102
2.502634819
2.501450321
2.503655633
2.501727039
2.499017884
2.500317204
2.501718832
2.506185198
2.505287815
2.505110053
2.501602152
2.508506005
2.504818558
2.506186351
2.503561365
2.50476092
2.507903197
2.507775241
2.505620764
2.507676968
2.50809394
2.508182659
2.506021906
2.507201705
2.506846099
2.504195522
2.508039927
2.505415411
2.504375038
2.509109838
2.503470022
2.505243561
2.504737106
2.507487428
2.505901016
2.505260949
2.505266659
2.5024095
2.507679485
2.505462022
2.500343208
2.504380025
2.503326001
2.505814453
2.504075867
2.5044917
2.506627201
2.507689728
2.50875402
2.503938239
2.50559359
2.505938203
2.501283544
2.505601853
2.508039637
2.503296387
2.505305311
2.500011798
2.5012547
2.504411055
2.502519268
2.500208297
2.50230984
2.501286251
2.499407101
2.5024602
2.503949689
2.500818807
2.499996336
2.50244029
2.501013011
2.500000558
2.50764332
2.503839022
2.503185781
2.504642257
2.501682129
2.50136258
2.500151912
2.500202065
2.502715406
2.507848173
2.501665008
2.501536447
2.501335591
2.498223153
2.497435376
2.50304144
2.500738705
2.502571933
2.504317554
2.503952349
2.50129773
2.502717741
2.501529169
2.498633717
2.496253404
2.500034045
2.501994628
2.501937122
2.498934595
2.504781563
2.504714121
2.504406043
2.504153165
2.504987557
2.501565464
2.500903952
2.502316651
2.501254805
2.505353631
2.500600595
2.497536562
2.498888227
2.502448233
2.499845262
2.49812505
2.504451157
2.503330541
2.500751708
2.49908686
2.495886337
2.496982806
2.498308864
2.501317232
2.499605859
2.498208871
2.503415617
2.503529357
2.49770579
2.498382155
2.495138169
2.499868722
2.502090668
2.503056399
2.499282357
2.498775929
2.497207265
2.495206839
2.493417758
2.499510207
2.496753025
2.495118017
2.499638639
2.494198116
2.49585039
2.498197964
2.500762941
2.502766246
2.499890698
2.497278487
2.496178254
2.495589875
2.49718382
2.497350356
2.49467305
2.49945287
2.496793855
2.498537863
2.498827528
2.495819447
2.499166858
2.498495388
2.500996138
2.501775023
2.50352931
2.502509805
2.500912024
2.501707234
2.496427698
2.501045676
2.500145251
2.503955759
2.50352047
2.49782378
2.50117891
2.50020215
2.504473029
2.501440749
2.499895606
2.496065483
2.503297134
2.499881787
2.499911054
2.500934487
2.503252418
2.50433102
2.504354386
2.504221185
2.507229273
2.500788384
2.504337145
2.503146998
2.500869603
2.500347274
2.500951506
2.500501667
2.504632827
2.50290821
2.504056953
2.501909467
2.50418698
2.501495969
2.504331755
2.504168706
2.49845801
2.501125861
2.504636083
2.503933294
2.498418301
2.501637321
2.506919241
2.507740713
2.505754922
2.505398715
2.508354299
2.5025749
2.505437273
2.505870414
2.506142506
2.506669908
2.505061875
2.507327025
2.50657502
2.510278649
2.506778073
2.509494675
2.505971095
2.506437755
2.506750529
2.500991972
2.507068325
2.504230134
2.505964595
2.508931692
2.503668753
2.503939265
2.504069684
2.506771337
2.504216023
2.508221557
2.505357305
2.505002328
2.498504789
2.502111534
2.501293622
2.501336436
2.505392517
2.506957484
2.504142195
2.507286521
2.508232387
2.506861337
2.509632279
2.50735522
2.506434578
2.501547454
2.500453327
2.50052373
2.505352249
2.504032798
2.503995445
2.500623414
2.500728096
2.505502759
2.50105624
2.503630678
2.504425088
2.504754538
2.504154109
2.502141932
2.502103561
2.503431027
2.505322388
2.507501556
2.502907593
2.5066933
2.509362424
2.50041071
2.500506891
2.502200278
2.498480144
2.502850777
2.503896586
2.501786231
2.497086621
2.502103075
2.501242276
2.503357514
2.502642292
2.504518303
2.503018046
2.500741583
2.505497287
2.501739181
2.506072191
2.504949856
2.503673594
2.497700298
2.500247757
2.500056631
2.502453388
2.503827162
2.499462978
2.50226207
2.50505933
2.503309325
2.500139977
2.503098249
2.501812926
2.497200543
2.49913794
2.497930436
2.500998567
2.50175921
2.5028338
2.498000869
2.503875211
2.503444797
2.501395833
2.498773573
2.501082809
2.499387914
2.497612356
2.497304369
2.499220735
)
;

boundaryField
{
    bottom
    {
        type            calculated;
        value           nonuniform List<scalar> 
200
(
2.502785838
2.504582572
2.499597457
2.501666633
2.49688452
2.497529505
2.500796818
2.496892029
2.499608285
2.497091655
2.493605804
2.495208878
2.496940726
2.501177258
2.497597546
2.49001319
2.496995618
2.497540901
2.500056899
2.498820312
2.495521811
2.496527511
2.499195137
2.500159284
2.499774314
2.499080727
2.501775272
2.498648607
2.49560282
2.496440978
2.50096123
2.496515693
2.49701128
2.495765847
2.497358653
2.4990927
2.496310023
2.502528517
2.498799048
2.500532022
2.496997164
2.497288595
2.500341486
2.498070436
2.500425927
2.500035782
2.498339182
2.501166804
2.500360711
2.497413419
2.501640587
2.499384735
2.502256653
2.498588951
2.498193706
2.498105589
2.501575437
2.502735786
2.504399008
2.505390807
2.5035098
2.501946742
2.505075335
2.498691419
2.503544497
2.501378683
2.495051763
2.497282874
2.502304865
2.502732124
2.502406659
2.504647094
2.503496039
2.503423557
2.509100561
2.505726899
2.50268477
2.497347966
2.504590089
2.503542908
2.501276966
2.501547995
2.500685472
2.505759036
2.50899689
2.50514271
2.503020118
2.502657747
2.506786448
2.506204848
2.504938821
2.504777305
2.502313025
2.502227771
2.510428015
2.509166025
2.504816406
2.507129138
2.508810833
2.504963058
2.50647519
2.504638721
2.506920916
2.508424957
2.502324631
2.505466449
2.506664198
2.505467646
2.507943285
2.505271575
2.500282529
2.500536622
2.502161943
2.502503146
2.503960121
2.507988843
2.506370561
2.501230783
2.5053382
2.507711668
2.508006163
2.50508736
2.503387623
2.500619375
2.502640643
2.503885998
2.505102752
2.505936216
2.506954893
2.503532799
2.503931229
2.504669185
2.507261446
2.506162427
2.504699301
2.507536379
2.508655148
2.499651882
2.50467752
2.506029109
2.501174432
2.500723815
2.503289425
2.50330958
2.504909018
2.503857154
2.503541578
2.502915424
2.503587581
2.502614464
2.504110723
2.502951592
2.504911549
2.502207774
2.501539905
2.498997241
2.505415594
2.505679387
2.50737813
2.500581648
2.499905156
2.49559058
2.504047139
2.504499166
2.499587122
2.499611161
2.500048702
2.500412402
2.502338263
2.506623878
2.502138338
2.504764733
2.502218371
2.501031222
2.509594802
2.501810032
2.499318672
2.501768221
2.502908424
2.506201701
2.50065352
2.498884491
2.500381771
2.49907891
2.501287102
2.49856104
2.500400713
2.499648255
2.502636557
2.503468466
2.498529906
2.495761368
2.501002672
2.499042004
2.504981631
2.498357509
2.499205318
2.497073018
2.495898298
2.502912627
)
;
    }
    top
    {
        type            calculated;
        value           nonuniform List<scalar> 
200
(
2.498208871
2.503415617
2.503529357
2.49770579
2.498382155
2.495138169
2.499868722
2.502090668
2.503056399
2.499282357
2.498775929
2.497207265
2.495206839
2.493417758
2.499510207
2.496753025
2.495118017
2.499638639
2.494198116
2.49585039
2.498197964
2.500762941
2.502766246
2.499890698
2.497278487
2.496178254
2.495589875
2.49718382
2.497350356
2.49467305
2.49945287
2.496793855
2.498537863
2.498827528
2.495819447
2.499166858
2.498495388
2.500996138
2.501775023
2.50352931
2.502509805
2.500912024
2.501707234
2.496427698
2.501045676
2.500145251
2.503955759
2.50352047
2.49782378
2.50117891
2.50020215
2.504473029
2.501440749
2.499895606
2.496065483
2.503297134
2.499881787
2.499911054
2.500934487
2.503252418
2.50433102
2.504354386
2.504221185
2.507229273
2.500788384
2.504337145
2.503146998
2.500869603
2.500347274
2.500951506
2.500501667
2.504632827
2.50290821
2.504056953
2.501909467
2.50418698
2.501495969
2.504331755
2.504168706
2.49845801
2.501125861
2.504636083
2.503933294
2.498418301
2.501637321
2.506919241
2.507740713
2.505754922
2.505398715
2.508354299
2.5025749
2.505437273
2.505870414
2.506142506
2.506669908
2.505061875
2.507327025
2.50657502
2.510278649
2.506778073
2.509494675
2.505971095
2.506437755
2.506750529
2.500991972
2.507068325
2.504230134
2.505964595
2.508931692
2.503668753
2.503939265
2.504069684
2.506771337
2.504216023
2.508221557
2.505357305
2.505002328
2.498504789
2.502111534
2.501293622
2.501336436
2.505392517
2.506957484
2.504142195
2.507286521
2.508232387
2.506861337
2.509632279
2.50735522
2.506434578
2.501547454
2.500453327
2.50052373
2.505352249
2.504032798
2.503995445
2.500623414
2.500728096
2.505502759
2.50105624
2.503630678
2.504425088
2.504754538
2.504154109
2.502141932
2.502103561
2.503431027
2.505322388
2.507501556
2.502907593
2.5066933
2.509362424
2.50041071
2.500506891
2.502200278
2.498480144
2.502850777
2.503896586
2.501786231
2.497086621
2.502103075
2.501242276
2.503357514
2.502642292
2.504518303
2.503018046
2.500741583
2.505497287
2.501739181
2.506072191
2.504949856
2.503673594
2.497700298
2.500247757
2.500056631
2.502453388
2.503827162
2.499462978
2.50226207
2.50505933
2.503309325
2.500139977
2.503098249
2.501812926
2.497200543
2.49913794
2.497930436
2.500998567
2.50175921
2.5028338
2.498000869
2.503875211
2.503444797
2.501395833
2.498773573
2.501082809
2.499387914
2.497612356
2.497304369
2.499220735
)
;
    }
    inlet
    {
        type            cyclic;
    }
    outlet
    {
        type            cyclic;
    }
    back
    {
        type            symmetry;
    }
    front
    {
        type            symmetry;
    }
}


// ************************************************************************* //
