/*--------------------------------*- C++ -*----------------------------------*\
| =========                 |                                                 |
| \\      /  F ield         | OpenFOAM: The Open Source CFD Toolbox           |
|  \\    /   O peration     | Version:  v1706                                 |
|   \\  /    A nd           | Web:      www.OpenFOAM.com                      |
|    \\/     M anipulation  |                                                 |
\*---------------------------------------------------------------------------*/
FoamFile
{
    version     2.0;
    format      ascii;
    class       volScalarField;
    location    "0.3";
    object      meanCollisionTime_Ar;
}
// * * * * * * * * * * * * * * * * * * * * * * * * * * * * * * * * * * * * * //

dimensions      [0 0 1 0 0 0 0];


internalField   nonuniform List<scalar> 
1000
(
2.502785838e-05
2.504582572e-05
2.499597457e-05
2.501666633e-05
2.49688452e-05
2.497529505e-05
2.500796818e-05
2.496892029e-05
2.499608285e-05
2.497091655e-05
2.493605804e-05
2.495208878e-05
2.496940726e-05
2.501177258e-05
2.497597546e-05
2.49001319e-05
2.496995618e-05
2.497540901e-05
2.500056899e-05
2.498820312e-05
2.495521811e-05
2.496527511e-05
2.499195137e-05
2.500159284e-05
2.499774314e-05
2.499080727e-05
2.501775272e-05
2.498648607e-05
2.49560282e-05
2.496440978e-05
2.50096123e-05
2.496515693e-05
2.49701128e-05
2.495765847e-05
2.497358653e-05
2.4990927e-05
2.496310023e-05
2.502528517e-05
2.498799048e-05
2.500532022e-05
2.496997164e-05
2.497288595e-05
2.500341486e-05
2.498070436e-05
2.500425927e-05
2.500035782e-05
2.498339182e-05
2.501166804e-05
2.500360711e-05
2.497413419e-05
2.501640587e-05
2.499384735e-05
2.502256653e-05
2.498588951e-05
2.498193706e-05
2.498105589e-05
2.501575437e-05
2.502735786e-05
2.504399008e-05
2.505390807e-05
2.5035098e-05
2.501946742e-05
2.505075335e-05
2.498691419e-05
2.503544497e-05
2.501378683e-05
2.495051763e-05
2.497282874e-05
2.502304865e-05
2.502732124e-05
2.502406659e-05
2.504647094e-05
2.503496039e-05
2.503423557e-05
2.509100561e-05
2.505726899e-05
2.50268477e-05
2.497347966e-05
2.504590089e-05
2.503542908e-05
2.501276966e-05
2.501547995e-05
2.500685472e-05
2.505759036e-05
2.50899689e-05
2.50514271e-05
2.503020118e-05
2.502657747e-05
2.506786448e-05
2.506204848e-05
2.504938821e-05
2.504777305e-05
2.502313025e-05
2.502227771e-05
2.510428015e-05
2.509166025e-05
2.504816406e-05
2.507129138e-05
2.508810833e-05
2.504963058e-05
2.50647519e-05
2.504638721e-05
2.506920916e-05
2.508424957e-05
2.502324631e-05
2.505466449e-05
2.506664198e-05
2.505467646e-05
2.507943285e-05
2.505271575e-05
2.500282529e-05
2.500536622e-05
2.502161943e-05
2.502503146e-05
2.503960121e-05
2.507988843e-05
2.506370561e-05
2.501230783e-05
2.5053382e-05
2.507711668e-05
2.508006163e-05
2.50508736e-05
2.503387623e-05
2.500619375e-05
2.502640643e-05
2.503885998e-05
2.505102752e-05
2.505936216e-05
2.506954893e-05
2.503532799e-05
2.503931229e-05
2.504669185e-05
2.507261446e-05
2.506162427e-05
2.504699301e-05
2.507536379e-05
2.508655148e-05
2.499651882e-05
2.50467752e-05
2.506029109e-05
2.501174432e-05
2.500723815e-05
2.503289425e-05
2.50330958e-05
2.504909018e-05
2.503857154e-05
2.503541578e-05
2.502915424e-05
2.503587581e-05
2.502614464e-05
2.504110723e-05
2.502951592e-05
2.504911549e-05
2.502207774e-05
2.501539905e-05
2.498997241e-05
2.505415594e-05
2.505679387e-05
2.50737813e-05
2.500581648e-05
2.499905156e-05
2.49559058e-05
2.504047139e-05
2.504499166e-05
2.499587122e-05
2.499611161e-05
2.500048702e-05
2.500412402e-05
2.502338263e-05
2.506623878e-05
2.502138338e-05
2.504764733e-05
2.502218371e-05
2.501031222e-05
2.509594802e-05
2.501810032e-05
2.499318672e-05
2.501768221e-05
2.502908424e-05
2.506201701e-05
2.50065352e-05
2.498884491e-05
2.500381771e-05
2.49907891e-05
2.501287102e-05
2.49856104e-05
2.500400713e-05
2.499648255e-05
2.502636557e-05
2.503468466e-05
2.498529906e-05
2.495761368e-05
2.501002672e-05
2.499042004e-05
2.504981631e-05
2.498357509e-05
2.499205318e-05
2.497073018e-05
2.495898298e-05
2.502912627e-05
2.496165539e-05
2.500206114e-05
2.500243325e-05
2.498892871e-05
2.496583781e-05
2.498675649e-05
2.500818863e-05
2.497715867e-05
2.496944908e-05
2.497475855e-05
2.495871118e-05
2.495295393e-05
2.494382874e-05
2.503784703e-05
2.496775086e-05
2.498533893e-05
2.49828044e-05
2.497929774e-05
2.494376868e-05
2.493857556e-05
2.499343465e-05
2.503996517e-05
2.498866342e-05
2.501723418e-05
2.501499921e-05
2.504179961e-05
2.495792776e-05
2.496334919e-05
2.494390855e-05
2.495162143e-05
2.496319162e-05
2.491750721e-05
2.49558072e-05
2.493891645e-05
2.499827129e-05
2.498978972e-05
2.497847875e-05
2.500325044e-05
2.503113372e-05
2.49938457e-05
2.498571616e-05
2.497207175e-05
2.497738994e-05
2.498351316e-05
2.501336411e-05
2.501617882e-05
2.501045686e-05
2.500349629e-05
2.499945211e-05
2.502621436e-05
2.500523872e-05
2.497320936e-05
2.497128421e-05
2.498415257e-05
2.500743554e-05
2.497131213e-05
2.499272508e-05
2.501801801e-05
2.50575675e-05
2.504784715e-05
2.5081439e-05
2.50552924e-05
2.505537709e-05
2.501677079e-05
2.499541882e-05
2.505326147e-05
2.500504139e-05
2.49990544e-05
2.502334632e-05
2.505021512e-05
2.506144504e-05
2.503033971e-05
2.503045979e-05
2.50358123e-05
2.502544876e-05
2.501476802e-05
2.501957035e-05
2.501591613e-05
2.502710911e-05
2.502448284e-05
2.501072453e-05
2.502772265e-05
2.502340542e-05
2.505210694e-05
2.507838536e-05
2.506859555e-05
2.505506697e-05
2.505083361e-05
2.503464749e-05
2.504126675e-05
2.504646889e-05
2.504369454e-05
2.503036497e-05
2.509006087e-05
2.506268702e-05
2.504849336e-05
2.505799722e-05
2.506414582e-05
2.50741703e-05
2.506888396e-05
2.505377683e-05
2.507684071e-05
2.508204784e-05
2.505559764e-05
2.50769353e-05
2.505808642e-05
2.509403737e-05
2.50774329e-05
2.502550143e-05
2.500701621e-05
2.504637801e-05
2.502098098e-05
2.505320367e-05
2.504611321e-05
2.50795275e-05
2.508284348e-05
2.507108204e-05
2.501292063e-05
2.504988634e-05
2.505155337e-05
2.50553818e-05
2.506678309e-05
2.506131559e-05
2.505743069e-05
2.504406272e-05
2.506214936e-05
2.504704931e-05
2.503547861e-05
2.507650003e-05
2.503381245e-05
2.503350237e-05
2.503782015e-05
2.505918256e-05
2.504779878e-05
2.504866052e-05
2.505901488e-05
2.502496801e-05
2.502436099e-05
2.504408317e-05
2.504243369e-05
2.502696501e-05
2.499285261e-05
2.502497526e-05
2.507010429e-05
2.505284153e-05
2.505848881e-05
2.50225244e-05
2.505177635e-05
2.504332488e-05
2.505881278e-05
2.500162123e-05
2.50282633e-05
2.499563741e-05
2.50187941e-05
2.49977713e-05
2.501159279e-05
2.505745021e-05
2.505939349e-05
2.500604778e-05
2.503117319e-05
2.499359521e-05
2.502076839e-05
2.501494227e-05
2.504797049e-05
2.502608249e-05
2.503236142e-05
2.502861504e-05
2.501329875e-05
2.504309545e-05
2.499112576e-05
2.504089782e-05
2.501130422e-05
2.500682617e-05
2.50141521e-05
2.501591285e-05
2.50063942e-05
2.500988421e-05
2.500298197e-05
2.501703428e-05
2.50357242e-05
2.500398957e-05
2.500617186e-05
2.50390234e-05
2.498881258e-05
2.495063496e-05
2.501394364e-05
2.500437888e-05
2.502483266e-05
2.500478859e-05
2.503913113e-05
2.498801594e-05
2.500142055e-05
2.499582817e-05
2.499302458e-05
2.503745068e-05
2.503580324e-05
2.501889953e-05
2.502475636e-05
2.501076504e-05
2.499747567e-05
2.499791529e-05
2.497920845e-05
2.499798809e-05
2.502132387e-05
2.499267836e-05
2.503911826e-05
2.501878837e-05
2.500720966e-05
2.497653551e-05
2.497786297e-05
2.489968333e-05
2.492468501e-05
2.491945739e-05
2.495283181e-05
2.497901364e-05
2.496980081e-05
2.496800296e-05
2.495219126e-05
2.495193184e-05
2.497807095e-05
2.501326593e-05
2.502116555e-05
2.497812436e-05
2.499751116e-05
2.496593582e-05
2.496577289e-05
2.498090043e-05
2.49536492e-05
2.503442063e-05
2.497379631e-05
2.495330806e-05
2.497494294e-05
2.497613351e-05
2.498522185e-05
2.49737243e-05
2.494935112e-05
2.501170005e-05
2.50177504e-05
2.499453842e-05
2.493866186e-05
2.499938591e-05
2.5013316e-05
2.499870612e-05
2.497482708e-05
2.500587859e-05
2.499353265e-05
2.502187212e-05
2.499624277e-05
2.496489201e-05
2.500859712e-05
2.499189965e-05
2.498831542e-05
2.497542421e-05
2.494098124e-05
2.495411194e-05
2.498864847e-05
2.496446992e-05
2.502092732e-05
2.503406514e-05
2.505223488e-05
2.500505871e-05
2.503452668e-05
2.505035907e-05
2.502157459e-05
2.503597248e-05
2.501337447e-05
2.502137837e-05
2.499476261e-05
2.503141414e-05
2.499084014e-05
2.505165566e-05
2.505009834e-05
2.50580845e-05
2.506516696e-05
2.504365924e-05
2.502637879e-05
2.502796563e-05
2.50563381e-05
2.500729772e-05
2.505426708e-05
2.501111599e-05
2.500457346e-05
2.503167591e-05
2.505474238e-05
2.504119509e-05
2.50249701e-05
2.507450082e-05
2.508109008e-05
2.502954388e-05
2.505242206e-05
2.505642324e-05
2.509068431e-05
2.505426871e-05
2.505779274e-05
2.507877769e-05
2.501514299e-05
2.504547113e-05
2.50441892e-05
2.507333164e-05
2.508153955e-05
2.505467592e-05
2.505053514e-05
2.507620849e-05
2.509758283e-05
2.50925999e-05
2.502446285e-05
2.501361457e-05
2.505427648e-05
2.50381524e-05
2.501652794e-05
2.505783041e-05
2.502323351e-05
2.504680697e-05
2.504501377e-05
2.506068656e-05
2.505893119e-05
2.506146461e-05
2.503000124e-05
2.507899135e-05
2.504098429e-05
2.5071526e-05
2.507357441e-05
2.504342271e-05
2.504340508e-05
2.501668859e-05
2.502568943e-05
2.50143774e-05
2.503981547e-05
2.505814453e-05
2.50006705e-05
2.503308721e-05
2.503208056e-05
2.502755771e-05
2.502831775e-05
2.503358102e-05
2.50667123e-05
2.501743119e-05
2.500946092e-05
2.503303314e-05
2.502373638e-05
2.502307661e-05
2.499747997e-05
2.501203996e-05
2.501108511e-05
2.501735889e-05
2.498284867e-05
2.50374485e-05
2.506758274e-05
2.50413894e-05
2.507974816e-05
2.50173135e-05
2.501707768e-05
2.499472161e-05
2.500602525e-05
2.501805336e-05
2.50303332e-05
2.502498751e-05
2.503135923e-05
2.500245208e-05
2.500824189e-05
2.501086276e-05
2.50050509e-05
2.506842514e-05
2.499533551e-05
2.502913309e-05
2.502766483e-05
2.502604615e-05
2.50552285e-05
2.501151694e-05
2.499983152e-05
2.499540924e-05
2.50225916e-05
2.501590818e-05
2.500154295e-05
2.504243301e-05
2.504369055e-05
2.507334035e-05
2.50259053e-05
2.503930637e-05
2.500138677e-05
2.50129904e-05
2.501287838e-05
2.501925945e-05
2.50201262e-05
2.501899897e-05
2.498168929e-05
2.50634649e-05
2.503404603e-05
2.501578636e-05
2.502123922e-05
2.499866023e-05
2.502400877e-05
2.501518174e-05
2.50535292e-05
2.498616138e-05
2.497247072e-05
2.498006466e-05
2.504647446e-05
2.501304632e-05
2.495980235e-05
2.504090992e-05
2.502825504e-05
2.49880943e-05
2.499404571e-05
2.499270047e-05
2.498879517e-05
2.501072445e-05
2.498436428e-05
2.498850394e-05
2.494612139e-05
2.49415847e-05
2.496622387e-05
2.495605848e-05
2.497576075e-05
2.498825227e-05
2.498806159e-05
2.497606269e-05
2.500975875e-05
2.494900799e-05
2.495992982e-05
2.501260783e-05
2.49548844e-05
2.500520601e-05
2.500241571e-05
2.494449274e-05
2.496288377e-05
2.496053631e-05
2.497919785e-05
2.498453078e-05
2.495281517e-05
2.500608066e-05
2.498627795e-05
2.498819951e-05
2.495581257e-05
2.494942444e-05
2.498356167e-05
2.500615783e-05
2.501249934e-05
2.496143109e-05
2.499840676e-05
2.499194728e-05
2.500599227e-05
2.503176624e-05
2.504208998e-05
2.500509258e-05
2.499904808e-05
2.501798889e-05
2.499232101e-05
2.496897811e-05
2.495159127e-05
2.502610867e-05
2.502046527e-05
2.498286945e-05
2.490906724e-05
2.500880926e-05
2.506097253e-05
2.500168535e-05
2.499624114e-05
2.504500167e-05
2.504920387e-05
2.500576964e-05
2.500769707e-05
2.505523702e-05
2.504951459e-05
2.50067151e-05
2.501429033e-05
2.502156461e-05
2.49897218e-05
2.50076694e-05
2.5007476e-05
2.508104462e-05
2.501367899e-05
2.505118042e-05
2.503791102e-05
2.502634819e-05
2.501450321e-05
2.503655633e-05
2.501727039e-05
2.499017884e-05
2.500317204e-05
2.501718832e-05
2.506185198e-05
2.505287815e-05
2.505110053e-05
2.501602152e-05
2.508506005e-05
2.504818558e-05
2.506186351e-05
2.503561365e-05
2.50476092e-05
2.507903197e-05
2.507775241e-05
2.505620764e-05
2.507676968e-05
2.50809394e-05
2.508182659e-05
2.506021906e-05
2.507201705e-05
2.506846099e-05
2.504195522e-05
2.508039927e-05
2.505415411e-05
2.504375038e-05
2.509109838e-05
2.503470022e-05
2.505243561e-05
2.504737106e-05
2.507487428e-05
2.505901016e-05
2.505260949e-05
2.505266659e-05
2.5024095e-05
2.507679485e-05
2.505462022e-05
2.500343208e-05
2.504380025e-05
2.503326001e-05
2.505814453e-05
2.504075867e-05
2.5044917e-05
2.506627201e-05
2.507689728e-05
2.50875402e-05
2.503938239e-05
2.50559359e-05
2.505938203e-05
2.501283544e-05
2.505601853e-05
2.508039637e-05
2.503296387e-05
2.505305311e-05
2.500011798e-05
2.5012547e-05
2.504411055e-05
2.502519268e-05
2.500208297e-05
2.50230984e-05
2.501286251e-05
2.499407101e-05
2.5024602e-05
2.503949689e-05
2.500818807e-05
2.499996336e-05
2.50244029e-05
2.501013011e-05
2.500000558e-05
2.50764332e-05
2.503839022e-05
2.503185781e-05
2.504642257e-05
2.501682129e-05
2.50136258e-05
2.500151912e-05
2.500202065e-05
2.502715406e-05
2.507848173e-05
2.501665008e-05
2.501536447e-05
2.501335591e-05
2.498223153e-05
2.497435376e-05
2.50304144e-05
2.500738705e-05
2.502571933e-05
2.504317554e-05
2.503952349e-05
2.50129773e-05
2.502717741e-05
2.501529169e-05
2.498633717e-05
2.496253404e-05
2.500034045e-05
2.501994628e-05
2.501937122e-05
2.498934595e-05
2.504781563e-05
2.504714121e-05
2.504406043e-05
2.504153165e-05
2.504987557e-05
2.501565464e-05
2.500903952e-05
2.502316651e-05
2.501254805e-05
2.505353631e-05
2.500600595e-05
2.497536562e-05
2.498888227e-05
2.502448233e-05
2.499845262e-05
2.49812505e-05
2.504451157e-05
2.503330541e-05
2.500751708e-05
2.49908686e-05
2.495886337e-05
2.496982806e-05
2.498308864e-05
2.501317232e-05
2.499605859e-05
2.498208871e-05
2.503415617e-05
2.503529357e-05
2.49770579e-05
2.498382155e-05
2.495138169e-05
2.499868722e-05
2.502090668e-05
2.503056399e-05
2.499282357e-05
2.498775929e-05
2.497207265e-05
2.495206839e-05
2.493417758e-05
2.499510207e-05
2.496753025e-05
2.495118017e-05
2.499638639e-05
2.494198116e-05
2.49585039e-05
2.498197964e-05
2.500762941e-05
2.502766246e-05
2.499890698e-05
2.497278487e-05
2.496178254e-05
2.495589875e-05
2.49718382e-05
2.497350356e-05
2.49467305e-05
2.49945287e-05
2.496793855e-05
2.498537863e-05
2.498827528e-05
2.495819447e-05
2.499166858e-05
2.498495388e-05
2.500996138e-05
2.501775023e-05
2.50352931e-05
2.502509805e-05
2.500912024e-05
2.501707234e-05
2.496427698e-05
2.501045676e-05
2.500145251e-05
2.503955759e-05
2.50352047e-05
2.49782378e-05
2.50117891e-05
2.50020215e-05
2.504473029e-05
2.501440749e-05
2.499895606e-05
2.496065483e-05
2.503297134e-05
2.499881787e-05
2.499911054e-05
2.500934487e-05
2.503252418e-05
2.50433102e-05
2.504354386e-05
2.504221185e-05
2.507229273e-05
2.500788384e-05
2.504337145e-05
2.503146998e-05
2.500869603e-05
2.500347274e-05
2.500951506e-05
2.500501667e-05
2.504632827e-05
2.50290821e-05
2.504056953e-05
2.501909467e-05
2.50418698e-05
2.501495969e-05
2.504331755e-05
2.504168706e-05
2.49845801e-05
2.501125861e-05
2.504636083e-05
2.503933294e-05
2.498418301e-05
2.501637321e-05
2.506919241e-05
2.507740713e-05
2.505754922e-05
2.505398715e-05
2.508354299e-05
2.5025749e-05
2.505437273e-05
2.505870414e-05
2.506142506e-05
2.506669908e-05
2.505061875e-05
2.507327025e-05
2.50657502e-05
2.510278649e-05
2.506778073e-05
2.509494675e-05
2.505971095e-05
2.506437755e-05
2.506750529e-05
2.500991972e-05
2.507068325e-05
2.504230134e-05
2.505964595e-05
2.508931692e-05
2.503668753e-05
2.503939265e-05
2.504069684e-05
2.506771337e-05
2.504216023e-05
2.508221557e-05
2.505357305e-05
2.505002328e-05
2.498504789e-05
2.502111534e-05
2.501293622e-05
2.501336436e-05
2.505392517e-05
2.506957484e-05
2.504142195e-05
2.507286521e-05
2.508232387e-05
2.506861337e-05
2.509632279e-05
2.50735522e-05
2.506434578e-05
2.501547454e-05
2.500453327e-05
2.50052373e-05
2.505352249e-05
2.504032798e-05
2.503995445e-05
2.500623414e-05
2.500728096e-05
2.505502759e-05
2.50105624e-05
2.503630678e-05
2.504425088e-05
2.504754538e-05
2.504154109e-05
2.502141932e-05
2.502103561e-05
2.503431027e-05
2.505322388e-05
2.507501556e-05
2.502907593e-05
2.5066933e-05
2.509362424e-05
2.50041071e-05
2.500506891e-05
2.502200278e-05
2.498480144e-05
2.502850777e-05
2.503896586e-05
2.501786231e-05
2.497086621e-05
2.502103075e-05
2.501242276e-05
2.503357514e-05
2.502642292e-05
2.504518303e-05
2.503018046e-05
2.500741583e-05
2.505497287e-05
2.501739181e-05
2.506072191e-05
2.504949856e-05
2.503673594e-05
2.497700298e-05
2.500247757e-05
2.500056631e-05
2.502453388e-05
2.503827162e-05
2.499462978e-05
2.50226207e-05
2.50505933e-05
2.503309325e-05
2.500139977e-05
2.503098249e-05
2.501812926e-05
2.497200543e-05
2.49913794e-05
2.497930436e-05
2.500998567e-05
2.50175921e-05
2.5028338e-05
2.498000869e-05
2.503875211e-05
2.503444797e-05
2.501395833e-05
2.498773573e-05
2.501082809e-05
2.499387914e-05
2.497612356e-05
2.497304369e-05
2.499220735e-05
)
;

boundaryField
{
    bottom
    {
        type            calculated;
        value           nonuniform List<scalar> 
200
(
2.502785838e-05
2.504582572e-05
2.499597457e-05
2.501666633e-05
2.49688452e-05
2.497529505e-05
2.500796818e-05
2.496892029e-05
2.499608285e-05
2.497091655e-05
2.493605804e-05
2.495208878e-05
2.496940726e-05
2.501177258e-05
2.497597546e-05
2.49001319e-05
2.496995618e-05
2.497540901e-05
2.500056899e-05
2.498820312e-05
2.495521811e-05
2.496527511e-05
2.499195137e-05
2.500159284e-05
2.499774314e-05
2.499080727e-05
2.501775272e-05
2.498648607e-05
2.49560282e-05
2.496440978e-05
2.50096123e-05
2.496515693e-05
2.49701128e-05
2.495765847e-05
2.497358653e-05
2.4990927e-05
2.496310023e-05
2.502528517e-05
2.498799048e-05
2.500532022e-05
2.496997164e-05
2.497288595e-05
2.500341486e-05
2.498070436e-05
2.500425927e-05
2.500035782e-05
2.498339182e-05
2.501166804e-05
2.500360711e-05
2.497413419e-05
2.501640587e-05
2.499384735e-05
2.502256653e-05
2.498588951e-05
2.498193706e-05
2.498105589e-05
2.501575437e-05
2.502735786e-05
2.504399008e-05
2.505390807e-05
2.5035098e-05
2.501946742e-05
2.505075335e-05
2.498691419e-05
2.503544497e-05
2.501378683e-05
2.495051763e-05
2.497282874e-05
2.502304865e-05
2.502732124e-05
2.502406659e-05
2.504647094e-05
2.503496039e-05
2.503423557e-05
2.509100561e-05
2.505726899e-05
2.50268477e-05
2.497347966e-05
2.504590089e-05
2.503542908e-05
2.501276966e-05
2.501547995e-05
2.500685472e-05
2.505759036e-05
2.50899689e-05
2.50514271e-05
2.503020118e-05
2.502657747e-05
2.506786448e-05
2.506204848e-05
2.504938821e-05
2.504777305e-05
2.502313025e-05
2.502227771e-05
2.510428015e-05
2.509166025e-05
2.504816406e-05
2.507129138e-05
2.508810833e-05
2.504963058e-05
2.50647519e-05
2.504638721e-05
2.506920916e-05
2.508424957e-05
2.502324631e-05
2.505466449e-05
2.506664198e-05
2.505467646e-05
2.507943285e-05
2.505271575e-05
2.500282529e-05
2.500536622e-05
2.502161943e-05
2.502503146e-05
2.503960121e-05
2.507988843e-05
2.506370561e-05
2.501230783e-05
2.5053382e-05
2.507711668e-05
2.508006163e-05
2.50508736e-05
2.503387623e-05
2.500619375e-05
2.502640643e-05
2.503885998e-05
2.505102752e-05
2.505936216e-05
2.506954893e-05
2.503532799e-05
2.503931229e-05
2.504669185e-05
2.507261446e-05
2.506162427e-05
2.504699301e-05
2.507536379e-05
2.508655148e-05
2.499651882e-05
2.50467752e-05
2.506029109e-05
2.501174432e-05
2.500723815e-05
2.503289425e-05
2.50330958e-05
2.504909018e-05
2.503857154e-05
2.503541578e-05
2.502915424e-05
2.503587581e-05
2.502614464e-05
2.504110723e-05
2.502951592e-05
2.504911549e-05
2.502207774e-05
2.501539905e-05
2.498997241e-05
2.505415594e-05
2.505679387e-05
2.50737813e-05
2.500581648e-05
2.499905156e-05
2.49559058e-05
2.504047139e-05
2.504499166e-05
2.499587122e-05
2.499611161e-05
2.500048702e-05
2.500412402e-05
2.502338263e-05
2.506623878e-05
2.502138338e-05
2.504764733e-05
2.502218371e-05
2.501031222e-05
2.509594802e-05
2.501810032e-05
2.499318672e-05
2.501768221e-05
2.502908424e-05
2.506201701e-05
2.50065352e-05
2.498884491e-05
2.500381771e-05
2.49907891e-05
2.501287102e-05
2.49856104e-05
2.500400713e-05
2.499648255e-05
2.502636557e-05
2.503468466e-05
2.498529906e-05
2.495761368e-05
2.501002672e-05
2.499042004e-05
2.504981631e-05
2.498357509e-05
2.499205318e-05
2.497073018e-05
2.495898298e-05
2.502912627e-05
)
;
    }
    top
    {
        type            calculated;
        value           nonuniform List<scalar> 
200
(
2.498208871e-05
2.503415617e-05
2.503529357e-05
2.49770579e-05
2.498382155e-05
2.495138169e-05
2.499868722e-05
2.502090668e-05
2.503056399e-05
2.499282357e-05
2.498775929e-05
2.497207265e-05
2.495206839e-05
2.493417758e-05
2.499510207e-05
2.496753025e-05
2.495118017e-05
2.499638639e-05
2.494198116e-05
2.49585039e-05
2.498197964e-05
2.500762941e-05
2.502766246e-05
2.499890698e-05
2.497278487e-05
2.496178254e-05
2.495589875e-05
2.49718382e-05
2.497350356e-05
2.49467305e-05
2.49945287e-05
2.496793855e-05
2.498537863e-05
2.498827528e-05
2.495819447e-05
2.499166858e-05
2.498495388e-05
2.500996138e-05
2.501775023e-05
2.50352931e-05
2.502509805e-05
2.500912024e-05
2.501707234e-05
2.496427698e-05
2.501045676e-05
2.500145251e-05
2.503955759e-05
2.50352047e-05
2.49782378e-05
2.50117891e-05
2.50020215e-05
2.504473029e-05
2.501440749e-05
2.499895606e-05
2.496065483e-05
2.503297134e-05
2.499881787e-05
2.499911054e-05
2.500934487e-05
2.503252418e-05
2.50433102e-05
2.504354386e-05
2.504221185e-05
2.507229273e-05
2.500788384e-05
2.504337145e-05
2.503146998e-05
2.500869603e-05
2.500347274e-05
2.500951506e-05
2.500501667e-05
2.504632827e-05
2.50290821e-05
2.504056953e-05
2.501909467e-05
2.50418698e-05
2.501495969e-05
2.504331755e-05
2.504168706e-05
2.49845801e-05
2.501125861e-05
2.504636083e-05
2.503933294e-05
2.498418301e-05
2.501637321e-05
2.506919241e-05
2.507740713e-05
2.505754922e-05
2.505398715e-05
2.508354299e-05
2.5025749e-05
2.505437273e-05
2.505870414e-05
2.506142506e-05
2.506669908e-05
2.505061875e-05
2.507327025e-05
2.50657502e-05
2.510278649e-05
2.506778073e-05
2.509494675e-05
2.505971095e-05
2.506437755e-05
2.506750529e-05
2.500991972e-05
2.507068325e-05
2.504230134e-05
2.505964595e-05
2.508931692e-05
2.503668753e-05
2.503939265e-05
2.504069684e-05
2.506771337e-05
2.504216023e-05
2.508221557e-05
2.505357305e-05
2.505002328e-05
2.498504789e-05
2.502111534e-05
2.501293622e-05
2.501336436e-05
2.505392517e-05
2.506957484e-05
2.504142195e-05
2.507286521e-05
2.508232387e-05
2.506861337e-05
2.509632279e-05
2.50735522e-05
2.506434578e-05
2.501547454e-05
2.500453327e-05
2.50052373e-05
2.505352249e-05
2.504032798e-05
2.503995445e-05
2.500623414e-05
2.500728096e-05
2.505502759e-05
2.50105624e-05
2.503630678e-05
2.504425088e-05
2.504754538e-05
2.504154109e-05
2.502141932e-05
2.502103561e-05
2.503431027e-05
2.505322388e-05
2.507501556e-05
2.502907593e-05
2.5066933e-05
2.509362424e-05
2.50041071e-05
2.500506891e-05
2.502200278e-05
2.498480144e-05
2.502850777e-05
2.503896586e-05
2.501786231e-05
2.497086621e-05
2.502103075e-05
2.501242276e-05
2.503357514e-05
2.502642292e-05
2.504518303e-05
2.503018046e-05
2.500741583e-05
2.505497287e-05
2.501739181e-05
2.506072191e-05
2.504949856e-05
2.503673594e-05
2.497700298e-05
2.500247757e-05
2.500056631e-05
2.502453388e-05
2.503827162e-05
2.499462978e-05
2.50226207e-05
2.50505933e-05
2.503309325e-05
2.500139977e-05
2.503098249e-05
2.501812926e-05
2.497200543e-05
2.49913794e-05
2.497930436e-05
2.500998567e-05
2.50175921e-05
2.5028338e-05
2.498000869e-05
2.503875211e-05
2.503444797e-05
2.501395833e-05
2.498773573e-05
2.501082809e-05
2.499387914e-05
2.497612356e-05
2.497304369e-05
2.499220735e-05
)
;
    }
    inlet
    {
        type            cyclic;
    }
    outlet
    {
        type            cyclic;
    }
    back
    {
        type            symmetry;
    }
    front
    {
        type            symmetry;
    }
}


// ************************************************************************* //
