/*--------------------------------*- C++ -*----------------------------------*\
| =========                 |                                                 |
| \\      /  F ield         | OpenFOAM: The Open Source CFD Toolbox           |
|  \\    /   O peration     | Version:  v1706                                 |
|   \\  /    A nd           | Web:      www.OpenFOAM.com                      |
|    \\/     M anipulation  |                                                 |
\*---------------------------------------------------------------------------*/
FoamFile
{
    version     2.0;
    format      ascii;
    class       volScalarField;
    location    "0.3";
    object      mfpCellRatio_Ar;
}
// * * * * * * * * * * * * * * * * * * * * * * * * * * * * * * * * * * * * * //

dimensions      [0 0 0 0 0 0 0];


internalField   nonuniform List<scalar> 
1000
(
1.903122851
1.904899689
1.900673141
1.903399633
1.898775489
1.900238547
1.901988389
1.898741153
1.900058152
1.897337031
1.895249479
1.896792323
1.899022687
1.90225273
1.897920313
1.891342877
1.899878651
1.899256159
1.901028829
1.89963041
1.897170146
1.897724103
1.899981735
1.900623891
1.900276196
1.898635643
1.902201298
1.900536612
1.897815111
1.896940081
1.901709091
1.898267985
1.897955431
1.897073568
1.897072721
1.900206947
1.898364774
1.903224285
1.900038805
1.901706237
1.898097969
1.89947745
1.902156039
1.899659055
1.901359044
1.903010576
1.901190176
1.903167837
1.902364387
1.898899156
1.901753237
1.900316641
1.904058274
1.899802602
1.899940224
1.899413033
1.903299221
1.904723278
1.905669009
1.906363459
1.905138169
1.902731609
1.905719628
1.900727853
1.906022703
1.904630958
1.89748472
1.898681595
1.903455749
1.903677633
1.904184319
1.9063332
1.905564433
1.905411016
1.910333722
1.906942228
1.904992154
1.899802279
1.907200312
1.906114952
1.903942121
1.904454169
1.903208542
1.907291225
1.910825302
1.907533264
1.906206008
1.907437734
1.909611344
1.907988868
1.907414451
1.90752263
1.90712484
1.906953616
1.913735042
1.911826417
1.909190544
1.910517158
1.910425837
1.906848388
1.908869404
1.908973743
1.910150029
1.909336891
1.904571264
1.908329827
1.908790348
1.907886595
1.910455914
1.907526656
1.904012692
1.903571377
1.905515765
1.907237117
1.906865138
1.910262257
1.9098334
1.904579944
1.909017435
1.911496842
1.911255108
1.909765175
1.90835452
1.905295755
1.906828819
1.907388007
1.908043445
1.909240291
1.909722195
1.906608386
1.905821588
1.906183949
1.909764689
1.909003337
1.907844532
1.909534717
1.910281876
1.902372069
1.907253523
1.908017832
1.905400548
1.90390644
1.905986879
1.90773257
1.90697645
1.906356621
1.907584949
1.907787638
1.907542471
1.904943143
1.905516846
1.906014055
1.907103608
1.905368616
1.9056007
1.901624955
1.907433956
1.908340833
1.909449044
1.904047439
1.901545302
1.899032611
1.907162527
1.906834145
1.901912882
1.903121495
1.902845938
1.903587462
1.903521138
1.908427874
1.903519989
1.907273384
1.902243915
1.901789581
1.910331422
1.903064575
1.899728304
1.903344736
1.906170551
1.908013815
1.90279397
1.900699211
1.90262699
1.901078417
1.902449145
1.900923105
1.901499049
1.901903904
1.905140126
1.905103473
1.900892815
1.899900735
1.904548969
1.901502493
1.905575585
1.899522026
1.898938054
1.897851782
1.898446385
1.90428986
1.899129843
1.901753075
1.9019704
1.900609437
1.897554333
1.901100485
1.902525933
1.898947324
1.898369115
1.897714852
1.895494973
1.896578902
1.89596328
1.903794588
1.897342113
1.897528709
1.899206572
1.898571495
1.896526035
1.895529559
1.899321841
1.905165457
1.900126526
1.902433057
1.902515727
1.904956636
1.897219212
1.897875487
1.896340198
1.89589539
1.897057802
1.893244152
1.89642069
1.895624465
1.900743393
1.899452417
1.899858003
1.901894074
1.903464372
1.900168566
1.901279785
1.898592027
1.899542366
1.899982624
1.903399105
1.90312717
1.902667142
1.901547798
1.900624074
1.903685092
1.901285616
1.898430073
1.89946136
1.899698735
1.901301609
1.899539254
1.901912468
1.902773287
1.907056507
1.906529901
1.909974725
1.907030031
1.907341145
1.904166003
1.90314477
1.906281972
1.902973161
1.902090727
1.90349003
1.906927091
1.907487494
1.906102723
1.905219001
1.904850196
1.905226734
1.904901075
1.905413753
1.904882131
1.906071721
1.904287748
1.904233856
1.904736697
1.905467986
1.907009472
1.909148823
1.908596072
1.907465867
1.908183228
1.906831576
1.907242313
1.907602693
1.906197031
1.905549696
1.911693819
1.908747067
1.90802608
1.909416294
1.910252735
1.909013163
1.909825916
1.908919941
1.911195727
1.91096388
1.908403219
1.910273009
1.90945153
1.910661559
1.909743281
1.904767176
1.903402052
1.906989724
1.905733569
1.907783558
1.908149458
1.91026284
1.911426145
1.909938291
1.905766122
1.908313583
1.910007059
1.908733063
1.90909916
1.909665015
1.909848974
1.907876503
1.909723543
1.90754949
1.907392196
1.909848661
1.905954685
1.906337521
1.90657808
1.908317552
1.908114511
1.908438607
1.910591635
1.90569137
1.906728201
1.907852934
1.907980168
1.906425514
1.901877816
1.905275062
1.909981857
1.909069896
1.908275403
1.905896388
1.908057655
1.90736486
1.908260398
1.903592637
1.905147753
1.902188682
1.905105407
1.903003237
1.9041721
1.906896606
1.907897939
1.904033368
1.905808163
1.902764448
1.903757646
1.904214971
1.907268969
1.90537877
1.905266073
1.905974858
1.904297566
1.905939648
1.901070066
1.905620508
1.903022478
1.902579958
1.903131662
1.903597902
1.902579173
1.903862655
1.902088448
1.903896504
1.905175812
1.903842907
1.90282652
1.904168552
1.902107666
1.897899121
1.902125629
1.9024527
1.904122747
1.903871408
1.907047508
1.901431021
1.902836742
1.902907665
1.903063411
1.905994009
1.904708691
1.902159483
1.904832444
1.902128768
1.900896428
1.900960996
1.900433355
1.901434776
1.903556705
1.90211483
1.905161483
1.904076817
1.902808607
1.899368809
1.897563381
1.89073203
1.894663777
1.893261645
1.896315249
1.897954215
1.899140685
1.897550383
1.897501923
1.896262496
1.897598025
1.903105567
1.903794244
1.89943455
1.900476254
1.897456782
1.897912361
1.899962403
1.897614629
1.904119111
1.898225955
1.895578186
1.898834279
1.898544816
1.90017562
1.897486805
1.89782521
1.902678186
1.902708102
1.900333255
1.896231944
1.901978465
1.902153285
1.901180541
1.900344656
1.902366969
1.901883293
1.904110957
1.901523869
1.898557207
1.902232511
1.901421234
1.90064168
1.899585986
1.896626385
1.897917503
1.90127726
1.898853483
1.903170247
1.904844751
1.906833861
1.90422748
1.905433621
1.907335883
1.904225445
1.906469504
1.903973856
1.904186933
1.900042308
1.904169394
1.90100104
1.905826012
1.906048731
1.907238269
1.907841375
1.907008079
1.905891715
1.905931711
1.908330141
1.904045677
1.907289803
1.903609136
1.902742429
1.905292458
1.906312405
1.905688553
1.905697405
1.909580845
1.911741249
1.905966502
1.907992139
1.908275378
1.910405268
1.907623904
1.909151154
1.910446682
1.905078837
1.907737199
1.907778781
1.910706224
1.910541991
1.909203899
1.908689484
1.909625706
1.912293783
1.911840498
1.906826834
1.904428088
1.909596764
1.906984238
1.904980147
1.907156297
1.907017485
1.906478418
1.907714145
1.908694656
1.90967924
1.909326375
1.906018828
1.910909346
1.907601094
1.90960289
1.910005719
1.907249717
1.907193063
1.904865835
1.906581961
1.905585042
1.907531968
1.909488527
1.904762366
1.906754519
1.90659819
1.905457769
1.906599638
1.906619643
1.909286952
1.904591195
1.903661779
1.906540718
1.906688261
1.906973987
1.903518774
1.904091414
1.904574659
1.904593886
1.900954684
1.906086658
1.908858732
1.906609364
1.91000987
1.905109013
1.90378217
1.903934821
1.903091722
1.905337961
1.905389977
1.904191555
1.904624903
1.902658433
1.903452957
1.903188249
1.903759234
1.908648816
1.903467002
1.905868516
1.905851553
1.904986834
1.907874795
1.902669518
1.901739129
1.900895806
1.903583705
1.904480624
1.902442806
1.905614619
1.905878352
1.908638273
1.905325257
1.905022733
1.901673662
1.902327604
1.904888473
1.90411472
1.904472381
1.903713328
1.901292927
1.907657289
1.905740956
1.904759882
1.904397044
1.901345093
1.904430463
1.90406579
1.906853858
1.900084098
1.899798134
1.900189286
1.907118545
1.903461599
1.898150923
1.904737688
1.903320816
1.900291103
1.901850958
1.902873498
1.901240242
1.902665323
1.900850092
1.899684938
1.896377732
1.8971757
1.897377328
1.895172897
1.897828148
1.89950326
1.899633353
1.899709152
1.900892215
1.897149514
1.898528944
1.902963237
1.898996828
1.901967202
1.901805267
1.896161668
1.897404154
1.897401658
1.900077673
1.900242582
1.896639806
1.901294063
1.899487264
1.89941589
1.895997712
1.896055473
1.898564088
1.901901373
1.90337035
1.898465602
1.900864495
1.900560726
1.902461663
1.905031593
1.905048585
1.902675886
1.90240109
1.902684789
1.901682476
1.89793779
1.89794497
1.904287131
1.904103307
1.900202375
1.894930168
1.901693691
1.907260193
1.902649006
1.901534525
1.906345532
1.906107274
1.902127348
1.903087199
1.907970488
1.907089762
1.904361097
1.903256893
1.904304237
1.900594571
1.901343686
1.902474183
1.907896447
1.902899365
1.906992138
1.906239177
1.906239749
1.903634676
1.9047054
1.905110176
1.902644878
1.903083886
1.904145586
1.90733182
1.90619722
1.906983146
1.905328272
1.910446101
1.907265368
1.908146491
1.905966061
1.907116283
1.911186942
1.909853201
1.909059789
1.910464353
1.911091128
1.910731956
1.909045352
1.909586108
1.908751726
1.906488666
1.909650785
1.907833715
1.908089859
1.912548788
1.906785114
1.90956669
1.907934231
1.911309482
1.909387225
1.908246503
1.908813821
1.904629406
1.908984107
1.908202789
1.904741842
1.907711489
1.907314962
1.908135141
1.907023867
1.906387553
1.907763049
1.909974213
1.91223947
1.906930143
1.908516889
1.908193881
1.905185251
1.909247505
1.911245133
1.906267947
1.908044129
1.9028248
1.90589229
1.908148133
1.905048791
1.904155201
1.905315231
1.905142046
1.9021824
1.905354994
1.906884402
1.903840814
1.902458997
1.90509655
1.90362475
1.90330551
1.910105654
1.905734574
1.906756085
1.90600108
1.905069513
1.9041375
1.903839863
1.90292965
1.906775783
1.911160431
1.905963407
1.904667644
1.904764152
1.900415174
1.900211366
1.905451231
1.904005252
1.906989849
1.907625151
1.904660137
1.904306061
1.904393432
1.902115309
1.899943288
1.898612185
1.901427165
1.902709876
1.903380136
1.90095039
1.905494312
1.907214356
1.906216695
1.904014612
1.906042784
1.901984498
1.902985422
1.904419748
1.902510154
1.90545823
1.904061608
1.899634987
1.900876319
1.903851878
1.902897689
1.900474296
1.90518239
1.904714646
1.902209635
1.900753065
1.898261185
1.898657717
1.900693042
1.902997847
1.902094559
1.901201544
1.903449793
1.904490925
1.89960026
1.899201421
1.896886269
1.90137728
1.902856606
1.905038241
1.901726705
1.899499706
1.897568654
1.895291073
1.894402482
1.900050323
1.897125809
1.896243368
1.901207136
1.895204965
1.89668981
1.900559203
1.9024112
1.903763109
1.900355345
1.899383601
1.897496995
1.896407259
1.898800307
1.899294419
1.896142033
1.900649878
1.899407262
1.898699602
1.899181128
1.896164269
1.900657974
1.899415686
1.901582129
1.902387867
1.904199525
1.902056179
1.90162583
1.903248706
1.899342427
1.903554864
1.901776331
1.905547636
1.903973599
1.900670788
1.90176114
1.901835369
1.904947503
1.902712652
1.901498615
1.897901407
1.904705785
1.901135323
1.901491988
1.90223805
1.90396455
1.905566588
1.906492983
1.907364455
1.909309606
1.902584693
1.906041858
1.903998958
1.902090525
1.902720043
1.903271827
1.903009721
1.90717874
1.905320873
1.905770428
1.904223201
1.906747149
1.904686487
1.906193447
1.906515674
1.900560133
1.902008947
1.905273967
1.905457997
1.900774419
1.904003735
1.909913993
1.910092112
1.908539449
1.908498166
1.911050138
1.906484271
1.90770561
1.909543198
1.909897858
1.909480252
1.907524363
1.910450322
1.909313857
1.912122212
1.909339507
1.911559347
1.908270839
1.909979498
1.909460091
1.904958433
1.909294749
1.906876318
1.909845228
1.911370513
1.908013321
1.907115867
1.907826025
1.909210986
1.906906454
1.91094092
1.908886341
1.90840385
1.903485421
1.906422037
1.906257258
1.90555364
1.908987796
1.909026019
1.906391078
1.910237185
1.911064569
1.910738423
1.911223715
1.910636634
1.9095516
1.904402442
1.905466547
1.902685125
1.90681266
1.906247645
1.907146914
1.904919659
1.903968154
1.907649491
1.903617144
1.905716241
1.907796345
1.906542168
1.907033809
1.90509804
1.90477873
1.905240174
1.907143992
1.908977665
1.903757432
1.90983246
1.912786005
1.905037314
1.904354018
1.904702636
1.90290296
1.907006559
1.906465147
1.90479131
1.900771759
1.904160934
1.903390328
1.904836367
1.905313405
1.908029539
1.905360691
1.90271813
1.906365726
1.902352804
1.906671179
1.906131595
1.904532101
1.899229451
1.900593557
1.901974158
1.904231106
1.90723627
1.902075376
1.904298864
1.906396867
1.904833269
1.903146995
1.903732497
1.90325783
1.899784942
1.900411872
1.89989121
1.902876336
1.904707471
1.904909848
1.899555471
1.904019806
1.904482642
1.902707692
1.90130907
1.903098336
1.901326018
1.898888024
1.898183812
1.900940011
)
;

boundaryField
{
    bottom
    {
        type            calculated;
        value           nonuniform List<scalar> 
200
(
1.903122851
1.904899689
1.900673141
1.903399633
1.898775489
1.900238547
1.901988389
1.898741153
1.900058152
1.897337031
1.895249479
1.896792323
1.899022687
1.90225273
1.897920313
1.891342877
1.899878651
1.899256159
1.901028829
1.89963041
1.897170146
1.897724103
1.899981735
1.900623891
1.900276196
1.898635643
1.902201298
1.900536612
1.897815111
1.896940081
1.901709091
1.898267985
1.897955431
1.897073568
1.897072721
1.900206947
1.898364774
1.903224285
1.900038805
1.901706237
1.898097969
1.89947745
1.902156039
1.899659055
1.901359044
1.903010576
1.901190176
1.903167837
1.902364387
1.898899156
1.901753237
1.900316641
1.904058274
1.899802602
1.899940224
1.899413033
1.903299221
1.904723278
1.905669009
1.906363459
1.905138169
1.902731609
1.905719628
1.900727853
1.906022703
1.904630958
1.89748472
1.898681595
1.903455749
1.903677633
1.904184319
1.9063332
1.905564433
1.905411016
1.910333722
1.906942228
1.904992154
1.899802279
1.907200312
1.906114952
1.903942121
1.904454169
1.903208542
1.907291225
1.910825302
1.907533264
1.906206008
1.907437734
1.909611344
1.907988868
1.907414451
1.90752263
1.90712484
1.906953616
1.913735042
1.911826417
1.909190544
1.910517158
1.910425837
1.906848388
1.908869404
1.908973743
1.910150029
1.909336891
1.904571264
1.908329827
1.908790348
1.907886595
1.910455914
1.907526656
1.904012692
1.903571377
1.905515765
1.907237117
1.906865138
1.910262257
1.9098334
1.904579944
1.909017435
1.911496842
1.911255108
1.909765175
1.90835452
1.905295755
1.906828819
1.907388007
1.908043445
1.909240291
1.909722195
1.906608386
1.905821588
1.906183949
1.909764689
1.909003337
1.907844532
1.909534717
1.910281876
1.902372069
1.907253523
1.908017832
1.905400548
1.90390644
1.905986879
1.90773257
1.90697645
1.906356621
1.907584949
1.907787638
1.907542471
1.904943143
1.905516846
1.906014055
1.907103608
1.905368616
1.9056007
1.901624955
1.907433956
1.908340833
1.909449044
1.904047439
1.901545302
1.899032611
1.907162527
1.906834145
1.901912882
1.903121495
1.902845938
1.903587462
1.903521138
1.908427874
1.903519989
1.907273384
1.902243915
1.901789581
1.910331422
1.903064575
1.899728304
1.903344736
1.906170551
1.908013815
1.90279397
1.900699211
1.90262699
1.901078417
1.902449145
1.900923105
1.901499049
1.901903904
1.905140126
1.905103473
1.900892815
1.899900735
1.904548969
1.901502493
1.905575585
1.899522026
1.898938054
1.897851782
1.898446385
1.90428986
)
;
    }
    top
    {
        type            calculated;
        value           nonuniform List<scalar> 
200
(
1.901201544
1.903449793
1.904490925
1.89960026
1.899201421
1.896886269
1.90137728
1.902856606
1.905038241
1.901726705
1.899499706
1.897568654
1.895291073
1.894402482
1.900050323
1.897125809
1.896243368
1.901207136
1.895204965
1.89668981
1.900559203
1.9024112
1.903763109
1.900355345
1.899383601
1.897496995
1.896407259
1.898800307
1.899294419
1.896142033
1.900649878
1.899407262
1.898699602
1.899181128
1.896164269
1.900657974
1.899415686
1.901582129
1.902387867
1.904199525
1.902056179
1.90162583
1.903248706
1.899342427
1.903554864
1.901776331
1.905547636
1.903973599
1.900670788
1.90176114
1.901835369
1.904947503
1.902712652
1.901498615
1.897901407
1.904705785
1.901135323
1.901491988
1.90223805
1.90396455
1.905566588
1.906492983
1.907364455
1.909309606
1.902584693
1.906041858
1.903998958
1.902090525
1.902720043
1.903271827
1.903009721
1.90717874
1.905320873
1.905770428
1.904223201
1.906747149
1.904686487
1.906193447
1.906515674
1.900560133
1.902008947
1.905273967
1.905457997
1.900774419
1.904003735
1.909913993
1.910092112
1.908539449
1.908498166
1.911050138
1.906484271
1.90770561
1.909543198
1.909897858
1.909480252
1.907524363
1.910450322
1.909313857
1.912122212
1.909339507
1.911559347
1.908270839
1.909979498
1.909460091
1.904958433
1.909294749
1.906876318
1.909845228
1.911370513
1.908013321
1.907115867
1.907826025
1.909210986
1.906906454
1.91094092
1.908886341
1.90840385
1.903485421
1.906422037
1.906257258
1.90555364
1.908987796
1.909026019
1.906391078
1.910237185
1.911064569
1.910738423
1.911223715
1.910636634
1.9095516
1.904402442
1.905466547
1.902685125
1.90681266
1.906247645
1.907146914
1.904919659
1.903968154
1.907649491
1.903617144
1.905716241
1.907796345
1.906542168
1.907033809
1.90509804
1.90477873
1.905240174
1.907143992
1.908977665
1.903757432
1.90983246
1.912786005
1.905037314
1.904354018
1.904702636
1.90290296
1.907006559
1.906465147
1.90479131
1.900771759
1.904160934
1.903390328
1.904836367
1.905313405
1.908029539
1.905360691
1.90271813
1.906365726
1.902352804
1.906671179
1.906131595
1.904532101
1.899229451
1.900593557
1.901974158
1.904231106
1.90723627
1.902075376
1.904298864
1.906396867
1.904833269
1.903146995
1.903732497
1.90325783
1.899784942
1.900411872
1.89989121
1.902876336
1.904707471
1.904909848
1.899555471
1.904019806
1.904482642
1.902707692
1.90130907
1.903098336
1.901326018
1.898888024
1.898183812
1.900940011
)
;
    }
    inlet
    {
        type            cyclic;
    }
    outlet
    {
        type            cyclic;
    }
    back
    {
        type            symmetry;
    }
    front
    {
        type            symmetry;
    }
}


// ************************************************************************* //
