/*--------------------------------*- C++ -*----------------------------------*\
| =========                 |                                                 |
| \\      /  F ield         | OpenFOAM: The Open Source CFD Toolbox           |
|  \\    /   O peration     | Version:  v1706                                 |
|   \\  /    A nd           | Web:      www.OpenFOAM.com                      |
|    \\/     M anipulation  |                                                 |
\*---------------------------------------------------------------------------*/
FoamFile
{
    version     2.0;
    format      ascii;
    class       volScalarField;
    location    "0.3";
    object      overallT_Ar;
}
// * * * * * * * * * * * * * * * * * * * * * * * * * * * * * * * * * * * * * //

dimensions      [0 0 0 1 0 0 0];


internalField   nonuniform List<scalar> 
1000
(
272.5938767
272.711429
272.5866314
272.9172056
272.6340816
272.9133736
272.7022569
272.6225819
272.4079014
272.1759986
272.3372181
272.4304062
272.6927967
272.6950881
272.2330541
271.9988493
272.9266787
272.6287763
272.5884473
272.457017
272.4706008
272.4101343
272.4760552
272.4500156
272.4342337
272.1150201
272.5499971
272.7545085
272.6381906
272.2039644
272.5863299
272.5688811
272.3709821
272.3895842
272.0419941
272.5629974
272.6415972
272.6790025
272.5788178
272.6790963
272.414974
272.7474145
272.8496825
272.6288367
272.6026719
273.1616831
273.0097455
272.959801
272.905261
272.554117
272.4509492
272.5307693
272.9773366
272.5568814
272.6826341
272.5505551
272.9083083
273.0634653
272.9717613
272.954511
273.0135424
272.6646078
272.8388797
272.8000542
273.2595409
273.3333442
272.6636726
272.520156
272.7940884
272.7645359
272.9807486
273.1079635
273.1387293
273.1105646
273.282722
273.0470113
273.1516993
272.8277345
273.3689146
273.2863394
273.1578855
273.2456127
273.0765705
273.1399569
273.4459822
273.3437342
273.4266321
273.8593939
273.5804889
273.2425734
273.3541779
273.4204439
273.8449887
273.8144764
273.9667758
273.6956817
273.8902528
273.7652382
273.3722067
273.186669
273.4358408
273.8669055
273.705495
273.1446679
273.109608
273.5013783
273.371962
273.374084
273.5699835
273.313721
273.3954806
273.2132255
273.4161031
273.835621
273.4103606
273.5045875
273.7349382
273.3510266
273.7265317
273.9187707
273.7851856
273.9958681
273.9628906
273.6903229
273.6883133
273.5765181
273.4986934
273.6597852
273.5754844
273.4300565
273.1174924
273.0603841
273.5207626
273.5424744
273.5297695
273.3949309
273.3649349
273.0622642
273.3650833
273.2891951
273.5989561
273.268499
273.3049575
273.801417
273.235153
273.2870309
273.7083099
273.9034717
273.6860619
273.1529912
272.9910161
273.3865363
273.2710409
273.3638629
273.5764831
272.9907982
273.2557392
273.4580492
273.404907
273.3400537
272.7696924
272.9907903
273.4766395
273.2837969
272.9446011
273.2863523
273.1115975
273.2449902
272.8055492
273.2769379
272.8488165
273.35174
272.4656865
272.5941467
273.1744338
272.7898559
272.3764433
272.8793005
273.4408638
273.250405
272.9645914
272.7496808
272.9760117
272.8160707
272.7274492
272.8845809
272.6483179
272.9286741
273.2046619
273.0126135
272.882685
273.2030424
273.3919995
272.9458605
272.818046
272.5268669
272.1745716
272.3277675
272.755005
272.9006416
272.8929875
272.7636256
272.8178489
272.7220873
272.3491198
272.910473
272.8516114
272.5019381
272.504215
272.2006401
271.9135118
272.3502171
272.3726128
272.5687344
272.2464805
271.9168034
272.4531663
272.3474347
272.5356392
272.3627187
272.2544999
272.9152362
272.5893048
272.6277161
272.7001327
272.8154375
272.4255312
272.4956384
272.4791755
272.1830156
272.2643205
272.1660113
272.2425172
272.3825462
272.5566929
272.3713724
272.7345391
272.7781215
272.6203617
272.4883353
272.984685
272.5109658
272.6676944
272.6603998
272.9891191
272.8497118
272.8426205
272.6734391
272.4967304
272.7908022
272.5602637
272.4396536
272.7777839
272.564974
272.5169634
272.7995469
273.0132046
272.7081488
273.0732322
273.1343105
273.3884523
273.1152427
273.2025155
273.1347393
273.3081866
272.9452654
273.0486265
272.9261311
272.7974243
273.1964698
273.1121409
273.3939763
273.1379083
272.9154396
273.249522
273.3894304
273.4316113
273.3588992
273.4556668
273.0013219
273.2862897
273.0593527
273.3633665
273.178812
273.2185931
273.2737206
273.2450104
273.5430024
273.508945
273.4821485
273.4718736
273.1294985
273.2348054
273.6926078
273.4458456
273.5490568
273.7400617
273.8455379
273.2716185
273.6197175
273.6899472
273.8385045
273.6584094
273.5020424
273.5720882
273.7482158
273.310475
273.4095331
273.116568
273.1285761
273.298136
273.4925672
273.3766961
273.6364347
273.5126268
273.7734529
273.6039361
273.6782097
273.6010686
274.0504058
273.6013073
273.4573448
273.7388752
273.8765203
273.6029519
273.7374403
273.4439458
273.6516252
273.4600522
273.2756768
273.3922428
273.3669366
273.3992476
273.5895862
273.6637028
274.0549063
273.3933193
273.7041691
273.5957452
273.6682864
273.5603406
273.0004701
273.2737259
273.6377609
273.7533872
273.4023083
273.5055584
273.4864166
273.4723389
273.3909397
273.3011855
273.1654198
273.0288753
273.3600838
273.2161069
273.2495919
273.0299975
273.2744268
273.3309571
273.2912839
273.2388309
272.9303681
273.1887217
273.3434209
273.2792934
273.1099059
273.394972
273.2483258
273.0688097
272.8063234
273.0252851
272.9260468
272.896842
272.8952158
272.9905102
272.9060452
273.198112
272.8397395
273.0516787
273.0106735
273.3212687
272.9818631
272.6502059
273.1547629
272.780217
272.6113202
272.9137515
272.9463832
273.311984
273.4729283
272.9778612
273.088563
273.2311409
273.3371814
273.2075361
272.8750906
272.5130303
273.1515498
272.6815167
272.6179364
272.6268676
272.8838099
272.7611904
272.8606403
273.0723252
272.9325596
273.0651076
272.9540667
272.636523
272.089542
271.8329765
272.4173554
272.1284424
272.277166
272.1765585
272.718089
272.3007536
272.6320401
272.2816578
272.094946
272.9070685
272.9321974
272.6207105
272.496657
272.31898
272.4533194
272.7116326
272.632568
272.7363095
272.3682683
272.055164
272.517843
272.4087904
272.6784952
272.1577645
272.7870431
272.8186654
272.6952981
272.5204647
272.5627164
272.8866781
272.6329291
272.6725908
272.954082
272.8564235
272.9871867
273.007595
272.8248469
272.6577317
272.7585449
272.8902177
272.744728
272.7231425
272.625409
272.7094889
272.9198968
272.7520596
272.7585054
272.9519747
273.1257121
273.4083191
273.110693
273.3104727
273.0469197
273.3761481
273.1537816
273.0401577
272.4321363
272.8162376
272.7927485
272.8496862
272.9473956
273.114018
273.132354
273.3627406
273.4199769
273.3967816
273.4649331
273.3071677
273.2120149
273.0984566
272.9926345
273.1324294
272.9217142
273.0383009
273.3950052
273.4269594
273.9020175
273.3722842
273.4535389
273.4473801
273.310192
273.3077051
273.6685108
273.5816331
273.4322596
273.5322328
273.5721615
273.7748642
273.548677
273.7517296
273.6946897
273.4025657
273.7002912
273.6792151
273.7302584
273.2788836
273.8731355
273.4761614
273.3736597
273.0960801
273.8118996
273.1422451
273.5356119
273.474484
273.79505
273.6385454
273.3773039
273.7094949
273.5912224
273.498164
273.5688602
273.4371857
273.4213263
273.337341
273.6331334
273.5943346
273.5969348
273.7575546
273.6579797
273.5209333
273.4980804
273.2697367
273.5807389
273.4714498
273.5126905
273.2423062
273.1497108
273.4607791
273.706366
273.8028423
273.3705311
273.2166658
273.3762364
273.2446576
272.9539847
273.2341451
273.37103
273.2979825
273.435379
273.3934761
273.0179378
273.5504106
273.0611626
273.4430169
273.1896971
272.9627319
272.9479751
273.0148556
273.1164121
272.9832337
273.2740452
273.29254
273.4025676
273.3531493
273.3803566
273.1676713
273.3586562
272.8201744
272.8082794
272.6628359
272.8407326
273.243849
272.9728293
272.9901242
273.0382691
273.1823839
273.2678128
272.8887064
272.7555592
272.6900001
273.4271213
273.0656957
273.1493627
272.9562657
273.0764735
273.1167389
273.2092932
273.3266497
273.103454
272.7207949
273.0525884
273.1406892
273.1032202
272.6317246
272.8485899
272.7950208
273.3329558
273.0139825
272.6522102
272.7721104
272.6419484
272.6489461
272.9666975
273.2897179
272.9060648
272.8362605
272.8908381
272.4660982
272.441622
272.7701517
272.289891
271.8789037
272.2112952
272.4194731
272.4609474
272.7445643
272.3490123
272.6003311
272.7580338
272.8806083
273.0028489
272.7564308
272.7708602
272.415113
272.3704638
272.4209808
272.7819059
272.7127997
272.3707385
272.5443319
272.457937
272.3955633
272.1209718
272.2769277
272.2523555
272.7167882
272.9997471
272.7070274
272.5884704
272.6422359
272.881107
273.0556713
272.8354476
272.9622066
273.0153429
272.683417
272.9560053
272.3906742
272.7724863
272.9656749
273.0361035
272.737529
272.8357748
272.5994208
273.0573519
273.0288956
272.8279401
273.1435421
272.9836574
272.7900674
273.0233566
273.3858925
273.2583653
273.4104662
272.9281152
273.0697339
272.7005111
272.5239285
272.8523184
272.8023972
272.8389214
273.1940529
273.2677771
273.5205132
273.0318273
272.857732
273.3947523
273.2791953
273.1212372
273.1197653
273.0586963
272.9293476
273.1932191
273.4846563
273.4444509
273.3376946
273.2917557
273.2396182
273.3075423
273.7881369
273.4340396
273.6769411
273.6305106
273.7190478
273.5968153
273.5851945
273.4826441
273.3212298
273.2510326
273.3183844
273.370329
273.6709749
273.9148162
273.4944644
273.9047584
273.5472329
273.9140603
273.7095977
273.522362
273.6837741
273.1077573
273.2061034
273.4659319
273.5916369
273.5613597
273.6779678
273.3696302
273.430601
273.1574309
273.085848
273.4873425
273.9039017
273.4337809
273.5272391
273.3594607
273.513266
273.7348964
273.7750197
273.384049
273.4546653
273.1135926
273.7226251
273.6798196
273.2040741
273.4526449
273.3262459
273.5002687
273.0612946
273.3048084
273.4181631
273.2289027
273.0119722
273.2350188
273.124468
273.2540604
273.5351096
273.1126679
273.5482504
273.0138651
273.3928972
273.1952476
273.3744121
273.1021206
273.6567383
273.7925553
273.6532652
273.3093971
273.3809941
272.812551
272.9261381
273.2054897
273.2936101
273.7495723
273.550246
272.7801042
273.257787
272.9728354
272.5789816
272.5874826
272.7250392
272.7076796
272.6479425
272.8526078
272.8108337
272.8383554
273.3458669
273.1271528
272.5515159
272.9505472
272.5335832
272.964848
273.0678975
272.7519853
272.7034429
273.3399799
272.7384923
272.7996973
272.8763735
273.1709098
272.8509544
272.8210085
272.931255
272.7755447
272.7209634
272.7044051
272.5788025
272.8736108
272.8782173
272.9926563
273.0414929
272.550362
272.8238062
272.6915656
272.4295043
272.4728356
272.7294396
272.6690619
273.0838084
272.9577242
272.4292027
272.2172494
271.9997816
272.1348974
272.4270346
272.1892199
272.29257
272.7308327
272.1951
272.2609465
272.8594069
272.8309054
272.7815929
272.4315602
272.7226711
272.4211539
272.2366635
272.5758578
272.681366
272.3606022
272.6114959
272.8353506
272.2516207
272.3265816
272.1168367
272.676219
272.4662797
272.5423259
272.6035178
272.7403351
272.3484638
272.5731868
272.8650691
272.8967601
273.0972809
272.7835771
273.03363
272.6775457
272.9732144
272.5538037
272.7880974
272.7489773
272.7694933
272.7583824
272.5619148
272.9360003
272.6571827
272.7531102
272.7438231
272.7333537
272.9572401
273.2176037
273.4965329
273.3974385
272.8751173
273.0920784
272.7661849
272.7156707
273.0102466
273.0366345
273.0596581
273.3534016
273.1971915
273.0754062
273.1004082
273.3269976
273.3236503
273.1366944
273.264627
272.8028768
272.6364027
272.8069475
273.0128417
272.8730703
273.0968699
273.6382217
273.5099854
273.4984841
273.5644244
273.6504892
273.6037903
273.3288481
273.7610031
273.8032405
273.5683638
273.3588241
273.7028757
273.5413966
273.5377398
273.5044322
273.5475568
273.3743343
273.7621414
273.5449909
273.5119068
273.4282872
273.3546094
273.8270272
273.6162675
273.8034348
273.4868213
273.662029
273.4690831
273.3663303
273.6481737
273.6847648
273.6239614
273.6330571
273.6872684
273.818946
273.6074783
273.7061637
273.3754957
273.2346964
273.6506497
273.6812247
273.8871613
273.4215202
273.7501058
273.6401851
273.2308878
273.7757503
272.9616978
273.0915658
273.2174537
273.4834536
273.5813993
273.2852792
273.2984804
273.1128441
273.1528693
273.5758511
273.1444068
273.4163653
273.3006117
273.2173843
273.0599621
273.1929922
273.2430333
272.7491573
273.6641861
273.9276145
273.6617487
273.4444336
273.1744361
273.4710161
273.6933746
273.309539
273.2903091
273.1634262
273.0402884
273.0071497
272.9602572
273.2531095
273.6223659
273.1846331
272.9236097
272.9319605
272.6012801
272.8941807
272.9842008
272.8041683
272.5863138
272.4220383
272.8596745
272.9839679
273.5458478
273.0183612
273.0451437
273.0363216
272.9698786
273.1780772
272.7004656
272.8446307
272.8549685
272.6119189
272.7260439
272.9129038
273.2721549
273.0955709
272.6142894
272.6135183
272.8398642
272.777867
272.9489682
272.958198
272.8196686
272.5075055
272.372591
272.7453896
)
;

boundaryField
{
    bottom
    {
        type            calculated;
        value           nonuniform List<scalar> 
200
(
272.5938767
272.711429
272.5866314
272.9172056
272.6340816
272.9133736
272.7022569
272.6225819
272.4079014
272.1759986
272.3372181
272.4304062
272.6927967
272.6950881
272.2330541
271.9988493
272.9266787
272.6287763
272.5884473
272.457017
272.4706008
272.4101343
272.4760552
272.4500156
272.4342337
272.1150201
272.5499971
272.7545085
272.6381906
272.2039644
272.5863299
272.5688811
272.3709821
272.3895842
272.0419941
272.5629974
272.6415972
272.6790025
272.5788178
272.6790963
272.414974
272.7474145
272.8496825
272.6288367
272.6026719
273.1616831
273.0097455
272.959801
272.905261
272.554117
272.4509492
272.5307693
272.9773366
272.5568814
272.6826341
272.5505551
272.9083083
273.0634653
272.9717613
272.954511
273.0135424
272.6646078
272.8388797
272.8000542
273.2595409
273.3333442
272.6636726
272.520156
272.7940884
272.7645359
272.9807486
273.1079635
273.1387293
273.1105646
273.282722
273.0470113
273.1516993
272.8277345
273.3689146
273.2863394
273.1578855
273.2456127
273.0765705
273.1399569
273.4459822
273.3437342
273.4266321
273.8593939
273.5804889
273.2425734
273.3541779
273.4204439
273.8449887
273.8144764
273.9667758
273.6956817
273.8902528
273.7652382
273.3722067
273.186669
273.4358408
273.8669055
273.705495
273.1446679
273.109608
273.5013783
273.371962
273.374084
273.5699835
273.313721
273.3954806
273.2132255
273.4161031
273.835621
273.4103606
273.5045875
273.7349382
273.3510266
273.7265317
273.9187707
273.7851856
273.9958681
273.9628906
273.6903229
273.6883133
273.5765181
273.4986934
273.6597852
273.5754844
273.4300565
273.1174924
273.0603841
273.5207626
273.5424744
273.5297695
273.3949309
273.3649349
273.0622642
273.3650833
273.2891951
273.5989561
273.268499
273.3049575
273.801417
273.235153
273.2870309
273.7083099
273.9034717
273.6860619
273.1529912
272.9910161
273.3865363
273.2710409
273.3638629
273.5764831
272.9907982
273.2557392
273.4580492
273.404907
273.3400537
272.7696924
272.9907903
273.4766395
273.2837969
272.9446011
273.2863523
273.1115975
273.2449902
272.8055492
273.2769379
272.8488165
273.35174
272.4656865
272.5941467
273.1744338
272.7898559
272.3764433
272.8793005
273.4408638
273.250405
272.9645914
272.7496808
272.9760117
272.8160707
272.7274492
272.8845809
272.6483179
272.9286741
273.2046619
273.0126135
272.882685
273.2030424
273.3919995
272.9458605
272.818046
272.5268669
272.1745716
272.3277675
272.755005
272.9006416
)
;
    }
    top
    {
        type            calculated;
        value           nonuniform List<scalar> 
200
(
273.0414929
272.550362
272.8238062
272.6915656
272.4295043
272.4728356
272.7294396
272.6690619
273.0838084
272.9577242
272.4292027
272.2172494
271.9997816
272.1348974
272.4270346
272.1892199
272.29257
272.7308327
272.1951
272.2609465
272.8594069
272.8309054
272.7815929
272.4315602
272.7226711
272.4211539
272.2366635
272.5758578
272.681366
272.3606022
272.6114959
272.8353506
272.2516207
272.3265816
272.1168367
272.676219
272.4662797
272.5423259
272.6035178
272.7403351
272.3484638
272.5731868
272.8650691
272.8967601
273.0972809
272.7835771
273.03363
272.6775457
272.9732144
272.5538037
272.7880974
272.7489773
272.7694933
272.7583824
272.5619148
272.9360003
272.6571827
272.7531102
272.7438231
272.7333537
272.9572401
273.2176037
273.4965329
273.3974385
272.8751173
273.0920784
272.7661849
272.7156707
273.0102466
273.0366345
273.0596581
273.3534016
273.1971915
273.0754062
273.1004082
273.3269976
273.3236503
273.1366944
273.264627
272.8028768
272.6364027
272.8069475
273.0128417
272.8730703
273.0968699
273.6382217
273.5099854
273.4984841
273.5644244
273.6504892
273.6037903
273.3288481
273.7610031
273.8032405
273.5683638
273.3588241
273.7028757
273.5413966
273.5377398
273.5044322
273.5475568
273.3743343
273.7621414
273.5449909
273.5119068
273.4282872
273.3546094
273.8270272
273.6162675
273.8034348
273.4868213
273.662029
273.4690831
273.3663303
273.6481737
273.6847648
273.6239614
273.6330571
273.6872684
273.818946
273.6074783
273.7061637
273.3754957
273.2346964
273.6506497
273.6812247
273.8871613
273.4215202
273.7501058
273.6401851
273.2308878
273.7757503
272.9616978
273.0915658
273.2174537
273.4834536
273.5813993
273.2852792
273.2984804
273.1128441
273.1528693
273.5758511
273.1444068
273.4163653
273.3006117
273.2173843
273.0599621
273.1929922
273.2430333
272.7491573
273.6641861
273.9276145
273.6617487
273.4444336
273.1744361
273.4710161
273.6933746
273.309539
273.2903091
273.1634262
273.0402884
273.0071497
272.9602572
273.2531095
273.6223659
273.1846331
272.9236097
272.9319605
272.6012801
272.8941807
272.9842008
272.8041683
272.5863138
272.4220383
272.8596745
272.9839679
273.5458478
273.0183612
273.0451437
273.0363216
272.9698786
273.1780772
272.7004656
272.8446307
272.8549685
272.6119189
272.7260439
272.9129038
273.2721549
273.0955709
272.6142894
272.6135183
272.8398642
272.777867
272.9489682
272.958198
272.8196686
272.5075055
272.372591
272.7453896
)
;
    }
    inlet
    {
        type            cyclic;
    }
    outlet
    {
        type            cyclic;
    }
    back
    {
        type            symmetry;
    }
    front
    {
        type            symmetry;
    }
}


// ************************************************************************* //
