/*--------------------------------*- C++ -*----------------------------------*\
| =========                 |                                                 |
| \\      /  F ield         | OpenFOAM: The Open Source CFD Toolbox           |
|  \\    /   O peration     | Version:  v1706                                 |
|   \\  /    A nd           | Web:      www.OpenFOAM.com                      |
|    \\/     M anipulation  |                                                 |
\*---------------------------------------------------------------------------*/
FoamFile
{
    version     2.0;
    format      ascii;
    class       volScalarField;
    location    "0.3";
    object      p_Ar;
}
// * * * * * * * * * * * * * * * * * * * * * * * * * * * * * * * * * * * * * //

dimensions      [1 -1 -2 0 0 0 0];


internalField   nonuniform List<scalar> 
1000
(
0.5267613715
0.5265673429
0.5274219309
0.5275032949
0.5280694359
0.5283710887
0.5273501039
0.5280498058
0.5271395151
0.5273068897
0.5282973572
0.5281042736
0.5281496634
0.5272586642
0.5272895989
0.5285270839
0.5285049297
0.5279223322
0.5273278507
0.5273827511
0.5281011544
0.5277935219
0.5273334998
0.527089337
0.5271457749
0.5267915771
0.5269054399
0.527885407
0.5283470936
0.5274882248
0.5271338556
0.5280451404
0.5276298344
0.5279223344
0.5270402373
0.5274914092
0.528202759
0.526948788
0.5275782014
0.5273696657
0.5277018446
0.5281617639
0.5276770922
0.5278105191
0.5272723103
0.5282303713
0.5283509263
0.5276754098
0.5277600962
0.5278321687
0.5267786923
0.5273792604
0.5274730288
0.5275881691
0.5278688324
0.527680332
0.5275085951
0.5275068227
0.5270130901
0.5267774977
0.5272656378
0.5270487813
0.5266630484
0.5279477603
0.5276431165
0.5282155042
0.528503792
0.5278064842
0.5271760404
0.5270397904
0.5274467496
0.5271738547
0.5274643631
0.5274355776
0.526510898
0.526851416
0.5276556399
0.5282751849
0.527593829
0.5276853651
0.5279623074
0.5280424301
0.5279598493
0.5269899187
0.5267874266
0.5274380891
0.5280150352
0.5287684085
0.5274620046
0.5270565103
0.527497344
0.5276349418
0.52881872
0.5287890087
0.5272991801
0.5271415001
0.5283609338
0.5276783685
0.5267113596
0.5272303988
0.5273015727
0.5283619322
0.5276289121
0.5264371952
0.5276657102
0.527616283
0.5271620377
0.5274171141
0.5272023041
0.5273640514
0.5285443843
0.5282052863
0.5281796551
0.5287638925
0.5277913726
0.5270906459
0.5277907542
0.5282744183
0.5279951037
0.5277954274
0.5275249765
0.5284687926
0.5287760537
0.5289347826
0.5285044428
0.5280667973
0.5276886876
0.5277648393
0.5274187488
0.5279122618
0.5273394748
0.527094813
0.52726882
0.5275339578
0.5278222599
0.5270145423
0.5267326975
0.5281557437
0.5275694231
0.5271663168
0.5286744028
0.5282522963
0.5277679206
0.5285400719
0.5273175655
0.5276202196
0.5283455193
0.5287828985
0.528301025
0.5276724848
0.5271038768
0.527966771
0.5273731327
0.5280882385
0.5285619949
0.5281821023
0.5272431199
0.5275037444
0.5270633818
0.5283943732
0.5276438627
0.5289030966
0.5278766605
0.5274799113
0.5279850725
0.5285154046
0.5281491891
0.5282812723
0.527186944
0.5270220844
0.5272967975
0.5275301957
0.5266801296
0.5271313474
0.5262382433
0.5272736841
0.5271512833
0.5274225324
0.5280608603
0.5270694083
0.5277912231
0.5278280094
0.527866473
0.5278910034
0.5272861889
0.5281078153
0.5273491412
0.5279472048
0.5277486758
0.5272728902
0.5281114241
0.5291999484
0.5283867445
0.5281022159
0.5266501734
0.5275899787
0.5268586908
0.5275489814
0.5284678797
0.5272147748
0.5286278163
0.5275708436
0.5276479394
0.5277829856
0.5276858717
0.5281241778
0.5275793857
0.5276864112
0.5278529123
0.5272644341
0.5271526019
0.5279600532
0.5281883751
0.5265118855
0.5274843642
0.5265959602
0.5274906782
0.5273988886
0.5284457087
0.5282840907
0.5269548825
0.5270093904
0.5275804343
0.5270380629
0.5271985537
0.5268146912
0.5279730691
0.5279684354
0.528354063
0.5277256769
0.527608706
0.5284214373
0.5277305912
0.5283080198
0.5273265566
0.5272149914
0.5280233149
0.5275684584
0.5267338943
0.5273127812
0.5282624947
0.527808066
0.5279415005
0.5278006695
0.5276855343
0.5274079023
0.5275174587
0.5273992727
0.5272076817
0.5271042115
0.5271852172
0.527672148
0.5282432796
0.5276375373
0.5270710723
0.528276826
0.5281590399
0.5271474903
0.52688612
0.5271860816
0.5268767759
0.5269996248
0.5271342432
0.5278416345
0.5285642571
0.5267766398
0.5279543713
0.5278889064
0.5271749909
0.5272334165
0.5268653983
0.5279610325
0.5275579191
0.5270971276
0.5278382029
0.528282573
0.5282471808
0.5282105416
0.5281256918
0.5274701738
0.528206513
0.5274926988
0.5280594426
0.5271660016
0.5266757257
0.5269675123
0.5272071815
0.5277620184
0.528049983
0.5278685073
0.5277428082
0.5272659726
0.5277115079
0.5271703071
0.5273606453
0.5278207893
0.5279189924
0.527954206
0.5268470687
0.5275018133
0.5279296227
0.5276759565
0.5272853505
0.5275976704
0.5272580967
0.5279298506
0.5264905916
0.5269938571
0.527629052
0.5280378805
0.5274731314
0.5283127788
0.5274522013
0.5280075217
0.527110781
0.5274481614
0.5274309235
0.5287735757
0.5278727222
0.5285396521
0.5277573156
0.5272924317
0.5278472374
0.5281440873
0.527998415
0.5278274356
0.5276869245
0.5282555617
0.5270923372
0.5277027644
0.5278916203
0.5277610122
0.527361591
0.5278987709
0.5279964409
0.5283893041
0.5280733333
0.5285724445
0.5279867187
0.5281348927
0.5282924746
0.52813639
0.527886062
0.5275043105
0.5280484543
0.5273809733
0.528300518
0.5276537285
0.5278097901
0.5273563923
0.5284221661
0.5276472629
0.5281220552
0.5281516342
0.5283702813
0.5281307251
0.5268210146
0.5271621234
0.5283752422
0.5277828186
0.5284941666
0.5274374164
0.5279647242
0.5275103855
0.5278714178
0.5274740357
0.5279989708
0.5280927235
0.5271836842
0.5278686151
0.5271618809
0.5276302297
0.527678973
0.5275218846
0.5276339491
0.527702503
0.5280862039
0.5276706521
0.5277060538
0.5272479617
0.5284035641
0.5278259426
0.5266146141
0.5284635778
0.5286842757
0.5270817163
0.5277571058
0.5273768202
0.5283721403
0.5278991133
0.5282031807
0.5280933884
0.5284349077
0.5286603156
0.527519515
0.5270341955
0.5268234025
0.5276995026
0.5272586486
0.5274393184
0.5274440388
0.5282419557
0.5276529876
0.5273165605
0.5282526669
0.5270543129
0.5276900761
0.527760505
0.5279106718
0.5270246037
0.5282755134
0.5286643899
0.5283210045
0.5278479279
0.5271368384
0.5281810168
0.5275642117
0.5284186823
0.52787402
0.5270286937
0.527559133
0.5274319077
0.5278522925
0.527248502
0.5276364984
0.5278507698
0.5279362092
0.5283886378
0.526846165
0.527547754
0.5274892234
0.5277581758
0.5275619551
0.5277929449
0.5272189943
0.5287221974
0.5274537251
0.5271330081
0.5273485276
0.5285964567
0.5278200956
0.5271287843
0.527499002
0.528444828
0.5276356609
0.5281012057
0.5275350273
0.5277895803
0.5281901659
0.5274250056
0.52798375
0.5278314299
0.528070019
0.5286457711
0.528499589
0.5280989621
0.5283471063
0.5271650312
0.527191073
0.5270803082
0.5285172777
0.5274296453
0.5274085875
0.5276028499
0.5278143671
0.5279431167
0.5275964039
0.5272053475
0.5270345173
0.5278533715
0.5266609748
0.5268464876
0.5269389899
0.526818744
0.5276314012
0.5280852696
0.528015502
0.5275240959
0.5283115845
0.5271724444
0.5279041663
0.5278765544
0.5275237175
0.5267086885
0.5271759786
0.528075927
0.5270826911
0.5276856696
0.5279438869
0.5275887485
0.5274948763
0.5265605088
0.5273219616
0.5278115256
0.5272342618
0.5283416884
0.5278581833
0.5279476186
0.5276504577
0.5271247661
0.5280072033
0.5280053506
0.5270087105
0.5270242937
0.5270960716
0.5286111027
0.5281338913
0.5282052903
0.527924804
0.5282207256
0.5269162995
0.52876478
0.527220381
0.5278731049
0.5274474821
0.5279852096
0.5276873876
0.5279420922
0.527429351
0.5280449876
0.5272564226
0.527323731
0.5277527718
0.5277283492
0.5281604904
0.5284332713
0.5286115206
0.5280785668
0.5279432146
0.5290009949
0.5281016444
0.5280871401
0.5278253513
0.5282958274
0.5280138395
0.5273803625
0.5279960701
0.5280193567
0.5280087073
0.5285890746
0.5287539277
0.5286183269
0.5280697361
0.5283397088
0.5280012763
0.5282750001
0.5275611765
0.5271407983
0.527577972
0.5269855555
0.5282351526
0.527652319
0.5289584234
0.5279532318
0.5282970606
0.5276416094
0.5273991432
0.527241805
0.52795615
0.5279929531
0.5277290926
0.5283071887
0.5270004896
0.5287138621
0.5279226184
0.527996153
0.527697532
0.5273813844
0.5274599499
0.5276878584
0.5275532908
0.5272586833
0.5280306301
0.5279095157
0.5270745763
0.5271233988
0.5267251485
0.5278571923
0.5269817587
0.5275724361
0.5272250251
0.5283814805
0.5276810609
0.5277937342
0.5275152589
0.5284915402
0.5268301226
0.5275940066
0.5281628054
0.5276984054
0.5275755043
0.5275603996
0.5278844793
0.5270179213
0.5276997723
0.528329239
0.5280846309
0.5275255341
0.5277311679
0.5282892058
0.526765636
0.5268282646
0.5276859507
0.5280582597
0.5285928122
0.5280741822
0.5275018547
0.5281439645
0.5273906402
0.5282482169
0.5288603059
0.5275847577
0.527154283
0.5272599938
0.5273228485
0.5273919003
0.5280901162
0.5267590068
0.5284363154
0.5284525859
0.52753158
0.5289436692
0.5274932213
0.527574696
0.5282410702
0.5277818177
0.5279107498
0.5280823908
0.5278613278
0.527995212
0.5271425077
0.5274248278
0.5272864728
0.5275396251
0.5279196425
0.5271597608
0.5274110448
0.5277204194
0.5283407605
0.527373498
0.5275940801
0.5276719245
0.527401729
0.5268398807
0.5278179377
0.5280288026
0.5271093803
0.5280779452
0.5276847122
0.5286518769
0.5273801215
0.5276093123
0.5279352035
0.5296538959
0.5271712883
0.5267897165
0.5279943334
0.5277944618
0.5272604122
0.5269219961
0.5275340211
0.5278587321
0.527423767
0.5273449164
0.5284856316
0.5275704818
0.5276387677
0.5277324148
0.5270770548
0.5275955274
0.5259700048
0.5274437145
0.5272093226
0.5276040281
0.528243193
0.5277283701
0.5269911865
0.5282380602
0.5286296625
0.5281075706
0.5278093859
0.5267733315
0.5267598153
0.5272097006
0.528405137
0.5268881228
0.5274969047
0.5271372422
0.5276084013
0.5274619083
0.5275512413
0.5270254032
0.5278580866
0.5273527821
0.5274032948
0.5271938683
0.5276302744
0.5272218614
0.5270445477
0.5274926394
0.5267892322
0.5274222418
0.5281113279
0.5274951515
0.5280262258
0.5282935078
0.5278415885
0.5278352747
0.5278500657
0.5276923531
0.5279433729
0.5276449182
0.5266896276
0.5275618264
0.528838698
0.5279389327
0.5283435719
0.5273371599
0.5277986231
0.5272839109
0.5267228634
0.5271265936
0.5275529386
0.5278326053
0.5276299176
0.5272952293
0.528517224
0.5279526129
0.52750207
0.5278901604
0.5275772195
0.5281601105
0.5288509844
0.5281175579
0.5277724907
0.5286495937
0.5280078381
0.5284963087
0.5282059498
0.5279425703
0.5278057717
0.5281702325
0.5280041906
0.5278375691
0.5279657044
0.5283825065
0.5272109239
0.5273513492
0.5281703046
0.5270277428
0.5282446398
0.5280027273
0.5285390033
0.5281019485
0.528439268
0.5275697123
0.5286557143
0.5281447083
0.5282991916
0.5280663119
0.5284110209
0.5276646043
0.5282884695
0.528614772
0.527934729
0.5268073077
0.5281143213
0.527368806
0.5270026691
0.5276266956
0.5283456805
0.5275194974
0.5270126016
0.5273451402
0.5279132807
0.5267239978
0.5275316745
0.5272546014
0.5264074773
0.5268561004
0.5269239266
0.5277387736
0.5276021159
0.5273314222
0.5263927977
0.5283902542
0.5280953321
0.5279056207
0.5272746303
0.5282850826
0.5281472624
0.5267663577
0.5271746561
0.5274744115
0.5277402553
0.5283909995
0.5279619242
0.5281439237
0.527515931
0.528056409
0.5284282547
0.52656076
0.5269646901
0.527985957
0.5274320968
0.528185862
0.5275884803
0.5270254377
0.527471083
0.52807002
0.5273485076
0.5273472075
0.5274284453
0.5280192487
0.5271901906
0.527399158
0.5279070592
0.5276392261
0.5279486325
0.5277025047
0.5281450998
0.5275587529
0.5270593002
0.5271170433
0.5281250904
0.5278846651
0.5277194641
0.5279148059
0.5280451035
0.5281080736
0.5274914119
0.5284043724
0.5271202728
0.5271767121
0.5274827863
0.5276532301
0.5274658605
0.5270575703
0.5269893005
0.526834103
0.5264352676
0.5271236393
0.527413109
0.5285782223
0.52791624
0.5276149447
0.5272031487
0.5267377193
0.5284026685
0.5270370335
0.527610019
0.5266491016
0.5273196388
0.5276281569
0.5281294492
0.5271891158
0.5274724997
0.5276166357
0.5273861784
0.5268814532
0.5270046881
0.5274069092
0.5278710735
0.5270830113
0.5276226309
0.5272142604
0.5269550188
0.5273557662
0.5279273792
0.5278411531
0.5279721705
0.5275605755
0.5276797091
0.5272471792
0.5277388705
0.5276132185
0.5281755647
0.5272851619
0.5275195449
0.5280015069
0.5271775855
0.5267054753
0.5271753646
0.5281199421
0.5277907428
0.5275242179
0.5271512262
0.5275510197
0.5277290626
0.5272415603
0.528386113
0.5273528147
0.5279368113
0.527945462
0.5274675908
0.5274786943
0.5275393634
0.5274454399
0.5266615517
0.5273449874
0.5268413972
0.5273115471
0.5278190885
0.5274141246
0.5285767121
0.5271650247
0.5276472984
0.5280200968
0.5270668282
0.5284674028
0.5279153223
0.5281617427
0.5272911963
0.5276685973
0.5272658496
0.5279258195
0.5279056123
0.5292927195
0.5286145684
0.5289934877
0.5286535001
0.5279518338
0.5271058846
0.5274783277
0.5274663473
0.5273151553
0.527925105
0.526615892
0.5276071654
0.5276292906
0.5280194951
0.5291036413
0.527814086
0.5269998455
0.5274744086
0.5278982124
0.528763412
0.5282776661
0.5272915736
0.5279383787
0.5274581139
0.5279520857
0.5272082179
0.5277598747
0.5280031565
0.527881007
0.5273548459
0.5271646631
0.5267846711
0.5269787744
0.5276123138
0.5274620166
0.5289341888
0.5285736089
0.5277933909
0.5290440384
0.5284679867
0.5276471083
0.5280621026
0.5288569665
0.5276039383
0.5277336258
0.5272143501
0.5278232697
0.528005142
0.5276369068
0.5277084537
0.52671986
0.5269933464
0.5265399841
0.5269166469
0.5269036091
0.5278220425
0.5270268449
0.5277528696
0.5274419389
0.5280312517
0.5281268717
0.527578013
0.5269751042
0.5272395518
0.5282340348
0.5268624374
0.5273588301
0.5283490877
0.5275585469
0.5279925412
0.5276374648
0.5280393922
0.5275364001
0.5278024049
0.5265629213
0.5270076139
0.5273422202
0.5281638183
0.5276906208
0.5278313777
0.5277170133
0.5275704347
0.5277502699
)
;

boundaryField
{
    bottom
    {
        type            calculated;
        value           nonuniform List<scalar> 
200
(
0.5267613715
0.5265673429
0.5274219309
0.5275032949
0.5280694359
0.5283710887
0.5273501039
0.5280498058
0.5271395151
0.5273068897
0.5282973572
0.5281042736
0.5281496634
0.5272586642
0.5272895989
0.5285270839
0.5285049297
0.5279223322
0.5273278507
0.5273827511
0.5281011544
0.5277935219
0.5273334998
0.527089337
0.5271457749
0.5267915771
0.5269054399
0.527885407
0.5283470936
0.5274882248
0.5271338556
0.5280451404
0.5276298344
0.5279223344
0.5270402373
0.5274914092
0.528202759
0.526948788
0.5275782014
0.5273696657
0.5277018446
0.5281617639
0.5276770922
0.5278105191
0.5272723103
0.5282303713
0.5283509263
0.5276754098
0.5277600962
0.5278321687
0.5267786923
0.5273792604
0.5274730288
0.5275881691
0.5278688324
0.527680332
0.5275085951
0.5275068227
0.5270130901
0.5267774977
0.5272656378
0.5270487813
0.5266630484
0.5279477603
0.5276431165
0.5282155042
0.528503792
0.5278064842
0.5271760404
0.5270397904
0.5274467496
0.5271738547
0.5274643631
0.5274355776
0.526510898
0.526851416
0.5276556399
0.5282751849
0.527593829
0.5276853651
0.5279623074
0.5280424301
0.5279598493
0.5269899187
0.5267874266
0.5274380891
0.5280150352
0.5287684085
0.5274620046
0.5270565103
0.527497344
0.5276349418
0.52881872
0.5287890087
0.5272991801
0.5271415001
0.5283609338
0.5276783685
0.5267113596
0.5272303988
0.5273015727
0.5283619322
0.5276289121
0.5264371952
0.5276657102
0.527616283
0.5271620377
0.5274171141
0.5272023041
0.5273640514
0.5285443843
0.5282052863
0.5281796551
0.5287638925
0.5277913726
0.5270906459
0.5277907542
0.5282744183
0.5279951037
0.5277954274
0.5275249765
0.5284687926
0.5287760537
0.5289347826
0.5285044428
0.5280667973
0.5276886876
0.5277648393
0.5274187488
0.5279122618
0.5273394748
0.527094813
0.52726882
0.5275339578
0.5278222599
0.5270145423
0.5267326975
0.5281557437
0.5275694231
0.5271663168
0.5286744028
0.5282522963
0.5277679206
0.5285400719
0.5273175655
0.5276202196
0.5283455193
0.5287828985
0.528301025
0.5276724848
0.5271038768
0.527966771
0.5273731327
0.5280882385
0.5285619949
0.5281821023
0.5272431199
0.5275037444
0.5270633818
0.5283943732
0.5276438627
0.5289030966
0.5278766605
0.5274799113
0.5279850725
0.5285154046
0.5281491891
0.5282812723
0.527186944
0.5270220844
0.5272967975
0.5275301957
0.5266801296
0.5271313474
0.5262382433
0.5272736841
0.5271512833
0.5274225324
0.5280608603
0.5270694083
0.5277912231
0.5278280094
0.527866473
0.5278910034
0.5272861889
0.5281078153
0.5273491412
0.5279472048
0.5277486758
0.5272728902
0.5281114241
0.5291999484
0.5283867445
0.5281022159
0.5266501734
0.5275899787
0.5268586908
0.5275489814
0.5284678797
0.5272147748
)
;
    }
    top
    {
        type            calculated;
        value           nonuniform List<scalar> 
200
(
0.5284282547
0.52656076
0.5269646901
0.527985957
0.5274320968
0.528185862
0.5275884803
0.5270254377
0.527471083
0.52807002
0.5273485076
0.5273472075
0.5274284453
0.5280192487
0.5271901906
0.527399158
0.5279070592
0.5276392261
0.5279486325
0.5277025047
0.5281450998
0.5275587529
0.5270593002
0.5271170433
0.5281250904
0.5278846651
0.5277194641
0.5279148059
0.5280451035
0.5281080736
0.5274914119
0.5284043724
0.5271202728
0.5271767121
0.5274827863
0.5276532301
0.5274658605
0.5270575703
0.5269893005
0.526834103
0.5264352676
0.5271236393
0.527413109
0.5285782223
0.52791624
0.5276149447
0.5272031487
0.5267377193
0.5284026685
0.5270370335
0.527610019
0.5266491016
0.5273196388
0.5276281569
0.5281294492
0.5271891158
0.5274724997
0.5276166357
0.5273861784
0.5268814532
0.5270046881
0.5274069092
0.5278710735
0.5270830113
0.5276226309
0.5272142604
0.5269550188
0.5273557662
0.5279273792
0.5278411531
0.5279721705
0.5275605755
0.5276797091
0.5272471792
0.5277388705
0.5276132185
0.5281755647
0.5272851619
0.5275195449
0.5280015069
0.5271775855
0.5267054753
0.5271753646
0.5281199421
0.5277907428
0.5275242179
0.5271512262
0.5275510197
0.5277290626
0.5272415603
0.528386113
0.5273528147
0.5279368113
0.527945462
0.5274675908
0.5274786943
0.5275393634
0.5274454399
0.5266615517
0.5273449874
0.5268413972
0.5273115471
0.5278190885
0.5274141246
0.5285767121
0.5271650247
0.5276472984
0.5280200968
0.5270668282
0.5284674028
0.5279153223
0.5281617427
0.5272911963
0.5276685973
0.5272658496
0.5279258195
0.5279056123
0.5292927195
0.5286145684
0.5289934877
0.5286535001
0.5279518338
0.5271058846
0.5274783277
0.5274663473
0.5273151553
0.527925105
0.526615892
0.5276071654
0.5276292906
0.5280194951
0.5291036413
0.527814086
0.5269998455
0.5274744086
0.5278982124
0.528763412
0.5282776661
0.5272915736
0.5279383787
0.5274581139
0.5279520857
0.5272082179
0.5277598747
0.5280031565
0.527881007
0.5273548459
0.5271646631
0.5267846711
0.5269787744
0.5276123138
0.5274620166
0.5289341888
0.5285736089
0.5277933909
0.5290440384
0.5284679867
0.5276471083
0.5280621026
0.5288569665
0.5276039383
0.5277336258
0.5272143501
0.5278232697
0.528005142
0.5276369068
0.5277084537
0.52671986
0.5269933464
0.5265399841
0.5269166469
0.5269036091
0.5278220425
0.5270268449
0.5277528696
0.5274419389
0.5280312517
0.5281268717
0.527578013
0.5269751042
0.5272395518
0.5282340348
0.5268624374
0.5273588301
0.5283490877
0.5275585469
0.5279925412
0.5276374648
0.5280393922
0.5275364001
0.5278024049
0.5265629213
0.5270076139
0.5273422202
0.5281638183
0.5276906208
0.5278313777
0.5277170133
0.5275704347
0.5277502699
)
;
    }
    inlet
    {
        type            cyclic;
    }
    outlet
    {
        type            cyclic;
    }
    back
    {
        type            symmetry;
    }
    front
    {
        type            symmetry;
    }
}


// ************************************************************************* //
