/*--------------------------------*- C++ -*----------------------------------*\
| =========                 |                                                 |
| \\      /  F ield         | OpenFOAM: The Open Source CFD Toolbox           |
|  \\    /   O peration     | Version:  v1706                                 |
|   \\  /    A nd           | Web:      www.OpenFOAM.com                      |
|    \\/     M anipulation  |                                                 |
\*---------------------------------------------------------------------------*/
FoamFile
{
    version     2.0;
    format      ascii;
    class       volVectorField;
    location    "0.3";
    object      UMean_Ar;
}
// * * * * * * * * * * * * * * * * * * * * * * * * * * * * * * * * * * * * * //

dimensions      [0 1 -1 0 0 0 0];


internalField   nonuniform List<vector> 
1000
(
(0.09088197539 0.1166774226 0.04453788201)
(-0.08862688087 0.09908663922 -0.03441842657)
(-0.1258527502 -0.04911786879 0.1324312682)
(-0.007368151629 -0.04921372448 -0.1786821044)
(-0.1178173763 -0.160825002 0.1804016716)
(0.1122961917 -0.1076720882 0.1288291916)
(0.09420736002 0.1288923719 0.0386930926)
(-0.1196968301 0.1149674352 0.3245277094)
(-0.09151934651 -0.08173354864 -0.1268763903)
(-0.4017803793 0.05216576569 0.08813860827)
(-0.4421660127 0.08830683971 -0.1436154746)
(-0.4299909639 -0.1436803761 0.0320416423)
(-0.4734803746 -0.1783216446 -0.0251012347)
(-0.1267690874 -0.09818706565 0.06903743971)
(-0.1039902412 -0.05148581365 -0.09232849565)
(-0.08751294418 0.08634104286 -0.1172216931)
(-0.08048251807 0.07482769093 0.1878968965)
(0.08800658228 -0.2464790879 -0.2147365922)
(-0.01091306056 0.1535407638 0.09094326854)
(-0.006316356438 -0.1374522821 0.02261350658)
(0.07756729486 0.2228069486 0.01379780299)
(-0.2563153125 0.07865472414 -0.03358434258)
(-0.1983415753 -0.355060246 -0.004757787747)
(-0.02603706708 -0.02699927797 0.2841960797)
(0.04743753945 -0.1125693631 -0.04305885786)
(0.08381740522 -0.0143259797 -0.08049142448)
(0.05585611594 -0.09562896976 -0.03957741194)
(0.1475713212 -0.003870243902 -0.06757690923)
(0.1219567675 0.03817445479 0.001378619482)
(0.02703790612 0.09589332075 0.1896164686)
(-0.2595070154 0.01076696749 -0.03299846191)
(-0.03289087551 -0.03764184215 0.1605966718)
(-0.4130115783 0.2065013642 0.02267320758)
(-0.2837139566 -0.2941723075 0.09783294726)
(-0.2275772531 0.006912673394 -0.0259040267)
(-0.1963075637 -0.07099437132 0.2589076654)
(-0.182908332 0.04586431637 -0.1617796826)
(-0.01906452036 -0.02791378248 -0.1752638761)
(-0.03280030202 -0.02927011348 0.05433796993)
(0.02677557228 0.09752704355 -0.005073772712)
(0.04433020862 -0.02102183902 -0.1404392166)
(-0.01848572281 0.2604401301 0.0639139759)
(-0.3425234852 0.0499694643 -0.08642701241)
(-0.3059237705 0.01796623724 0.000302218943)
(-0.284450405 -0.07908311039 -0.0656254938)
(-0.3090178762 0.03230636974 0.01808509359)
(-0.14789088 0.02478984294 -0.06451237361)
(0.05076689759 -0.04237022024 0.09409626277)
(0.1160897382 0.03398533362 -0.01652295026)
(0.1553231253 -0.07245700441 -0.07634448157)
(-0.01528483708 0.2094204622 0.2337245757)
(-0.06895732052 -0.08940063662 -0.2302184335)
(-0.008966680471 0.09446484732 0.04342744277)
(-0.3709751331 -0.1028093074 -0.03551255224)
(-0.2256055997 -0.01912434268 0.0663349061)
(-0.1110903008 -0.1044553912 0.1143980449)
(0.2050781374 0.033229306 0.02144571272)
(0.0751937043 -0.02523592058 -0.03544490234)
(0.06478786664 0.07073061376 0.06050858909)
(-0.180282121 0.05737506263 -0.01508624988)
(-0.3826173401 -0.2050770052 -0.0554787379)
(-0.4046609327 0.02214820763 -0.1368583234)
(-0.2570941759 0.1361305171 2.484361977e-05)
(-0.124800766 -0.2273172797 0.1440658547)
(0.07320242142 0.1642233388 -0.01057051342)
(-0.1359756855 0.04407968057 0.2199200973)
(-0.2781473812 0.1557951911 0.06633110266)
(-0.2061662032 -0.3198223135 -0.208989976)
(-0.02276917331 0.01479760788 0.1468787589)
(-0.09184063674 0.09541877417 0.1179117193)
(-0.1535488605 0.05384500548 -0.0147075293)
(-0.08675231354 -0.03285774317 -0.07205506355)
(-0.1520810368 -0.1363416519 -0.009602812066)
(-0.212169154 -0.06716766173 0.09003275797)
(-0.3768207567 0.313417688 0.01456925119)
(-0.4202435305 -0.1471196273 0.1819335546)
(-0.1607447387 -0.02723759963 0.2186183006)
(-0.1321841229 -0.1997499448 0.0007988439764)
(-0.07987120513 -0.02469604739 0.03109401064)
(-0.1607502414 0.003160216821 0.026639936)
(-0.1152618683 0.001772644775 0.001805137097)
(-0.0321058357 -0.07882784302 -0.03264097918)
(-0.07854353187 0.1858037664 0.07784033739)
(-0.0628185192 -0.08311185841 -0.1214669163)
(0.02372758388 -0.02672578444 -0.1564864738)
(0.1367254232 -0.1596163237 -0.1353913395)
(0.3433085436 0.0008127479745 -0.1956082897)
(0.113807425 0.1573982332 0.05863858149)
(-0.0596294543 -0.09932654882 -0.1416480388)
(-0.05001859581 0.1401286492 -0.1855053416)
(-0.04912650496 0.1951055967 0.1336002197)
(-0.2672086275 -0.1515052867 -0.1294708234)
(0.06437989693 -0.1596524212 0.02496715867)
(-0.09267877214 0.2199305864 0.1947998966)
(-0.2045001011 0.04838441065 0.03244876743)
(-0.4299692306 0.1393677666 -0.1093689687)
(-0.2358773759 -0.3102486162 -0.2788988698)
(-0.04074947171 0.1041489944 -0.136054498)
(-0.3406301611 -0.05561789627 -0.05684600299)
(-0.009526317875 0.003305616834 0.1487698895)
(-0.07999872267 -0.1840253095 0.1857465549)
(0.109697022 -0.04126038859 0.06823959199)
(0.1089934709 -0.07890217333 -0.1122560277)
(0.05095435798 0.05073008325 0.2587923705)
(0.1718154618 -0.05877067685 0.09009226807)
(0.1648629447 -0.02745723285 -0.1698086293)
(0.2490755309 0.05536843204 -0.3235388746)
(0.08722571488 0.2349022631 0.1286252394)
(0.1554031976 -0.08973242547 -0.06592587239)
(-0.09922864136 0.1479481256 -0.03445210301)
(-0.2375915887 -0.02447750983 -0.1066266869)
(-0.1379872798 0.1785921737 0.0553785439)
(-0.3240397331 0.1384497963 0.1679888129)
(-0.1942208141 -0.01847556305 -0.1661413059)
(-0.3740562958 -0.05463979095 0.07003115814)
(-0.09307685359 -0.05578521162 0.1155637388)
(0.01004719889 0.07438445873 -0.01560513053)
(0.04685120744 0.04880307397 -0.1378573785)
(0.06026019237 -0.1743473146 -0.04797244598)
(-0.0002147163017 0.04587400844 0.1441249624)
(0.1261942389 -0.05420781427 0.02579277966)
(-0.09203005005 0.2564164594 -0.0340506668)
(-0.2994464057 0.100565512 0.2500320738)
(-0.2762556065 -0.09901754784 -0.14825539)
(-0.1258054934 -0.04926036652 0.1869102958)
(-0.1071196692 -0.1192222922 -0.04430045439)
(-0.152637935 0.1976475524 0.1219864828)
(-0.4649328786 0.1413089187 -0.09621659215)
(-0.3616586944 0.01595136819 0.09766973735)
(-0.2220483813 -0.2106989689 0.07907565822)
(-0.1523468474 -0.04427327821 -0.1361571646)
(-0.1080163039 -0.1612214864 0.1185318758)
(-0.02699064651 0.1922367774 0.1069324003)
(-0.2234132232 0.08274817172 -0.153182449)
(0.05014722283 -0.009014514972 0.003933828965)
(-0.1300907466 0.01086138978 0.002019883431)
(-0.1744486958 -0.03501937812 0.04208529709)
(0.1249446056 -0.159241383 0.005318651006)
(0.1291791646 -0.1554744022 -0.09816263347)
(0.02243019762 0.06914597718 0.3702843135)
(0.02056952191 0.0767328384 -0.08074391519)
(-0.07495883575 -0.07522908085 0.07297011613)
(-0.07015537797 -0.2823744821 -0.001618903748)
(0.1609298638 0.08755666819 -0.1245730045)
(0.2815277262 0.01185232316 -0.04946671881)
(0.1609290356 0.06921473722 -0.1520127701)
(-0.04457992913 0.05305679337 0.03747478984)
(0.001967214061 -0.0002015007502 0.01592439246)
(0.136673689 -0.1979730184 -0.3413195452)
(0.1130691997 0.1465441823 0.06649586616)
(0.1720920754 -0.04596435592 0.07634294201)
(0.06454987834 -0.1167254138 0.04063623106)
(0.1038872739 0.1781686409 0.01789829291)
(-0.1045348165 0.09035001229 0.2580368382)
(-0.02307066639 -0.0391870438 -0.214863294)
(-0.02244950918 -0.1043508229 0.1019101932)
(-0.1007542078 -0.02209890191 0.02611339053)
(-0.01247240507 -0.03673228368 -0.07199088442)
(0.0673933015 0.1522124545 -0.277982925)
(-0.07854187442 0.06030045851 0.3447835987)
(-0.2224617882 -0.1646715159 -0.1008538426)
(-0.1431957065 0.06810534462 -0.04497776516)
(-0.2831321422 -0.07004955204 -0.2300877268)
(-0.2358780972 -0.01184396115 -0.08395932619)
(-0.2721935661 -0.1967472268 0.1905756806)
(0.07253729803 -0.04090176358 0.01910705679)
(-0.007904650095 0.2326774399 0.04614666194)
(-0.2634122918 -0.02338975909 -0.1422223574)
(-0.2101844665 -0.1025442942 0.1487293434)
(-0.01060967321 0.09284662389 0.1233973339)
(-0.04872282659 -0.09857434888 0.139422547)
(-0.04881384252 0.04331935792 -0.04250139888)
(-0.1765076972 0.02261408331 -0.05890762947)
(-0.2748058629 -0.08136525773 0.0729716232)
(-0.1324941949 -0.06922666599 -0.0782667898)
(-0.1807863329 0.04111221223 0.1127079986)
(-0.202181085 -0.1066089814 0.08225749783)
(0.09726654633 -0.0926224808 -0.01273521409)
(-0.195176862 0.1759493278 0.006957977182)
(-0.4519228301 0.1009565109 -0.07831262946)
(-0.5454064439 -0.001170544321 0.1131893023)
(-0.5648372242 -0.2789768782 -0.05390889226)
(-0.3974600184 0.1351277206 0.01672901004)
(-0.1383324132 -0.2190558314 -0.1246162247)
(-0.3669796629 -0.0782291156 -0.006757668479)
(-0.2753729518 -0.07712189911 0.1181668675)
(-0.1921439279 -0.08799653309 -0.1103705693)
(0.1503605563 -0.036173645 0.09676014812)
(0.01831888708 0.1097774116 -0.1005454238)
(0.1080130187 -0.1974709017 0.1926781737)
(0.1794455905 0.09123909254 -0.06793664419)
(-0.1327160346 0.1337118091 -0.05043946114)
(-0.0594194864 -0.1302949635 0.2002881552)
(-0.1118744806 -0.024161852 -0.01346012413)
(-0.1258225422 0.05479803993 -0.007321623702)
(-0.1848782779 0.1812539245 -0.01277191118)
(-0.3590545963 0.06128306122 -0.2129628457)
(-0.04946051036 -0.2305800084 -0.08337951068)
(0.01923192945 0.000310991032 0.1622833265)
(0.03649175265 -0.1102526659 -0.173859049)
(-0.04935888969 0.05970555939 0.1973086092)
(-0.08875041239 0.1533167775 0.08044036786)
(0.03159032139 0.2226618562 -0.1739921474)
(-0.1381448997 -0.2923342864 0.1218568201)
(-0.1226107825 0.05817860108 -0.117501524)
(0.046698651 -0.2868375801 -0.002963733748)
(-0.1665226806 0.1610584682 0.1087262818)
(0.05604719787 0.0626010254 -0.02673450744)
(-0.06719185738 0.1245656325 -0.02796563211)
(-0.1187708628 0.3346519334 0.04679906065)
(-0.1499646516 0.06092893537 0.09987086022)
(-0.4066322287 0.08162830402 -0.005127720086)
(-0.1930079036 -0.2974386501 -0.0178444296)
(-0.05350953299 -0.3888571132 -0.04125788708)
(-0.03995619485 0.2481770431 -0.03421243282)
(-0.226615035 0.08593227144 0.1099124265)
(-0.05409197573 -0.1731157827 0.04863545947)
(-0.1882985244 -0.01338415788 0.1290984667)
(-0.02777976206 -0.01856166364 0.3473491041)
(0.022426406 -0.1471834291 -0.1098533001)
(0.07694295817 0.1743767078 0.1691301164)
(0.4004173715 -0.009012669616 -0.07711220492)
(0.2161837842 0.2129034269 -0.2746045254)
(-0.2290810856 -0.09960940882 0.06316864006)
(-0.196002111 -0.1867498562 -0.03247578057)
(-0.2390265453 0.1754971855 -0.2461937364)
(-0.1884936329 -0.191228768 0.2826721438)
(-0.1917679299 0.04829021743 -0.05303164034)
(-0.5416004698 0.1898095247 -0.1041647645)
(-0.1726278005 -0.09108335388 -0.04755329744)
(-0.1750021661 0.0842490633 0.01464603577)
(-0.1857932578 0.1079018121 -0.02265845429)
(0.03302969163 0.1388859064 -0.1816497384)
(0.02995677738 -0.3673186155 -0.2133114264)
(0.1618400395 0.220756097 -0.160085637)
(-0.2167807811 -0.01460225155 0.1542708058)
(-0.1444398782 0.003141209848 -0.05175898711)
(-0.043971061 -0.4192180147 0.145724224)
(-0.0564352648 0.3545705381 0.1041465402)
(-0.2417282795 -0.02769036338 -0.0149239998)
(-0.1778336082 -0.1311399952 -0.01052592496)
(-0.06325701075 0.1695082796 0.07787841875)
(-0.1785283756 0.2158417215 -0.05174601443)
(-0.1906197525 -0.003661899011 0.06967322433)
(0.01408786555 -0.2314978572 0.06476792134)
(0.08752493416 -0.03744714372 -0.1141097004)
(0.2560631667 -0.2525644649 0.191531711)
(0.3525506791 0.09069423759 -0.04207140408)
(-0.15067619 -0.04153068339 -0.2104301083)
(0.02982663604 -0.01458710561 0.03694342658)
(-0.136715679 0.2942146832 -0.06443831413)
(-0.1929612641 0.05223740734 -0.1741209564)
(-0.2669186568 -0.09779451477 0.09272037749)
(-0.108177132 0.4212855412 -0.01703958702)
(-0.09472474045 -0.2838707758 0.00547182756)
(-0.1508053058 -0.2592928003 0.09642521296)
(-0.04984350911 -0.2814546156 -0.09785720974)
(-0.2212716045 0.2287138525 0.04798290042)
(-0.1026333408 0.0340322989 -0.09834192381)
(0.07418511331 0.264816657 0.1661901292)
(-0.07220186477 0.06337070527 0.1620789405)
(-0.1715987443 -0.01416950293 0.1433435496)
(0.1192653259 -0.1380644825 0.04907147218)
(-0.2676814793 -0.2517758723 -0.1216958403)
(-0.2885487425 -0.02716643663 -0.04594020875)
(0.09906156282 0.04754718819 -0.1022843926)
(0.1454206479 -0.04185139862 0.03935048884)
(-0.04666411991 0.1051831409 -0.07696927701)
(0.03015940994 -0.2281765395 -0.05240612593)
(0.004009872158 0.1936492447 0.2469585214)
(-0.008848978897 -0.01625654709 0.2221695837)
(-0.08022373395 0.119593067 -0.2264428758)
(0.1298207271 -0.06463206463 0.09113356679)
(0.1564463045 0.07712639095 -0.1173836377)
(0.3661333206 0.3744925098 -0.09695647314)
(0.1186213116 -0.06927744281 -0.08501211592)
(-0.02605807725 -0.2679638241 -0.2806713174)
(-0.002248175934 0.1688090229 0.08565973083)
(-0.2951372362 0.1004834168 -0.01116788032)
(-0.01790034906 -0.2828523115 -0.1038438123)
(-0.1477365734 0.02368645604 -0.06890471094)
(-0.0605367298 0.005880562527 -0.301072946)
(-0.228697318 -0.06276441368 0.120410799)
(-0.1250387555 -0.02129828076 -0.08889808696)
(-0.1392277982 -0.1874412891 0.1146772921)
(-0.03865056359 -0.3983737914 0.3912928911)
(-0.08314473428 -0.04433606344 0.0792961465)
(-0.02783150946 0.4370181608 -0.1185864229)
(-0.1040069654 0.1950241601 0.1109235619)
(-0.2598115793 0.01064386768 -0.08810595483)
(-0.09180945709 -0.06004913013 0.3323573602)
(0.1822668808 -0.02077127465 0.01914583108)
(-0.0875168886 -0.08093288348 -0.1244087207)
(-0.1232044442 0.170358412 0.3230348599)
(-0.2130326575 0.1348956327 -0.04469306932)
(0.09620488198 -0.1617195129 0.003343061091)
(0.2026016424 -0.2415353771 -0.1490103336)
(0.009933024254 0.374029986 0.05160511317)
(0.3021374054 -0.1023186043 0.2193471111)
(0.08070680546 -0.242327219 -0.1601489738)
(-0.03057615919 0.1080777696 0.1660508587)
(-0.3760136391 0.06143447355 -0.05305928379)
(-0.349815263 -0.05554068894 0.09378831015)
(-0.07196282844 -0.07164607813 0.1593675371)
(0.03573459352 -0.1903545748 -0.2756111035)
(0.1387114597 0.03050376363 0.04983517937)
(-0.2522121075 -0.01570962709 -0.03722986681)
(-0.20123894 0.08249527683 -0.0438435951)
(-0.1776309927 0.130789998 -0.1834634737)
(-0.00943648485 0.2954007633 0.2414540798)
(-0.06456356894 0.109774238 -0.07443119947)
(-0.3303030392 -0.0986804866 -0.211745754)
(-0.07596317797 0.1098357875 0.2030318175)
(-0.1167178598 -0.09006266797 0.07367391511)
(0.07709359309 -0.1852036735 -0.05880118986)
(0.0366589304 0.01759461012 0.03267637415)
(0.3133125382 -0.238538643 -0.1372850023)
(0.2286650302 0.1886783954 0.09829716841)
(-0.09149932273 0.02209540483 0.06384776944)
(-0.2069988609 -0.04675990978 -0.2776723607)
(-0.1451555049 -0.0345941381 -0.1497421977)
(-0.154612527 0.2331958702 0.1434690367)
(0.01064532473 0.1710564515 0.04881968686)
(-0.1423713978 -0.0781071767 -0.008557908856)
(-0.205262037 -0.03939759631 0.1162529722)
(-0.1465811808 0.08895137599 -0.09056990564)
(0.04273164626 0.1688799363 -0.1054510121)
(-0.02813229789 0.1947655923 0.1096376441)
(-0.2395421442 -0.1806814201 -0.2730961781)
(-0.08700576895 -0.09091538974 0.2214330696)
(-0.0898447162 0.07841462682 0.04053360131)
(-0.1839151622 -0.2315369503 -0.0945390974)
(-0.2837493441 0.3070565113 0.06903707224)
(0.01213629959 -0.3076085112 0.0978085852)
(0.001744261532 0.01142986233 0.1126959748)
(-0.03310685959 0.1676682797 -0.1830653352)
(-0.1557549194 -0.003312616844 0.1015543455)
(-0.3527541587 -0.1681852022 0.06843987085)
(-0.4732046611 0.09238685304 0.0665089986)
(-0.3981607849 0.1061275517 -0.1731940946)
(-0.2849904657 0.01683085435 0.09074182807)
(-0.5420819629 0.1587317969 0.07083045896)
(-0.2576020476 -0.4985419906 0.09280263786)
(-0.01310550375 -0.2633395159 0.0428808776)
(0.04414309695 -0.06769511805 0.07061837583)
(-0.1837694163 0.3227355433 -0.1352247457)
(-0.1817179395 -0.1321392576 -0.09540005947)
(0.00593607265 0.06372129665 0.1403558007)
(-0.1210403106 -0.09039502055 0.1706051567)
(0.07505352073 -0.1426523827 0.1431408825)
(0.1082818957 0.1274139408 -0.201702412)
(0.07580307751 0.1446408937 -0.1958078106)
(-0.2459809411 0.1398070888 0.03348206831)
(-0.06721965633 -0.000544668384 0.0127520414)
(0.05457967569 -0.1639054051 -0.03242385181)
(0.1132606206 0.24975716 -0.1903880148)
(0.0205473908 -0.001283323755 -0.01807741521)
(-0.05306040793 -0.07469425483 0.2438119421)
(0.1181070899 -0.005834474148 0.1109952244)
(-0.03997781434 0.07980347843 -0.1020713509)
(0.09977082375 -0.09120475927 -0.1116980135)
(-0.07124501696 0.2788950157 0.20646309)
(-0.1506811433 0.1722883537 0.1325222385)
(0.05264427045 0.002681466017 0.05655106163)
(-0.05975040701 -0.03381408486 -0.05371500118)
(-0.4512535169 -0.1573355535 0.1644844362)
(-0.2390923522 0.2543304688 -0.08217373288)
(-0.1708442504 0.143526717 0.01174838318)
(-0.3220846066 -0.1881448632 -0.1422350127)
(-0.4442754032 -0.0783882403 -0.04486482437)
(-0.3621977204 -0.1514291082 -0.1600156482)
(0.08626573837 0.03877695107 -0.1755337312)
(-0.1903773259 0.4522309919 0.09757351943)
(-0.131351374 0.06544708783 0.0757166466)
(-0.05231902658 -0.3965562854 -0.0009367246379)
(-0.006123099609 0.06677602971 0.04774722983)
(0.0008407902857 -0.01054328222 -0.05412714638)
(-0.05475473136 -0.0791219222 -0.006955502951)
(-0.2217759635 0.2094179385 0.03766631645)
(-0.1557055642 0.4051883931 -0.1067993467)
(-0.288811494 -0.06513356995 -0.108523966)
(0.1337643113 -0.3171788712 0.06328380058)
(-0.144202595 -0.07995967963 0.01085326603)
(-0.1364919963 0.1160590808 -0.04404640193)
(-0.07553644266 -0.1641164522 0.01083627783)
(-0.1063332852 0.1891990748 -0.1709622115)
(-0.01416312539 -0.2639830294 0.1456472578)
(-0.2155341729 -0.1628557989 0.03857279018)
(-0.08770672527 -0.09587661945 -0.04980820498)
(-0.2310300619 0.0608921412 -0.2181763348)
(-0.1709933385 -0.06145898982 0.1159158239)
(-0.05668991202 0.1034732007 0.2265238653)
(-0.01001808629 -0.08305345176 -0.0484032992)
(0.1810452404 0.009222878069 -0.1886726794)
(-0.08802736529 0.07862101057 0.1163283727)
(0.07952845814 0.1496153113 0.000192532755)
(0.0248096352 -0.2201479761 -0.02601023938)
(0.09623182231 0.08090387221 0.1817681112)
(-0.1348612967 -0.4937773484 -0.05927414115)
(0.2341934084 0.1177806621 0.02416611118)
(-0.1194301911 -0.02583813737 0.09165329056)
(0.2280156719 -0.003887221731 0.07324730029)
(0.110520041 0.3698781325 0.07208163018)
(-0.06131358407 -0.09600960547 -0.2460156611)
(-0.1788330809 0.1075128783 0.04750646868)
(-0.4025186125 0.01100928952 0.05088042888)
(-0.2025367169 0.1249069259 -0.2058112182)
(-0.3494599062 -0.04384301837 -0.1333814642)
(-0.3110373997 0.3587160325 0.1923882103)
(0.1036916952 0.05110833583 -0.02016518502)
(0.1302063638 0.2970779804 -0.2753088453)
(0.1730023162 -0.1531011417 0.08566972849)
(0.3995677383 -0.05221447117 0.1089828573)
(0.1775120141 -0.07087807256 0.2891693622)
(-0.1000287687 0.03977170055 -0.008538659126)
(0.1458518102 -0.07197597276 0.1058980881)
(0.04412646327 -0.218932783 -0.1706436464)
(0.1220723923 -0.1763767767 0.003934936419)
(-0.0261771133 0.116202065 -0.2234079795)
(0.01044445457 0.01894357936 -0.146720164)
(-0.1607498739 -0.08433328751 0.2335277439)
(-0.2544822202 0.09144049723 0.04784036347)
(-0.1448196407 0.2985397095 -0.01090760927)
(-0.2448867176 0.1777661383 0.1356407568)
(-0.2341235208 -0.06744067234 0.1451668868)
(-0.1911080527 0.1625790552 -0.05026377586)
(-0.03825516419 -0.002198943689 0.05578504463)
(-0.09882571759 -0.0357859667 0.02529923587)
(0.1143826247 -0.003712493924 -0.04493235969)
(0.1139798559 0.007847465487 -0.1395741141)
(0.09241867043 0.2238725768 0.03648736284)
(-0.1872108617 0.01305598386 -0.1064948034)
(-0.1428047499 -0.07066307371 0.1393640233)
(0.09806332419 -0.05878590764 0.1572801141)
(-0.1649930398 0.2113503645 0.07132792886)
(-0.19089444 0.01107030538 0.186909791)
(-0.4277837653 -0.19196488 0.003057289911)
(-0.3289857255 -0.25572506 0.2700793769)
(-0.4557297933 -0.08710335233 -0.06405066772)
(0.02587559522 0.1279211918 -0.2201925121)
(0.07624609294 -0.2709214011 0.1991137796)
(0.144660801 0.1127334697 -0.1529838564)
(-0.01691094985 0.3042073938 -0.08493666634)
(-0.01596272879 -0.04071794662 -0.131407833)
(-0.1441266913 -0.101883116 -0.1861351625)
(-0.2962405098 -0.156900261 -0.001266600331)
(-0.1972210042 -0.3679672203 0.1551973261)
(-0.2091491062 0.1218398794 0.1226142012)
(-0.1262793258 -0.0133999156 0.04862775946)
(-0.3107058761 0.08074866081 -0.2550502717)
(-0.2437456696 0.154357474 0.08261589214)
(-0.02000383386 0.02824276654 -0.08420570761)
(-0.03593034539 0.08055808096 0.09901702582)
(-0.001668935073 0.1208953189 0.05619006612)
(-0.07626990157 -0.2405768783 -0.07923775396)
(-0.1871238634 0.0733655079 0.2645571753)
(-0.568520284 0.1407873697 -0.1171639021)
(-0.2661211715 0.07301439147 -0.03319354554)
(-0.2159223817 -0.150386535 -0.03614058544)
(0.06741398469 -0.005253221726 -0.1485088547)
(0.1849901971 0.3070945239 -0.08407781455)
(0.1372295884 0.08444982867 -0.09935354616)
(-0.1234889993 0.04757782828 0.0942976955)
(-0.1601253932 -0.2250811436 -0.09299505303)
(-0.2934853626 0.003413419318 -0.03205889438)
(-0.105088076 -0.1744698621 0.2552710634)
(-0.1026200751 0.1114527056 -0.1402012186)
(-0.1223397025 -0.05172369477 0.1215924845)
(-0.09637644495 -0.2763989171 0.04135981615)
(-0.009086802582 0.1375838384 -0.02668993948)
(-0.1389134863 0.04773261959 0.04470978025)
(-0.1073928953 0.09498118737 -0.1093954456)
(-0.294089344 0.0362901258 0.2076820664)
(-0.2060547311 -0.162787677 -0.004436420259)
(-0.07747069741 0.05301058682 -0.1023376814)
(0.2837458615 -0.1326971086 -0.161722343)
(0.2079911174 -0.03341336086 0.2036263656)
(0.04753103292 0.2575770061 0.04696687592)
(0.3610095476 0.1083620516 0.125752547)
(0.2385497266 0.02663574811 0.2127686328)
(-0.2889652412 0.02183232212 -0.02607347834)
(-0.2561747108 0.05533985874 0.1956757226)
(-0.1172589105 0.05647334669 0.08415407891)
(-0.03977501956 -0.06740462935 0.02893013261)
(0.2231498411 -0.2245315705 -0.0661801251)
(-0.05013033469 0.03053939404 -0.1603978064)
(-0.3256510559 0.1434061542 0.002602481206)
(-0.1110960529 0.01459755104 0.1140656544)
(-0.3936726166 0.2745823846 -0.239828425)
(-0.09360437968 -0.04884865123 -0.09093223199)
(-0.004864639127 -0.2442189078 -0.07238434989)
(-0.05135297002 0.09415530398 -0.05417558207)
(-0.07043660289 -0.006758422204 0.1593206111)
(-0.06858947934 0.3200916308 0.004137520516)
(0.1166157325 -0.1616386966 0.02065583585)
(0.2238465418 -0.09916258752 -0.2548555219)
(-0.273790869 -0.2435974278 -0.05746668627)
(-0.02335770557 -0.004451923663 -0.07648098848)
(0.1525700314 0.03262226923 0.1730040215)
(-0.1647703561 0.1676637847 -0.1665054399)
(-0.3169705768 0.0156357771 0.1019632473)
(-0.25038221 0.2674149955 0.05346783443)
(-0.1708184633 -0.2710428339 0.01367305524)
(-0.232558566 0.004628893785 -0.04202147998)
(-0.3999733416 -0.1713554456 -0.02969736198)
(-0.2972229171 0.169466002 -0.007781031636)
(-0.3628148253 0.3873597707 -0.04671113757)
(-0.1803805859 -0.4103884005 0.1372678207)
(-0.005253053357 0.07259187165 0.1057400436)
(0.124601823 0.1062587188 -0.2200210598)
(0.2474928755 0.04487604271 -0.1114340733)
(0.3289518161 0.2328920693 0.1001795978)
(0.2278876585 -0.09717973526 -0.134401439)
(0.0192524619 -0.04671380725 -0.2061171081)
(0.132494392 -0.06877856934 0.02500166944)
(0.2047474793 -0.2773408164 -0.1299285587)
(-0.1823811188 -0.3232071551 0.2240354286)
(-0.02760848197 0.1811301907 0.03795970019)
(0.0747819479 0.2882965453 -0.01072823268)
(-0.06020911549 0.06969656657 -0.02771084625)
(-0.2114043283 -0.08705411292 0.04171656463)
(-0.1809647734 0.1363581109 -0.02950600023)
(-0.003216214994 0.06439860156 -0.006740690682)
(0.1052923794 0.1067899724 -0.0008830785006)
(-0.02216867596 -0.1281059334 -0.1327522089)
(-0.03268978527 -0.3060612114 0.1245333939)
(0.0214392191 0.1146258287 -0.1705508326)
(0.06609021989 0.2726457749 -0.1863676497)
(0.09378948293 0.06149729808 -0.06671389269)
(-0.09416241843 -0.2086932165 -0.005689069935)
(-0.01127728247 0.1032951463 0.2281424371)
(-0.2308339787 -0.01306378876 -0.004002323773)
(0.05290077556 -0.1325492546 -0.1482884081)
(-0.09205841084 -0.1993654979 0.05812859908)
(-0.1783948133 0.07005950673 0.1678480589)
(-0.02293203756 0.0409107219 0.07295613671)
(-0.05763798463 0.09960707341 0.06233493566)
(-0.2434154634 -0.02985199911 0.1198728172)
(-0.3033807577 0.2440477369 0.007807208318)
(-0.2035006783 -0.1537499031 -0.1441124133)
(-0.3156065207 0.1271365542 0.01172266367)
(0.1200843518 -0.08130131437 -0.2156850475)
(-0.01632224761 -0.36872263 0.1153497483)
(0.02684732361 -0.3334173645 0.284711657)
(-0.234998648 0.2761525913 -0.07233691223)
(-0.1820128605 0.2446456816 0.08312583511)
(-0.1212676115 0.08696306258 -0.1562513602)
(-0.3665326732 0.07199410227 0.03238810824)
(-0.1997087031 -0.2698669752 0.04428781142)
(-0.4301639981 -0.1346190606 -0.1964117756)
(-0.5199410824 0.01234648811 0.04039291248)
(-0.5812717494 0.1957663689 0.2212493801)
(-0.4023547951 -0.007529974778 -0.1574700803)
(-0.1889403392 -0.1251376464 -0.01775701417)
(-0.05585432235 -0.08840832614 0.1379301439)
(-0.2690056585 0.2002677129 -0.1034619865)
(-0.2191277583 -0.3439196289 -0.06206479989)
(0.1917113325 -0.03794328509 0.02843371315)
(-0.05201315837 0.05915920186 0.03342918295)
(0.05086886573 0.2303182439 0.01607924379)
(-0.2542017592 -0.1332585525 -0.005964089262)
(-0.00416582795 0.4145637005 -0.01500736108)
(-0.112316113 -0.08854740221 -0.01980831267)
(-0.4155221631 -0.05388442397 0.02016799443)
(-0.223799287 0.364393059 -0.2346583146)
(-0.2857591787 -0.103236721 0.02516603453)
(-0.1505398609 -0.04472701782 -0.03656146761)
(0.05543833825 0.0853406661 0.0572075346)
(-0.05455378421 -0.06094470213 0.1166296672)
(0.07608204773 -0.01755835068 0.1958857428)
(-0.05178041352 -0.08584915859 0.05982720975)
(-0.2421449498 -0.2223402954 -0.255705287)
(-0.05357667253 0.06082468735 -0.1801272196)
(0.3077974924 -0.0820497209 0.09098893173)
(0.07926361715 -0.1450770628 -0.01432998474)
(0.1260661333 -0.1323553583 -0.1016747731)
(0.07513522763 -0.02100159674 0.02159262272)
(0.04867837306 0.1791062823 -0.2432467901)
(0.09294738541 0.2595037338 0.003826057576)
(0.0373509975 0.1818877697 -0.02795337886)
(0.2697701491 -0.07270157223 -0.08816817687)
(-0.1718613174 -0.2057991304 -0.1202174388)
(0.01526174486 0.232338153 -0.04307022861)
(-0.07298545129 -0.1586860088 -0.0848438761)
(0.05137164455 -0.2037793671 0.05768833122)
(0.01513966429 -0.07993543285 0.003236797025)
(0.001333226245 -0.03168762467 0.08594072724)
(-0.0696776883 0.03125978428 0.04024803405)
(-0.210476072 -0.239640739 -0.006822691808)
(-0.0295494881 -0.02858313514 -0.164420957)
(-0.1600733001 0.07410905318 -0.03846989219)
(0.05436381148 -0.06833843444 -0.009693228592)
(0.02922664375 -0.007658245625 -0.1149019306)
(-0.1477328706 0.09535518678 0.1604129659)
(0.1010823137 0.2538152441 -0.1120065386)
(-0.1590940157 0.1622951367 -0.07285862894)
(-0.218599658 -0.2017993012 0.02807199971)
(-0.03125519037 -0.1398440574 -0.2076120947)
(-0.3827125602 -0.07912635252 -0.2290876503)
(-0.2293072967 -0.09979071626 0.1110129647)
(-0.1504587987 0.1154061446 -0.01912406994)
(-0.3992494455 -0.07967891906 -0.008587544699)
(-0.2245823581 0.2350401308 -0.07258010985)
(-0.2565289215 0.2654695914 0.114419533)
(-0.3179535589 -0.06043698648 0.07301174824)
(-0.2957435204 -0.04488007618 0.1792074245)
(-0.05291908945 -0.008233058904 0.2841402756)
(-0.1834746225 0.1797788623 0.09254316122)
(-0.2190584259 0.1206816176 0.07186557086)
(-0.07341771571 -0.3152721368 -0.08819740841)
(0.1372212652 0.01520124552 0.1079393953)
(-0.03617230849 -0.1041514667 -0.02289266233)
(-0.0710201228 -0.2583478585 -0.0688823121)
(-0.2189505617 -0.1579397035 -0.1032889203)
(-0.001559168318 0.1256571745 -0.1206527335)
(-0.1105097824 0.114254899 -0.1098450215)
(-0.2507129422 -0.05369824711 0.1773418445)
(-0.4011055881 -0.07169459143 -0.07211593862)
(-0.2942355583 -0.1019305695 0.01480393087)
(-0.1806319984 0.1211140673 0.07095788259)
(-0.3834203263 0.03267169825 -0.0542147202)
(-0.2594757721 -0.02990862068 0.3451310902)
(-0.03811604556 -0.1195535815 -0.3038866882)
(0.2405725704 0.07946786977 -0.001204926469)
(-0.07662582143 -0.004735696474 -0.09143620565)
(-0.104588275 -0.05173120166 0.05034160615)
(-0.2782825989 0.009136104471 -0.1964812861)
(-0.04280213309 -0.06731104384 -0.04635661537)
(-0.004105679 -0.3137793712 -0.06131989443)
(0.1113701937 -0.001516202961 0.07731871419)
(-0.03585803468 0.3253139909 0.125687819)
(-0.03282035502 0.004687585334 -0.0131194843)
(-0.1880698702 -0.1817653092 0.09659044919)
(-0.136164553 -0.02767716727 0.03009802702)
(-0.06116805292 0.05247368043 -0.08388550324)
(0.2402303427 0.3055489209 -0.2670972759)
(-0.06930889687 -0.02932955885 -0.1081616767)
(-0.01414615778 -0.02279990744 0.06193182553)
(0.04991984257 -0.2657581397 -0.02234188087)
(0.1672297137 -0.2401178976 -0.1723668203)
(0.01542120944 -0.05204718516 -0.122224893)
(0.0152693836 0.1113866239 0.06929169483)
(0.1374510671 0.3763858369 -0.01612345933)
(0.1764731024 -0.1208567497 -0.006655267993)
(0.16756033 0.04937441582 0.2931249845)
(0.2061851989 -0.2922434177 -0.04946732532)
(-0.1833375632 -0.1669499304 0.03111846866)
(0.01987101827 0.04946464162 0.06629757697)
(-0.1701944024 0.1302753227 0.02993537008)
(-0.101052919 0.09544652358 -0.1724888942)
(-0.1888080535 0.1425870798 0.07978978714)
(-0.2026012999 -0.06257994687 0.1995013032)
(-0.08083421363 0.1527435602 -0.1298703281)
(0.05297939743 0.1073109494 -0.03383017731)
(-0.04357906664 -0.2173017771 0.1356710368)
(-0.0374755175 0.1820248125 -0.08823195691)
(0.1947840437 -0.2016633357 -0.01995579496)
(-0.05263850042 0.03142008827 0.02238024062)
(-0.1298031752 -0.3901617301 0.07892968236)
(-0.3101190199 0.1435704738 0.02188944211)
(0.07021510695 0.1692858731 -0.04455245672)
(-0.06489589409 0.07273902258 -0.04919803383)