/*--------------------------------*- C++ -*----------------------------------*\
| =========                 |                                                 |
| \\      /  F ield         | OpenFOAM: The Open Source CFD Toolbox           |
|  \\    /   O peration     | Version:  v1706                                 |
|   \\  /    A nd           | Web:      www.OpenFOAM.com                      |
|    \\/     M anipulation  |                                                 |
\*---------------------------------------------------------------------------*/
FoamFile
{
    version     2.0;
    format      ascii;
    class       volScalarField;
    location    "0.3";
    object      variableHardSphereMeanFreePath_Ar;
}
// * * * * * * * * * * * * * * * * * * * * * * * * * * * * * * * * * * * * * //

dimensions      [0 1 0 0 0 0 0];


internalField   nonuniform List<scalar> 
1000
(
0.009515614257
0.009524498447
0.009503365707
0.009516998163
0.009493877445
0.009501192736
0.009509941945
0.009493705767
0.00950029076
0.009486685155
0.009476247394
0.009483961616
0.009495113435
0.00951126365
0.009489601563
0.009456714385
0.009499393255
0.009496280797
0.009505144147
0.009498152052
0.00948585073
0.009488620515
0.009499908675
0.009503119455
0.009501380979
0.009493178216
0.009511006491
0.009502683062
0.009489075556
0.009484700406
0.009508545457
0.009491339926
0.009489777157
0.00948536784
0.009485363604
0.009501034735
0.009491823868
0.009516121426
0.009500194026
0.009508531185
0.009490489844
0.009497387252
0.009510780196
0.009498295275
0.009506795222
0.009515052879
0.009505950878
0.009515839186
0.009511821937
0.009494495778
0.009508766187
0.009501583204
0.009520291368
0.009499013009
0.009499701119
0.009497065166
0.009516496105
0.009523616388
0.009528345045
0.009531817294
0.009525690844
0.009513658044
0.00952859814
0.009503639263
0.009530113513
0.00952315479
0.0094874236
0.009493407976
0.009517278745
0.009518388166
0.009520921595
0.009531665999
0.009527822163
0.009527055082
0.00955166861
0.009534711141
0.009524960768
0.009499011393
0.00953600156
0.009530574761
0.009519710607
0.009522270844
0.009516042709
0.009536456125
0.009554126512
0.009537666321
0.00953103004
0.009537188671
0.009548056721
0.009539944338
0.009537072257
0.009537613149
0.009535624198
0.009534768081
0.009568675211
0.009559132087
0.009545952722
0.009552585792
0.009552129183
0.00953424194
0.009544347022
0.009544868713
0.009550750143
0.009546684453
0.00952285632
0.009541649135
0.009543951741
0.009539432973
0.009552279571
0.009537633281
0.009520063458
0.009517856886
0.009527578823
0.009536185584
0.009534325689
0.009551311284
0.009549167
0.009522899722
0.009545087177
0.009557484209
0.009556275541
0.009548825876
0.009541772598
0.009526478777
0.009534144096
0.009536940035
0.009540217226
0.009546201455
0.009548610976
0.00953304193
0.009529107942
0.009530919747
0.009548823446
0.009545016683
0.009539222659
0.009547673586
0.009551409381
0.009511860345
0.009536267617
0.009540089161
0.00952700274
0.009519532202
0.009529934396
0.009538662849
0.009534882251
0.009531783103
0.009537924744
0.009538938188
0.009537712353
0.009524715716
0.009527584231
0.009530070275
0.00953551804
0.009526843082
0.009528003498
0.009508124777
0.009537169778
0.009541704165
0.009547245219
0.009520237194
0.009507726511
0.009495163057
0.009535812633
0.009534170727
0.009509564408
0.009515607474
0.00951422969
0.009517937311
0.009517605692
0.009542139368
0.009517599945
0.009536366922
0.009511219577
0.009508947903
0.009551657111
0.009515322874
0.00949864152
0.00951672368
0.009530852757
0.009540069073
0.009513969848
0.009503496055
0.009513134952
0.009505392087
0.009512245723
0.009504615525
0.009507495246
0.00950951952
0.009525700632
0.009525517364
0.009504464073
0.009499503677
0.009522744846
0.009507512467
0.009527877925
0.009497610131
0.009494690268
0.009489258912
0.009492231923
0.009521449298
0.009495649214
0.009508765377
0.009509852002
0.009503047185
0.009487771667
0.009505502425
0.009512629663
0.009494736618
0.009491845575
0.009488574262
0.009477474867
0.009482894508
0.009479816398
0.009518972939
0.009486710564
0.009487643546
0.009496032862
0.009492857477
0.009482630173
0.009477647797
0.009496609207
0.009525827286
0.009500632629
0.009512165285
0.009512578634
0.009524783182
0.009486096059
0.009489377437
0.009481700988
0.009479476949
0.009485289009
0.009466220761
0.009482103452
0.009478122327
0.009503716966
0.009497262083
0.009499290017
0.009509470372
0.009517321859
0.009500842832
0.009506398927
0.009492960136
0.00949771183
0.009499913121
0.009516995526
0.009515635852
0.00951333571
0.009507738988
0.009503120368
0.009518425461
0.009506428081
0.009492150365
0.009497306798
0.009498493677
0.009506508046
0.009497696272
0.00950956234
0.009513866435
0.009535282534
0.009532649506
0.009549873624
0.009535150153
0.009536705727
0.009520830014
0.009515723848
0.009531409862
0.009514865804
0.009510453633
0.009517450152
0.009534635453
0.009537437472
0.009530513617
0.009526095006
0.00952425098
0.009526133669
0.009524505377
0.009527068764
0.009524410655
0.009530358603
0.009521438742
0.009521169282
0.009523683483
0.009527339932
0.00953504736
0.009545744114
0.009542980359
0.009537329337
0.009540916139
0.009534157879
0.009536211567
0.009538013466
0.009530985156
0.009527748481
0.009558469096
0.009543735336
0.009540130401
0.00954708147
0.009551263676
0.009545065817
0.00954912958
0.009544599703
0.009555978634
0.009554819398
0.009542016094
0.009551365043
0.009547257649
0.009553307796
0.009548716407
0.009523835881
0.00951701026
0.009534948622
0.009528667844
0.009538917788
0.009540747288
0.0095513142
0.009557130723
0.009549691455
0.009528830608
0.009541567916
0.009550035296
0.009543665313
0.0095454958
0.009548325073
0.009549244868
0.009539382513
0.009548617713
0.009537747449
0.009536960981
0.009549243305
0.009529773423
0.009531687605
0.009532890401
0.009541587761
0.009540572553
0.009542193035
0.009552958175
0.009528456848
0.009533641004
0.00953926467
0.00953990084
0.009532127568
0.009509389078
0.009526375312
0.009549909285
0.009545349478
0.009541377014
0.00952948194
0.009540288277
0.009536824299
0.009541301991
0.009517963185
0.009525738763
0.009510943411
0.009525527035
0.009515016187
0.009520860501
0.009534483032
0.009539489695
0.009520166838
0.009529040816
0.009513822238
0.009518788228
0.009521074855
0.009536344843
0.00952689385
0.009526330366
0.009529874289
0.009521487828
0.009529698242
0.009505350328
0.009528102541
0.009515112392
0.009512899789
0.009515658308
0.009517989512
0.009512895863
0.009519313275
0.009510442239
0.00951948252
0.00952587906
0.009519214535
0.009514132601
0.009520842759
0.009510538329
0.009489495607
0.009510628143
0.0095122635
0.009520613735
0.009519357039
0.00953523754
0.009507155104
0.009514183711
0.009514538326
0.009515317056
0.009529970047
0.009523543453
0.009510797416
0.009524162221
0.009510643842
0.009504482141
0.00950480498
0.009502166777
0.009507173881
0.009517783524
0.009510574148
0.009525807413
0.009520384087
0.009514043033
0.009496844043
0.009487816903
0.009453660149
0.009473318883
0.009466308224
0.009481576244
0.009489771076
0.009495703424
0.009487751915
0.009487509614
0.009481312478
0.009487990124
0.009515527837
0.009518971222
0.00949717275
0.009502381269
0.009487283912
0.009489561806
0.009499812016
0.009488073145
0.009520595557
0.009491129775
0.009477890931
0.009494171395
0.009492724081
0.009500878099
0.009487434026
0.009489126049
0.009513390931
0.009513540508
0.009501666277
0.009481159718
0.009509892324
0.009510766425
0.009505902705
0.00950172328
0.009511834847
0.009509416464
0.009520554783
0.009507619346
0.009492786036
0.009511162555
0.009507106168
0.009503208401
0.00949792993
0.009483131925
0.009489587515
0.009506386302
0.009494267416
0.009515851235
0.009524223756
0.009534169303
0.009521137401
0.009527168106
0.009536679414
0.009521127226
0.009532347521
0.009519869282
0.009520934665
0.009500211542
0.00952084697
0.009505005198
0.00952913006
0.009530243653
0.009536191347
0.009539206873
0.009535040397
0.009529458573
0.009529658556
0.009541650703
0.009520228384
0.009536449016
0.00951804568
0.009513712145
0.009526462289
0.009531562026
0.009528442765
0.009528487024
0.009547904226
0.009558706243
0.009529832508
0.009539960695
0.009541376892
0.009552026341
0.009538119521
0.009545755771
0.009552233412
0.009525394184
0.009538685995
0.009538893907
0.009553531122
0.009552709955
0.009546019496
0.009543447419
0.009548128529
0.009561468916
0.009559202491
0.009534134172
0.00952214044
0.009547983818
0.009534921189
0.009524900737
0.009535781484
0.009535087424
0.009532392092
0.009538570725
0.009543473282
0.009548396198
0.009546631873
0.009530094139
0.009554546731
0.009538005471
0.009548014451
0.009550028595
0.009536248585
0.009535965314
0.009524329173
0.009532909804
0.009527925209
0.009537659841
0.009547442637
0.00952381183
0.009533772597
0.009532990949
0.009527288843
0.009532998192
0.009533098216
0.00954643476
0.009522955975
0.009518308894
0.009532703589
0.009533441303
0.009534869935
0.009517593872
0.009520457069
0.009522873293
0.009522969431
0.009504773418
0.009530433292
0.009544293659
0.009533046821
0.009550049349
0.009525545064
0.009518910852
0.009519674104
0.009515458608
0.009526689804
0.009526949886
0.009520957773
0.009523124515
0.009513292165
0.009517264784
0.009515941244
0.009518796171
0.009543244078
0.009517335009
0.00952934258
0.009529257764
0.009524934171
0.009539373973
0.009513347592
0.009508695647
0.009504479032
0.009517918523
0.00952240312
0.009512214032
0.009528073096
0.00952939176
0.009543191366
0.009526626283
0.009525113663
0.009508368308
0.009511638018
0.009524442365
0.009520573598
0.009522361907
0.009518566641
0.009506464637
0.009538286443
0.009528704782
0.009523799412
0.009521985222
0.009506725464
0.009522152313
0.009520328948
0.009534269289
0.009500420489
0.00949899067
0.009500946429
0.009535592725
0.009517307994
0.009490754616
0.009523688439
0.009516604081
0.009501455515
0.009509254791
0.009514367491
0.009506201208
0.009513326615
0.009504250461
0.009498424688
0.009481888662
0.0094858785
0.009486886639
0.009475864483
0.009489140742
0.009497516301
0.009498166767
0.009498545762
0.009504461073
0.009485747568
0.009492644721
0.009514816186
0.009494984138
0.009509836009
0.009509026333
0.009480808341
0.00948702077
0.009487008292
0.009500388367
0.00950121291
0.009483199032
0.009506470317
0.009497436322
0.00949707945
0.009479988561
0.009480277363
0.009492820442
0.009509506865
0.009516851749
0.009492328008
0.009504322477
0.009502803631
0.009512308313
0.009525157965
0.009525242926
0.009513379432
0.009512005451
0.009513423945
0.009508412382
0.009489688952
0.009489724849
0.009521435657
0.009520516536
0.009501011875
0.009474650839
0.009508468457
0.009536300967
0.009513245031
0.009507672623
0.009531727658
0.00953053637
0.009510636741
0.009515435995
0.009539852438
0.00953544881
0.009521805487
0.009516284466
0.009521521183
0.009502972856
0.009506718431
0.009512370917
0.009539482233
0.009514496826
0.009534960691
0.009531195886
0.009531198743
0.009518173382
0.009523526999
0.009525550879
0.009513224392
0.009515419429
0.009520727928
0.009536659098
0.0095309861
0.009534915731
0.009526641362
0.009552230503
0.009536326842
0.009540732456
0.009529830305
0.009535581417
0.009555934711
0.009549266003
0.009545298945
0.009552321767
0.00955545564
0.009553659782
0.009545226762
0.009547930542
0.00954375863
0.009532443329
0.009548253924
0.009539168577
0.009540449293
0.009562743941
0.009533925568
0.009547833451
0.009539671155
0.009556547408
0.009546936126
0.009541232515
0.009544069107
0.009523147031
0.009544920537
0.009541013946
0.009523709208
0.009538557444
0.009536574811
0.009540675703
0.009535119334
0.009531937765
0.009538815243
0.009549871066
0.009561197349
0.009534650713
0.009542584445
0.009540969403
0.009525926255
0.009546237525
0.009556225666
0.009531339736
0.009540220647
0.009514123999
0.00952946145
0.009540740667
0.009525243953
0.009520776007
0.009526576155
0.009525710228
0.009510912001
0.00952677497
0.009534422011
0.00951920407
0.009512294987
0.009525482752
0.009518123748
0.009516527548
0.009550528269
0.00952867287
0.009533780425
0.009530005399
0.009525347565
0.009520687498
0.009519199315
0.00951464825
0.009533878914
0.009555802156
0.009529817035
0.009523338222
0.009523820761
0.009502075872
0.009501056829
0.009527256157
0.009520026258
0.009534949247
0.009538125755
0.009523300687
0.009521530303
0.009521967159
0.009510576544
0.009499716441
0.009493060925
0.009507135823
0.009513549381
0.009516900678
0.00950475195
0.009527471559
0.009536071781
0.009531083477
0.00952007306
0.00953021392
0.00950992249
0.009514927111
0.009522098741
0.00951255077
0.00952729115
0.009520308042
0.009498174934
0.009504381593
0.00951925939
0.009514488446
0.009502371481
0.009525911949
0.009523573231
0.009511048176
0.009503765325
0.009491305927
0.009493288583
0.009503465211
0.009514989233
0.009510472797
0.009506007721
0.009517248964
0.009522454623
0.009498001301
0.009496007104
0.009484431346
0.0095068864
0.009514283032
0.009525191204
0.009508633523
0.009497498529
0.009487843269
0.009476455363
0.009472012412
0.009500251613
0.009485629044
0.009481216841
0.009506035682
0.009476024825
0.00948344905
0.009502796016
0.009512056001
0.009518815547
0.009501776725
0.009496918006
0.009487484974
0.009482036295
0.009494001536
0.009496472094
0.009480710164
0.009503249392
0.009497036309
0.009493498008
0.009495905642
0.009480821343
0.009503289868
0.009497078431
0.009507910645
0.009511939334
0.009520997624
0.009510280893
0.009508129149
0.009516243529
0.009496712134
0.009517774321
0.009508881654
0.009527738181
0.009519867997
0.009503353942
0.009508805701
0.009509176847
0.009524737515
0.009513563261
0.009507493077
0.009489507033
0.009523528925
0.009505676616
0.00950745994
0.009511190249
0.009519822752
0.00952783294
0.009532464916
0.009536822275
0.009546548029
0.009512923464
0.009530209289
0.009519994789
0.009510452624
0.009513600216
0.009516359135
0.009515048604
0.0095358937
0.009526604366
0.009528852141
0.009521116006
0.009533735747
0.009523432434
0.009530967235
0.009532578369
0.009502800665
0.009510044734
0.009526369833
0.009527289985
0.009503872094
0.009520018674
0.009549569966
0.00955046056
0.009542697246
0.009542490831
0.00955525069
0.009532421353
0.00953852805
0.00954771599
0.009549489288
0.009547401259
0.009537621814
0.009552251611
0.009546569285
0.00956061106
0.009546697533
0.009557796734
0.009541354196
0.009549897491
0.009547300455
0.009524792163
0.009546473746
0.009534381589
0.009549226139
0.009556852563
0.009540066603
0.009535579334
0.009539130127
0.00954605493
0.009534532272
0.009554704601
0.009544431706
0.009542019251
0.009517427103
0.009532110186
0.009531286289
0.009527768198
0.009544938978
0.009545130097
0.009531955391
0.009551185926
0.009555322844
0.009553692116
0.009556118577
0.009553183168
0.009547757998
0.009522012212
0.009527332737
0.009513425625
0.0095340633
0.009531238223
0.009535734571
0.009524598296
0.00951984077
0.009538247457
0.009518085718
0.009528581205
0.009538981726
0.009532710841
0.009535169044
0.009525490199
0.009523893649
0.009526200872
0.009535719958
0.009544888326
0.009518787161
0.009549162298
0.009563930023
0.009525186569
0.009521770088
0.009523513179
0.009514514802
0.009535032793
0.009532325734
0.00952395655
0.009503858794
0.009520804669
0.009516951641
0.009524181833
0.009526567025
0.009540147695
0.009526803453
0.009513590649
0.00953182863
0.009511764022
0.009533355895
0.009530657975
0.009522660504
0.009496147255
0.009502967783
0.009509870791
0.009521155528
0.009536181352
0.00951037688
0.009521494321
0.009531984336
0.009524166346
0.009515734975
0.009518662483
0.009516289151
0.009498924712
0.009502059359
0.009499456049
0.00951438168
0.009523537353
0.00952454924
0.009497777356
0.009520099029
0.009522413212
0.00951353846
0.00950654535
0.009515491681
0.009506630089
0.009494440122
0.009490919058
0.009504700054
)
;

boundaryField
{
    bottom
    {
        type            calculated;
        value           nonuniform List<scalar> 
200
(
0.009515614257
0.009524498447
0.009503365707
0.009516998163
0.009493877445
0.009501192736
0.009509941945
0.009493705767
0.00950029076
0.009486685155
0.009476247394
0.009483961616
0.009495113435
0.00951126365
0.009489601563
0.009456714385
0.009499393255
0.009496280797
0.009505144147
0.009498152052
0.00948585073
0.009488620515
0.009499908675
0.009503119455
0.009501380979
0.009493178216
0.009511006491
0.009502683062
0.009489075556
0.009484700406
0.009508545457
0.009491339926
0.009489777157
0.00948536784
0.009485363604
0.009501034735
0.009491823868
0.009516121426
0.009500194026
0.009508531185
0.009490489844
0.009497387252
0.009510780196
0.009498295275
0.009506795222
0.009515052879
0.009505950878
0.009515839186
0.009511821937
0.009494495778
0.009508766187
0.009501583204
0.009520291368
0.009499013009
0.009499701119
0.009497065166
0.009516496105
0.009523616388
0.009528345045
0.009531817294
0.009525690844
0.009513658044
0.00952859814
0.009503639263
0.009530113513
0.00952315479
0.0094874236
0.009493407976
0.009517278745
0.009518388166
0.009520921595
0.009531665999
0.009527822163
0.009527055082
0.00955166861
0.009534711141
0.009524960768
0.009499011393
0.00953600156
0.009530574761
0.009519710607
0.009522270844
0.009516042709
0.009536456125
0.009554126512
0.009537666321
0.00953103004
0.009537188671
0.009548056721
0.009539944338
0.009537072257
0.009537613149
0.009535624198
0.009534768081
0.009568675211
0.009559132087
0.009545952722
0.009552585792
0.009552129183
0.00953424194
0.009544347022
0.009544868713
0.009550750143
0.009546684453
0.00952285632
0.009541649135
0.009543951741
0.009539432973
0.009552279571
0.009537633281
0.009520063458
0.009517856886
0.009527578823
0.009536185584
0.009534325689
0.009551311284
0.009549167
0.009522899722
0.009545087177
0.009557484209
0.009556275541
0.009548825876
0.009541772598
0.009526478777
0.009534144096
0.009536940035
0.009540217226
0.009546201455
0.009548610976
0.00953304193
0.009529107942
0.009530919747
0.009548823446
0.009545016683
0.009539222659
0.009547673586
0.009551409381
0.009511860345
0.009536267617
0.009540089161
0.00952700274
0.009519532202
0.009529934396
0.009538662849
0.009534882251
0.009531783103
0.009537924744
0.009538938188
0.009537712353
0.009524715716
0.009527584231
0.009530070275
0.00953551804
0.009526843082
0.009528003498
0.009508124777
0.009537169778
0.009541704165
0.009547245219
0.009520237194
0.009507726511
0.009495163057
0.009535812633
0.009534170727
0.009509564408
0.009515607474
0.00951422969
0.009517937311
0.009517605692
0.009542139368
0.009517599945
0.009536366922
0.009511219577
0.009508947903
0.009551657111
0.009515322874
0.00949864152
0.00951672368
0.009530852757
0.009540069073
0.009513969848
0.009503496055
0.009513134952
0.009505392087
0.009512245723
0.009504615525
0.009507495246
0.00950951952
0.009525700632
0.009525517364
0.009504464073
0.009499503677
0.009522744846
0.009507512467
0.009527877925
0.009497610131
0.009494690268
0.009489258912
0.009492231923
0.009521449298
)
;
    }
    top
    {
        type            calculated;
        value           nonuniform List<scalar> 
200
(
0.009506007721
0.009517248964
0.009522454623
0.009498001301
0.009496007104
0.009484431346
0.0095068864
0.009514283032
0.009525191204
0.009508633523
0.009497498529
0.009487843269
0.009476455363
0.009472012412
0.009500251613
0.009485629044
0.009481216841
0.009506035682
0.009476024825
0.00948344905
0.009502796016
0.009512056001
0.009518815547
0.009501776725
0.009496918006
0.009487484974
0.009482036295
0.009494001536
0.009496472094
0.009480710164
0.009503249392
0.009497036309
0.009493498008
0.009495905642
0.009480821343
0.009503289868
0.009497078431
0.009507910645
0.009511939334
0.009520997624
0.009510280893
0.009508129149
0.009516243529
0.009496712134
0.009517774321
0.009508881654
0.009527738181
0.009519867997
0.009503353942
0.009508805701
0.009509176847
0.009524737515
0.009513563261
0.009507493077
0.009489507033
0.009523528925
0.009505676616
0.00950745994
0.009511190249
0.009519822752
0.00952783294
0.009532464916
0.009536822275
0.009546548029
0.009512923464
0.009530209289
0.009519994789
0.009510452624
0.009513600216
0.009516359135
0.009515048604
0.0095358937
0.009526604366
0.009528852141
0.009521116006
0.009533735747
0.009523432434
0.009530967235
0.009532578369
0.009502800665
0.009510044734
0.009526369833
0.009527289985
0.009503872094
0.009520018674
0.009549569966
0.00955046056
0.009542697246
0.009542490831
0.00955525069
0.009532421353
0.00953852805
0.00954771599
0.009549489288
0.009547401259
0.009537621814
0.009552251611
0.009546569285
0.00956061106
0.009546697533
0.009557796734
0.009541354196
0.009549897491
0.009547300455
0.009524792163
0.009546473746
0.009534381589
0.009549226139
0.009556852563
0.009540066603
0.009535579334
0.009539130127
0.00954605493
0.009534532272
0.009554704601
0.009544431706
0.009542019251
0.009517427103
0.009532110186
0.009531286289
0.009527768198
0.009544938978
0.009545130097
0.009531955391
0.009551185926
0.009555322844
0.009553692116
0.009556118577
0.009553183168
0.009547757998
0.009522012212
0.009527332737
0.009513425625
0.0095340633
0.009531238223
0.009535734571
0.009524598296
0.00951984077
0.009538247457
0.009518085718
0.009528581205
0.009538981726
0.009532710841
0.009535169044
0.009525490199
0.009523893649
0.009526200872
0.009535719958
0.009544888326
0.009518787161
0.009549162298
0.009563930023
0.009525186569
0.009521770088
0.009523513179
0.009514514802
0.009535032793
0.009532325734
0.00952395655
0.009503858794
0.009520804669
0.009516951641
0.009524181833
0.009526567025
0.009540147695
0.009526803453
0.009513590649
0.00953182863
0.009511764022
0.009533355895
0.009530657975
0.009522660504
0.009496147255
0.009502967783
0.009509870791
0.009521155528
0.009536181352
0.00951037688
0.009521494321
0.009531984336
0.009524166346
0.009515734975
0.009518662483
0.009516289151
0.009498924712
0.009502059359
0.009499456049
0.00951438168
0.009523537353
0.00952454924
0.009497777356
0.009520099029
0.009522413212
0.00951353846
0.00950654535
0.009515491681
0.009506630089
0.009494440122
0.009490919058
0.009504700054
)
;
    }
    inlet
    {
        type            cyclic;
    }
    outlet
    {
        type            cyclic;
    }
    back
    {
        type            symmetry;
    }
    front
    {
        type            symmetry;
    }
}


// ************************************************************************* //
