/*--------------------------------*- C++ -*----------------------------------*\
| =========                 |                                                 |
| \\      /  F ield         | OpenFOAM: The Open Source CFD Toolbox           |
|  \\    /   O peration     | Version:  v1706                                 |
|   \\  /    A nd           | Web:      www.OpenFOAM.com                      |
|    \\/     M anipulation  |                                                 |
\*---------------------------------------------------------------------------*/
FoamFile
{
    version     2.0;
    format      ascii;
    class       volScalarField;
    location    "0.27";
    object      dsmcRhoNMean_Ar;
}
// * * * * * * * * * * * * * * * * * * * * * * * * * * * * * * * * * * * * * //

dimensions      [0 -3 0 0 0 0 0];


internalField   nonuniform List<scalar> 
1000
(
97.22291667
97.13416667
97.2700463
97.16921296
97.41736111
97.29731481
97.2612037
97.40097222
97.28564815
97.41
97.59208333
97.4699537
97.43861111
97.33490741
97.39
97.74087963
97.40050926
97.37175926
97.36763889
97.39518519
97.5249537
97.46027778
97.3462037
97.3187037
97.3687037
97.28717593
97.27810185
97.42828704
97.52101852
97.4337037
97.25763889
97.41949074
97.44388889
97.52824074
97.44578704
97.33333333
97.49398148
97.24319444
97.33481481
97.23226852
97.31861111
97.35092593
97.21208333
97.32263889
97.21402778
97.22226852
97.28916667
97.23638889
97.26069444
97.38712963
97.21921296
97.20888889
97.08449074
97.30092593
97.32194444
97.3399537
97.18898148
97.12800926
97.10351852
97.03685185
97.1412037
97.23287037
97.09185185
97.37157407
97.09069444
97.16606481
97.44611111
97.35106481
97.11888889
97.12259259
97.11791667
97.02083333
97.11092593
97.01083333
96.85912037
96.93162037
97.12162037
97.33722222
97.01680556
97.00134259
97.11944444
97.15606481
97.21361111
97.01708333
96.84583333
97.02273148
97.05638889
97.12726852
96.91134259
96.98203704
97.03333333
97.07541667
97.1512037
97.17078704
96.80037037
96.85166667
97.02
96.90189815
96.83064815
97.10768519
97.05111111
97.07851852
96.99819444
96.9687963
97.21023148
97.08481481
97.01662037
97.05527778
96.94810185
97.05953704
97.28685185
97.26810185
97.20814815
97.22564815
97.1137963
96.97939815
96.91787037
97.18240741
97.04282407
96.9399537
96.91976852
96.98541667
97.07782407
97.18384259
97.1312037
97.1124537
96.96194444
96.96472222
96.98092593
97.09027778
97.09347222
97.10134259
97.00569444
97.04472222
97.06430556
96.97300926
96.89134259
97.33708333
97.09347222
97.03763889
97.24532407
97.23953704
97.16425926
97.13546296
97.11555556
97.16453704
97.18333333
97.22328704
97.14537037
97.18884259
97.16837963
97.14939815
97.09055556
97.25546296
97.27837963
97.38722222
97.08046296
97.02861111
96.98967593
97.29171296
97.32087963
97.49444444
97.07351852
97.14986111
97.33958333
97.30462963
97.30875
97.29717593
97.26319444
97.0137037
97.24759259
97.12981481
97.20157407
97.2475463
96.86819444
97.31986111
97.43282407
97.25018519
97.20842593
97.05300926
97.21212963
97.38689815
97.23351852
97.3425463
97.29509259
97.3437963
97.35856481
97.28583333
97.20625
97.2075
97.42171296
97.52976852
97.26939815
97.36680556
97.02814815
97.34939815
97.40865741
97.39291667
97.45958333
97.23310185
97.44467593
97.33296296
97.23638889
97.33291667
97.44296296
97.30287037
97.24824074
97.40328704
97.3999537
97.36259259
97.45097222
97.49351852
97.55481481
97.23407407
97.46444444
97.4087037
97.3349537
97.42925926
97.51564815
97.57115741
97.31097222
97.08768519
97.33731481
97.23462963
97.26625
97.11027778
97.51171296
97.59097222
97.56444444
97.58611111
97.45083333
97.66074074
97.41013889
97.54652778
97.255
97.32152778
97.3625
97.25064815
97.16541667
97.29796296
97.28222222
97.37824074
97.25435185
97.30263889
97.14689815
97.19203704
97.18236111
97.21944444
97.29837963
97.13078704
97.24134259
97.29175926
97.30856481
97.29666667
97.26541667
97.35398148
97.30532407
97.12643519
97.00907407
96.97912037
96.85796296
97.01462963
97.06625
97.16976852
97.19782407
97.0550463
97.19476852
97.21342593
97.09171296
97.00851852
96.9512037
97.02689815
97.09319444
97.06231481
97.05050926
97.10939815
97.12347222
97.17180556
97.08722222
97.13041667
97.08666667
97.07231481
97.1524537
97.05407407
96.86296296
96.90939815
97.03166667
97.01231481
97.08231481
97.07513889
97.05037037
97.08902778
97.12087963
96.81541667
96.99273148
97.0424537
96.98277778
96.99023148
96.9525463
96.98680556
97.08703704
96.92027778
96.89087963
97.0399537
96.96347222
97.01083333
96.89351852
96.94259259
97.17884259
97.24101852
97.08027778
97.14893519
97.07907407
97.07314815
96.94416667
96.92023148
96.92810185
97.17569444
97.02851852
97.03606481
97.0037963
96.99523148
96.96416667
96.97069444
97.10226852
96.96101852
97.04819444
97.10319444
96.92856481
97.10240741
97.14773148
97.18828704
97.02402778
97.07208333
97.11777778
96.99703704
97.16259259
97.17050926
97.06981481
97.08796296
97.23782407
97.29092593
97.1237037
96.94523148
97.03185185
97.0925463
97.27638889
97.19046296
97.13773148
97.0874537
97.29194444
97.26675926
97.36032407
97.25009259
97.30365741
97.26666667
97.11532407
96.98578704
97.28717593
97.19527778
97.35523148
97.2437037
97.18115741
97.12046296
97.22078704
97.20388889
97.17847222
97.30074074
97.17819444
97.41694444
97.24375
97.35342593
97.35476852
97.20782407
97.25337963
97.35314815
97.31606481
97.37537037
97.295
97.18782407
97.29097222
97.29875
97.17898148
97.37444444
97.47694444
97.27412037
97.30175926
97.19564815
97.27416667
97.07939815
97.38365741
97.26953704
97.33675926
97.26689815
97.12703704
97.12347222
97.17773148
97.16791667
97.30060185
97.3587963
97.32
97.37388889
97.33050926
97.27467593
97.25972222
97.09226852
97.14375
97.23972222
97.30032407
97.43027778
97.65986111
97.56837963
97.62837963
97.49796296
97.43152778
97.41027778
97.44291667
97.51810185
97.53074074
97.40587963
97.24097222
97.21768519
97.42486111
97.31037037
97.41125
97.46842593
97.36990741
97.51009259
97.16212963
97.37319444
97.54810185
97.40083333
97.40384259
97.29453704
97.39898148
97.46166667
97.25546296
97.20393519
97.3062963
97.53939815
97.23819444
97.22134259
97.23296296
97.35768519
97.2324537
97.23259259
97.14069444
97.29796296
97.37657407
97.20328704
97.25893519
97.28097222
97.27421296
97.47171296
97.42962963
97.26453704
97.3962963
97.15925926
97.11092593
97.04421296
97.22236111
97.12476852
97.04175926
97.14462963
97.06208333
97.12703704
97.14569444
97.32759259
97.05435185
97.2225463
97.02486111
96.96416667
96.92662037
96.97856481
97.05421296
97.14287037
97.04925926
96.95712963
97.21574074
96.96453704
97.15402778
97.19916667
97.06638889
97.02962963
97.02319444
97.08435185
96.91347222
96.85472222
97.12578704
96.96657407
97.02277778
96.91791667
96.99226852
96.94115741
96.90439815
97.19166667
96.97226852
97.09986111
96.88777778
96.92662037
97.04263889
97.03435185
97.00055556
96.84259259
96.88574074
97.1725
97.29574074
97.07435185
97.14768519
97.15671296
97.04555556
97.10666667
97.08388889
97.10861111
97.06143519
96.99694444
97.02412037
97.14962963
96.95115741
97.07768519
96.95597222
96.92935185
97.04796296
97.12847222
97.2049537
97.15101852
97.20648148
97.07935185
96.95763889
97.20087963
97.11393519
97.17189815
97.20805556
97.13185185
97.21685185
97.06263889
97.24157407
97.27287037
97.14949074
97.13842593
97.13648148
97.26583333
97.24328704
97.31736111
97.24541667
97.44125
97.19291667
97.0800463
97.12657407
96.98055556
97.27597222
97.28490741
97.3337037
97.32527778
97.22398148
97.13523148
97.20680556
97.20305556
97.29064815
97.25708333
97.31337963
97.29875
97.08231481
97.28810185
97.17592593
97.18050926
97.12953704
97.08055556
97.29972222
97.38134259
97.35328704
97.2662037
97.30171296
97.29689815
97.10185185
97.17342593
97.00597222
97.16074074
97.18208333
97.37763889
97.35398148
97.24986111
97.25550926
97.2212037
97.16203704
97.35564815
97.01736111
97.1125
97.26921296
97.22768519
97.30768519
97.21074074
97.19097222
97.13532407
97.36587963
97.36967593
97.28189815
97.0412037
97.26384259
97.51055556
97.13976852
97.20939815
97.30023148
97.25898148
97.23685185
97.22287037
97.18527778
97.30337963
97.31675926
97.49143519
97.51222222
97.48699074
97.54875
97.47583333
97.38111111
97.33907407
97.37171296
97.24967593
97.48606481
97.4350463
97.21092593
97.42847222
97.25717593
97.2599537
97.50421296
97.44587963
97.45333333
97.37078704
97.38106481
97.50819444
97.28106481
97.36949074
97.31333333
97.4662963
97.49513889
97.37314815
97.21337963
97.19231481
97.37763889
97.28560185
97.3237963
97.2575463
97.14277778
97.05805556
97.22393519
97.21666667
97.14078704
97.25694444
97.44064815
97.43680556
97.11060185
97.11375
97.31652778
97.62027778
97.22699074
96.94217593
97.24300926
97.28097222
97.01
97.06935185
97.25527778
97.24287037
96.99162037
97.04439815
97.18541667
97.15050926
97.09407407
97.3412037
97.23925926
97.2125463
96.9237037
97.17111111
97.00282407
97.06263889
97.08615741
97.21203704
97.08759259
97.11185185
97.30916667
97.21240741
97.16046296
96.93685185
97.00046296
96.96347222
97.07583333
96.87291667
96.97611111
96.93842593
97.0662037
96.98703704
96.83856481
96.91185185
96.93361111
96.91953704
96.86773148
96.90384259
96.98
96.99430556
96.95657407
97.07611111
96.93467593
97.02314815
97.09337963
96.89060185
97.16185185
96.99009259
97.13837963
96.95152778
97.05819444
97.06486111
97.08125
97.19916667
97.01601852
97.0887963
97.29458333
97.12787037
97.15625
97.07027778
97.14537037
97.1875
97.01287037
97.01643519
96.89240741
97.14046296
97.09435185
97.05685185
97.17402778
97.02578704
96.95972222
97.16898148
97.04782407
97.31402778
97.17287037
97.13532407
97.24208333
97.35388889
97.22837963
97.25990741
97.33527778
97.16310185
97.11092593
97.25976852
97.33212963
97.2175463
97.29847222
97.29875
97.05481481
97.18046296
97.21925926
97.16083333
97.25240741
97.2937037
97.28990741
97.27625
97.15777778
96.8725
97.12523148
97.20814815
97.26662037
97.37541667
97.45384259
97.12518519
97.2149537
97.08796296
97.12430556
97.16842593
97.24708333
97.2250463
97.26296296
97.42217593
97.5574537
97.35907407
97.28287037
97.26912037
97.36597222
97.12222222
97.15893519
97.14435185
97.21939815
97.13986111
97.36986111
97.3337963
97.22384259
97.3124537
97.09
97.31277778
97.42037037
97.39638889
97.2612963
97.33
97.38476852
97.18162037
97.22513889
97.31157407
97.35175926
97.46416667
97.42337963
97.33402778
97.22601852
97.26412037
97.31736111
97.2325463
97.1224537
97.36018519
97.30768519
97.45574074
97.26768519
97.18324074
97.09907407
97.30578704
97.32541667
97.42564815
97.47523148
97.5537963
97.28152778
97.41310185
97.50828704
97.29884259
97.45328704
97.37694444
97.31199074
97.25601852
97.11875
97.27180556
97.37708333
97.43953704
97.47328704
97.40074074
97.40884259
97.57087963
97.35787037
97.41425926
97.41305556
97.28722222
97.47916667
97.29398148
97.32212963
97.22310185
97.20199074
97.09805556
97.20634259
97.25314815
97.18240741
97.35722222
97.17569444
97.30930556
97.07847222
97.18166667
97.37703704
97.21324074
97.20800926
97.10615741
97.24532407
97.23064815
97.3587037
97.05736111
97.22111111
97.25564815
97.26208333
97.20055556
97.07458333
97.03643519
97.0500463
96.94050926
97.19587963
96.98449074
97.00356481
97.1562037
97.2199537
97.17805556
97.17240741
96.99564815
97.09587963
97.06837963
97.11194444
97.04509259
97.13680556
97.08574074
97.08291667
97.30171296
97.19115741
97.03972222
97.06625
97.27078704
97.12361111
96.8612037
96.85800926
96.99078704
97.03726852
96.83287037
97.07013889
97.02476852
96.92240741
96.97185185
97.00560185
97.06675926
96.97083333
97.01986111
96.8425463
96.96435185
96.7962963
96.95805556
96.96578704
96.97861111
97.18731481
97.00467593
97.14236111
97.07810185
96.98699074
97.1849537
97.13439815
97.13314815
97.01893519
97.08027778
96.93597222
97.04138889
97.05037037
97.28921296
97.19842593
97.19324074
97.20291667
96.99694444
96.95828704
97.06939815
96.92166667
96.98615741
96.94898148
96.91240741
96.91675926
96.96157407
97.25055556
97.20685185
97.25013889
97.07902778
97.17550926
97.1662037
97.25564815
97.295
97.16041667
97.31
97.15324074
97.15699074
97.14699074
97.11185185
97.22564815
97.20685185
97.14078704
97.09865741
97.02587963
97.24564815
97.02046296
96.92736111
97.27023148
97.18097222
97.21592593
97.27972222
97.10166667
97.14203704
97.26791667
97.47569444
97.26847222
97.27601852
97.23671296
97.21
97.07587963
97.20583333
97.31615741
97.17125
97.29092593
97.0675
97.17125
97.26763889
97.4675
97.34555556
97.31092593
97.25990741
97.21069444
97.39365741
97.27342593
97.25824074
97.27467593
97.35208333
97.24259259
97.28925926
97.43814815
97.40222222
97.46976852
97.32476852
97.2537037
97.21518519
97.42601852
97.17453704
97.19365741
97.27912037
97.34421296
97.24097222
97.25444444
97.37532407
97.375
97.30972222
)
;

boundaryField
{
    bottom
    {
        type            calculated;
        value           nonuniform List<scalar> 
200
(
97.22291667
97.13416667
97.2700463
97.16921296
97.41736111
97.29731481
97.2612037
97.40097222
97.28564815
97.41
97.59208333
97.4699537
97.43861111
97.33490741
97.39
97.74087963
97.40050926
97.37175926
97.36763889
97.39518519
97.5249537
97.46027778
97.3462037
97.3187037
97.3687037
97.28717593
97.27810185
97.42828704
97.52101852
97.4337037
97.25763889
97.41949074
97.44388889
97.52824074
97.44578704
97.33333333
97.49398148
97.24319444
97.33481481
97.23226852
97.31861111
97.35092593
97.21208333
97.32263889
97.21402778
97.22226852
97.28916667
97.23638889
97.26069444
97.38712963
97.21921296
97.20888889
97.08449074
97.30092593
97.32194444
97.3399537
97.18898148
97.12800926
97.10351852
97.03685185
97.1412037
97.23287037
97.09185185
97.37157407
97.09069444
97.16606481
97.44611111
97.35106481
97.11888889
97.12259259
97.11791667
97.02083333
97.11092593
97.01083333
96.85912037
96.93162037
97.12162037
97.33722222
97.01680556
97.00134259
97.11944444
97.15606481
97.21361111
97.01708333
96.84583333
97.02273148
97.05638889
97.12726852
96.91134259
96.98203704
97.03333333
97.07541667
97.1512037
97.17078704
96.80037037
96.85166667
97.02
96.90189815
96.83064815
97.10768519
97.05111111
97.07851852
96.99819444
96.9687963
97.21023148
97.08481481
97.01662037
97.05527778
96.94810185
97.05953704
97.28685185
97.26810185
97.20814815
97.22564815
97.1137963
96.97939815
96.91787037
97.18240741
97.04282407
96.9399537
96.91976852
96.98541667
97.07782407
97.18384259
97.1312037
97.1124537
96.96194444
96.96472222
96.98092593
97.09027778
97.09347222
97.10134259
97.00569444
97.04472222
97.06430556
96.97300926
96.89134259
97.33708333
97.09347222
97.03763889
97.24532407
97.23953704
97.16425926
97.13546296
97.11555556
97.16453704
97.18333333
97.22328704
97.14537037
97.18884259
97.16837963
97.14939815
97.09055556
97.25546296
97.27837963
97.38722222
97.08046296
97.02861111
96.98967593
97.29171296
97.32087963
97.49444444
97.07351852
97.14986111
97.33958333
97.30462963
97.30875
97.29717593
97.26319444
97.0137037
97.24759259
97.12981481
97.20157407
97.2475463
96.86819444
97.31986111
97.43282407
97.25018519
97.20842593
97.05300926
97.21212963
97.38689815
97.23351852
97.3425463
97.29509259
97.3437963
97.35856481
97.28583333
97.20625
97.2075
97.42171296
97.52976852
97.26939815
97.36680556
97.02814815
97.34939815
97.40865741
97.39291667
97.45958333
97.23310185
)
;
    }
    top
    {
        type            calculated;
        value           nonuniform List<scalar> 
200
(
97.31736111
97.2325463
97.1224537
97.36018519
97.30768519
97.45574074
97.26768519
97.18324074
97.09907407
97.30578704
97.32541667
97.42564815
97.47523148
97.5537963
97.28152778
97.41310185
97.50828704
97.29884259
97.45328704
97.37694444
97.31199074
97.25601852
97.11875
97.27180556
97.37708333
97.43953704
97.47328704
97.40074074
97.40884259
97.57087963
97.35787037
97.41425926
97.41305556
97.28722222
97.47916667
97.29398148
97.32212963
97.22310185
97.20199074
97.09805556
97.20634259
97.25314815
97.18240741
97.35722222
97.17569444
97.30930556
97.07847222
97.18166667
97.37703704
97.21324074
97.20800926
97.10615741
97.24532407
97.23064815
97.3587037
97.05736111
97.22111111
97.25564815
97.26208333
97.20055556
97.07458333
97.03643519
97.0500463
96.94050926
97.19587963
96.98449074
97.00356481
97.1562037
97.2199537
97.17805556
97.17240741
96.99564815
97.09587963
97.06837963
97.11194444
97.04509259
97.13680556
97.08574074
97.08291667
97.30171296
97.19115741
97.03972222
97.06625
97.27078704
97.12361111
96.8612037
96.85800926
96.99078704
97.03726852
96.83287037
97.07013889
97.02476852
96.92240741
96.97185185
97.00560185
97.06675926
96.97083333
97.01986111
96.8425463
96.96435185
96.7962963
96.95805556
96.96578704
96.97861111
97.18731481
97.00467593
97.14236111
97.07810185
96.98699074
97.1849537
97.13439815
97.13314815
97.01893519
97.08027778
96.93597222
97.04138889
97.05037037
97.28921296
97.19842593
97.19324074
97.20291667
96.99694444
96.95828704
97.06939815
96.92166667
96.98615741
96.94898148
96.91240741
96.91675926
96.96157407
97.25055556
97.20685185
97.25013889
97.07902778
97.17550926
97.1662037
97.25564815
97.295
97.16041667
97.31
97.15324074
97.15699074
97.14699074
97.11185185
97.22564815
97.20685185
97.14078704
97.09865741
97.02587963
97.24564815
97.02046296
96.92736111
97.27023148
97.18097222
97.21592593
97.27972222
97.10166667
97.14203704
97.26791667
97.47569444
97.26847222
97.27601852
97.23671296
97.21
97.07587963
97.20583333
97.31615741
97.17125
97.29092593
97.0675
97.17125
97.26763889
97.4675
97.34555556
97.31092593
97.25990741
97.21069444
97.39365741
97.27342593
97.25824074
97.27467593
97.35208333
97.24259259
97.28925926
97.43814815
97.40222222
97.46976852
97.32476852
97.2537037
97.21518519
97.42601852
97.17453704
97.19365741
97.27912037
97.34421296
97.24097222
97.25444444
97.37532407
97.375
97.30972222
)
;
    }
    inlet
    {
        type            cyclic;
    }
    outlet
    {
        type            cyclic;
    }
    back
    {
        type            symmetry;
    }
    front
    {
        type            symmetry;
    }
}


// ************************************************************************* //
