/*--------------------------------*- C++ -*----------------------------------*\
| =========                 |                                                 |
| \\      /  F ield         | OpenFOAM: The Open Source CFD Toolbox           |
|  \\    /   O peration     | Version:  v1706                                 |
|   \\  /    A nd           | Web:      www.OpenFOAM.com                      |
|    \\/     M anipulation  |                                                 |
\*---------------------------------------------------------------------------*/
FoamFile
{
    version     2.0;
    format      ascii;
    class       volScalarField;
    location    "0.27";
    object      Ma_Ar;
}
// * * * * * * * * * * * * * * * * * * * * * * * * * * * * * * * * * * * * * //

dimensions      [0 0 0 0 0 0 0];


internalField   nonuniform List<scalar> 
1000
(
0.0006564196884
0.0001662339269
0.0007756462988
0.0007018805058
0.0009775761324
0.0007168384524
0.0005722931158
0.00120329269
0.0005529391809
0.001228512603
0.001409739535
0.001375582392
0.001552104928
0.0002245822639
0.0002910468275
0.0005403908534
0.0005908829355
0.001011778909
0.0007202691952
0.0004013747699
0.0008669251489
0.0006359786857
0.00110374547
0.0008215377141
0.0004829476517
0.0004643851177
0.0006176195128
0.0004808729827
0.0003916259733
0.0006773549681
0.0008345559132
0.0004572909369
0.001748833092
0.001729399288
0.0007717700021
0.001027709623
0.0007645709327
0.0006551993382
0.0003585445698
0.0004512710984
0.0005513714104
0.000540569226
0.001196211731
0.0007955396464
0.0008595204494
0.001005922592
0.0002993329452
0.0005260764181
0.000766822849
0.0006062171593
0.0009494173002
0.0006967348592
0.0006673926463
0.0009873674226
0.0008581638602
0.0004979141678
0.0009340310753
0.0005395625621
0.0005716873482
0.0005476719305
0.001374709354
0.001362885241
0.0006285137547
0.0008089133481
0.0007481657481
0.0006159179024
0.001113446047
0.001432447093
0.0001526307357
0.0007103894223
0.0006913689544
0.0004004845737
0.0006055250387
0.0009047043955
0.00192335299
0.00190465369
0.001138051309
0.0009531516072
0.0004115606678
0.0006882556179
0.00079300769
0.0004095992156
0.0006836913053
0.0005277667006
0.0005802116131
0.0008142672591
0.001324829139
0.0009140705763
0.0006860019595
0.0007747616035
0.0006879674891
0.001053148368
0.0005857008384
0.0006918508827
0.0006435462133
0.001825824663
0.001700557405
0.0006145664312
0.001506862716
0.0006237762662
0.001146614813
0.0004994494764
0.0004883696071
0.0006735702271
0.0005230382325
0.0009834256619
0.001673530658
0.001329685971
0.0004066527956
0.0006244369751
0.001277421038
0.0006641609494
0.001319078009
0.0007844586223
0.001257545245
0.0004162349815
0.0002208420125
0.000849986652
0.0005011910049
0.0004956988385
0.0006613386879
0.001029299542
0.001415551095
0.001306903978
0.0009758101915
0.0006358416601
0.0008797312756
0.001540465855
0.001287622645
0.0009594350068
0.0004968548299
0.0006657845495
0.0006987818596
0.001032738839
0.0003011011254
0.0006355540884
0.0006467428465
0.000598063733
0.0006803371842
0.001288011808
0.0005071535818
0.0004252110821
0.001030164807
0.0009596489244
0.0009810431395
0.001015754739
0.000333884684
0.0001410839188
0.001247755846
0.0006485404346
0.000790281049
0.000662902252
0.0008416980581
0.0008804926078
0.0008079336456
0.0003557220063
0.0002102962681
0.0001356994574
0.001152754597
0.001155735437
0.0009321133462
0.0006577528167
0.001263458049
0.0007851079686
0.001292416939
0.0001977296411
0.0008527519418
0.001120170668
0.0006424211678
0.0005513929586
0.0005793907632
0.0001178580665
0.0004850995154
0.0008322349981
0.0008219116269
0.0006920074321
0.0006776033649
0.000556736272
0.0005708195058
0.0009339624826
0.001305394419
0.001751966561
0.001320827593
0.0009965241258
0.0009672288129
0.001025525966
0.000568046832
0.0004400017921
0.0004322084879
0.0007354089243
0.0009933992206
0.0008167187139
0.0009790055124
0.0007155891672
0.0003529813855
0.0008509081781
0.001388544702
0.001052475819
0.0004845748664
0.0007794199784
0.0006162980016
0.0007600316653
0.0006060770251
0.0008729102385
0.0005209929163
0.0009419804516
0.0004997494643
0.0006725076727
0.0005558757906
0.0009606990605
0.0003335421535
0.001185596487
0.001336032273
0.001262967275
0.0008595583608
0.0009592666954
0.0007822779882
0.001023797729
0.001017911336
0.0007242043702
0.0006915036459
0.001098922608
0.00132756393
0.0004922456742
0.001009964054
0.001462631249
0.001635217005
0.0009279255574
0.001714936696
0.0007457989616
0.0004988118692
0.0008873884802
0.0008333395932
0.001477808007
0.0007648452486
0.001054339114
0.0007006989146
0.001326303203
0.001479269074
0.0008454488099
0.001236618915
0.000683629586
0.0008567828273
0.0007460166498
0.0007243137306
0.0003692320267
0.001294423842
0.001123722532
0.0009687162545
0.0001424448473
0.0007229515389
0.0009072545882
0.001105509301
0.001690739832
0.0009285999136
0.001125471658
0.001132480185
0.0009869405113
0.0002352561864
0.001308843826
0.0005660483349
0.0005446231657
0.000861447509
0.001160614628
0.001000440079
0.0004858661936
0.0006686461217
0.000599034016
0.001121357599
0.00101927059
0.0008776317484
0.001228526975
0.0004937240169
0.0007134083905
0.001618107391
0.0003602346967
0.001605946252
0.0006613380897
0.001347285746
0.0009476971853
0.000593422299
0.001189569373
0.001332205453
0.0006964963235
0.0008771702915
0.001992666275
0.0003021107082
0.001688682011
0.0008499637661
0.001052976012
0.0009962664018
0.0005754657648
0.0004387903909
0.00130591694
0.001126821001
0.0005575168767
0.001350928253
0.0012825235
0.001212326283
0.0008738435475
0.0004407873978
0.001408822349
0.001699312874
0.0009111391486
0.001160759894
0.0008476841321
0.0009556458217
0.0008726536488
0.001049349431
0.001497057467
0.0003379346538
0.001606797232
0.0009723307077
0.0004788506685
0.0007118205777
0.0001454368392
0.00142583091
0.0009747393451
0.0004671571727
0.001200283202
0.00095653081
0.001127043196
0.0008844926378
0.0005509298792
0.0006861314553
0.0005953636355
0.0005766247752
0.0006386185712
0.00140674555
0.0006697957826
0.0003382582179
0.0008582605731
0.001307207237
0.001127267115
0.0005478959088
0.0008907627621
0.0008885254263
0.001286281479
0.001716940882
0.00136199512
0.0008576463095
0.00158533336
0.001848415691
0.0005436850724
0.0007764660509
0.001476284358
0.0008001286048
0.0006898548051
0.0008323749922
0.0007303647476
0.0009845336873
0.001118670763
0.0007292981247
0.0002521659355
0.0008054338016
0.001412511548
0.0005321168156
0.00084857349
0.0007295624663
0.0005642434613
0.0006210484419
0.001298771427
0.0008056891156
0.0001446323626
0.0003948931567
0.001650348945
0.001442537408
0.0007405237594
0.00191658927
0.001571659006
0.001130535492
0.0008842840653
0.001648165818
0.000423512423
0.001202526992
0.0002149674835
0.0002967282777
0.0003101071925
0.0009530313715
0.001155994945
0.0008990533108
0.00116077088
0.0004236216533
0.0003429612403
0.0004476939124
0.0011800426
0.0007298609622
0.00136182008
0.0009667916009
0.001256920935
0.0009565656367
0.0007462541926
0.0001420292446
0.0009807065031
0.0003840374354
0.0008785239217
0.0007184232615
0.0004109312193
0.001665376289
0.0005607340113
0.0006571098855
0.0007111640598
0.001197001371
0.001056888981
0.0006992847054
0.001447658463
0.001132872077
0.001227234631
0.001491171141
0.0003011440344
0.001472619409
0.0004812268746
0.00120666696
0.001058818799
0.0005035120617
0.0006643173154
0.0005834566789
0.0005993277196
0.001154160098
0.000541692077
0.001411045021
0.000906206822
0.001074033808
0.001144922394
0.0009123039207
0.0007501441324
0.000234319751
0.0001936601791
0.0005418130876
0.0005984068635
0.0005810059665
0.0008177906388
0.0006660141656
0.0008261606497
0.001030229667
0.0008739678039
0.001496782921
0.001560684874
0.001726927158
0.001184790062
0.001248155414
0.0008001444284
0.0009091056281
0.0006628798734
0.0006693072938
0.0008945331729
0.001534131296
0.001243029299
0.0006712916965
0.001169619943
0.001046539565
0.0004684561568
0.0004249336165
0.0008539706813
0.0005982876986
0.001130552128
0.001998920488
0.0009592401265
0.001167058861
0.0003844029969
0.0011866859
0.0009326513203
0.0003807146984
0.0008049184391
0.001014532653
0.0008753531527
0.0008415353238
0.0006170442911
0.001414012198
0.0004891962469
0.0006190012418
0.0004918594675
0.001191157588
0.0008651843252
0.0003486668143
0.001260043828
0.001143459759
0.0007528245184
0.001269173592
0.0009499609316
0.001150665258
0.001041047781
0.0006187220907
0.0003236858447
0.001156351474
0.0005045376799
0.001018153174
0.0004361221361
0.001351579077
0.000519482206
0.0007148330343
0.0004850263768
0.0005713726537
0.001109977503
0.0005605624461
0.001063606369
0.001299837865
0.0004467559855
0.0009988532235
0.0007811633737
0.001055723222
0.00128097231
0.0009368145686
0.000610085637
0.001358804954
0.0009990085787
0.001867910917
0.001392979852
0.0006587594789
0.001036195064
0.00096153356
0.001314294322
0.001152397785
0.0009420302027
0.0005180813212
0.001146149767
0.001920150087
0.0007076345824
0.001336479912
0.0004962650109
0.0008606048885
0.0006635755179
0.000477972329
0.00047332899
0.0007723185174
0.00101655877
0.001026860921
0.001186836262
0.0002798239773
0.001229159008
0.001010119154
0.0004780612993
0.000772658245
0.0007788609861
0.0008404167119
0.0004356319386
0.0002662233805
0.0006395001255
0.0008842890059
0.001007061595
0.001100694066
0.0009066819979
0.001245027641
0.001335062551
0.001198150474
0.0007979947495
0.0007131461826
0.001005250646
0.001051681702
0.001321744121
0.001901433941
0.002259276232
0.001381445637
0.00108709275
0.0009700389348
0.001217668946
0.001211329487
0.0007276047792
0.0006129801498
0.0005993556131
0.001141572127
0.001498308782
0.0003539727472
0.001188025971
0.001722235262
0.0007380281718
0.0003579884635
0.0002767066743
0.000720812387
0.0007560474329
0.0008257326597
0.001328192684
0.0005553127955
0.001435743121
0.0007470190092
0.0007579106958
0.0002072093769
0.0007324455395
0.0007684813364
0.0003775228878
0.00104082241
0.001065542613
0.0007715594809
0.0006987826283
0.0009506706501
6.952111419e-05
0.0006028720159
0.0003365277277
0.001048966549
0.0007333797614
0.0006358856107
0.0002023668294
0.0004599858782
0.001298053198
0.0009495918383
0.001157697974
0.001056189185
0.0008294738436
0.001359452376
0.001065702349
0.0006392781394
0.001531135855
0.001270877016
0.001457821507
0.001174645792
0.001216346317
0.0011261193
0.0008837050196
0.0009646711668
0.001237535441
0.000596185437
0.000460402776
0.000854344455
0.001141436546
0.0003835997638
0.0009804524926
0.001245539806
0.001490679592
0.001099751416
0.0007134949331
0.00110845938
0.001366743426
0.0009334355153
0.0006765556089
0.0006560020819
0.0002275516227
0.0008625300723
0.0002624075419
0.001136346037
0.0003516959616
0.001049334971
0.0006195151458
0.001011490073
0.0004295390428
0.0004073068616
0.001644115074
0.0004019133876
0.0005926702557
0.0007021617177
0.001372953347
0.0005710402238
0.0003766443006
0.001468725797
0.001075358906
0.001058650659
0.0008917539495
0.0007166937825
0.0003582616989
0.0005277397312
0.0007105751406
0.000925123155
0.001123070811
0.0007559736273
0.0007292336551
0.0009331683374
0.00061266939
0.0009961866899
0.0004658732928
0.001204811617
0.001312999283
0.0003548817946
0.0004426394179
0.0007648396645
0.0007786557202
0.001439821251
0.0007800312922
0.001163482943
0.0006332019828
0.001190798962
0.001159132639
0.001107595259
0.001627565046
0.0005819149949
0.000795878119
0.001434515924
0.0008775063095
0.0004896340553
0.0002823558658
0.0007337817686
0.001117127886
0.0003312154436
0.0009635350955
0.0008724806012
0.0009990552807
0.001404652255
0.001376179922
0.00137725522
0.0005234877894
0.000622789741
0.001299385696
0.001224069774
0.001216293676
0.0007693670697
0.000709782284
0.0005914092255
0.0005216272351
0.0007684069141
0.0009236531922
0.001836143761
0.001742452573
0.001008839809
0.0007702762266
0.0009180288194
0.0004194148623
0.001855406565
0.001295105252
0.001351046174
0.001999591857
0.00110929698
0.0006689464063
0.0006132303203
0.0005654489218
0.0006727894999
0.0007293807508
0.0009776720683
0.0009577005605
0.001400611351
0.00116966476
0.0003671761237
0.001434817623
0.0006349143791
0.0008307466077
0.000282238455
0.0006448914957
0.0003417880357
0.0008315349438
0.0006563247298
0.0006862734279
0.0006680274387
0.0004134738056
0.001039101272
0.0006684097784
0.0005110909186
0.001637637566
0.002149045016
0.001612356372
0.0007127734594
0.0008079836472
0.001231139386
0.00079875144
0.0007321438963
0.0007392424077
0.001360496372
0.001762223347
0.001373557083
0.001341501263
0.0005425894726
0.0006228254307
0.000898382823
0.00109389173
0.0007925454862
0.0005550798603
0.0007758999738
0.0004516506555
0.001348342132
0.0002597412312
0.001198048494
0.0007399358064
0.0009337735244
0.0004186917577
0.00124956118
0.0005929507352
0.0004955082338
0.0006619102672
0.001150428855
0.0006290260981
0.0005556570691
0.0004526961159
0.0006947442955
0.001092411086
0.0006906771556
0.001399045584
0.001249186413
0.0007565196137
0.0006984722192
0.000332825656
0.0010191371
0.001657005785
0.0006771570411
0.0009791380695
0.0005579383397
0.0007128581283
0.001121203109
0.0006762152409
0.0006368343407
0.001038363807
0.0005611241482
0.0008092282339
0.0009496535331
0.0008473960161
0.0006631992365
0.0006791845196
0.0005580542031
0.0006646946458
0.000890957693
0.0007917310446
0.0002832151948
0.0007939666761
0.0007992008043
0.001688517845
0.001499442858
0.00135220261
0.0007254531621
0.000635749167
0.0007884783448
0.0006379232907
0.0009807006498
0.0005611828822
0.0009679730756
0.0002698216315
0.0005581013713
8.982668821e-05
0.001053792875
0.00102819122
0.0007984232435
0.0009370167311
0.0004437492781
0.0002992221762
0.000575571251
0.001391605967
0.0008463186215
0.0005936095929
0.0008919314065
0.0009600232827
0.000511035732
0.001027236376
0.0007584884823
0.0007649239012
0.000880232375
0.002067493999
0.0005710267135
0.0005716068626
0.0005672970467
0.000971550464
0.0002972918442
0.0004645316672
0.0004767272846
0.0007058276245
0.0005865937753
0.001198616848
0.001228269114
0.001172279424
0.0007629346161
0.001101527946
0.0009876809932
0.001199255259
0.001261205319
0.00167401939
0.000898132811
0.0008577220554
0.0007429572838
0.00054963642
0.0007076924506
0.0005913032383
0.000478371741
0.0005080367199
0.0004194437525
0.0005798587745
0.0006907011189
0.0004503062984
0.001210758074
0.0008700421894
0.0006972541205
0.0002799049732
0.000989598465
0.0008230267244
0.0007367017302
0.0009436689119
0.0008945537878
0.0006376730066
0.001852802203
0.001043938072
0.0006654226509
0.0004511369575
0.000880822488
0.001592743313
0.001144702727
0.001298052261
0.001105084179
0.0009010057845
0.0009841056467
0.0009190764793
0.0004581942404
0.0006744028213
0.0008300053766
0.0007130301378
0.0008605065859
0.001128248875
0.00094470451
0.0003869315688
0.0005592598947
0.0004913427608
0.001247386077
0.001316651939
0.0008254291022
0.001225890332
0.001365650917
0.000617761551
0.0009118692927
0.000894723071
0.0003447231486
0.0003748808834
0.0007796990185
0.0005377067072
0.001000007829
0.001394177944
0.0003086037679
0.0007927539696
0.0009733688158
0.001572365279
0.001171370585
0.001051460369
0.001125860297
0.001744812025
0.0003087555566
0.001170581215
0.00175691955
0.001880826263
0.001381224846
0.0009654392807
0.0002100874982
0.0007239495351
0.0008804155502
0.0004358326415
0.0007768727749
0.001363160234
0.001043105105
0.0002135001966
0.0005825605413
0.0006134349993
0.0007257619405
0.0006469331275
0.000598278721
0.0006207963607
0.0009362939316
0.0005265647363
0.001024257039
0.00118363183
0.001123626166
0.0009160583949
0.00105150288
0.0002692804257
0.001117955596
0.001379953643
0.001533057153
0.0008650984186
0.0007647335904
0.0002648565187
0.0009803468872
0.001207607415
0.001022661896
0.0004028954256
0.0009849469488
0.001615316884
0.000916309212
0.00106539669
0.001940864969
0.002281251377
0.001803884817
0.0006523220057
0.001073152386
0.0009171726116
0.0007408941119
0.0005874188526
0.001136515402
0.0004772360803
0.001002988857
0.0005510353392
0.0007919263249
0.00100332218
0.001232920361
0.0006748938946
0.001014865168
0.001333104376
0.001931492581
0.001532052051
0.00124854095
0.0009665959722
0.0005152568151
0.0004440164353
0.0004024103763
0.0008141779546
0.0009718369563
0.0008492698523
0.0009681637275
0.0002500852986
0.001288978543
0.0006791203235
0.0006120353711
0.001621737416
0.001660657802
0.001141403253
0.0009647432703
0.0008350695429
0.0007273847841
0.0005015328369
0.0002413059061
0.0009088557423
0.0002106179345
0.0007519731375
)
;

boundaryField
{
    bottom
    {
        type            calculated;
        value           nonuniform List<scalar> 
200
(
0.0006564196884
0.0001662339269
0.0007756462988
0.0007018805058
0.0009775761324
0.0007168384524
0.0005722931158
0.00120329269
0.0005529391809
0.001228512603
0.001409739535
0.001375582392
0.001552104928
0.0002245822639
0.0002910468275
0.0005403908534
0.0005908829355
0.001011778909
0.0007202691952
0.0004013747699
0.0008669251489
0.0006359786857
0.00110374547
0.0008215377141
0.0004829476517
0.0004643851177
0.0006176195128
0.0004808729827
0.0003916259733
0.0006773549681
0.0008345559132
0.0004572909369
0.001748833092
0.001729399288
0.0007717700021
0.001027709623
0.0007645709327
0.0006551993382
0.0003585445698
0.0004512710984
0.0005513714104
0.000540569226
0.001196211731
0.0007955396464
0.0008595204494
0.001005922592
0.0002993329452
0.0005260764181
0.000766822849
0.0006062171593
0.0009494173002
0.0006967348592
0.0006673926463
0.0009873674226
0.0008581638602
0.0004979141678
0.0009340310753
0.0005395625621
0.0005716873482
0.0005476719305
0.001374709354
0.001362885241
0.0006285137547
0.0008089133481
0.0007481657481
0.0006159179024
0.001113446047
0.001432447093
0.0001526307357
0.0007103894223
0.0006913689544
0.0004004845737
0.0006055250387
0.0009047043955
0.00192335299
0.00190465369
0.001138051309
0.0009531516072
0.0004115606678
0.0006882556179
0.00079300769
0.0004095992156
0.0006836913053
0.0005277667006
0.0005802116131
0.0008142672591
0.001324829139
0.0009140705763
0.0006860019595
0.0007747616035
0.0006879674891
0.001053148368
0.0005857008384
0.0006918508827
0.0006435462133
0.001825824663
0.001700557405
0.0006145664312
0.001506862716
0.0006237762662
0.001146614813
0.0004994494764
0.0004883696071
0.0006735702271
0.0005230382325
0.0009834256619
0.001673530658
0.001329685971
0.0004066527956
0.0006244369751
0.001277421038
0.0006641609494
0.001319078009
0.0007844586223
0.001257545245
0.0004162349815
0.0002208420125
0.000849986652
0.0005011910049
0.0004956988385
0.0006613386879
0.001029299542
0.001415551095
0.001306903978
0.0009758101915
0.0006358416601
0.0008797312756
0.001540465855
0.001287622645
0.0009594350068
0.0004968548299
0.0006657845495
0.0006987818596
0.001032738839
0.0003011011254
0.0006355540884
0.0006467428465
0.000598063733
0.0006803371842
0.001288011808
0.0005071535818
0.0004252110821
0.001030164807
0.0009596489244
0.0009810431395
0.001015754739
0.000333884684
0.0001410839188
0.001247755846
0.0006485404346
0.000790281049
0.000662902252
0.0008416980581
0.0008804926078
0.0008079336456
0.0003557220063
0.0002102962681
0.0001356994574
0.001152754597
0.001155735437
0.0009321133462
0.0006577528167
0.001263458049
0.0007851079686
0.001292416939
0.0001977296411
0.0008527519418
0.001120170668
0.0006424211678
0.0005513929586
0.0005793907632
0.0001178580665
0.0004850995154
0.0008322349981
0.0008219116269
0.0006920074321
0.0006776033649
0.000556736272
0.0005708195058
0.0009339624826
0.001305394419
0.001751966561
0.001320827593
0.0009965241258
0.0009672288129
0.001025525966
0.000568046832
0.0004400017921
0.0004322084879
0.0007354089243
0.0009933992206
0.0008167187139
0.0009790055124
0.0007155891672
0.0003529813855
0.0008509081781
0.001388544702
0.001052475819
0.0004845748664
0.0007794199784
)
;
    }
    top
    {
        type            calculated;
        value           nonuniform List<scalar> 
200
(
0.001499442858
0.00135220261
0.0007254531621
0.000635749167
0.0007884783448
0.0006379232907
0.0009807006498
0.0005611828822
0.0009679730756
0.0002698216315
0.0005581013713
8.982668821e-05
0.001053792875
0.00102819122
0.0007984232435
0.0009370167311
0.0004437492781
0.0002992221762
0.000575571251
0.001391605967
0.0008463186215
0.0005936095929
0.0008919314065
0.0009600232827
0.000511035732
0.001027236376
0.0007584884823
0.0007649239012
0.000880232375
0.002067493999
0.0005710267135
0.0005716068626
0.0005672970467
0.000971550464
0.0002972918442
0.0004645316672
0.0004767272846
0.0007058276245
0.0005865937753
0.001198616848
0.001228269114
0.001172279424
0.0007629346161
0.001101527946
0.0009876809932
0.001199255259
0.001261205319
0.00167401939
0.000898132811
0.0008577220554
0.0007429572838
0.00054963642
0.0007076924506
0.0005913032383
0.000478371741
0.0005080367199
0.0004194437525
0.0005798587745
0.0006907011189
0.0004503062984
0.001210758074
0.0008700421894
0.0006972541205
0.0002799049732
0.000989598465
0.0008230267244
0.0007367017302
0.0009436689119
0.0008945537878
0.0006376730066
0.001852802203
0.001043938072
0.0006654226509
0.0004511369575
0.000880822488
0.001592743313
0.001144702727
0.001298052261
0.001105084179
0.0009010057845
0.0009841056467
0.0009190764793
0.0004581942404
0.0006744028213
0.0008300053766
0.0007130301378
0.0008605065859
0.001128248875
0.00094470451
0.0003869315688
0.0005592598947
0.0004913427608
0.001247386077
0.001316651939
0.0008254291022
0.001225890332
0.001365650917
0.000617761551
0.0009118692927
0.000894723071
0.0003447231486
0.0003748808834
0.0007796990185
0.0005377067072
0.001000007829
0.001394177944
0.0003086037679
0.0007927539696
0.0009733688158
0.001572365279
0.001171370585
0.001051460369
0.001125860297
0.001744812025
0.0003087555566
0.001170581215
0.00175691955
0.001880826263
0.001381224846
0.0009654392807
0.0002100874982
0.0007239495351
0.0008804155502
0.0004358326415
0.0007768727749
0.001363160234
0.001043105105
0.0002135001966
0.0005825605413
0.0006134349993
0.0007257619405
0.0006469331275
0.000598278721
0.0006207963607
0.0009362939316
0.0005265647363
0.001024257039
0.00118363183
0.001123626166
0.0009160583949
0.00105150288
0.0002692804257
0.001117955596
0.001379953643
0.001533057153
0.0008650984186
0.0007647335904
0.0002648565187
0.0009803468872
0.001207607415
0.001022661896
0.0004028954256
0.0009849469488
0.001615316884
0.000916309212
0.00106539669
0.001940864969
0.002281251377
0.001803884817
0.0006523220057
0.001073152386
0.0009171726116
0.0007408941119
0.0005874188526
0.001136515402
0.0004772360803
0.001002988857
0.0005510353392
0.0007919263249
0.00100332218
0.001232920361
0.0006748938946
0.001014865168
0.001333104376
0.001931492581
0.001532052051
0.00124854095
0.0009665959722
0.0005152568151
0.0004440164353
0.0004024103763
0.0008141779546
0.0009718369563
0.0008492698523
0.0009681637275
0.0002500852986
0.001288978543
0.0006791203235
0.0006120353711
0.001621737416
0.001660657802
0.001141403253
0.0009647432703
0.0008350695429
0.0007273847841
0.0005015328369
0.0002413059061
0.0009088557423
0.0002106179345
0.0007519731375
)
;
    }
    inlet
    {
        type            cyclic;
    }
    outlet
    {
        type            cyclic;
    }
    back
    {
        type            symmetry;
    }
    front
    {
        type            symmetry;
    }
}


// ************************************************************************* //
