/*--------------------------------*- C++ -*----------------------------------*\
| =========                 |                                                 |
| \\      /  F ield         | OpenFOAM: The Open Source CFD Toolbox           |
|  \\    /   O peration     | Version:  v1706                                 |
|   \\  /    A nd           | Web:      www.OpenFOAM.com                      |
|    \\/     M anipulation  |                                                 |
\*---------------------------------------------------------------------------*/
FoamFile
{
    version     2.0;
    format      ascii;
    class       volScalarField;
    location    "0.27";
    object      mctTimeStepRatio_Ar;
}
// * * * * * * * * * * * * * * * * * * * * * * * * * * * * * * * * * * * * * //

dimensions      [0 0 0 0 0 0 0];


internalField   nonuniform List<scalar> 
1000
(
2.50227666
2.504214578
2.500725045
2.502981267
2.496944319
2.499445382
2.501073174
2.497454048
2.500571636
2.497777801
2.493080267
2.495717084
2.496055918
2.498903459
2.498331273
2.489962647
2.497061501
2.498146227
2.498663145
2.498018614
2.494544997
2.496062959
2.499173847
2.499966688
2.498645989
2.501174668
2.500961192
2.496752014
2.494493466
2.497289141
2.501287335
2.49715222
2.496857707
2.494552236
2.497200378
2.499334323
2.49509657
2.501674944
2.499132707
2.501665694
2.499579784
2.498167135
2.50185493
2.499320067
2.502219817
2.501160447
2.499394994
2.501023301
2.500610828
2.497912307
2.502323971
2.502313561
2.504812529
2.500129292
2.499219311
2.499273476
2.50232706
2.503836543
2.504481276
2.505956655
2.50348829
2.501604334
2.50505643
2.497970172
2.504178151
2.502093674
2.496155105
2.498754483
2.504267705
2.504098651
2.50381009
2.505883622
2.50390381
2.506231802
2.510066544
2.508365586
2.503519285
2.498442774
2.505737674
2.506218137
2.503414024
2.502435159
2.501187661
2.506027757
2.51013342
2.505893145
2.504681789
2.502425235
2.508212723
2.506691191
2.50580042
2.504767444
2.501762017
2.501202142
2.510574229
2.509652163
2.504805406
2.508193366
2.510780541
2.503942916
2.50492085
2.503582369
2.506020479
2.507480872
2.501329246
2.504196133
2.506244903
2.505141631
2.507653272
2.505243428
2.499343445
2.499901241
2.501413299
2.500278639
2.503538448
2.506911366
2.507800114
2.501658776
2.50478125
2.507147313
2.507935927
2.505703344
2.503706988
2.501395946
2.502725865
2.503183092
2.507095145
2.506757337
2.506608969
2.504077496
2.504460399
2.504643314
2.506474948
2.505305435
2.50488855
2.507203895
2.509300554
2.498414897
2.504290741
2.505734311
2.499967767
2.500708511
2.502533849
2.502345505
2.503989815
2.502485549
2.501598056
2.500243677
2.502514546
2.502390036
2.503250447
2.502812889
2.504398141
2.500373127
2.49942024
2.497613364
2.504741338
2.505646733
2.506628388
2.499363694
2.499336256
2.494841788
2.50451412
2.503044531
2.498671777
2.498888306
2.499230637
2.499141222
2.500893489
2.506575758
2.501553842
2.503399033
2.502863539
2.501594869
2.510228257
2.49966948
2.497086925
2.501026188
2.501194455
2.505686922
2.502045968
2.497832027
2.501104679
2.498751689
2.500316741
2.498861914
2.498834121
2.499946291
2.501359825
2.501878527
2.496612856
2.493226749
2.499421181
2.497826974
2.506747858
2.498972291
2.497916013
2.498083972
2.495710599
2.50144414
2.496052734
2.498954238
2.501242742
2.498999222
2.496844311
2.499345115
2.500882535
2.497684065
2.497512367
2.49880188
2.497153567
2.495513242
2.49387641
2.501903551
2.496585457
2.498424154
2.499419104
2.497181335
2.494623611
2.493481438
2.500430557
2.505030923
2.499079371
2.502051379
2.500788064
2.504605454
2.494922125
2.493023693
2.49365797
2.493656985
2.497007264
2.491619831
2.497943425
2.494233809
2.501270389
2.499952483
2.49818782
2.501162125
2.503232941
2.500200907
2.499776231
2.497987734
2.500647331
2.49984028
2.503136514
2.502375324
2.502463386
2.501670668
2.500427787
2.50412934
2.501593628
2.500314335
2.499247454
2.500033321
2.501325958
2.498297953
2.499048692
2.504072268
2.506719518
2.507275557
2.509885943
2.506356927
2.505046832
2.502312163
2.501190864
2.505661979
2.501969596
2.501556004
2.504912505
2.506109208
2.507660951
2.505386407
2.504094581
2.505464857
2.505173052
2.503255005
2.502649909
2.501781436
2.503781927
2.503472301
2.50404384
2.50469196
2.502414039
2.505198134
2.509849106
2.508756704
2.505823017
2.505616096
2.503949697
2.504285046
2.504771539
2.504620538
2.503475197
2.5104115
2.506311982
2.5049654
2.506287036
2.505625223
2.507942071
2.506368063
2.503737298
2.507664387
2.508394991
2.505349579
2.506945463
2.505637204
2.509498917
2.507949693
2.502516767
2.500892218
2.504561319
2.502607056
2.504566042
2.504391395
2.50799454
2.507963847
2.507891261
2.501268682
2.505361455
2.50448418
2.505986141
2.506598048
2.506878277
2.506532573
2.503450411
2.506849587
2.505037636
2.503292256
2.507973671
2.503846018
2.502742944
2.501866602
2.506104793
2.504671135
2.50333121
2.505597515
2.502553043
2.501757166
2.504552868
2.504012165
2.500326518
2.499924041
2.503568513
2.507499718
2.505244124
2.504366042
2.499510518
2.501623333
2.502996904
2.504653097
2.499531931
2.500465694
2.498278182
2.500595171
2.499333242
2.500063162
2.504499857
2.506910648
2.499130142
2.50167719
2.497734916
2.501199758
2.502257214
2.50383387
2.501157844
2.501968224
2.502205006
2.499135663
2.502737164
2.497166445
2.501397218
2.498658489
2.498549471
2.502002127
2.500685328
2.498425049
2.49906854
2.497970849
2.499818512
2.502704295
2.499470037
2.499661495
2.503283543
2.497515867
2.495416163
2.500853535
2.499530837
2.502217126
2.499622899
2.504266204
2.4975107
2.500290402
2.49842503
2.499882209
2.503558894
2.50432177
2.503154923
2.5023727
2.499826269
2.498568054
2.499708892
2.497645737
2.498971226
2.500618228
2.500265243
2.504578888
2.503131194
2.500814684
2.499703635
2.497559828
2.491953577
2.493383921
2.492442475
2.49532071
2.497437691
2.496940634
2.496977327
2.49445227
2.49458385
2.498283011
2.501004891
2.501708063
2.497058277
2.500141387
2.497837023
2.495939226
2.498079039
2.494622312
2.503584457
2.498678883
2.494853994
2.497716229
2.497699431
2.500090648
2.49829947
2.49560295
2.500702405
2.502246184
2.500068549
2.493801725
2.501143788
2.501817567
2.501342827
2.497742276
2.50126217
2.500926296
2.503394331
2.49969694
2.497908594
2.502212442
2.500675749
2.50008646
2.500358148
2.495704992
2.496615551
2.500236207
2.497055414
2.503194559
2.504262269
2.505643931
2.500276355
2.503408806
2.505147987
2.503020057
2.50458257
2.503275738
2.503272808
2.499557716
2.505855409
2.501430277
2.506572831
2.507882364
2.508489385
2.507278959
2.505053187
2.502593065
2.505011746
2.507131866
2.500947388
2.507292618
2.502534686
2.501751511
2.504973115
2.506366108
2.506204488
2.503918297
2.508506636
2.50915638
2.503029188
2.507128355
2.505651996
2.508489624
2.506532538
2.50715648
2.508243541
2.501532118
2.506802631
2.503416898
2.508598586
2.507944945
2.504706756
2.504912258
2.506368032
2.510001252
2.50887367
2.501650217
2.499106565
2.504083689
2.502700122
2.502569998
2.505907181
2.503067508
2.504854048
2.503662611
2.504898648
2.505854001
2.505474157
2.502837921
2.507315046
2.504317983
2.507430415
2.508165356
2.505217774
2.503104211
2.501317932
2.502277231
2.500799072
2.504045187
2.506924075
2.50084986
2.503294957
2.502042507
2.501472994
2.502894011
2.501069022
2.504774575
2.500742472
2.499909029
2.502793335
2.502624513
2.502545558
2.499887312
2.500572133
2.498552957
2.500515971
2.496231502
2.502070101
2.504588718
2.503688233
2.50718523
2.49977635
2.500113371
2.498144223
2.499161951
2.5009546
2.50340702
2.502022232
2.502102377
2.499728413
2.500469272
2.499476582
2.49915621
2.504727384
2.499171433
2.502001818
2.501989466
2.503627719
2.504765013
2.499836532
2.49785775
2.4990764
2.501001208
2.499176988
2.499846594
2.504575796
2.502650795
2.50685066
2.50268603
2.502756734
2.498228618
2.498918455
2.500253083
2.500643756
2.501481436
2.503220549
2.497867631
2.506540766
2.503771917
2.499749889
2.501337571
2.499846878
2.501834575
2.502074446
2.503580372
2.498403897
2.497779849
2.499966137
2.505157034
2.500174397
2.494768406
2.504273322
2.502357848
2.499782157
2.50047269
2.50046515
2.501135091
2.50255581
2.499263355
2.499546066
2.495097852
2.49436795
2.495747951
2.494982799
2.496045999
2.498157022
2.499258056
2.497803377
2.501661957
2.495141043
2.49627508
2.501659494
2.495937281
2.500956123
2.500813274
2.495153599
2.496593452
2.496544653
2.498249402
2.497961043
2.495255802
2.500847017
2.498722855
2.500194199
2.49667441
2.495844256
2.498827182
2.501791088
2.502078403
2.497829358
2.500389094
2.499173248
2.500577964
2.503220045
2.505594085
2.501185811
2.501324695
2.503759015
2.500434695
2.496683362
2.495982479
2.504169836
2.503815204
2.499166882
2.491496519
2.501987399
2.508347532
2.500890467
2.500016583
2.506426698
2.505367771
2.500857347
2.500533049
2.506322949
2.505223307
2.501310092
2.503163193
2.50422966
2.498634338
2.501606649
2.501553118
2.509256108
2.502781606
2.506352855
2.504565879
2.503887123
2.501511904
2.505075241
2.503551139
2.498814357
2.501122603
2.502762722
2.508481698
2.506852914
2.507459212
2.503923269
2.50943766
2.506892918
2.507968276
2.504686238
2.506657332
2.509556382
2.508519373
2.507380583
2.508045019
2.509075005
2.50834894
2.506401526
2.506192789
2.50754124
2.504495497
2.50805733
2.50576891
2.503609972
2.508516917
2.502111771
2.505853077
2.502936812
2.507048133
2.504667845
2.504752181
2.504062205
2.501884928
2.506281224
2.504384506
2.498890846
2.502968637
2.501924179
2.504757368
2.503076537
2.502380879
2.506690254
2.506187681
2.508323554
2.502583841
2.50380097
2.505016734
2.501685881
2.505014265
2.506902672
2.502126127
2.505176152
2.498883446
2.501448802
2.502734944
2.500972687
2.497685577
2.500777008
2.499976005
2.498905849
2.502435497
2.503967871
2.500200124
2.498939695
2.501323825
2.49942399
2.499276314
2.505076864
2.502661631
2.501007802
2.503418775
2.500260145
2.499445384
2.49925522
2.500251277
2.502260225
2.509097433
2.503053063
2.501568688
2.500000034
2.497919909
2.49585705
2.503678461
2.501027558
2.503682813
2.503139618
2.503501205
2.500711473
2.50152562
2.501059429
2.497110371
2.493331382
2.498653667
2.500789062
2.500809466
2.498301342
2.504269994
2.502837022
2.503365441
2.502527888
2.503943873
2.498836375
2.499061602
2.501481278
2.49969399
2.505558056
2.498662227
2.496976018
2.497376449
2.500858537
2.49861832
2.497800766
2.503108704
2.501901779
2.499610392
2.498753389
2.495930269
2.49690521
2.498648183
2.501457912
2.500213138
2.498868965
2.501989264
2.503876826
2.498092424
2.499922086
2.496337605
2.500615841
2.503005495
2.504042068
2.499049444
2.499418102
2.497461225
2.496641225
2.494028167
2.5006531
2.49765033
2.495068226
2.499467634
2.496672961
2.498611695
2.499109013
2.500838643
2.504403386
2.501213228
2.497703081
2.496695697
2.495964578
2.497556542
2.496998573
2.493621917
2.49872423
2.496823205
2.497841859
2.500865683
2.496254557
2.500221176
2.49952414
2.502011407
2.502798043
2.504985664
2.502810059
2.501269551
2.502746061
2.497724012
2.502228591
2.499502677
2.504992604
2.503007708
2.497398567
2.501882817
2.501794162
2.504634499
2.501150494
2.501310561
2.498388352
2.5054738
2.501968433
2.500709768
2.500895039
2.502312173
2.50522655
2.505563299
2.504774795
2.50777418
2.502233521
2.50697825
2.507039134
2.502997173
2.501223403
2.502284215
2.502153214
2.506083962
2.504022048
2.505185837
2.503893356
2.505470006
2.502882669
2.504566037
2.504447802
2.49947185
2.502672021
2.506326469
2.505329158
2.500067532
2.503273853
2.509357221
2.509742584
2.506470427
2.50491618
2.510009344
2.504069335
2.505866591
2.50764886
2.506354384
2.506147343
2.504722119
2.506540449
2.505693829
2.510170163
2.507180373
2.511317908
2.507270455
2.506728771
2.506672015
2.501154583
2.506322041
2.5029263
2.504008628
2.506658037
2.501323583
2.503085722
2.50286138
2.506134488
2.504664109
2.507633633
2.50481654
2.504910027
2.498859163
2.500941721
2.500809293
2.50093243
2.50616194
2.507475809
2.504932926
2.507904613
2.506444247
2.506992999
2.508803758
2.507936737
2.506808993
2.500224275
2.500674933
2.501065953
2.505164244
2.502523552
2.502267873
2.499709852
2.499375643
2.503025005
2.499387351
2.50317669
2.502286159
2.503253343
2.503771949
2.501076589
2.501638641
2.503788501
2.504341615
2.50644601
2.501628074
2.505796242
2.507773447
2.499396382
2.501769384
2.501198385
2.499095648
2.503531507
2.503305934
2.500039234
2.494827654
2.500396017
2.500182243
2.501383588
2.501398506
2.504313556
2.501773467
2.49958788
2.503121827
2.500688195
2.505896713
2.50314391
2.50114148
2.496281011
2.499618681
2.499665704
2.500684059
2.5009873
2.497147318
2.500430025
2.500745589
2.500485164
2.498233847
2.501492343
2.500271049
2.496366888
2.497765624
2.495888652
2.499044722
2.500152568
2.501765317
2.49719562
2.503658164
2.502492871
2.500164709
2.498505411
2.501054858
2.500673227
2.498203156
2.498386927
2.499594395
)
;

boundaryField
{
    bottom
    {
        type            calculated;
        value           nonuniform List<scalar> 
200
(
2.50227666
2.504214578
2.500725045
2.502981267
2.496944319
2.499445382
2.501073174
2.497454048
2.500571636
2.497777801
2.493080267
2.495717084
2.496055918
2.498903459
2.498331273
2.489962647
2.497061501
2.498146227
2.498663145
2.498018614
2.494544997
2.496062959
2.499173847
2.499966688
2.498645989
2.501174668
2.500961192
2.496752014
2.494493466
2.497289141
2.501287335
2.49715222
2.496857707
2.494552236
2.497200378
2.499334323
2.49509657
2.501674944
2.499132707
2.501665694
2.499579784
2.498167135
2.50185493
2.499320067
2.502219817
2.501160447
2.499394994
2.501023301
2.500610828
2.497912307
2.502323971
2.502313561
2.504812529
2.500129292
2.499219311
2.499273476
2.50232706
2.503836543
2.504481276
2.505956655
2.50348829
2.501604334
2.50505643
2.497970172
2.504178151
2.502093674
2.496155105
2.498754483
2.504267705
2.504098651
2.50381009
2.505883622
2.50390381
2.506231802
2.510066544
2.508365586
2.503519285
2.498442774
2.505737674
2.506218137
2.503414024
2.502435159
2.501187661
2.506027757
2.51013342
2.505893145
2.504681789
2.502425235
2.508212723
2.506691191
2.50580042
2.504767444
2.501762017
2.501202142
2.510574229
2.509652163
2.504805406
2.508193366
2.510780541
2.503942916
2.50492085
2.503582369
2.506020479
2.507480872
2.501329246
2.504196133
2.506244903
2.505141631
2.507653272
2.505243428
2.499343445
2.499901241
2.501413299
2.500278639
2.503538448
2.506911366
2.507800114
2.501658776
2.50478125
2.507147313
2.507935927
2.505703344
2.503706988
2.501395946
2.502725865
2.503183092
2.507095145
2.506757337
2.506608969
2.504077496
2.504460399
2.504643314
2.506474948
2.505305435
2.50488855
2.507203895
2.509300554
2.498414897
2.504290741
2.505734311
2.499967767
2.500708511
2.502533849
2.502345505
2.503989815
2.502485549
2.501598056
2.500243677
2.502514546
2.502390036
2.503250447
2.502812889
2.504398141
2.500373127
2.49942024
2.497613364
2.504741338
2.505646733
2.506628388
2.499363694
2.499336256
2.494841788
2.50451412
2.503044531
2.498671777
2.498888306
2.499230637
2.499141222
2.500893489
2.506575758
2.501553842
2.503399033
2.502863539
2.501594869
2.510228257
2.49966948
2.497086925
2.501026188
2.501194455
2.505686922
2.502045968
2.497832027
2.501104679
2.498751689
2.500316741
2.498861914
2.498834121
2.499946291
2.501359825
2.501878527
2.496612856
2.493226749
2.499421181
2.497826974
2.506747858
2.498972291
2.497916013
2.498083972
2.495710599
2.50144414
)
;
    }
    top
    {
        type            calculated;
        value           nonuniform List<scalar> 
200
(
2.498868965
2.501989264
2.503876826
2.498092424
2.499922086
2.496337605
2.500615841
2.503005495
2.504042068
2.499049444
2.499418102
2.497461225
2.496641225
2.494028167
2.5006531
2.49765033
2.495068226
2.499467634
2.496672961
2.498611695
2.499109013
2.500838643
2.504403386
2.501213228
2.497703081
2.496695697
2.495964578
2.497556542
2.496998573
2.493621917
2.49872423
2.496823205
2.497841859
2.500865683
2.496254557
2.500221176
2.49952414
2.502011407
2.502798043
2.504985664
2.502810059
2.501269551
2.502746061
2.497724012
2.502228591
2.499502677
2.504992604
2.503007708
2.497398567
2.501882817
2.501794162
2.504634499
2.501150494
2.501310561
2.498388352
2.5054738
2.501968433
2.500709768
2.500895039
2.502312173
2.50522655
2.505563299
2.504774795
2.50777418
2.502233521
2.50697825
2.507039134
2.502997173
2.501223403
2.502284215
2.502153214
2.506083962
2.504022048
2.505185837
2.503893356
2.505470006
2.502882669
2.504566037
2.504447802
2.49947185
2.502672021
2.506326469
2.505329158
2.500067532
2.503273853
2.509357221
2.509742584
2.506470427
2.50491618
2.510009344
2.504069335
2.505866591
2.50764886
2.506354384
2.506147343
2.504722119
2.506540449
2.505693829
2.510170163
2.507180373
2.511317908
2.507270455
2.506728771
2.506672015
2.501154583
2.506322041
2.5029263
2.504008628
2.506658037
2.501323583
2.503085722
2.50286138
2.506134488
2.504664109
2.507633633
2.50481654
2.504910027
2.498859163
2.500941721
2.500809293
2.50093243
2.50616194
2.507475809
2.504932926
2.507904613
2.506444247
2.506992999
2.508803758
2.507936737
2.506808993
2.500224275
2.500674933
2.501065953
2.505164244
2.502523552
2.502267873
2.499709852
2.499375643
2.503025005
2.499387351
2.50317669
2.502286159
2.503253343
2.503771949
2.501076589
2.501638641
2.503788501
2.504341615
2.50644601
2.501628074
2.505796242
2.507773447
2.499396382
2.501769384
2.501198385
2.499095648
2.503531507
2.503305934
2.500039234
2.494827654
2.500396017
2.500182243
2.501383588
2.501398506
2.504313556
2.501773467
2.49958788
2.503121827
2.500688195
2.505896713
2.50314391
2.50114148
2.496281011
2.499618681
2.499665704
2.500684059
2.5009873
2.497147318
2.500430025
2.500745589
2.500485164
2.498233847
2.501492343
2.500271049
2.496366888
2.497765624
2.495888652
2.499044722
2.500152568
2.501765317
2.49719562
2.503658164
2.502492871
2.500164709
2.498505411
2.501054858
2.500673227
2.498203156
2.498386927
2.499594395
)
;
    }
    inlet
    {
        type            cyclic;
    }
    outlet
    {
        type            cyclic;
    }
    back
    {
        type            symmetry;
    }
    front
    {
        type            symmetry;
    }
}


// ************************************************************************* //
