/*--------------------------------*- C++ -*----------------------------------*\
| =========                 |                                                 |
| \\      /  F ield         | OpenFOAM: The Open Source CFD Toolbox           |
|  \\    /   O peration     | Version:  v1706                                 |
|   \\  /    A nd           | Web:      www.OpenFOAM.com                      |
|    \\/     M anipulation  |                                                 |
\*---------------------------------------------------------------------------*/
FoamFile
{
    version     2.0;
    format      ascii;
    class       volScalarField;
    location    "0.27";
    object      meanCollisionTime_Ar;
}
// * * * * * * * * * * * * * * * * * * * * * * * * * * * * * * * * * * * * * //

dimensions      [0 0 1 0 0 0 0];


internalField   nonuniform List<scalar> 
1000
(
2.50227666e-05
2.504214578e-05
2.500725045e-05
2.502981267e-05
2.496944319e-05
2.499445382e-05
2.501073174e-05
2.497454048e-05
2.500571636e-05
2.497777801e-05
2.493080267e-05
2.495717084e-05
2.496055918e-05
2.498903459e-05
2.498331273e-05
2.489962647e-05
2.497061501e-05
2.498146227e-05
2.498663145e-05
2.498018614e-05
2.494544997e-05
2.496062959e-05
2.499173847e-05
2.499966688e-05
2.498645989e-05
2.501174668e-05
2.500961192e-05
2.496752014e-05
2.494493466e-05
2.497289141e-05
2.501287335e-05
2.49715222e-05
2.496857707e-05
2.494552236e-05
2.497200378e-05
2.499334323e-05
2.49509657e-05
2.501674944e-05
2.499132707e-05
2.501665694e-05
2.499579784e-05
2.498167135e-05
2.50185493e-05
2.499320067e-05
2.502219817e-05
2.501160447e-05
2.499394994e-05
2.501023301e-05
2.500610828e-05
2.497912307e-05
2.502323971e-05
2.502313561e-05
2.504812529e-05
2.500129292e-05
2.499219311e-05
2.499273476e-05
2.50232706e-05
2.503836543e-05
2.504481276e-05
2.505956655e-05
2.50348829e-05
2.501604334e-05
2.50505643e-05
2.497970172e-05
2.504178151e-05
2.502093674e-05
2.496155105e-05
2.498754483e-05
2.504267705e-05
2.504098651e-05
2.50381009e-05
2.505883622e-05
2.50390381e-05
2.506231802e-05
2.510066544e-05
2.508365586e-05
2.503519285e-05
2.498442774e-05
2.505737674e-05
2.506218137e-05
2.503414024e-05
2.502435159e-05
2.501187661e-05
2.506027757e-05
2.51013342e-05
2.505893145e-05
2.504681789e-05
2.502425235e-05
2.508212723e-05
2.506691191e-05
2.50580042e-05
2.504767444e-05
2.501762017e-05
2.501202142e-05
2.510574229e-05
2.509652163e-05
2.504805406e-05
2.508193366e-05
2.510780541e-05
2.503942916e-05
2.50492085e-05
2.503582369e-05
2.506020479e-05
2.507480872e-05
2.501329246e-05
2.504196133e-05
2.506244903e-05
2.505141631e-05
2.507653272e-05
2.505243428e-05
2.499343445e-05
2.499901241e-05
2.501413299e-05
2.500278639e-05
2.503538448e-05
2.506911366e-05
2.507800114e-05
2.501658776e-05
2.50478125e-05
2.507147313e-05
2.507935927e-05
2.505703344e-05
2.503706988e-05
2.501395946e-05
2.502725865e-05
2.503183092e-05
2.507095145e-05
2.506757337e-05
2.506608969e-05
2.504077496e-05
2.504460399e-05
2.504643314e-05
2.506474948e-05
2.505305435e-05
2.50488855e-05
2.507203895e-05
2.509300554e-05
2.498414897e-05
2.504290741e-05
2.505734311e-05
2.499967767e-05
2.500708511e-05
2.502533849e-05
2.502345505e-05
2.503989815e-05
2.502485549e-05
2.501598056e-05
2.500243677e-05
2.502514546e-05
2.502390036e-05
2.503250447e-05
2.502812889e-05
2.504398141e-05
2.500373127e-05
2.49942024e-05
2.497613364e-05
2.504741338e-05
2.505646733e-05
2.506628388e-05
2.499363694e-05
2.499336256e-05
2.494841788e-05
2.50451412e-05
2.503044531e-05
2.498671777e-05
2.498888306e-05
2.499230637e-05
2.499141222e-05
2.500893489e-05
2.506575758e-05
2.501553842e-05
2.503399033e-05
2.502863539e-05
2.501594869e-05
2.510228257e-05
2.49966948e-05
2.497086925e-05
2.501026188e-05
2.501194455e-05
2.505686922e-05
2.502045968e-05
2.497832027e-05
2.501104679e-05
2.498751689e-05
2.500316741e-05
2.498861914e-05
2.498834121e-05
2.499946291e-05
2.501359825e-05
2.501878527e-05
2.496612856e-05
2.493226749e-05
2.499421181e-05
2.497826974e-05
2.506747858e-05
2.498972291e-05
2.497916013e-05
2.498083972e-05
2.495710599e-05
2.50144414e-05
2.496052734e-05
2.498954238e-05
2.501242742e-05
2.498999222e-05
2.496844311e-05
2.499345115e-05
2.500882535e-05
2.497684065e-05
2.497512367e-05
2.49880188e-05
2.497153567e-05
2.495513242e-05
2.49387641e-05
2.501903551e-05
2.496585457e-05
2.498424154e-05
2.499419104e-05
2.497181335e-05
2.494623611e-05
2.493481438e-05
2.500430557e-05
2.505030923e-05
2.499079371e-05
2.502051379e-05
2.500788064e-05
2.504605454e-05
2.494922125e-05
2.493023693e-05
2.49365797e-05
2.493656985e-05
2.497007264e-05
2.491619831e-05
2.497943425e-05
2.494233809e-05
2.501270389e-05
2.499952483e-05
2.49818782e-05
2.501162125e-05
2.503232941e-05
2.500200907e-05
2.499776231e-05
2.497987734e-05
2.500647331e-05
2.49984028e-05
2.503136514e-05
2.502375324e-05
2.502463386e-05
2.501670668e-05
2.500427787e-05
2.50412934e-05
2.501593628e-05
2.500314335e-05
2.499247454e-05
2.500033321e-05
2.501325958e-05
2.498297953e-05
2.499048692e-05
2.504072268e-05
2.506719518e-05
2.507275557e-05
2.509885943e-05
2.506356927e-05
2.505046832e-05
2.502312163e-05
2.501190864e-05
2.505661979e-05
2.501969596e-05
2.501556004e-05
2.504912505e-05
2.506109208e-05
2.507660951e-05
2.505386407e-05
2.504094581e-05
2.505464857e-05
2.505173052e-05
2.503255005e-05
2.502649909e-05
2.501781436e-05
2.503781927e-05
2.503472301e-05
2.50404384e-05
2.50469196e-05
2.502414039e-05
2.505198134e-05
2.509849106e-05
2.508756704e-05
2.505823017e-05
2.505616096e-05
2.503949697e-05
2.504285046e-05
2.504771539e-05
2.504620538e-05
2.503475197e-05
2.5104115e-05
2.506311982e-05
2.5049654e-05
2.506287036e-05
2.505625223e-05
2.507942071e-05
2.506368063e-05
2.503737298e-05
2.507664387e-05
2.508394991e-05
2.505349579e-05
2.506945463e-05
2.505637204e-05
2.509498917e-05
2.507949693e-05
2.502516767e-05
2.500892218e-05
2.504561319e-05
2.502607056e-05
2.504566042e-05
2.504391395e-05
2.50799454e-05
2.507963847e-05
2.507891261e-05
2.501268682e-05
2.505361455e-05
2.50448418e-05
2.505986141e-05
2.506598048e-05
2.506878277e-05
2.506532573e-05
2.503450411e-05
2.506849587e-05
2.505037636e-05
2.503292256e-05
2.507973671e-05
2.503846018e-05
2.502742944e-05
2.501866602e-05
2.506104793e-05
2.504671135e-05
2.50333121e-05
2.505597515e-05
2.502553043e-05
2.501757166e-05
2.504552868e-05
2.504012165e-05
2.500326518e-05
2.499924041e-05
2.503568513e-05
2.507499718e-05
2.505244124e-05
2.504366042e-05
2.499510518e-05
2.501623333e-05
2.502996904e-05
2.504653097e-05
2.499531931e-05
2.500465694e-05
2.498278182e-05
2.500595171e-05
2.499333242e-05
2.500063162e-05
2.504499857e-05
2.506910648e-05
2.499130142e-05
2.50167719e-05
2.497734916e-05
2.501199758e-05
2.502257214e-05
2.50383387e-05
2.501157844e-05
2.501968224e-05
2.502205006e-05
2.499135663e-05
2.502737164e-05
2.497166445e-05
2.501397218e-05
2.498658489e-05
2.498549471e-05
2.502002127e-05
2.500685328e-05
2.498425049e-05
2.49906854e-05
2.497970849e-05
2.499818512e-05
2.502704295e-05
2.499470037e-05
2.499661495e-05
2.503283543e-05
2.497515867e-05
2.495416163e-05
2.500853535e-05
2.499530837e-05
2.502217126e-05
2.499622899e-05
2.504266204e-05
2.4975107e-05
2.500290402e-05
2.49842503e-05
2.499882209e-05
2.503558894e-05
2.50432177e-05
2.503154923e-05
2.5023727e-05
2.499826269e-05
2.498568054e-05
2.499708892e-05
2.497645737e-05
2.498971226e-05
2.500618228e-05
2.500265243e-05
2.504578888e-05
2.503131194e-05
2.500814684e-05
2.499703635e-05
2.497559828e-05
2.491953577e-05
2.493383921e-05
2.492442475e-05
2.49532071e-05
2.497437691e-05
2.496940634e-05
2.496977327e-05
2.49445227e-05
2.49458385e-05
2.498283011e-05
2.501004891e-05
2.501708063e-05
2.497058277e-05
2.500141387e-05
2.497837023e-05
2.495939226e-05
2.498079039e-05
2.494622312e-05
2.503584457e-05
2.498678883e-05
2.494853994e-05
2.497716229e-05
2.497699431e-05
2.500090648e-05
2.49829947e-05
2.49560295e-05
2.500702405e-05
2.502246184e-05
2.500068549e-05
2.493801725e-05
2.501143788e-05
2.501817567e-05
2.501342827e-05
2.497742276e-05
2.50126217e-05
2.500926296e-05
2.503394331e-05
2.49969694e-05
2.497908594e-05
2.502212442e-05
2.500675749e-05
2.50008646e-05
2.500358148e-05
2.495704992e-05
2.496615551e-05
2.500236207e-05
2.497055414e-05
2.503194559e-05
2.504262269e-05
2.505643931e-05
2.500276355e-05
2.503408806e-05
2.505147987e-05
2.503020057e-05
2.50458257e-05
2.503275738e-05
2.503272808e-05
2.499557716e-05
2.505855409e-05
2.501430277e-05
2.506572831e-05
2.507882364e-05
2.508489385e-05
2.507278959e-05
2.505053187e-05
2.502593065e-05
2.505011746e-05
2.507131866e-05
2.500947388e-05
2.507292618e-05
2.502534686e-05
2.501751511e-05
2.504973115e-05
2.506366108e-05
2.506204488e-05
2.503918297e-05
2.508506636e-05
2.50915638e-05
2.503029188e-05
2.507128355e-05
2.505651996e-05
2.508489624e-05
2.506532538e-05
2.50715648e-05
2.508243541e-05
2.501532118e-05
2.506802631e-05
2.503416898e-05
2.508598586e-05
2.507944945e-05
2.504706756e-05
2.504912258e-05
2.506368032e-05
2.510001252e-05
2.50887367e-05
2.501650217e-05
2.499106565e-05
2.504083689e-05
2.502700122e-05
2.502569998e-05
2.505907181e-05
2.503067508e-05
2.504854048e-05
2.503662611e-05
2.504898648e-05
2.505854001e-05
2.505474157e-05
2.502837921e-05
2.507315046e-05
2.504317983e-05
2.507430415e-05
2.508165356e-05
2.505217774e-05
2.503104211e-05
2.501317932e-05
2.502277231e-05
2.500799072e-05
2.504045187e-05
2.506924075e-05
2.50084986e-05
2.503294957e-05
2.502042507e-05
2.501472994e-05
2.502894011e-05
2.501069022e-05
2.504774575e-05
2.500742472e-05
2.499909029e-05
2.502793335e-05
2.502624513e-05
2.502545558e-05
2.499887312e-05
2.500572133e-05
2.498552957e-05
2.500515971e-05
2.496231502e-05
2.502070101e-05
2.504588718e-05
2.503688233e-05
2.50718523e-05
2.49977635e-05
2.500113371e-05
2.498144223e-05
2.499161951e-05
2.5009546e-05
2.50340702e-05
2.502022232e-05
2.502102377e-05
2.499728413e-05
2.500469272e-05
2.499476582e-05
2.49915621e-05
2.504727384e-05
2.499171433e-05
2.502001818e-05
2.501989466e-05
2.503627719e-05
2.504765013e-05
2.499836532e-05
2.49785775e-05
2.4990764e-05
2.501001208e-05
2.499176988e-05
2.499846594e-05
2.504575796e-05
2.502650795e-05
2.50685066e-05
2.50268603e-05
2.502756734e-05
2.498228618e-05
2.498918455e-05
2.500253083e-05
2.500643756e-05
2.501481436e-05
2.503220549e-05
2.497867631e-05
2.506540766e-05
2.503771917e-05
2.499749889e-05
2.501337571e-05
2.499846878e-05
2.501834575e-05
2.502074446e-05
2.503580372e-05
2.498403897e-05
2.497779849e-05
2.499966137e-05
2.505157034e-05
2.500174397e-05
2.494768406e-05
2.504273322e-05
2.502357848e-05
2.499782157e-05
2.50047269e-05
2.50046515e-05
2.501135091e-05
2.50255581e-05
2.499263355e-05
2.499546066e-05
2.495097852e-05
2.49436795e-05
2.495747951e-05
2.494982799e-05
2.496045999e-05
2.498157022e-05
2.499258056e-05
2.497803377e-05
2.501661957e-05
2.495141043e-05
2.49627508e-05
2.501659494e-05
2.495937281e-05
2.500956123e-05
2.500813274e-05
2.495153599e-05
2.496593452e-05
2.496544653e-05
2.498249402e-05
2.497961043e-05
2.495255802e-05
2.500847017e-05
2.498722855e-05
2.500194199e-05
2.49667441e-05
2.495844256e-05
2.498827182e-05
2.501791088e-05
2.502078403e-05
2.497829358e-05
2.500389094e-05
2.499173248e-05
2.500577964e-05
2.503220045e-05
2.505594085e-05
2.501185811e-05
2.501324695e-05
2.503759015e-05
2.500434695e-05
2.496683362e-05
2.495982479e-05
2.504169836e-05
2.503815204e-05
2.499166882e-05
2.491496519e-05
2.501987399e-05
2.508347532e-05
2.500890467e-05
2.500016583e-05
2.506426698e-05
2.505367771e-05
2.500857347e-05
2.500533049e-05
2.506322949e-05
2.505223307e-05
2.501310092e-05
2.503163193e-05
2.50422966e-05
2.498634338e-05
2.501606649e-05
2.501553118e-05
2.509256108e-05
2.502781606e-05
2.506352855e-05
2.504565879e-05
2.503887123e-05
2.501511904e-05
2.505075241e-05
2.503551139e-05
2.498814357e-05
2.501122603e-05
2.502762722e-05
2.508481698e-05
2.506852914e-05
2.507459212e-05
2.503923269e-05
2.50943766e-05
2.506892918e-05
2.507968276e-05
2.504686238e-05
2.506657332e-05
2.509556382e-05
2.508519373e-05
2.507380583e-05
2.508045019e-05
2.509075005e-05
2.50834894e-05
2.506401526e-05
2.506192789e-05
2.50754124e-05
2.504495497e-05
2.50805733e-05
2.50576891e-05
2.503609972e-05
2.508516917e-05
2.502111771e-05
2.505853077e-05
2.502936812e-05
2.507048133e-05
2.504667845e-05
2.504752181e-05
2.504062205e-05
2.501884928e-05
2.506281224e-05
2.504384506e-05
2.498890846e-05
2.502968637e-05
2.501924179e-05
2.504757368e-05
2.503076537e-05
2.502380879e-05
2.506690254e-05
2.506187681e-05
2.508323554e-05
2.502583841e-05
2.50380097e-05
2.505016734e-05
2.501685881e-05
2.505014265e-05
2.506902672e-05
2.502126127e-05
2.505176152e-05
2.498883446e-05
2.501448802e-05
2.502734944e-05
2.500972687e-05
2.497685577e-05
2.500777008e-05
2.499976005e-05
2.498905849e-05
2.502435497e-05
2.503967871e-05
2.500200124e-05
2.498939695e-05
2.501323825e-05
2.49942399e-05
2.499276314e-05
2.505076864e-05
2.502661631e-05
2.501007802e-05
2.503418775e-05
2.500260145e-05
2.499445384e-05
2.49925522e-05
2.500251277e-05
2.502260225e-05
2.509097433e-05
2.503053063e-05
2.501568688e-05
2.500000034e-05
2.497919909e-05
2.49585705e-05
2.503678461e-05
2.501027558e-05
2.503682813e-05
2.503139618e-05
2.503501205e-05
2.500711473e-05
2.50152562e-05
2.501059429e-05
2.497110371e-05
2.493331382e-05
2.498653667e-05
2.500789062e-05
2.500809466e-05
2.498301342e-05
2.504269994e-05
2.502837022e-05
2.503365441e-05
2.502527888e-05
2.503943873e-05
2.498836375e-05
2.499061602e-05
2.501481278e-05
2.49969399e-05
2.505558056e-05
2.498662227e-05
2.496976018e-05
2.497376449e-05
2.500858537e-05
2.49861832e-05
2.497800766e-05
2.503108704e-05
2.501901779e-05
2.499610392e-05
2.498753389e-05
2.495930269e-05
2.49690521e-05
2.498648183e-05
2.501457912e-05
2.500213138e-05
2.498868965e-05
2.501989264e-05
2.503876826e-05
2.498092424e-05
2.499922086e-05
2.496337605e-05
2.500615841e-05
2.503005495e-05
2.504042068e-05
2.499049444e-05
2.499418102e-05
2.497461225e-05
2.496641225e-05
2.494028167e-05
2.5006531e-05
2.49765033e-05
2.495068226e-05
2.499467634e-05
2.496672961e-05
2.498611695e-05
2.499109013e-05
2.500838643e-05
2.504403386e-05
2.501213228e-05
2.497703081e-05
2.496695697e-05
2.495964578e-05
2.497556542e-05
2.496998573e-05
2.493621917e-05
2.49872423e-05
2.496823205e-05
2.497841859e-05
2.500865683e-05
2.496254557e-05
2.500221176e-05
2.49952414e-05
2.502011407e-05
2.502798043e-05
2.504985664e-05
2.502810059e-05
2.501269551e-05
2.502746061e-05
2.497724012e-05
2.502228591e-05
2.499502677e-05
2.504992604e-05
2.503007708e-05
2.497398567e-05
2.501882817e-05
2.501794162e-05
2.504634499e-05
2.501150494e-05
2.501310561e-05
2.498388352e-05
2.5054738e-05
2.501968433e-05
2.500709768e-05
2.500895039e-05
2.502312173e-05
2.50522655e-05
2.505563299e-05
2.504774795e-05
2.50777418e-05
2.502233521e-05
2.50697825e-05
2.507039134e-05
2.502997173e-05
2.501223403e-05
2.502284215e-05
2.502153214e-05
2.506083962e-05
2.504022048e-05
2.505185837e-05
2.503893356e-05
2.505470006e-05
2.502882669e-05
2.504566037e-05
2.504447802e-05
2.49947185e-05
2.502672021e-05
2.506326469e-05
2.505329158e-05
2.500067532e-05
2.503273853e-05
2.509357221e-05
2.509742584e-05
2.506470427e-05
2.50491618e-05
2.510009344e-05
2.504069335e-05
2.505866591e-05
2.50764886e-05
2.506354384e-05
2.506147343e-05
2.504722119e-05
2.506540449e-05
2.505693829e-05
2.510170163e-05
2.507180373e-05
2.511317908e-05
2.507270455e-05
2.506728771e-05
2.506672015e-05
2.501154583e-05
2.506322041e-05
2.5029263e-05
2.504008628e-05
2.506658037e-05
2.501323583e-05
2.503085722e-05
2.50286138e-05
2.506134488e-05
2.504664109e-05
2.507633633e-05
2.50481654e-05
2.504910027e-05
2.498859163e-05
2.500941721e-05
2.500809293e-05
2.50093243e-05
2.50616194e-05
2.507475809e-05
2.504932926e-05
2.507904613e-05
2.506444247e-05
2.506992999e-05
2.508803758e-05
2.507936737e-05
2.506808993e-05
2.500224275e-05
2.500674933e-05
2.501065953e-05
2.505164244e-05
2.502523552e-05
2.502267873e-05
2.499709852e-05
2.499375643e-05
2.503025005e-05
2.499387351e-05
2.50317669e-05
2.502286159e-05
2.503253343e-05
2.503771949e-05
2.501076589e-05
2.501638641e-05
2.503788501e-05
2.504341615e-05
2.50644601e-05
2.501628074e-05
2.505796242e-05
2.507773447e-05
2.499396382e-05
2.501769384e-05
2.501198385e-05
2.499095648e-05
2.503531507e-05
2.503305934e-05
2.500039234e-05
2.494827654e-05
2.500396017e-05
2.500182243e-05
2.501383588e-05
2.501398506e-05
2.504313556e-05
2.501773467e-05
2.49958788e-05
2.503121827e-05
2.500688195e-05
2.505896713e-05
2.50314391e-05
2.50114148e-05
2.496281011e-05
2.499618681e-05
2.499665704e-05
2.500684059e-05
2.5009873e-05
2.497147318e-05
2.500430025e-05
2.500745589e-05
2.500485164e-05
2.498233847e-05
2.501492343e-05
2.500271049e-05
2.496366888e-05
2.497765624e-05
2.495888652e-05
2.499044722e-05
2.500152568e-05
2.501765317e-05
2.49719562e-05
2.503658164e-05
2.502492871e-05
2.500164709e-05
2.498505411e-05
2.501054858e-05
2.500673227e-05
2.498203156e-05
2.498386927e-05
2.499594395e-05
)
;

boundaryField
{
    bottom
    {
        type            calculated;
        value           nonuniform List<scalar> 
200
(
2.50227666e-05
2.504214578e-05
2.500725045e-05
2.502981267e-05
2.496944319e-05
2.499445382e-05
2.501073174e-05
2.497454048e-05
2.500571636e-05
2.497777801e-05
2.493080267e-05
2.495717084e-05
2.496055918e-05
2.498903459e-05
2.498331273e-05
2.489962647e-05
2.497061501e-05
2.498146227e-05
2.498663145e-05
2.498018614e-05
2.494544997e-05
2.496062959e-05
2.499173847e-05
2.499966688e-05
2.498645989e-05
2.501174668e-05
2.500961192e-05
2.496752014e-05
2.494493466e-05
2.497289141e-05
2.501287335e-05
2.49715222e-05
2.496857707e-05
2.494552236e-05
2.497200378e-05
2.499334323e-05
2.49509657e-05
2.501674944e-05
2.499132707e-05
2.501665694e-05
2.499579784e-05
2.498167135e-05
2.50185493e-05
2.499320067e-05
2.502219817e-05
2.501160447e-05
2.499394994e-05
2.501023301e-05
2.500610828e-05
2.497912307e-05
2.502323971e-05
2.502313561e-05
2.504812529e-05
2.500129292e-05
2.499219311e-05
2.499273476e-05
2.50232706e-05
2.503836543e-05
2.504481276e-05
2.505956655e-05
2.50348829e-05
2.501604334e-05
2.50505643e-05
2.497970172e-05
2.504178151e-05
2.502093674e-05
2.496155105e-05
2.498754483e-05
2.504267705e-05
2.504098651e-05
2.50381009e-05
2.505883622e-05
2.50390381e-05
2.506231802e-05
2.510066544e-05
2.508365586e-05
2.503519285e-05
2.498442774e-05
2.505737674e-05
2.506218137e-05
2.503414024e-05
2.502435159e-05
2.501187661e-05
2.506027757e-05
2.51013342e-05
2.505893145e-05
2.504681789e-05
2.502425235e-05
2.508212723e-05
2.506691191e-05
2.50580042e-05
2.504767444e-05
2.501762017e-05
2.501202142e-05
2.510574229e-05
2.509652163e-05
2.504805406e-05
2.508193366e-05
2.510780541e-05
2.503942916e-05
2.50492085e-05
2.503582369e-05
2.506020479e-05
2.507480872e-05
2.501329246e-05
2.504196133e-05
2.506244903e-05
2.505141631e-05
2.507653272e-05
2.505243428e-05
2.499343445e-05
2.499901241e-05
2.501413299e-05
2.500278639e-05
2.503538448e-05
2.506911366e-05
2.507800114e-05
2.501658776e-05
2.50478125e-05
2.507147313e-05
2.507935927e-05
2.505703344e-05
2.503706988e-05
2.501395946e-05
2.502725865e-05
2.503183092e-05
2.507095145e-05
2.506757337e-05
2.506608969e-05
2.504077496e-05
2.504460399e-05
2.504643314e-05
2.506474948e-05
2.505305435e-05
2.50488855e-05
2.507203895e-05
2.509300554e-05
2.498414897e-05
2.504290741e-05
2.505734311e-05
2.499967767e-05
2.500708511e-05
2.502533849e-05
2.502345505e-05
2.503989815e-05
2.502485549e-05
2.501598056e-05
2.500243677e-05
2.502514546e-05
2.502390036e-05
2.503250447e-05
2.502812889e-05
2.504398141e-05
2.500373127e-05
2.49942024e-05
2.497613364e-05
2.504741338e-05
2.505646733e-05
2.506628388e-05
2.499363694e-05
2.499336256e-05
2.494841788e-05
2.50451412e-05
2.503044531e-05
2.498671777e-05
2.498888306e-05
2.499230637e-05
2.499141222e-05
2.500893489e-05
2.506575758e-05
2.501553842e-05
2.503399033e-05
2.502863539e-05
2.501594869e-05
2.510228257e-05
2.49966948e-05
2.497086925e-05
2.501026188e-05
2.501194455e-05
2.505686922e-05
2.502045968e-05
2.497832027e-05
2.501104679e-05
2.498751689e-05
2.500316741e-05
2.498861914e-05
2.498834121e-05
2.499946291e-05
2.501359825e-05
2.501878527e-05
2.496612856e-05
2.493226749e-05
2.499421181e-05
2.497826974e-05
2.506747858e-05
2.498972291e-05
2.497916013e-05
2.498083972e-05
2.495710599e-05
2.50144414e-05
)
;
    }
    top
    {
        type            calculated;
        value           nonuniform List<scalar> 
200
(
2.498868965e-05
2.501989264e-05
2.503876826e-05
2.498092424e-05
2.499922086e-05
2.496337605e-05
2.500615841e-05
2.503005495e-05
2.504042068e-05
2.499049444e-05
2.499418102e-05
2.497461225e-05
2.496641225e-05
2.494028167e-05
2.5006531e-05
2.49765033e-05
2.495068226e-05
2.499467634e-05
2.496672961e-05
2.498611695e-05
2.499109013e-05
2.500838643e-05
2.504403386e-05
2.501213228e-05
2.497703081e-05
2.496695697e-05
2.495964578e-05
2.497556542e-05
2.496998573e-05
2.493621917e-05
2.49872423e-05
2.496823205e-05
2.497841859e-05
2.500865683e-05
2.496254557e-05
2.500221176e-05
2.49952414e-05
2.502011407e-05
2.502798043e-05
2.504985664e-05
2.502810059e-05
2.501269551e-05
2.502746061e-05
2.497724012e-05
2.502228591e-05
2.499502677e-05
2.504992604e-05
2.503007708e-05
2.497398567e-05
2.501882817e-05
2.501794162e-05
2.504634499e-05
2.501150494e-05
2.501310561e-05
2.498388352e-05
2.5054738e-05
2.501968433e-05
2.500709768e-05
2.500895039e-05
2.502312173e-05
2.50522655e-05
2.505563299e-05
2.504774795e-05
2.50777418e-05
2.502233521e-05
2.50697825e-05
2.507039134e-05
2.502997173e-05
2.501223403e-05
2.502284215e-05
2.502153214e-05
2.506083962e-05
2.504022048e-05
2.505185837e-05
2.503893356e-05
2.505470006e-05
2.502882669e-05
2.504566037e-05
2.504447802e-05
2.49947185e-05
2.502672021e-05
2.506326469e-05
2.505329158e-05
2.500067532e-05
2.503273853e-05
2.509357221e-05
2.509742584e-05
2.506470427e-05
2.50491618e-05
2.510009344e-05
2.504069335e-05
2.505866591e-05
2.50764886e-05
2.506354384e-05
2.506147343e-05
2.504722119e-05
2.506540449e-05
2.505693829e-05
2.510170163e-05
2.507180373e-05
2.511317908e-05
2.507270455e-05
2.506728771e-05
2.506672015e-05
2.501154583e-05
2.506322041e-05
2.5029263e-05
2.504008628e-05
2.506658037e-05
2.501323583e-05
2.503085722e-05
2.50286138e-05
2.506134488e-05
2.504664109e-05
2.507633633e-05
2.50481654e-05
2.504910027e-05
2.498859163e-05
2.500941721e-05
2.500809293e-05
2.50093243e-05
2.50616194e-05
2.507475809e-05
2.504932926e-05
2.507904613e-05
2.506444247e-05
2.506992999e-05
2.508803758e-05
2.507936737e-05
2.506808993e-05
2.500224275e-05
2.500674933e-05
2.501065953e-05
2.505164244e-05
2.502523552e-05
2.502267873e-05
2.499709852e-05
2.499375643e-05
2.503025005e-05
2.499387351e-05
2.50317669e-05
2.502286159e-05
2.503253343e-05
2.503771949e-05
2.501076589e-05
2.501638641e-05
2.503788501e-05
2.504341615e-05
2.50644601e-05
2.501628074e-05
2.505796242e-05
2.507773447e-05
2.499396382e-05
2.501769384e-05
2.501198385e-05
2.499095648e-05
2.503531507e-05
2.503305934e-05
2.500039234e-05
2.494827654e-05
2.500396017e-05
2.500182243e-05
2.501383588e-05
2.501398506e-05
2.504313556e-05
2.501773467e-05
2.49958788e-05
2.503121827e-05
2.500688195e-05
2.505896713e-05
2.50314391e-05
2.50114148e-05
2.496281011e-05
2.499618681e-05
2.499665704e-05
2.500684059e-05
2.5009873e-05
2.497147318e-05
2.500430025e-05
2.500745589e-05
2.500485164e-05
2.498233847e-05
2.501492343e-05
2.500271049e-05
2.496366888e-05
2.497765624e-05
2.495888652e-05
2.499044722e-05
2.500152568e-05
2.501765317e-05
2.49719562e-05
2.503658164e-05
2.502492871e-05
2.500164709e-05
2.498505411e-05
2.501054858e-05
2.500673227e-05
2.498203156e-05
2.498386927e-05
2.499594395e-05
)
;
    }
    inlet
    {
        type            cyclic;
    }
    outlet
    {
        type            cyclic;
    }
    back
    {
        type            symmetry;
    }
    front
    {
        type            symmetry;
    }
}


// ************************************************************************* //
