/*--------------------------------*- C++ -*----------------------------------*\
| =========                 |                                                 |
| \\      /  F ield         | OpenFOAM: The Open Source CFD Toolbox           |
|  \\    /   O peration     | Version:  v1706                                 |
|   \\  /    A nd           | Web:      www.OpenFOAM.com                      |
|    \\/     M anipulation  |                                                 |
\*---------------------------------------------------------------------------*/
FoamFile
{
    version     2.0;
    format      ascii;
    class       volScalarField;
    location    "0.27";
    object      mfpCellRatio_Ar;
}
// * * * * * * * * * * * * * * * * * * * * * * * * * * * * * * * * * * * * * //

dimensions      [0 0 0 0 0 0 0];


internalField   nonuniform List<scalar> 
1000
(
1.902406563
1.904576978
1.901905638
1.904299751
1.899028481
1.902091066
1.901928695
1.899236854
1.901293378
1.898372148
1.894876475
1.897854838
1.899041087
1.900830835
1.898711742
1.891151654
1.899747776
1.899877495
1.899447767
1.898833443
1.896492505
1.897921552
1.899915
1.900344421
1.899414383
1.900466978
1.901198271
1.898706684
1.896757829
1.897762756
1.901846443
1.8986613
1.8977757
1.896315324
1.897253571
1.900377091
1.897393847
1.902109006
1.900551111
1.902683007
1.900829133
1.900921667
1.903487921
1.900944372
1.902934886
1.903825372
1.902572894
1.903268183
1.902528694
1.899378682
1.9025386
1.903083298
1.906399837
1.901056521
1.901105111
1.900112452
1.904092532
1.905364006
1.905828131
1.907442031
1.905115339
1.902728159
1.905716731
1.900105481
1.90686719
1.90556452
1.898533385
1.900185558
1.905299574
1.905318227
1.905917974
1.908361638
1.906162639
1.908446692
1.911548801
1.909899839
1.906087903
1.901283732
1.908751519
1.908955095
1.90633106
1.905656342
1.904237774
1.908376662
1.912155914
1.908251557
1.908015251
1.907155855
1.911141693
1.909367213
1.907818113
1.90692482
1.906744052
1.90642902
1.913971698
1.912451063
1.909745282
1.911655981
1.912140779
1.906281472
1.907991181
1.908237317
1.909363829
1.909072037
1.90423612
1.907148764
1.908130858
1.907501316
1.909930357
1.907154597
1.902756055
1.903028434
1.904239116
1.904746766
1.906468241
1.909230323
1.91131594
1.905261638
1.908593528
1.9109819
1.911048571
1.910420334
1.908118272
1.905514223
1.906578805
1.906979218
1.909906408
1.910182345
1.909526974
1.907013788
1.906373042
1.905739344
1.908410665
1.907843819
1.907348851
1.909197856
1.910827663
1.901325485
1.906583766
1.907677474
1.904119001
1.903496915
1.905110848
1.906831613
1.905816712
1.90515651
1.905289319
1.904911959
1.906109804
1.90402151
1.904008628
1.905531182
1.906601083
1.903093168
1.903096772
1.899744865
1.906696405
1.908253419
1.909049536
1.902480733
1.901014712
1.897686291
1.907337672
1.905219576
1.90087809
1.902406557
1.901769487
1.90247593
1.902049204
1.907870876
1.902032856
1.905814107
1.902777817
1.901984344
1.910876751
1.900653602
1.8980586
1.902554141
1.904496644
1.906941364
1.903248412
1.899490165
1.903314997
1.900626653
1.90112391
1.900425648
1.899701585
1.902059884
1.904403393
1.903694817
1.899216583
1.897882235
1.903558071
1.900528134
1.906909917
1.900000947
1.898269623
1.898868775
1.898394366
1.902915052
1.89873402
1.900867744
1.902995751
1.900814296
1.89783977
1.90192977
1.90283257
1.898832732
1.899216757
1.899534768
1.897045946
1.896900686
1.895794185
1.90229492
1.897060081
1.897637372
1.90018867
1.898124272
1.896871257
1.895448448
1.900166486
1.90596363
1.900488834
1.902082947
1.902022785
1.905324926
1.896702387
1.89500341
1.895572706
1.894466584
1.897234416
1.893181982
1.898159663
1.895774752
1.90200327
1.900216924
1.900301384
1.902361602
1.90418315
1.90112002
1.902456838
1.899741382
1.902809909
1.901327045
1.905258262
1.903875092
1.904264632
1.903337377
1.900817159
1.904857162
1.902305219
1.901298307
1.901758132
1.901394614
1.901398355
1.900602277
1.902171629
1.905152616
1.907931952
1.908792258
1.911833344
1.908094742
1.907051687
1.905101955
1.905047821
1.90686701
1.904238013
1.903789858
1.905902562
1.908718867
1.909760014
1.908665612
1.906841811
1.906735992
1.907708927
1.907047736
1.907072664
1.905656266
1.907539081
1.90569203
1.907242278
1.907178951
1.905868993
1.907493376
1.911619427
1.910566493
1.907876279
1.909135178
1.907584285
1.907538548
1.908215082
1.906403812
1.90618093
1.913391368
1.909284476
1.908383777
1.909831211
1.910267942
1.909341175
1.909521774
1.907604133
1.911359785
1.911977351
1.908035688
1.91001327
1.909185661
1.910468326
1.909847653
1.904379797
1.90319248
1.906929586
1.905810799
1.90698594
1.907509326
1.909710331
1.910989838
1.910671749
1.90609294
1.908612746
1.909312861
1.909116356
1.908799498
1.910060791
1.910152205
1.907173331
1.910259666
1.907996946
1.907322067
1.910545301
1.90667453
1.905704107
1.904700151
1.90792154
1.907216792
1.906520054
1.909949713
1.905173006
1.905753331
1.90748104
1.907214627
1.904059686
1.901825509
1.905919163
1.910270024
1.90858604
1.90653808
1.903087111
1.904890129
1.905904875
1.906444716
1.902259901
1.902396679
1.900301
1.903093992
1.901904029
1.902901229
1.905195454
1.90890026
1.903004351
1.904574914
1.901237106
1.902672422
1.904582713
1.905756948
1.90390495
1.90376957
1.904786049
1.902299415
1.904139602
1.898774254
1.902424986
1.900183387
1.900249697
1.90352468
1.902812792
1.90048734
1.901594559
1.899909705
1.901746926
1.903683941
1.902386784
1.90174894
1.903420986
1.900522006
1.897870028
1.90153661
1.901756351
1.90388533
1.903061917
1.907341729
1.900055302
1.902471314
1.901329561
1.903114049
1.905758982
1.904995868
1.903645
1.905122304
1.901449186
1.900019768
1.900597572
1.900389307
1.90097277
1.901799979
1.903007822
1.906288085
1.905427356
1.903355525
1.901615674
1.897602765
1.892813172
1.895711424
1.89381356
1.896911915
1.89769011
1.899396473
1.897677193
1.896958235
1.896148203
1.897957096
1.903054974
1.903381596
1.898502419
1.900556014
1.89823461
1.897657526
1.90005596
1.897157285
1.903916446
1.899143075
1.894925442
1.898918718
1.898785172
1.901433001
1.898290448
1.898421179
1.90268433
1.903422152
1.900855779
1.896675489
1.903025599
1.903057258
1.903047961
1.901101871
1.903174318
1.903584204
1.90525829
1.901745424
1.899925157
1.903497432
1.902538668
1.902136002
1.902146572
1.897779698
1.898807157
1.902795982
1.89997159
1.904548383
1.905717487
1.90744966
1.90491908
1.906062557
1.908192776
1.905519989
1.907843994
1.906110712
1.905151134
1.900394935
1.906662759
1.903476
1.907297206
1.908813222
1.910005314
1.908816807
1.907666275
1.906141316
1.907974029
1.910110362
1.904426481
1.909526623
1.905637831
1.904282087
1.907136073
1.907307188
1.907840832
1.907517986
1.910665867
1.912908824
1.906481624
1.909625178
1.908548816
1.910456438
1.909034355
1.910908058
1.911463811
1.904941373
1.909734889
1.907339426
1.911885246
1.91068187
1.908695731
1.908869193
1.908809584
1.912488607
1.911649001
1.905783515
1.902592829
1.907829523
1.905759699
1.905455366
1.907053302
1.907421999
1.906379381
1.90658186
1.907484744
1.90963556
1.908700341
1.905488139
1.910192301
1.907365952
1.909799302
1.910266258
1.907785081
1.906249705
1.90452227
1.906113105
1.905088226
1.907618807
1.91034228
1.905314037
1.906763632
1.905327071
1.904169746
1.906336352
1.904218097
1.907576653
1.903349809
1.902773272
1.905550694
1.906331747
1.906530307
1.903162539
1.903473118
1.902168151
1.903433173
1.898687827
1.904208689
1.906907515
1.905622259
1.90883012
1.902778373
1.90190013
1.901835382
1.901004955
1.903992763
1.905524527
1.903552209
1.90364598
1.902082645
1.902890344
1.901226131
1.902376323
1.906618026
1.902905392
1.905169806
1.904948703
1.905544431
1.906662215
1.901481685
1.899743429
1.899672094
1.9017607
1.902198075
1.90161444
1.905796863
1.90449274
1.907929643
1.905103384
1.9039148
1.899473417
1.899832337
1.903530771
1.902754756
1.903481658
1.904372837
1.901050883
1.90772506
1.90624516
1.903159221
1.903326347
1.901059392
1.903582373
1.904303549
1.905304478
1.89985969
1.9004392
1.902237728
1.908210281
1.902908488
1.896952322
1.904215075
1.90300211
1.901522978
1.902788372
1.903937545
1.903825847
1.903999506
1.90200509
1.90096616
1.89752267
1.897363891
1.896943858
1.894732703
1.897145641
1.899384003
1.900176767
1.900305371
1.901791524
1.897744168
1.898951886
1.903790199
1.899708512
1.902281234
1.902315542
1.896799206
1.898001408
1.897679929
1.899799395
1.899629519
1.896468653
1.901187499
1.899278649
1.90033824
1.896854959
1.896407287
1.89896156
1.903500377
1.904229411
1.899968817
1.901522236
1.901067086
1.902731559
1.905367191
1.906795728
1.903707989
1.903910081
1.904800755
1.90294043
1.898158049
1.899224865
1.905848996
1.906126823
1.901448669
1.895400758
1.902555617
1.909375047
1.903092125
1.902222748
1.908247712
1.906492788
1.902501533
1.903543124
1.909328404
1.907962634
1.905539714
1.905038773
1.90662854
1.90084129
1.902396319
1.903838775
1.909204371
1.904449718
1.90871097
1.907836001
1.907463378
1.9039162
1.905913398
1.906552929
1.902264992
1.904380641
1.905022469
1.909484388
1.908212023
1.909374811
1.907952328
1.911613848
1.909423552
1.910040596
1.907502059
1.909150262
1.913251185
1.910734109
1.911020859
1.910924959
1.912334028
1.911361604
1.909832823
1.909351089
1.909630393
1.907226764
1.91012439
1.908384357
1.907434484
1.911840153
1.905759475
1.909991745
1.905946067
1.910504918
1.907939176
1.907489552
1.907499504
1.904116404
1.90811689
1.906708936
1.902920382
1.906449259
1.906281833
1.907203014
1.905411603
1.904102097
1.90777182
1.908211525
1.911986859
1.906277096
1.90714683
1.907575073
1.90566034
1.9091858
1.910260874
1.90537368
1.907843982
1.901929141
1.906014774
1.9063547
1.903037731
1.901367385
1.903986707
1.903357524
1.900808836
1.905292741
1.906083073
1.903086308
1.900928622
1.903865828
1.902058084
1.902227166
1.907605726
1.904116394
1.904170058
1.904188893
1.903390847
1.90227685
1.902708379
1.902174403
1.905785289
1.912058431
1.906480651
1.904046128
1.902982011
1.899970544
1.898506896
1.905706108
1.904367452
1.907623988
1.90642092
1.903695091
1.903104551
1.90322884
1.901855219
1.898575501
1.89633538
1.899899286
1.901166528
1.901848527
1.899982182
1.905124654
1.905009028
1.9051054
1.902276132
1.904619094
1.899118864
1.90069168
1.903345896
1.901003944
1.905189891
1.902268188
1.898834786
1.899568358
1.902190265
1.90143704
1.899638269
1.903501883
1.902757219
1.9011529
1.900151246
1.897886881
1.898768293
1.901192912
1.903262808
1.902846079
1.901775692
1.902267248
1.905600812
1.900538692
1.90096608
1.897813361
1.902162659
1.903546422
1.906603207
1.90214688
1.900679959
1.897962326
1.896438548
1.895658059
1.901404237
1.898371144
1.896696538
1.901984843
1.897523185
1.899033931
1.90175382
1.902486617
1.905138329
1.901209525
1.900154073
1.898199708
1.897377043
1.899121567
1.899398208
1.89528843
1.899873562
1.899337924
1.898136027
1.900847715
1.896716345
1.901299611
1.900717329
1.902726102
1.902837595
1.905484155
1.902598519
1.902099619
1.903911339
1.901148343
1.904900043
1.90140322
1.90648725
1.903624813
1.900534487
1.903393666
1.903773311
1.905501631
1.902650135
1.903207247
1.900247506
1.906980997
1.902881957
1.902665656
1.902104462
1.903514414
1.906397746
1.907952198
1.908227804
1.910173769
1.903853044
1.908883417
1.907820218
1.90495109
1.903866476
1.904709164
1.905163255
1.909416818
1.906793155
1.906768949
1.906123014
1.907620202
1.906094619
1.906641365
1.906934199
1.90183196
1.903552182
1.906834412
1.906701063
1.902683686
1.906289996
1.912322243
1.91200912
1.909188278
1.908713333
1.912983896
1.908065277
1.908179119
1.911268576
1.910313779
1.908822504
1.907428745
1.910135212
1.908647817
1.912281044
1.909675704
1.913258926
1.909890103
1.91016266
1.909568557
1.905635076
1.908653369
1.905753561
1.90772889
1.909151784
1.905546834
1.905966648
1.906309952
1.908148209
1.9068019
1.910583756
1.908623936
1.908042957
1.903236189
1.905326424
1.905758573
1.905106334
1.909252738
1.909622912
1.907030408
1.910989011
1.909460658
1.910705526
1.910351917
1.91120372
1.910281333
1.903530784
1.905223429
1.902507172
1.906245426
1.904543283
1.905340914
1.903907592
1.902296757
1.904699172
1.901510657
1.904881069
1.905793688
1.905108405
1.906278601
1.903755363
1.904026077
1.904764155
1.906252664
1.907401972
1.902040851
1.908489387
1.910856635
1.903545971
1.905198244
1.904105134
1.903430952
1.907103642
1.905298763
1.90286659
1.898664599
1.902395007
1.90227201
1.902804238
1.904162028
1.907464813
1.903911156
1.900945213
1.90402024
1.900877399
1.905931935
1.903992834
1.901512848
1.897281053
1.899396657
1.901117586
1.902478305
1.904637059
1.89999297
1.90209786
1.902487723
1.901965106
1.900779375
1.902366537
1.901480591
1.898678873
1.898786196
1.897651476
1.901176633
1.903457706
1.903439333
1.898272713
1.90318537
1.903645664
1.902134158
1.900846684
1.902992941
1.902772991
1.899623836
1.899412498
1.901267965
)
;

boundaryField
{
    bottom
    {
        type            calculated;
        value           nonuniform List<scalar> 
200
(
1.902406563
1.904576978
1.901905638
1.904299751
1.899028481
1.902091066
1.901928695
1.899236854
1.901293378
1.898372148
1.894876475
1.897854838
1.899041087
1.900830835
1.898711742
1.891151654
1.899747776
1.899877495
1.899447767
1.898833443
1.896492505
1.897921552
1.899915
1.900344421
1.899414383
1.900466978
1.901198271
1.898706684
1.896757829
1.897762756
1.901846443
1.8986613
1.8977757
1.896315324
1.897253571
1.900377091
1.897393847
1.902109006
1.900551111
1.902683007
1.900829133
1.900921667
1.903487921
1.900944372
1.902934886
1.903825372
1.902572894
1.903268183
1.902528694
1.899378682
1.9025386
1.903083298
1.906399837
1.901056521
1.901105111
1.900112452
1.904092532
1.905364006
1.905828131
1.907442031
1.905115339
1.902728159
1.905716731
1.900105481
1.90686719
1.90556452
1.898533385
1.900185558
1.905299574
1.905318227
1.905917974
1.908361638
1.906162639
1.908446692
1.911548801
1.909899839
1.906087903
1.901283732
1.908751519
1.908955095
1.90633106
1.905656342
1.904237774
1.908376662
1.912155914
1.908251557
1.908015251
1.907155855
1.911141693
1.909367213
1.907818113
1.90692482
1.906744052
1.90642902
1.913971698
1.912451063
1.909745282
1.911655981
1.912140779
1.906281472
1.907991181
1.908237317
1.909363829
1.909072037
1.90423612
1.907148764
1.908130858
1.907501316
1.909930357
1.907154597
1.902756055
1.903028434
1.904239116
1.904746766
1.906468241
1.909230323
1.91131594
1.905261638
1.908593528
1.9109819
1.911048571
1.910420334
1.908118272
1.905514223
1.906578805
1.906979218
1.909906408
1.910182345
1.909526974
1.907013788
1.906373042
1.905739344
1.908410665
1.907843819
1.907348851
1.909197856
1.910827663
1.901325485
1.906583766
1.907677474
1.904119001
1.903496915
1.905110848
1.906831613
1.905816712
1.90515651
1.905289319
1.904911959
1.906109804
1.90402151
1.904008628
1.905531182
1.906601083
1.903093168
1.903096772
1.899744865
1.906696405
1.908253419
1.909049536
1.902480733
1.901014712
1.897686291
1.907337672
1.905219576
1.90087809
1.902406557
1.901769487
1.90247593
1.902049204
1.907870876
1.902032856
1.905814107
1.902777817
1.901984344
1.910876751
1.900653602
1.8980586
1.902554141
1.904496644
1.906941364
1.903248412
1.899490165
1.903314997
1.900626653
1.90112391
1.900425648
1.899701585
1.902059884
1.904403393
1.903694817
1.899216583
1.897882235
1.903558071
1.900528134
1.906909917
1.900000947
1.898269623
1.898868775
1.898394366
1.902915052
)
;
    }
    top
    {
        type            calculated;
        value           nonuniform List<scalar> 
200
(
1.901775692
1.902267248
1.905600812
1.900538692
1.90096608
1.897813361
1.902162659
1.903546422
1.906603207
1.90214688
1.900679959
1.897962326
1.896438548
1.895658059
1.901404237
1.898371144
1.896696538
1.901984843
1.897523185
1.899033931
1.90175382
1.902486617
1.905138329
1.901209525
1.900154073
1.898199708
1.897377043
1.899121567
1.899398208
1.89528843
1.899873562
1.899337924
1.898136027
1.900847715
1.896716345
1.901299611
1.900717329
1.902726102
1.902837595
1.905484155
1.902598519
1.902099619
1.903911339
1.901148343
1.904900043
1.90140322
1.90648725
1.903624813
1.900534487
1.903393666
1.903773311
1.905501631
1.902650135
1.903207247
1.900247506
1.906980997
1.902881957
1.902665656
1.902104462
1.903514414
1.906397746
1.907952198
1.908227804
1.910173769
1.903853044
1.908883417
1.907820218
1.90495109
1.903866476
1.904709164
1.905163255
1.909416818
1.906793155
1.906768949
1.906123014
1.907620202
1.906094619
1.906641365
1.906934199
1.90183196
1.903552182
1.906834412
1.906701063
1.902683686
1.906289996
1.912322243
1.91200912
1.909188278
1.908713333
1.912983896
1.908065277
1.908179119
1.911268576
1.910313779
1.908822504
1.907428745
1.910135212
1.908647817
1.912281044
1.909675704
1.913258926
1.909890103
1.91016266
1.909568557
1.905635076
1.908653369
1.905753561
1.90772889
1.909151784
1.905546834
1.905966648
1.906309952
1.908148209
1.9068019
1.910583756
1.908623936
1.908042957
1.903236189
1.905326424
1.905758573
1.905106334
1.909252738
1.909622912
1.907030408
1.910989011
1.909460658
1.910705526
1.910351917
1.91120372
1.910281333
1.903530784
1.905223429
1.902507172
1.906245426
1.904543283
1.905340914
1.903907592
1.902296757
1.904699172
1.901510657
1.904881069
1.905793688
1.905108405
1.906278601
1.903755363
1.904026077
1.904764155
1.906252664
1.907401972
1.902040851
1.908489387
1.910856635
1.903545971
1.905198244
1.904105134
1.903430952
1.907103642
1.905298763
1.90286659
1.898664599
1.902395007
1.90227201
1.902804238
1.904162028
1.907464813
1.903911156
1.900945213
1.90402024
1.900877399
1.905931935
1.903992834
1.901512848
1.897281053
1.899396657
1.901117586
1.902478305
1.904637059
1.89999297
1.90209786
1.902487723
1.901965106
1.900779375
1.902366537
1.901480591
1.898678873
1.898786196
1.897651476
1.901176633
1.903457706
1.903439333
1.898272713
1.90318537
1.903645664
1.902134158
1.900846684
1.902992941
1.902772991
1.899623836
1.899412498
1.901267965
)
;
    }
    inlet
    {
        type            cyclic;
    }
    outlet
    {
        type            cyclic;
    }
    back
    {
        type            symmetry;
    }
    front
    {
        type            symmetry;
    }
}


// ************************************************************************* //
