/*--------------------------------*- C++ -*----------------------------------*\
| =========                 |                                                 |
| \\      /  F ield         | OpenFOAM: The Open Source CFD Toolbox           |
|  \\    /   O peration     | Version:  v1706                                 |
|   \\  /    A nd           | Web:      www.OpenFOAM.com                      |
|    \\/     M anipulation  |                                                 |
\*---------------------------------------------------------------------------*/
FoamFile
{
    version     2.0;
    format      ascii;
    class       volScalarField;
    location    "0.27";
    object      overallT_Ar;
}
// * * * * * * * * * * * * * * * * * * * * * * * * * * * * * * * * * * * * * //

dimensions      [0 0 0 1 0 0 0];


internalField   nonuniform List<scalar> 
1000
(
272.4995858
272.6991648
272.6941808
272.8885089
272.6936758
273.0267095
272.6248821
272.6421961
272.5520766
272.3233803
272.3448148
272.6246396
272.8914488
272.783317
272.3001304
271.9548918
272.8746787
272.674993
272.4388976
272.403215
272.4892681
272.5682523
272.4615567
272.4118669
272.4330621
272.1839035
272.4399183
272.6432602
272.5767787
272.2550892
272.554624
272.5428475
272.3528988
272.4367743
272.1283569
272.5591032
272.6277648
272.5454095
272.6530094
272.7119435
272.6352317
272.9702302
272.901441
272.7249617
272.6633478
273.1498344
273.1760647
273.0199137
272.8978045
272.5828756
272.5271074
272.6854479
273.09098
272.5806025
272.7930796
272.4964653
272.9717981
273.0070058
272.9994131
273.1400674
273.0116907
272.7382662
272.8421683
272.7788854
273.3633414
273.445016
272.7238799
272.6306501
272.8945488
272.9367407
273.1715498
273.4194376
273.2212346
273.367839
273.4199095
273.3186975
273.2837404
273.0139744
273.5630338
273.5164891
273.3764576
273.3967377
273.2622389
273.3922915
273.5790366
273.3858172
273.5825498
273.8293371
273.7076064
273.5313302
273.2818604
273.2512446
273.8562374
273.8883266
274.0026202
273.7684659
274.051847
273.8591627
273.4337031
273.2467667
273.5234315
273.8866259
273.6767957
273.2745581
273.2308297
273.4401515
273.2745085
273.3348135
273.4827347
273.2132519
273.2399354
273.1962137
273.2133275
273.6071828
273.3886272
273.4440726
273.8476091
273.4531483
273.7266685
273.8944724
273.7413484
274.0491026
273.8251935
273.5831411
273.5979148
273.6128642
273.5976518
273.7504802
273.595054
273.427355
273.1601005
272.9386582
273.3044853
273.3972256
273.3463471
273.3709699
273.3804792
273.0320583
273.257513
273.2559889
273.4948676
273.1542964
273.2186899
273.7536795
273.1033148
273.2423345
273.4743694
273.6622961
273.5095122
272.9376967
272.7464112
273.2783203
273.2390399
273.1116843
273.3210032
272.7532695
273.1914822
273.4401246
273.4540206
273.1564414
272.741612
272.7675144
273.42488
273.138389
272.8474708
273.2390738
272.9813038
273.2036963
272.698613
273.1279293
272.5499742
273.2314835
272.4781247
272.5271322
273.1924862
272.5653193
272.3840903
272.8144665
273.3350558
273.0554766
272.7911075
272.6323984
273.0155774
272.7578475
272.5590557
272.6761014
272.4744226
272.9083608
273.2721527
272.9556203
272.8201277
273.177415
273.4533159
272.9315421
272.8153957
272.530165
272.2638348
272.3990985
272.7810843
272.8267879
272.8039009
272.7828241
272.8938698
272.7576646
272.3742114
273.0023095
272.9256739
272.4759895
272.6236937
272.4336015
272.079
272.3950775
272.434651
272.5488756
272.2068965
271.9718374
272.4865713
272.3823425
272.580937
272.4215757
272.2598108
272.918428
272.6467787
272.455941
272.7140294
272.828214
272.4671936
272.3936666
272.4187201
272.1010993
272.1649547
272.1767307
272.2263186
272.3509986
272.6032697
272.3784104
272.7875979
272.7296037
272.800229
272.583196
273.0594315
272.6705213
272.9705158
272.7212342
273.1294069
272.8989293
272.9913992
272.8984727
272.4469058
272.7979751
272.6193642
272.6095883
272.9743701
272.6985005
272.4177948
272.8499331
273.1365308
272.8950455
273.114088
273.2392103
273.5406765
273.2397367
273.2266482
273.2645513
273.4940749
273.0396194
273.0915301
273.0532708
272.9267425
273.4725711
273.4322794
273.6151182
273.3743107
273.0450599
273.3874578
273.6168053
273.7562893
273.5396134
273.6426034
273.1804901
273.5002324
273.340555
273.4623734
273.3202087
273.4874942
273.4242611
273.2935951
273.6995763
273.6189031
273.5325103
273.6202492
273.1339882
273.3200431
273.8719883
273.5903958
273.6262726
273.752556
274.0224695
273.2510883
273.6461608
273.6710239
273.8898194
273.9072089
273.4425823
273.660945
273.7094398
273.2344682
273.3944129
273.012772
273.0268141
273.2975896
273.4034958
273.3127121
273.5008999
273.3453227
273.7184281
273.6431529
273.7772017
273.6054112
273.9980271
273.6133558
273.389012
273.6892319
273.790937
273.6101282
273.7524935
273.4995813
273.6873856
273.5889542
273.3806187
273.3431996
273.2465949
273.245107
273.3559477
273.4487568
273.9372375
273.2323274
273.5727877
273.4575248
273.4992213
273.3993564
272.8459654
273.2246114
273.613525
273.6233826
273.2279859
273.2984849
273.3542624
273.34532
273.1386078
273.05627
272.8916096
272.7677549
273.0634203
272.9975136
273.1243098
272.8141399
273.3496927
273.3579084
273.2520365
273.1553425
272.8105218
273.1276083
273.1202048
273.1732385
272.957485
273.1973303
273.1542172
272.8958372
272.5721708
272.696512
272.6509753
272.6938
272.8798706
272.9630476
272.7891775
272.9664947
272.7225293
272.8464525
272.7724099
273.106223
272.8813095
272.570872
272.9977821
272.6947599
272.5603592
272.9119659
272.9363731
273.2666757
273.4801826
272.8648494
272.9512905
273.0310141
273.224956
273.1807869
272.7957777
272.6630519
273.257167
272.7593321
272.623757
272.5406553
272.9312754
272.8092595
272.6871777
273.1107564
273.1099114
273.1790515
273.0905287
272.8338673
272.1501849
271.997824
272.518488
272.1786037
272.4403392
272.2018614
272.8001758
272.2985345
272.6433862
272.3818532
272.0942337
272.9627666
272.902994
272.5177404
272.4344561
272.2710107
272.5194394
272.7408933
272.6634317
272.6472384
272.3480693
271.9717589
272.4936493
272.4589879
272.6970053
272.1862353
272.8123242
272.9224648
272.7972531
272.5362823
272.7043386
272.9240248
272.786115
272.887005
273.1148754
272.9408459
273.1317733
273.0731605
272.872562
272.7405599
272.8261895
272.8864963
272.899601
272.8433302
272.6056941
272.7019244
273.0562974
272.9403091
272.9132574
273.0154619
273.2104373
273.6571888
273.3005933
273.5316265
273.2298752
273.5551128
273.343461
273.0689555
272.5155041
272.9389883
272.9906875
272.96434
273.1129997
273.3219066
273.2454971
273.4013956
273.5013926
273.4986646
273.6480723
273.3689204
273.4457748
273.3696809
273.1517882
273.2669119
273.0122273
273.2002533
273.606746
273.5072275
274.0077892
273.5037244
273.5098381
273.5236387
273.4509815
273.4705854
273.8713028
273.7931515
273.3889063
273.6123563
273.6651144
273.8363659
273.6343371
273.772269
273.7771055
273.4420832
273.7030661
273.7086651
273.6048462
273.2448503
273.6599713
273.3685022
273.30962
273.0395301
273.765221
273.0760668
273.3940959
273.3830945
273.791073
273.6059091
273.2605085
273.6315638
273.4758198
273.4938137
273.4672384
273.3995237
273.4207957
273.3154254
273.5623412
273.5913816
273.6079378
273.7599032
273.6451282
273.5265557
273.3880544
273.180383
273.4915838
273.2825163
273.4365273
273.1046603
273.1212554
273.2881871
273.5491678
273.6234204
273.2377637
273.1772616
273.2439278
273.178067
272.7515569
273.061181
273.2852842
273.1133713
273.2697394
273.151713
272.8260505
273.2377221
272.7768583
273.2428435
273.1467139
272.883378
272.8927806
272.9624693
273.0324753
272.77165
273.1718126
273.172066
273.3204477
273.3518163
273.2910709
273.1042648
273.1765206
272.7664165
272.6994882
272.4131356
272.5924102
273.1160825
272.8023091
272.9698508
273.0159115
273.0848527
273.1833232
272.8271385
272.5410392
272.493538
273.2635373
272.9554723
272.9811441
272.8572838
273.0728153
273.093806
273.2736805
273.266854
272.9679962
272.6430175
272.9329659
273.0874386
273.0458159
272.6136421
272.9162972
272.9550637
273.5346695
273.1020911
272.572593
272.5827506
272.6525311
272.7901305
273.0024671
273.3339704
273.155509
272.8952305
273.0417962
272.6818971
272.664506
272.778447
272.3562427
271.8883606
272.3491357
272.5310017
272.5182754
272.8727201
272.4572648
272.718724
272.8179021
273.0307773
273.1092608
272.7514874
272.7924876
272.4444549
272.4753579
272.3937118
272.6300553
272.6442373
272.327196
272.4617076
272.3773683
272.3605198
272.1286421
272.1811807
272.263692
272.9189411
273.0653118
272.7703999
272.6575014
272.7922226
272.9631802
273.1424089
273.0340026
273.1106137
273.1382677
272.862518
273.0544002
272.5007067
272.9603309
273.0733013
273.2303046
272.9031338
272.8420829
272.6053106
273.1724481
272.9984036
272.9397495
273.268335
272.9965673
272.8362156
273.2058962
273.6005909
273.4492074
273.6092426
273.0606601
273.2836784
272.8450829
272.6426375
273.0679327
272.9258589
272.97504
273.4171418
273.5564666
273.5978934
273.0991422
272.8943866
273.4101446
273.2145798
273.3174623
273.1433773
273.1745119
273.1652022
273.3659692
273.7302737
273.5755865
273.50345
273.4456027
273.4344291
273.4765617
274.0185052
273.5239879
273.8546777
273.6821266
273.8609078
273.7408663
273.7280091
273.6355128
273.4212679
273.3971484
273.4501755
273.4509828
273.6501811
273.8412787
273.4970138
273.8934197
273.3702615
273.7794216
273.56378
273.4164463
273.5699976
273.0751325
273.2625874
273.2729299
273.3861373
273.5076713
273.6879996
273.3331766
273.1864649
272.9627985
273.074621
273.3100948
273.9255353
273.5423748
273.5259152
273.383211
273.5616797
273.8456268
273.7412463
273.3831566
273.4254911
273.1030124
273.7153251
273.5316149
272.9648498
273.2035721
273.2799147
273.2743633
272.7764814
273.2923451
273.1844472
273.1475127
272.8034723
273.1257605
273.0219143
273.1027278
273.3788727
272.9056576
273.2821063
272.7613749
273.2218214
273.0800467
273.2455333
272.8746404
273.4719712
273.7770836
273.4982279
273.1240176
273.1612946
272.7511199
272.781409
273.1395383
273.3344499
273.6886324
273.4621774
272.6019736
273.0410517
272.8989943
272.6068145
272.5273502
272.7094043
272.5705042
272.4683251
272.6593942
272.6711813
272.8439451
273.1233063
273.0356376
272.4075193
272.7701947
272.3067973
272.7088609
272.9422405
272.6604638
272.5821559
273.2487682
272.6311288
272.7543309
272.7466862
273.0196369
272.68174
272.6321234
272.6817485
272.7214361
272.6210429
272.5872745
272.627497
272.9430104
272.9235096
273.0757149
273.0621108
272.5222733
273.0660844
272.876573
272.5998509
272.4772122
272.7917131
272.667367
273.3173632
273.1292589
272.6277094
272.2748281
272.0164069
272.36238
272.5661014
272.35089
272.4336051
272.991355
272.3207231
272.331412
273.0033765
272.8360188
272.8187972
272.3882407
272.8511823
272.5099755
272.4333517
272.5867233
272.7880146
272.3448927
272.5477289
272.8090173
272.2416772
272.360261
272.1804058
272.6302776
272.6152981
272.6489357
272.5095076
272.7909886
272.4384185
272.6310712
272.8284734
273.1322223
273.2248806
272.8167702
273.0767591
272.6893429
273.0270134
272.8683321
272.996541
272.872493
272.8148774
272.9397299
272.7283437
273.1132844
272.7029713
272.9155007
272.7141198
272.8093104
273.0001249
273.3720107
273.623186
273.5260705
272.9235397
273.3301272
273.0124756
273.0717455
273.1478787
273.1579819
273.3168583
273.6781201
273.3761967
273.1153264
273.2121568
273.2972337
273.4247061
273.2139518
273.3236877
272.9465493
272.7416868
272.8855293
273.0646345
273.0609108
273.3952954
273.7959367
273.6222344
273.5282419
273.7315421
273.8430841
273.7307469
273.3708553
273.8670716
273.8761956
273.4939458
273.4055776
273.7843454
273.5428822
273.6068332
273.5129618
273.6364419
273.554722
273.751077
273.5932071
273.6706562
273.4073625
273.3173379
273.6475075
273.4768439
273.6083357
273.34364
273.4911399
273.303559
273.2385629
273.6741735
273.7276775
273.5406403
273.4838216
273.6285842
273.7817157
273.5674052
273.6140592
273.4333954
273.2453996
273.7311212
273.6120106
273.8489642
273.3525942
273.7856208
273.76757
273.2698383
273.657384
272.7923221
272.9700792
273.0581683
273.3427833
273.4905679
273.1010024
272.9934552
272.8727815
273.0125082
273.468713
273.0609531
273.2832613
273.1480617
273.102991
272.8456057
273.1515142
273.0219548
272.5360907
273.4751169
273.7218303
273.4552661
273.4107738
273.2218293
273.4880303
273.5724086
273.1040487
273.1195944
273.0519187
272.9063392
272.9177159
272.8082209
273.1944384
273.5051367
273.0405929
272.6667653
272.7777688
272.4074318
272.7208028
272.7651034
272.4907951
272.3367302
272.2159953
272.6992356
272.8673668
273.4206512
272.9263615
272.8136706
272.856641
272.7635609
272.9147895
272.6590178
272.6713039
272.7194012
272.444841
272.5287461
272.8517257
273.264531
272.9070591
272.4218304
272.4218526
272.8075315
272.8819901
272.8747909
272.9340658
272.9542703
272.5897621
272.4890222
272.7579406
)
;

boundaryField
{
    bottom
    {
        type            calculated;
        value           nonuniform List<scalar> 
200
(
272.4995858
272.6991648
272.6941808
272.8885089
272.6936758
273.0267095
272.6248821
272.6421961
272.5520766
272.3233803
272.3448148
272.6246396
272.8914488
272.783317
272.3001304
271.9548918
272.8746787
272.674993
272.4388976
272.403215
272.4892681
272.5682523
272.4615567
272.4118669
272.4330621
272.1839035
272.4399183
272.6432602
272.5767787
272.2550892
272.554624
272.5428475
272.3528988
272.4367743
272.1283569
272.5591032
272.6277648
272.5454095
272.6530094
272.7119435
272.6352317
272.9702302
272.901441
272.7249617
272.6633478
273.1498344
273.1760647
273.0199137
272.8978045
272.5828756
272.5271074
272.6854479
273.09098
272.5806025
272.7930796
272.4964653
272.9717981
273.0070058
272.9994131
273.1400674
273.0116907
272.7382662
272.8421683
272.7788854
273.3633414
273.445016
272.7238799
272.6306501
272.8945488
272.9367407
273.1715498
273.4194376
273.2212346
273.367839
273.4199095
273.3186975
273.2837404
273.0139744
273.5630338
273.5164891
273.3764576
273.3967377
273.2622389
273.3922915
273.5790366
273.3858172
273.5825498
273.8293371
273.7076064
273.5313302
273.2818604
273.2512446
273.8562374
273.8883266
274.0026202
273.7684659
274.051847
273.8591627
273.4337031
273.2467667
273.5234315
273.8866259
273.6767957
273.2745581
273.2308297
273.4401515
273.2745085
273.3348135
273.4827347
273.2132519
273.2399354
273.1962137
273.2133275
273.6071828
273.3886272
273.4440726
273.8476091
273.4531483
273.7266685
273.8944724
273.7413484
274.0491026
273.8251935
273.5831411
273.5979148
273.6128642
273.5976518
273.7504802
273.595054
273.427355
273.1601005
272.9386582
273.3044853
273.3972256
273.3463471
273.3709699
273.3804792
273.0320583
273.257513
273.2559889
273.4948676
273.1542964
273.2186899
273.7536795
273.1033148
273.2423345
273.4743694
273.6622961
273.5095122
272.9376967
272.7464112
273.2783203
273.2390399
273.1116843
273.3210032
272.7532695
273.1914822
273.4401246
273.4540206
273.1564414
272.741612
272.7675144
273.42488
273.138389
272.8474708
273.2390738
272.9813038
273.2036963
272.698613
273.1279293
272.5499742
273.2314835
272.4781247
272.5271322
273.1924862
272.5653193
272.3840903
272.8144665
273.3350558
273.0554766
272.7911075
272.6323984
273.0155774
272.7578475
272.5590557
272.6761014
272.4744226
272.9083608
273.2721527
272.9556203
272.8201277
273.177415
273.4533159
272.9315421
272.8153957
272.530165
272.2638348
272.3990985
272.7810843
272.8267879
)
;
    }
    top
    {
        type            calculated;
        value           nonuniform List<scalar> 
200
(
273.0621108
272.5222733
273.0660844
272.876573
272.5998509
272.4772122
272.7917131
272.667367
273.3173632
273.1292589
272.6277094
272.2748281
272.0164069
272.36238
272.5661014
272.35089
272.4336051
272.991355
272.3207231
272.331412
273.0033765
272.8360188
272.8187972
272.3882407
272.8511823
272.5099755
272.4333517
272.5867233
272.7880146
272.3448927
272.5477289
272.8090173
272.2416772
272.360261
272.1804058
272.6302776
272.6152981
272.6489357
272.5095076
272.7909886
272.4384185
272.6310712
272.8284734
273.1322223
273.2248806
272.8167702
273.0767591
272.6893429
273.0270134
272.8683321
272.996541
272.872493
272.8148774
272.9397299
272.7283437
273.1132844
272.7029713
272.9155007
272.7141198
272.8093104
273.0001249
273.3720107
273.623186
273.5260705
272.9235397
273.3301272
273.0124756
273.0717455
273.1478787
273.1579819
273.3168583
273.6781201
273.3761967
273.1153264
273.2121568
273.2972337
273.4247061
273.2139518
273.3236877
272.9465493
272.7416868
272.8855293
273.0646345
273.0609108
273.3952954
273.7959367
273.6222344
273.5282419
273.7315421
273.8430841
273.7307469
273.3708553
273.8670716
273.8761956
273.4939458
273.4055776
273.7843454
273.5428822
273.6068332
273.5129618
273.6364419
273.554722
273.751077
273.5932071
273.6706562
273.4073625
273.3173379
273.6475075
273.4768439
273.6083357
273.34364
273.4911399
273.303559
273.2385629
273.6741735
273.7276775
273.5406403
273.4838216
273.6285842
273.7817157
273.5674052
273.6140592
273.4333954
273.2453996
273.7311212
273.6120106
273.8489642
273.3525942
273.7856208
273.76757
273.2698383
273.657384
272.7923221
272.9700792
273.0581683
273.3427833
273.4905679
273.1010024
272.9934552
272.8727815
273.0125082
273.468713
273.0609531
273.2832613
273.1480617
273.102991
272.8456057
273.1515142
273.0219548
272.5360907
273.4751169
273.7218303
273.4552661
273.4107738
273.2218293
273.4880303
273.5724086
273.1040487
273.1195944
273.0519187
272.9063392
272.9177159
272.8082209
273.1944384
273.5051367
273.0405929
272.6667653
272.7777688
272.4074318
272.7208028
272.7651034
272.4907951
272.3367302
272.2159953
272.6992356
272.8673668
273.4206512
272.9263615
272.8136706
272.856641
272.7635609
272.9147895
272.6590178
272.6713039
272.7194012
272.444841
272.5287461
272.8517257
273.264531
272.9070591
272.4218304
272.4218526
272.8075315
272.8819901
272.8747909
272.9340658
272.9542703
272.5897621
272.4890222
272.7579406
)
;
    }
    inlet
    {
        type            cyclic;
    }
    outlet
    {
        type            cyclic;
    }
    back
    {
        type            symmetry;
    }
    front
    {
        type            symmetry;
    }
}


// ************************************************************************* //
