/*--------------------------------*- C++ -*----------------------------------*\
| =========                 |                                                 |
| \\      /  F ield         | OpenFOAM: The Open Source CFD Toolbox           |
|  \\    /   O peration     | Version:  v1706                                 |
|   \\  /    A nd           | Web:      www.OpenFOAM.com                      |
|    \\/     M anipulation  |                                                 |
\*---------------------------------------------------------------------------*/
FoamFile
{
    version     2.0;
    format      ascii;
    class       volScalarField;
    location    "0.27";
    object      rhoM_Ar;
}
// * * * * * * * * * * * * * * * * * * * * * * * * * * * * * * * * * * * * * //

dimensions      [1 -3 0 0 0 0 0];


internalField   nonuniform List<scalar> 
1000
(
9.2820663e-06
9.27359316e-06
9.28656586e-06
9.2769391e-06
9.3006303e-06
9.28916924e-06
9.28572164e-06
9.29906562e-06
9.2880554e-06
9.29992752e-06
9.31731138e-06
9.30565142e-06
9.30265908e-06
9.29275828e-06
9.29801808e-06
9.33151726e-06
9.29902142e-06
9.2962766e-06
9.29588322e-06
9.29851312e-06
9.31090238e-06
9.30472764e-06
9.29383676e-06
9.29121128e-06
9.29598488e-06
9.28820126e-06
9.28733494e-06
9.30167342e-06
9.31052668e-06
9.30219056e-06
9.2853813e-06
9.30083362e-06
9.30316296e-06
9.3112162e-06
9.30334418e-06
9.292608e-06
9.3079454e-06
9.28400226e-06
9.29274944e-06
9.28295914e-06
9.29120244e-06
9.2942876e-06
9.28103202e-06
9.29158698e-06
9.28121766e-06
9.28200442e-06
9.28839132e-06
9.28335252e-06
9.28567302e-06
9.29774404e-06
9.2817127e-06
9.28072704e-06
9.2688505e-06
9.289514e-06
9.29152068e-06
9.29324006e-06
9.27882644e-06
9.2730053e-06
9.27066712e-06
9.26430232e-06
9.274265e-06
9.2830166e-06
9.26955328e-06
9.29625892e-06
9.26944278e-06
9.27663854e-06
9.30337512e-06
9.29430086e-06
9.27213456e-06
9.27248816e-06
9.27204174e-06
9.262773e-06
9.27137432e-06
9.26181828e-06
9.24733394e-06
9.25425566e-06
9.27239534e-06
9.29297928e-06
9.26238846e-06
9.26091218e-06
9.2721876e-06
9.27568382e-06
9.28117788e-06
9.26241498e-06
9.2460654e-06
9.26295422e-06
9.26616756e-06
9.27293458e-06
9.2523197e-06
9.25906904e-06
9.2639664e-06
9.26798418e-06
9.27521972e-06
9.27708938e-06
9.24172496e-06
9.24662232e-06
9.26269344e-06
9.25141802e-06
9.24461564e-06
9.27106492e-06
9.26566368e-06
9.26828032e-06
9.26061162e-06
9.25780492e-06
9.28085522e-06
9.26888144e-06
9.26237078e-06
9.26606148e-06
9.25582918e-06
9.26646812e-06
9.28817032e-06
9.28638022e-06
9.28065632e-06
9.28232708e-06
9.27164836e-06
9.2588171e-06
9.25294292e-06
9.2781988e-06
9.2648725e-06
9.25505126e-06
9.25312414e-06
9.2593917e-06
9.26821402e-06
9.27833582e-06
9.27331028e-06
9.27152018e-06
9.25715076e-06
9.25741596e-06
9.25896296e-06
9.269403e-06
9.26970798e-06
9.27045938e-06
9.26132766e-06
9.26505372e-06
9.26692338e-06
9.25820714e-06
9.25041026e-06
9.29296602e-06
9.26970798e-06
9.26437746e-06
9.28420558e-06
9.28365308e-06
9.27646616e-06
9.27371692e-06
9.27181632e-06
9.27649268e-06
9.2782872e-06
9.28210166e-06
9.2746628e-06
9.27881318e-06
9.27685954e-06
9.27504734e-06
9.26942952e-06
9.28517356e-06
9.28736146e-06
9.29775288e-06
9.26846596e-06
9.26351556e-06
9.25979834e-06
9.28863442e-06
9.29141902e-06
9.3079896e-06
9.26780296e-06
9.27509154e-06
9.2932047e-06
9.2898676e-06
9.29026098e-06
9.28915598e-06
9.2859117e-06
9.26209232e-06
9.28442216e-06
9.27317768e-06
9.28002868e-06
9.28441774e-06
9.24820026e-06
9.29132178e-06
9.30210658e-06
9.28466968e-06
9.28068284e-06
9.2658449e-06
9.28103644e-06
9.29772194e-06
9.28307848e-06
9.29348758e-06
9.28895708e-06
9.29360692e-06
9.2950169e-06
9.28807308e-06
9.2804751e-06
9.28059444e-06
9.30104578e-06
9.31136206e-06
9.28650398e-06
9.29580366e-06
9.26347136e-06
9.29414174e-06
9.29979934e-06
9.29829654e-06
9.30466134e-06
9.2830387e-06
9.3032381e-06
9.29257264e-06
9.28335252e-06
9.29256822e-06
9.30307456e-06
9.28969964e-06
9.28448404e-06
9.29928662e-06
9.29896838e-06
9.29540144e-06
9.30383922e-06
9.3079012e-06
9.31375328e-06
9.28313152e-06
9.30512544e-06
9.29980376e-06
9.2927627e-06
9.30176624e-06
9.31001396e-06
9.31531354e-06
9.29047314e-06
9.26915548e-06
9.29298812e-06
9.28318456e-06
9.28620342e-06
9.27131244e-06
9.30963826e-06
9.3172053e-06
9.31467264e-06
9.3167412e-06
9.30382596e-06
9.32386624e-06
9.29994078e-06
9.3129621e-06
9.28512936e-06
9.2914809e-06
9.2953926e-06
9.28471388e-06
9.27657666e-06
9.28923112e-06
9.28772832e-06
9.2968954e-06
9.28506748e-06
9.28967754e-06
9.27480866e-06
9.27911816e-06
9.27819438e-06
9.2817348e-06
9.2892709e-06
9.2732705e-06
9.28382546e-06
9.28863884e-06
9.2902433e-06
9.28910736e-06
9.28612386e-06
9.29457932e-06
9.2899339e-06
9.27285502e-06
9.26165032e-06
9.25879058e-06
9.24722344e-06
9.26218072e-06
9.26710902e-06
9.27699214e-06
9.27967066e-06
9.26603938e-06
9.27937894e-06
9.2811602e-06
9.26954002e-06
9.26159728e-06
9.25612532e-06
9.26335202e-06
9.26968146e-06
9.26673332e-06
9.26560622e-06
9.27122846e-06
9.27257214e-06
9.27718662e-06
9.26911128e-06
9.27323514e-06
9.26905824e-06
9.26768804e-06
9.27533906e-06
9.26594656e-06
9.2477008e-06
9.25213406e-06
9.26380728e-06
9.26195972e-06
9.26864276e-06
9.26795766e-06
9.26559296e-06
9.26928366e-06
9.27232462e-06
9.24316146e-06
9.26009006e-06
9.26483714e-06
9.25913976e-06
9.25985138e-06
9.2562535e-06
9.2595243e-06
9.2690936e-06
9.25317276e-06
9.25036606e-06
9.26459846e-06
9.25729662e-06
9.26181828e-06
9.250618e-06
9.2553032e-06
9.27785846e-06
9.28379452e-06
9.26844828e-06
9.27500314e-06
9.26833336e-06
9.2677676e-06
9.25545348e-06
9.25316834e-06
9.25391974e-06
9.2775579e-06
9.26350672e-06
9.26422718e-06
9.26114644e-06
9.26032874e-06
9.25736292e-06
9.25798614e-06
9.27054778e-06
9.25706236e-06
9.26538522e-06
9.27063618e-06
9.25396394e-06
9.27056104e-06
9.27488822e-06
9.27876014e-06
9.26307798e-06
9.26766594e-06
9.27202848e-06
9.26050112e-06
9.27630704e-06
9.27706286e-06
9.26744936e-06
9.269182e-06
9.28348954e-06
9.28855928e-06
9.27259424e-06
9.25555514e-06
9.26382496e-06
9.26961958e-06
9.2871714e-06
9.27896788e-06
9.2739335e-06
9.26913338e-06
9.28865652e-06
9.28625204e-06
9.29518486e-06
9.28466084e-06
9.28977478e-06
9.2862432e-06
9.27179422e-06
9.25942706e-06
9.28820126e-06
9.27942756e-06
9.29469866e-06
9.28405088e-06
9.27807946e-06
9.27228484e-06
9.28186298e-06
9.28024968e-06
9.2778231e-06
9.28949632e-06
9.27779658e-06
9.30059052e-06
9.2840553e-06
9.29452628e-06
9.29465446e-06
9.28062538e-06
9.28497466e-06
9.29449976e-06
9.29095934e-06
9.29662136e-06
9.28894824e-06
9.27871594e-06
9.2885637e-06
9.28930626e-06
9.27787172e-06
9.29653296e-06
9.30631884e-06
9.28695482e-06
9.28959356e-06
9.27946292e-06
9.28695924e-06
9.2683643e-06
9.29741254e-06
9.28651724e-06
9.29293508e-06
9.2862653e-06
9.27291248e-06
9.27257214e-06
9.27775238e-06
9.27681534e-06
9.28948306e-06
9.295039e-06
9.29133504e-06
9.29647992e-06
9.29233838e-06
9.28700786e-06
9.2855802e-06
9.26959306e-06
9.2745081e-06
9.28367076e-06
9.28945654e-06
9.30186348e-06
9.32378226e-06
9.31504834e-06
9.32077666e-06
9.30832552e-06
9.30198282e-06
9.29995404e-06
9.30307014e-06
9.31024822e-06
9.31145488e-06
9.29953414e-06
9.2837901e-06
9.28156684e-06
9.30134634e-06
9.29041568e-06
9.30004686e-06
9.30550556e-06
9.2960998e-06
9.30948356e-06
9.27626284e-06
9.29641362e-06
9.31311238e-06
9.29905236e-06
9.29933966e-06
9.28890404e-06
9.29887556e-06
9.30486024e-06
9.28517356e-06
9.2802541e-06
9.29002672e-06
9.31228142e-06
9.2835249e-06
9.28191602e-06
9.28302544e-06
9.29493292e-06
9.28297682e-06
9.28299008e-06
9.27421638e-06
9.28923112e-06
9.29673628e-06
9.28019222e-06
9.28550506e-06
9.28760898e-06
9.28696366e-06
9.30581938e-06
9.3018016e-06
9.28603988e-06
9.2986192e-06
9.2759888e-06
9.27137432e-06
9.2650051e-06
9.28201326e-06
9.2726959e-06
9.26477084e-06
9.27459208e-06
9.26671122e-06
9.27291248e-06
9.27469374e-06
9.29205992e-06
9.26597308e-06
9.28203094e-06
9.26315754e-06
9.25736292e-06
9.2537783e-06
9.25873754e-06
9.26595982e-06
9.27442412e-06
9.26548688e-06
9.25669108e-06
9.2813812e-06
9.25739828e-06
9.27548934e-06
9.27979884e-06
9.26712228e-06
9.2636128e-06
9.26299842e-06
9.26883724e-06
9.25252302e-06
9.24691404e-06
9.27279314e-06
9.25759276e-06
9.26295864e-06
9.25294734e-06
9.26004586e-06
9.25516618e-06
9.2516567e-06
9.2790828e-06
9.25813642e-06
9.27031794e-06
9.25006992e-06
9.2537783e-06
9.26485482e-06
9.26406364e-06
9.26083704e-06
9.245756e-06
9.24987544e-06
9.27725292e-06
9.28901896e-06
9.26788252e-06
9.2748838e-06
9.2757457e-06
9.26513328e-06
9.27096768e-06
9.26879304e-06
9.27115332e-06
9.26664934e-06
9.26049228e-06
9.26308682e-06
9.27506944e-06
9.2561209e-06
9.26820076e-06
9.25658058e-06
9.25403908e-06
9.26536312e-06
9.2730495e-06
9.28035134e-06
9.27520204e-06
9.2804972e-06
9.26835988e-06
9.2567397e-06
9.27996238e-06
9.27166162e-06
9.27719546e-06
9.28064748e-06
9.27337216e-06
9.28148728e-06
9.26676426e-06
9.28384756e-06
9.28683548e-06
9.27505618e-06
9.2739998e-06
9.27381416e-06
9.28616364e-06
9.2840111e-06
9.2910831e-06
9.28421442e-06
9.30291102e-06
9.27920214e-06
9.26842618e-06
9.27286828e-06
9.2589276e-06
9.28713162e-06
9.28798468e-06
9.29264336e-06
9.29183892e-06
9.28216796e-06
9.27369482e-06
9.28052814e-06
9.28017012e-06
9.28853276e-06
9.28532826e-06
9.29070298e-06
9.28930626e-06
9.26864276e-06
9.28828966e-06
9.27758e-06
9.27801758e-06
9.27315116e-06
9.2684748e-06
9.28939908e-06
9.29719154e-06
9.29451302e-06
9.286199e-06
9.28958914e-06
9.28912946e-06
9.270508e-06
9.27734132e-06
9.26135418e-06
9.27613024e-06
9.27816786e-06
9.29683794e-06
9.29457932e-06
9.28463874e-06
9.28517798e-06
9.28190276e-06
9.276254e-06
9.29473844e-06
9.2624415e-06
9.2715246e-06
9.2864863e-06
9.28252156e-06
9.29015932e-06
9.28090384e-06
9.2790165e-06
9.27370366e-06
9.29571526e-06
9.2960777e-06
9.28769738e-06
9.2647178e-06
9.28597358e-06
9.30952776e-06
9.27412798e-06
9.28077566e-06
9.2894477e-06
9.28550948e-06
9.28339672e-06
9.28206188e-06
9.27847284e-06
9.28974826e-06
9.29102564e-06
9.3077023e-06
9.30968688e-06
9.30727798e-06
9.31317426e-06
9.30621276e-06
9.29716944e-06
9.29315608e-06
9.29627218e-06
9.28462106e-06
9.30718958e-06
9.30231874e-06
9.28092152e-06
9.3016911e-06
9.2853371e-06
9.2856023e-06
9.30892222e-06
9.30335302e-06
9.30406464e-06
9.29618378e-06
9.29716502e-06
9.30930234e-06
9.28761782e-06
9.29606002e-06
9.29069856e-06
9.30530224e-06
9.3080559e-06
9.2964092e-06
9.28115578e-06
9.27914468e-06
9.29683794e-06
9.28805098e-06
9.29169748e-06
9.28537246e-06
9.27441528e-06
9.26632668e-06
9.28216354e-06
9.2814696e-06
9.27422522e-06
9.285315e-06
9.30285356e-06
9.3024867e-06
9.27134338e-06
9.27164394e-06
9.29100354e-06
9.32000316e-06
9.28245526e-06
9.25526342e-06
9.28398458e-06
9.28760898e-06
9.26173872e-06
9.26740516e-06
9.28515588e-06
9.28397132e-06
9.25998398e-06
9.26502278e-06
9.2784861e-06
9.27515342e-06
9.26976544e-06
9.2933594e-06
9.28362656e-06
9.28107622e-06
9.25349984e-06
9.27712032e-06
9.26105362e-06
9.26676426e-06
9.26900962e-06
9.2810276e-06
9.26914664e-06
9.27146272e-06
9.29030076e-06
9.28106296e-06
9.27610372e-06
9.25475512e-06
9.2608282e-06
9.25729662e-06
9.26802396e-06
9.2486511e-06
9.25850328e-06
9.2549054e-06
9.2671046e-06
9.2595464e-06
9.24537146e-06
9.25236832e-06
9.25444572e-06
9.25310204e-06
9.24815606e-06
9.25160366e-06
9.25887456e-06
9.26024034e-06
9.25663804e-06
9.26805048e-06
9.25454738e-06
9.262994e-06
9.26969914e-06
9.25033954e-06
9.27623632e-06
9.25983812e-06
9.27399538e-06
9.25615626e-06
9.26633994e-06
9.26697642e-06
9.2685411e-06
9.27979884e-06
9.26231332e-06
9.26926156e-06
9.28890846e-06
9.27299204e-06
9.2757015e-06
9.26749356e-06
9.2746628e-06
9.278685e-06
9.26201276e-06
9.2623531e-06
9.25051192e-06
9.27419428e-06
9.26979196e-06
9.26621176e-06
9.27739878e-06
9.26324594e-06
9.2569386e-06
9.276917e-06
9.26534986e-06
9.29076486e-06
9.27728828e-06
9.27370366e-06
9.28389618e-06
9.29457048e-06
9.28258786e-06
9.28559788e-06
9.29279364e-06
9.27635566e-06
9.27137432e-06
9.28558462e-06
9.29249308e-06
9.28155358e-06
9.28927974e-06
9.28930626e-06
9.26601728e-06
9.27801316e-06
9.28171712e-06
9.27613908e-06
9.28488184e-06
9.28882448e-06
9.28846204e-06
9.28715814e-06
9.27584736e-06
9.24861132e-06
9.2727401e-06
9.28065632e-06
9.28623878e-06
9.29662578e-06
9.30411326e-06
9.27273568e-06
9.28130606e-06
9.269182e-06
9.2726517e-06
9.27686396e-06
9.28437354e-06
9.28226962e-06
9.2858896e-06
9.30108998e-06
9.31400522e-06
9.29506552e-06
9.2877902e-06
9.28647746e-06
9.2957241e-06
9.2724528e-06
9.27595786e-06
9.27456556e-06
9.28173038e-06
9.27413682e-06
9.29609538e-06
9.2926522e-06
9.2821547e-06
9.29061458e-06
9.26937648e-06
9.29064552e-06
9.3009176e-06
9.29862804e-06
9.28573048e-06
9.29228976e-06
9.29751862e-06
9.27812366e-06
9.28227846e-06
9.2905306e-06
9.29436716e-06
9.30509892e-06
9.3012049e-06
9.2926743e-06
9.28236244e-06
9.2860001e-06
9.2910831e-06
9.28298566e-06
9.2724749e-06
9.2951716e-06
9.29015932e-06
9.30429448e-06
9.28634044e-06
9.27827836e-06
9.2702428e-06
9.2899781e-06
9.29185218e-06
9.30142148e-06
9.3061553e-06
9.31365604e-06
9.28766202e-06
9.30022366e-06
9.30931118e-06
9.2893151e-06
9.30406022e-06
9.29677164e-06
9.29057038e-06
9.2852266e-06
9.2721213e-06
9.28673382e-06
9.2967849e-06
9.30274748e-06
9.30596966e-06
9.29904352e-06
9.29981702e-06
9.31528702e-06
9.2949506e-06
9.30033416e-06
9.30021924e-06
9.28820568e-06
9.306531e-06
9.288851e-06
9.29153836e-06
9.28208398e-06
9.28006846e-06
9.27014556e-06
9.28048394e-06
9.28495256e-06
9.2781988e-06
9.29488872e-06
9.2775579e-06
9.29031402e-06
9.2682759e-06
9.27812808e-06
9.29678048e-06
9.28114252e-06
9.28064306e-06
9.27091906e-06
9.28420558e-06
9.28280444e-06
9.29503016e-06
9.26626038e-06
9.28189392e-06
9.28519124e-06
9.28580562e-06
9.27993144e-06
9.26790462e-06
9.26426254e-06
9.26556202e-06
9.2551043e-06
9.27948502e-06
9.2593033e-06
9.26112434e-06
9.27569708e-06
9.28178342e-06
9.27778332e-06
9.27724408e-06
9.26036852e-06
9.26993782e-06
9.26731234e-06
9.27147156e-06
9.26508908e-06
9.2738451e-06
9.26896984e-06
9.26870022e-06
9.28958914e-06
9.27903418e-06
9.26457636e-06
9.26710902e-06
9.28663658e-06
9.2725854e-06
9.24753284e-06
9.24722786e-06
9.25990442e-06
9.2643421e-06
9.2448278e-06
9.2674803e-06
9.2631487e-06
9.25337608e-06
9.25809664e-06
9.26131882e-06
9.26715764e-06
9.2579994e-06
9.26268018e-06
9.24575158e-06
9.2573806e-06
9.241336e-06
9.25677948e-06
9.25751762e-06
9.25874196e-06
9.27866732e-06
9.26123042e-06
9.2743755e-06
9.26824054e-06
9.25954198e-06
9.2784419e-06
9.27361526e-06
9.27349592e-06
9.26259178e-06
9.26844828e-06
9.25467114e-06
9.26473548e-06
9.26559296e-06
9.28839574e-06
9.27972812e-06
9.27923308e-06
9.28015686e-06
9.26049228e-06
9.25680158e-06
9.26740958e-06
9.25330536e-06
9.25946242e-06
9.25591316e-06
9.25242136e-06
9.25283684e-06
9.2571154e-06
9.28470504e-06
9.28053256e-06
9.28466526e-06
9.26832894e-06
9.27754022e-06
9.2766518e-06
9.28519124e-06
9.28894824e-06
9.2760993e-06
9.29038032e-06
9.2754142e-06
9.27577222e-06
9.2748175e-06
9.27146272e-06
9.28232708e-06
9.28053256e-06
9.27422522e-06
9.27020302e-06
9.26325478e-06
9.28423652e-06
9.26273764e-06
9.25384902e-06
9.28658354e-06
9.27806178e-06
9.28139888e-06
9.28748964e-06
9.27049032e-06
9.27434456e-06
9.28636254e-06
9.3061995e-06
9.28641558e-06
9.28713604e-06
9.28338346e-06
9.28083312e-06
9.26802838e-06
9.28043532e-06
9.29096818e-06
9.27713358e-06
9.28855928e-06
9.26722836e-06
9.27713358e-06
9.28633602e-06
9.30541716e-06
9.29377488e-06
9.29046872e-06
9.28559788e-06
9.28089942e-06
9.29836726e-06
9.28688852e-06
9.28543876e-06
9.28700786e-06
9.2943981e-06
9.2839448e-06
9.28840016e-06
9.30261488e-06
9.29918496e-06
9.30563374e-06
9.2917903e-06
9.2850056e-06
9.28132816e-06
9.30145684e-06
9.2774474e-06
9.27927286e-06
9.28743218e-06
9.2936467e-06
9.2837901e-06
9.28507632e-06
9.29661694e-06
9.296586e-06
9.2903538e-06
)
;

boundaryField
{
    bottom
    {
        type            calculated;
        value           nonuniform List<scalar> 
200
(
9.2820663e-06
9.27359316e-06
9.28656586e-06
9.2769391e-06
9.3006303e-06
9.28916924e-06
9.28572164e-06
9.29906562e-06
9.2880554e-06
9.29992752e-06
9.31731138e-06
9.30565142e-06
9.30265908e-06
9.29275828e-06
9.29801808e-06
9.33151726e-06
9.29902142e-06
9.2962766e-06
9.29588322e-06
9.29851312e-06
9.31090238e-06
9.30472764e-06
9.29383676e-06
9.29121128e-06
9.29598488e-06
9.28820126e-06
9.28733494e-06
9.30167342e-06
9.31052668e-06
9.30219056e-06
9.2853813e-06
9.30083362e-06
9.30316296e-06
9.3112162e-06
9.30334418e-06
9.292608e-06
9.3079454e-06
9.28400226e-06
9.29274944e-06
9.28295914e-06
9.29120244e-06
9.2942876e-06
9.28103202e-06
9.29158698e-06
9.28121766e-06
9.28200442e-06
9.28839132e-06
9.28335252e-06
9.28567302e-06
9.29774404e-06
9.2817127e-06
9.28072704e-06
9.2688505e-06
9.289514e-06
9.29152068e-06
9.29324006e-06
9.27882644e-06
9.2730053e-06
9.27066712e-06
9.26430232e-06
9.274265e-06
9.2830166e-06
9.26955328e-06
9.29625892e-06
9.26944278e-06
9.27663854e-06
9.30337512e-06
9.29430086e-06
9.27213456e-06
9.27248816e-06
9.27204174e-06
9.262773e-06
9.27137432e-06
9.26181828e-06
9.24733394e-06
9.25425566e-06
9.27239534e-06
9.29297928e-06
9.26238846e-06
9.26091218e-06
9.2721876e-06
9.27568382e-06
9.28117788e-06
9.26241498e-06
9.2460654e-06
9.26295422e-06
9.26616756e-06
9.27293458e-06
9.2523197e-06
9.25906904e-06
9.2639664e-06
9.26798418e-06
9.27521972e-06
9.27708938e-06
9.24172496e-06
9.24662232e-06
9.26269344e-06
9.25141802e-06
9.24461564e-06
9.27106492e-06
9.26566368e-06
9.26828032e-06
9.26061162e-06
9.25780492e-06
9.28085522e-06
9.26888144e-06
9.26237078e-06
9.26606148e-06
9.25582918e-06
9.26646812e-06
9.28817032e-06
9.28638022e-06
9.28065632e-06
9.28232708e-06
9.27164836e-06
9.2588171e-06
9.25294292e-06
9.2781988e-06
9.2648725e-06
9.25505126e-06
9.25312414e-06
9.2593917e-06
9.26821402e-06
9.27833582e-06
9.27331028e-06
9.27152018e-06
9.25715076e-06
9.25741596e-06
9.25896296e-06
9.269403e-06
9.26970798e-06
9.27045938e-06
9.26132766e-06
9.26505372e-06
9.26692338e-06
9.25820714e-06
9.25041026e-06
9.29296602e-06
9.26970798e-06
9.26437746e-06
9.28420558e-06
9.28365308e-06
9.27646616e-06
9.27371692e-06
9.27181632e-06
9.27649268e-06
9.2782872e-06
9.28210166e-06
9.2746628e-06
9.27881318e-06
9.27685954e-06
9.27504734e-06
9.26942952e-06
9.28517356e-06
9.28736146e-06
9.29775288e-06
9.26846596e-06
9.26351556e-06
9.25979834e-06
9.28863442e-06
9.29141902e-06
9.3079896e-06
9.26780296e-06
9.27509154e-06
9.2932047e-06
9.2898676e-06
9.29026098e-06
9.28915598e-06
9.2859117e-06
9.26209232e-06
9.28442216e-06
9.27317768e-06
9.28002868e-06
9.28441774e-06
9.24820026e-06
9.29132178e-06
9.30210658e-06
9.28466968e-06
9.28068284e-06
9.2658449e-06
9.28103644e-06
9.29772194e-06
9.28307848e-06
9.29348758e-06
9.28895708e-06
9.29360692e-06
9.2950169e-06
9.28807308e-06
9.2804751e-06
9.28059444e-06
9.30104578e-06
9.31136206e-06
9.28650398e-06
9.29580366e-06
9.26347136e-06
9.29414174e-06
9.29979934e-06
9.29829654e-06
9.30466134e-06
9.2830387e-06
)
;
    }
    top
    {
        type            calculated;
        value           nonuniform List<scalar> 
200
(
9.2910831e-06
9.28298566e-06
9.2724749e-06
9.2951716e-06
9.29015932e-06
9.30429448e-06
9.28634044e-06
9.27827836e-06
9.2702428e-06
9.2899781e-06
9.29185218e-06
9.30142148e-06
9.3061553e-06
9.31365604e-06
9.28766202e-06
9.30022366e-06
9.30931118e-06
9.2893151e-06
9.30406022e-06
9.29677164e-06
9.29057038e-06
9.2852266e-06
9.2721213e-06
9.28673382e-06
9.2967849e-06
9.30274748e-06
9.30596966e-06
9.29904352e-06
9.29981702e-06
9.31528702e-06
9.2949506e-06
9.30033416e-06
9.30021924e-06
9.28820568e-06
9.306531e-06
9.288851e-06
9.29153836e-06
9.28208398e-06
9.28006846e-06
9.27014556e-06
9.28048394e-06
9.28495256e-06
9.2781988e-06
9.29488872e-06
9.2775579e-06
9.29031402e-06
9.2682759e-06
9.27812808e-06
9.29678048e-06
9.28114252e-06
9.28064306e-06
9.27091906e-06
9.28420558e-06
9.28280444e-06
9.29503016e-06
9.26626038e-06
9.28189392e-06
9.28519124e-06
9.28580562e-06
9.27993144e-06
9.26790462e-06
9.26426254e-06
9.26556202e-06
9.2551043e-06
9.27948502e-06
9.2593033e-06
9.26112434e-06
9.27569708e-06
9.28178342e-06
9.27778332e-06
9.27724408e-06
9.26036852e-06
9.26993782e-06
9.26731234e-06
9.27147156e-06
9.26508908e-06
9.2738451e-06
9.26896984e-06
9.26870022e-06
9.28958914e-06
9.27903418e-06
9.26457636e-06
9.26710902e-06
9.28663658e-06
9.2725854e-06
9.24753284e-06
9.24722786e-06
9.25990442e-06
9.2643421e-06
9.2448278e-06
9.2674803e-06
9.2631487e-06
9.25337608e-06
9.25809664e-06
9.26131882e-06
9.26715764e-06
9.2579994e-06
9.26268018e-06
9.24575158e-06
9.2573806e-06
9.241336e-06
9.25677948e-06
9.25751762e-06
9.25874196e-06
9.27866732e-06
9.26123042e-06
9.2743755e-06
9.26824054e-06
9.25954198e-06
9.2784419e-06
9.27361526e-06
9.27349592e-06
9.26259178e-06
9.26844828e-06
9.25467114e-06
9.26473548e-06
9.26559296e-06
9.28839574e-06
9.27972812e-06
9.27923308e-06
9.28015686e-06
9.26049228e-06
9.25680158e-06
9.26740958e-06
9.25330536e-06
9.25946242e-06
9.25591316e-06
9.25242136e-06
9.25283684e-06
9.2571154e-06
9.28470504e-06
9.28053256e-06
9.28466526e-06
9.26832894e-06
9.27754022e-06
9.2766518e-06
9.28519124e-06
9.28894824e-06
9.2760993e-06
9.29038032e-06
9.2754142e-06
9.27577222e-06
9.2748175e-06
9.27146272e-06
9.28232708e-06
9.28053256e-06
9.27422522e-06
9.27020302e-06
9.26325478e-06
9.28423652e-06
9.26273764e-06
9.25384902e-06
9.28658354e-06
9.27806178e-06
9.28139888e-06
9.28748964e-06
9.27049032e-06
9.27434456e-06
9.28636254e-06
9.3061995e-06
9.28641558e-06
9.28713604e-06
9.28338346e-06
9.28083312e-06
9.26802838e-06
9.28043532e-06
9.29096818e-06
9.27713358e-06
9.28855928e-06
9.26722836e-06
9.27713358e-06
9.28633602e-06
9.30541716e-06
9.29377488e-06
9.29046872e-06
9.28559788e-06
9.28089942e-06
9.29836726e-06
9.28688852e-06
9.28543876e-06
9.28700786e-06
9.2943981e-06
9.2839448e-06
9.28840016e-06
9.30261488e-06
9.29918496e-06
9.30563374e-06
9.2917903e-06
9.2850056e-06
9.28132816e-06
9.30145684e-06
9.2774474e-06
9.27927286e-06
9.28743218e-06
9.2936467e-06
9.2837901e-06
9.28507632e-06
9.29661694e-06
9.296586e-06
9.2903538e-06
)
;
    }
    inlet
    {
        type            cyclic;
    }
    outlet
    {
        type            cyclic;
    }
    back
    {
        type            symmetry;
    }
    front
    {
        type            symmetry;
    }
}


// ************************************************************************* //
