/*--------------------------------*- C++ -*----------------------------------*\
| =========                 |                                                 |
| \\      /  F ield         | OpenFOAM: The Open Source CFD Toolbox           |
|  \\    /   O peration     | Version:  v1706                                 |
|   \\  /    A nd           | Web:      www.OpenFOAM.com                      |
|    \\/     M anipulation  |                                                 |
\*---------------------------------------------------------------------------*/
FoamFile
{
    version     2.0;
    format      ascii;
    class       volScalarField;
    location    "0.27";
    object      variableHardSphereMeanFreePath_Ar;
}
// * * * * * * * * * * * * * * * * * * * * * * * * * * * * * * * * * * * * * //

dimensions      [0 1 0 0 0 0 0];


internalField   nonuniform List<scalar> 
1000
(
0.009512032813
0.009522884892
0.009509528191
0.009521498754
0.009495142405
0.009510455329
0.009509643474
0.009496184268
0.00950646689
0.009491860739
0.009474382374
0.00948927419
0.009495205437
0.009504154176
0.009493558709
0.009455758268
0.009498738878
0.009499387475
0.009497238835
0.009494167214
0.009482462524
0.009489607758
0.009499574999
0.009501722106
0.009497071913
0.009502334889
0.009505991357
0.009493533421
0.009483789143
0.00948881378
0.009509232213
0.0094933065
0.0094888785
0.00948157662
0.009486267854
0.009501885455
0.009486969234
0.009510545031
0.009502755553
0.009513415035
0.009504145664
0.009504608334
0.009517439603
0.009504721861
0.009514674429
0.009519126858
0.00951286447
0.009516340916
0.00951264347
0.009496893411
0.009512693001
0.009515416492
0.009531999185
0.009505282606
0.009505525556
0.00950056226
0.009520462662
0.009526820028
0.009529140656
0.009537210154
0.009525576697
0.009513640796
0.009528583654
0.009500527404
0.009534335952
0.009527822602
0.009492666926
0.009500927792
0.00952649787
0.009526591135
0.009529589872
0.009541808189
0.009530813194
0.009542233462
0.009557744007
0.009549499195
0.009530439515
0.009506418662
0.009543757594
0.009544775475
0.0095316553
0.009528281708
0.009521188868
0.00954188331
0.009560779572
0.009541257786
0.009540076254
0.009535779277
0.009555708467
0.009546836067
0.009539090565
0.009534624102
0.00953372026
0.009532145102
0.009569858492
0.009562255315
0.009548726409
0.009558279907
0.009560703896
0.009531407361
0.009539955907
0.009541186587
0.009546819147
0.009545360183
0.0095211806
0.009535743821
0.009540654288
0.009537506578
0.009549651785
0.009535772984
0.009513780273
0.009515142172
0.00952119558
0.009523733832
0.009532341203
0.009546151616
0.009556579699
0.009526308189
0.009542967639
0.009554909501
0.009555242855
0.009552101668
0.00954059136
0.009527571113
0.009532894024
0.009534896088
0.009549532042
0.009550911727
0.009547634868
0.009535068941
0.00953186521
0.00952869672
0.009542053327
0.009539219096
0.009536744255
0.009545989278
0.009554138317
0.009506627424
0.009532918829
0.00953838737
0.009520595004
0.009517484576
0.009525554241
0.009534158067
0.00952908356
0.009525782548
0.009526446595
0.009524559793
0.009530549021
0.00952010755
0.009520043141
0.00952765591
0.009533005413
0.009515465839
0.009515483861
0.009498724326
0.009533482027
0.009541267097
0.00954524768
0.009512403664
0.009505073562
0.009488431453
0.009536688362
0.009526097879
0.009504390449
0.009512032786
0.009508847435
0.009512379648
0.009510246022
0.009539354379
0.009510164281
0.009529070537
0.009513889086
0.009509921721
0.009554383754
0.009503268011
0.009490293
0.009512770707
0.009522483218
0.00953470682
0.009516242061
0.009497450823
0.009516574986
0.009503133266
0.009505619551
0.009502128241
0.009498507927
0.00951029942
0.009522016964
0.009518474084
0.009496082915
0.009489411173
0.009517790355
0.00950264067
0.009534549586
0.009500004734
0.009491348115
0.009494343877
0.00949197183
0.009514575258
0.009493670098
0.00950433872
0.009514978755
0.009504071482
0.009489198849
0.009509648852
0.009514162851
0.00949416366
0.009496083787
0.00949767384
0.00948522973
0.009484503429
0.009478970923
0.0095114746
0.009485300406
0.00948818686
0.009500943352
0.009490621359
0.009484356286
0.009477242242
0.009500832431
0.009529818151
0.009502444168
0.009510414734
0.009510113924
0.009526624631
0.009483511937
0.009475017052
0.00947786353
0.009472332919
0.009486172081
0.009465909911
0.009490798317
0.009478873759
0.009510016351
0.009501084622
0.009501506918
0.009511808012
0.009520915751
0.009505600102
0.009512284188
0.009498706908
0.009514049545
0.009506635223
0.009526291308
0.009519375458
0.009521323162
0.009516686887
0.009504085795
0.009524285808
0.009511526096
0.009506491536
0.009508790658
0.00950697307
0.009506991774
0.009503011384
0.009510858146
0.009525763078
0.009539659761
0.009543961288
0.009559166719
0.009540473709
0.009535258435
0.009525509777
0.009525239104
0.009534335051
0.009521190066
0.009518949292
0.00952951281
0.009543594334
0.009548800069
0.009543328059
0.009534209055
0.00953367996
0.009538544634
0.009535238681
0.009535363322
0.00952828133
0.009537695404
0.009528460151
0.009536211388
0.009535894756
0.009529344963
0.009537466882
0.009558097135
0.009552832465
0.009539381393
0.00954567589
0.009537921423
0.009537692739
0.009541075412
0.009532019061
0.009530904652
0.009566956841
0.009546422382
0.009541918883
0.009549156054
0.009551339709
0.009546705875
0.009547608869
0.009538020667
0.009556798927
0.009559886755
0.009540178441
0.009550066351
0.009545928306
0.009552341632
0.009549238267
0.009521898983
0.009515962401
0.009534647928
0.009529053995
0.009534929701
0.009537546629
0.009548551654
0.009554949188
0.009553358746
0.009530464698
0.009543063731
0.009546564303
0.009545581782
0.00954399749
0.009550303955
0.009550761023
0.009535866656
0.009551298328
0.00953998473
0.009536610337
0.009552726506
0.009533372652
0.009528520533
0.009523500755
0.009539607701
0.009536083962
0.009532600269
0.009549748565
0.009525865028
0.009528766656
0.009537405202
0.009536073135
0.009520298431
0.009509127546
0.009529595813
0.009551350118
0.009542930202
0.009532690398
0.009515435554
0.009524450647
0.009529524377
0.009532223582
0.009511299503
0.009511983395
0.009501505001
0.00951546996
0.009509520146
0.009514506143
0.009525977268
0.009544501301
0.009515021753
0.009522874569
0.009506185529
0.009513362108
0.009522913565
0.009528784741
0.009519524752
0.009518847852
0.009523930243
0.009511497073
0.009520698008
0.009493871268
0.009512124932
0.009500916933
0.009501248486
0.009517623399
0.009514063962
0.009502436701
0.009507972793
0.009499548524
0.009508734628
0.009518419707
0.00951193392
0.0095087447
0.009517104929
0.00950261003
0.00948935014
0.00950768305
0.009508781755
0.00951942665
0.009515309587
0.009536708646
0.009500276509
0.009512356569
0.009506647806
0.009515570247
0.009528794912
0.009524979341
0.009518224998
0.009525611519
0.009507245928
0.009500098839
0.009502987861
0.009501946534
0.009504863852
0.009508999897
0.00951503911
0.009531440426
0.009527136782
0.009516777623
0.009508078371
0.009488013824
0.009464065861
0.009478557118
0.009469067799
0.009484559577
0.00948845055
0.009496982363
0.009488385965
0.009484791174
0.009480741016
0.009489785482
0.009515274868
0.009516907981
0.009492512097
0.009502780068
0.009491173049
0.00948828763
0.009500279799
0.009485786424
0.009519582232
0.009495715374
0.009474627208
0.009494593592
0.009493925861
0.009507165004
0.009491452242
0.009492105897
0.009513421649
0.009517110761
0.009504278897
0.009483377447
0.009515127997
0.00951528629
0.009515239805
0.009505509357
0.009515871589
0.009517921021
0.009526291452
0.009508727121
0.009499625785
0.009517487158
0.009512693339
0.009510680011
0.009510732861
0.009488898492
0.009494035783
0.009513979912
0.009499857949
0.009522741914
0.009528587436
0.009537248302
0.009524595398
0.009530312785
0.00954096388
0.009527599944
0.00953921997
0.009530553559
0.009525755669
0.009501974676
0.009533313797
0.009517380002
0.009536486028
0.009544066112
0.00955002657
0.009544084035
0.009538331374
0.009530706581
0.009539870147
0.009550551812
0.009522132406
0.009547633116
0.009528189153
0.009521410433
0.009535680365
0.00953653594
0.009539204162
0.009537589928
0.009553329333
0.009564544119
0.009532408119
0.009548125891
0.009542744079
0.009552282192
0.009545171774
0.009554540288
0.009557319056
0.009524706866
0.009548674443
0.009536697131
0.009559426228
0.009553409352
0.009543478653
0.009544345964
0.009544047919
0.009562443033
0.009558245003
0.009528917577
0.009512964144
0.009539147616
0.009528798493
0.009527276831
0.009535266511
0.009537109997
0.009531896907
0.009532909302
0.009537423719
0.009548177799
0.009543501707
0.009527440696
0.009550961504
0.00953682976
0.009548996512
0.009551331288
0.009538925407
0.009531248524
0.009522611349
0.009530565527
0.009525441132
0.009538094034
0.0095517114
0.009526570183
0.009533818162
0.009526635356
0.009520848729
0.009531681759
0.009521090486
0.009537883265
0.009516749046
0.00951386636
0.009527753468
0.009531658734
0.009532651535
0.009515812694
0.009517365589
0.009510840755
0.009517165863
0.009493439134
0.009521043445
0.009534537576
0.009528111296
0.009544150601
0.009513891863
0.009509500648
0.00950917691
0.009505024776
0.009519963816
0.009527622633
0.009517761047
0.0095182299
0.009510413223
0.009514451722
0.009506130654
0.009511881613
0.00953309013
0.009514526962
0.009525849032
0.009524743513
0.009527722153
0.009533311077
0.009507408426
0.009498717144
0.009498360471
0.0095088035
0.009510990376
0.009508072202
0.009528984314
0.009522463701
0.009539648217
0.009525516922
0.009519573999
0.009497367085
0.009499161686
0.009517653853
0.00951377378
0.009517408289
0.009521864186
0.009505254416
0.0095386253
0.009531225802
0.009515796105
0.009516631735
0.009505296958
0.009517911864
0.009521517743
0.009526522392
0.00949929845
0.009502196
0.009511188641
0.009541051406
0.009514542442
0.00948476161
0.009521075377
0.009515010551
0.009507614891
0.009513941858
0.009519687725
0.009519129234
0.009519997532
0.009510025451
0.009504830798
0.009487613352
0.009486819456
0.00948471929
0.009473663513
0.009485728207
0.009496920017
0.009500883837
0.009501526853
0.009508957622
0.009488720838
0.009494759428
0.009518950994
0.009498542558
0.009511406169
0.009511577709
0.009483996032
0.00949000704
0.009488399646
0.009498996977
0.009498147597
0.009482343263
0.009505937497
0.009496393246
0.009501691199
0.009484274796
0.009482036435
0.009494807799
0.009517501884
0.009521147053
0.009499844085
0.009507611181
0.009505335429
0.009513657797
0.009526835956
0.009533978641
0.009518539947
0.009519550404
0.009524003774
0.009514702151
0.009490790243
0.009496124326
0.009529244979
0.009530634114
0.009507243344
0.009477003792
0.009512778085
0.009546875234
0.009515460623
0.00951111374
0.009541238562
0.009532463938
0.009512507664
0.009517715621
0.009546642022
0.009539813169
0.009527698571
0.009525193866
0.009533142699
0.00950420645
0.009511981594
0.009519193874
0.009546021855
0.009522248592
0.009543554852
0.009539180005
0.00953731689
0.009519581
0.009529566992
0.009532764644
0.009511324958
0.009521903207
0.009525112346
0.009547421939
0.009541060115
0.009546874055
0.009539761638
0.009558069242
0.009547117762
0.009550202981
0.009537510293
0.009545751309
0.009566255927
0.009553670546
0.009555104293
0.009554624794
0.00956167014
0.00955680802
0.009549164114
0.009546755447
0.009548151963
0.009536133821
0.00955062195
0.009541921783
0.009537172418
0.009559200763
0.009528797374
0.009549958727
0.009529730335
0.009552524592
0.009539695879
0.009537447761
0.009537497522
0.009520582022
0.009540584451
0.009533544682
0.009514601908
0.009532246296
0.009531409167
0.00953601507
0.009527058016
0.009520510483
0.009538859101
0.009541057627
0.009559934293
0.009531385479
0.009535734152
0.009537875367
0.009528301698
0.009545928999
0.00955130437
0.009526868402
0.009539219912
0.009509645704
0.009530073868
0.009531773498
0.009515188655
0.009506836924
0.009519933533
0.00951678762
0.009504044182
0.009526463703
0.009530415364
0.009515431539
0.009504643112
0.009519329138
0.009510290418
0.009511135829
0.009538028631
0.009520581968
0.009520850289
0.009520944466
0.009516954233
0.009511384251
0.009513541896
0.009510872014
0.009528926446
0.009560292153
0.009532403257
0.00952023064
0.009514910055
0.009499852718
0.009492534479
0.009528530538
0.009521837261
0.009538119941
0.009532104599
0.009518475454
0.009515522757
0.009516144199
0.009509276095
0.009492877503
0.0094816769
0.009499496432
0.009505832639
0.009509242635
0.009499910912
0.00952562327
0.00952504514
0.009525526999
0.00951138066
0.009523095468
0.009495594321
0.009503458398
0.009516729482
0.009505019719
0.009525949455
0.009511340938
0.009494173932
0.009497841791
0.009510951327
0.009507185198
0.009498191343
0.009517509414
0.009513786093
0.009505764502
0.00950075623
0.009489434406
0.009493841465
0.009505964558
0.009516314038
0.009514230397
0.009508878461
0.00951133624
0.009528004062
0.009502693461
0.009504830401
0.009489066807
0.009510813296
0.009517732109
0.009533016033
0.009510734398
0.009503399793
0.009489811632
0.009482192739
0.009478290294
0.009507021186
0.009491855721
0.009483482692
0.009509924215
0.009487615923
0.009495169655
0.0095087691
0.009512433086
0.009525691645
0.009506047623
0.009500770363
0.009490998542
0.009486885217
0.009495607833
0.00949699104
0.009476442149
0.009499367808
0.009496689618
0.009490680135
0.009504238577
0.009483581723
0.009506498054
0.009503586643
0.009513630509
0.009514187977
0.009527420777
0.009512992595
0.009510498095
0.009519556693
0.009505741715
0.009524500217
0.0095070161
0.009532436248
0.009518124066
0.009502672433
0.00951696833
0.009518866557
0.009527508157
0.009513250675
0.009516036234
0.00950123753
0.009534904985
0.009514409785
0.009513328281
0.00951052231
0.00951757207
0.009531988728
0.009539760992
0.009541139018
0.009550868847
0.009519265221
0.009544417084
0.009539101091
0.009524755449
0.00951933238
0.00952354582
0.009525816273
0.009547084089
0.009533965777
0.009533844747
0.009530615068
0.009538101011
0.009530473094
0.009533206824
0.009534670996
0.009509159798
0.009517760909
0.009534172062
0.009533505314
0.009513418431
0.009531449982
0.009561611215
0.009560045598
0.009545941389
0.009543566665
0.00956491948
0.009540326384
0.009540895593
0.009556342881
0.009551568894
0.009544112521
0.009537143727
0.009550676062
0.009543239084
0.009561405222
0.009548378519
0.00956629463
0.009549450515
0.0095508133
0.009547842783
0.009528175378
0.009543266846
0.009528767807
0.009538644451
0.009545758918
0.009527734169
0.009529833242
0.009531549758
0.009540741043
0.009534009502
0.00955291878
0.009543119679
0.009540214783
0.009516180945
0.00952663212
0.009528792866
0.009525531672
0.009546263688
0.009548114558
0.00953515204
0.009554945055
0.009547303288
0.00955352763
0.009551759587
0.0095560186
0.009551406665
0.009517653921
0.009526117144
0.009512535861
0.009531227129
0.009522716414
0.009526704572
0.00951953796
0.009511483784
0.009523495862
0.009507553283
0.009524405344
0.009528968442
0.009525542023
0.009531393005
0.009518776816
0.009520130383
0.009523820775
0.00953126332
0.009537009859
0.009510204255
0.009542446935
0.009554283175
0.009517729856
0.009525991221
0.009520525672
0.009517154759
0.009535518211
0.009526493813
0.009514332949
0.009493322994
0.009511975037
0.009511360048
0.009514021188
0.009520810138
0.009537324064
0.00951955578
0.009504726067
0.009520101202
0.009504386997
0.009529659675
0.00951996417
0.009507564239
0.009486405267
0.009496983285
0.009505587928
0.009512391523
0.009523185294
0.009499964851
0.009510489298
0.009512438617
0.009509825531
0.009503896875
0.009511832686
0.009507402954
0.009493394367
0.00949393098
0.009488257382
0.009505883164
0.009517288529
0.009517196665
0.009491363567
0.009515926848
0.009518228322
0.009510670791
0.009504233419
0.009514964705
0.009513864956
0.009498119178
0.009497062489
0.009506339825
)
;

boundaryField
{
    bottom
    {
        type            calculated;
        value           nonuniform List<scalar> 
200
(
0.009512032813
0.009522884892
0.009509528191
0.009521498754
0.009495142405
0.009510455329
0.009509643474
0.009496184268
0.00950646689
0.009491860739
0.009474382374
0.00948927419
0.009495205437
0.009504154176
0.009493558709
0.009455758268
0.009498738878
0.009499387475
0.009497238835
0.009494167214
0.009482462524
0.009489607758
0.009499574999
0.009501722106
0.009497071913
0.009502334889
0.009505991357
0.009493533421
0.009483789143
0.00948881378
0.009509232213
0.0094933065
0.0094888785
0.00948157662
0.009486267854
0.009501885455
0.009486969234
0.009510545031
0.009502755553
0.009513415035
0.009504145664
0.009504608334
0.009517439603
0.009504721861
0.009514674429
0.009519126858
0.00951286447
0.009516340916
0.00951264347
0.009496893411
0.009512693001
0.009515416492
0.009531999185
0.009505282606
0.009505525556
0.00950056226
0.009520462662
0.009526820028
0.009529140656
0.009537210154
0.009525576697
0.009513640796
0.009528583654
0.009500527404
0.009534335952
0.009527822602
0.009492666926
0.009500927792
0.00952649787
0.009526591135
0.009529589872
0.009541808189
0.009530813194
0.009542233462
0.009557744007
0.009549499195
0.009530439515
0.009506418662
0.009543757594
0.009544775475
0.0095316553
0.009528281708
0.009521188868
0.00954188331
0.009560779572
0.009541257786
0.009540076254
0.009535779277
0.009555708467
0.009546836067
0.009539090565
0.009534624102
0.00953372026
0.009532145102
0.009569858492
0.009562255315
0.009548726409
0.009558279907
0.009560703896
0.009531407361
0.009539955907
0.009541186587
0.009546819147
0.009545360183
0.0095211806
0.009535743821
0.009540654288
0.009537506578
0.009549651785
0.009535772984
0.009513780273
0.009515142172
0.00952119558
0.009523733832
0.009532341203
0.009546151616
0.009556579699
0.009526308189
0.009542967639
0.009554909501
0.009555242855
0.009552101668
0.00954059136
0.009527571113
0.009532894024
0.009534896088
0.009549532042
0.009550911727
0.009547634868
0.009535068941
0.00953186521
0.00952869672
0.009542053327
0.009539219096
0.009536744255
0.009545989278
0.009554138317
0.009506627424
0.009532918829
0.00953838737
0.009520595004
0.009517484576
0.009525554241
0.009534158067
0.00952908356
0.009525782548
0.009526446595
0.009524559793
0.009530549021
0.00952010755
0.009520043141
0.00952765591
0.009533005413
0.009515465839
0.009515483861
0.009498724326
0.009533482027
0.009541267097
0.00954524768
0.009512403664
0.009505073562
0.009488431453
0.009536688362
0.009526097879
0.009504390449
0.009512032786
0.009508847435
0.009512379648
0.009510246022
0.009539354379
0.009510164281
0.009529070537
0.009513889086
0.009509921721
0.009554383754
0.009503268011
0.009490293
0.009512770707
0.009522483218
0.00953470682
0.009516242061
0.009497450823
0.009516574986
0.009503133266
0.009505619551
0.009502128241
0.009498507927
0.00951029942
0.009522016964
0.009518474084
0.009496082915
0.009489411173
0.009517790355
0.00950264067
0.009534549586
0.009500004734
0.009491348115
0.009494343877
0.00949197183
0.009514575258
)
;
    }
    top
    {
        type            calculated;
        value           nonuniform List<scalar> 
200
(
0.009508878461
0.00951133624
0.009528004062
0.009502693461
0.009504830401
0.009489066807
0.009510813296
0.009517732109
0.009533016033
0.009510734398
0.009503399793
0.009489811632
0.009482192739
0.009478290294
0.009507021186
0.009491855721
0.009483482692
0.009509924215
0.009487615923
0.009495169655
0.0095087691
0.009512433086
0.009525691645
0.009506047623
0.009500770363
0.009490998542
0.009486885217
0.009495607833
0.00949699104
0.009476442149
0.009499367808
0.009496689618
0.009490680135
0.009504238577
0.009483581723
0.009506498054
0.009503586643
0.009513630509
0.009514187977
0.009527420777
0.009512992595
0.009510498095
0.009519556693
0.009505741715
0.009524500217
0.0095070161
0.009532436248
0.009518124066
0.009502672433
0.00951696833
0.009518866557
0.009527508157
0.009513250675
0.009516036234
0.00950123753
0.009534904985
0.009514409785
0.009513328281
0.00951052231
0.00951757207
0.009531988728
0.009539760992
0.009541139018
0.009550868847
0.009519265221
0.009544417084
0.009539101091
0.009524755449
0.00951933238
0.00952354582
0.009525816273
0.009547084089
0.009533965777
0.009533844747
0.009530615068
0.009538101011
0.009530473094
0.009533206824
0.009534670996
0.009509159798
0.009517760909
0.009534172062
0.009533505314
0.009513418431
0.009531449982
0.009561611215
0.009560045598
0.009545941389
0.009543566665
0.00956491948
0.009540326384
0.009540895593
0.009556342881
0.009551568894
0.009544112521
0.009537143727
0.009550676062
0.009543239084
0.009561405222
0.009548378519
0.00956629463
0.009549450515
0.0095508133
0.009547842783
0.009528175378
0.009543266846
0.009528767807
0.009538644451
0.009545758918
0.009527734169
0.009529833242
0.009531549758
0.009540741043
0.009534009502
0.00955291878
0.009543119679
0.009540214783
0.009516180945
0.00952663212
0.009528792866
0.009525531672
0.009546263688
0.009548114558
0.00953515204
0.009554945055
0.009547303288
0.00955352763
0.009551759587
0.0095560186
0.009551406665
0.009517653921
0.009526117144
0.009512535861
0.009531227129
0.009522716414
0.009526704572
0.00951953796
0.009511483784
0.009523495862
0.009507553283
0.009524405344
0.009528968442
0.009525542023
0.009531393005
0.009518776816
0.009520130383
0.009523820775
0.00953126332
0.009537009859
0.009510204255
0.009542446935
0.009554283175
0.009517729856
0.009525991221
0.009520525672
0.009517154759
0.009535518211
0.009526493813
0.009514332949
0.009493322994
0.009511975037
0.009511360048
0.009514021188
0.009520810138
0.009537324064
0.00951955578
0.009504726067
0.009520101202
0.009504386997
0.009529659675
0.00951996417
0.009507564239
0.009486405267
0.009496983285
0.009505587928
0.009512391523
0.009523185294
0.009499964851
0.009510489298
0.009512438617
0.009509825531
0.009503896875
0.009511832686
0.009507402954
0.009493394367
0.00949393098
0.009488257382
0.009505883164
0.009517288529
0.009517196665
0.009491363567
0.009515926848
0.009518228322
0.009510670791
0.009504233419
0.009514964705
0.009513864956
0.009498119178
0.009497062489
0.009506339825
)
;
    }
    inlet
    {
        type            cyclic;
    }
    outlet
    {
        type            cyclic;
    }
    back
    {
        type            symmetry;
    }
    front
    {
        type            symmetry;
    }
}


// ************************************************************************* //
