/*--------------------------------*- C++ -*----------------------------------*\
| =========                 |                                                 |
| \\      /  F ield         | OpenFOAM: The Open Source CFD Toolbox           |
|  \\    /   O peration     | Version:  v1706                                 |
|   \\  /    A nd           | Web:      www.OpenFOAM.com                      |
|    \\/     M anipulation  |                                                 |
\*---------------------------------------------------------------------------*/
FoamFile
{
    version     2.0;
    format      ascii;
    class       vectorField;
    location    "1e-06/lagrangian/dsmc";
    object      U;
}
// * * * * * * * * * * * * * * * * * * * * * * * * * * * * * * * * * * * * * //


10000
(
(-924.1294851 -305.2153951 1122.381373)
(529.0843766 391.6378865 95.71548309)
(838.2010089 -178.3324974 -979.1328795)
(776.8818051 -128.1502842 -959.7545732)
(-315.1700543 -473.6517562 -237.2321512)
(406.3263888 471.3551489 -515.1415665)
(136.7009298 -306.9256544 488.3326002)
(-526.6401652 -420.6364071 -1089.848417)
(-158.0214813 535.1224511 614.8344203)
(304.0728633 -650.9288916 671.2259539)
(-877.9116704 210.3656074 -743.7334745)
(0 0 0)
(232.4806129 -676.4053681 920.2097017)
(664.0425588 -176.5977191 999.3524992)
(392.3382852 -41.3430321 221.2573425)
(0 0 0)
(0 0 0)
(0 0 0)
(496.9432094 437.1101761 -485.8140716)
(550.0104632 -795.9057785 -46.27974191)
(-711.4211469 614.5422517 -135.2434114)
(0 0 0)
(1037.943298 -529.8313182 -406.7749687)
(-838.6649432 -368.4624431 579.237471)
(286.3370029 -415.1491583 356.5136424)
(-504.727131 -859.9414321 -144.9468031)
(-261.4473391 -578.3051721 136.8096529)
(1021.779422 -104.8141975 -402.5793983)
(0 0 0)
(-147.3175145 -687.2939307 192.1661237)
(0 0 0)
(-515.4482616 -78.78300517 715.4322619)
(0 0 0)
(1461.326796 331.7038245 48.42240342)
(0 0 0)
(0 0 0)
(354.4605286 -318.6866501 -1091.562468)
(697.9449326 16.84111232 586.569453)
(568.8829164 161.2856619 -264.7694656)
(247.3676639 -849.4944617 -80.18395785)
(-140.9845127 -44.30828354 -1005.197033)
(1113.889283 316.5874783 171.1090141)
(141.4241859 554.4856397 256.524685)
(-616.2727802 -839.9651485 162.7276878)
(0 0 0)
(910.5285041 216.7315575 -124.3829299)
(1588.364308 549.8739931 1067.740898)
(-267.1646069 -1106.387831 325.6012502)
(0 0 0)
(34.81254898 -1166.791232 662.8618427)
(-336.326893 -933.9246572 60.18601014)
(-799.0139407 -905.2010841 843.5288131)
(-248.9684867 -261.4195468 807.2387562)
(621.9717583 739.6772008 548.6040645)
(-857.0799965 599.1515223 -352.0657312)
(659.6219425 166.4352693 138.1105054)
(-156.4738467 -181.8658439 -296.9971541)
(-211.5041781 -1010.695993 -371.7167586)
(510.3534394 611.156824 -657.8364233)
(482.1604037 830.4692349 -37.96912444)
(-490.8388067 301.9788435 -951.5129785)
(-135.698078 -882.8469612 -360.2955576)
(-780.0259305 196.0116584 761.5737542)
(0 0 0)
(53.89971234 -250.0836734 -642.6482224)
(-333.1211761 -89.30937905 -1126.36025)
(288.1229679 -192.8183715 106.3485587)
(0 0 0)
(-57.28961517 402.984299 168.6860953)
(538.598491 -161.5336525 477.5512904)
(0 0 0)
(0 0 0)
(-595.407824 1059.843111 -358.3446396)
(24.56264798 -1294.212814 -276.4091026)
(0 0 0)
(-620.9310848 88.15748164 697.7878726)
(-454.0338146 -236.7563798 -716.8062997)
(-44.8915856 -504.5206219 -355.8726696)
(-479.0604931 -79.22564412 -522.7511753)
(-317.4673904 180.9314735 459.0756706)
(-560.9086702 574.3146319 551.4196022)
(-68.723643 259.9322805 646.071873)
(0 0 0)
(-208.2901259 -391.827274 -1313.978153)
(-1186.695382 608.3875147 -29.54086152)
(-1423.812144 -539.2652845 924.9391893)
(-265.0083431 -735.5729474 -1433.205773)
(296.4312037 -253.4482948 766.1851228)
(-1108.368709 734.0428054 761.2275919)
(-398.8438547 -812.9360745 -162.5072267)
(559.271299 -393.4953469 1107.54841)
(602.6688761 -607.6969745 -177.8879893)
(-1251.538339 -1339.234007 -215.2804242)
(18.84364992 133.9116394 846.6249712)
(-248.1442234 1063.370897 -314.6929274)
(47.19397067 -1307.297265 -658.075812)
(0 0 0)
(144.2562872 436.471592 -271.2263796)
(-1028.845032 -266.008487 508.4414867)
(531.8789155 728.7399518 -134.4808981)
(474.0391298 782.0956929 466.9256904)
(-194.6393332 753.3678963 -922.3713334)
(740.7393452 670.5756451 -155.2954606)
(-1360.598678 -931.3247083 -1148.436092)
(-68.43070247 250.5144837 125.5988737)
(-538.3706531 345.2481647 1699.146134)
(-584.942462 97.73229393 999.2985014)
(-261.9579582 -829.0159159 -811.8917842)
(-373.7771727 -5.563244791 -66.61890632)
(345.2799383 592.6343553 172.9937161)
(475.9562092 -260.5520139 -245.7213515)
(996.805564 -671.4933089 -717.0645844)
(8.682791911 -214.3318394 505.2565648)
(771.4268789 -562.2498383 -201.0857842)
(-587.9374978 -186.9625669 612.5584427)
(2246.173827 956.7991678 -536.3584155)
(506.7917455 57.60664193 810.8033803)
(-562.9619607 292.6958661 -1184.951565)
(99.23741718 -18.83108678 -19.5488385)
(-165.8465111 1588.155301 665.6654838)
(-140.833616 466.0689684 77.89241252)
(1296.813122 -879.1679119 -74.47316456)
(944.6753797 723.2682095 657.1667995)
(746.9104111 393.1925373 -932.1715125)
(1181.719762 1016.672052 582.5665364)
(-971.6984258 -154.821135 -327.2716035)
(-486.4521766 -230.0960171 -1306.121123)
(499.4555263 -455.1688641 702.7209646)
(120.2700297 -206.8701279 189.7140371)
(845.8382471 231.4053896 1398.536102)
(1872.787217 -1813.703072 -478.0344282)
(215.0690044 -224.5681702 248.5761116)
(88.57086645 518.8447244 -839.0122641)
(43.18203236 -238.974846 1111.609008)
(-744.5818971 281.483737 -424.0708166)
(0 0 0)
(-946.6166551 -140.3714569 -953.1490181)
(-298.6132215 -838.5822871 -983.5634825)
(-304.8712358 -314.8047518 -288.8310443)
(-478.1988263 457.6631306 -93.96271572)
(0 0 0)
(0 0 0)
(0 0 0)
(-1064.346727 315.2665121 274.3434863)
(-184.216805 -391.8723224 -1413.449038)
(-73.17620036 2016.761586 118.0418967)
(-550.4383716 -134.2036467 -176.0987475)
(330.6866526 66.15781493 411.0461346)
(729.9650555 -1253.652263 -708.8562344)
(838.2312324 -120.7107055 -789.243768)
(-199.1369187 -1188.862892 -206.5224003)
(-904.6788477 46.57568355 637.3707245)
(523.0280751 -676.5543155 -569.222792)
(0 0 0)
(-209.1422889 874.8763811 154.7526031)
(-644.9685659 -1354.841717 -677.2496586)
(89.2557621 -999.2289391 -175.0032659)
(0 0 0)
(891.6231934 -869.0875485 977.0408822)
(308.6888817 -1380.460511 1125.494141)
(261.6144416 564.4325496 -119.9715781)
(0 0 0)
(248.9282474 -1316.297804 -510.668253)
(-96.10629577 1090.342808 -741.4815267)
(279.8551739 -437.5744853 -570.90455)
(700.1010489 -234.868381 197.5853358)
(-1417.005677 692.6997621 -455.6368577)
(150.3465197 1067.354444 -614.6689746)
(-865.93199 -3.717910639 -773.8745154)
(-290.7598481 -195.2897417 1021.725552)
(910.476889 625.0528919 674.1118175)
(784.5925336 150.3149487 935.7907058)
(-300.6214266 -789.6617276 -542.9815737)
(440.036353 360.1695003 -33.98609577)
(130.2254397 90.10494988 75.92812874)
(393.2495692 292.8310192 -355.8528871)
(736.6752577 474.6138235 -609.3533816)
(353.0492184 889.4649592 128.8370429)
(-1640.474017 419.0144801 -22.88523172)
(-183.663494 -800.4339941 -771.1586885)
(-34.57067051 -231.6520388 -449.2032853)
(-1377.267828 58.86224815 -828.4040141)
(151.3696633 537.3088259 532.4358898)
(600.3301579 594.8222498 46.07423204)
(0 0 0)
(-91.94708825 227.6399114 -811.0343429)
(0 0 0)
(556.8225597 -457.667242 1028.217416)
(-650.4570801 -490.7872254 -5.723403284)
(-407.9109853 345.3812181 -341.996595)
(417.7622229 -936.9526214 -7.69354909)
(0 0 0)
(-386.7283962 -35.02530378 1126.907142)
(185.9289773 823.6418115 174.362709)
(-25.66227333 -83.89931706 -138.7876649)
(-576.6200602 -268.7104841 573.9405685)
(-217.3476042 837.3377953 126.1183004)
(835.275869 133.2176188 -451.8147155)
(-875.7718274 -44.04353882 6.682867778)
(-213.7586498 60.22478536 -246.4750618)
(502.9302053 -7.983372909 -618.1588825)
(-13.69334806 93.45181085 437.417962)
(121.9282222 1316.481888 214.0708778)
(-756.5408068 -332.1847959 -386.2997246)
(-958.5177018 278.9205226 -507.9885264)
(0 0 0)
(-429.4697596 399.6669436 -326.3159835)
(410.6449915 -1420.940975 58.80853033)
(-596.3501018 -312.5762143 -813.1023325)
(0 0 0)
(705.2358432 1622.928253 396.845087)
(765.2893609 1594.40551 447.8100799)
(-1144.401375 -62.46959052 -694.2502287)
(741.1073291 -189.0818189 446.1000857)
(0 0 0)
(-609.6003491 666.253014 369.6697203)
(0 0 0)
(-1410.558887 222.8297512 -339.3255247)
(-653.3555012 518.2366389 -898.9894086)
(584.4612728 -78.22231424 360.5536587)
(0 0 0)
(-214.7808208 -883.2070991 -656.9568827)
(405.8616529 610.9249991 -643.9771881)
(1346.578794 1980.049258 564.8213594)
(796.4728474 -698.3024871 -817.8889404)
(-208.9354467 581.5314388 26.28764031)
(0 0 0)
(103.3585753 1405.978902 592.2019747)
(-178.0468521 278.4951491 601.5484044)
(-129.5186294 251.8187443 102.1069375)
(-1185.537872 -678.0063234 -500.3358651)
(0 0 0)
(-495.866885 -122.0137635 -623.8731545)
(401.9162747 -161.3235606 -286.5520424)
(-382.8639495 -246.5993506 -27.99093912)
(140.1232677 818.3196642 -1087.431789)
(1495.609675 868.0536345 460.5468251)
(384.1619919 -296.6005903 -220.0659803)
(-962.0298237 638.7413757 -374.7857426)
(-290.8837919 -12.06242393 -222.8881604)
(764.3433307 -572.3536976 -332.5036865)
(-423.5294603 -536.980093 1240.692139)
(0 0 0)
(-78.35680731 487.3379892 -554.8749583)
(8.632129566 182.2737152 -1229.215085)
(0 0 0)
(-528.4152108 196.6876194 -997.0790733)
(-378.164995 1191.452239 -42.70649228)
(22.56180118 -232.8723343 73.87220421)
(164.4310493 207.6566871 864.8457404)
(1097.042205 538.9751644 480.1291456)
(-216.8155492 -38.29874688 -81.36205101)
(245.6577576 -132.2154352 761.8589981)
(-648.9756505 -378.7796976 -1253.031739)
(0 0 0)
(-602.3514957 -809.4759307 80.3426572)
(66.62325571 -1423.779581 -671.3870384)
(-586.7616802 3.674541456 98.58995704)
(5.900836955 -275.9633476 181.8154747)
(-211.9432853 -345.9504189 235.9787185)
(458.972245 477.5040199 260.7511245)
(90.70405809 -781.38358 -837.5006787)
(613.1251428 -541.4370201 -882.0841112)
(0 0 0)
(-879.0119281 1176.010071 -226.1987628)
(0 0 0)
(-380.8043241 -828.1936592 -834.6901536)
(438.0329381 -3.766351128 -641.4588667)
(442.243306 1107.948221 -537.2765562)
(13.72866135 418.0698314 1184.734662)
(-602.4951694 -819.307232 122.2728962)
(620.2284486 950.9739054 -460.2818746)
(998.2146682 82.86994128 -775.5828783)
(972.3252768 330.9562153 -209.5662839)
(0 0 0)
(555.624023 738.1158448 -216.4748649)
(-215.3037167 1021.579581 -754.8275459)
(0 0 0)
(-792.8564627 256.7088285 140.2675495)
(0 0 0)
(315.5218425 359.1588048 -859.0347036)
(-230.1798713 -627.0241155 976.1843316)
(-132.9415706 905.7161524 769.4837463)
(230.69828 493.8167716 -312.7987199)
(0 0 0)
(196.9239997 -637.8558552 -376.9735173)
(-721.703486 -309.9011571 -282.6236239)
(197.2358264 -129.5262639 -203.1880266)
(-348.3919843 -715.5078693 -94.53978815)
(1140.024641 -366.6488097 -380.9183124)
(-547.0700493 1201.697277 -1241.798425)
(149.4712984 -989.2529237 -68.29236666)
(0 0 0)
(0 0 0)
(55.28276767 -391.7812526 -909.6868349)
(-565.8507848 -291.3885581 25.57373597)
(-492.1493684 97.33933924 232.0922068)
(-553.7038786 1249.018859 505.1797958)
(1136.004747 1345.657403 223.3242063)
(-322.431233 -210.179825 116.5396194)
(319.8751361 -401.9344597 245.9360502)
(0 0 0)
(0 0 0)
(-236.449927 1102.572714 -664.5692538)
(0 0 0)
(943.6770021 269.0553342 -582.53935)
(308.5939981 667.0736023 324.7975208)
(0 0 0)
(263.3968324 366.1934407 -1078.569852)
(-568.5968876 811.1619552 -335.6259779)
(29.90363908 453.2017212 -1257.596686)
(-85.17483654 129.4098381 -283.994538)
(282.9867632 -257.9042502 1196.109935)
(-699.1682084 -645.6894985 52.86372884)
(373.3515844 -443.4890797 -124.2768602)
(-912.7277867 -133.5498273 548.2899374)
(459.1552827 314.8956216 897.7497448)
(-609.0966966 456.7531036 -927.1077709)
(0 0 0)
(874.0077359 -884.4032641 66.62426855)
(0 0 0)
(68.92885417 1267.747748 638.4075846)
(0 0 0)
(-812.1556132 -337.2785818 1110.000175)
(345.9891897 -722.7924848 530.7239648)
(957.9469236 891.389943 -579.6259259)
(-267.8992785 -162.3430724 -1046.874968)
(407.4492366 -261.8435981 -1412.80559)
(-207.3808371 178.4630112 336.0855838)
(399.6157288 582.1719105 630.5233633)
(-104.2582902 220.0735291 -882.9160534)
(211.2100603 542.4119646 458.0213388)
(0 0 0)
(-310.2412155 -43.91032529 -625.642721)
(674.1121192 -211.7094129 860.7516923)
(705.5828027 -519.4723335 1273.890461)
(120.9917911 -316.5662771 -951.8143502)
(108.4851574 159.7617579 838.1698429)
(-195.9588956 -792.4588086 106.6302327)
(0 0 0)
(-437.8870903 810.0398236 -126.0927197)
(-295.2364839 -296.9200994 -1240.184614)
(-573.0859458 -911.650713 -661.8767319)
(401.6385187 42.85606502 30.40659946)
(-945.00711 -73.85940185 246.1331329)
(-755.6537118 1150.094466 358.6601825)
(-191.2373181 -400.2337338 -255.2032557)
(0 0 0)
(979.2558067 -569.7706972 298.9334187)
(0 0 0)
(-3.818982566 408.7158689 176.0353282)
(206.5126989 -98.60994767 -210.9049253)
(319.9734291 45.70673848 -823.3994817)
(225.6050967 307.0244469 200.2267706)
(-405.760539 279.1424332 -646.0557471)
(0 0 0)
(-1148.59879 -13.39064154 110.4178904)
(25.45388845 -43.63689844 -856.9464498)
(659.4287378 260.1329743 -38.23084545)
(150.3030145 756.9767469 32.83555019)
(0 0 0)
(-398.8786601 -588.6775516 765.8971395)
(996.4212007 363.0298406 1011.246177)
(-1306.571391 -304.6150874 273.9083078)
(-346.2908983 -155.982582 -1047.890546)
(799.4742964 -965.4846559 64.83089382)
(531.5252842 875.6216707 -115.1451403)
(-618.2901271 76.64683758 1063.93759)
(-49.47259102 -768.7896522 491.5573163)
(495.1904589 606.3957255 -630.3398022)
(512.9069663 -69.93726814 70.29322786)
(182.4519449 -157.9463554 -358.1512962)
(337.9696884 502.7167005 319.4680871)
(-833.699374 646.6081619 115.4146479)
(-1692.498704 -9.158593939 -417.7504734)
(711.1880016 -386.4225428 456.5948457)
(-714.3750779 -598.6544337 276.2107491)
(-553.0058118 905.1954995 -817.3079676)
(240.4079249 247.5019668 592.0827522)
(-764.332627 -836.9505263 -97.47645997)
(335.022611 -118.0011068 -956.4413607)
(567.8099671 816.7812278 524.7884891)
(-916.8787424 -238.8891059 -359.3953107)
(-403.162641 -875.82958 -695.5779822)
(601.679451 119.9769894 -583.4017234)
(-744.3663267 639.7612999 1006.419517)
(103.592524 804.6388789 -98.93321479)
(1026.664947 -630.40377 1164.311839)
(-345.3817685 -413.5397499 -889.2345078)
(-830.4499998 -650.2959448 194.0807744)
(-1429.774473 -187.6139334 -310.8764989)
(-240.3825729 -959.4683127 371.1903653)
(-1061.758561 231.0740452 1130.052282)
(-769.9432115 570.3817536 -591.6100578)
(-327.224332 -724.1291824 176.4976357)
(589.1223655 -950.6427931 -1767.817252)
(-328.0382027 13.22428007 -534.4628931)
(-97.29385659 211.3500987 148.9727633)
(-331.9400095 -15.77448198 359.0885361)
(0 0 0)
(1094.159647 75.53822331 -320.0424828)
(236.2062613 947.8089759 -346.552954)
(0 0 0)
(-70.89295113 -15.04752526 417.3584331)
(-1188.860789 749.8220102 412.9295524)
(357.2527808 -472.2215196 645.5027503)
(397.1928994 374.3981102 1532.415991)
(-566.8000005 1658.163262 -236.0928855)
(0 0 0)
(34.60872759 -224.3344226 -1240.831505)
(-183.4423857 858.3828898 861.7062358)
(277.6445353 -754.3416434 -219.007253)
(1032.822254 1164.225277 635.6299638)
(803.1819808 -258.3784336 -1013.816925)
(-414.564577 -603.3015604 1226.862444)
(-162.9335995 -749.3881467 -384.2308377)
(0 0 0)
(402.6721344 1239.124319 -262.18752)
(218.2272392 290.4757304 48.84271673)
(-796.0282082 834.1555094 -429.1811952)
(0 0 0)
(-91.62440647 -736.7077081 163.2981988)
(254.0633517 337.0231462 135.491027)
(0 0 0)
(0 0 0)
(0 0 0)
(-454.9168712 337.1994536 -239.2076093)
(0 0 0)
(0 0 0)
(-268.4523439 719.9648895 664.4970611)
(51.98754585 596.9258218 5.241648083)
(-277.6030241 -834.8301697 1320.147795)
(0 0 0)
(1427.624496 -611.7852084 85.00759232)
(-939.2938924 -360.2124959 422.6358601)
(1301.995081 -156.3505732 1298.332487)
(591.0973007 -306.8884884 260.7546659)
(-765.6511558 760.021361 -322.4594643)
(719.3053835 287.1869178 -654.7316353)
(265.3951222 343.5252062 -309.8460375)
(922.0406287 172.6925056 -658.1474921)
(-350.342382 -169.9390342 -400.3294778)
(0 0 0)
(0 0 0)
(0 0 0)
(1169.455021 -659.0203999 100.4567884)
(-1360.246255 -240.7074116 -333.6524148)
(973.4592883 -998.9353339 -17.28903795)
(180.4350066 -575.0777606 -478.4942796)
(0 0 0)
(0 0 0)
(-28.03994841 -397.4888457 791.2774729)
(300.4023381 -1017.285888 -549.340772)
(-704.340027 312.6364795 -272.2594308)
(799.5427092 257.6847026 -764.8262732)
(-440.3083643 333.9188184 -788.051737)
(-823.1183921 -248.7966387 -53.18841663)
(0 0 0)
(-446.7293106 -512.3219495 393.0592976)
(-39.51183552 146.1859508 -858.3963567)
(-427.5042396 -1042.991905 -210.6144846)
(2072.734904 -569.012149 376.8269344)
(-21.76579435 -152.5915537 499.3075332)
(803.1087729 435.444866 365.7887225)
(-1105.991186 87.01946221 -994.3734925)
(-370.6772185 -915.0388728 71.20042881)
(-1357.54694 -661.1052824 -1129.758182)
(335.0761236 -371.1982723 -586.7698202)
(162.3372917 -206.3508861 -305.8073701)
(695.9081556 -511.4126921 -1140.301381)
(71.65858204 342.7497488 -99.76850663)
(-1813.874744 -62.80262508 -71.5464606)
(0 0 0)
(-305.4415698 -799.14803 858.1724819)
(635.5623026 111.6158355 46.69713044)
(-128.148621 -1025.438119 601.5368143)
(-119.3660336 209.3157518 909.8961898)
(-360.3698455 63.45083134 1255.110757)
(407.7981549 441.4788999 170.2817362)
(-318.1516446 -862.4218732 -366.2047734)
(-62.22070804 -206.295424 1136.34181)
(-468.4066705 -435.5387072 60.78378216)
(1231.21895 540.9519583 360.875201)
(-595.662085 1170.310703 100.1423842)
(-758.1486923 1200.626258 571.1058378)
(1443.064182 -16.92139175 -894.030458)
(820.8867842 -559.951491 444.6271456)
(0 0 0)
(69.0377066 237.6533356 95.89249051)
(-1063.943952 -349.6280029 -295.4474899)
(547.7134623 755.8609274 126.8517828)
(0 0 0)
(616.7810733 -3.556998746 1098.767256)
(-362.0719294 -392.3450744 1070.764967)
(0 0 0)
(680.3935679 51.8797816 545.871553)
(20.97028153 993.6540859 -966.9064097)
(0 0 0)
(0 0 0)
(-386.8659309 -341.162763 -354.5539646)
(0 0 0)
(0 0 0)
(-320.9479231 -1347.141863 -935.939914)
(-773.2985787 -1320.098803 -901.655838)
(-456.465594 108.4053853 158.075347)
(-1771.839955 90.05469602 972.7799982)
(295.6944153 -409.2019445 -402.2804877)
(348.8556534 -1247.935994 -520.138642)
(-1038.606618 -103.913272 41.18847477)
(652.8844313 -42.31644909 553.0700272)
(521.1537898 862.6442786 570.2921998)
(0 0 0)
(-955.1794433 -77.50770124 -513.6273576)
(587.720732 917.9924178 -724.3255212)
(-1063.701495 -255.3706305 375.3121648)
(402.9895786 -156.2521904 -296.3733882)
(56.5777755 650.5545228 52.5201453)
(331.0344587 936.8270634 210.1388485)
(0 0 0)
(-425.2610263 642.4120061 460.8620253)
(244.5521695 -134.0503951 8.932404801)
(-446.2084993 97.71417602 -1690.296921)
(928.2956569 -238.1852846 -394.1760829)
(678.8536998 -1372.97388 -1449.25028)
(-1138.092044 654.8935438 53.52917535)
(0 0 0)
(0 0 0)
(-139.1355473 203.0747757 54.53367941)
(-727.0638929 294.3102002 -286.5104234)
(0 0 0)
(1334.59891 -555.2191888 474.9826452)
(749.0817614 117.0170465 677.0073513)
(-94.4453295 -272.7169962 -221.2281429)
(0 0 0)
(-59.42096318 71.34526022 -1471.986149)
(388.4546618 869.957616 591.0342456)
(0 0 0)
(-800.2664801 463.1479189 -137.855273)
(458.0522686 -691.9119777 140.2883639)
(-246.3295028 558.2126048 506.5989753)
(562.39089 -35.48987106 398.8614363)
(574.253348 -1201.537952 162.6725599)
(0 0 0)
(-1973.071494 44.7334943 459.5426192)
(0 0 0)
(0 0 0)
(-168.6406813 -283.7787302 -377.9158812)
(43.33370624 -331.1740019 -578.7556005)
(-114.3039893 451.8359212 -575.5308199)
(1092.213444 -62.34044006 -365.5066116)
(136.105099 425.8861182 752.7911335)
(-164.0112934 168.0681296 78.20951724)
(272.7670663 1067.746019 -513.4750491)
(0 0 0)
(0 0 0)
(-556.3470959 -187.7956077 -229.5296867)
(443.7300204 -1437.338216 572.8630997)
(978.1658907 -121.1872546 -422.9560683)
(-596.6131337 -117.7176354 1255.497696)
(941.2595417 46.82731744 420.0301218)
(-378.2316039 692.1963704 -171.3435676)
(-243.5934499 -247.24788 1150.522603)
(-861.5241535 -386.633641 210.4112024)
(55.4574365 1359.635891 677.4566353)
(0 0 0)
(0 0 0)
(0 0 0)
(0 0 0)
(0 0 0)
(147.6442859 518.9047148 -674.8041719)
(-262.0834721 144.0206508 -578.8051301)
(0 0 0)
(-1439.150445 1290.593187 310.0731666)
(520.3832175 -1080.941272 1074.393366)
(-741.536536 479.1063666 315.3694034)
(0 0 0)
(0 0 0)
(-114.1567165 898.5013065 489.1552862)
(-122.6638202 -654.9605119 -474.2593845)
(0 0 0)
(738.3583059 501.3011175 872.5443785)
(0 0 0)
(917.9808257 483.565366 -41.51626676)
(0 0 0)
(546.2510822 -404.9282565 1923.319474)
(-368.6168262 -487.0157668 1160.369483)
(487.8521011 -664.1880048 -857.0667265)
(0 0 0)
(359.0081865 -866.1941769 -312.5791933)
(0 0 0)
(94.52891351 12.39779639 205.5906907)
(766.1299934 -382.8464695 -879.8117144)
(71.6701578 878.1558845 239.1068236)
(-1353.961627 683.5814034 325.6523831)
(794.0365538 -183.1600093 495.0055336)
(-1113.866321 946.7622883 -1123.876413)
(0 0 0)
(-577.6738587 -547.6460038 841.0797776)
(-1789.84346 -319.5746494 767.2017955)
(509.7214319 -56.39709991 -726.7489408)
(28.38955834 523.8623821 -16.6398383)
(-26.38910682 -963.8856694 -845.3340141)
(-1075.475388 -353.9317827 1734.033379)
(893.2214544 57.89842247 431.2534839)
(0 0 0)
(0 0 0)
(617.6234818 -536.6218394 117.6701421)
(0 0 0)
(366.7080438 -1250.073231 -115.7513671)
(491.6433891 85.01843756 -1039.972883)
(712.8852736 -62.38291812 283.6075698)
(21.42332783 2.601172372 518.6583486)
(-151.6663847 -1119.490088 -1195.931311)
(-496.7370453 285.0856875 -500.4530583)
(-709.2618313 -376.063744 582.0868506)
(-910.8927778 582.2193901 703.7341617)
(166.4391738 1121.059958 -544.5487387)
(156.5870504 -328.8069681 282.1100217)
(537.4233905 828.6624779 -945.2813626)
(0 0 0)
(0 0 0)
(-348.7513195 242.2962626 -414.8118866)
(428.7882927 -413.6618257 530.0318527)
(-534.5411474 563.9649876 350.9332577)
(-449.1242268 1277.840883 -1235.547652)
(0 0 0)
(0 0 0)
(10.56923445 -191.8901417 903.8623853)
(-160.9867597 -656.9723559 -638.7521208)
(561.7978455 277.9218419 -390.480198)
(-1102.647243 -1634.139772 41.47922476)
(-1049.774963 1573.064805 -480.8300875)
(788.9528109 -679.0546656 603.7044689)
(-470.4593213 -24.48214469 -322.6976075)
(-1201.372848 46.02219403 -801.5606878)
(0 0 0)
(0 0 0)
(-182.136467 -594.6844178 -285.9021624)
(0 0 0)
(609.1810911 245.1867024 248.1849071)
(-533.2549302 1010.880007 -718.288097)
(0 0 0)
(39.61055522 -378.369277 -13.94968571)
(0 0 0)
(621.2504561 -94.47643053 145.7549507)
(16.88004769 -1141.038342 -219.8950776)
(421.6004619 -598.1357459 -285.9304841)
(233.3943708 -1177.143316 547.0082684)
(-584.0392224 461.9184336 51.45636277)
(96.14245212 -1773.242626 -512.2095605)
(273.0917991 229.0746448 629.2243368)
(744.2015632 167.5308621 -319.2463108)
(1228.243494 478.2722394 -672.5683535)
(477.2676892 234.5413304 -252.1798309)
(0 0 0)
(0 0 0)
(-900.2705823 -66.3876195 -84.2448163)
(0 0 0)
(-153.8837922 -673.6184354 -691.9266373)
(-1046.054474 1018.720506 312.6436164)
(727.8046317 -622.3538567 -805.7761541)
(-107.7342809 -975.2410697 -488.978236)
(-185.5288688 -89.17161916 475.7418226)
(-1588.654628 -482.2548481 -936.9264166)
(-413.7625229 760.0727302 -607.1998486)
(-717.1926708 196.827385 17.26057244)
(0 0 0)
(209.8909995 -793.5761149 390.1489615)
(-187.6638519 535.4340645 180.0846778)
(-35.30368513 -650.0338698 165.495286)
(-598.231685 -629.3684161 -910.5209351)
(0 0 0)
(0 0 0)
(-398.0565276 -20.59890872 -249.3324572)
(-373.5929178 -566.9715997 -627.2043251)
(-593.8581244 -293.1575204 111.4679055)
(458.9843077 838.4730143 531.6226546)
(-114.6160908 519.3397732 451.5442694)
(0 0 0)
(543.877509 805.9406998 -129.2559263)
(82.86820271 -156.8178636 -377.4918897)
(359.564159 24.3204321 -1014.215503)
(65.59632884 -9.395204224 561.76965)
(0 0 0)
(830.7625009 552.7717891 93.77050119)
(-1436.358862 -284.9758695 193.7225351)
(12.12552948 -981.5605134 1687.728976)
(750.5036271 536.4249689 -75.82080749)
(864.311897 -220.4178794 -565.2856025)
(54.19750998 314.2062689 -934.8090505)
(139.7494319 -51.70717442 -562.5633036)
(909.5727174 -333.6915524 -312.5812835)
(1426.198209 -1059.530762 -495.6544616)
(-1404.471059 134.009771 -528.5556265)
(0 0 0)
(845.2786288 309.3429615 914.7909057)
(-429.6075759 390.7354219 -1122.489326)
(910.5839885 -564.5844157 758.3901852)
(-86.32307065 231.9470175 -12.32677194)
(861.5872314 -331.4741492 -906.6883866)
(-824.5166001 832.5131764 -1022.038994)
(-297.4535053 1191.480143 -887.784338)
(325.60974 588.4583678 -224.0352631)
(-715.6174603 -876.0433687 -772.6878468)
(441.0366651 617.6794789 -940.619414)
(786.3469789 -823.5035583 -752.969388)
(-1751.456454 -450.7229173 -1476.658307)
(-160.2113462 -1036.337294 93.74965672)
(0 0 0)
(888.5909079 170.9408183 109.6068993)
(-0.731667664 463.6869346 832.6367072)
(0 0 0)
(0 0 0)
(400.2351854 -250.8272678 1506.117954)
(-600.6969565 360.5343002 644.0415788)
(0 0 0)
(0 0 0)
(262.1744604 676.6272951 40.66202063)
(410.1533427 282.1590436 -1610.819452)
(0 0 0)
(0 0 0)
(-900.5648915 501.5104922 -464.8569361)
(0 0 0)
(-1394.241317 1302.4867 107.0435471)
(94.98546721 746.5867226 -32.44109256)
(175.5649992 806.8017665 -355.9169452)
(-9.707689728 213.8375762 224.150186)
(564.2747855 52.30606861 -279.1954897)
(-831.7947409 -33.47144828 -26.7072745)
(432.3594333 1199.650565 527.5310654)
(580.5566005 -365.7008198 1235.421363)
(0 0 0)
(0 0 0)
(0 0 0)
(-90.09268832 137.3043586 365.5995599)
(-910.6647045 354.9609491 -227.0956661)
(1102.03681 -96.6984051 566.5144235)
(0 0 0)
(720.9405085 -598.9110702 1088.124449)
(-373.1587819 -92.57325193 943.7818104)
(-4.123920898 -535.7256396 -933.1697731)
(227.0422724 6.74428568 -191.4277309)
(98.10839613 1448.086799 -124.7193236)
(1031.4781 41.4158716 35.93202583)
(579.9233626 -511.7178492 996.7122104)
(644.5018008 779.6980167 -1298.763739)
(-972.8185857 260.2415037 253.8870337)
(-17.62848462 -1066.468836 253.4313646)
(577.0141286 692.3267884 937.0125106)
(811.7471104 -627.7268143 860.9423813)
(634.8868399 1017.81993 226.1372567)
(-719.0775702 448.0999709 377.5680724)
(32.00048039 -107.960612 -54.54839934)
(0 0 0)
(561.7123858 -175.5735801 993.65453)
(735.8746889 -888.2960092 -334.3466113)
(-215.8967488 548.1459684 73.49574921)
(0 0 0)
(172.4372177 -25.02888824 205.6750962)
(0 0 0)
(-160.3658256 766.2337548 300.7946972)
(597.3488017 -47.49718552 108.1011687)
(185.280741 821.6282415 -324.1948397)
(-129.2307764 -35.57189828 -1671.217124)
(40.23668093 -213.9724722 -795.4865297)
(-550.7612141 -20.09455731 -619.8863821)
(165.7966188 -95.9234457 -1001.722671)
(-83.18866122 428.6628359 -413.174325)
(-561.4147722 -196.3454161 -277.878677)
(-383.0823478 -142.5003777 -236.694502)
(0 0 0)
(-57.70349624 168.8230108 -397.3554234)
(248.4776295 -243.9106008 -889.4768692)
(929.4319495 -791.7728478 227.3933012)
(-348.6924473 -96.9409184 60.46413438)
(1191.590646 -548.8880045 -844.6296841)
(1489.26556 -387.9835147 -191.1665493)
(620.7461025 -1030.696142 -911.4847452)
(-330.8414323 -222.9211894 -50.03656176)
(0 0 0)
(1201.337921 890.9195882 -1038.046587)
(54.46432645 -271.9863835 -685.3127737)
(-140.7525784 -371.3090228 -61.01048991)
(0 0 0)
(-297.7291219 1250.490472 -309.1146046)
(-583.8272408 886.9256874 -565.9306024)
(444.1874197 804.073756 -12.94992173)
(0 0 0)
(287.8625833 768.2086639 -617.4127131)
(-933.1226578 61.05196519 -233.0410358)
(111.9179279 -427.0332537 -207.9870157)
(0 0 0)
(-137.747262 854.48533 -470.1973573)
(-185.9216464 -1956.298644 -881.5492678)
(-73.73649541 483.7172335 233.6856288)
(0 0 0)
(0 0 0)
(-239.2770939 -292.9291635 -985.3134761)
(163.2792355 -579.6152438 -150.0870532)
(-1614.428052 -204.4536146 -498.7517628)
(-597.7173413 -199.644378 -1355.728087)
(1256.495922 -1495.55197 598.065281)
(-578.6706316 408.0693719 -464.9557)
(8.511049443 -635.1745706 307.9175058)
(273.2973414 -221.3287493 -430.5150425)
(790.8903338 388.8225592 -431.5479609)
(-129.4559738 5.319054808 -141.5594541)
(-45.32018724 1683.765859 -351.1953401)
(636.4619042 1250.676051 -277.8965525)
(0 0 0)
(0 0 0)
(0 0 0)
(0 0 0)
(707.4080938 -433.6439299 -1222.695288)
(0 0 0)
(530.2839003 -207.2971577 -167.3431049)
(0 0 0)
(1218.082861 189.7495534 47.54738442)
(1260.570487 1622.860559 -86.80471226)
(-169.5623702 204.8935817 -431.4501608)
(-559.1141781 493.3082143 -734.2955528)
(-327.8135378 -782.0453904 172.2803189)
(1135.811345 -934.2722567 -1420.470813)
(532.9648283 -2.341107045 829.5228387)
(-1352.325515 -589.8443024 43.73433788)
(-314.7355808 -161.7012726 130.8839594)
(894.3609606 -324.3991345 876.3401899)
(-667.134228 674.3644719 280.5659222)
(-40.55200809 134.7205158 -474.2257997)
(184.3362278 467.2073636 574.7846018)
(774.9065719 277.3507953 -252.9566525)
(-1481.844371 255.8723257 293.2276167)
(-305.287059 -127.2467103 -174.4862082)
(721.5062151 -735.375069 -191.8213444)
(874.3062534 -822.4882006 498.284439)
(128.8545242 -63.87383842 697.6658128)
(649.1514603 -24.04797948 -1351.251402)
(302.5923936 253.7250232 906.4250113)
(-41.84406788 690.8762959 1135.074882)
(742.1447872 692.3604041 -631.5194445)
(146.6124172 -959.3820282 -1358.376677)
(-677.8892668 507.2585685 -173.345611)
(525.7577663 361.3047441 677.7421562)
(-394.7346517 -228.0562548 892.5676362)
(1612.215796 -507.854539 -300.1237126)
(-361.4253407 128.0583451 804.354323)
(330.5348274 219.0232366 -626.0438659)
(422.9492579 699.810987 889.0853421)
(1462.64161 1048.981398 181.9349662)
(0 0 0)
(0 0 0)
(-1775.191023 411.9847355 -1964.809939)
(-217.2340387 -766.3955847 -857.3992178)
(0 0 0)
(-240.4790706 188.3650705 -214.3185479)
(245.9850353 105.934559 -1229.193946)
(210.0683033 -266.0306395 127.9031633)
(0 0 0)
(-85.65878849 -359.2842366 -616.0196354)
(-649.3764821 61.81882332 157.2825941)
(-248.405419 69.79888549 -192.1621061)
(-1032.97853 -669.9964666 -1048.119254)
(138.3747337 -207.1955493 -893.4399683)
(-311.4403623 -270.0400275 -33.80518635)
(-357.2945988 -897.6115259 110.0106765)
(-13.94110279 842.1784503 -651.7371865)
(0 0 0)
(376.7243855 -1212.173614 -253.7362694)
(0 0 0)
(-889.0652681 1207.837153 24.51686174)
(-375.4501646 -390.2627426 1389.641349)
(0 0 0)
(0 0 0)
(96.52031107 -225.2719881 716.265129)
(0 0 0)
(639.5391401 555.1889753 115.0668761)
(-903.814307 -985.3781022 1023.365062)
(-1216.91679 -1569.173686 -411.7689386)
(0 0 0)
(0 0 0)