/*--------------------------------*- C++ -*----------------------------------*\
| =========                 |                                                 |
| \\      /  F ield         | OpenFOAM: The Open Source CFD Toolbox           |
|  \\    /   O peration     | Version:  v1706                                 |
|   \\  /    A nd           | Web:      www.OpenFOAM.com                      |
|    \\/     M anipulation  |                                                 |
\*---------------------------------------------------------------------------*/
FoamFile
{
    version     2.0;
    format      ascii;
    class       scalarFieldField;
    location    "1e-06/lagrangian/dsmc";
    object      wallTemperature;
}
// * * * * * * * * * * * * * * * * * * * * * * * * * * * * * * * * * * * * * //


10000
(
0()
0()
0()
0()
0()
0()
0()
0()
0()
0()
0()
4(2000 0 0 1.7530204e-20)
0()
0()
0()
4(2000 0 0 2.474182774e-20)
4(2000 0 0 1.774933029e-20)
4(2000 0 0 3.506575744e-20)
0()
0()
0()
4(2000 0 0 1.317974162e-19)
0()
0()
0()
0()
0()
0()
4(2000 0 0 1.503109177e-20)
0()
4(2000 0 0 1.08032425e-19)
0()
4(2000 0 0 2.71092552e-20)
0()
4(2000 0 0 3.994648638e-20)
4(2000 0 0 5.900039844e-20)
0()
0()
0()
0()
0()
0()
0()
0()
4(2000 0 0 9.221200593e-20)
0()
0()
0()
4(2000 0 0 3.443426613e-20)
0()
0()
0()
0()
0()
0()
0()
0()
0()
0()
0()
0()
0()
0()
4(2000 0 0 7.949595607e-20)
0()
0()
0()
4(2000 0 0 1.018861167e-19)
0()
0()
4(2000 0 0 2.621765097e-20)
4(2000 0 0 2.486958569e-20)
0()
0()
4(2000 0 0 7.051485867e-20)
0()
0()
0()
0()
0()
0()
0()
4(2000 0 0 1.552050578e-20)
0()
0()
0()
0()
0()
0()
0()
0()
0()
0()
0()
0()
0()
4(2000 0 0 9.796213642e-20)
0()
0()
0()
0()
0()
0()
0()
0()
0()
0()
0()
0()
0()
0()
0()
0()
0()
0()
0()
0()
0()
0()
0()
0()
0()
0()
0()
0()
0()
0()
0()
0()
0()
0()
0()
0()
0()
0()
4(2000 0 0 6.673768691e-20)
0()
0()
0()
0()
4(2000 0 0 1.056861924e-20)
4(2000 0 0 3.482674557e-20)
4(2000 0 0 2.376423547e-20)
0()
0()
0()
0()
0()
0()
0()
0()
0()
0()
4(2000 0 0 3.129263234e-20)
0()
0()
0()
4(2000 0 0 2.747934053e-20)
0()
0()
0()
4(2000 0 0 7.691022645e-20)
0()
0()
0()
0()
0()
0()
0()
0()
0()
0()
0()
0()
0()
0()
0()
0()
0()
0()
0()
0()
0()
0()
4(2000 0 0 1.016813477e-19)
0()
4(2000 0 0 3.194051918e-20)
0()
0()
0()
0()
4(2000 0 0 5.713828475e-20)
0()
0()
0()
0()
0()
0()
0()
0()
0()
0()
0()
0()
0()
4(2000 0 0 8.61625333e-20)
0()
0()
0()
4(2000 0 0 8.722376656e-21)
0()
0()
0()
0()
4(2000 0 0 2.213619417e-20)
0()
4(2000 0 0 2.791742011e-20)
0()
0()
0()
4(2000 0 0 3.256892517e-20)
0()
0()
0()
0()
0()
4(2000 0 0 1.7921427e-20)
0()
0()
0()
0()
4(2000 0 0 2.893737677e-20)
0()
0()
0()
0()
0()
0()
0()
0()
0()
0()
4(2000 0 0 2.109426871e-20)
0()
0()
4(2000 0 0 1.679092913e-20)
0()
0()
0()
0()
0()
0()
0()
0()
4(2000 0 0 6.644549226e-20)
0()
0()
0()
0()
0()
0()
0()
0()
4(2000 0 0 7.296052786e-20)
0()
4(2000 0 0 1.060813368e-20)
0()
0()
0()
0()
0()
0()
0()
0()
4(2000 0 0 3.432006816e-20)
0()
0()
4(2000 0 0 4.432936526e-20)
0()
4(2000 0 0 8.142129361e-20)
0()
0()
0()
0()
4(2000 0 0 9.466082206e-20)
0()
0()
0()
0()
0()
0()
0()
4(2000 0 0 7.464989194e-20)
4(2000 0 0 1.747233516e-20)
0()
0()
0()
0()
0()
0()
0()
4(2000 0 0 5.497621198e-20)
4(2000 0 0 4.803828192e-20)
0()
4(2000 0 0 1.446843978e-19)
0()
0()
4(2000 0 0 4.288548773e-20)
0()
0()
0()
0()
0()
0()
0()
0()
0()
0()
4(2000 0 0 7.136302576e-20)
0()
4(2000 0 0 8.909061505e-20)
0()
4(2000 0 0 1.059820197e-19)
0()
0()
0()
0()
0()
0()
0()
0()
0()
4(2000 0 0 2.854739302e-20)
0()
0()
0()
0()
0()
0()
4(2000 0 0 2.012555222e-20)
0()
0()
0()
0()
0()
0()
0()
4(2000 0 0 4.367943286e-20)
0()
4(2000 0 0 9.28527523e-20)
0()
0()
0()
0()
0()
4(2000 0 0 1.06555256e-19)
0()
0()
0()
0()
4(2000 0 0 1.504285584e-19)
0()
0()
0()
0()
0()
0()
0()
0()
0()
0()
0()
0()
0()
0()
0()
0()
0()
0()
0()
0()
0()
0()
0()
0()
0()
0()
0()
0()
0()
0()
0()
0()
0()
0()
0()
0()
0()
0()
4(2000 0 0 2.681060875e-20)
0()
0()
4(2000 0 0 1.14809321e-20)
0()
0()
0()
0()
0()
4(2000 0 0 2.775900556e-20)
0()
0()
0()
0()
0()
0()
0()
4(2000 0 0 3.341668712e-20)
0()
0()
0()
4(2000 0 0 4.83996268e-20)
0()
0()
4(2000 0 0 4.188840712e-20)
4(2000 0 0 6.91220308e-20)
4(2000 0 0 1.649255636e-20)
0()
4(2000 0 0 6.859284252e-20)
4(2000 0 0 2.912771264e-20)
0()
0()
0()
4(2000 0 0 2.847569634e-20)
0()
0()
0()
0()
0()
0()
0()
0()
0()
4(2000 0 0 5.406926086e-20)
4(2000 0 0 5.575773992e-20)
4(2000 0 0 3.196471281e-20)
0()
0()
0()
0()
4(2000 0 0 8.906543536e-20)
4(2000 0 0 3.540679215e-20)
0()
0()
0()
0()
0()
0()
4(2000 0 0 4.063797471e-20)
0()
0()
0()
0()
0()
0()
0()
0()
0()
0()
0()
0()
0()
0()
4(2000 0 0 1.178458091e-19)
0()
0()
0()
0()
0()
0()
0()
0()
0()
0()
0()
0()
0()
0()
4(2000 0 0 4.540698442e-20)
0()
0()
0()
4(2000 0 0 2.981715447e-20)
0()
0()
4(2000 0 0 5.330862345e-20)
0()
0()
4(2000 0 0 4.358030776e-20)
4(2000 0 0 4.476241566e-20)
0()
4(2000 0 0 5.080870828e-20)
4(2000 0 0 3.507224262e-20)
0()
0()
0()
0()
0()
0()
0()
0()
0()
4(2000 0 0 6.074561542e-20)
0()
0()
0()
0()
0()
0()
4(2000 0 0 1.738810728e-19)
0()
0()
0()
0()
0()
0()
4(2000 0 0 3.270948438e-21)
4(2000 0 0 3.46684763e-20)
0()
0()
4(2000 0 0 1.191582828e-19)
0()
0()
0()
4(2000 0 0 4.295380267e-20)
0()
0()
4(2000 0 0 2.000045078e-20)
0()
0()
0()
0()
0()
4(2000 0 0 2.804094769e-20)
0()
4(2000 0 0 3.50499202e-20)
4(2000 0 0 1.199982672e-19)
0()
0()
0()
0()
0()
0()
0()
4(2000 0 0 4.072746424e-20)
4(2000 0 0 1.525022016e-20)
0()
0()
0()
0()
0()
0()
0()
0()
0()
4(2000 0 0 4.744915139e-20)
4(2000 0 0 4.185340346e-20)
4(2000 0 0 1.132892308e-19)
4(2000 0 0 4.304694688e-20)
4(2000 0 0 1.257832987e-20)
0()
0()
4(2000 0 0 6.494299087e-20)
0()
0()
0()
4(2000 0 0 1.082975606e-19)
4(2000 0 0 1.446424075e-20)
0()
0()
4(2000 0 0 8.476915073e-20)
0()
4(2000 0 0 1.029256679e-20)
0()
4(2000 0 0 6.150661119e-20)
0()
0()
0()
4(2000 0 0 9.997656792e-20)
0()
4(2000 0 0 2.611894854e-20)
0()
0()
0()
0()
0()
0()
4(2000 0 0 3.158262169e-20)
0()
0()
0()
0()
0()
0()
0()
4(2000 0 0 1.650663477e-20)
4(2000 0 0 1.140998326e-19)
0()
4(2000 0 0 3.524849198e-20)
0()
0()
0()
0()
0()
0()
0()
0()
0()
0()
0()
4(2000 0 0 2.856972652e-20)
4(2000 0 0 3.595263516e-20)
0()
0()
0()
0()
4(2000 0 0 3.935062811e-20)
4(2000 0 0 1.979501734e-20)
0()
0()
0()
0()
0()
0()
0()
0()
4(2000 0 0 3.98480115e-20)
4(2000 0 0 2.14752953e-20)
0()
4(2000 0 0 2.045753965e-19)
0()
0()
4(2000 0 0 4.515796921e-20)
0()
4(2000 0 0 6.257617047e-20)
0()
0()
0()
0()
0()
0()
0()
0()
0()
0()
4(2000 0 0 1.350457922e-19)
4(2000 0 0 3.144446753e-20)
0()
4(2000 0 0 4.04659357e-20)
0()
0()
0()
0()
0()
0()
0()
0()
4(2000 0 0 8.327009382e-20)
0()
0()
0()
0()
4(2000 0 0 4.056888918e-20)
4(2000 0 0 8.16754684e-20)
0()
0()
0()
0()
0()
4(2000 0 0 2.72758001e-20)
0()
0()
0()
0()
4(2000 0 0 1.720447842e-20)
0()
0()
0()
0()
0()
0()
0()
0()
0()
0()
4(2000 0 0 3.73497869e-20)
0()
0()
0()
0()
0()
0()
0()
0()
0()
0()
0()
0()
0()
4(2000 0 0 1.018851354e-19)
0()
0()
4(2000 0 0 2.703650682e-20)
4(2000 0 0 6.112314125e-20)
0()
0()
4(2000 0 0 3.048562482e-20)
4(2000 0 0 1.776091093e-20)
0()
0()
4(2000 0 0 3.322606025e-20)
4(2000 0 0 1.534273658e-20)
0()
4(2000 0 0 7.279031897e-20)
0()
0()
0()
0()
0()
0()
0()
0()
4(2000 0 0 2.664990513e-20)
4(2000 0 0 2.198381422e-20)
4(2000 0 0 1.858287464e-20)
0()
0()
0()
4(2000 0 0 6.306534827e-20)
0()
0()
0()
0()
0()
0()
0()
0()
0()
0()
0()
0()
0()
0()
0()
4(2000 0 0 6.526112977e-20)
0()
0()
0()
4(2000 0 0 9.803290128e-20)
0()
4(2000 0 0 5.404847069e-20)
0()
0()
0()
0()
0()
0()
0()
0()
0()
0()
4(2000 0 0 7.800781156e-20)
0()
0()
0()
0()
0()
0()
0()
0()
4(2000 0 0 3.732910857e-20)
0()
0()
4(2000 0 0 6.268539467e-20)
4(2000 0 0 8.634856411e-20)
0()
0()
0()
4(2000 0 0 1.897435884e-20)
0()
0()
0()
4(2000 0 0 4.434087183e-20)
0()
0()
0()
4(2000 0 0 7.557310723e-20)
4(2000 0 0 3.325376812e-20)
0()
0()
0()
0()
0()
0()
0()
0()
0()
0()
0()
0()
4(2000 0 0 1.140756453e-19)
4(2000 0 0 3.33516033e-20)
4(2000 0 0 5.090477388e-20)
4(2000 0 0 1.105016613e-20)
0()
4(2000 0 0 2.860028326e-20)
0()
4(2000 0 0 2.39039506e-20)
0()
0()
0()
0()
0()
0()
0()
0()
0()
0()
0()
0()
0()
0()
0()
0()
0()
0()
0()
0()
0()
0()
0()
0()
0()
0()
4(2000 0 0 4.451883534e-20)
0()
0()
0()
0()
0()
4(2000 0 0 8.761319941e-20)
4(2000 0 0 1.106794216e-19)
0()
0()
4(2000 0 0 6.836922097e-20)
0()
0()
0()
4(2000 0 0 1.010680701e-19)
0()
0()
0()
0()
0()
0()
0()
0()
4(2000 0 0 1.570783776e-19)
0()
4(2000 0 0 3.116381886e-20)
0()
0()
4(2000 0 0 7.44832784e-20)
4(2000 0 0 6.35805154e-20)
0()
4(2000 0 0 8.117231037e-20)
0()
0()
0()
4(2000 0 0 1.049005531e-20)
4(2000 0 0 3.766092441e-20)
0()
0()
4(2000 0 0 2.960426307e-20)
0()
4(2000 0 0 1.048374232e-19)
0()
0()
4(2000 0 0 1.909926091e-19)
0()
0()
4(2000 0 0 3.681150067e-20)
4(2000 0 0 3.140871335e-20)
0()
0()
0()
0()
0()
4(2000 0 0 8.712246428e-20)
4(2000 0 0 3.005885169e-20)
0()
4(2000 0 0 4.313459154e-20)
0()
4(2000 0 0 6.168117022e-21)
0()
4(2000 0 0 6.766781911e-20)
0()
0()
0()
0()
4(2000 0 0 6.862542277e-20)
0()
0()
0()
0()
0()
0()
0()
0()
0()
0()
0()
0()
0()
0()
0()
0()
4(2000 0 0 1.905156653e-20)
0()
4(2000 0 0 2.478088976e-20)
0()
0()
0()
0()
0()
0()
4(2000 0 0 4.946210751e-20)
0()
0()
0()
0()
4(2000 0 0 7.336395251e-20)
0()
0()
0()
0()
0()
0()
4(2000 0 0 7.270385613e-20)
0()
4(2000 0 0 1.209295444e-19)
0()
0()
0()
0()
4(2000 0 0 7.780096559e-20)
0()
0()
4(2000 0 0 7.930800254e-20)
0()
4(2000 0 0 4.702737735e-20)
0()
0()
4(2000 0 0 7.272398891e-20)
4(2000 0 0 4.718111707e-20)
0()
4(2000 0 0 7.955317062e-20)
0()
0()
4(2000 0 0 9.509163817e-21)
0()
0()
0()
0()
0()
4(2000 0 0 4.130328371e-20)
4(2000 0 0 1.634232934e-19)
0()
4(2000 0 0 1.1143698e-20)
0()
0()
0()
4(2000 0 0 4.710541896e-20)
4(2000 0 0 9.590227138e-20)
0()
0()
0()
4(2000 0 0 3.578898431e-21)
0()
0()
0()
0()
0()
0()
0()
0()
0()
0()
4(2000 0 0 3.84220963e-20)
0()
0()
0()
0()
4(2000 0 0 8.049717512e-20)
0()
0()
0()
0()
4(2000 0 0 5.433772373e-21)
0()
0()
0()
4(2000 0 0 4.361956431e-20)
0()
4(2000 0 0 1.426639662e-20)
4(2000 0 0 1.043288665e-19)
0()
0()
0()
0()
4(2000 0 0 1.671865196e-20)
0()
4(2000 0 0 7.000327624e-20)
4(2000 0 0 3.865803852e-20)
0()
0()
0()
4(2000 0 0 1.918832019e-20)
0()
4(2000 0 0 1.495510261e-19)
4(2000 0 0 4.184695408e-20)
0()
0()
0()
0()
4(2000 0 0 8.991352134e-20)
0()
0()
0()
4(2000 0 0 1.030911842e-19)
0()
4(2000 0 0 4.128472033e-20)
4(2000 0 0 4.519315898e-20)
0()
0()
0()
0()
0()
0()
0()
0()
0()
0()
0()
0()
4(2000 0 0 2.824982482e-20)
0()
4(2000 0 0 1.222250367e-19)
0()
4(2000 0 0 7.985788649e-20)
0()
0()
0()
4(2000 0 0 8.948802255e-20)
4(2000 0 0 3.121014812e-20)
0()
0()
0()
4(2000 0 0 5.852718476e-20)
0()
0()
4(2000 0 0 2.533856407e-20)
0()
0()
4(2000 0 0 9.112421528e-20)
0()
4(2000 0 0 2.474824274e-20)
0()
0()
4(2000 0 0 1.341571782e-20)
0()
0()
4(2000 0 0 3.437164001e-20)
4(2000 0 0 3.838925068e-20)
4(2000 0 0 3.082890909e-20)
0()
0()
0()
0()
0()
4(2000 0 0 7.790816022e-20)
0()
0()
0()
0()
0()
0()
0()
4(2000 0 0 7.310658892e-20)
0()
0()
0()
4(2000 0 0 1.689880092e-20)
0()
0()
4(2000 0 0 1.738280822e-20)
0()
0()
4(2000 0 0 3.137495212e-21)
4(2000 0 0 1.105770993e-19)
0()
0()
4(2000 0 0 3.705917756e-20)
0()
4(2000 0 0 2.789913327e-20)
0()
0()
0()
0()
0()
4(2000 0 0 1.089687245e-19)
0()
4(2000 0 0 3.739650072e-20)
0()
0()
0()
0()
0()
0()
0()
4(2000 0 0 6.20500522e-20)
4(2000 0 0 7.424224014e-20)
0()
0()
0()
0()
4(2000 0 0 1.244427e-19)
0()
0()
0()
4(2000 0 0 1.964376054e-20)
0()
0()
4(2000 0 0 3.619302027e-20)
0()
0()
0()
0()
0()
4(2000 0 0 9.19330896e-20)
4(2000 0 0 6.965923421e-20)
4(2000 0 0 7.085456579e-20)
0()
0()
4(2000 0 0 7.59379288e-20)
4(2000 0 0 7.316953132e-21)
4(2000 0 0 1.918677613e-20)
0()
0()
0()
4(2000 0 0 3.098844559e-20)
4(2000 0 0 6.125841171e-20)
0()
0()
0()
0()
0()
0()
0()
4(2000 0 0 9.047768771e-21)
4(2000 0 0 5.746262037e-20)
4(2000 0 0 3.101838305e-20)
0()
0()
0()
0()
0()
4(2000 0 0 4.511781573e-20)
0()
0()
4(2000 0 0 2.86299428e-20)
0()
4(2000 0 0 1.092945501e-19)
4(2000 0 0 5.680922207e-20)
4(2000 0 0 3.563546066e-20)
0()
4(2000 0 0 3.374249446e-20)
0()
0()
0()
0()
0()
0()
0()
0()
0()
0()
0()
0()
0()
4(2000 0 0 3.890904857e-20)
0()
0()
0()
4(2000 0 0 7.054995135e-20)
0()
0()
0()
0()
4(2000 0 0 1.871225409e-20)
0()
0()
4(2000 0 0 1.922353118e-20)
0()
0()
0()
0()
0()
4(2000 0 0 2.037522642e-20)
0()
0()
0()
0()
4(2000 0 0 1.455077553e-20)
0()
0()
0()
0()
4(2000 0 0 4.982811255e-20)
0()
0()
4(2000 0 0 8.443753635e-20)
0()
0()
4(2000 0 0 2.51421431e-20)
4(2000 0 0 2.34208925e-20)
0()
4(2000 0 0 6.786564493e-20)
0()
0()
0()
0()
4(2000 0 0 8.512621059e-20)
0()
4(2000 0 0 3.34297826e-20)
0()
0()
0()
0()
0()
0()
4(2000 0 0 3.612842573e-20)
0()
4(2000 0 0 8.544305492e-21)
0()
0()
0()
0()
0()
0()
0()
0()
0()
0()
0()
0()
0()
4(2000 0 0 6.016747853e-20)
0()
0()
4(2000 0 0 1.681418892e-20)
0()
0()
0()
0()
4(2000 0 0 1.334694204e-19)
0()
0()
0()
0()
0()
0()
0()
0()
4(2000 0 0 4.283860135e-20)
0()
0()
0()
0()
0()
4(2000 0 0 3.106287814e-20)
0()
0()
0()
0()
0()
0()
0()
0()
0()
0()
0()
0()
4(2000 0 0 6.647173436e-20)
0()
0()
4(2000 0 0 1.716243583e-20)
0()
0()
0()
0()
0()
0()
0()
0()
4(2000 0 0 5.02262195e-20)
4(2000 0 0 5.344025418e-20)
0()
0()
4(2000 0 0 8.015555543e-20)
4(2000 0 0 1.569634527e-20)
0()
0()
4(2000 0 0 1.070986585e-19)
0()
0()
0()
4(2000 0 0 1.002216313e-19)
0()
0()
0()
4(2000 0 0 1.813450993e-20)
0()
0()
0()
4(2000 0 0 1.969361999e-20)
0()
0()
0()
4(2000 0 0 1.276402905e-19)
0()
0()
0()
0()
4(2000 0 0 2.062601684e-20)
0()
4(2000 0 0 2.220582775e-20)
0()
0()
0()
4(2000 0 0 4.358679311e-21)
0()
0()
0()
4(2000 0 0 5.712121619e-20)
0()
4(2000 0 0 2.167502038e-20)
0()
0()
0()
0()
4(2000 0 0 5.66133124e-20)
0()
0()
0()
0()
0()
0()
0()
0()
0()
0()
0()
0()
0()
0()
0()
0()
4(2000 0 0 2.235514119e-20)
0()
0()
4(2000 0 0 5.21601674e-22)
4(2000 0 0 2.918007585e-20)
0()
0()
0()
0()
4(2000 0 0 3.351507233e-20)
0()
0()
4(2000 0 0 1.230282916e-19)
0()
0()
4(2000 0 0 8.454822559e-20)
0()
0()
0()
0()
0()
4(2000 0 0 1.313825256e-19)
0()
0()
0()
4(2000 0 0 8.772882889e-20)
0()
4(2000 0 0 4.968422044e-21)
4(2000 0 0 4.041100411e-20)
0()
0()
0()
0()
0()
0()
0()
0()
0()
0()
0()
0()
4(2000 0 0 9.613413425e-20)
0()
0()
0()
4(2000 0 0 6.625248325e-20)
0()
4(2000 0 0 2.843045898e-20)
0()
0()
4(2000 0 0 1.879483851e-19)
0()
0()
0()
0()
4(2000 0 0 3.32261299e-20)
0()
4(2000 0 0 1.824876905e-19)
0()
0()
0()
0()
4(2000 0 0 6.522730885e-20)
0()
0()
4(2000 0 0 1.026323058e-19)
0()
0()
0()
0()
0()
0()
0()
0()
0()
0()
0()
0()
0()
0()
0()
0()
4(2000 0 0 7.056146924e-20)
0()
0()
0()
0()
0()
0()
0()
0()
0()
0()
0()
0()
0()
0()
4(2000 0 0 2.379472499e-20)
0()
0()
0()
0()
0()
0()
4(2000 0 0 3.109045556e-20)
0()
0()
0()
0()
0()
0()
4(2000 0 0 1.993453973e-20)
0()
0()
4(2000 0 0 1.02277557e-19)
4(2000 0 0 1.514320568e-19)
0()
0()
4(2000 0 0 7.221033722e-20)
0()
0()
4(2000 0 0 6.77290379e-20)
0()
0()
0()
0()
0()
0()
0()
0()
0()
4(2000 0 0 1.035200604e-19)
0()
0()
0()
0()
0()
0()
0()
4(2000 0 0 2.389887558e-20)
4(2000 0 0 5.281757561e-20)
0()
0()
0()
0()
0()
0()
0()
0()
4(2000 0 0 1.229360657e-19)
4(2000 0 0 4.285652784e-20)
4(2000 0 0 2.802059464e-20)
0()
0()
0()
0()
0()
0()
0()
0()
0()
4(2000 0 0 4.027096313e-20)
4(2000 0 0 6.63418638e-20)
4(2000 0 0 2.100928821e-20)
0()
0()
0()
4(2000 0 0 3.679458496e-21)
0()
0()
0()
4(2000 0 0 7.067993732e-20)
0()
0()
0()
0()
0()
4(2000 0 0 5.672152687e-20)
0()
0()
0()
0()
0()
0()
0()
0()
0()
0()
0()
0()
0()
0()
0()
4(2000 0 0 2.537176605e-20)
0()
0()
0()
0()
0()
4(2000 0 0 2.588233773e-20)
0()
4(2000 0 0 3.691807093e-20)
0()
0()
0()
0()
0()
0()
0()
0()
4(2000 0 0 2.392048304e-20)
4(2000 0 0 1.063619249e-19)
0()
0()
0()
0()
0()
0()
0()
0()
4(2000 0 0 9.871065762e-21)
0()
0()
0()
0()
0()
0()
0()
0()
0()
0()
0()
0()
4(2000 0 0 1.18354345e-20)
0()
0()
0()
0()
0()
0()
0()
0()
4(2000 0 0 1.690858067e-20)
0()
0()
0()
0()
0()
0()
4(2000 0 0 1.929632847e-20)
0()
4(2000 0 0 4.983588746e-20)
4(2000 0 0 9.637797103e-21)
0()
0()
0()
4(2000 0 0 6.613263711e-20)
4(2000 0 0 5.62502286e-20)
4(2000 0 0 9.276325254e-20)
0()
0()
0()
0()
0()
0()
0()
0()
0()
4(2000 0 0 5.574690434e-20)
0()
0()
4(2000 0 0 7.335697702e-20)
4(2000 0 0 6.766168596e-20)
4(2000 0 0 4.311607669e-20)
4(2000 0 0 7.434878953e-20)
0()
4(2000 0 0 9.247229274e-20)
0()
0()
0()
0()
0()
0()
0()
0()
0()
4(2000 0 0 7.773460324e-21)
4(2000 0 0 1.456022263e-21)
0()
0()
0()
4(2000 0 0 8.807050761e-20)
0()
4(2000 0 0 3.53890572e-20)
0()
0()
0()
0()
0()
0()
0()
0()
0()
0()
0()
0()
0()
4(2000 0 0 6.279622381e-20)
0()
4(2000 0 0 3.397584187e-20)
0()
0()
0()
0()
4(2000 0 0 4.251490024e-21)
4(2000 0 0 3.29457543e-20)
0()
0()
0()
0()
4(2000 0 0 3.88303685e-20)
0()
0()
0()
0()
0()
0()
0()
0()
0()
0()
0()
0()
4(2000 0 0 5.240269799e-20)
0()
0()
4(2000 0 0 1.822333201e-19)
0()
0()
0()
0()
0()
0()
0()
4(2000 0 0 4.277504392e-20)
0()
0()
0()
0()
0()
4(2000 0 0 4.279344334e-21)
4(2000 0 0 1.534206585e-19)
4(2000 0 0 5.286484921e-20)
0()
0()
4(2000 0 0 6.49104408e-20)
4(2000 0 0 1.227980128e-19)
4(2000 0 0 1.333567656e-20)
4(2000 0 0 9.96845276e-20)
0()
0()
0()
0()
0()
0()
0()
4(2000 0 0 7.80598956e-20)
0()
0()
4(2000 0 0 4.402304932e-20)
0()
0()
0()
0()
4(2000 0 0 1.555870251e-19)
0()
4(2000 0 0 5.549057719e-20)
4(2000 0 0 1.156365291e-20)
0()
0()
0()
4(2000 0 0 9.026499399e-20)
0()
0()
0()
0()
0()
0()
0()
0()
4(2000 0 0 5.702455929e-20)
4(2000 0 0 3.309362712e-20)
4(2000 0 0 4.615502619e-20)
0()
0()
4(2000 0 0 2.658841607e-20)
0()
0()
0()
0()
4(2000 0 0 1.218709675e-20)
0()
0()
0()
0()
0()
4(2000 0 0 5.607714101e-20)
4(2000 0 0 4.346156958e-20)
0()
0()
0()
0()
0()
0()
4(2000 0 0 2.671656878e-20)
4(2000 0 0 3.992068213e-20)
4(2000 0 0 1.216764487e-19)
0()
0()
0()
0()
0()
0()
0()
0()
0()
4(2000 0 0 1.775679353e-20)
4(2000 0 0 6.991550908e-20)
0()
0()
0()
0()
0()
0()
0()
0()
0()
0()
0()
0()
0()
0()
0()
0()
0()
4(2000 0 0 9.522588438e-20)
0()
0()
0()
0()
0()
4(2000 0 0 2.513881525e-20)
4(2000 0 0 1.532320877e-19)
0()
0()
0()
0()
0()
0()
0()
0()
0()
0()
0()
0()
0()
0()
0()
0()
0()
0()
0()
0()
0()
4(2000 0 0 7.107290964e-20)
0()
0()
0()
0()
0()
0()
0()
0()
0()
4(2000 0 0 3.214185001e-20)
4(2000 0 0 5.31559164e-20)
0()
0()
4(2000 0 0 1.689335069e-20)
0()
0()
0()
0()
0()
0()
0()
4(2000 0 0 6.93936733e-21)
0()
0()
0()
0()
0()
0()
0()
0()
0()
0()
0()
0()
4(2000 0 0 2.809031597e-20)
0()
0()
0()
0()
0()
4(2000 0 0 4.499320616e-20)
4(2000 0 0 2.36390424e-19)
0()
0()
4(2000 0 0 8.11331099e-20)
0()
4(2000 0 0 3.17569997e-20)
0()
4(2000 0 0 3.896856129e-20)
0()
0()
0()
0()
0()
0()
4(2000 0 0 2.557513987e-20)
0()
4(2000 0 0 1.273393092e-20)
4(2000 0 0 1.808937751e-20)
4(2000 0 0 1.509757012e-19)
0()
0()
0()
0()
0()
4(2000 0 0 6.549567818e-20)
0()
0()
4(2000 0 0 7.170620912e-20)
0()
0()
0()
0()
0()
0()
0()
0()
0()
0()
0()
0()
0()
0()
0()
0()
0()
0()
4(2000 0 0 7.255906595e-20)
0()
0()
0()
4(2000 0 0 5.844048242e-20)
0()
0()
0()
0()
0()
0()
0()
0()
0()
4(2000 0 0 6.73125617e-20)
0()
4(2000 0 0 1.978856348e-20)
4(2000 0 0 9.218967783e-20)
0()
0()
0()
0()
0()
0()
4(2000 0 0 3.579699485e-20)
0()
0()
0()
0()
0()
0()
0()
0()
0()
4(2000 0 0 4.261760283e-20)
0()
0()
0()
0()
4(2000 0 0 2.25299239e-20)
0()
0()
4(2000 0 0 8.436884766e-20)
0()
0()
0()
0()
4(2000 0 0 5.263683827e-20)
4(2000 0 0 1.383471777e-19)
0()
0()
0()
0()
0()
0()
0()
0()
0()
4(2000 0 0 3.941524252e-21)
0()
4(2000 0 0 7.882554271e-20)
0()
4(2000 0 0 4.733453919e-20)
0()
4(2000 0 0 2.23723656e-20)
0()
0()
0()
0()
0()
0()
0()
0()
0()
0()
4(2000 0 0 7.373546002e-20)
0()
0()
4(2000 0 0 1.571127389e-19)
0()
0()
0()
0()
0()
4(2000 0 0 1.866441108e-20)
0()
0()
4(2000 0 0 9.470950402e-20)
0()
4(2000 0 0 3.397379422e-20)
0()
0()
0()
0()
0()
0()
0()
4(2000 0 0 1.947626909e-20)
0()
0()
4(2000 0 0 5.937523434e-20)
0()
0()
0()
4(2000 0 0 7.549694014e-20)
0()
4(2000 0 0 3.888950883e-20)
0()
0()
4(2000 0 0 3.421092248e-20)
0()
0()
4(2000 0 0 2.551086665e-20)
4(2000 0 0 3.4397834e-20)
0()
0()
0()
4(2000 0 0 6.316101204e-20)
0()
0()
4(2000 0 0 6.029415749e-20)
0()
4(2000 0 0 1.015179621e-20)
0()
0()
0()
0()
0()
0()
4(2000 0 0 7.589315094e-20)
0()
0()
0()
0()
4(2000 0 0 6.553083035e-20)
0()
4(2000 0 0 1.317456413e-19)
0()
0()
0()
0()
0()
0()
4(2000 0 0 9.153237305e-20)
0()
0()
0()
0()
4(2000 0 0 6.690011741e-20)
0()
0()
4(2000 0 0 3.911986979e-20)
0()
0()
0()
0()
0()
4(2000 0 0 6.585766516e-20)
0()
0()
4(2000 0 0 3.077493758e-20)
4(2000 0 0 6.341508772e-20)
0()
0()
0()
0()
0()
0()
0()
0()
4(2000 0 0 3.758022536e-20)
0()
0()
4(2000 0 0 1.085124249e-19)
0()
0()
0()
0()
0()
4(2000 0 0 1.615746649e-19)
0()
0()
0()
0()
0()
0()
0()
0()
4(2000 0 0 3.870246447e-20)
0()
0()
4(2000 0 0 1.482945819e-20)
0()
0()
4(2000 0 0 4.132253291e-20)
0()
0()
4(2000 0 0 5.248923138e-20)
0()
0()
0()
0()
0()
0()
0()
0()
4(2000 0 0 3.645732061e-20)
4(2000 0 0 7.091458734e-21)
0()
0()
0()
0()
0()
0()
0()
0()
0()
0()
0()
0()
0()
0()
4(2000 0 0 8.968556898e-21)
0()
0()
0()
0()
0()
0()
0()
0()
4(2000 0 0 1.439429792e-19)
0()
4(2000 0 0 3.967320707e-20)
0()
4(2000 0 0 7.706943133e-20)
4(2000 0 0 9.515640208e-21)
4(2000 0 0 7.351836394e-20)
4(2000 0 0 1.254382939e-20)
0()
0()
0()
0()
0()
0()
0()
0()
0()
0()
0()
0()
0()
4(2000 0 0 4.496613881e-20)
4(2000 0 0 5.62820127e-20)
0()
0()
0()
0()
0()
4(2000 0 0 6.125085456e-20)
0()
4(2000 0 0 2.747180459e-20)
0()
0()
0()
0()
4(2000 0 0 7.604776033e-20)
0()
0()
0()
0()
0()
0()
0()
4(2000 0 0 8.717342697e-20)
0()
0()
0()
0()
0()
0()
0()
0()
0()
4(2000 0 0 2.827129215e-20)
0()
0()
0()
4(2000 0 0 1.863068504e-20)
0()
0()
0()
0()
4(2000 0 0 3.886130024e-20)
0()
0()
0()
0()
0()
4(2000 0 0 5.186618412e-20)
4(2000 0 0 2.855526098e-20)
0()
0()
0()
0()
0()
0()
4(2000 0 0 6.496300914e-20)
0()
0()
0()
0()
0()
0()
0()
0()
0()
0()
0()
0()
0()
0()
0()
0()
0()
0()
0()
0()
0()
4(2000 0 0 1.201813613e-20)
0()
0()
0()
0()
0()
0()
0()
0()
0()
0()
0()
0()
4(2000 0 0 5.382317574e-20)
0()
4(2000 0 0 1.471353698e-20)
4(2000 0 0 1.861773146e-19)
4(2000 0 0 1.788918134e-20)
0()
0()
0()
0()
0()
4(2000 0 0 3.904176576e-20)
0()
0()
0()
0()
0()
0()
0()
4(2000 0 0 1.204796506e-19)
0()
0()
0()
0()
0()
0()
0()
0()
0()
4(2000 0 0 3.918353403e-20)
0()
0()
0()
0()
0()
4(2000 0 0 4.882452336e-20)
0()
0()
0()
0()
0()
4(2000 0 0 1.297504423e-19)
0()
0()
0()
0()
4(2000 0 0 5.137973316e-20)
0()
4(2000 0 0 1.012874991e-20)
0()
0()
0()
0()
0()
4(2000 0 0 4.824522647e-20)
4(2000 0 0 2.379436326e-20)
0()
0()
0()
0()
0()
4(2000 0 0 3.935952714e-20)
0()
4(2000 0 0 6.645009371e-20)
0()
0()
0()
0()
0()
0()
0()
0()
0()
0()
0()
0()
0()
0()
0()
0()
0()
0()
0()
0()
0()
0()
0()
4(2000 0 0 2.24943966e-20)
4(2000 0 0 5.069712724e-20)
0()
0()
0()
0()
0()
0()
0()
0()
0()
0()
0()
0()
0()
0()
0()
0()
0()
0()
0()
0()
0()
0()
0()
0()
0()
0()
0()
4(2000 0 0 7.781579548e-20)
0()
0()
0()
4(2000 0 0 1.084888339e-19)
0()
0()
0()
0()
0()
0()
0()
4(2000 0 0 3.82559291e-20)
0()
0()
0()
0()
0()
0()
0()
0()
0()
0()
0()
0()
0()
0()
4(2000 0 0 6.928046546e-20)
0()
4(2000 0 0 2.783343671e-20)
4(2000 0 0 9.270828523e-20)
0()
4(2000 0 0 1.352614991e-19)
0()
0()
0()
0()
0()
4(2000 0 0 4.628889645e-20)
0()
0()
0()
0()
4(2000 0 0 8.66321026e-20)
0()
0()
0()
0()
0()
0()
0()
0()
0()
0()
4(2000 0 0 6.154081049e-20)
4(2000 0 0 1.032646268e-19)
0()
0()
4(2000 0 0 4.221907539e-21)
0()
4(2000 0 0 3.229130084e-20)
4(2000 0 0 1.888382338e-20)
0()
0()
0()
4(2000 0 0 3.208739515e-20)
0()
0()
0()
0()
4(2000 0 0 1.502496371e-19)
4(2000 0 0 3.017750718e-20)
0()
4(2000 0 0 8.132117418e-20)
0()
4(2000 0 0 2.621560759e-20)
0()
4(2000 0 0 8.158366393e-22)
0()
4(2000 0 0 1.831274124e-20)
0()
0()
0()
0()
0()
4(2000 0 0 3.197762078e-20)
4(2000 0 0 9.900524342e-20)
0()
0()
0()
0()
0()
0()
0()
0()
0()
0()
4(2000 0 0 9.466309993e-21)
0()
0()
4(2000 0 0 1.921820621e-20)
0()
0()
4(2000 0 0 1.60804917e-20)
0()
0()
0()
4(2000 0 0 6.815540574e-20)
0()
0()
0()
0()
4(2000 0 0 1.517523204e-20)
0()
4(2000 0 0 7.153008071e-20)
4(2000 0 0 6.180028271e-20)
0()
0()
0()
0()
0()
0()
0()
0()
0()
4(2000 0 0 2.77437143e-20)
0()
0()
0()
0()
0()
0()
0()
4(2000 0 0 2.616197517e-20)
0()
0()
4(2000 0 0 6.091646353e-20)
0()
0()
0()
4(2000 0 0 6.395127229e-20)
0()
0()
0()
0()
4(2000 0 0 3.648668159e-20)
0()
0()
0()
0()
0()
4(2000 0 0 3.344457063e-20)
0()
0()
0()
0()
0()
0()
0()
0()
0()
4(2000 0 0 9.718445955e-20)
0()
0()
4(2000 0 0 1.696339346e-19)
0()
0()
0()
0()
0()
0()
0()
0()
0()
4(2000 0 0 1.885546979e-20)
0()
0()
0()
0()
0()
0()
0()
4(2000 0 0 6.629190029e-20)
0()
0()
0()
0()
4(2000 0 0 4.190136941e-20)
0()
0()
0()
4(2000 0 0 9.588825634e-21)
0()
0()
0()
4(2000 0 0 1.266268489e-19)
0()
4(2000 0 0 1.055990337e-20)
0()
0()
4(2000 0 0 2.563741462e-20)
4(2000 0 0 6.429930211e-20)
0()
0()
4(2000 0 0 2.786374317e-19)
4(2000 0 0 4.179705289e-20)
0()
0()
0()
0()
0()
0()
0()
0()
0()
4(2000 0 0 2.959823395e-20)
4(2000 0 0 2.590840809e-20)
0()
0()
0()
0()
0()
4(2000 0 0 1.427644016e-20)
0()
0()
0()
0()
0()
0()
0()
4(2000 0 0 5.198089476e-20)
0()
0()
0()
0()
0()
0()
0()
4(2000 0 0 7.27572726e-20)
0()
0()
0()
0()
0()
0()
0()
0()
0()
0()
4(2000 0 0 2.473233276e-20)
0()
0()
0()
0()
4(2000 0 0 3.027584077e-20)
4(2000 0 0 4.825141337e-20)
0()
4(2000 0 0 3.197245373e-20)
0()
0()
0()
4(2000 0 0 5.878850951e-20)
0()
4(2000 0 0 4.75568079e-20)
0()
4(2000 0 0 8.736689641e-20)
0()
0()
0()
0()
0()
4(2000 0 0 2.204246523e-20)
0()
0()
0()
0()
0()
0()
0()
0()
0()
4(2000 0 0 6.150704445e-20)
0()
0()
0()
0()
0()
4(2000 0 0 2.064280468e-20)
0()
4(2000 0 0 8.190848024e-20)
4(2000 0 0 1.109443771e-19)
0()
0()
4(2000 0 0 8.050972178e-20)
0()
0()
0()
0()
0()
0()
4(2000 0 0 5.265223474e-20)
4(2000 0 0 1.601423766e-20)
0()
0()
4(2000 0 0 2.543659204e-20)
0()
0()
0()
0()
0()
0()
0()
0()
0()
0()
0()
0()
0()
0()
0()
0()
0()
0()
0()
0()
0()
0()
4(2000 0 0 5.088246972e-20)
0()
0()
0()
4(2000 0 0 8.948737258e-20)
0()
0()
0()
0()
0()
0()
4(2000 0 0 9.902291755e-20)
0()
4(2000 0 0 3.670625427e-20)
0()
4(2000 0 0 4.540786001e-20)
0()
0()
0()
0()
0()
0()
0()
0()
0()
4(2000 0 0 1.417745959e-19)
0()
0()
0()
0()
0()
0()
0()
0()
0()
0()
0()
4(2000 0 0 8.303481022e-21)
4(2000 0 0 3.357536622e-20)
0()
0()
4(2000 0 0 7.478501804e-20)
0()
0()
0()
0()
4(2000 0 0 1.046144722e-19)
0()
0()
0()
0()
0()
0()
0()
0()
0()
0()
0()
4(2000 0 0 2.768412945e-20)
0()
0()
0()
4(2000 0 0 1.292519181e-19)
0()
0()
0()
4(2000 0 0 5.6113537e-20)
0()
0()
0()
4(2000 0 0 5.112647198e-20)
0()
4(2000 0 0 3.459685044e-20)
0()
0()
0()
0()
4(2000 0 0 9.78214485e-20)
0()
0()
0()
0()
4(2000 0 0 6.211806989e-20)
0()
0()
0()
0()
0()
0()
0()
0()
0()
0()
4(2000 0 0 1.878084586e-20)
4(2000 0 0 6.165994375e-20)
0()
4(2000 0 0 5.851408148e-21)
0()
0()
0()
0()
0()
4(2000 0 0 7.986351831e-20)
0()
0()
0()
0()
0()
4(2000 0 0 2.595619751e-20)
0()
0()
0()
0()
0()
0()
0()
4(2000 0 0 5.182126047e-20)
0()
0()
0()
0()
0()
0()
0()
0()
0()
0()
0()
4(2000 0 0 1.359149305e-19)
0()
0()
0()
0()
0()
0()
0()
0()
0()
0()
0()
0()
0()
0()
4(2000 0 0 1.263559412e-19)
0()
0()
0()
0()
0()
0()
0()
0()
0()
0()
4(2000 0 0 8.321902141e-20)
4(2000 0 0 6.826094306e-20)
0()
0()
0()
4(2000 0 0 3.321420667e-20)
4(2000 0 0 9.778814654e-20)
0()
0()
0()
0()
0()
0()
4(2000 0 0 2.713516003e-20)
0()
4(2000 0 0 1.667077312e-19)
0()
4(2000 0 0 2.374911107e-20)
0()
0()
4(2000 0 0 2.846656399e-20)
4(2000 0 0 1.323451736e-19)
0()
0()
0()
4(2000 0 0 1.404297588e-19)
0()
0()
0()
0()
0()
0()
0()
0()
0()
0()
0()
0()
0()
4(2000 0 0 1.000828022e-20)
0()
0()
4(2000 0 0 1.404224931e-19)
0()
4(2000 0 0 6.844056335e-20)
4(2000 0 0 3.886210527e-20)
0()
4(2000 0 0 4.710049983e-20)
0()
0()
0()
0()
0()
0()
0()
0()
0()
0()
0()
0()
4(2000 0 0 6.227635361e-20)
0()
0()
0()
0()
0()
0()
4(2000 0 0 5.546975063e-20)
0()
0()
0()
0()
0()
4(2000 0 0 1.659681407e-20)
4(2000 0 0 3.900204831e-20)
0()
0()
4(2000 0 0 6.445608977e-20)
0()
0()
0()
4(2000 0 0 6.252398677e-21)
0()
0()
0()
0()
0()
0()
0()
0()
0()
0()
0()
0()
0()
0()
0()
0()
0()
0()
0()
0()
0()
4(2000 0 0 4.003566633e-20)
0()
0()
0()
0()
0()
0()
0()
0()
0()
4(2000 0 0 9.817602711e-21)
0()
0()
0()
0()
0()
0()
0()
0()
0()
0()
4(2000 0 0 2.998054805e-20)
0()
0()
4(2000 0 0 6.41291457e-20)
0()
4(2000 0 0 3.289829974e-20)
0()
0()
4(2000 0 0 2.053247075e-19)
0()
4(2000 0 0 6.105182215e-20)
4(2000 0 0 7.411514957e-21)
0()
0()
4(2000 0 0 2.983759576e-20)
0()
0()
0()
0()
0()
0()
0()
0()
0()
0()
0()
0()
0()
0()
0()
0()
0()
0()
0()
0()
4(2000 0 0 4.344860036e-21)
0()
0()
4(2000 0 0 8.764528456e-20)
0()
0()
0()
0()
4(2000 0 0 6.387132268e-20)
0()
0()
4(2000 0 0 8.261911923e-20)
0()
0()
4(2000 0 0 5.366610891e-20)
0()
0()
4(2000 0 0 2.325897393e-20)
0()
0()
0()
0()
0()
0()
0()
4(2000 0 0 6.828172127e-20)
0()
0()
4(2000 0 0 3.545085539e-20)
0()
0()
0()
0()
0()
4(2000 0 0 3.874532734e-20)
0()
0()
0()
0()
0()
4(2000 0 0 1.238235827e-19)
0()
0()
0()
0()
0()
0()
0()
0()
0()
4(2000 0 0 4.48415619e-20)
0()
0()
0()
0()
0()
0()
0()
0()
0()
0()
0()
0()
0()
0()
4(2000 0 0 1.269313866e-19)
0()
0()
0()
4(2000 0 0 4.804741283e-20)
0()
4(2000 0 0 7.198273228e-20)
4(2000 0 0 8.845089197e-20)
0()
0()
0()
4(2000 0 0 4.796283937e-20)
4(2000 0 0 2.40334173e-20)
0()
0()
0()
0()
0()
0()
0()
0()
4(2000 0 0 3.223606997e-20)
0()
4(2000 0 0 2.325621515e-20)
0()
0()
0()
4(2000 0 0 4.341635075e-20)
4(2000 0 0 3.851196098e-20)
0()
0()
0()
0()
0()
0()
0()
0()
0()
0()
4(2000 0 0 6.01895322e-20)
4(2000 0 0 1.806600719e-20)
0()
0()
0()
0()
0()
0()
4(2000 0 0 6.552336983e-20)
0()
0()
0()
0()
0()
4(2000 0 0 8.855944903e-20)
4(2000 0 0 3.301247468e-20)
0()
0()
0()
0()
0()
0()
0()
4(2000 0 0 4.923532113e-20)
0()
0()
0()
0()
0()
0()
0()
0()
0()
0()
4(2000 0 0 3.255318846e-20)
0()
0()
0()
0()
0()
0()
0()
4(2000 0 0 6.023013633e-20)
4(2000 0 0 8.805259681e-20)
0()
0()
0()
0()
0()
4(2000 0 0 6.632182839e-20)
0()
0()
0()
0()
0()
0()
0()
0()
0()
0()
0()
0()
0()
0()
4(2000 0 0 1.10061443e-19)
0()
0()
0()
0()
0()
4(2000 0 0 2.437430266e-20)
0()
0()
0()
0()
4(2000 0 0 1.580638183e-20)
0()
0()
0()
0()
4(2000 0 0 6.357278947e-20)
0()
0()
4(2000 0 0 4.626622189e-20)
0()
0()
0()
0()
0()
0()
4(2000 0 0 9.07986577e-20)
0()
0()
0()
0()
0()
4(2000 0 0 1.297866973e-20)
0()
0()
0()
4(2000 0 0 1.464282141e-20)
0()
0()
0()
0()
0()
4(2000 0 0 2.523779751e-20)
0()
4(2000 0 0 8.200163003e-20)
0()
0()
0()
0()
0()
4(2000 0 0 8.980006788e-21)
0()
0()
4(2000 0 0 3.337011842e-20)
0()
4(2000 0 0 1.519951288e-20)
0()
0()
0()
0()
0()
0()
0()
0()
0()
0()
0()
4(2000 0 0 1.816522073e-20)
4(2000 0 0 1.188055077e-19)
0()
0()
0()
4(2000 0 0 1.057997838e-19)
0()
0()
0()
0()
0()
0()
0()