/*--------------------------------*- C++ -*----------------------------------*\
| =========                 |                                                 |
| \\      /  F ield         | OpenFOAM: The Open Source CFD Toolbox           |
|  \\    /   O peration     | Version:  v1612+-hyStrath                       |
|   \\  /    A nd           | Web:      www.OpenFOAM.com                      |
|    \\/     M anipulation  |                                                 |
\*---------------------------------------------------------------------------*/
FoamFile
{
    version     2.0;
    format      ascii;
    class       volScalarField;
    location    "0.016";
    object      kappatr;
}
// * * * * * * * * * * * * * * * * * * * * * * * * * * * * * * * * * * * * * //

dimensions      [1 1 -3 -1 0 0 0];

internalField   nonuniform List<scalar> 
141100
(
0.02823293638
0.02818681886
0.03066535026
0.02814432348
0.03059181382
0.03281480017
0.02822235957
0.03052910823
0.03284083504
0.03484804884
0.02828626857
0.03066970772
0.03286621678
0.03489966221
0.03675450614
0.02829269308
0.03079335184
0.03293036599
0.03495487564
0.03679913943
0.03843342255
0.02823168291
0.03080849217
0.03299476048
0.03500608315
0.03682668656
0.03853653801
0.04005161409
0.02817125233
0.03069602093
0.03301545509
0.03501508196
0.03692265661
0.03861296089
0.04015872471
0.04161692716
0.02818276857
0.03059651225
0.03297819561
0.03504311228
0.036933481
0.03866133325
0.04024611446
0.04168816485
0.04306726125
0.02825355176
0.03062431345
0.0329676873
0.03506854789
0.03696635031
0.03868096386
0.04029273935
0.04174644761
0.04313698428
0.04441249889
0.02826280819
0.03075422541
0.0330063906
0.03508559313
0.03699444032
0.03871239346
0.04031393221
0.041832962
0.04319752767
0.04451563478
0.04567980438
0.02828151675
0.03077888834
0.03306429737
0.03513118449
0.03697863876
0.0387468132
0.04034842376
0.0418527915
0.04325168605
0.04457085233
0.04579255323
0.04692589558
0.0283520036
0.03081955051
0.03310182657
0.03518415332
0.03702833288
0.03878483388
0.04038487149
0.04189073362
0.0432730271
0.04459852767
0.04587484542
0.04702687583
0.04809661424
0.02835674033
0.0309552274
0.03315316375
0.03522515501
0.03708440681
0.03883745113
0.04043257806
0.04192960962
0.04330897625
0.04464812456
0.04590102168
0.04711325689
0.04817352527
0.04919805953
0.02829005823
0.03096686188
0.03322725743
0.03523157414
0.03712932105
0.03885164675
0.04048763079
0.04194264181
0.04335551927
0.04468348433
0.04594919134
0.04716207112
0.04823431673
0.04925970808
0.05024738848
0.02827833762
0.03084554644
0.03324371036
0.0352502682
0.03713856301
0.03889899414
0.04050501133
0.04200015407
0.04340054041
0.04470329975
0.04598505329
0.04717981887
0.04830484432
0.0493179719
0.05030746968
0.05124431761
0.02826721248
0.03081651861
0.03319925988
0.03527043244
0.03716187714
0.0389578307
0.04055205798
0.04205918443
0.04346008666
0.04478014234
0.04600779118
0.0472171614
0.04834486844
0.04938367479
0.05036270183
0.05131339245
0.05217515321
0.02819704249
0.030792797
0.03315258783
0.03529484099
0.03718574962
0.03898650879
0.04061692312
0.04210331944
0.04352212533
0.04483977982
0.046081802
0.04726646659
0.04837982334
0.04944432539
0.05042327694
0.05136481228
0.05223967589
0.05304221
0.02819370603
0.03066198096
0.03306448243
0.03528844562
0.03721424541
0.03901392533
0.0406489709
0.04213707732
0.04356706406
0.04487291043
0.0461148395
0.04731639833
0.04840590073
0.04947723591
0.05048068624
0.05142029927
0.05228649976
0.05308879103
0.05385697587
0.02821285295
0.03065268989
0.03300302494
0.03519759405
0.03720498501
0.03904370092
0.04067931233
0.04217037058
0.04360338078
0.04491558349
0.04614771116
0.04734988158
0.04843333691
0.04948149156
0.05051238527
0.05145553212
0.05233825774
0.05313012409
0.05391401286
0.05462690901
0.02828264978
0.03070226227
0.03305164034
0.03514081543
0.03716623262
0.03898421559
0.04071003551
0.0422028693
0.04363566259
0.04498925074
0.04619001026
0.04737741077
0.04849123697
0.04951070901
0.05051754619
0.05148680645
0.0523714944
0.0531793998
0.05396268429
0.05467763829
0.0553426591
0.02829141073
0.0308297743
0.03306102664
0.03519410789
0.03710304992
0.03890512421
0.04065041978
0.04223604843
0.04366969344
0.04504877835
0.04626461099
0.04742234236
0.04853872426
0.04956674836
0.05054714535
0.0515106768
0.05239999011
0.05322764673
0.05399328423
0.05472257957
0.05538252576
0.05598891784
0.02830745319
0.03085259336
0.03311651609
0.0352159952
0.03711050154
0.03883797372
0.04052584841
0.04218018886
0.04367342486
0.04508474479
0.04635145908
0.04749311137
0.04858197642
0.04963194897
0.05060070551
0.05153941308
0.05242400941
0.05325386038
0.05402568938
0.0547491433
0.05541207796
0.05603232148
0.05658420205
0.02836668339
0.03088666453
0.03314830957
0.03520793383
0.03714467888
0.0388498595
0.04045726821
0.04208645506
0.04362341506
0.04506124695
0.04638955044
0.04755328763
0.04865398694
0.04967372621
0.05066134671
0.05157052819
0.0524514312
0.05326016436
0.05405037596
0.05476623561
0.05544723572
0.05605847899
0.05661707874
0.05713591892
0.02836819633
0.0309897601
0.03318855037
0.03524581654
0.03713420966
0.03889075956
0.04047272914
0.04205716359
0.04355607938
0.04501785559
0.04637088918
0.04759342476
0.04871184397
0.04972254961
0.05070015209
0.05160897834
0.05247959289
0.05328606049
0.05405462484
0.0547905045
0.05546330245
0.05608954118
0.05663982468
0.05715900219
0.05763826789
0.02831143251
0.03092840406
0.03327599341
0.03528475701
0.03717243257
0.03892190201
0.04052029548
0.04207704338
0.04349479651
0.04493931699
0.04633045687
0.04757870496
0.0487297814
0.04978214851
0.05072786751
0.05166396869
0.05251350322
0.05332741493
0.05407854464
0.05480459177
0.05548663466
0.05610453938
0.05666777474
0.0571782981
0.05765840345
0.05808284463
0.02831134148
0.0308332886
0.03321315598
0.03531061339
0.03721416414
0.03895944029
0.04059068154
0.04208555865
0.04351922893
0.04485080717
0.04624775232
0.0475391474
0.0487172837
0.04980145968
0.05076732863
0.05170970346
0.05256539627
0.05337372855
0.05411549749
0.05482612763
0.0555093579
0.05612539226
0.05669140605
0.05720333693
0.05767431499
0.05810024591
0.05848662814
0.02836467059
0.03089938069
0.03314555578
0.03530954219
0.03723318979
0.03896074115
0.04062867534
0.04211927874
0.04355821001
0.04487720867
0.04616210607
0.04745806791
0.04867744811
0.04981192667
0.05080791157
0.05175033315
0.05261124261
0.0534077034
0.05415878138
0.05485858989
0.05552812602
0.05614524855
0.05670847822
0.05722459593
0.0576964721
0.05811291836
0.05850119647
0.05885106855
0.0282967885
0.03098999827
0.03321175625
0.03531347134
0.03718750944
0.03898061363
0.04059091581
0.04215737426
0.04359129486
0.04494407337
0.04618889348
0.04737222059
0.04860185669
0.04977094024
0.05083852891
0.05178937041
0.05265151343
0.05343525413
0.05419174617
0.05488655682
0.05554446092
0.05616140899
0.05671646428
0.05723956197
0.05770671998
0.05813270642
0.05851078239
0.05886251695
0.05916706766
0.0282202053
0.03086100426
0.03328284402
0.03532007039
0.03720515873
0.03893659032
0.04056994737
0.04215897987
0.04363065761
0.04497986295
0.04625136663
0.04739786823
0.04853747419
0.04970384287
0.05079921931
0.05180030982
0.05268942311
0.05347341267
0.05421665194
0.05491879344
0.05555893186
0.05617425036
0.0567302928
0.05724482026
0.05771974893
0.05814775011
0.05852830586
0.05886916058
0.0591806633
0.05944634468
0.02822638055
0.03072263826
0.0331566649
0.03532634502
0.03725871999
0.03895568801
0.04057211761
0.04217599838
0.04363233776
0.04502204091
0.04626047445
0.04745891488
0.04856125221
0.04965874812
0.05073726882
0.05176306147
0.05269913439
0.05351083769
0.05425187288
0.05495325833
0.05558886364
0.05618619541
0.05674997627
0.05725633494
0.05773077505
0.05815763412
0.05854087748
0.05888464271
0.05918368201
0.05945789727
0.05969098622
0.02828970072
0.03073739294
0.03302875237
0.03525107874
0.03725593311
0.03901324622
0.04063286016
0.04214407521
0.04365427114
0.04501800974
0.04630270103
0.04746959111
0.04859948556
0.04965780382
0.05069252724
0.05170517606
0.05266459867
0.05353668402
0.05428824947
0.05498441938
0.05563324669
0.05620400585
0.05676938417
0.05727240276
0.05773995381
0.05816000096
0.05854868745
0.05888890242
0.05919317971
0.05945838667
0.05969735141
0.05989763396
0.02829172943
0.03084606573
0.03305053587
0.03518581594
0.03717757012
0.03905258667
0.04065155241
0.04216869377
0.04362361327
0.04501329675
0.04632461731
0.04750854063
0.04861068743
0.0496764409
0.05066811739
0.05164444063
0.05259200329
0.05350269877
0.05431430318
0.05501923906
0.05567031604
0.05624463917
0.05678556687
0.05728966084
0.05775266016
0.05816681646
0.0585487203
0.05889481177
0.05919978029
0.05946589877
0.05969577921
0.05990579222
0.06007480623
0.02829921449
0.0308512965
0.03313918624
0.03515861582
0.03712151224
0.03896198177
0.0406861208
0.0422260634
0.0436457391
0.0450166146
0.04632487208
0.04753120484
0.04864352003
0.04970666709
0.05068738552
0.05163744503
0.05251884993
0.05341985093
0.05428255718
0.05503403476
0.05569225797
0.05628769818
0.05681086742
0.05731379638
0.05775944242
0.05817681934
0.05855329609
0.0588983977
0.05920301648
0.05947040209
0.05970488342
0.05990449954
0.06008185125
0.06022501405
0.02836006377
0.03086263218
0.03314432452
0.03518052409
0.03709497091
0.03887014113
0.04063109407
0.04225293526
0.04370524554
0.04503695476
0.04632855491
0.04753468851
0.04864541526
0.04973519656
0.05073544416
0.05165266809
0.0525277214
0.05335153291
0.05420469118
0.05500498051
0.05569723152
0.05629802298
0.05684192123
0.05733316558
0.05778140536
0.05818817222
0.05856084299
0.05890089372
0.0592007058
0.05947132362
0.05970731518
0.05990903447
0.06007911472
0.06023082188
0.06034930647
0.02837498745
0.03097137736
0.03314886387
0.0352379626
0.03710440393
0.03889025678
0.04054536659
0.04216450176
0.04369177339
0.04506756144
0.04631899488
0.0475384963
0.04865014036
0.04971801358
0.05076181598
0.05168060172
0.05255506425
0.05335739391
0.0541407784
0.05494391776
0.05567168407
0.05630518648
0.05686064202
0.0573538475
0.05780431906
0.05820683873
0.05856968003
0.05890610247
0.05920119212
0.05946775619
0.05970578965
0.05991001358
0.06008196065
0.0602250005
0.06035552115
0.06045132391
0.02837756686
0.03100166548
0.03324766616
0.03523118159
0.03716323557
0.03889311015
0.04056351729
0.04208098973
0.0435763806
0.04504686619
0.04635128976
0.04752854166
0.0486541183
0.04972302148
0.05074732139
0.05170621307
0.0525642184
0.05339596668
0.05414317724
0.05488355226
0.05562546026
0.0562813011
0.05686833591
0.05737068793
0.05782330806
0.05822014428
0.05858630749
0.05890700709
0.05920438402
0.05946635811
0.05970182294
0.0599060244
0.0600808545
0.06022654598
0.06034926706
0.06045661319
0.06053287194
0.02836612334
0.03100300596
0.03328406402
0.03527733522
0.03709797963
0.03890702727
0.04052173242
0.04209591488
0.04349279856
0.04493952849
0.04635518753
0.04755997307
0.04866890217
0.04972690741
0.05075258654
0.05169168818
0.05259089293
0.05340442547
0.05417757318
0.05488243669
0.05557913127
0.05623920265
0.05684716123
0.05737880699
0.05783055548
0.05823669856
0.05859659234
0.05891662126
0.05920327403
0.05946767765
0.05969869129
0.05989894119
0.06007534661
0.0602257284
0.06034898658
0.06045052866
0.06053757459
0.06059689593
0.02830145646
0.03091610117
0.03328182277
0.03531431567
0.03709889308
0.03883028166
0.04053587325
0.0420514315
0.04350403209
0.04485615364
0.04625538874
0.04756351397
0.04869780427
0.04974155017
0.05075601624
0.0516974717
0.05259035704
0.05343170178
0.05418559267
0.05490167735
0.05556336164
0.05620512628
0.05680797571
0.05735993906
0.05783856561
0.05824937198
0.05860990598
0.05892990535
0.05921109094
0.05946497643
0.05969818578
0.05989424294
0.06006775112
0.06021934105
0.06034539656
0.06045003464
0.060531475
0.06060170651
0.06064583085
0.02829205628
0.03080167928
0.03312755178
0.03530780636
0.03713456975
0.0388358958
0.04049117903
0.04206255473
0.04349214198
0.04486318506
0.04617288374
0.04746926106
0.04867875446
0.04976901501
0.05074942567
0.05170020817
0.05259708105
0.05344337381
0.05421083762
0.0549087991
0.05557018163
0.0561764211
0.05676667932
0.05732325124
0.0578204932
0.05825619098
0.05862147456
0.05894461682
0.05922148605
0.05947112088
0.05969425617
0.05989209511
0.06006180487
0.0602108346
0.06033850104
0.06044429605
0.06053000499
0.06059568134
0.060651453
0.06068205421
0.02834716254
0.03078530969
0.03303240108
0.0351509042
0.03712469974
0.03887002935
0.04050105769
0.04201631645
0.0434987703
0.04485078758
0.04617549129
0.04738845112
0.04858851084
0.04975129692
0.05077419528
0.05171334804
0.05259860133
0.05345088535
0.0542204992
0.05493016161
0.05557438945
0.05618305729
0.05674604402
0.05728516872
0.05778079067
0.05823960396
0.05862717801
0.05894992034
0.05923339058
0.05947926295
0.05969501251
0.05989004491
0.06005823386
0.06020392362
0.06033036547
0.06043588001
0.06052384286
0.06059297441
0.06064556331
0.06068795195
0.060708117
0.02832751559
0.03082359811
0.03301242084
0.03506202726
0.03701433446
0.03885722475
0.04053355378
0.0420275921
0.04342032482
0.04485330271
0.04613184228
0.04738669896
0.04850995654
0.04966472272
0.05078030034
0.05173368727
0.05261406212
0.05343506054
0.05422757216
0.0549261605
0.05559285785
0.0561841799
0.05675125806
0.05726356648
0.05774567178
0.05820301754
0.05861246792
0.05895399481
0.05924227168
0.05948433224
0.059700988
0.05989131171
0.0600554928
0.06019924413
0.06032265948
0.06042791591
0.06051491955
0.06058669181
0.06064214785
0.06068238149
0.06071441513
0.06072591067
0.02832294634
0.03084212766
0.03297424533
0.03504645815
0.03692452934
0.03879273486
0.04051766678
0.04205829068
0.04343076508
0.04477590153
0.04613267866
0.04734172813
0.04850418681
0.04958851409
0.05069705964
0.05172614182
0.05261247865
0.05343724181
0.05419626193
0.05493180443
0.05558766781
0.05619995334
0.05675017673
0.0572665876
0.05772258725
0.05816464679
0.05857933381
0.05894063137
0.05924376598
0.05949242085
0.05970401084
0.05989256013
0.06005725501
0.06019377138
0.0603158491
0.06041968466
0.06050649148
0.06057836202
0.0606360211
0.06067960003
0.06070928263
0.06073279314
0.06073731298
0.02832724421
0.03083018777
0.03297788938
0.0350470989
0.03691554469
0.03869734851
0.0404147461
0.04203932729
0.04345920254
0.04478454301
0.04608473393
0.0473374343
0.0484828266
0.04957919617
0.05062338017
0.05164410616
0.05260995945
0.0534307033
0.05420088131
0.05491398084
0.05559156032
0.05620480995
0.05676255969
0.05726261767
0.05773093406
0.05814110401
0.0585437459
0.05890575057
0.05922810061
0.05949504188
0.05970725953
0.05989455227
0.0600563467
0.06019358368
0.06030965861
0.06041109639
0.06049769298
0.06056896981
0.06062754757
0.0606737582
0.06070725852
0.0607281655
0.06074473607
0.06074388452
0.0282553836
0.03076962402
0.03296712421
0.03503618498
0.03695299562
0.03864969995
0.04031885963
0.04189897652
0.04343724837
0.04481011427
0.04609065242
0.04729462782
0.0484723879
0.04955716579
0.05061092825
0.05157346248
0.05254553772
0.05343283275
0.05420564527
0.05491892092
0.05557505557
0.05620669039
0.05675788708
0.0572727496
0.05772379554
0.05814627792
0.0585198077
0.05887213255
0.05920052
0.05948071265
0.05971106628
0.05989783862
0.06005744847
0.06019314461
0.0603075206
0.06040539631
0.06048878308
0.06055992296
0.06061767036
0.06066560083
0.0607018644
0.06072670198
0.06074064112
0.06075187995
0.0607470694
0.02825991438
0.03068658197
0.03290243967
0.03498212687
0.03694057731
0.03863865547
0.04026536239
0.04180529106
0.04333330801
0.04478564147
0.04611287704
0.04729562719
0.04841277703
0.04954142549
0.05056533336
0.05155917142
0.05246177775
0.05337060436
0.05419406759
0.05490916334
0.05557940284
0.05618050641
0.0567568566
0.05726747176
0.0577250377
0.05813740649
0.05852075147
0.05885435189
0.05916863401
0.05945654907
0.05970069444
0.05989774472
0.06005846072
0.06019314874
0.06030467794
0.06040167132
0.06048244005
0.06055119351
0.06060851878
0.06065632269
0.06069435214
0.06072200388
0.06073987155
0.06074829617
0.06075551191
0.06074834443
0.02825574866
0.03069193456
0.032875398
0.03491393789
0.03688939525
0.03858472109
0.04021477685
0.04178348538
0.0432364955
0.04469060341
0.04605974082
0.04731496715
0.04840638134
0.04948922485
0.05052803847
0.05151151233
0.05242868182
0.05328901989
0.05412169301
0.05491071712
0.05556834736
0.05618400794
0.05673353484
0.05725531747
0.05771907619
0.05813601641
0.05851147777
0.05885112726
0.05914700263
0.05942587991
0.05967592831
0.05988497823
0.06005496168
0.06019031525
0.06030331367
0.06039687959
0.06047765729
0.06054369454
0.06060003303
0.0606472421
0.06068564495
0.06071514396
0.06073598108
0.06074824214
0.06075240467
0.06075705043
0.06074885285
0.02818126516
0.03067644716
0.0328788083
0.03488376221
0.03681417243
0.03858265769
0.04016346929
0.04173417284
0.04318157887
0.04458583102
0.04594106241
0.0472347669
0.04842385742
0.04947352718
0.05050291638
0.05145296057
0.05239651307
0.05325471002
0.0540585905
0.05485541341
0.05556948959
0.0561828157
0.05673345276
0.05723564658
0.05770485089
0.0581291524
0.05850707432
0.05884210519
0.05913993441
0.0594039515
0.0596474979
0.05986260802
0.06004206559
0.06018576789
0.06030040653
0.06039409839
0.06047209098
0.06053802162
0.06059223772
0.06063825753
0.06067651965
0.06070686072
0.06072971836
0.06074521406
0.06075290648
0.06075429799
0.06075765983
0.06074919233
0.02817600465
0.03059444762
0.03285514987
0.03489098441
0.03673740484
0.03854179849
0.04016297407
0.04168736647
0.04313313802
0.04453176063
0.04583476015
0.04712378329
0.04836831235
0.04949086784
0.05047706429
0.05143408666
0.05235378711
0.05322237147
0.05403601851
0.05478322519
0.05551910565
0.05617053508
0.05673301993
0.05723005871
0.05769520752
0.05811451392
0.0585000514
0.05883365835
0.05913076386
0.0593948252
0.05962761044
0.05983600442
0.0600217152
0.06017469005
0.06029477196
0.06038998291
0.06046801902
0.06053230797
0.0605858586
0.06063000654
0.06066710444
0.06069797147
0.06072181785
0.0607395554
0.06075072685
0.06075516896
0.06075506894
0.06075806943
0.06074998075
0.0281677831
0.03058609413
0.03282757076
0.03485211556
0.03675112777
0.03846498989
0.04011736609
0.04168618742
0.04309159975
0.04448272748
0.04580850959
0.04701359429
0.04826133991
0.04943851775
0.05047473229
0.05141865145
0.05232124126
0.05317998676
0.0539883298
0.05474517435
0.05544870143
0.05611546481
0.05671777189
0.05723140128
0.05768494595
0.05810498004
0.05848442594
0.05882149254
0.05911959173
0.05938451506
0.05961380188
0.05981495346
0.05999670154
0.06015597151
0.06028230087
0.06038319118
0.06046256938
0.06052718099
0.06057991427
0.06062313335
0.06065893127
0.06068877715
0.06071349829
0.06073219446
0.0607458546
0.06075359772
0.06075603636
0.06075544936
0.06075870067
0.06075102387
0.02816102924
0.03057080575
0.03281873128
0.03482733542
0.03669454667
0.03848480028
0.04004593469
0.04163768517
0.04308850538
0.04444710754
0.0457852102
0.04698674081
0.04815371463
0.04933040813
0.05042268346
0.05139633839
0.05230165574
0.05314694282
0.05393379895
0.05469816391
0.05540925005
0.05605865514
0.05666808821
0.05722071636
0.05768677871
0.05809307276
0.05846800101
0.05881050566
0.05910679902
0.05937109829
0.05960229039
0.05980013649
0.05997480572
0.0601322927
0.06026467256
0.06037072747
0.06045502686
0.06052073646
0.06057387
0.06061603233
0.06065158638
0.06068036674
0.06070453681
0.06072426084
0.06073915488
0.06074936887
0.06075469361
0.06075622383
0.06075588617
0.06075959892
0.06075260381
0.02822830928
0.03056038352
0.03279816911
0.03481758571
0.0366310706
0.0383700255
0.04006616621
0.04153343817
0.04304062216
0.04444163577
0.04575577093
0.04698918162
0.04812045002
0.04923033213
0.0503184689
0.05134822821
0.05229200033
0.05312389388
0.05391288181
0.0546575638
0.05536490952
0.05601815107
0.05661345004
0.05717558977
0.05768019074
0.05809226874
0.05845618022
0.05879263134
0.0590949893
0.05935708861
0.05959025586
0.05978716213
0.05995888657
0.06010993142
0.06024207539
0.06035386571
0.06044244662
0.06051240455
0.06056597195
0.06060918943
0.06064360367
0.06067272827
0.06069594779
0.06071560883
0.06073163922
0.0607432874
0.0607508685
0.06075487966
0.06075624116
0.06075649583
0.06076090834
0.06075433179
0.02822695326
0.03063176087
0.03273233981
0.0347926454
0.03661889016
0.03827276141
0.03993963984
0.04155496394
0.04294046464
0.04436907575
0.04572125414
0.04696455609
0.04810322537
0.04916716908
0.05022054304
0.05124394989
0.05223083609
0.0531130002
0.05388888336
0.05463322871
0.05532328214
0.0559768729
0.05656357752
0.05711628523
0.0576321302
0.05808403376
0.05845088243
0.05878090158
0.0590768954
0.05934127548
0.05957492101
0.0597738439
0.05994260084
0.06009267286
0.06021943341
0.06033211471
0.06042612447
0.0604995492
0.06055689456
0.06060086557
0.06063604832
0.06066425573
0.06068803061
0.06070705637
0.06072318375
0.06073619892
0.06074523994
0.06075121426
0.06075464634
0.06075624283
0.0607572516
0.06076231804
0.06075563261
0.02822862227
0.0306263342
0.03274608009
0.03467483321
0.0365893574
0.03825752261
0.03984835611
0.0414543058
0.0429569368
0.04427235049
0.04562695622
0.0469036198
0.04808119843
0.04913331277
0.05015276652
0.05115187799
0.05212908987
0.05305195792
0.05386115669
0.05459723369
0.05528485009
0.05593086957
0.05652434014
0.05706742356
0.05756826064
0.05803856517
0.05843678486
0.05877120691
0.05906356635
0.05932321389
0.05955570412
0.05975735882
0.05992605914
0.06007359856
0.0602010595
0.06030935176
0.06040499606
0.0604835572
0.06054430177
0.06059124639
0.06062710827
0.06065605246
0.06067930269
0.06069895523
0.06071466204
0.06072797782
0.06073852402
0.06074581792
0.0607509624
0.06075416865
0.06075618768
0.06075801774
0.06076335484
0.06075623767
0.02823557385
0.03062914016
0.03278446061
0.03468597708
0.03651612552
0.0382234993
0.03983038277
0.04136736282
0.04285444348
0.04428152859
0.04553268944
0.04681988756
0.04802248225
0.04911249059
0.05012356493
0.05109885985
0.05204040472
0.05295697386
0.05381594044
0.05456727603
0.05525208101
0.05588305419
0.05648550113
0.05702736864
0.057528637
0.05797929969
0.05840013449
0.05875212675
0.05905137844
0.0593075611
0.05953746222
0.05973795401
0.05990874466
0.06005433571
0.06018251072
0.06029003223
0.0603821911
0.06046286409
0.06052850062
0.06057788083
0.06061676213
0.06064631358
0.06067045997
0.06068999329
0.06070650021
0.06071957441
0.06073056792
0.06073932445
0.06074565671
0.06075023839
0.06075341906
0.06075602081
0.06075842817
0.0607636819
0.060755703
0.02817852234
0.03064454825
0.03278552468
0.03476283533
0.03651718346
0.03819221348
0.03979216401
0.0413467423
0.04276857203
0.0441508895
0.04553485883
0.04672237033
0.04794467858
0.04907900821
0.05010371323
0.05107276428
0.05196966064
0.05286882814
0.05372413909
0.05452171467
0.05522822221
0.05585110025
0.05643881549
0.05698126424
0.05748703916
0.05793997973
0.05834820226
0.0587173433
0.0590316233
0.05929054965
0.05951960471
0.05971896239
0.05989076375
0.06003630108
0.06016398356
0.06027088528
0.06036222107
0.06043955468
0.06050812406
0.06056207856
0.06060307547
0.06063535051
0.06066009086
0.06068059098
0.06069714309
0.06071132603
0.06072243006
0.06073169635
0.06073930781
0.06074492187
0.06074911538
0.06075246497
0.06075552947
0.06075822388
0.06076297571
0.06075380402
0.02817895053
0.03059839762
0.03275367795
0.03476322919
0.03654298623
0.03822302418
0.03975749977
0.04130451287
0.04274534788
0.04406413526
0.04540517554
0.04672307459
0.04784937832
0.04900488134
0.05007571409
0.05105379494
0.05194414204
0.05279914709
0.05362831448
0.05443625482
0.05517173946
0.0558347381
0.05640678222
0.05693420434
0.05743591784
0.05789885005
0.05830482524
0.05866847316
0.05899837407
0.05926948482
0.05949850273
0.05969956871
0.05987292336
0.06001924016
0.06014522261
0.06025169408
0.06034115627
0.06041892208
0.06048436669
0.06054197796
0.06058721326
0.06062157013
0.06064864542
0.06066965092
0.06068732682
0.06070171469
0.06071407071
0.06072352378
0.06073178052
0.06073867009
0.06074362633
0.06074761399
0.06075119307
0.06075452426
0.06075711242
0.06076088466
0.06075009989
0.02817365044
0.03059108862
0.03271687124
0.03467974722
0.03654482283
0.03820083975
0.03978447276
0.041233186
0.04269952513
0.04403799912
0.04531805124
0.04661740828
0.04784296497
0.04891409804
0.05000171905
0.05101058683
0.05192595923
0.05277257758
0.05355811318
0.05434271659
0.05509370521
0.05577695263
0.05638690465
0.05690168274
0.05738784882
0.05784955759
0.0582589485
0.05862550347
0.05894724184
0.05923770264
0.05947600362
0.059677373
0.05985264759
0.06000073954
0.06012590379
0.06023219408
0.0603205477
0.06039771882
0.0604634201
0.0605184224
0.06056735536
0.06060552813
0.06063440018
0.06065767092
0.06067593801
0.06069154797
0.06070427531
0.06071525514
0.06072375366
0.06073120561
0.06073736664
0.06074192648
0.06074584552
0.06074951187
0.06075276036
0.06075468185
0.06075710824
0.06074473773
0.02816861097
0.03057183306
0.03270377945
0.03459749611
0.036458238
0.03816687438
0.03975515518
0.04122208458
0.04259540055
0.04398887757
0.04528822471
0.04653061611
0.04774058834
0.04889847323
0.04991641822
0.05093923524
0.05190377531
0.05274076093
0.05352929514
0.05427409546
0.05501595706
0.05569904362
0.05633010428
0.05687852948
0.05735444206
0.05780049529
0.05821626888
0.05858089365
0.05890591093
0.05919198687
0.05944540502
0.05965359132
0.05982902195
0.05997949144
0.06010492379
0.06021183026
0.06030029895
0.0603766577
0.06044195082
0.06049708179
0.06054399114
0.06058593284
0.06061836734
0.06064308881
0.06066336019
0.06067958332
0.06069374648
0.06070531941
0.06071544893
0.06072324903
0.0607299829
0.06073560661
0.06073991421
0.06074372393
0.06074735919
0.06075006576
0.06075082831
0.06075183569
0.06073825703
0.02816583201
0.03050399119
0.03267319229
0.03458102483
0.03637613371
0.03811523772
0.03972261252
0.04118756664
0.04258106633
0.04391733985
0.0452364065
0.04649655024
0.04765324751
0.04878010966
0.04989263843
0.05085486843
0.05183164677
0.05272184763
0.0534992306
0.05423006109
0.05494764003
0.05562194751
0.05624962289
0.05682430118
0.05732849971
0.05776596769
0.05816701184
0.05853979026
0.05886636312
0.05915151061
0.0594047081
0.05962373331
0.05980408044
0.05995610344
0.06008319826
0.06019037475
0.06028014768
0.06035563582
0.06042041231
0.06047500914
0.0605222805
0.06056279221
0.0605987663
0.06062671813
0.06064846386
0.0606666288
0.06068132616
0.06069451792
0.06070543734
0.06071493116
0.06072201119
0.06072817796
0.06073352943
0.06073761932
0.06074126183
0.06074451066
0.06074632811
0.06074577356
0.06074541709
0.06073110236
0.02815091285
0.03043788081
0.03260161449
0.03454364551
0.03635580546
0.03807099438
0.03966444112
0.04119088388
0.04254169337
0.04389373549
0.04517197757
0.04641949663
0.0476151411
0.04869132986
0.04977880034
0.05082925048
0.05173508262
0.05266163079
0.05347939344
0.05420302127
0.05490012769
0.05555489511
0.05617727132
0.05675813426
0.05727747548
0.05773779476
0.05812527811
0.05848953019
0.05882141625
0.05910985416
0.0593642708
0.05958430554
0.05977456723
0.05993011585
0.06005830694
0.06016755751
0.06025801779
0.06033424887
0.06039865256
0.06045292728
0.06049974376
0.06054065526
0.06057584851
0.06060736414
0.0606320756
0.06065143824
0.06066798039
0.06068181799
0.06069441921
0.06070485627
0.06071369235
0.06072027882
0.06072604296
0.06073119794
0.06073509925
0.06073846814
0.06074098768
0.06074163561
0.06073979249
0.06073846853
0.06072439091
0.02815214913
0.03046140752
0.03252886225
0.03452289406
0.03631203956
0.03804778538
0.03962201621
0.04111844928
0.04254386509
0.04385681529
0.04513664323
0.04633426902
0.04751558419
0.04864961803
0.04968948349
0.05073531044
0.05170400237
0.05257185443
0.05342084495
0.05419174026
0.05487406172
0.05550636085
0.05611955039
0.05668961727
0.05721772682
0.05769015024
0.05809536369
0.05844618988
0.05877181911
0.05906856583
0.05932137926
0.05954476439
0.0597345904
0.05989931609
0.06003128306
0.06014147469
0.06023437051
0.06031135048
0.06037603587
0.06043046932
0.06047709429
0.06051781493
0.06055358455
0.06058479889
0.06061290959
0.06063499308
0.06065263952
0.0606683098
0.06068159021
0.06069377138
0.06070355567
0.06071189366
0.0607181195
0.06072376478
0.06072873499
0.06073242691
0.06073520828
0.06073685088
0.06073639156
0.06073341992
0.06073180246
0.06071870213
0.02814365991
0.03046814064
0.0325385087
0.03449164511
0.03629228255
0.03796088016
0.03959473526
0.04104687658
0.04249439504
0.04384727197
0.04510358518
0.04629070951
0.04743478361
0.04857664284
0.04962661595
0.05062911655
0.05161516102
0.05251873739
0.05334863518
0.05412209363
0.05484691627
0.05547839093
0.05605964284
0.05662509401
0.05714457437
0.05762791106
0.05805146803
0.05841060167
0.05873075856
0.0590194483
0.05928051137
0.0595031211
0.05969384118
0.05985826957
0.060000467
0.06011258949
0.06020814721
0.06028683637
0.06035263579
0.06040736447
0.06045381985
0.06049461241
0.06053025741
0.0605622391
0.0605904161
0.06061591198
0.060636106
0.06065273971
0.06066777679
0.06068062319
0.06069240523
0.06070171915
0.06070973614
0.06071577686
0.06072136534
0.06072625166
0.06072958765
0.06073168805
0.06073234785
0.06073092117
0.06072735961
0.0607262049
0.06071478511
0.02814320241
0.0304455784
0.03255207229
0.034442728
0.03625786589
0.0379012639
0.03950377867
0.04101563158
0.04242337524
0.04377098614
0.04505405925
0.04625780076
0.0473832269
0.04849287528
0.04956058443
0.05054633147
0.05150822878
0.05242233247
0.05328853701
0.05405316943
0.05477972119
0.05544592442
0.05601870867
0.05657162929
0.05707499774
0.05755380679
0.05799323847
0.05837029622
0.05869023626
0.05897378734
0.05923122494
0.05945911236
0.05965471114
0.05981864863
0.05996088205
0.06008220211
0.06017763944
0.06025929808
0.06032697955
0.06038314282
0.06043001866
0.06047051803
0.06050655025
0.06053863108
0.06056772466
0.0605936469
0.06061729025
0.06063625847
0.06065219387
0.06066666051
0.06067904092
0.06069042427
0.06069946243
0.06070724314
0.06071342023
0.06071899626
0.06072375266
0.06072663058
0.06072797683
0.06072781754
0.06072575966
0.06072227336
0.06072224621
0.06071255644
0.02815345791
0.03044149433
0.03251819012
0.03445973199
0.03620456192
0.03786338458
0.03944212654
0.0409571675
0.04238807496
0.04369845523
0.04495673208
0.04619808334
0.04735014955
0.04844115807
0.04948882697
0.05048414805