/*--------------------------------*- C++ -*----------------------------------*\
| =========                 |                                                 |
| \\      /  F ield         | OpenFOAM: The Open Source CFD Toolbox           |
|  \\    /   O peration     | Version:  v1612+-hyStrath                       |
|   \\  /    A nd           | Web:      www.OpenFOAM.com                      |
|    \\/     M anipulation  |                                                 |
\*---------------------------------------------------------------------------*/
FoamFile
{
    version     2.0;
    format      ascii;
    class       volScalarField;
    location    "0.016";
    object      Mach;
}
// * * * * * * * * * * * * * * * * * * * * * * * * * * * * * * * * * * * * * //

dimensions      [0 0 0 0 0 0 0];

internalField   nonuniform List<scalar> 
141100
(
0.0009497189341
0.001236597276
0.0003742239071
0.002031321914
0.001355834624
0.0007356405984
0.002986665555
0.002639122529
0.001607970069
0.001032155944
0.00387738763
0.003918401069
0.003258882131
0.002080576862
0.001425133656
0.00454257756
0.005557685785
0.005154442331
0.004429241308
0.002977787859
0.001565788343
0.004858876506
0.007259964326
0.007793850589
0.007117439877
0.006044504068
0.003997350183
0.002147883909
0.005115476176
0.008472155006
0.01031740732
0.01037344617
0.009421096189
0.007811308892
0.004994683583
0.002794688342
0.005764906635
0.009491716723
0.01220058104
0.01363212778
0.01334987449
0.01163816221
0.009443127224
0.006050150884
0.003437100406
0.006333792835
0.01126809722
0.01383465743
0.01631443803
0.01710428565
0.01612450535
0.01387764122
0.01090396982
0.007064353394
0.00400576988
0.007023316307
0.01327223108
0.01660404271
0.018743978
0.02064565655
0.02033156669
0.01862980555
0.01579510592
0.01228376263
0.008070575782
0.00463215866
0.00803251332
0.01522428107
0.01987538676
0.02226677241
0.02376084281
0.02459978006
0.02349297541
0.02104890492
0.01747466072
0.01349673188
0.008879781921
0.005449929165
0.008971260193
0.01743992837
0.02287355366
0.02649387549
0.0278654582
0.02861450308
0.02812327176
0.02624273222
0.02314782882
0.01914133693
0.01475755214
0.009716822745
0.006241516084
0.01004531304
0.0198990028
0.02589568911
0.03014514617
0.0325361727
0.03319842445
0.03287941568
0.03145165809
0.02862077416
0.02500771134
0.02049162596
0.01581044046
0.01057411178
0.007094285756
0.01009376252
0.0225567403
0.02938699421
0.03376533845
0.03688244692
0.03812484993
0.03787423127
0.03655248856
0.03436106538
0.03096343765
0.02670740449
0.02196232547
0.01674733265
0.01141813108
0.007969677759
0.0107237769
0.02367258978
0.033076164
0.03777487119
0.04105177966
0.04281541667
0.04310438839
0.04191065629
0.03990424789
0.03683932285
0.03302413075
0.02825603463
0.02308680902
0.01770884425
0.01227826075
0.008910132135
0.01115244512
0.02577215063
0.03579195397
0.04221359707
0.04566495441
0.04778121467
0.04816317669
0.04751804241
0.04557263595
0.04291578515
0.0392744942
0.03491062456
0.02981004465
0.02421296833
0.01864103091
0.01317419674
0.009886123782
0.01089318528
0.02747119754
0.03903243492
0.04645362992
0.05075189855
0.05294146071
0.05362056025
0.05290835008
0.05135198304
0.04881466666
0.04544323102
0.04135770404
0.03645066645
0.03107829507
0.02528521699
0.01958478766
0.01407769819
0.0109519565
0.01185162225
0.02724235699
0.04149762878
0.05091834544
0.0559931744
0.05860878201
0.05924613222
0.05865886157
0.05729422786
0.05487840021
0.05173332257
0.04790263072
0.0432436029
0.03801317646
0.03228711183
0.02633432738
0.02049689381
0.01500616095
0.01206114405
0.01211433713
0.02898107557
0.04200263744
0.05397313537
0.06098886644
0.0646267425
0.06539274829
0.06466246339
0.06324946027
0.0609183947
0.0578659632
0.05441072642
0.04993210675
0.04494118789
0.03941084205
0.03339381984
0.02731573096
0.021394759
0.01603533144
0.01327633633
0.01333697742
0.03067534271
0.04466578116
0.0551462856
0.06497939333
0.06978176138
0.07194031943
0.07119643062
0.06956506872
0.06739667774
0.06431976447
0.06064582837
0.05661100402
0.05182480188
0.0464818929
0.04072440131
0.03456547876
0.02825480798
0.02234498412
0.01700851566
0.0145820527
0.01428442044
0.03367864472
0.04741781568
0.05859409105
0.06681623991
0.07398686886
0.07747984888
0.07809850533
0.07643234837
0.07403464461
0.07083483127
0.06740581118
0.06328207672
0.05865895309
0.05353429391
0.0479205164
0.04179234678
0.03552367356
0.02917780101
0.02329294825
0.0181094755
0.0159025268
0.01538692959
0.03615640256
0.05119766875
0.0622880966
0.07067064616
0.0766256177
0.08194721393
0.08409218224
0.08339333603
0.08122194271
0.07790668264
0.07404461751
0.0699931835
0.06547311231
0.06054525876
0.05512460088
0.04919104089
0.04292386478
0.03649170853
0.03018622829
0.02426416748
0.01923134696
0.01727942587
0.01713551262
0.0387882209
0.05483853233
0.06637196342
0.0749669644
0.0811077078
0.0851703102
0.08910945199
0.08997240151
0.08826614705
0.08533919794
0.08124747368
0.07707534692
0.0724859761
0.06749271114
0.06221648412
0.05650999059
0.05033327744
0.04393734419
0.03740902225
0.03106905152
0.02527827446
0.02039399489
0.01870942387
0.0180900463
0.04229518917
0.05857631562
0.07089970796
0.07977691728
0.08591446964
0.0901119658
0.09303683811
0.09535128982
0.09517487538
0.09259571637
0.08888347644
0.0843182704
0.07950698872
0.07465357326
0.06925175851
0.06384349119
0.05774190408
0.05140173882
0.0449359464
0.03841327436
0.03200713189
0.02631984361
0.02162501767
0.02017227734
0.01706527222
0.04342985376
0.06286395216
0.07542013673
0.08476966792
0.09129028166
0.09536753297
0.09862715758
0.09975070234
0.1009739078
0.09977934906
0.09640501199
0.09200789138
0.08701088177
0.08186751947
0.0766267325
0.07088188666
0.06512185635
0.0588771979
0.05240127994
0.04580887205
0.03932438475
0.03295190636
0.02741288094
0.02291885658
0.02165636993
0.01825121348
0.04300110402
0.06472115716
0.07994099222
0.09011378934
0.09691276764
0.1014458452
0.1039009563
0.10567082
0.1056448309
0.1059480497
0.1036825748
0.09987532041
0.09494645922
0.08933906316
0.08405561762
0.07826648288
0.07241276485
0.06632710777
0.05993092594
0.05335611539
0.04670782773
0.04024653748
0.03393359505
0.02855832711
0.02424647946
0.02318387889
0.02024455753
0.04653111994
0.06584173672
0.08319300403
0.09511686806
0.1023291542
0.1075242137
0.1101593073
0.1115840778
0.1119060325
0.1110205921
0.1102609928
0.107019378
0.1028842174
0.09729632114
0.09162284917
0.08593513187
0.07990503219
0.07374958122
0.06745146095
0.06091458613
0.05425181373
0.04755410426
0.04107530476
0.03495169164
0.02973123232
0.02563044369
0.02475333396
0.02015797716
0.05065048536
0.07056630158
0.08647738112
0.098711181
0.1080596193
0.1130742811
0.1165158015
0.1180330673
0.1181850509
0.1175901118
0.1156550311
0.1141193899
0.1101767046
0.1055519139
0.09957830001
0.0935800672
0.08756675785
0.08134397292
0.07493695822
0.06844055724
0.06182282016
0.05510092612
0.04849673287
0.04205398234
0.03599162277
0.03095367812
0.02707070855
0.02632428954
0.01874541944
0.05146402586
0.07570829911
0.09112565031
0.1033544663
0.1124184467
0.1188644252
0.1227249369
0.1246175783
0.1250489931
0.1240958066
0.1224840748
0.1198563079
0.1174934375
0.1129985155
0.1078643752
0.1015551946
0.09530871223
0.0890510822
0.08268784076
0.07613325479
0.06948345731
0.0626742217
0.05592745735
0.04930104342
0.04302681649
0.03707565524
0.03222910754
0.02856136802
0.02792239974
0.01993620043
0.04974583304
0.07779532843
0.09657366527
0.1090823652
0.1177588451
0.1242920755
0.1291660672
0.1310902695
0.1318695864
0.1312354271
0.1292382029
0.1269114537
0.1236842909
0.1204612262
0.1155791848
0.110002456
0.1033070739
0.0968493567
0.09041232778
0.08378043425
0.07706192288
0.07032178
0.06349210304
0.05674641259
0.05013953157
0.04392455882
0.03820110098
0.03351365688
0.03002650554
0.02955562992
0.0212837302
0.0521765472
0.0771546907
0.1000281228
0.1149505925
0.1240782287
0.1306803869
0.1349552257
0.1381012964
0.1386429001
0.1380246094
0.1366423755
0.133808837
0.1308147606
0.1269803031
0.1230484548
0.1176703122
0.1117050249
0.104868074
0.09820960373
0.09162518135
0.08490421855
0.07809242521
0.07115572539
0.06428768263
0.05755249843
0.05109724538
0.04497339613
0.03934825784
0.03489556455
0.0315743958
0.03117856267
0.02225766243
0.05507204196
0.08026014598
0.1012181713
0.119075048
0.1309910761
0.1372638612
0.1417443399
0.1445643649
0.1457249692
0.1453188279
0.1436034077
0.1413980418
0.1380552476
0.134307926
0.1297530025
0.1253690888
0.1196016034
0.11323466
0.1062584317
0.09943125632
0.09260268428
0.08585813938
0.07888442394
0.07194222717
0.06505410269
0.05836190306
0.05194992775
0.04602759791
0.04054149496
0.03621855169
0.03315666646
0.03282374336
0.02320741882
0.0575389894
0.08397767127
0.1041800714
0.1215785216
0.1355525442
0.1443392153
0.1489561899
0.1516832295
0.1529004969
0.1527042941
0.1511357794
0.1485768225
0.1455986317
0.1415663487
0.1374841108
0.1321485198
0.1273824304
0.121261573
0.1145464697
0.1075255535
0.1005368167
0.09355694199
0.0867132409
0.0797486593
0.07268835794
0.06581341382
0.059186703
0.0528574906
0.04701715564
0.04178605747
0.03762458305
0.03470705458
0.03449370514
0.02478827122
0.0598326356
0.08747961588
0.1081808811
0.1250377414
0.1383624079
0.1498802584
0.1563137813
0.1590681026
0.1604735891
0.1603139158
0.1587759083
0.1562064586
0.1532552723
0.1494506246
0.1448425243
0.1401047455
0.1343416772
0.1291473112
0.122782574
0.1158319084
0.1087382189
0.1015337071
0.09458385684
0.08744298152
0.08053016968
0.07341163266
0.06657166902
0.06000479662
0.05388837256
0.04818012665
0.04303212709
0.03903572453
0.03634590898
0.03617319897
0.02567926388
0.06315284078
0.09070209979
0.1130210793
0.1294710609
0.1430824919
0.1534382979
0.1621196643
0.1667088269
0.1679704231
0.1681675864
0.1667193654
0.1640563256
0.1608209723
0.1573282133
0.1528313063
0.1478580837
0.1425115579
0.1363430744
0.1306796036
0.1239029961
0.1168141138
0.1097457273
0.1024187369
0.09543918602
0.08817086721
0.0811658735
0.07411866875
0.06732695236
0.06084991013
0.05481552328
0.04926007739
0.04436067614
0.0404414648
0.03794746338
0.03787326856
0.0268427894
0.06567778853
0.09477795369
0.1167607452
0.1351154765
0.1480282847
0.1589168373
0.1663310259
0.172613117
0.1757327483
0.1755948959
0.1748772147
0.1722390053
0.1688640176
0.1650739437
0.1608394303
0.1558479492
0.1503449495
0.1446582574
0.1382102993
0.1320547893
0.1249815331
0.1177352624
0.1105488508
0.1032478677
0.09619113922
0.08899020876
0.08191097255
0.07482291095
0.06808717523
0.06172561358
0.05587925255
0.05041451001
0.04561992232
0.04195368359
0.03959333105
0.03959329381
0.0273252681
0.06863302176
0.09861180707
0.1210766061
0.1385958394
0.1538721685
0.1638221902
0.172396914
0.1773841517
0.1820208054
0.1839156232
0.1824396496
0.180757286
0.1772242948
0.173278828
0.1687737218
0.1639390317
0.1587326454
0.1526098692
0.1465561302
0.1399696748
0.1331931341
0.1260443375
0.1187002253
0.1114368259
0.1040560203
0.09688655724
0.08959838288
0.08257478703
0.07554118123
0.06886413647
0.06259355495
0.05690047485
0.05160815293
0.0469639582
0.04341820701
0.04123628876
0.04132451338
0.02584687824
0.06902782068
0.1028265018
0.1258524386
0.1431099546
0.1573015889
0.1699736896
0.1776921788
0.1838975786
0.1873260835
0.1905429742
0.1909637947
0.1885254296
0.1857737191
0.1817616485
0.1771049243
0.1721768619
0.1666402289
0.1611573367
0.1546289567
0.1481970601
0.1414831976
0.134178408
0.1268308506
0.1194258282
0.1122096371
0.1048077288
0.09758231086
0.09034856412
0.08323038338
0.07627899935
0.06965540284
0.06350191372
0.05794370569
0.05278638734
0.04834340125
0.04491298248
0.04290849511
0.04306060725
0.02727351369
0.06687128273
0.103112232
0.1310170392
0.1485590182
0.1625337505
0.1742362675
0.1841567661
0.1899164123
0.1942635858
0.196374075
0.19788867
0.1970316753
0.1940549498
0.1904300613
0.1856569452
0.1806023751
0.1752491887
0.1691224681
0.1632629632
0.1564880951
0.1497702722
0.1426873341
0.1352162157
0.127676833
0.1201336072
0.1128403089
0.1055213164
0.09814614674
0.09093239429
0.08388204021
0.07702378917
0.07048032528
0.06444308037
0.05903035217
0.05404310317
0.04971779911
0.04643723416
0.04460553914
0.04481688992
0.02913847305
0.06965813202
0.1018984294
0.1322764026
0.1544635767
0.1685550289
0.1800326553
0.1887994683
0.1966318778
0.2005555737
0.2037089425
0.2042097499
0.2042080268
0.202506858
0.198635772
0.1945073539
0.1891660842
0.1837580303
0.1778810836
0.1713494155
0.1650085004
0.1579455394
0.1511584339
0.14378509
0.135965107
0.1284845425
0.1209187178
0.113591252
0.1062395968
0.09886507604
0.09165161293
0.08459641557
0.0777954506
0.0713424801
0.06541897401
0.06005869431
0.05529059103
0.0510866987
0.04799226939
0.04629115788
0.0466021982
0.02972187118
0.07236503648
0.10545835
0.1320102646
0.1572565339
0.1750749017
0.1865600157
0.1950616745
0.2013496269
0.2077233394
0.2100883755
0.2118407966
0.2109811372
0.2098909622
0.2074550564
0.2028989854
0.1979015334
0.1922152739
0.1864967776
0.180118736
0.1734376728
0.1667502335
0.1593821729
0.1522899756
0.1447570409
0.1367832877
0.129070421
0.1215268664
0.1142757692
0.1069066748
0.09946357569
0.09233076864
0.08524648516
0.07859896754
0.07224154225
0.06644505094
0.06123534765
0.05658099924
0.05253419685
0.04954482424
0.04801087624
0.04840291581
0.03088144297
0.07526464511
0.1076108637
0.1360514216
0.1579356886
0.1793019042
0.1935657489
0.2020020204
0.2079983119
0.2127114602
0.2172716821
0.2185057046
0.2188169077
0.2170787662
0.2150405432
0.211689154
0.2067330731
0.2010797386
0.1950290163
0.1888070993
0.1821340306
0.1750697197
0.1682140199
0.1607787716
0.1534865343
0.1456435198
0.1375290221
0.1297550313
0.1221633904
0.1148747957
0.1076348381
0.1001440888
0.09305065383
0.08603293009
0.07940422198
0.07313721085
0.06740714221
0.06234616605
0.05786163549
0.05401813484
0.05113810305
0.04976919419
0.05022753778
0.03190818757
0.07806315583
0.1116194573
0.1395508476
0.1624155717
0.1811552279
0.1980716609
0.2093551286
0.2152619472
0.2196709592
0.2231083513
0.2257787209
0.2259572777
0.2251091026
0.2226043525
0.2194426376
0.2153879198
0.2099425586
0.2036563592
0.1974931156
0.1908871083
0.1839794441
0.1766527437
0.1694004447
0.1618347274
0.154385506
0.1464820256
0.1382375925
0.1303643641
0.1229032341
0.1155359616
0.1083206522
0.1009215085
0.09372587216
0.08684160773
0.08032374866
0.07414317533
0.06848025973
0.06355949819
0.05918860467
0.05550708605
0.05277641409
0.05157406444
0.05209548275
0.03017916862
0.07901996429
0.115520962
0.1440239784
0.1670894975
0.1852830267
0.2010852021
0.2140883514
0.2228469768
0.2271992417
0.2303099958
0.2321377728
0.2333007465
0.232386079
0.2308169233
0.2273172414
0.2234205023
0.2184619951
0.2127502239
0.2061252473
0.1995206997
0.1927339364
0.1855161284
0.1781580091
0.170651009
0.1628890497
0.1553776399
0.1472764986
0.1389734239
0.1310010528
0.1235136242
0.1162148754
0.1089453412
0.101656426
0.09447181174
0.0876307652
0.08115907523
0.0750850392
0.06955289144
0.06480772525
0.06060495877
0.05704767772
0.05446474104
0.05342867951
0.05400208757
0.03102684398
0.07796640228
0.1170179451
0.1478301895
0.172278509
0.1899685457
0.2053898108
0.2179129573
0.2285507078
0.2348818727
0.2380592467
0.2395267026
0.2399710914
0.240062532
0.2382273246
0.235703768
0.2314632998
0.2267777531
0.2212966036
0.2151198299
0.2083817284
0.2014782813
0.1943243527
0.1869076229
0.1792674906
0.1716946792
0.1638691978
0.1561479051
0.1480093199
0.1395439369
0.1316667674
0.124159664
0.1168924381
0.1096555431
0.1023913824
0.09532731865
0.08849827482
0.08216054916
0.07608949282
0.07069351129
0.06605267892
0.06202939241
0.05863868607
0.05620769769
0.05529352885
0.05595325098
0.03196688485
0.08019106808
0.1184895521
0.150606247
0.1767770168
0.1947949075
0.2097670384
0.2230967495
0.2330463454
0.2412674957
0.2454892423
0.2474284482
0.2474708798
0.2470842227
0.2456522972
0.2433678892
0.2398463681
0.2352555308
0.2296029783
0.2237422198
0.2172212294
0.2101244495
0.2031077478
0.195696261
0.1881313252
0.1804513729
0.1726537602
0.1647498997
0.1569217158
0.1488228591
0.140241193
0.132337379
0.1249286865
0.1176446918
0.1103871542
0.103163905
0.09616581348
0.08936758561
0.0830998843
0.07716370261
0.07188010841
0.06735447955
0.06350377263
0.06028217302
0.05796999163
0.05720805796
0.0579507319
0.03014797787
0.08212041206
0.1216994071
0.1532484136
0.1803028495
0.2007444691
0.2149426961
0.2277574151
0.2383152916
0.2465258509
0.2524471249
0.2547687813
0.2554430301
0.2546149339
0.2534440492
0.2507859704
0.2478702703
0.2435877893
0.2383249658
0.2322488572
0.2257192988
0.2191209181
0.2117866278
0.2045234957
0.1970162386
0.1892286407
0.1813509162
0.1735443687
0.1656538042
0.1576881947
0.1494536849
0.1409016463
0.1330317287
0.125600862
0.1184074566
0.111156509
0.1039793215
0.09706876949
0.09034548601
0.08409335745
0.07824896484
0.07308504711
0.06867120926
0.06502912325
0.06194340428
0.05978776446
0.05920654289
0.05996142451
0.03084742271
0.08069517988
0.1241797997
0.1573126828
0.1830870635
0.2057634398
0.2215258156
0.2333238241
0.2433293779
0.2520487731
0.2580206472
0.262136088
0.2632592596
0.2626502589
0.2609391662
0.2587041041
0.2555281479
0.2516469159
0.2469835784
0.2410945356
0.2344819249
0.2276048759
0.2207187954
0.2132885504
0.2057107615
0.198018608
0.190217107
0.1823203403
0.1742668792
0.1663294088
0.1584379489
0.1501218302
0.141585337
0.1337616288
0.126325382
0.1191048817
0.1119694275
0.1048421974
0.09795328098
0.09136472406
0.08520629917
0.07944539127
0.07430982901
0.07007879611
0.06660386965
0.06365964907
0.06169369532
0.06120202412
0.06200708629
0.0315118611
0.08237911798
0.1252528471
0.1602603867
0.1880501034
0.2091726239
0.2271652818
0.2403081928
0.249297017
0.2574338298
0.2643248157
0.2683720218
0.2708075305
0.2706308765
0.268885663
0.2666821547
0.2635133024
0.2595887856
0.2551102485
0.2498112492
0.2436334882
0.2363562369
0.2291916369
0.2221173216
0.2147121065
0.2068630172
0.1990960254
0.191097111
0.1831411618
0.1751340427
0.1671073062
0.1591483952
0.1507951751
0.1423005335
0.1345157115
0.1271848596
0.1199925658
0.1128299739
0.1057540151
0.09889674864
0.09237103417
0.08625559989
0.08059489471
0.07558274087
0.07152949169
0.06819727484
0.06543432887
0.06360318076
0.06323552218
0.06407757622
0.03196998908
0.08419906036
0.1277299877
0.1625316231
0.1913556833
0.2147520658
0.2312816091
0.2464460688
0.2564555638
0.2637892619
0.2703173166
0.2748056245
0.2777617301
0.2786071176
0.2772189556
0.2743576752
0.2715368367
0.2679178213
0.263071459
0.2580513408
0.2522982808
0.2456797937
0.238016588
0.2305936609
0.2232814341
0.2158545056
0.2078694895
0.1999365448
0.1919205144
0.1839092609
0.1758261764
0.1678164724
0.159850137
0.1514829596
0.143032662
0.1353093443
0.1279457639
0.1207870932
0.1137382844
0.106696923
0.09995432796
0.09344933029
0.08746300032
0.08181033145
0.07693459906
0.07303434603
0.06984739866
0.06727849344
0.06555265656
0.06529941456
0.06615588201
0.0341529798
0.08538881104
0.1306410948
0.1657270917
0.193842377
0.2178810535
0.2375585858
0.2507294074
0.2629627781
0.270930252
0.2770335644
0.2814859452
0.2843983664
0.285987595
0.2851085186
0.2828032464
0.2795894046
0.2758697491
0.2715839105
0.2662617324
0.2606650721
0.2544423874
0.247500907
0.2395289445
0.2318782887
0.2244236009
0.216879719
0.2088841315
0.200772796
0.192715802
0.1846616713
0.176551167
0.1685283008
0.160548682
0.1521791044
0.1438028029
0.1361456291
0.1288959406
0.12173188
0.1146741527
0.1076902994
0.1010185891
0.09454310401
0.08862315399
0.08310449986
0.07833954446
0.07456056793
0.07154829289
0.06910953136
0.06754010552
0.0673436556
0.06829403596
0.03484878903
0.0889896784
0.1313564847
0.1694915982
0.1976853106
0.2203521824
0.2408837834
0.2573357685
0.2678739492
0.2774739903
0.2836959465
0.288498037
0.2911282114
0.2928498619
0.2932806991
0.291019087
0.2878211078
0.2838809651
0.2797107401
0.2749141364
0.2689645155
0.2629652802
0.2563371961
0.2490090992
0.240772755
0.2329978389
0.2254422677
0.2177421858
0.209744168
0.2015284136
0.1934844143
0.1853836078
0.1772288945
0.1692558425
0.1612492752
0.1529065002
0.1446127698
0.1370274843
0.1297683429
0.1227075949
0.1156602791
0.1087323635
0.1021507941
0.09574534437
0.08984643731
0.08445106072
0.07976852415
0.0761399354
0.07329488989
0.07103633493
0.06951878009
0.06948248622
0.07049627794
0.0359824119
0.09062733804
0.1347227878
0.1697423166
0.2020451488
0.2247542519
0.2440597409
0.2617231315
0.274829663
0.2830149223
0.2905503506
0.2948042368
0.2983491736
0.2994564468
0.3002404527
0.2994447137
0.2963298933
0.2923888978
0.2877100099
0.2831734988
0.2778147999
0.2714669088
0.2648601373
0.2579961416
0.250456463
0.2420498483
0.2339954417
0.226465722
0.218623358
0.2105847612
0.202336731
0.1942248939
0.1860955233
0.178006213
0.1699808963
0.1619756888
0.1536693528
0.1454665586
0.137950591
0.1306980922
0.1236272185
0.1166930295
0.1098249577
0.1032749732
0.09699256625
0.09117445742
0.08582403539
0.08125223923
0.07776850627
0.0750570784
0.07294588474
0.07157812894
0.07166069666
0.07274464234
0.03681027898
0.09336956196
0.1381326892
0.1736929493
0.204062603
0.2295865876
0.2489973636
0.2656247
0.2797670463
0.2902756741
0.2963335157
0.3020207049
0.304742155
0.3067938272
0.3069845261
0.3069173796
0.3050144117
0.3007801546
0.2961998729
0.2909646665
0.2859844521
0.2802556821
0.2735802772
0.2665553658
0.2593999491
0.2515709246
0.2430542041
0.2349473283
0.2273525893
0.2194222342
0.2113205443
0.2030860467
0.1949411663
0.1868223346
0.1787833989
0.1707304941
0.1627263691
0.1544728999
0.146364876
0.1389025384
0.1317607244
0.124692614
0.1177418077
0.1109704345
0.1044605896
0.09823800261
0.09254551664
0.08725363843
0.08278970048
0.07944273175
0.07692264086
0.07493449987
0.07368870778
0.07386979524
0.07503994076
0.03537901785
0.09552765306
0.1421236261
0.1790879244
0.2081812064
0.2334359104
0.2543022761
0.2710670632
0.2843386342
0.2954069982
0.304064711
0.308302167
0.3121645331
0.3136454558
0.3143996979
0.3138140525
0.3126184577
0.3099903006
0.3048169491
0.299520123
0.2940878432
0.2885436034
0.2824166705
0.2753387805
0.2681340952
0.2606944967
0.2527744911
0.2440243865
0.2358637469
0.228181204
0.2202738214
0.2120846125
0.2038791292
0.1956741956
0.1875857575
0.1794619997
0.1715108317
0.1634742546
0.1553183935
0.1472862935
0.1398959471
0.1327494453
0.1257946234
0.1189091733
0.1121507765
0.1057566186
0.09954523673
0.09389214304
0.08874149652
0.08437949778
0.08114098569
0.07878395137
0.0769728937
0.07581722091
0.07612754161
0.07742405431
0.03605580468
0.09514602639
0.1441354562
0.1839229136
0.2136394334
0.2384790305
0.2588577445
0.2768433244
0.2902171226
0.3005750565
0.3095476905
0.3160411945
0.3188777661
0.3210698663
0.321339371
0.3213020346
0.3196779738
0.3177579984
0.3140066586
0.3082950388
0.3023336081
0.2966596581
0.2908030159
0.2842830283
0.2769043076
0.2694552782
0.2617939344
0.2536665025
0.2449580385
0.2367381781
0.2290130541
0.2210540826
0.212845934
0.2045917906
0.1964571545
0.1883600562
0.1802905944
0.1723491974
0.1643410389
0.156187764
0.1482536764
0.1409325909
0.1337926946
0.1268784305
0.1201135237
0.1133855883
0.1070639596
0.1009667052
0.09539226283
0.09028351787
0.08602614933
0.08292215733
0.08071970572
0.07902670107
0.07799734928
0.07849366872
0.07988146333
0.03670961721
0.09678950837
0.1454918627
0.1855317698
0.2190420562
0.2435523963
0.2644082801
0.2813096041
0.2963600133
0.306818573
0.3152777892
0.3224299148
0.3267208078
0.3282325682
0.3291727438
0.3282780691
0.3271869785
0.3249826454
0.3221098315
0.317732149
0.311356903
0.3049464899
0.2989322626
0.2927562631
0.285936801
0.2783078465
0.2706190893
0.2629254335
0.2546341893
0.2458349145
0.2376083871
0.2298447072
0.2218562936
0.2135814974
0.2053490683
0.1972507242
0.1891527033
0.1811099488
0.1731450538
0.1651903118
0.1571029851
0.1492596245
0.1420281371
0.1349498909
0.1280204596
0.1213100789
0.1146698227
0.1084246342
0.102344876
0.09685330867
0.0918839953
0.0876954192
0.08472034145
0.0827041365
0.0811406679
0.08028705787
0.08093283118
0.08239241179
0.03718142025
0.0983955949
0.1479133403
0.1867961447
0.221390473
0.2487852825
0.26992673
0.2869357875
0.3007893469
0.3131828815
0.3218364155
0.3286889775
0.3336240875
0.3361638498
0.3363864474
0.336145127
0.3346335935
0.3323647734
0.3294505752
0.3259875803
0.320790639
0.3138316584
0.3072093074
0.3009113838
0.29448752
0.2874011996
0.2796078636
0.2717009419
0.2638235592
0.2555730733
0.2467049136
0.2384837474
0.2306941237
0.222699253
0.2144674675
0.2062521082
0.1980629755
0.189996278
0.1819650181
0.1740095076
0.1660809275
0.1580612118
0.150273752
0.1430655391
0.1361419409
0.1292734431
0.1225818886
0.1160082274
0.1098405583
0.1038757697
0.09843391118
0.09351216954
0.08941954422
0.08660807986
0.08469696287
0.08333158578
0.08264613268
0.08339134446
0.0849250905
0.037734845
0.0984529772
0.1501331927
0.1899730624
0.2235874424
0.252605901
0.2754502589
0.2925045038
0.3067079218
0.3185679297
0.3283594764
0.335516546
0.340343217
0.3433273692
0.3446294842
0.3437716826
0.3424017482
0.3399956388
0.337080665
0.3333310701
0.3293312983
0.3235503576
0.316115689
0.3091419785
0.3026616925
0.2960338127
0.2886508591
0.2806244423
0.2727220315
0.2646933837
0.2564010137
0.2475869124
0.2393814445
0.2315613588
0.2234458527
0.2152134765
0.2070412174
0.1989329903
0.190879242
0.182843138
0.1749148644
0.1670188394
0.1590492122
0.1514168245
0.1442580832
0.1373197237
0.1305298054
0.1239071362
0.1173996375
0.1113087089
0.1053701942
0.1000605237
0.09520053594
0.09123524763
0.08854922312
0.08680013361
0.0856075099
0.08502729335
0.08589666677
0.08747542942
0.03837226706
0.09843156046
0.1508895666
0.192705593
0.2274209315
0.2563392939
0.279918148
0.299264103
0.3126799741
0.3246699673
0.3343480928
0.3418966488
0.3473526093
0.350428583
0.3520376519
0.3518486438
0.3502126863
0.3480106114
0.3447284957
0.3410566301
0.3369248899
0.3321429036
0.3257197473
0.3181440323
0.3108833966
0.3042225406
0.2974002924
0.2899140415
0.2816981535
0.273669034
0.2656424729
0.2572655503
0.2484874686
0.2403107989
0.232440757
0.224405269
0.2161372311
0.2078957512
0.1998482738
0.1917838062
0.1837643483
0.1758527066
0.168017258
0.1600751021
0.1525081541
0.14546216
0.1385614163
0.1318377578
0.1252798178
0.1188401562
0.1128277838
0.1069294624
0.1017043866
0.09698191214
0.09311158488
0.09049849259
0.08895023014
0.08794424766
0.08746248441
0.0884292423
0.09001991822
0.03845335873
0.1014357626
0.1514355664
0.195803984
0.2306617843
0.2608399388
0.284665332
0.3040362208
0.3196410412
0.3310818021
0.3408330245
0.348276717
0.3537828836
0.3575200054
0.3594780544
0.3598659265
0.3582436833
0.3560097949
0.352600679
0.3489142998
0.3447371675
0.3398272592
0.3345751654
0.3276071029
0.3197365449
0.3124624242
0.3056067336
0.2986472635
0.2909270682
0.282719111
0.2746007235
0.2665312361
0.258112302
0.249371901
0.2412443336
0.2333645761
0.2252579784
0.2170980488
0.2088842141
0.2007824699
0.1927335237
0.1847255953
0.1767920441
0.1689837555
0.1611250848
0.1536904778
0.1466935782
0.1398182049
0.1331927714
0.1266680193
0.1203304988
0.1143759446
0.1085911112
0.1034198492
0.09882411483
0.09501644869
0.09256839641
0.09116739018
0.09029160084
0.08993479006
0.09096715632
0.09253031102
0.03971970127
0.10262862
0.1553252713
0.198650991
0.234745021
0.2638338696
0.2897224034
0.308811474
0.3254559645
0.3381410976
0.3474171823
0.3547512865
0.3604889515
0.3646271238
0.3664421353
0.3674570719
0.3665707901
0.3638221878
0.3611451328
0.3568130197
0.3524691187
0.3478609257
0.3424476972
0.3365585697
0.329286081
0.3212631812
0.3138568437
0.3068051148
0.2997954749
0.2918767873
0.2835562357
0.2755356732
0.267422078
0.259102749
0.2504289306
0.2421731727
0.2343269377
0.2261750861
0.2180319899
0.2098708684
0.2017255076
0.1937284094
0.1857130397
0.1778479842
0.1700303424
0.162293015
0.1548903084
0.1479753203
0.1412065966
0.13460556
0.1281616517
0.1218431946
0.1159758753
0.1102692716
0.1052339681
0.1006943396
0.09698232479
0.09466532308
0.09344793276
0.09271331374
0.09242284782
0.09348298897
0.09501799351
0.03938121605
0.1051840361
0.1579216616
0.2015748195
0.2385765099
0.2678952372
0.2932517329
0.3143499778
0.3307883278
0.3440674285
0.3543607463
0.3618082899
0.3672833613
0.3715384663
0.373961028
0.3744897014
0.3745721423
0.3723076698
0.3689106946
0.3654015251
0.3606323928
0.3557010416
0.3505089476
0.3447226884
0.3382081781
0.3306812058
0.3225589855
0.3151469521
0.3080052265
0.3008226202
0.2929225203
0.2845207221
0.276494957
0.2683416211
0.2599568498
0.2513688913
0.2432547963
0.2353267112
0.2272355322
0.2190492247
0.21093693
0.2028103398
0.1947491716
0.1867496795
0.1788955773
0.1711236058
0.1634581869
0.156093014
0.1492274978
0.1425212741
0.1360065705
0.1296859756
0.1234027787
0.1176526907
0.1120033662
0.1070652509
0.1026251507
0.09900658868
0.09681743906
0.09573611433
0.09515234124
0.09490515844
0.09597104943
0.09747582301
0.04097889303
0.1051864668
0.161301325
0.2052292059
0.2418406107
0.2724817915
0.2975976789
0.3191557045
0.3367779935
0.3499018147
0.3602688766
0.3686612666
0.3743637098
0.3786314897
0.3814609002
0.382197995
0.3815464516
0.3806330489
0.3774381145
0.3732962323
0.3691923996
0.3638111514
0.3584203604
0.3528522032
0.3465587608
0.3396421843
0.3319574196
0.3237201845
0.3162369314
0.3091322425
0.3018035161
0.2937703366
0.2854531047
0.2773435967
0.269288534
0.2610328453
0.2523909631
0.2443526046
0.2363915797
0.2282972394
0.2200765468
0.2119685945
0.2039231167
0.1958215583
0.187824293
0.1799924548
0.1722568418
0.1646813234
0.1574056238
0.1506002049
0.1439629223
0.13746072
0.131204296
0.1250036179
0.1193025387
0.1138205809
0.1089582001
0.1046154785
0.1010882553
0.09902013497
0.09810635322
0.09758947001
0.09737580509
0.09844987271
0.09994594773
0.04098552659
0.1069770301
0.1605950899
0.2092314533
0.2463384128
0.2762029961
0.302181334
0.3239396566
0.3416533386
0.3562560507
0.3665222876
0.374946124
0.3816885158
0.3857621735
0.3885670698
0.3898257956
0.3895806558
0.3880660238
0.3859196953
0.381992775
0.3770343828
0.3724820227
0.366656105
0.3607781736
0.3550039414
0.3481382603
0.3408504978
0.3329214372
0.3247843095
0.3172658358
0.310058391
0.3027423542
0.2946316031
0.2863579369
0.2783950941
0.270283442
0.2620007918
0.2534481517
0.2453858684
0.2375097171
0.2294015763
0.2212607686
0.213068515
0.2050095899
0.196939907