/*--------------------------------*- C++ -*----------------------------------*\
| =========                 |                                                 |
| \\      /  F ield         | OpenFOAM: The Open Source CFD Toolbox           |
|  \\    /   O peration     | Version:  v1612+-hyStrath                       |
|   \\  /    A nd           | Web:      www.OpenFOAM.com                      |
|    \\/     M anipulation  |                                                 |
\*---------------------------------------------------------------------------*/
FoamFile
{
    version     2.0;
    format      ascii;
    class       volScalarField;
    location    "0.016";
    object      mu;
}
// * * * * * * * * * * * * * * * * * * * * * * * * * * * * * * * * * * * * * //

dimensions      [1 -1 -1 0 0 0 0];

internalField   nonuniform List<scalar> 
141100
(
1.939914328e-05
1.936745545e-05
2.107048008e-05
1.933825644e-05
2.101995243e-05
2.254738939e-05
1.939187585e-05
2.097686676e-05
2.256527822e-05
2.394445563e-05
1.943578838e-05
2.107347413e-05
2.258271828e-05
2.397991972e-05
2.525440221e-05
1.944020273e-05
2.115843129e-05
2.262679587e-05
2.401785743e-05
2.52850702e-05
2.640800308e-05
1.939828201e-05
2.116883436e-05
2.267104199e-05
2.405304264e-05
2.530399812e-05
2.647885478e-05
2.751987926e-05
1.935675953e-05
2.109155421e-05
2.268526147e-05
2.405922582e-05
2.536994014e-05
2.653136573e-05
2.759347608e-05
2.85954221e-05
1.936467246e-05
2.102318076e-05
2.265966009e-05
2.407848575e-05
2.537737769e-05
2.656460289e-05
2.765352248e-05
2.864437025e-05
2.959196169e-05
1.941330833e-05
2.104228326e-05
2.265243973e-05
2.409596281e-05
2.539996253e-05
2.657809128e-05
2.768555892e-05
2.868441694e-05
2.963986911e-05
3.051628841e-05
1.941966851e-05
2.113154711e-05
2.267903316e-05
2.410767477e-05
2.541926347e-05
2.659968688e-05
2.770012076e-05
2.874386188e-05
2.96814691e-05
3.058715415e-05
3.138706716e-05
1.943252336e-05
2.114849326e-05
2.27188215e-05
2.413900107e-05
2.540840605e-05
2.662333704e-05
2.772382027e-05
2.875748693e-05
2.971868188e-05
3.06250947e-05
3.146453806e-05
3.224326934e-05
1.94809556e-05
2.117643266e-05
2.27446082e-05
2.41753965e-05
2.54425514e-05
2.664946145e-05
2.774886388e-05
2.878355736e-05
2.973334554e-05
3.064411072e-05
3.152108188e-05
3.231265391e-05
3.304768227e-05
1.948421026e-05
2.126965766e-05
2.277988252e-05
2.420356919e-05
2.548108038e-05
2.668561531e-05
2.778164355e-05
2.881026946e-05
2.975804657e-05
3.067818926e-05
3.153906786e-05
3.237200724e-05
3.310052863e-05
3.380449674e-05
1.943839229e-05
2.127765183e-05
2.283079305e-05
2.420797984e-05
2.551194142e-05
2.669536926e-05
2.781947086e-05
2.881922401e-05
2.979002677e-05
3.070248532e-05
3.157216573e-05
3.2405548e-05
3.314229908e-05
3.38468561e-05
3.452550154e-05
1.943033894e-05
2.119429474e-05
2.284209803e-05
2.422082473e-05
2.551829167e-05
2.672790214e-05
2.78314132e-05
2.885874128e-05
2.982096126e-05
3.07161007e-05
3.159680685e-05
3.241774266e-05
3.319075932e-05
3.388688978e-05
3.456678396e-05
3.521050189e-05
1.942269475e-05
2.117434942e-05
2.281155564e-05
2.423467978e-05
2.553431105e-05
2.676832935e-05
2.786373945e-05
2.889930166e-05
2.98618761e-05
3.076890004e-05
3.161243029e-05
3.244340111e-05
3.32182603e-05
3.393203492e-05
3.460473455e-05
3.525796392e-05
3.585008868e-05
1.937448022e-05
2.115805005e-05
2.27794868e-05
2.425145115e-05
2.555071407e-05
2.678803437e-05
2.790830896e-05
2.892962728e-05
2.990450351e-05
3.080987757e-05
3.166328389e-05
3.247727921e-05
3.324227818e-05
3.397370857e-05
3.464635633e-05
3.529329502e-05
3.589442288e-05
3.644585238e-05
1.93721877e-05
2.106816499e-05
2.271894866e-05
2.424705682e-05
2.557029383e-05
2.680687255e-05
2.793032932e-05
2.895282267e-05
2.993538138e-05
3.083264196e-05
3.16859843e-05
3.251158783e-05
3.326019622e-05
3.399632173e-05
3.468580286e-05
3.533142071e-05
3.592659604e-05
3.647785869e-05
3.700568647e-05
1.938534375e-05
2.1061781e-05
2.267672058e-05
2.418463177e-05
2.556393091e-05
2.682733167e-05
2.795117723e-05
2.897569881e-05
2.996033498e-05
3.086196306e-05
3.170857076e-05
3.253459451e-05
3.32790479e-05
3.399924583e-05
3.470758359e-05
3.535562956e-05
3.596215949e-05
3.650625907e-05
3.704487717e-05
3.75347155e-05
1.943330188e-05
2.10958427e-05
2.271012473e-05
2.414561859e-05
2.553730374e-05
2.678645869e-05
2.797228745e-05
2.899802902e-05
2.998251614e-05
3.091258059e-05
3.173763491e-05
3.255351011e-05
3.331883164e-05
3.401932145e-05
3.471112971e-05
3.537711848e-05
3.598499674e-05
3.654011692e-05
3.707831981e-05
3.756957212e-05
3.802651482e-05
1.943932161e-05
2.118345754e-05
2.271657415e-05
2.418223639e-05
2.549389025e-05
2.673211418e-05
2.793132486e-05
2.902082674e-05
3.000589909e-05
3.095348263e-05
3.178889384e-05
3.258438307e-05
3.335146064e-05
3.405782666e-05
3.47314676e-05
3.539352005e-05
3.600457644e-05
3.657326789e-05
3.709934535e-05
3.760045174e-05
3.805390761e-05
3.847056589e-05
1.945034455e-05
2.119913675e-05
2.275470153e-05
2.419727539e-05
2.549901034e-05
2.668597438e-05
2.784573058e-05
2.898244505e-05
3.000846299e-05
3.097819554e-05
3.184856806e-05
3.263300919e-05
3.338117966e-05
3.410262668e-05
3.476826934e-05
3.541326504e-05
3.602108035e-05
3.659127956e-05
3.712161126e-05
3.761870395e-05
3.807421323e-05
3.850038898e-05
3.887959184e-05
1.949104224e-05
2.12225474e-05
2.277654716e-05
2.419173634e-05
2.552249394e-05
2.669414122e-05
2.779860841e-05
2.891803959e-05
2.997410074e-05
3.096204994e-05
3.187474103e-05
3.267435692e-05
3.343065883e-05
3.413133225e-05
3.480993654e-05
3.543464455e-05
3.603992215e-05
3.659561109e-05
3.713857367e-05
3.763044826e-05
3.809837049e-05
3.851836208e-05
3.890218176e-05
3.925868222e-05
1.94920818e-05
2.129338544e-05
2.280419703e-05
2.421776595e-05
2.551530044e-05
2.672224408e-05
2.780923178e-05
2.889791312e-05
2.992783369e-05
3.093223528e-05
3.186191869e-05
3.270193556e-05
3.347041299e-05
3.416487932e-05
3.483660012e-05
3.546106406e-05
3.605927234e-05
3.661340459e-05
3.714149312e-05
3.764712366e-05
3.810941011e-05
3.853970523e-05
3.891781073e-05
3.927454298e-05
3.960385141e-05
1.945307879e-05
2.125122707e-05
2.286428005e-05
2.424452234e-05
2.554156379e-05
2.674364238e-05
2.78419151e-05
2.891157272e-05
2.98857256e-05
3.087827059e-05
3.183413723e-05
3.269182143e-05
3.348273799e-05
3.420583034e-05
3.485564367e-05
3.549884849e-05
3.608257248e-05
3.664181965e-05
3.715792866e-05
3.765680317e-05
3.812544191e-05
3.855001065e-05
3.893701551e-05
3.92878014e-05
3.961768677e-05
3.99093247e-05
1.945301624e-05
2.118587225e-05
2.28211038e-05
2.426228853e-05
2.557023798e-05
2.676943532e-05
2.78902781e-05
2.891742365e-05
2.990251337e-05
3.081745458e-05
3.177731007e-05
3.266464103e-05
3.347415069e-05
3.421909925e-05
3.488275781e-05
3.553027333e-05
3.611822873e-05
3.667364222e-05
3.718331935e-05
3.767160069e-05
3.814105529e-05
3.856433888e-05
3.895325283e-05
3.930500584e-05
3.962861975e-05
3.99212813e-05
4.018676854e-05
1.948965922e-05
2.123128481e-05
2.2774655e-05
2.42615525e-05
2.558331071e-05
2.677032915e-05
2.791638403e-05
2.894059308e-05
2.992929767e-05
3.083559532e-05
3.171846165e-05
3.260893047e-05
3.344677924e-05
3.422629122e-05
3.491064277e-05
3.555819041e-05
3.614973022e-05
3.669698669e-05
3.721306016e-05
3.769390584e-05
3.815395105e-05
3.857798235e-05
3.896498329e-05
3.931961312e-05
3.964384412e-05
3.992998867e-05
4.019677858e-05
4.043717932e-05
1.944301673e-05
2.129354909e-05
2.282014203e-05
2.426425226e-05
2.555192326e-05
2.678398374e-05
2.789043906e-05
2.896676891e-05
2.995203062e-05
3.088153875e-05
3.173686756e-05
3.254994388e-05
3.339483959e-05
3.419812902e-05
3.493168027e-05
3.558501332e-05
3.617740073e-05
3.671591708e-05
3.72357106e-05
3.771312221e-05
3.816517493e-05
3.858908635e-05
3.897047059e-05
3.932989644e-05
3.965088555e-05
3.994358525e-05
4.020336517e-05
4.044504563e-05
4.065430558e-05
1.939039563e-05
2.120491597e-05
2.286898718e-05
2.426878654e-05
2.556405027e-05
2.675373487e-05
2.787603143e-05
2.896787213e-05
2.997907717e-05
3.090613015e-05
3.17797935e-05
3.256756664e-05
3.335060171e-05
3.415202572e-05
3.490467023e-05
3.55925299e-05
3.620344886e-05
3.674213621e-05
3.725282362e-05
3.773527233e-05
3.817511806e-05
3.859790978e-05
3.897997232e-05
3.933350946e-05
3.965983788e-05
3.995392192e-05
4.021540573e-05
4.044961054e-05
4.066364729e-05
4.084619971e-05
1.93946387e-05
2.110984326e-05
2.278228819e-05
2.427309789e-05
2.560085277e-05
2.676685709e-05
2.787752263e-05
2.897956573e-05
2.998023161e-05
3.093511106e-05
3.178605159e-05
3.260951243e-05
3.336693984e-05
3.412104065e-05
3.486210341e-05
3.556693617e-05
3.621012158e-05
3.676785133e-05
3.72770243e-05
3.775895351e-05
3.819568451e-05
3.860611735e-05
3.899349703e-05
3.934142132e-05
3.966741404e-05
3.996071333e-05
4.022404382e-05
4.046024847e-05
4.066572147e-05
4.085413762e-05
4.101429545e-05
1.943814665e-05
2.111998135e-05
2.269439817e-05
2.422138166e-05
2.559893788e-05
2.680640593e-05
2.791925946e-05
2.895763099e-05
2.999530227e-05
3.09323412e-05
3.18150659e-05
3.261684817e-05
3.339321036e-05
3.412039182e-05
3.4831361e-05
3.552716251e-05
3.618639172e-05
3.678561061e-05
3.730201902e-05
3.778036459e-05
3.822618056e-05
3.861835509e-05
3.90068324e-05
3.935246169e-05
3.967372086e-05
3.996233961e-05
4.022941013e-05
4.046317536e-05
4.067224744e-05
4.08544739e-05
4.101866905e-05
4.115628526e-05
1.94395406e-05
2.119465155e-05
2.270936584e-05
2.417653891e-05
2.554509385e-05
2.683343716e-05
2.79321031e-05
2.897454666e-05
2.997423693e-05
3.092910285e-05
3.183012481e-05
3.26436108e-05
3.340090729e-05
3.413319754e-05
3.481458874e-05
3.548543056e-05
3.613651069e-05
3.676225899e-05
3.73199208e-05
3.780428955e-05
3.825165129e-05
3.864627467e-05
3.90179517e-05
3.93643199e-05
3.968245152e-05
3.996702261e-05
4.02294327e-05
4.046723573e-05
4.067678277e-05
4.085963554e-05
4.101758877e-05
4.116189089e-05
4.127802216e-05
1.944468366e-05
2.119824566e-05
2.277027842e-05
2.415784943e-05
2.55065759e-05
2.677118159e-05
2.79558554e-05
2.901396593e-05
2.998943981e-05
3.093138258e-05
3.183029986e-05
3.26591836e-05
3.34234669e-05
3.415396627e-05
3.482782807e-05
3.548062381e-05
3.608624626e-05
3.670533338e-05
3.729810779e-05
3.781445583e-05
3.826672782e-05
3.867586096e-05
3.903533597e-05
3.938090367e-05
3.968711168e-05
3.99738957e-05
4.023257677e-05
4.046969966e-05
4.067900639e-05
4.086272981e-05
4.102384437e-05
4.116100267e-05
4.128286287e-05
4.138123151e-05
1.948649383e-05
2.120603453e-05
2.277380899e-05
2.417290282e-05
2.548833908e-05
2.670807694e-05
2.791804596e-05
2.903242986e-05
3.003032731e-05
3.094535852e-05
3.183283037e-05
3.266157727e-05
3.342476914e-05
3.417356917e-05
3.486084966e-05
3.549108373e-05
3.609234193e-05
3.665839136e-05
3.724460525e-05
3.779449235e-05
3.82701452e-05
3.868295524e-05
3.905667336e-05
3.939421245e-05
3.970220265e-05
3.998169638e-05
4.023776233e-05
4.047141471e-05
4.067741869e-05
4.086336301e-05
4.102551525e-05
4.116411867e-05
4.128098257e-05
4.138522213e-05
4.146663413e-05
1.949674804e-05
2.128075447e-05
2.277692802e-05
2.421236942e-05
2.549482061e-05
2.672189861e-05
2.785914172e-05
2.897166628e-05
3.002107046e-05
3.096638869e-05
3.182626158e-05
3.266419365e-05
3.34280158e-05
3.416176256e-05
3.487897001e-05
3.551027722e-05
3.611112949e-05
3.666241852e-05
3.720069012e-05
3.77525355e-05
3.825259128e-05
3.868787735e-05
3.906953661e-05
3.940842321e-05
3.971794689e-05
3.999452233e-05
4.024383435e-05
4.047499369e-05
4.067775285e-05
4.086091179e-05
4.102446704e-05
4.116479143e-05
4.128293804e-05
4.13812222e-05
4.14709043e-05
4.153673136e-05
1.949852039e-05
2.130156575e-05
2.28448161e-05
2.420771011e-05
2.553524443e-05
2.672385919e-05
2.787161326e-05
2.89142843e-05
2.994178287e-05
3.095216877e-05
3.184845172e-05
3.265735371e-05
3.343074908e-05
3.416520355e-05
3.486901063e-05
3.552787505e-05
3.61174194e-05
3.668892227e-05
3.720233839e-05
3.771105774e-05
3.822083042e-05
3.867146546e-05
3.907482316e-05
3.941999444e-05
3.973099443e-05
4.000366471e-05
4.025525925e-05
4.047561527e-05
4.067994604e-05
4.085995115e-05
4.102174148e-05
4.116205042e-05
4.128217799e-05
4.138228412e-05
4.146660705e-05
4.154036569e-05
4.159276386e-05
1.949065743e-05
2.130248681e-05
2.286982545e-05
2.423942275e-05
2.54904064e-05
2.673342179e-05
2.784290244e-05
2.892453953e-05
2.988435279e-05
3.087841592e-05
3.185112992e-05
3.267895056e-05
3.344090723e-05
3.416787361e-05
3.487262837e-05
3.551789485e-05
3.613574775e-05
3.669473439e-05
3.72259722e-05
3.771029123e-05
3.818899729e-05
3.864253918e-05
3.906027382e-05
3.942557314e-05
3.973597421e-05
4.001503933e-05
4.026232608e-05
4.048222126e-05
4.067918335e-05
4.086085782e-05
4.101958969e-05
4.115718347e-05
4.127839347e-05
4.138172235e-05
4.146641432e-05
4.153618494e-05
4.15959951e-05
4.163675541e-05
1.944622414e-05
2.124277362e-05
2.286828546e-05
2.42648324e-05
2.549103404e-05
2.668068909e-05
2.785261875e-05
2.889397454e-05
2.989207146e-05
3.08211282e-05
3.178255714e-05
3.268138355e-05
3.346076617e-05
3.41779348e-05
3.487498495e-05
3.552186876e-05
3.613537954e-05
3.671347623e-05
3.723148247e-05
3.772351168e-05
3.817816182e-05
3.861912496e-05
3.903334905e-05
3.941260879e-05
3.974147805e-05
4.002374737e-05
4.027147401e-05
4.04913489e-05
4.068455443e-05
4.085900179e-05
4.101924234e-05
4.115395525e-05
4.127317452e-05
4.137733354e-05
4.146394759e-05
4.15358455e-05
4.159180401e-05
4.164006081e-05
4.16703791e-05
1.943976518e-05
2.116415316e-05
2.276228426e-05
2.426035979e-05
2.551554786e-05
2.668454662e-05
2.782190889e-05
2.890161742e-05
2.988390164e-05
3.082595956e-05
3.17258671e-05
3.261662139e-05
3.344767685e-05
3.419680617e-05
3.48704565e-05
3.552374902e-05
3.613999967e-05
3.67214962e-05
3.724882854e-05
3.772840511e-05
3.81828479e-05
3.859940133e-05
3.900497387e-05
3.938740021e-05
3.972906031e-05
4.002843277e-05
4.027942291e-05
4.05014573e-05
4.069169703e-05
4.08632237e-05
4.101654227e-05
4.115247946e-05
4.12690888e-05
4.137148867e-05
4.14592096e-05
4.153190245e-05
4.159079395e-05
4.163592085e-05
4.167424214e-05
4.169526855e-05
1.947762926e-05
2.115290544e-05
2.269690523e-05
2.415255069e-05
2.550876607e-05
2.670800014e-05
2.782869662e-05
2.886984662e-05
2.988845603e-05
3.081744112e-05
3.172765878e-05
3.256109605e-05
3.338566952e-05
3.418463189e-05
3.488747596e-05
3.553277756e-05
3.614104427e-05
3.672665745e-05
3.725546711e-05
3.774308351e-05
3.818573914e-05
3.860396112e-05
3.899079514e-05
3.936123331e-05
3.970178029e-05
4.001703566e-05
4.028334181e-05
4.050510141e-05
4.069987675e-05
4.08688182e-05
4.101706196e-05
4.115107074e-05
4.126663512e-05
4.136674006e-05
4.145361957e-05
4.15261197e-05
4.158655989e-05
4.163406089e-05
4.167019527e-05
4.169932094e-05
4.171317656e-05
1.946412964e-05
2.117921381e-05
2.26831766e-05
2.409148242e-05
2.543293294e-05
2.669920196e-05
2.785102502e-05
2.887759423e-05
2.983455533e-05
3.081916929e-05
3.169766708e-05
3.255989212e-05
3.333169405e-05
3.412514586e-05
3.489167081e-05
3.554675285e-05
3.615166754e-05
3.671578407e-05
3.726032701e-05
3.774033431e-05
3.819842897e-05
3.860473248e-05
3.899437776e-05
3.934639019e-05
3.967764974e-05
3.999189675e-05
4.027323435e-05
4.050790102e-05
4.070597904e-05
4.087230137e-05
4.102116779e-05
4.115194118e-05
4.12647517e-05
4.136352474e-05
4.14483247e-05
4.152064748e-05
4.158042859e-05
4.162974405e-05
4.166784847e-05
4.169549342e-05
4.171750407e-05
4.172540277e-05
1.946099006e-05
2.119194566e-05
2.265694581e-05
2.408078472e-05
2.537122691e-05
2.665489029e-05
2.78401089e-05
2.889868755e-05
2.984172894e-05
3.076598614e-05
3.169824177e-05
3.25289922e-05
3.33277296e-05
3.407278212e-05
3.483447526e-05
3.554156829e-05
3.615057952e-05
3.671728284e-05
3.723881343e-05
3.774421231e-05
3.819486283e-05
3.861557057e-05
3.899363477e-05
3.934846603e-05
3.966178812e-05
3.996553181e-05
4.025046756e-05
4.049871886e-05
4.070700579e-05
4.087785913e-05
4.10232448e-05
4.115279898e-05
4.126596254e-05
4.135976435e-05
4.144364522e-05
4.151499171e-05
4.157463757e-05
4.162402057e-05
4.166363872e-05
4.169358225e-05
4.171397747e-05
4.173013179e-05
4.173323742e-05
1.946394317e-05
2.118374163e-05
2.265944968e-05
2.408122499e-05
2.536505347e-05
2.658934934e-05
2.776939103e-05
2.888565761e-05
2.986126861e-05
3.077192379e-05
3.166529845e-05
3.252604186e-05
3.331305279e-05
3.406637968e-05
3.478384934e-05
3.548520074e-05
3.614884856e-05
3.671279016e-05
3.724198745e-05
3.773196553e-05
3.819753742e-05
3.86189076e-05
3.900214323e-05
3.934573825e-05
3.96675233e-05
3.994935532e-05
4.022601474e-05
4.04747519e-05
4.069624196e-05
4.087966007e-05
4.102547702e-05
4.11541678e-05
4.126533843e-05
4.135963538e-05
4.143939167e-05
4.150909062e-05
4.156859203e-05
4.161756709e-05
4.165781647e-05
4.168956827e-05
4.171258669e-05
4.172695209e-05
4.17383379e-05
4.173775279e-05
1.9414567e-05
2.114212766e-05
2.265205282e-05
2.407372592e-05
2.539078639e-05
2.655660952e-05
2.770350644e-05
2.878922114e-05
2.984618367e-05
3.078949406e-05
3.166936511e-05
3.249662909e-05
3.330588024e-05
3.405124238e-05
3.477529349e-05
3.543666074e-05
3.610458371e-05
3.671425332e-05
3.724526082e-05
3.773535992e-05
3.818619683e-05
3.862019967e-05
3.899893263e-05
3.93527e-05
3.966261835e-05
3.995291037e-05
4.020956656e-05
4.045165261e-05
4.067729103e-05
4.086981431e-05
4.102809267e-05
4.115642588e-05
4.126609547e-05
4.135933369e-05
4.143792262e-05
4.150517403e-05
4.156246995e-05
4.16113509e-05
4.165102974e-05
4.168396326e-05
4.170888033e-05
4.172594649e-05
4.173552422e-05
4.174324653e-05
4.173994116e-05
1.941768014e-05
2.10850686e-05
2.26076074e-05
2.403658203e-05
2.538225364e-05
2.654902075e-05
2.766674793e-05
2.872484889e-05
2.977476518e-05
3.077267855e-05
3.168463587e-05
3.249731576e-05
3.3264921e-05
3.404042705e-05
3.474396477e-05
3.54268412e-05
3.604703137e-05
3.667149555e-05
3.723730568e-05
3.772865538e-05
3.818918389e-05
3.860220838e-05
3.899822458e-05
3.934907355e-05
3.966347185e-05
3.994681471e-05
4.021021503e-05
4.043943534e-05
4.065538183e-05
4.085321126e-05
4.102096608e-05
4.115636137e-05
4.126679099e-05
4.135933653e-05
4.14359694e-05
4.150261456e-05
4.155811159e-05
4.16053528e-05
4.164474159e-05
4.167758815e-05
4.170371858e-05
4.172271838e-05
4.173499544e-05
4.174078409e-05
4.174574209e-05
4.174081724e-05
1.941481784e-05
2.108874642e-05
2.258902679e-05
2.398972868e-05
2.534708592e-05
2.651196187e-05
2.763199009e-05
2.870986598e-05
2.97082443e-05
3.070737692e-05
3.164812542e-05
3.251060445e-05
3.326052645e-05
3.400455945e-05
3.471833907e-05
3.539409415e-05
3.602429081e-05
3.661543802e-05
3.718757635e-05
3.7729723e-05
3.818158755e-05
3.860461432e-05
3.898219995e-05
3.934072221e-05
3.965937563e-05
3.994585958e-05
4.020384298e-05
4.043721966e-05
4.064051869e-05
4.083213816e-05
4.100394901e-05
4.114758938e-05
4.126438677e-05
4.135738961e-05
4.143503199e-05
4.149932211e-05
4.15548253e-05
4.160020018e-05
4.163891094e-05
4.167134878e-05
4.169773578e-05
4.171800485e-05
4.173232226e-05
4.174074696e-05
4.174360708e-05
4.174679922e-05
4.174116659e-05
1.936363945e-05
2.107810487e-05
2.259137004e-05
2.396899466e-05
2.529539953e-05
2.651054409e-05
2.759673613e-05
2.867598282e-05
2.967051051e-05
3.063538672e-05
3.156658026e-05
3.245549803e-05
3.327253445e-05
3.399377342e-05
3.470107741e-05
3.535386263e-05
3.600218733e-05
3.659186335e-05
3.714421796e-05
3.769172325e-05
3.81823724e-05
3.860379512e-05
3.898214355e-05
3.932720614e-05
3.964960128e-05
3.994114324e-05
4.020081731e-05
4.04310205e-05
4.063566205e-05
4.081707092e-05
4.098441418e-05
4.113221857e-05
4.125552573e-05
4.135426507e-05
4.143303447e-05
4.149741112e-05
4.155100063e-05
4.159630226e-05
4.16335547e-05
4.16651754e-05
4.169146569e-05
4.171231335e-05
4.172801908e-05
4.173866633e-05
4.174395187e-05
4.1744908e-05
4.174721795e-05
4.174139984e-05
1.93600249e-05
2.102176213e-05
2.257511409e-05
2.397395711e-05
2.524265173e-05
2.648246931e-05
2.759639586e-05
2.864382168e-05
2.96372263e-05
3.05982344e-05
3.149353888e-05
3.237924004e-05
3.323436886e-05
3.400568837e-05
3.468331418e-05
3.534089417e-05
3.597282988e-05
3.65696432e-05
3.712870852e-05
3.764212197e-05
3.814775307e-05
3.859535698e-05
3.898184615e-05
3.932336665e-05
3.964297522e-05
3.9931085e-05
4.01959918e-05
4.042521659e-05
4.062936087e-05
4.081080015e-05
4.09707493e-05
4.111393897e-05
4.124154276e-05
4.134665337e-05
4.14291629e-05
4.149458333e-05
4.154820275e-05
4.159237635e-05
4.162917155e-05
4.165950605e-05
4.16849964e-05
4.170620546e-05
4.172259055e-05
4.173477821e-05
4.174245423e-05
4.174550645e-05
4.174543773e-05
4.174749939e-05
4.174194158e-05
1.935437579e-05
2.101602236e-05
2.25561642e-05
2.394724992e-05
2.525208089e-05
2.642969332e-05
2.756505814e-05
2.864301154e-05
2.960868493e-05
3.056454321e-05
3.147550184e-05
3.230352803e-05
3.316086698e-05
3.396971808e-05
3.468171184e-05
3.533028847e-05
3.595046729e-05
3.654052022e-05
3.709594111e-05
3.761597685e-05
3.80993776e-05
3.855751763e-05
3.897136907e-05
3.932428914e-05
3.963592439e-05
3.992453417e-05
4.018525538e-05
4.041685733e-05
4.062168438e-05
4.080371594e-05
4.09612613e-05
4.109947463e-05
4.122435562e-05
4.133379167e-05
4.142059388e-05
4.148991666e-05
4.154445824e-05
4.158885355e-05
4.162508714e-05
4.165478342e-05
4.167938053e-05
4.169988795e-05
4.17168741e-05
4.172972043e-05
4.173910646e-05
4.174442684e-05
4.174610245e-05
4.174569912e-05
4.174793313e-05
4.174265831e-05
1.934973514e-05
2.100551756e-05
2.25500905e-05
2.393022323e-05
2.521320344e-05
2.644330525e-05
2.751597689e-05
2.860968514e-05
2.960655875e-05
3.054006838e-05
3.145949259e-05
3.228507673e-05
3.308691654e-05
3.389543484e-05
3.464594854e-05
3.531495694e-05
3.593700988e-05
3.651781539e-05
3.70584724e-05
3.758367549e-05
3.807227015e-05
3.851848311e-05
3.893723089e-05
3.931694742e-05
3.96371837e-05
3.991635255e-05
4.017396964e-05
4.040930813e-05
4.061289438e-05
4.079449714e-05
4.095335163e-05
4.108929374e-05
4.120931077e-05
4.131752171e-05
4.140848128e-05
4.148135271e-05
4.15392757e-05
4.158442545e-05
4.162093406e-05
4.164990423e-05
4.167433378e-05
4.169410907e-05
4.171071657e-05
4.172426916e-05
4.173450301e-05
4.174152115e-05
4.174517983e-05
4.174623126e-05
4.174599925e-05
4.174855032e-05
4.174374391e-05
1.939596396e-05
2.099835634e-05
2.253596202e-05
2.39235241e-05
2.516958837e-05
2.636444231e-05
2.752987818e-05
2.853805595e-05
2.957365769e-05
3.053630867e-05
3.143926457e-05
3.228675383e-05
3.306406008e-05
3.382667158e-05
3.457434164e-05
3.528189994e-05
3.593037555e-05
3.650197823e-05
3.704410002e-05
3.755577873e-05
3.804180331e-05
3.849065235e-05
3.889968844e-05
3.928594048e-05
3.963265704e-05
3.99158001e-05
4.016584745e-05
4.039702651e-05
4.060477979e-05
4.078487094e-05
4.094508258e-05
4.108037892e-05
4.119837256e-05
4.130215704e-05
4.139295454e-05
4.146976682e-05
4.153063169e-05
4.157870051e-05
4.161550722e-05
4.16452024e-05
4.166884878e-05
4.16888606e-05
4.170481497e-05
4.171832427e-05
4.172933892e-05
4.173734251e-05
4.174255156e-05
4.174530767e-05
4.174624317e-05
4.174641816e-05
4.174945003e-05
4.174493122e-05
1.939503222e-05
2.104740046e-05
2.249073002e-05
2.390638736e-05
2.516121906e-05
2.629761115e-05
2.744294059e-05
2.855284653e-05
2.950483842e-05
3.048645193e-05
3.141554772e-05
3.226983337e-05
3.305222485e-05
3.37832716e-05
3.450705577e-05
3.521024923e-05
3.588834896e-05
3.649449307e-05
3.702761043e-05
3.753905784e-05
3.80132007e-05
3.846228969e-05
3.886542052e-05
3.924519171e-05
3.959963414e-05
3.991014176e-05
4.016220728e-05
4.038896687e-05
4.059234729e-05
4.077400558e-05
4.093454584e-05
4.107122783e-05
4.118718247e-05
4.129029851e-05
4.1377397e-05
4.145482149e-05
4.151941657e-05
4.156986746e-05
4.160927005e-05
4.163948299e-05
4.166365742e-05
4.168303903e-05
4.169937499e-05
4.171244779e-05
4.172352908e-05
4.173247193e-05
4.173868412e-05
4.174278913e-05
4.174514735e-05
4.174624432e-05
4.174693745e-05
4.175041865e-05
4.174582503e-05
1.939617901e-05
2.104367173e-05
2.250017111e-05
2.382543737e-05
2.51409268e-05
2.62871404e-05
2.73802186e-05
2.848368328e-05
2.951615662e-05
3.0419991e-05
3.135075464e-05
3.222796342e-05
3.30370899e-05
3.376000858e-05
3.446048581e-05
3.514698566e-05
3.581843808e-05
3.645255029e-05
3.700855915e-05
3.751432529e-05
3.798679364e-05
3.843068033e-05
3.88384601e-05
3.921161836e-05
3.95557487e-05
3.987889982e-05
4.01525207e-05
4.038230556e-05
4.058318876e-05
4.076159528e-05
4.092134172e-05
4.105990076e-05
4.11758165e-05
4.127719236e-05
4.13647721e-05
4.143918083e-05
4.150489902e-05
4.15588792e-05
4.160061742e-05
4.163287355e-05
4.165751462e-05
4.167740247e-05
4.169337795e-05
4.170688141e-05
4.171767373e-05
4.172682313e-05
4.173406954e-05
4.173908125e-05
4.174261608e-05
4.174481913e-05
4.174620642e-05
4.174746388e-05
4.175113105e-05
4.174624077e-05
1.940095552e-05
2.104559974e-05
2.252654276e-05
2.383309445e-05
2.509060841e-05
2.626376264e-05
2.736786893e-05
2.842394385e-05
2.944573239e-05
3.042629737e-05
3.128598296e-05
3.217043013e-05
3.299674541e-05
3.374570144e-05
3.44404211e-05
3.511055635e-05
3.575750159e-05
3.638728575e-05
3.697749059e-05
3.749374106e-05
3.796427767e-05
3.839782588e-05
3.881177342e-05
3.91840962e-05
3.952852289e-05
3.98381779e-05
4.012733785e-05
4.036919538e-05
4.057481432e-05
4.075084008e-05
4.090880753e-05
4.104656751e-05
4.116391954e-05
4.126395666e-05
4.135202704e-05
4.142590618e-05
4.148922949e-05
4.154466074e-05
4.158976028e-05
4.162368994e-05
4.165040568e-05
4.167071079e-05
4.168730203e-05
4.170072357e-05
4.171206565e-05
4.172104906e-05
4.172860282e-05
4.173461952e-05
4.173897048e-05
4.174211861e-05
4.174430407e-05
4.174609177e-05
4.174774589e-05
4.175135578e-05
4.174587339e-05
1.936175483e-05
2.10561868e-05
2.25272739e-05
2.388590455e-05
2.509133533e-05
2.624226582e-05
2.734160842e-05
2.840977528e-05
2.938672923e-05
3.033653389e-05
3.128747357e-05
3.210342503e-05
3.29432857e-05
3.372269535e-05
3.442678079e-05
3.509262581e-05
3.570889261e-05
3.632671991e-05
3.691441293e-05
3.746243538e-05
3.794788404e-05
3.837587e-05
3.877969523e-05
3.915241739e-05
3.949994058e-05
3.981116074e-05
4.009165468e-05
4.034529531e-05
4.056124036e-05
4.073915134e-05
4.089653744e-05
4.103351817e-05
4.115156467e-05
4.125156488e-05
4.133929683e-05
4.141275011e-05
4.147550788e-05
4.15286446e-05
4.157575934e-05
4.161283203e-05
4.164100144e-05
4.166317795e-05
4.16801773e-05
4.169426315e-05
4.170563627e-05
4.171538152e-05
4.172301121e-05
4.172937818e-05
4.173460809e-05
4.173846557e-05
4.174134697e-05
4.174364851e-05
4.174575416e-05
4.174760552e-05
4.175087055e-05
4.174456859e-05
1.936204905e-05
2.102447622e-05
2.250539168e-05
2.388617517e-05
2.510906469e-05
2.626343618e-05
2.731779027e-05
2.8380759e-05
2.937077168e-05
3.027692416e-05
3.119836683e-05
3.210390894e-05
3.28778039e-05
3.367176201e-05
3.440754229e-05
3.507959179e-05
3.569135851e-05
3.627884134e-05
3.684857085e-05
3.740371503e-05
3.790907415e-05
3.83646274e-05
3.875768484e-05
3.912008204e-05
3.946481459e-05
3.978290011e-05
4.006184987e-05
4.031171613e-05
4.053839447e-05
4.072467747e-05
4.088203806e-05
4.102019257e-05
4.113930635e-05
4.123984214e-05
4.132640599e-05
4.139956364e-05
4.146103404e-05
4.151446773e-05
4.15594354e-05
4.15990207e-05
4.163010235e-05
4.165370931e-05
4.167231302e-05
4.168674612e-05
4.169889141e-05
4.170877747e-05
4.171726741e-05
4.172376272e-05
4.172943601e-05
4.17341699e-05
4.173757539e-05
4.174031535e-05
4.174277457e-05
4.174506347e-05
4.174684182e-05
4.174943377e-05
4.174202344e-05
1.93584073e-05
2.101945413e-05
2.248010141e-05
2.382881384e-05
2.511032663e-05
2.624819303e-05
2.733632369e-05
2.833174957e-05
2.933928639e-05
3.025896574e-05
3.113850283e-05
3.203130452e-05
3.287339722e-05
3.360938386e-05
3.435669953e-05
3.504990305e-05
3.567886491e-05
3.626058515e-05
3.680033481e-05
3.733944395e-05
3.785545602e-05
3.83249224e-05
3.874402675e-05
3.909773612e-05
3.943178587e-05
3.974903075e-05
4.003032749e-05
4.028219121e-05
4.050326098e-05
4.070283961e-05
4.086657868e-05
4.100494167e-05
4.112537466e-05
4.122713018e-05
4.131313183e-05
4.138616499e-05
4.144687368e-05
4.149989875e-05
4.154504278e-05
4.158283543e-05
4.161645778e-05
4.164268668e-05
4.166252497e-05
4.167851453e-05
4.169106605e-05
4.170179181e-05
4.17105369e-05
4.171808125e-05
4.172392067e-05
4.172904099e-05
4.173327429e-05
4.17364074e-05
4.173910021e-05
4.17416194e-05
4.174385148e-05
4.174517175e-05
4.174683895e-05
4.173833904e-05
1.935494463e-05
2.100622344e-05
2.247110591e-05
2.377229825e-05
2.50508333e-05
2.622485507e-05
2.731617927e-05
2.832412167e-05
2.926774131e-05
3.022521382e-05
3.111800871e-05
3.197166872e-05
3.280305318e-05
3.359864789e-05
3.429808845e-05
3.500087663e-05
3.566362211e-05
3.623872361e-05
3.678053363e-05
3.729229366e-05
3.780203445e-05
3.827139031e-05
3.870499863e-05
3.908182727e-05
3.940883174e-05
3.971531954e-05
4.000100188e-05
4.025153934e-05
4.047486209e-05
4.067142783e-05
4.084555407e-05
4.098860103e-05
4.110914124e-05
4.121253038e-05
4.129871625e-05
4.137217279e-05
4.143296055e-05
4.148542744e-05
4.153029102e-05
4.156817208e-05
4.160040398e-05
4.162922255e-05
4.165150864e-05
4.166849502e-05
4.168242369e-05
4.169357077e-05
4.170330242e-05
4.171125431e-05
4.171821441e-05
4.172357393e-05
4.172820084e-05
4.173206496e-05
4.173502475e-05
4.173764245e-05
4.174014028e-05
4.174199999e-05
4.174252394e-05
4.174321612e-05
4.173388609e-05
1.935303517e-05
2.095960859e-05
2.245008915e-05
2.376098067e-05
2.499441858e-05
2.618937498e-05
2.729381887e-05
2.830040403e-05
2.925789212e-05
3.017605951e-05
3.108240388e-05
3.194826171e-05
3.274304039e-05
3.351731906e-05
3.428174911e-05
3.494290732e-05
3.561406184e-05
3.622572808e-05
3.675987598e-05
3.726203719e-05
3.775509312e-05
3.821841678e-05
3.864969904e-05
3.904456644e-05
3.939100648e-05
3.969159527e-05
3.996715686e-05
4.022329678e-05
4.044768838e-05
4.064361617e-05
4.081759079e-05
4.096808529e-05
4.109200366e-05
4.119646025e-05
4.128378842e-05
4.135743049e-05
4.141911441e-05
4.147098309e-05
4.151549168e-05
4.155300573e-05
4.158548637e-05
4.161332239e-05
4.163804056e-05
4.165724655e-05
4.167218827e-05
4.168466959e-05
4.16947683e-05
4.170383249e-05
4.171133534e-05
4.171785864e-05
4.17227234e-05
4.172696065e-05
4.17306377e-05
4.173344791e-05
4.173595072e-05
4.173818302e-05
4.173943181e-05
4.173905077e-05
4.173880584e-05
4.172897004e-05
1.934278406e-05
2.091418346e-05
2.24009073e-05