/*--------------------------------*- C++ -*----------------------------------*\
| =========                 |                                                 |
| \\      /  F ield         | OpenFOAM: The Open Source CFD Toolbox           |
|  \\    /   O peration     | Version:  v1612+-hyStrath                       |
|   \\  /    A nd           | Web:      www.OpenFOAM.com                      |
|    \\/     M anipulation  |                                                 |
\*---------------------------------------------------------------------------*/
FoamFile
{
    version     2.0;
    format      ascii;
    class       volScalarField;
    location    "0.016";
    object      p;
}
// * * * * * * * * * * * * * * * * * * * * * * * * * * * * * * * * * * * * * //

dimensions      [1 -1 -2 0 0 0 0];

internalField   nonuniform List<scalar> 
141100
(
8863.536214
8869.491526
8886.343486
8864.929321
8893.165141
8880.365429
8867.208042
8888.858086
8889.925664
8880.515606
8868.192806
8889.404053
8886.49263
8885.404574
8877.10966
8869.451346
8890.001841
8884.247198
8879.297276
8884.872408
8876.013964
8868.327904
8891.07393
8882.062901
8881.342015
8879.172545
8882.585104
8877.800424
8865.448351
8889.799192
8882.397663
8880.618108
8879.547654
8877.273415
8883.704352
8877.312333
8860.934153
8887.162834
8882.664846
8880.855025
8878.289887
8876.880362
8877.116203
8882.969978
8878.353898
8855.000581
8882.481082
8881.689693
8879.415919
8878.02432
8875.644474
8877.318844
8876.456977
8884.435761
8878.274326
8847.589488
8877.008505
8876.744952
8875.770565
8876.301207
8874.872993
8875.409309
8875.86975
8877.654803
8884.215919
8879.288479
8836.997254
8869.453881
8868.154527
8870.930255
8873.143466
8872.741752
8874.23928
8873.836902
8876.249853
8877.32575
8885.003136
8879.887715
8825.937596
8858.641977
8860.634387
8865.834118
8868.1163
8869.908356
8871.862458
8872.106438
8873.580411
8875.799322
8878.471152
8885.770258
8879.950446
8814.111527
8847.547583
8850.460051
8858.445981
8860.736717
8864.961054
8867.799997
8869.361296
8871.378441
8873.295879
8876.403271
8878.165089
8885.79503
8880.487642
8803.367091
8835.821552
8837.421596
8846.39549
8853.25056
8858.933398
8862.734616
8865.46265
8868.47679
8870.651268
8872.82844
8876.33525
8878.416264
8886.441144
8880.213887
8793.52131
8825.138185
8825.733765
8834.993714
8843.67477
8851.640887
8856.251845
8860.37268
8864.877121
8866.955919
8869.763879
8872.822778
8875.908755
8878.964613
8886.235624
8880.185467
8782.859967
8815.815259
8816.935064
8823.342125
8832.353591
8840.881886
8848.885518
8854.796858
8859.552341
8862.731167
8866.454446
8869.146425
8872.347588
8876.31702
8878.762928
8886.482346
8879.359143
8767.864661
8805.338996
8806.797349
8813.340617
8820.790322
8829.937266
8838.788732
8847.566281
8852.964415
8857.51947
8862.160344
8865.30575
8868.378082
8872.203275
8875.939203
8879.005145
8885.571772
8878.996075
8750.928245
8790.066082
8794.67658
8804.930291
8810.686156
8818.494852
8827.879
8836.700548
8845.708747
8851.460031
8856.457175
8860.550406
8864.143931
8868.040123
8871.728656
8876.139621
8878.143078
8885.433963
8878.080853
8741.824119
8771.818581
8782.167433
8795.315029
8800.264147
8808.444485
8816.570896
8826.021403
8836.140076
8844.258983
8850.21581
8855.399438
8859.412046
8863.697085
8867.348013
8871.638763
8875.274182
8877.98966
8884.740061
8877.46165
8727.11487
8764.175474
8765.99581
8779.420042
8789.67775
8798.877377
8806.550733
8814.878619
8825.533754
8834.306289
8843.230214
8849.321533
8853.85245
8858.846353
8862.733798
8866.83367
8871.059608
8875.103039
8877.681802
8883.95521
8876.397398
8710.978438
8749.535746
8755.267208
8760.406945
8775.84745
8787.892065
8796.952939
8805.088347
8814.573863
8824.1724
8833.373254
8842.201996
8848.023684
8853.297981
8857.741206
8862.417292
8866.255682
8870.758149
8874.770311
8876.71305
8883.35951
8875.563637
8692.325569
8733.167988
8738.838444
8752.975644
8758.158172
8771.945546
8786.110242
8795.672722
8804.354618
8813.486767
8823.29968
8832.663504
8841.040165
8847.109819
8852.053836
8857.31523
8861.234841
8865.917312
8870.202449
8874.128128
8876.326587
8882.528731
8874.731277
8672.386692
8715.027976
8722.472931
8737.884756
8748.070093
8753.9834
8771.422828
8785.434882
8794.901292
8803.77374
8812.749508
8822.186461
8831.580825
8840.338113
8846.091371
8851.498244
8856.015514
8860.974275
8865.371218
8869.848358
8873.658705
8875.627803
8881.77952
8874.171671
8651.019847
8693.534482
8704.092662
8721.50427
8732.639967
8745.506904
8753.624583
8769.9504
8784.227499
8794.374007
8802.998316
8811.854335
8822.063879
8830.71025
8839.353223
8845.072218
8850.459767
8855.62706
8860.231243
8864.950407
8869.450972
8873.089163
8874.988039
8881.291122
8873.646678
8624.809101
8669.411613
8683.519436
8702.898682
8716.585175
8731.129067
8743.66026
8751.905516
8768.051845
8783.634001
8793.617064
8802.380155
8811.583612
8820.796098
8830.101473
8838.492329
8844.458223
8849.73288
8854.79643
8859.915331
8864.546097
8868.949629
8872.50266
8874.593914
8880.73628
8873.358232
8600.261789
8644.850418
8662.197705
8680.60678
8697.716417
8714.555578
8728.569559
8742.410467
8750.266434
8767.626135
8782.842196
8792.922623
8801.992905
8810.883092
8820.544331
8829.677997
8837.672867
8843.583616
8848.892162
8854.38498
8859.310032
8864.038842
8868.518016
8872.15015
8874.108098
8880.39004
8873.480497
8582.221555
8623.223103
8637.241657
8658.699736
8678.107569
8695.603665
8712.307006
8726.587694
8740.636824
8749.654453
8766.642644
8782.215169
8792.604697
8801.742436
8810.435508
8820.269893
8828.600239
8837.093877
8842.719165
8848.39818
8853.720926
8858.818154
8863.793599
8868.076195
8871.700484
8873.789709
8880.414121
8873.752775
8560.691792
8603.56653
8612.33549
8635.081384
8655.036382
8674.448406
8693.401356
8710.173526
8725.782924
8739.633931
8748.694628
8765.767714
8781.772092
8792.294692
8801.217283
8810.446302
8819.320853
8828.313085
8836.328262
8842.188953
8847.580857
8853.16099
8858.316629
8863.32881
8867.795636
8871.351501
8873.804471
8880.549594
8874.304235
8526.981466
8582.875048
8593.567829
8611.584202
8629.690864
8652.494821
8672.96512
8692.09021
8709.487419
8723.777926
8738.386009
8747.701444
8765.458167
8781.413234
8791.783349
8801.128761
8809.537189
8819.187899
8827.564015
8835.63669
8841.264309
8847.086551
8852.562807
8858.027545
8863.0007
8867.486158
8871.278542
8873.865449
8881.015688
8875.170867
8500.901884
8550.588997
8572.358988
8591.312293
8606.709543
8628.598135
8650.821878
8672.333672
8690.326447
8707.480676
8722.809064
8737.15646
8747.424635
8764.699863
8780.789479
8791.290961
8800.542421
8809.441241
8818.584158
8827.341301
8834.990869
8840.862997
8846.295923
8852.203508
8857.581315
8862.775707
8867.256291
8871.247123
8874.287878
8881.622426
8876.078586
8481.234746
8523.559965
8539.698438
8571.756613
8588.971167
8604.894194
8626.58934
8649.638316
8669.751255
8689.121067
8706.547975
8721.612886
8736.373692
8746.456323
8764.140753
8780.65441
8790.931966
8800.334163
8808.914317
8818.34055
8826.519788
8834.400576
8840.046816
8845.841198
8851.668867
8857.165361
8862.442313
8867.194857
8871.3508
8874.761526
8882.445688
8877.092533
8455.864716
8502.834238
8513.272153
8541.003188
8567.303225
8586.524285
8603.201248
8624.863509
8647.819449
8669.078641
8687.672508
8705.098504
8720.702423
8735.33149
8746.124956
8763.581512
8779.868722
8790.594404
8799.825464
8808.708437
8817.786405
8826.00849
8833.951563
8839.432799
8845.195972
8851.165722
8856.892573
8862.217239
8867.152844
8871.686911
8875.417688
8883.309117
8878.117709
8425.426408
8477.513422
8493.154026
8512.882291
8534.041715
8566.107303
8585.157528
8602.323359
8624.39042
8647.009283
8667.610528
8686.503825
8704.25704
8719.812125
8734.368009
8745.477594
8762.938626
8779.713291
8790.1168
8799.639133
8808.21776
8817.347507
8825.518393
8833.092332
8838.835225
8844.545988
8850.788303
8856.53157
8862.088997
8867.206765
8872.026689
8876.219722
8884.15974
8878.952928
8393.9131
8448.001889
8467.511871
8490.682417
8507.951817
8533.668494
8564.158511
8584.481967
8601.480433
8622.834012
8645.726332
8666.589952
8685.302333
8703.254782
8718.830333
8733.923689
8744.722889
8762.724203
8779.1115
8789.640675
8799.024951
8807.857124
8816.846236
8825.041367
8832.47769
8838.155846
8844.023004
8850.257618
8856.16474
8861.845571
8867.376717
8872.547874
8876.859083
8884.941834
8879.548926
8377.658228
8415.130554
8437.251284
8466.698591
8488.04636
8507.182153
8531.272775
8563.296956
8582.81258
8600.383351
8622.245114
8644.78553
8665.419148
8684.677916
8702.208532
8717.767462
8732.918204
8744.562992
8762.091785
8778.923963
8789.235588
8798.779913
8807.468797
8816.467461
8824.462475
8831.891024
8837.479699
8843.372489
8849.751991
8855.898129
8861.795427
8867.452025
8872.943135
8877.605313
8885.442985
8879.597378
8363.491847
8398.414986
8404.988577
8437.350263
8462.814202
8484.975589
8504.991213
8530.34034
8562.280092
8582.855004
8600.10012
8621.501431
8643.718804
8664.876215
8683.597001
8701.300859
8717.048974
8732.270195
8743.995648
8761.821239
8778.173834
8788.657527
8798.348762
8807.072411
8815.910658
8823.834243
8831.10702
8836.799738
8842.717473
8849.311931
8855.545875
8861.621903
8867.671485
8873.329303
8877.990755
8885.507665
8879.0006
8346.296572
8383.444028
8387.994415
8404.139849
8431.860404
8460.753853
8483.368261
8504.052858
8529.106919
8562.43111
8582.083037
8599.265435
8621.033691
8643.304512
8663.920811
8682.572439
8700.376719
8716.306769
8731.342076
8743.735106
8761.282226
8777.738502
8788.241601
8797.772839
8806.643208
8815.37998
8823.346786
8830.42209
8836.044581
8842.126286
8848.767257
8855.167088
8861.548035
8867.781222
8873.601364
8878.107957
8884.953252
8877.673549
8313.958954
8363.161512
8372.841107
8386.519423
8400.472534
8432.1341
8459.965894
8481.836334
8502.862444
8529.200217
8561.868553
8581.757437
8599.210305
8620.483218
8642.563499
8663.048768
8681.916709
8699.524529
8715.55334
8730.916386
8743.217898
8760.845037
8777.229512
8787.701613
8797.377602
8806.181506
8814.913409
8822.535091
8829.669192
8835.352953
8841.438633
8848.221422
8854.839035
8861.373621
8867.871078
8873.612556
8877.705652
8883.67816
8875.377178
8265.649201
8331.534483
8353.558112
8370.627832
8382.297387
8400.905399
8430.345074
8458.572859
8481.082365
8502.954543
8528.562253
8561.626847
8581.260911
8598.717824
8620.374621
8641.807842
8662.586531
8680.993211
8698.468858
8714.696519
8729.962498
8742.954225
8760.378873
8776.537788
8787.114039
8796.917698
8805.72324
8814.293601
8821.979646
8828.874673
8834.535909
8840.75396
8847.709157
8854.39664
8861.140258
8867.754623
8873.277306
8876.72706
8881.55027
8872.248553
8219.570409
8284.96656
8322.476877
8350.048464
8365.486235
8382.207384
8399.768847
8429.981296
8458.307932
8480.221285
8502.438009
8528.31532
8561.234434
8581.443544
8598.396439
8619.893545
8641.411946
8661.779504
8680.180836
8697.947669
8713.979682
8729.276464
8742.369163
8760.134821
8776.016893
8786.566529
8796.306734
8805.241199
8813.676204
8821.153336
8828.051178
8833.709236
8840.096756
8847.103152
8853.996507
8860.857993
8867.427807
8872.553818
8875.028862
8878.660178
8868.39006
8164.662934
8237.451988
8275.541504
8318.139305
8344.607563
8364.14462
8380.423237
8399.709568
8429.321115
8457.365148
8479.65341
8502.277412
8527.996329
8561.471183
8581.125633
8598.44841
8619.861536
8640.807058
8661.112774
8679.373798
8696.883727
8713.327852
8728.819732
8742.102284
8759.444237
8775.492776
8786.008365
8795.814279
8804.715164
8813.115105
8820.321463
8827.236095
8832.906668
8839.340134
8846.50997
8853.42244
8860.379924
8866.791116
8871.300505
8872.681148
8875.050801
8863.907943
8119.185667
8186.384258
8230.964941
8272.560615
8312.023157
8341.165461
8361.025564
8379.702422
8399.441692
8429.910936
8457.504293
8479.12957
8501.951144
8528.332389
8561.346425
8581.082259
8598.032213
8619.310853
8640.521575
8660.435089
8678.818573
8696.070888
8712.519049
8727.953387
8741.461509
8759.28846
8774.742934
8785.40838
8795.351362
8804.106107
8812.512844
8819.576075
8826.284264
8832.119435
8838.707029
8845.910054
8852.924626
8859.802936
8865.820766
8869.483476
8869.697135
8870.848549
8859.140185
8090.140826
8140.602362
8178.169637
8230.857317
8267.852164
8307.404045
8335.809528
8358.933965
8378.78212
8400.471254
8429.734811
8456.85834
8478.842824
8502.332434
8528.395237
8561.212814
8580.884647
8598.242631
8619.087388
8639.964057
8660.039665
8678.091791
8695.552469
8711.839173
8727.353197
8741.301686
8758.625282
8774.210154
8784.809241
8794.743557
8803.598852
8811.787583
8818.737397
8825.391638
8831.266534
8837.923151
8845.260139
8852.234045
8858.969165
8864.479496
8867.155436
8866.16965
8866.30571
8854.243284
8045.936359
8107.596035
8133.864206
8182.397067
8228.619645
8264.852424
8301.850754
8332.042668
8356.312045
8379.136733
8400.80611
8430.004283
8456.999323
8478.64896
8502.40838
8528.384328
8561.463392
8580.934691
8598.197648
8619.24364
8639.726444
8659.434434
8677.358168
8694.547758
8711.145431
8726.644024
8740.694756
8758.235251
8773.525559
8784.279233
8794.203235
8802.977064
8811.066439
8817.881374
8824.554778
8830.460317
8837.290758
8844.580253
8851.510722
8857.916592
8862.740126
8864.404122
8862.305101
8861.679718
8849.659736
8023.89157
8064.836667
8105.448774
8139.614181
8180.737419
8226.810805
8261.379717
8297.700267
8328.392285
8354.994822
8378.78498
8401.441336
8430.042007
8456.579226
8478.591159
8502.637137
8529.069569
8561.085913
8580.786764
8598.144758
8618.837617
8639.453802
8658.833769
8676.893247
8693.963997
8710.382864
8726.007551
8740.281487
8757.877512
8772.92462
8783.676903
8793.740227
8802.366682
8810.341622
8817.04452
8823.691208
8829.655187
8836.553925
8843.896481
8850.627787
8856.636807
8860.695591
8861.330212
8858.316589
8857.390877
8845.694565
7996.367861
8041.794858
8062.347759
8108.084467
8141.501191
8183.019149
8227.773504
8258.561292
8293.512474
8324.890756
8352.614905
8378.932036
8401.830164
8430.821464
8456.612252
8478.635651
8502.811187
8529.049769
8561.335514
8580.738917
8598.36972
8618.866789
8639.23083
8658.616329
8676.056597
8693.166656
8709.82089
8725.358497
8739.752182
8757.272134
8772.269895
8783.081866
8793.125283
8801.79135
8809.59014
8816.245843
8822.874212
8828.952201
8835.851266
8843.120184
8849.595115
8855.105659
8858.371677
8858.078362
8854.553143
8853.60097
8842.550416
7948.877002
8012.501212
8038.169845
8065.849081
8112.902238
8145.964129
8186.66896
8228.155032
8255.564279
8289.088151
8321.184698
8351.035698
8378.522748
8402.844635
8430.841561
8456.492575
8478.611596
8503.350846
8529.476172
8561.498737
8580.779564
8598.462862
8618.701651
8638.94657
8657.930974
8675.74519
8692.5406
8708.887752
8724.603606
8739.295429
8756.778749
8771.63132
8782.538914
8792.539757
8801.081213
8808.871601
8815.416952
8822.068237
8828.267862
8835.227161
8842.333573
8848.442947
8853.418661
8855.85017
8854.901692
8851.158821
8850.482363
8840.364264
7910.818003
7967.501255
8009.599943
8041.575634
8069.228
8116.594639
8152.066044
8190.6716
8228.63784
8253.80236
8285.506191
8318.343236
8349.392154
8379.142671
8403.236897
8431.154496
8456.805353
8478.906384
8503.67399
8530.283583
8561.190906
8580.607142
8598.583339
8618.857995
8638.8314
8657.842426
8674.992852
8691.835837
8708.375158
8723.975062
8738.753465
8756.205222
8771.029446
8781.936451
8792.054276
8800.486635
8808.104107
8814.649504
8821.296383
8827.558816
8834.468758
8841.414082
8847.170125
8851.52024
8853.252452
8851.893943
8848.265001
8848.31804
8839.383927
7870.540595
7929.914714
7962.666783
8011.189739
8044.371162
8074.140726
8123.496385
8158.801966
8194.640091
8229.931702
8251.142552
8282.141566
8315.664362
8348.225055
8378.388712
8404.01488
8431.72807
8456.474446
8479.176818
8504.086763
8530.392066
8561.306266
8580.51553
8598.650708
8618.881767
8638.592297
8657.276846
8674.557803
8691.134003
8707.489396
8723.279841
8738.18467
8755.678311
8770.36299
8781.334407
8791.363319
8799.783054
8807.377492
8813.890018
8820.644847
8826.913473
8833.801422
8840.432949
8845.758276
8849.488612
8850.677497
8849.214017
8846.127702
8847.160372
8839.161197
7828.036508
7890.746764
7925.230997
7964.927906
8013.343334
8049.645565
8079.928749
8130.493862
8165.303749
8199.621526
8230.632671
8249.410407
8279.361393
8312.89064
8346.743781
8379.124631
8404.125624
8431.617147
8456.902645
8479.416306
8504.690371
8531.034226
8561.167904
8580.562352
8598.862391
8618.991065
8638.568133
8657.049925
8673.969866
8690.517232
8706.797391
8722.540333
8737.657316
8755.06943
8769.68958
8780.739003
8790.821411
8799.089376
8806.630392
8813.184592
8819.988964
8826.25684
8832.991242
8839.353459
8844.182296
8847.370829
8848.269278
8847.004285
8844.801058
8846.812852
8839.798168
7792.346059
7849.323579
7886.316218
7927.907849
7966.118176
8015.738076
8054.120076
8086.3284
8137.462795
8173.044739
8204.079146
8231.329215
8248.009285
8277.127417
8311.046664
8345.929409
8378.64041
8404.532359
8431.722133
8456.737732
8480.064803
8505.206991
8531.308582
8561.207271
8580.452022
8598.883909
8619.042602
8638.453902
8656.637169
8673.502085
8689.826919
8705.976041
8721.868182
8737.058356
8754.439991
8769.024888
8780.062309
8790.114274
8798.434152
8805.895854
8812.518734
8819.377388
8825.638947
8832.11824
8838.123206
8842.49278
8845.298
8846.095457
8845.342241
8844.169982
8847.197494
8840.903451
7768.995539
7812.425688
7843.746146
7889.695733
7929.380422
7969.689918
8020.987812
8060.713222
8093.11966
8145.13656
8179.472769
8208.21588
8232.094788
8246.361198
8274.994269
8309.558331
8345.58388
8378.990226
8404.648207
8432.008182
8456.980778
8480.135891
8505.777282
8532.00172
8561.046634
8580.360427
8599.099981
8619.204316
8638.411905
8656.406861
8672.94663
8689.161826
8705.293066
8721.116125
8736.440175
8753.819651
8768.274054
8779.370641
8789.344775
8797.586573
8805.175372
8811.843452
8818.73316
8824.956888
8831.183102
8836.759126
8840.753857
8843.277273
8844.207499
8844.207347
8844.145602
8847.991867
8841.92992
7742.788668
7788.209263
7806.921096
7847.625609
7891.559643
7933.27947
7974.724008
8025.630045
8066.149406
8100.079844
8151.888268
8185.785793
8211.885619
8232.660039
8245.821468
8273.617385
8308.46294
8344.867306
8378.363561
8404.547112
8431.657951
8457.041016
8480.607824
8506.239912
8532.069309
8560.931669
8580.217115
8599.208192
8619.216803
8638.301669
8656.05959
8672.412275
8688.48224
8704.578032
8720.376029
8735.858075
8753.113588
8767.506459
8778.574689
8788.641849
8796.800429
8804.377121
8811.172378
8818.043755
8824.133528
8830.115335
8835.297415
8838.964265
8841.350674
8842.670561
8843.472317
8844.438042
8848.799513
8842.487444
7726.611173
7761.805822
7783.436539
7811.33599
7850.775998
7895.816238
7938.903111
7979.642584
8030.84682
8072.528865
8106.932985
8159.180522
8191.208039
8214.807156
8233.490076
8245.167914
8273.213333
8308.305885
8345.033356
8378.726581
8404.165691
8431.682749
8457.139173
8481.117391
8506.859496
8532.761574
8560.77473
8580.173554
8599.334414
8619.39149
8638.242359
8655.755633
8671.862603
8687.838933
8703.714788
8719.668775
8735.149697
8752.410568
8766.652825
8777.726763
8787.720378
8795.986671
8803.619754
8810.448754
8817.354941
8823.185266
8828.819349
8833.735611
8837.129444
8839.558986
8841.332949
8842.962849
8844.677465
8849.109553
8842.096978
7687.077434
7744.410452
7755.411005
7785.347169
7813.648356
7855.031828
7901.919513
7944.311341
7984.848158
8035.712813
8077.834455
8113.169145
8164.992363
8195.940196
8217.576059
8233.821707
8244.891931
8272.602733
8308.514008
8345.06087
8378.064946
8403.872068
8431.339171
8457.15206
8481.555671
8507.243049
8532.809685
8560.633201
8580.009933
8599.410991
8619.470228
8638.106224
8655.353858
8671.330649
8687.190174
8703.034922
8718.98298
8734.581288
8751.639982
8765.739781
8776.785403
8786.710899
8794.991098
8802.807947
8809.672753
8816.507834
8822.186635
8827.50556
8832.043599
8835.279495
8837.878753
8840.158275
8842.411235
8844.506824
8848.567585
8840.591438
7654.725485
7707.1617
7736.28324
7756.191006
7785.567023
7817.948054
7861.070799
7907.931562
7949.967816
7989.770989
8041.328871
8083.810912
8119.069389
8170.485036
8199.739261
8219.419879
8233.859239
8245.278183
8273.351501
8309.384794
8345.77055
8377.892131
8403.202824
8430.907812
8457.278776
8481.992126
8507.886735
8533.181987
8560.381752
8579.820518
8599.540771
8619.448537
8637.934255
8654.920146
8670.79487
8686.469733
8702.314372
8718.218944
8733.930139
8750.833461
8764.772291
8775.762781
8785.684716
8793.912117
8801.820204
8808.79764
8815.516932
8820.913587
8825.934472
8830.249418
8833.446
8836.241477
8838.953194
8841.56983
8843.620835
8846.891455
8837.535247
7613.061476
7673.463367
7695.49901
7735.663409
7755.351261
7788.883548
7823.046457
7866.630382
7914.272439
7955.29227
7995.541282
8046.096052
8088.330529
8124.081155
8174.266184
8202.371883
8220.203411
8234.103668
8245.366316
8274.167563
8310.433685
8346.412394
8377.383827
8402.412269
8430.579256
8457.321312
8482.327914
8508.105373
8533.340345
8560.0951
8579.693734
8599.52863
8619.537386
8637.786613
8654.619978
8670.155225
8685.844595
8701.61147
8717.545318
8733.262475
8750.004288
8763.65751
8774.535279
8784.532604
8792.814849
8800.770997
8807.77532
8814.372703
8819.545942
8824.246843
8828.408054
8831.638637
8834.611549
8837.528127
8840.138836
8841.653979
8843.773894
8833.036208
7564.698315
7631.096195
7662.00013
7695.711699
7732.485501
7756.419762
7791.743122
7828.073656
7872.919855
7920.07832
7961.406155
8000.576392
8050.589573
8092.947418
8128.335929
8177.29963
8203.685133
8220.596163
8233.424606
8246.770912
8276.219026
8312.419388
8347.293277
8376.816982
8401.691229
8429.946723
8457.235904
8482.768063
8508.443748
8533.375485
8559.839596
8579.431651
8599.557302
8619.230154
8637.40244
8654.05013
8669.573018
8685.191016
8700.916944
8716.881612
8732.615924
8749.101294
8762.602198
8773.333217
8783.182075
8791.562261
8799.62484
8806.613705
8813.026213
8817.941857
8822.506141
8826.548446
8829.790208
8832.801712
8835.754065
8837.936065
8838.467982
8839.352791
8827.585723
7514.386921
7580.239861
7620.263141
7661.531619
7690.644288
7731.852624
7759.117413
7795.799112
7834.38858
7879.558774
7926.68865
7966.735971
8005.318765
8054.33371
8096.018975
8131.410207
8179.250788
8203.498238
8219.617663
8233.530564
8247.790965
8278.109092
8314.532762
8348.184185
8376.350947
8400.765309
8429.640197
8457.350783
8483.084621
8508.765165
8533.468368
8559.460673
8579.20895
8599.445135
8619.19376
8637.055091
8653.444637
8668.94197
8684.52764
8700.266272
8716.268526
8732.0036
8748.176843
8761.323358
8771.980032
8781.785345
8790.210042
8798.361139
8805.26331
8811.483831
8816.168779
8820.601147
8824.643867
8827.829582
8830.765203
8833.416232
8834.852241
8834.245532
8833.94594
8821.542213
7459.396966
7527.925664
7572.274738
7619.52562
7656.176433
7689.731306
7730.779647
7761.111786
7799.878408
7840.505443
7886.234809
7932.276013
7971.808179
8009.279865
8057.95215
8098.878875
8133.142518
8178.925475
8202.406992
8218.118563
8232.570991
8249.669764
8280.87255
8316.968964
8349.26503
8375.713451
8399.82128
8428.903804
8457.308376
8483.287426
8508.918093
8533.310612
8559.068918
8578.901052
8599.251801
8618.793339
8636.646521
8652.901385
8668.269863
8683.877056
8699.667661
8715.602971
8731.284353
8747.168121
8760.038851
8770.501122
8780.27331
8788.774713
8796.897971
8803.731368
8809.770239
8814.368623
8818.642999
8822.660037
8825.745812
8828.464859
8830.5078
8830.944927
8829.227328
8828.085818
8815.883564
7426.297708
7475.109781
7523.312637
7571.220799
7614.303952
7655.010747
7685.847573
7730.4222
7763.880175
7804.715569
7846.153515
7891.820778
7937.512543
7975.757938
8013.313129
8060.441262
8100.068474
8134.197822
8177.730482
8199.573433
8215.938603
8231.945338
8251.656496
8284.292272
8319.896836
8350.175262
8375.027539
8399.047456
8428.420658
8457.159546
8483.510805
8508.968966
8533.376657
8558.710139
8578.486374
8599.03507
8618.312732
8635.980866
8652.198645
8667.516558
8683.263648
8699.077899
8715.085067
8730.606325
8746.187362
8758.663623
8769.049082
8778.807495
8787.260767
8795.387328
8802.051757
8807.960626
8812.451878
8816.729114
8820.640924
8823.562742
8825.781992
8827.072936
8826.558499
8823.87141
8822.463348
8811.075106
7378.027502
7442.352661
7468.738843
7521.432456
7567.269115
7612.187047
7650.580124
7684.950136
7730.097604
7766.839188
7809.560405
7852.052841
7897.7161
7942.667808
7979.823951
8016.129684
8062.055972
8100.534246
8132.901505
8174.801568
8195.873953
8212.560011
8231.230849
8253.893345
8287.559337
8322.687069
8351.043402
8374.48572
8398.243247
8428.114244
8457.199219
8483.667747
8508.906599
8532.948094
8558.190769
8578.156151
8598.657095
8617.84225
8635.290678
8651.457365
8666.852364
8682.638871
8698.519128
8714.510177
8729.908975
8745.099579
8757.243505
8767.451088
8777.118955
8785.616867
8793.786596
8800.280745
8806.097325
8810.516394
8814.79706
8818.635073
8821.246077
8822.878471
8823.324706
8821.975094
8818.777322
8817.744139
8807.808179
7342.594048
7393.840458
7434.92897
7468.288721
7518.483852
7565.071704
7608.289038
7648.711974
7682.900768
7730.217551
7768.835616
7813.537134
7857.370965
7903.047678
7946.623546
7982.264141
8018.30152
8062.420894
8099.500466
8130.69493
8170.161438
8190.389397
8208.82254
8230.333422
8256.270219
8291.441748
8325.498434
8351.717292
8373.89204
8397.541786
8427.584909
8457.04454
8483.525188
8508.812802
8532.882087
8557.688163
8577.769791
8598.167488
8617.149995
8634.421901
8650.570447
8666.169916
8682.018895
8697.999295
8713.9328
8729.182435
8744.026471
8755.844389
8765.88517
8775.486284
8783.919936
8792.000378
8798.39001
8804.080413
8808.656172
8812.910944
8816.621919
8818.824768
8819.801563
8819.537459
8817.640947
8814.501696
8814.448842
8806.00039
7290.554308
7358.508573
7387.393748
7435.194988
7466.056103
7516.492659
7563.437209
7606.458183
7645.929784
7681.486046
7730.139268
7771.943838
7817.787273
7862.535188
7907.223948
7950.287065
7985.088555
8019.427817
8062.050441
8097.187973
8127.447864
8164.56215
8184.259504
8204.573753
8229.368805
8258.845658
8295.138953
8328.261131
8352.342991
8373.30609
8397.107264
8427.321974
8457.045449
8483.603846
8508.531412
8532.41663
8557.11476
8577.106494
8597.599896
8616.310641
8633.549528
8649.614132
8665.33904
8681.431271
8697.458453
8713.363426
8728.394836
8742.826943
8754.398805
8764.277366
8773.869858
8782.237884
8790.174923
8796.51807
8802.176801
8806.789956
8811.132411
8814.620112
8816.371552
8816.738785
8815.949486
8814.055087
8811.470686
8812.604804
8805.389355
7246.294292
7304.112248
7349.878873
7386.754928
7432.240587
7465.460729
7515.574841
7561.375822
7603.229731
7643.772118
7679.915252
7730.656046
7774.265771
7821.77844
7867.300408
7911.106621
7952.670409
7985.904999
8019.706321
8060.28138
8093.884208
8122.455827
8157.34191
8176.889718
8199.468429
8228.50665
8261.797038
8299.018932
8330.629021
8352.940234
8372.989007
8396.793768
8427.391347
8456.766002
8483.281516
8508.240508
8532.065722
8556.710437
8576.6317
8596.860055
8615.350302
8632.574803
8648.722224
8664.564746
8680.826901
8696.926139
8712.753876
8727.559008
8741.58176
8752.848424
8762.665074
8772.093188
8780.501056
8788.342358
8794.565932
8800.313422
8804.999501
8809.328918
8812.646939
8813.959686
8813.871688
8812.946703
8811.435892
8809.708429
8811.913063
8805.254037
7196.151577
7258.978103
7298.689377
7350.198942
7384.129386
7431.149363
7465.469687
7514.300274
7559.082839
7601.375529
7641.315877
7679.20782
7730.621892
7776.572279
7824.568014
7870.669357
7914.012358
7954.629523
7986.713023
8019.000725
8057.815628
8089.551667
8116.832832
8149.371142
8169.214596
8194.662621
8227.496345
8264.098243
8302.375247
8332.448637
8353.080046
8372.710457
8396.701188
8427.259756
8456.892158
8483.076174
8507.774226
8531.541036
8555.91678
8575.878347
8595.999021
8614.286588
8631.297184
8647.717958
8663.778771
8680.235279
8696.372009
8712.09594
8726.549675
8740.277157
8751.253185
8760.98731
8770.401923
8778.595087
8786.410712
8792.589259
8798.459573
8803.390654
8807.671212
8810.699101
8811.652907
8811.323847
8810.595731
8809.740531
8808.927208
8811.79743
8805.155742
7144.323319
7208.81713
7255.046795
7297.394424
7346.884499
7383.488658
7430.615325
7465.644368
7514.37532
7558.543734
7599.130648
7639.857765
7678.134512
7730.699081
7778.243899
7827.585031
7873.540884
7915.995285
7954.986729
7985.582311
8017.102657
8054.422723
8084.416283
8109.914505
8140.516176
8160.953471
8189.593875
8226.596845
8266.516718
8305.220273
8333.897479
8353.343681
8372.559098
8396.969472
8427.517723
8456.597123
8482.672044
8507.329062
8531.21612
8555.414926
8575.097381
8595.023139
8613.085726
8630.224747
8646.675051
8663.026128
8679.63956
8695.77375
8711.323067
8725.577819
8738.854435
8749.723856
8759.265052
8768.645405
8776.770534
8784.518099
8790.739435
8796.723088
8801.725129
8805.942159
8808.755412
8809.463846
8809.130985
8808.820737
8808.686105
8808.569495
8811.606285
8804.135798
7098.584823
7156.733256
7205.099054
7251.539292
7294.700676
7345.46776
7382.788095
7429.995052
7465.826204
7513.772416
7556.680615
7597.408399
7638.05431
7677.337292
7730.579276
7779.964584
7829.552747
7875.748185
7917.177099
7954.778898
7984.648844
8014.607911
8050.24115
8078.152658
8102.392696
8131.589048
8153.124723
8185.343202
8225.8452
8268.227807
8307.475598
8334.385879
8353.189706
8372.627433
8397.310973
8427.834875
8456.499327
8482.165018
8506.595588
8530.530197
8554.567965
8574.139393
8593.942345
8611.750708
8628.884851
8645.686657
8662.208875
8679.020365
8695.076229
8710.453654
8724.431968
8737.367427
8747.989496
8757.493753
8766.66242
8774.789255
8782.471965
8788.820028
8794.999759
8800.116549
8804.1869
8806.747296
8807.341313
8807.179615
8807.358594
8807.800884
8808.035669
8810.627515
8801.806578
7052.56183
7111.089261
7153.62541
7202.187174
7250.505294
7293.378098
7343.351461
7383.636874
7430.206765
7466.452484
7513.443402
7555.801814
7595.614333
7636.609057
7676.479733
7730.805055
7780.995079
7830.983403
7876.375724
7916.935141
7953.338763
7981.798256
8011.271155
8044.981034
8071.321617
8094.19748
8122.31637
8145.711699
8181.093065
8224.862467
8269.63672
8308.756162
8334.548349
8353.015723
8372.887741
8398.26621
8428.44636
8456.257095