/*--------------------------------*- C++ -*----------------------------------*\
| =========                 |                                                 |
| \\      /  F ield         | OpenFOAM: The Open Source CFD Toolbox           |
|  \\    /   O peration     | Version:  v1612+-hyStrath                       |
|   \\  /    A nd           | Web:      www.OpenFOAM.com                      |
|    \\/     M anipulation  |                                                 |
\*---------------------------------------------------------------------------*/
FoamFile
{
    version     2.0;
    format      ascii;
    class       volScalarField;
    location    "0.016";
    object      rho;
}
// * * * * * * * * * * * * * * * * * * * * * * * * * * * * * * * * * * * * * //

dimensions      [1 -3 0 0 0 0 0];

internalField   nonuniform List<scalar> 
141100
(
0.09644181461
0.09671532697
0.08655227914
0.09685836337
0.08690155261
0.07880497047
0.09652966478
0.08710151833
0.07880278081
0.0724290007
0.09625213931
0.08656511186
0.07868756382
0.07231684997
0.06709112688
0.09623700293
0.08609846895
0.07845452788
0.07210504332
0.06703223196
0.06286736255
0.09649991571
0.08605117865
0.07822206103
0.07197185096
0.06691674549
0.06266751129
0.05917342448
0.09674209774
0.08646777012
0.07815653169
0.07193949331
0.06666843605
0.06244835366
0.058978582
0.05588092699
0.09664052116
0.08682414313
0.07828162837
0.07185944235
0.06663052812
0.06233098947
0.05874483889
0.05577310546
0.05307216745
0.0962560271
0.08667118398
0.07830753935
0.07177353354
0.06654268397
0.06227570963
0.05864513881
0.05561529135
0.0529782993
0.05064126636
0.09613370906
0.086120623
0.07813592247
0.07169431065
0.06645652161
0.0621959254
0.05858653282
0.05543877304
0.05282520248
0.05049540448
0.04850247675
0.09593453027
0.08595339393
0.07786973111
0.07152282757
0.06647368371
0.06209974723
0.05850417782
0.05538641803
0.05271634738
0.05036042029
0.0483492005
0.04652322118
0.09549927009
0.08569442492
0.07768065078
0.07132857732
0.06630691941
0.06199041085
0.05840986489
0.05529999734
0.05266084851
0.05030376457
0.04817970986
0.04639847378
0.04476633261
0.09535010183
0.08507642168
0.07742393645
0.07115104905
0.06610671717
0.06183243662
0.05828050925
0.05520562878
0.05258119473
0.05020378738
0.04812592048
0.04622637417
0.04468369819
0.04320228651
0.09553097519
0.08492002565
0.07706942151
0.07103581486
0.065935177
0.06175708283
0.05812925367
0.0551553833
0.05247808938
0.05012771816
0.04802841247
0.04614221432
0.04455833571
0.04314589812
0.04178128166
0.09547640482
0.08527205744
0.07691422973
0.07089070194
0.06584012703
0.06159586571
0.05804951156
0.05501000617
0.05237392102
0.05007260269
0.0479537176
0.04609677753
0.04444363081
0.04302921386
0.0417303737
0.04049419313
0.09541031581
0.08529112705
0.076981038
0.07073953361
0.06569611482
0.06138450698
0.05790102712
0.05485915423
0.05223329
0.0499168542
0.0478990155
0.04602068967
0.04436794232
0.04292595044
0.04162268458
0.04043585974
0.03934013743
0.09556091875
0.08527909421
0.07704344131
0.07058969296
0.06554905634
0.06124221546
0.05769748151
0.05472778809
0.05208119793
0.04978553538
0.04775671452
0.04592579926
0.04429762761
0.04282281006
0.04152999896
0.04033727279
0.0392896845
0.03830922314
0.09539118623
0.08562540882
0.07722329929
0.07054039667
0.06540127698
0.06109959467
0.05755858489
0.05459462064
0.05195679475
0.04969498801
0.04767292761
0.04582549137
0.04423888893
0.04275758509
0.04143519435
0.04025472192
0.03920044216
0.03828282038
0.03737333196
0.09520661326
0.08548267579
0.07731345345
0.07072225255
0.06534734142
0.06096142502
0.05742091171
0.05446377047
0.05183479872
0.04958207567
0.04758671314
0.04574821474
0.04417582507
0.04273072416
0.0413733015
0.04019022516
0.03912555307
0.03820280497
0.03733735976
0.0365200119
0.09473649557
0.08522099194
0.07701280121
0.07075656661
0.06536723573
0.0610317846
0.05729106146
0.05433182021
0.05171424949
0.04940171222
0.04748169128
0.04567529917
0.0440652071
0.04266740996
0.04134496203
0.04012936534
0.03906707655
0.03813332729
0.03725325482
0.03649166799
0.0357498153
0.09452272513
0.08460044887
0.07688828157
0.07045112005
0.06542517378
0.06113773331
0.05735362561
0.05420712605
0.05158866615
0.04924481268
0.04731030807
0.0455710433
0.04396844567
0.0425644005
0.04128312049
0.04007958818
0.03901174816
0.03805891081
0.03720687644
0.03641329639
0.03573589806
0.0350748839
0.09424973866
0.08435740484
0.07656503285
0.07032926927
0.06527410237
0.06118171103
0.05754526697
0.05425719236
0.0515220629
0.0491247791
0.04711912076
0.04541599862
0.0438722484
0.04244624729
0.04118710765
0.04002074608
0.0389609004
0.03800789042
0.03715159506
0.03637400741
0.0356765995
0.03505796979
0.03446910735
0.0937738445
0.08405598895
0.07631972985
0.07023105768
0.06511222554
0.06102880083
0.05759391596
0.05437592465
0.05155653601
0.04910991981
0.04700278447
0.04527245601
0.04372334177
0.0423573182
0.04108096379
0.0399558304
0.03890519975
0.03797940886
0.03710386822
0.03633803699
0.03562902128
0.03500404662
0.03446365929
0.03392188407
0.09353627055
0.0834689296
0.07603042688
0.06999248614
0.06502406973
0.06087565616
0.057444216
0.05433691996
0.05161515401
0.04913011788
0.0469800117
0.04515978304
0.04359461541
0.04224545915
0.04099967143
0.03987922569
0.03884723185
0.03792669275
0.03707761893
0.03629181808
0.03559533511
0.03496236815
0.03441467423
0.03392658262
0.03343443806
0.09350044145
0.08346267395
0.07557290797
0.06973377094
0.0648081643
0.06070429369
0.0572787213
0.05418638997
0.05163051614
0.0492019353
0.04699338866
0.04513296922
0.04351754369
0.04211805755
0.04092115562
0.03978171255
0.03878058577
0.03785399143
0.03702830563
0.03625604877
0.03555126938
0.03493082153
0.03437724766
0.033882236
0.03344191406
0.03301212203
0.09323464973
0.08357619054
0.07558670849
0.0694828934
0.06456315058
0.06050350051
0.05703246158
0.05411119446
0.05148164556
0.04926114572
0.04706594197
0.04514303209
0.04348765546
0.04204483262
0.04082627406
0.03968580739
0.03868934642
0.03777469424
0.03696266043
0.03621027389
0.03550656323
0.03489030112
0.03433836707
0.03384857941
0.03340180441
0.03302195747
0.03263664322
0.09280749231
0.08312430529
0.07558357648
0.06931074341
0.06437014465
0.06036919284
0.0568471308
0.05394827447
0.05135504401
0.04911564283
0.04711418184
0.04520840045
0.04349714844
0.04198716395
0.04072756378
0.03959369415
0.03859548579
0.03770820617
0.03688902685
0.03615096521
0.0354646108
0.0348496135
0.03430318705
0.03381243074
0.03337166491
0.03298556951
0.03264869746
0.03230365139
0.0928685857
0.08260430104
0.07515614337
0.06911088669
0.06431345632
0.06017740754
0.05680259232
0.05377368405
0.05120867445
0.04894737219
0.04697538508
0.04525141222
0.04354984376
0.04199673417
0.04064585444
0.03950181959
0.03850748029
0.03763937818
0.03682601913
0.03609565085
0.03542302018
0.03481099021
0.0342741337
0.03377987942
0.03334728805
0.03295802506
0.03261558715
0.0323179787
0.03202005446
0.0928349132
0.08287516637
0.07476873957
0.06890449751
0.06408122481
0.06012507034
0.05671287046
0.05365916255
0.05104300342
0.04879895251
0.04682191977
0.04511991697
0.04355958168
0.04203439208
0.04065227682
0.0394466325
0.03842019465
0.03755712015
0.0367620954
0.03603445919
0.03538268284
0.03477411331
0.03423821752
0.03375465268
0.03331694829
0.03292966709
0.03259020096
0.03228764185
0.03203205622
0.03177379827
0.09252427088
0.08306963949
0.07498037841
0.06872479169
0.06377753739
0.05991595448
0.05656372984
0.05350481815
0.05092790188
0.04863780767
0.04672430462
0.04497509603
0.04343642368
0.04201465378
0.04068037507
0.039447888
0.03836952434
0.03747317867
0.03668601982
0.03596388838
0.03532650056
0.03473755926
0.03419453716
0.03372136141
0.03328618186
0.03290303269
0.0325639279
0.03226408954
0.03200510414
0.03178663155
0.03156089915
0.09203733289
0.08275303527
0.07509796955
0.06877666618
0.06365288684
0.0596218072
0.05627987431
0.05342585644
0.05076860633
0.04854210302
0.0465714178
0.04487941857
0.04332794588
0.04192839177
0.04066026839
0.03947076542
0.03836801255
0.03740518141
0.0366059225
0.03589406143
0.03524666294
0.03469415559
0.03415121081
0.03368161214
0.03325532051
0.03288009642
0.03253916527
0.03224556067
0.03198601826
0.03176166187
0.03157793783
0.0313835825
0.09175348751
0.08215669432
0.07479686153
0.06871060555
0.06368606505
0.05940630661
0.05608884549
0.05322607823
0.05069450259
0.04843806977
0.04643651447
0.04473720662
0.04323464811
0.0418502535
0.04060774578
0.03946815707
0.03840481973
0.03740208926
0.03653964736
0.03581787681
0.03517348271
0.0346201949
0.03411169185
0.03364053757
0.03321899006
0.03285154998
0.03251886783
0.03222219711
0.03196503308
0.03174400786
0.03155434986
0.03139844189
0.03123329065
0.09139086786
0.08189348592
0.07434243038
0.06855972633
0.06357735103
0.05946766245
0.05590028245
0.05297828814
0.05051822343
0.04830937252
0.0463290068
0.04460852314
0.04310741561
0.04173578595
0.04052867097
0.03939511145
0.03841662551
0.037449411
0.03653392224
0.03576529193
0.03511266617
0.03454287329
0.03405420207
0.03359310472
0.03318869006
0.032817701
0.0324923432
0.03219838565
0.03194396668
0.03172403834
0.03153429729
0.03137452283
0.03124844152
0.03110659965
0.09078997989
0.08156720653
0.0741023395
0.06832074016
0.06344861714
0.05944809488
0.05587597
0.05281764483
0.05027953796
0.04814094357
0.04620640762
0.04450126469
0.04301102799
0.04161881055
0.04039566095
0.03932455399
0.03832631864
0.03745425059
0.03657322008
0.03575534123
0.03507086343
0.03449529061
0.03399019925
0.03354381334
0.03314402166
0.03278344062
0.03246063067
0.03217340636
0.0319247882
0.03170411641
0.0315156717
0.03135758157
0.03122513819
0.0311225782
0.03100201907
0.09055032701
0.08086043966
0.07382311317
0.06797018015
0.06327718022
0.05921856276
0.05583661418
0.0528538475
0.05019391695
0.04796543549
0.04609573913
0.04438380364
0.04290609426
0.04155280813
0.04028538612
0.03921793463
0.03824260376
0.0373699651
0.03657219815
0.03577636587
0.03505807584
0.03445252361
0.03393565484
0.03349131211
0.03309228086
0.03274283544
0.03242854086
0.03214371689
0.03190132398
0.03168609285
0.03149723176
0.03133873674
0.03120887688
0.03110188789
0.03101727219
0.03091504105
0.0903862641
0.08059088453
0.07323519583
0.06775290687
0.06294485106
0.05905786256
0.05562752979
0.05280780301
0.05027582262
0.0479014394
0.04592764266
0.0442788089
0.04279318713
0.0414515275
0.0402176052
0.03911290385
0.03816248604
0.0372739366
0.03649402234
0.03577059723
0.03506147767
0.03443679343
0.03389295256
0.03343942694
0.03304228158
0.03270059687
0.0323899276
0.03211903876
0.03187316853
0.03166384695
0.03147857767
0.03132164601
0.03119128948
0.03108554164
0.03099660468
0.03093110607
0.03084356866
0.09025011835
0.08044183948
0.07297401411
0.06735980702
0.06287417516
0.05885854434
0.05557150033
0.052616959
0.0502274753
0.04796294445
0.04582539189
0.04411896801
0.04266052642
0.04134325021
0.04011990554
0.03904635536
0.03805849971
0.03719633796
0.0364037332
0.03569792405
0.03504165401
0.03443618751
0.03387471788
0.03339631219
0.03300069652
0.03265389879
0.03235204825
0.03208717121
0.03185013848
0.03163702687
0.03145729997
0.03130505306
0.03117453489
0.03106678703
0.03098147354
0.03091052087
0.03086025001
0.03078464854
0.09017498601
0.08055679887
0.07284816231
0.06711698252
0.06263718996
0.05882967122
0.05538958824
0.05256328801
0.05005324606
0.04791319945
0.04587042462
0.04402396975
0.04251276776
0.04121490221
0.04001672279
0.03895162259
0.03797844179
0.03709417372
0.03632923722
0.03562528511
0.03498559781
0.03440405262
0.03387061102
0.03337614366
0.03295842689
0.03260807425
0.03230895398
0.03204651876
0.03182018184
0.03161520712
0.03143174811
0.03128464664
0.03115753721
0.03104983432
0.03096450046
0.03089524066
0.03084024181
0.03080139337
0.03073528372
0.08969219176
0.0806624436
0.07315483139
0.06700651974
0.06241356931
0.05859875286
0.05528624606
0.05239837005
0.04994592676
0.04775425322
0.0458184918
0.04405698648
0.0424501131
0.04107489128
0.03992225395
0.03885283724
0.03788612017
0.03700215743
0.03623069675
0.03555164356
0.0349255757
0.03436252014
0.03384598863
0.0333688809
0.03293695599
0.0325674591
0.03226470882
0.03200332084
0.03178319677
0.0315866046
0.03141067397
0.03126016494
0.03113763548
0.03103271871
0.03094688548
0.03087968552
0.03082605758
0.03078237778
0.03075190576
0.03069386531
0.08896265327
0.08027310095
0.07317936608
0.06726818221
0.06231163851
0.05839191601
0.05506523663
0.05230773585
0.04980034598
0.04764688204
0.04567412773
0.04400242983
0.042474817
0.04101545495
0.03978950861
0.03873855218
0.03779175683
0.03691189381
0.03614412434
0.03546089905
0.03485736337
0.03430214057
0.03379657226
0.03334298327
0.03293267057
0.03254446245
0.03222501035
0.03196567285
0.03174267808
0.03155179481
0.03138696361
0.03123706216
0.03111397448
0.0310131287
0.03092889999
0.03086281261
0.03081091319
0.03077015142
0.03073428017
0.03071106346
0.03065854144
0.08844704624
0.07967868363
0.07283174778
0.0672560763
0.06242574677
0.05829373395
0.05487204037
0.05209845174
0.04976610264
0.04751442864
0.04561855959
0.04387059287
0.04241764323
0.04103295519
0.03970194943
0.03861782797
0.03767968453
0.03684012974
0.03605710043
0.0353894099
0.03477013897
0.03423838154
0.03373911175
0.03329500701
0.03290347847
0.03253724343
0.03220067494
0.03192779167
0.03170250736
0.0315185733
0.03135425912
0.03121308513
0.03109105929
0.03098996907
0.030909357
0.03084369124
0.03079396188
0.03075542794
0.0307242092
0.0306950526
0.03067624839
0.03062805011
0.08797007239
0.07911717413
0.07255742175
0.06693306616
0.06240351543
0.05827672164
0.05477659227
0.0519165935
0.04957126403
0.0474859521
0.04549814845
0.04381605837
0.04229597493
0.04097353855
0.03971404355
0.03854880623
0.03758605333
0.03674604142
0.03600506789
0.03530627944
0.03470323283
0.03415489095
0.0336771851
0.03323823941
0.0328575883
0.03251259493
0.03218953353
0.03190203244
0.03166747047
0.03147923935
0.0313238622
0.03118491988
0.03106624692
0.03096937378
0.03088793701
0.03082453348
0.03077518666
0.03073819582
0.03071035047
0.03068629108
0.03066203343
0.03064621708
0.03060195882
0.08763390359
0.07871179045
0.07207871717
0.06659513701
0.06209644833
0.05825325777
0.054819419
0.05182284879
0.0493996441
0.04730589368
0.04542187617
0.04370714964
0.04221020977
0.0408607382
0.03965285938
0.03855738473
0.03751396381
0.03666344047
0.03591076662
0.03524140691
0.03462417372
0.03407947068
0.03359957763
0.03318067643
0.03279673888
0.03246754187
0.03216276589
0.03189268268
0.0316434334
0.03144347116
0.03128934972
0.03115566066
0.0310404732
0.03094596416
0.03086724415
0.03080402565
0.03075600335
0.03071985787
0.03069372799
0.03067385386
0.03065490761
0.03063391273
0.03062043168
0.03057948705
0.0874452507
0.07859664943
0.0717163754
0.06623065295
0.06171236216
0.05806172468
0.05479114783
0.05191755662
0.04930490994
0.04714410423
0.04525688781
0.04362997218
0.0421156814
0.04077552803
0.03954747811
0.03849374283
0.03750290061
0.0365872724
0.03581859701
0.03515171783
0.0345596781
0.03400432409
0.03353381647
0.0331051839
0.03274251939
0.03240833313
0.03211865387
0.0318647797
0.031627265
0.03141866761
0.03125265663
0.03112167652
0.03101253548
0.03092001729
0.03084562955
0.03078288201
0.03073585469
0.03070093749
0.03067619451
0.0306579797
0.03064414514
0.03062900583
0.03061002972
0.0305984026
0.03056094398
0.08718510658
0.07846483539
0.07165550216
0.06602517468
0.06138163142
0.05781961407
0.05463323226
0.05187930622
0.04932013063
0.0470476821
0.04510442627
0.043480687
0.0420627623
0.0406897757
0.03949321657
0.03839451228
0.03745695183
0.03657142962
0.03575844632
0.03507578792
0.03447168859
0.03395172305
0.03346320719
0.03304297576
0.0326767791
0.0323561043
0.03206382286
0.031815381
0.03159912242
0.03139928457
0.03122430686
0.03108912068
0.03098105995
0.03089359124
0.03082181692
0.03076247015
0.03071468957
0.03068045716
0.03065751175
0.03064053969
0.03062933356
0.03062011732
0.03060728694
0.03058977718
0.03058049774
0.03054614145
0.08690177683
0.07821858677
0.07135089136
0.06594648159
0.06120634398
0.05762846165
0.05451338182
0.05167621278
0.04928169898
0.04703165909
0.04504393217
0.04333654402
0.04193075565
0.04063360579
0.03943702897
0.0383427163
0.03737948654
0.03652469768
0.03575480242
0.03500316672
0.03440097529
0.03386733196
0.03340994825
0.03298487112
0.03261502301
0.03229342147
0.03201273871
0.03176393483
0.03155286175
0.0313701656
0.03120532204
0.03106249708
0.03095155895
0.03086605095
0.03079694083
0.0307406014
0.03069517087
0.03066041048
0.03063677363
0.03062217633
0.03061227941
0.03060654588
0.03060032421
0.03058900086
0.03057328903
0.03056608252
0.03053482628
0.08668789552
0.07798507107
0.07112306306
0.06567906562
0.06116690747
0.05736905525
0.05434285011
0.05157789093
0.04915171551
0.04699883278
0.04505416739
0.04330682786
0.04179087059
0.04051921216
0.0393480509
0.03831209906
0.03730979017
0.03645247855
0.0356891914
0.03498202442
0.03432944495
0.03378830946
0.03333060319
0.03292851782
0.03256009047
0.03223498198
0.03195319374
0.03171202461
0.03150440514
0.03132496611
0.0311749302
0.03104133669
0.03092539264
0.03083751335
0.03076969212
0.03071727268
0.03067396151
0.03064131419
0.03061705579
0.03060239569
0.03059481357
0.03059045699
0.03058846325
0.03058384597
0.0305740938
0.03055994596
0.03055477741
0.03052698655
0.08629508734
0.0778296065
0.07093927334
0.06545922949
0.06101755771
0.05724728381
0.05411162916
0.05142864467
0.04907524246
0.04688627296
0.04502219784
0.04329581369
0.04172086897
0.04038280136
0.03925133545
0.03821981974
0.03726254001
0.03638324705
0.03560527694
0.03492925135
0.03430186722
0.03373021348
0.03325319795
0.03285719262
0.03249718265
0.03218182274
0.03189501032
0.03165744748
0.03145388579
0.03127801825
0.03112801068
0.03100969543
0.0309023443
0.03080981044
0.03074294589
0.03069154863
0.03065198758
0.03062039561
0.03059826997
0.03058277705
0.03057549918
0.03057360473
0.03057349458
0.03057364005
0.03057023563
0.03056178791
0.03054928761
0.03054695629
0.03052296933
0.08589076917
0.07749297926
0.0706057917
0.06531342682
0.06079452146
0.05711153902
0.05400995424
0.05122868596
0.04894332342
0.04682973873
0.04487528642
0.04326483035
0.04169687855
0.04030133662
0.03913852444
0.03811528822
0.03718927962
0.03633356471
0.03555343736
0.0348613164
0.03424935022
0.03370846461
0.03319796881
0.03277887286
0.03243161563
0.03211893988
0.03184391764
0.03160532818
0.03140143545
0.03122789916
0.03108484278
0.03096399875
0.03086969575
0.03078519773
0.03071608582
0.03066550631
0.03062766302
0.03059948902
0.0305776125
0.03056461837
0.03055621263
0.03055498178
0.03055717932
0.03055990829
0.03056133443
0.03055892606
0.03055179052
0.03054158803
0.03054245628
0.03052135111
0.0854566592
0.07716613541
0.07030204541
0.06500162104
0.06069352334
0.05689375612
0.053860192
0.05113791232
0.04877189124
0.04671413378
0.04479879079
0.04313204527
0.04166017704
0.04026952308
0.03905486484
0.03802924211
0.03709006368
0.03626321046
0.03551803275
0.03480867689
0.03418580698
0.03364503933
0.03317082611
0.03271996807
0.03235457135
0.03205688301
0.03178984334
0.0315512743
0.03135065212
0.03117870675
0.03103605032
0.03092128664
0.03082488694
0.03075169638
0.0306903452
0.03063902228
0.03060286196
0.03057615257
0.03055754553
0.03054476275
0.03053841986
0.03053593467
0.03053895574
0.03054442382
0.03054862886
0.03055107258
0.03054968544
0.03054400364
0.03053666143
0.0305405428
0.03052222828
0.08480181526
0.07680109555
0.07002154159
0.06472683617
0.06048647295
0.05690126901
0.05364678706
0.05105003418
0.04868596709
0.04657047456
0.04469846111
0.04303368235
0.04154700196
0.04022446211
0.03901553187
0.0379354475
0.03698911241
0.0361722761
0.03543462144
0.03475741552
0.03413127076
0.03358285968
0.03310753611
0.03268859374
0.03229138044
0.03198280949
0.03172857503
0.03149933566
0.03129835194
0.03112983273
0.03098592945
0.03087368536
0.03078276623
0.03070745364
0.03065615103
0.03061243294
0.03057604486
0.03055200199
0.03053577554
0.03052528137
0.03051927846
0.03051854524
0.03052072401
0.03052665804
0.03053399338
0.03053933324
0.03054265665
0.03054202323
0.03053826782
0.03053400945
0.03054079182
0.03052458625
0.08455636501
0.07620251812
0.06984270474
0.06448351822
0.0602377481
0.05678465504
0.05367639374
0.05084803037
0.04859073313
0.04652669139
0.0446158399
0.0429478605
0.0414896972
0.04015561207
0.03896581251
0.03789256026
0.03691260132
0.03607484827
0.03534659108
0.03468094388
0.03408005555
0.03352418226
0.03305620661
0.0326327702
0.0322626822
0.03192139025
0.03165989326
0.03143951231
0.031248308
0.03108220306
0.03093894083
0.03082544744
0.03073813787
0.03066606636
0.03061229286
0.03057773953
0.03054877699
0.03052549927
0.03051187738
0.0305034922
0.0305002146
0.03049959709
0.03050347497
0.03050905368
0.03051708518
0.03052546797
0.03053169407
0.03053538876
0.03053571094
0.03053437124
0.03053332137
0.03054235329
0.03052702218
0.0842664913
0.07598945851
0.06947873321
0.06445245221
0.06002277444
0.0565592245
0.05354793341
0.05081059588
0.04840020807
0.04642329848
0.04460692383
0.042917039
0.0414176702
0.04013203521
0.03891100554
0.03783610659
0.03686314774
0.03599475742
0.03526596489
0.03460532129
0.03401659162
0.0334777966
0.03299584821
0.0325800519
0.03221232913
0.03189034931
0.0316029833
0.03137513629
0.03119052761
0.03103286051
0.03089524101
0.03078011465
0.03069283988
0.03062407415
0.03057152702
0.03053420465
0.03051376637
0.03049771804
0.03048508296
0.03048056599
0.03047872495
0.03048065462
0.0304846472
0.03049192943
0.03049983872
0.03050938921
0.03051847798
0.03052502981
0.03052895294
0.0305308249
0.03053190247
0.03053370408
0.03054426606
0.03052841125
0.08406394734
0.07572474129
0.06916159838
0.06412897809
0.05988842819
0.05636743202
0.05334386616
0.05067865409
0.04836267797
0.04625051496
0.04450239355
0.04289673083
0.04139283145
0.04007196654
0.03888826669
0.03776758516
0.03680598001
0.03594025691
0.03517360909
0.03453028132
0.03393872621
0.03342417799
0.0329415858
0.03252128929
0.03215361312
0.03183910614
0.03156412557
0.03132253329
0.03112922705
0.03097848842
0.03084733834
0.03073757675
0.03064883463
0.03058147323
0.03052875902
0.03049388346
0.03047032965
0.03046260873
0.03045696391
0.03045393307
0.03045594955
0.03045978689
0.03046594244
0.03047317615
0.03048322552
0.0304924549
0.03050275266
0.03051241582
0.03051883016
0.03052338473
0.03052685273
0.03053029821
0.03053419093
0.03054504929
0.03052748097
0.0838574453
0.07550400336
0.06891154746
0.06371943853
0.05960577533
0.05614613528
0.05317245163
0.05049259148
0.04823195178
0.04624774891
0.04433935144
0.04279338655
0.04136583981
0.04002350066
0.038837736
0.03774587492
0.03675916203
0.03588075861
0.03511611378
0.03443840836
0.03385761678
0.03334532626
0.03288568363
0.03247248797
0.03209615913
0.03177946764
0.03150736359
0.03128187737
0.03107651626
0.03092140046
0.03079565085
0.03069112158
0.03060575379
0.03053859958
0.03048639124
0.03045180032
0.03043070274
0.0304201216
0.0304219123
0.03042560669
0.030429528
0.03043685731
0.03044478051
0.03045463313
0.03046449687
0.03047625862
0.03048662359
0.03049727516
0.0305065855
0.03051306189
0.03051853564
0.03052360678
0.03052880673
0.03053377136
0.03054375451
0.03052383551
0.08350151306
0.0752937433
0.06883468774
0.06348145842
0.05933445395
0.05581782305
0.05296801491
0.05033952163
0.04806120208
0.0461217709
0.0443333768
0.04263765679
0.04126186548
0.03999528323
0.03878858875
0.0377024619
0.03673838975
0.03583734493
0.03506743471
0.03437820448
0.03378356723
0.03325858242
0.03280664133
0.03241573267
0.03205119587
0.03172228395
0.03145400657
0.03122461294
0.03103440678
0.03086916426
0.03074255938
0.03064138496
0.03055930288
0.03049521273
0.03044463197
0.03040993173
0.0303901759
0.03038042252
0.03038026036
0.03039072092
0.03040117522
0.03041047698
0.03042215414
0.03043302539
0.03044556427
0.0304576398
0.03047054299
0.03048131813
0.03049177779
0.03050092226
0.03050782049
0.03051414686
0.0305205138
0.03052673724
0.03053162854
0.03053968746
0.03051635344
0.08306626113
0.07498628446
0.06857742015
0.06352944516
0.05910131867
0.05566018533
0.05266101403
0.05020795965
0.04792394618
0.04596466888
0.04421161496
0.04258831867
0.04111461859
0.03988507029
0.03876005453
0.03767608132
0.03669834636
0.03581729056
0.03502194752
0.03432707899
0.03371775547
0.03318988548
0.03272507889
0.03233665103
0.03199411372
0.03167449759
0.03140035596
0.0311706658
0.03098089407
0.03082562446
0.03069088946
0.03058948896
0.03051142378
0.03045047178
0.03040408454
0.0303691561
0.03034989401
0.03034027434
0.03034078815
0.03034941574
0.03036658775
0.03038196634
0.03039547246
0.03041059767
0.03042395353
0.03043839389
0.03045196353
0.0304656056
0.03047640382
0.03048642808
0.03049565426
0.03050300592
0.03051000116
0.03051699527
0.0305232592
0.03052684372
0.03053205852
0.03050531555
0.08255692168
0.07463356863
0.0683140337
0.06341260211
0.0591287232
0.05550152147
0.05250980695
0.04998377445
0.04785106332
0.04583978493
0.04406768428
0.04247012481
0.04106027021
0.03975276838
0.03864748385
0.03764619245
0.03665079159
0.03579357922
0.03500115583
0.03428273711
0.03365525735
0.03312992951
0.03266155135
0.03225994681
0.03191515083
0.03161620541
0.03134543054
0.03111705553
0.03092646883
0.03076881538
0.03064604984
0.03053823445
0.03046071596
0.03040299712
0.03036124803
0.03032980763
0.03030995526
0.0303005912
0.03030082857
0.03031031826
0.03032578229
0.03034790991
0.03036755891
0.03038403046
0.03040115297
0.03041656118
0.03043258733
0.03044707964
0.03046079568
0.03047128656
0.03048143868
0.03049070522
0.03049830764
0.03050552336
0.03051265848
0.03051788847
0.03051904759
0.03052121125
0.0304919604
0.08201817723
0.07435853378
0.06802760991
0.06317089645
0.05899838615
0.05543535592
0.05235439462
0.04984187276
0.0476424684
0.04571950674
0.04395319594
0.04233861726
0.04094646532
0.03971451541
0.03852357207
0.03753489939
0.03662464733
0.03574095277
0.03497454743
0.03427227269
0.03360675802
0.03306703682
0.03260937481
0.03220017422
0.03184272488
0.03153786241
0.03128687648
0.03105991784
0.03086868415
0.03071495344
0.03058641455
0.03049250785
0.03040972975
0.03035292905
0.03031551467
0.03028823306
0.03027040359
0.03026142326
0.03026168943
0.03027093767
0.0302871335
0.03030794535
0.03033397252
0.0303561393
0.03037484394
0.03039357928
0.03041042057
0.03042757259
0.03044231837
0.03045590662
0.03046620269
0.03047637017
0.03048586428
0.0304934538
0.03050054194
0.03050695194
0.03051034879
0.03050869214
0.03050794505
0.03047714975
0.08147508831
0.07406262795
0.06780384111
0.06291836578
0.05877899047
0.05522560874
0.05227653432
0.04961504896
0.04750031515
0.04553117715
0.04382536032
0.04226414898
0.04082598991
0.03960571984
0.03848162137
0.03741545354
0.03652817846
0.03570104961
0.03492344411
0.0342361803
0.03359147954
0.03301770936
0.03254520912
0.03214103033
0.03178635704
0.0314691354
0.03121316877
0.0309994556
0.03081392278
0.0306588633
0.03053296557
0.03043279358
0.03036325201
0.03030227919
0.03026627983
0.03024331921
0.03023014356
0.03022325567
0.03022314054
0.03023227924
0.03024821241
0.03026948469
0.03029454664
0.03032328887
0.03034720818
0.03036723549
0.03038721408
0.03040504273
0.03042260187
0.03043751936
0.03045103612
0.03046144097
0.0304713934
0.0304809602
0.03048835948
0.03049492288
0.03049983892
0.0305007746
0.03049638264
0.03049358317
0.03046333675
0.08110934405
0.07346648155
0.06757419868
0.06257145868
0.05855682953
0.05502338367
0.05205383216
0.04954923546
0.04727815397
0.04538251567
0.04365573378
0.04216875203
0.04078336801
0.03949296731
0.03837734906
0.03734802092
0.03641535943
0.03560454621
0.03488158186
0.03417161056
0.03354997362
0.03299334058
0.03248441894
0.03207780249
0.03172893543
0.03141592675
0.03114742341
0.03092747907
0.03075158971
0.03059995804
0.03047843409
0.03037951969
0.03030580667
0.03025682389
0.03021583556
0.03019582221
0.03018573921
0.03018325288
0.03018592332
0.03019397815
0.03020999598
0.03023109602
0.03025690282
0.03028472314
0.03031525524
0.03034000737
0.03036120653
0.03038186615
0.03040000195
0.03041793204
0.03043282178
0.03044630543
0.03045663407
0.03046668878
0.03047604375
0.03048304868
0.0304883731
0.03049142846
0.03049002464
0.03048325969
0.03047984193
0.03045163061
0.08061476677
0.07312353345
0.06705708628
0.0622394991
0.05823961373
0.05489666958
0.05186628468
0.04938527591
0.0471552812
0.04517778816
0.04350172671
0.04201772012
0.04068673997
0.03942179364
0.03829331658
0.03726670597
0.03634467929
0.03551560295
0.0347674138
0.03414095289
0.03349598792
0.03294314699
0.03246035711
0.03201942952
0.03167188784
0.03136832244
0.03109698309
0.0308679439
0.03067685109
0.03053693139
0.03041877976
0.03032451337
0.03025325358
0.03020017042
0.03017011766
0.0301466284
0.03013878991
0.03014030377
0.03014641265
0.0301572304
0.03017221531
0.03019323354
0.0302187898
0.03024769195
0.03027761512
0.03030897703
0.03033416229
0.03035559328
0.03037647473
0.03039513817
0.03041356054
0.03042826173
0.03044169029
0.03045191595
0.03046202396
0.03047119202
0.03047741824
0.03048128437
0.03048225632
0.03047880793
0.0304708113
0.0304683524
0.03044374303
0.08022987098
0.07272067397
0.06671596355
0.06192442986
0.05794302059
0.05468110614
0.05175367088
0.04920719707
0.0469851769
0.04508425923
0.04334840722
0.04185800779
0.04054762665
0.03933127379
0.0382139936
0.03720565807
0.03626744397
0.03545338622
0.03468844251
0.03402809575
0.03345889793
0.03288649322
0.03241102908
0.03197733462
0.0316153296
0.0313167881
0.03105340691
0.03081910164
0.0306226352
0.0304650628
0.03035410254
0.03026663512
0.03019601588
0.03014798076
0.03011395366
0.03010002311
0.03009099144
0.03009443556
0.03010444076
0.03011797915
0.03013528486
0.03015594717
0.03018114568
0.03021001355
0.03024111445
0.0302723966
0.03030410781
0.03032919245
0.03035063423
0.03037177169
0.03039061168
0.03040906914
0.03042364065
0.03043682492
0.03044746964
0.03045749454
0.03046633168
0.03047152992
0.03047376652
0.03047299072
0.03046821907
0.03046039714
0.03046039229
0.03043941264
0.0796232414
0.07238708294
0.06638592405
0.06160791355
0.05766125734
0.05440913379
0.05156659013
0.04903859491
0.04681697524
0.0449128945
0.04327599078
0.04171879201
0.04038732251
0.03919503171
0.03811108619
0.03712871861
0.03620720253
0.03536147479