/*--------------------------------*- C++ -*----------------------------------*\
| =========                 |                                                 |
| \\      /  F ield         | OpenFOAM: The Open Source CFD Toolbox           |
|  \\    /   O peration     | Version:  v1612+-hyStrath                       |
|   \\  /    A nd           | Web:      www.OpenFOAM.com                      |
|    \\/     M anipulation  |                                                 |
\*---------------------------------------------------------------------------*/
FoamFile
{
    version     2.0;
    format      ascii;
    class       volScalarField;
    location    "0.016";
    object      Tt;
}
// * * * * * * * * * * * * * * * * * * * * * * * * * * * * * * * * * * * * * //

dimensions      [0 0 0 1 0 0 0];

internalField   nonuniform List<scalar> 
141100
(
320.1666639
319.475736
357.6671452
318.8398613
356.5030763
392.5651003
320.0077974
355.5123626
392.9986394
427.1300721
320.9661229
357.73729
393.4220943
428.0279874
460.9363505
321.0621627
359.7003686
394.4909834
428.9902431
461.7447602
491.8437946
320.1468766
359.9414474
395.5660861
429.8831112
462.2449181
493.777606
522.6526236
319.2417363
358.155935
395.9126647
430.0414133
463.9861698
495.2141703
524.7279897
553.4168254
319.4145583
356.5800916
395.291873
430.5319621
464.1843843
496.1246507
526.4251728
554.8400831
582.7738935
320.4757127
357.0212141
395.1176944
430.9774348
464.7832592
496.4959077
527.332163
556.0065353
584.2063855
610.742951
320.6149179
359.0822466
395.7650679
431.27654
465.2955354
497.0895956
527.7461262
557.7399727
585.4523373
612.9170606
637.7474201
320.8959435
359.474684
396.7336497
432.0748122
465.00992
497.739915
528.4193527
558.1393261
586.568407
614.0832776
640.1809534
664.9242283
321.9550642
360.1214929
397.3620816
433.0025958
465.9153183
498.458583
529.1308209
558.9025531
587.0099966
614.6691938
641.9607387
667.1536182
691.0245641
322.0266698
362.2831643
398.221825
433.7212433
466.9374445
499.4533513
530.0624165
559.6847146
587.753355
615.7195485
642.5285596
669.0642836
692.7581469
716.0849432
321.0251528
362.4693426
399.4642657
433.8338601
467.7567246
499.722753
531.1381036
559.9483355
588.7155124
616.4701194
643.5737371
670.146456
694.1302997
717.5015039
740.416569
320.8493943
360.5364956
399.7409018
434.1616197
467.9253386
500.6182564
531.4786813
561.1057978
589.6469978
616.8915822
644.3535682
670.5415614
695.7252384
718.8418845
741.8225166
763.9479099
320.6823708
360.0750983
398.9958146
434.5156146
468.350751
501.7313948
532.3984338
562.2946547
590.879411
618.5215402
644.8487473
671.3719041
696.6324821
720.3562781
743.1163773
765.5924847
786.2853972
319.6303288
359.6979496
398.2142438
434.9443791
468.7869521
502.2745643
533.6670108
563.1841057
592.1642901
619.7883297
646.4569707
672.4677411
697.4260943
721.7566293
744.5379842
766.8178892
787.8459345
807.4115904
319.5805456
357.6217652
396.7399929
434.8329893
469.3080071
502.7945911
534.2945255
563.8644912
593.0956585
620.4928522
647.1763891
673.5782118
698.0186859
722.5184495
745.8875027
768.1424295
788.9793466
808.5542764
827.5452267
319.8669789
357.4752623
395.7137129
433.2412252
469.139764
503.3598503
534.8895101
564.5361187
593.8484621
621.3999416
647.8919932
674.3237642
698.6420025
722.6185624
746.6344694
768.9850048
790.2340692
809.5689521
828.9638318
846.8224345
320.9133893
358.2605101
396.5270316
432.2485423
468.4327966
502.2334758
535.4925501
565.1926976
594.5182826
622.9668132
648.8125048
674.9366866
699.9562973
723.2948108
746.7574571
769.7341078
791.0410925
810.7802545
830.1753086
848.1000836
864.9627319
321.0444491
360.2855158
396.6831115
433.1824361
467.2815578
500.7371827
534.3254402
565.8636492
595.2254373
624.2347699
650.4370425
675.936535
701.0348752
724.5911434
747.4547927
770.3062211
791.7340077
811.9678697
830.9375218
849.2325768
865.9782778
881.5240403
321.2848819
360.6476146
397.6103657
433.5648596
467.4189727
499.4692652
531.889601
564.7369517
595.3039218
625.0022875
652.3314434
677.5124466
702.0174897
726.1002376
748.7161692
770.99468
792.318364
812.6141338
831.745631
849.9023001
866.7309008
882.6414508
896.9322415
322.174656
361.189057
398.1413333
433.4226111
468.0412978
499.6953899
530.5519303
562.8479253
594.2671172
624.5023948
653.1640903
678.8544007
703.654648
727.0677488
750.1450668
771.7401357
792.9853788
812.7701319
832.3619083
850.3333119
867.6274606
883.314356
897.786479
911.3439626
322.1971682
362.8323465
398.8141305
434.0846596
467.8491752
500.4673988
530.8551942
562.2592132
592.8718195
623.5791501
652.7576327
679.7511065
704.9719024
728.1989711
751.0598963
772.6612396
793.6704577
813.4086863
832.4682537
850.9460873
868.0367494
884.114401
898.3768953
911.9487887
924.575891
321.3440704
361.8526766
400.2801995
434.7656633
468.544796
501.055067
531.7829647
562.6610636
591.6040018
621.9085194
651.8763831
679.4236741
705.3814803
729.5816627
751.7133536
773.9789956
794.495297
814.4284632
833.0656014
851.3018161
868.6320534
884.5000242
899.1031018
912.4538061
925.1077254
936.3733263
321.3429588
360.3374259
399.2244383
435.2178
469.3047925
501.7636577
533.1573752
562.8316782
592.1112562
620.0289598
650.073983
678.5423934
705.0979961
730.0309481
752.6448617
775.0756732
795.7579555
815.5710271
833.9886508
851.8459277
869.2120188
885.036931
899.7168919
913.1095755
925.5273279
936.8362518
947.1591864
322.1448141
361.3899361
398.0907561
435.1976916
469.6507331
501.7863328
533.8989682
563.5096523
592.9177206
620.5910814
648.2105729
676.7361754
704.1922193
730.2752387
753.6043639
776.051086
796.8742643
816.4095121
835.0704092
852.6665404
869.691231
885.5483568
900.1598201
913.6660415
926.1118852
937.1726511
947.5493102
956.9520359
321.1252759
362.8359588
399.2003502
435.2656856
468.8150104
502.1608544
533.1581286
564.2758669
593.6019665
622.0113674
648.7948135
674.8267369
702.4736223
729.3251285
754.3292459
776.9897111
797.8559746
817.0897208
835.8946147
853.3739368
870.108506
885.9647545
900.3661802
914.0568897
926.3809498
937.6981692
947.8052599
957.2604458
965.4876163
319.9767654
360.7803182
400.3943222
435.3814716
469.1361453
501.3259797
532.7462865
564.3061652
594.4164723
622.7712601
650.1543451
675.3985455
701.0118858
727.7699247
753.4016444
777.2538847
798.7814909
818.0329038
836.5175916
854.1896444
870.4785523
886.2957601
900.7252356
914.1928984
926.7231871
938.096768
948.2735514
957.4386889
965.8557724
973.0654432
320.0691325
358.5817369
398.2787932
435.4923539
470.1147324
501.6862766
532.7872106
564.6476791
594.4492272
623.6673217
650.3512512
676.7565598
701.5531991
726.7260369
751.9398079
776.3603694
799.0196977
818.9592451
837.3995594
855.0622592
871.2442947
886.6042738
901.237375
914.4937683
927.012578
938.3574152
948.6083368
957.8548966
965.9368376
973.379643
979.7296054
321.0180997
358.8157925
396.140094
434.1733589
470.0645505
502.7763714
533.9744365
564.0023527
594.9025853
623.5793447
651.2698875
676.9927925
702.4211226
726.7054004
750.8852326
774.9716166
798.1785934
819.599828
838.3116282
855.8521094
872.3805098
887.064555
901.7432905
914.9149596
927.2535008
938.4175711
948.8148519
957.9675103
966.1933246
973.3923627
979.9033803
985.3776098
321.0479537
360.541463
396.504027
433.0315789
468.6344195
503.5229973
534.3404377
564.4977609
594.2650759
623.4771977
651.74587
677.8588758
702.6741861
727.1361859
750.3109021
773.5158963
796.410087
818.7604207
838.9656258
856.7356866
873.3305712
888.1151794
902.1654986
915.3684339
927.5887982
938.5967968
948.8125505
958.1239632
966.3701282
973.5962879
979.85999
985.601006
990.2335048
321.1615525
360.6231385
397.9850019
432.5556744
467.6132332
501.8074483
535.0184104
565.6558762
594.7230893
623.5467058
651.7497287
678.3621853
703.4191402
727.8350939
750.7642505
773.3492319
794.6301086
816.7136287
838.1713393
857.1119471
873.8938759
889.2296977
902.8258309
916.0034025
927.7679957
938.8621937
948.9326332
958.2173669
966.4551919
973.7171738
980.1084704
985.5652341
990.4269676
994.3600656
322.0779619
360.8052712
398.0689978
432.936792
467.1295286
500.0717107
533.9419976
566.199552
595.9590075
623.9788773
651.8290923
678.4382981
703.4602769
728.4948633
751.8963361
773.7132744
794.8467564
815.02793
836.2224561
856.3763295
874.0223768
889.4978724
903.6370248
916.5133128
928.3501365
939.1643206
949.1336495
958.2819961
966.3893217
973.7399408
980.1737151
985.6897745
990.351622
994.5199116
997.781359
322.305025
362.5427463
398.1466708
433.940454
467.2992519
500.4518853
532.2665978
564.4154039
595.6799766
624.6314952
651.6194551
678.5223628
703.5663379
728.0945807
752.5171743
774.3815955
795.5113847
815.1731732
834.6246261
854.8295466
873.3684312
889.6841964
904.126794
917.0582182
928.9578726
939.6624598
949.369952
958.4209193
966.399848
973.6399429
980.1302535
985.7160361
990.4305296
994.3597623
997.9526686
1000.59403
322.344053
363.0328027
399.8082402
433.8230329
468.3699856
500.5037468
532.6213302
562.733435
593.2868272
624.1912445
652.3246845
678.2994038
703.6561013
728.2094062
752.1733016
774.9944375
795.7328515
816.1244025
834.6850978
853.3017919
872.1846157
889.0666026
904.3285253
917.5023842
929.4619447
940.0178966
949.816328
958.4444218
966.4846723
973.5993758
980.0194541
985.6054579
990.4002174
994.4034463
997.7805284
1000.739993
1002.845257
322.1665846
363.0571019
400.4279252
434.6372027
467.1814258
500.7650424
531.8028477
563.0340593
591.5570989
621.9073854
652.4105648
679.0010876
703.9917872
728.2989077
752.2964854
774.6443782
796.3809338
816.3319272
835.5444158
853.2739586
870.9987541
887.9776507
903.7759106
917.7168219
929.6548857
940.4602741
950.0928016
958.7038957
966.4536577
973.633505
979.9316599
985.4095721
990.2482279
994.3816247
997.7742814
1000.572492
1002.975137
1004.614476
321.1857384
361.6618876
400.395059
435.2951162
467.2033096
499.3160704
532.0775512
562.1365509
591.7896511
620.1369338
650.234871
679.0808666
704.6503153
728.6379677
752.3770175
774.7822564
796.3664098
817.0041753
835.7437672
853.7602702
870.5955909
887.0964797
902.7528826
917.2201912
929.8678217
940.7992053
950.4507402
959.0626906
966.6655384
973.5591269
979.9160297
985.2789143
990.0383305
994.2056376
997.676524
1000.560469
1002.807163
1004.747453
1005.967737
321.0382604
359.8223058
397.7983203
435.1865175
467.8627891
499.4271888
531.2056798
562.359165
591.5421091
620.286401
648.4395489
676.9802021
704.2173419
729.2756875
752.2211623
774.847662
796.5295901
817.2912147
836.3741232
853.9393868
870.7696127
886.3549158
901.6752428
916.254342
929.3884344
940.9815603
950.7618394
959.4601194
966.94759
973.726229
979.8079207
985.2183671
989.8734329
993.9707589
997.4867227
1000.40363
1002.768146
1004.58147
1006.123293
1006.970105
321.8665563
359.5465951
396.1853522
432.427958
467.6882706
500.0807487
531.4033472
561.4293979
591.6782331
620.0220853
648.496554
675.1823032
702.1652519
728.865304
752.8064816
775.1628979
796.5665918
817.4764623
836.6147669
854.4792261
870.8762959
886.526019
901.1372593
915.252231
928.3355059
940.5384612
950.9151359
959.6035967
967.270599
973.947984
979.8283451
985.1613814
989.773878
993.7793545
997.2621418
1000.172099
1002.599657
1004.508161
1005.961104
1007.133494
1007.691876
321.5802636
360.1514822
395.8313155
430.8530015
465.6682536
499.8435811
532.0461483
561.6605402
590.0562681
620.0747275
647.5465501
675.1437133
700.3819263
726.8588185
752.9513028
775.6516253
796.9434254
817.0857142
836.791682
854.3769677
871.3481188
886.554194
901.2729576
914.6843182
927.4045024
939.5615098
950.5196472
959.7135585
967.5115525
974.0861134
979.9915501
985.1956966
989.6977507
993.6493745
997.0489057
999.9523389
1002.354252
1004.336309
1005.868106
1006.980251
1007.866622
1008.185271
321.5229546
360.4589553
395.1876557
430.5600178
464.015138
498.6158553
531.7395959
562.2854794
590.2756757
618.4324887
647.5643983
674.1436155
700.2514641
725.0953282
750.9870075
775.4710552
796.9054609
817.1399508
836.0086776
854.5199714
871.2145828
886.9612138
901.244064
914.7635833
926.7931742
938.5375565
949.6294608
959.35217
967.5519218
974.3062732
980.0741144
985.2297984
989.7456035
993.497938
996.8602906
999.7248035
1002.12185
1004.107358
1005.700428
1006.904749
1007.725616
1008.376583
1008.502103
321.6017361
360.2891725
395.260601
430.5633079
463.8316738
496.7976996
529.7217616
561.9065204
590.8694524
618.6184369
646.5219946
674.0483213
699.7671238
724.8803609
749.2508936
773.5033243
796.8444813
816.9790883
836.1247288
854.0693928
871.3144643
887.0862738
901.5666173
914.6587103
927.0141231
937.9099874
948.674042
958.4102304
967.1263062
974.3773001
980.1626929
985.2841921
989.7204359
993.4921254
996.6888406
999.4871274
1001.878763
1003.848435
1005.467438
1006.74471
1007.671024
1008.249527
1008.708901
1008.685354
320.5345338
359.3540383
395.1054737
430.3838583
464.5038078
495.8834702
527.8359713
559.077096
590.4171171
619.1649302
646.6521658
673.0964807
699.5309348
724.3717779
748.958281
771.8112124
795.2755041
817.0319189
836.2445758
854.1950772
870.8929275
887.1352623
901.4445166
914.9249125
926.8247685
938.0479243
948.0321801
957.5030073
966.3778535
973.9862579
980.2661774
985.3738814
989.7503464
993.4796704
996.6292414
999.3290815
1001.632276
1003.598608
1005.195134
1006.520245
1007.522991
1008.210247
1008.596384
1008.908441
1008.774902
320.610107
358.0593087
394.0596635
429.4659349
464.2890986
495.6678856
526.7810568
557.1832394
588.2628403
618.6462914
647.1371666
673.1190199
698.1784013
724.0088697
747.8864204
771.469837
793.2383178
815.4951419
835.9550574
853.948692
871.0049062
886.4595592
901.4181542
914.786113
926.8576862
937.8113372
948.0576446
957.0238298
965.5134009
973.3277502
979.981792
985.3707219
989.7776539
993.4792784
996.5503769
999.2256101
1001.456464
1003.357187
1004.942487
1006.264443
1007.316038
1008.080994
1008.575806
1008.809921
1009.010583
1008.81154
320.5520578
358.1603336
393.6376084
428.3128412
463.3855775
494.6647933
525.791624
556.7345569
586.2559873
616.6272377
645.9823077
673.5484698
698.0325422
722.8014084
747.0104704
770.3313229
792.435028
813.4829958
834.1450852
853.9880864
870.7226075
886.5508373
900.8111137
914.467268
926.6999672
937.7744702
947.8090582
956.9372138
964.9278122
972.4930245
979.30456
985.0199489
989.6809102
993.4006985
996.5121208
999.0927166
1001.323694
1003.149501
1004.707929
1006.013793
1007.075877
1007.891745
1008.468485
1008.808393
1008.925148
1009.054501
1008.826662
319.4344691
357.9242277
393.7142981
427.8165554
462.0555377
494.6514151
524.8065876
555.7421631
585.1167672
614.4041585
643.4053296
671.766631
698.4261559
722.4367026
746.4181029
768.933506
791.6557942
812.6386907
832.5687628
852.5882025
870.7518868
886.5205704
900.809867
913.951323
926.324129
937.5918355
947.691348
956.6942942
964.7368803
971.8970671
978.5282035
984.4063709
989.3257683
993.2748765
996.4312476
999.0151798
1001.169131
1002.992037
1004.492126
1005.765546
1006.823964
1007.663089
1008.295441
1008.724625
1008.938305
1008.978733
1009.072283
1008.836265
319.3521035
356.624985
393.3313384
427.9615212
460.6930143
493.9163829
524.821406
554.8158951
584.1171467
613.2574238
641.101532
669.3070368
697.1656399
722.8323868
745.8073004
768.4805386
790.6209896
811.8444861
832.0064527
850.7631144
869.4625499
886.2033536
900.7991088
913.8054251
926.0698548
937.2026319
947.5035355
956.4671985
964.4890141
971.6495353
977.9858722
983.6778485
988.7661784
992.969078
996.2752475
998.900765
1001.055737
1002.833219
1004.315123
1005.537245
1006.563884
1007.417626
1008.077119
1008.567987
1008.8777
1009.001716
1009.000762
1009.083817
1008.857153
319.2217925
356.4844735
392.8734453
427.2961775
460.9588068
492.5007674
523.9666468
554.8142873
583.2716776
612.2220354
640.5327169
666.8714195
694.7489001
721.6209931
745.7452875
768.1076051
789.8293834
810.8038319
830.8192623
849.8031967
867.6630764
884.7804599
900.4017484
913.8412385
925.7991963
936.9496122
947.0856892
956.1400316
964.1872967
971.3699105
977.6098983
983.1021321
988.0795442
992.4533035
995.9306644
998.7126468
1000.904325
1002.690493
1004.14982
1005.346613
1006.337847
1007.163698
1007.84729
1008.364346
1008.742507
1008.957537
1009.026313
1009.011347
1009.100449
1008.88522
319.1107188
356.2261652
392.7158495
426.8665482
459.9449571
492.886147
522.6056425
553.8707016
583.2264465
611.4767763
640.0315586
666.2808306
692.3252787
719.1343631
744.5200599
767.5654898
789.3496436
809.9889391
829.4627519
848.6192964
866.6567649
883.3139813
899.1066038
913.5605576
925.848248
936.63331
946.6465048
955.8450123
963.8418749
971.0061674
977.2967437
982.6975882
987.4792447
991.8019936
995.4441719
998.3679405
1000.695333
1002.511476
1003.981621
1005.149292
1006.134267
1006.931214
1007.599812
1008.145054
1008.556944
1008.839851
1008.98811
1009.031526
1009.02279
1009.124033
1008.928927
320.1087482
356.0403982
392.3530018
426.6862763
458.799509
490.7451612
523.0086163
551.8102943
582.2636458
611.3749965
639.3986731
666.3400585
691.5823663
716.8426819
742.0832852
766.4149296
789.1037414
809.4167309
828.9397181
847.5978506
865.528103
882.2703274
897.6835154
912.3747016
925.6738955
936.6124689
946.3306798
955.364471
963.5232659
970.6265369
976.9696206
982.3436776
987.0435957
991.1876728
994.8215939
997.9020537
1000.347179
1002.280562
1003.762332
1004.958967
1005.912609
1006.719682
1007.362513
1007.9061
1008.349077
1008.671206
1008.88141
1008.993292
1009.031449
1009.038427
1009.159679
1008.97713
320.0759387
357.1503146
391.2343161
426.2319402
458.5693107
488.9279818
520.5698209
552.2475478
580.2257126
609.8607177
638.6614437
665.7967898
691.2013182
715.402682
739.806982
763.9385947
787.6196361
809.1361995
828.3358633
846.9827611
864.4691714
881.2093148
896.3868009
910.81768
924.4019504
936.3930769
946.1892569
955.049399
963.0345374
970.1978945
976.5527169
981.9807107
986.5981634
990.7143619
994.1985112
997.3019736
999.8958081
1001.924667
1003.510754
1004.727865
1005.702607
1006.484594
1007.143479
1007.669969
1008.115518
1008.475024
1008.72517
1008.891003
1008.986483
1009.030735
1009.058385
1009.198692
1009.013755
320.0935737
357.0415202
391.437437
424.1634969
458.0166203
488.6340962
518.8088881
550.2490593
580.5685339
607.8378857
636.634844
664.454253
690.7035475
714.6336433
738.2372144
761.7692772
785.1682521
807.6340948
827.6331765
846.0692104
863.488672
880.0270692
895.369185
909.5368856
922.7131447
935.1821633
945.8116439
954.7887719
962.6746686
969.7080876
976.0298741
981.5312764
986.1461979
990.1915499
993.6937109
996.6746636
999.3122429
1001.482143
1003.162035
1004.46128
1005.454461
1006.256751
1006.901493
1007.446063
1007.880375
1008.247894
1008.539154
1008.74116
1008.883844
1008.972588
1009.028458
1009.079102
1009.227607
1009.031464
320.1944053
357.0749927
392.0494309
424.3316829
456.6717342
487.9813713
518.4542916
548.5204548
578.4761551
608.0334817
634.6111137
662.608201
689.377781
714.1528559
737.5642201
760.5271946
783.0514495
805.3149488
826.5052276
845.3029071
862.6478185
878.79582
894.3622007
908.4892243
921.6667887
933.6050763
944.8302017
954.2752358
962.3453712
969.2835549
975.5334115
981.001839
985.6730513
989.6641034
993.1845635
996.1430576
998.6830059
1000.91005
1002.724578
1004.091127
1005.167748
1005.986523
1006.656077
1007.197799
1007.655002
1008.0161
1008.319249
1008.561215
1008.736637
1008.863403
1008.951231
1009.023346
1009.090329
1009.237089
1009.017655
319.3405647
357.3163127
392.0552526
425.6381079
456.6673702
487.3742074
517.7026374
548.1041061
576.7216908
605.2966485
634.658459
660.4627588
687.6198378
713.3754668
737.096396
759.9174596
781.3647693
803.1839347
824.235602
844.1524746
862.0288446
877.9684749
893.149473
907.283547
920.5702021
932.5597854
943.4403686
953.3393967
961.8114073
968.8220418
975.0472177
980.4833911
985.1814099
989.1703491
992.6765685
995.6167933
998.1327574
1000.266227
1002.160761
1003.653464
1004.788659
1005.682724
1006.36846
1006.937037
1007.396011
1007.788522
1008.094797
1008.350277
1008.560752
1008.716125
1008.831905
1008.92446
1009.009697
1009.084726
1009.218057
1008.966336
319.3520704
356.5907245
391.5249796
425.6337531
457.1068804
487.9264331
517.0141997
547.2531607
576.2423888
603.4799111
631.875436
660.4763596
685.4753702
711.6615838
736.428393
759.4617702
780.7604068
801.5007747
821.8866754
842.0156065
860.5882179
877.5371083
892.3136488
906.0516572
919.2229712
931.4678664
942.2804636
952.0251138
960.9131681
968.2506377
974.4727516
979.9536852
984.693139
988.7030149
992.162125
995.0899181
997.5530826
999.6970772
1001.503988
1003.096874
1004.349172
1005.300975
1006.051267
1006.633672
1007.123955
1007.522718
1007.864274
1008.124767
1008.352578
1008.543094
1008.680063
1008.790083
1008.889156
1008.982081
1009.054457
1009.161262
1008.864832
319.2781029
356.4872895
390.9219928
424.1866173
457.1289884
487.4892277
517.5128672
545.8214927
575.2980275
602.9294042
630.0078363
658.1565053
685.3258053
709.5750752
734.6810822
758.4172295
780.3160319
800.862689
820.1704584
839.6956879
858.6170181
876.049298
891.7891259
905.1976282
917.9558461
930.1597792
941.0548708
950.8702105
959.5322613
967.3890494
973.8605442
979.3476505
984.1378707
988.1955775
991.6319978
994.5545523
996.9866352
999.1130811
1000.925644
1002.445195
1003.79894
1004.856345
1005.65655
1006.301602
1006.80819
1007.241122
1007.593569
1007.896774
1008.130996
1008.336679
1008.506969
1008.632859
1008.741051
1008.842801
1008.933731
1008.988164
1009.05771
1008.716093
319.2071292
356.1944766
390.720939
422.7734203
455.5699542
486.8451817
516.9263436
545.5823546
573.1637271
601.8958729
629.3670637
656.2543567
683.0308883
709.208286
732.6809167
756.699268
779.7584411
800.078585
819.46911
837.9978465
856.6699246
874.0603008
890.3142489
904.5859554
917.0737785
928.8584707
939.9151849
949.6718355
958.4164456
966.1499607
973.0285505
978.6987966
983.4911321
987.6124129
991.0555455
993.9950264
996.430182
998.5337141
1000.333883
1001.855558
1003.152148
1004.31308
1005.212022
1005.897439
1006.459473
1006.909421
1007.302103
1007.622285
1007.901935
1008.116911
1008.302789
1008.458197
1008.577104
1008.682443
1008.783643
1008.85984
1008.882241
1008.911711
1008.535192
319.1669406
355.1293701
390.2287084
422.5061344
454.1058044
485.8824221
516.2899155
544.87985
572.8557997
600.3918989
628.2547798
655.5083295
681.0777191
706.5043046
732.1152073
754.6838824
777.9909296
799.590129
818.7173121
836.9078816
854.9593914
872.1081138
888.238998
903.167417
916.3873824
927.9424841
938.6016016
948.5680709
957.3486799
965.0529374
971.9221351
977.8848485
982.8090464
986.970754
990.4582155
993.4047035
995.8760056
997.9555697
999.7409752
1001.246777
1002.551959
1003.672144
1004.66836
1005.443412
1006.046466
1006.550179
1006.957838
1007.323435
1007.625349
1007.88731
1008.082393
1008.252726
1008.400695
1008.513658
1008.614581
1008.705381
1008.75704
1008.742539
1008.733032
1008.334504
318.9431949
354.0875562
389.0509909
421.8761367
453.7579747
485.0707797
515.1704771
544.9353419
572.0392151
599.8872653
626.8717071
653.8229331
680.2281127
704.4821909
729.467223
754.0642481
775.6482682
798.0860633
818.1985553
836.2219405
853.7698463
870.4104255
886.3872383
901.4460638
915.0439424
927.1958102
937.4900041
947.2213777
956.1359268
963.9235556
970.8224613
976.8102194
982.0027406
986.2586474
989.7740962
992.7764684
995.2665228
997.366943
999.1421792
1000.638564
1001.930065
1003.059906
1004.033342
1004.906444
1005.591859
1006.128872
1006.587678
1006.97149
1007.320475
1007.608884
1007.852478
1008.034105
1008.193535
1008.336206
1008.444077
1008.537646
1008.608429
1008.627414
1008.576469
1008.538653
1008.144615
318.9597827
354.4563774
387.8489909
421.5257335
452.9884359
484.6553057
514.3675003
543.5014619
572.0747427
599.1050423
626.1090328
651.9599626
678.0095278
703.5365417
727.3971613
751.840445
774.8873121
795.8729346
816.7160344
835.911446
853.0990586
869.1818488
884.9128435
899.6741953
913.4754939
925.9343079
936.6958103
946.0628175
954.8014983
962.8045928
969.6554161
975.7318847
980.9108258
985.4156183
989.0323978
992.0585881
994.6147471
996.7358746
998.5193329
1000.020273
1001.305913
1002.429382
1003.417384
1004.281028
1005.060044
1005.67262
1006.162056
1006.596788
1006.964972
1007.302113
1007.572152
1007.802022
1007.973962
1008.130379
1008.268072
1008.370285
1008.44776
1008.4942
1008.481856
1008.398579
1008.350721
1007.982079
318.8306969
354.5582026
388.0047619
420.9872389
452.6423176
483.0564818
513.8586706
542.0982809
571.0696754
598.8993051
625.3952138
651.0062982
676.2123298
701.8826054
725.9467888
749.3387444
772.7507381
794.5640852
814.9061337
834.1344189
852.3872402
868.4562251
883.3767181
898.0070029
911.56399
924.2867615
935.5283308
945.1155412
953.7007667
961.4782872
968.543728
974.5952085
979.7970543
984.292488
988.1876449
991.264745
993.8921937
996.0597148
997.8741726
999.3837382
1000.664887
1001.789724
1002.773193
1003.656729
1004.43656
1005.143205
1005.703312
1006.164724
1006.5818
1006.937694
1007.263545
1007.520391
1007.741581
1007.908718
1008.063809
1008.199292
1008.291771
1008.350447
1008.369292
1008.329123
1008.228151
1008.191388
1007.869402
318.8217084
354.1984371
388.2232327
420.1395279
452.0261924
481.9591369
512.1301024
541.4946126
569.6378231
597.3119985
624.3343764
650.2847757
675.0660687
699.9887347
724.4270756
747.3973696
770.1935819
792.2134387
813.4069795
832.385451
850.6550146
867.6037982
882.3126527
896.6224908
909.7470274
922.3320512
933.9754265
944.0397265
952.6190396
960.2505319
967.2087137
973.3946104
978.7260982
983.2075395
987.1028984
990.4306888
993.0528221
995.3003551
997.1662003
998.7157476
1000.008996
1001.125876
1002.119391
1003.004563
1003.808515
1004.526102
1005.181349
1005.707406
1006.149387
1006.5504
1006.893154
1007.207689
1007.456926
1007.671824
1007.843068
1007.997992
1008.129938
1008.209798
1008.247465
1008.242942
1008.184002
1008.083868
1008.077984
1007.805892
318.973906
354.1303796
387.6588502
420.426732
451.0675672
481.2579163
510.9580574
540.3546893
568.9333794
595.8111984
622.2641188
648.9816085
674.3311889
698.8211531
722.7817412
745.945863
768.2794664
790.0370774
810.9125449
831.0976693
848.9052227
865.9503931
881.6101568
895.3907143
908.5007191
920.5230112
932.2961602
942.696749
951.6377252
959.2437719
965.9648717
972.0972125
977.5806761
982.1547062
986.0271745
989.3745526
992.1942171
994.4560572
996.3832868
997.9879485
999.3215587
1000.45267
1001.440034
1002.337711
1003.149451
1003.896127
1004.56894
1005.18876
1005.691786
1006.111787
1006.501414
1006.836414
1007.143238
1007.388823
1007.603426
1007.776411
1007.935177
1008.06098
1008.126749
1008.144746
1008.12262
1008.06286
1007.980248
1008.013416
1007.783244
318.7748818
353.5709346
386.6991717
419.5728498
451.3013058
480.2330532
509.5985655
539.0782825
567.1082399
594.9823551
620.6573067
646.9465706
673.3450034
697.9016396
721.6887669
744.2321498
766.832176
788.3958824
808.7195114
828.7605923
847.3384264
863.9168778
879.944853
894.3723361
907.2309448
919.201649
930.501385
941.1638193
950.4817865
958.3219488
964.9562991
970.8969398
976.2627177
981.0020987
984.9638627
988.3143468
991.1751201
993.5990527
995.5301926
997.1930527
998.5691676
999.7418342
1000.7509
1001.644582
1002.469979
1003.229281
1003.93756
1004.581567
1005.174426
1005.651114
1006.058044
1006.436509
1006.769185
1007.073263
1007.315347
1007.534379
1007.712427
1007.871848
1007.99298
1008.045003
1008.048157
1008.021081
1007.973299
1007.918797
1007.988301
1007.77836
318.6295019
353.087721
386.1779198
417.8264424
450.2846646
480.3135718
508.5139257
537.1165326
565.1392538
593.0088209
619.7085915
645.2169064
671.3040338
696.4149972
720.0775983
743.109331
764.686772
786.6445265
807.1039971
826.2771985
845.1096346
862.1452229
877.7397021
892.7470665
905.9190527
917.9197802
928.933613
939.3455981
948.9229955
957.1575391
964.0536649
969.8046073
974.989762
979.7043652
983.7969154
987.2593734
990.1353509
992.5624572
994.6484434
996.3193798
997.761416
998.9687037
1000.012296
1000.928756
1001.757884
1002.536948
1003.263162
1003.948803
1004.568161
1005.136611
1005.592666
1005.990716
1006.367628
1006.692818
1006.997764
1007.240938
1007.465847
1007.653655
1007.813326
1007.92585
1007.966624
1007.961945
1007.940985
1007.914752
1007.890604
1007.983563
1007.775599
318.6400999
352.7408264
386.2939535
417.4183132
448.4917834
479.2966465
508.3736723
535.9701934
563.8660975
591.081674
618.2409268
644.1627013
669.4551973
694.3039858
718.185985
741.3363898
763.5441094
784.5232794
805.3307465
824.3238221
842.6261135
860.011444
876.0158257
890.5921115
904.3641754
916.4524987
927.4671774
937.6780307
947.1504379
955.676257
962.9766214
968.8775196
973.8901637
978.4347454
982.5317617
986.0939204
989.053696
991.5230712
993.6125846
995.4383949
996.8848731
998.1468125
999.2274567
1000.17437
1001.018133
1001.806925
1002.559068
1003.269081
1003.935791
1004.534627
1005.076176
1005.52346
1005.914926
1006.290298
1006.617251
1006.921968
1007.169526
1007.40113
1007.593234
1007.752272
1007.85888
1007.892143
1007.887441
1007.880315
1007.878214
1007.877787
1007.977702
1007.744594
318.5776214
352.6730666
385.7686295
417.4101394
447.3233856
477.4415142
506.7645207
535.6418053
562.5435202
589.8103276
616.2690221
642.1261393
668.2867142
692.3645347
715.9930941
739.4527427
762.0494078
783.2597053
803.2740884
822.9293486
840.7338415
857.8737763
873.9874803
888.9226266
902.433094
914.846034
925.8949472
935.9498512
945.3691971
953.9202551
961.5597311
967.9119781
972.9653971
977.3316425
981.2932093
984.8585704
987.9171249
990.4373668
992.5594421
994.3860467
995.9893548
997.2561793
998.391469
999.3630917
1000.234686
1001.046782
1001.815077
1002.555142
1003.250181
1003.896233
1004.474162
1005.001138
1005.439423
1005.832733
1006.204295
1006.533867
1006.840575
1007.095466
1007.336921
1007.535054
1007.690716
1007.789923
1007.819998
1007.821241
1007.830666
1007.848384
1007.860558
1007.94734
1007.670582
318.5677884
352.4804541
385.6258305
416.6736752
446.4803246
476.2202933
504.7880924
534.0732087
561.5769789
588.4325127
614.4082294
640.230432
665.6843224
691.0972945
713.972106
737.1963258
760.1272254
781.4313909
801.5547981
820.8251288
839.345577
856.1859388
871.9122398
887.003174
900.8213647
912.9505532
924.1560757
934.2795846
943.40532
952.0468605
959.7403903
966.6198711
972.046305
976.4130496
980.1945568
983.6101202