/*--------------------------------*- C++ -*----------------------------------*\
| =========                 |                                                 |
| \\      /  F ield         | OpenFOAM: The Open Source CFD Toolbox           |
|  \\    /   O peration     | Version:  v1706                                 |
|   \\  /    A nd           | Web:      www.OpenFOAM.com                      |
|    \\/     M anipulation  |                                                 |
\*---------------------------------------------------------------------------*/
FoamFile
{
    version     2.0;
    format      ascii;
    class       volScalarField;
    location    "1e-06";
    object      meanCollisionTime_Ar;
}
// * * * * * * * * * * * * * * * * * * * * * * * * * * * * * * * * * * * * * //

dimensions      [0 0 1 0 0 0 0];


internalField   nonuniform List<scalar> 
100
(
3.236492848e-06
3.368290891e-06
3.514603211e-06
3.647920466e-06
3.772918457e-06
3.860683935e-06
3.943535334e-06
4.04293103e-06
4.099493822e-06
4.130385121e-06
3.265207893e-06
3.358967337e-06
3.528862525e-06
3.656151148e-06
3.783434699e-06
3.895712786e-06
3.97103779e-06
4.048890258e-06
4.102969566e-06
4.150084711e-06
3.256270877e-06
3.360098587e-06
3.503330588e-06
3.63473859e-06
3.730673928e-06
3.838627545e-06
3.968023028e-06
4.045873138e-06
4.095843183e-06
4.146792304e-06
3.254982555e-06
3.389192341e-06
3.518956015e-06
3.616156519e-06
3.748875746e-06
3.858099838e-06
3.965121845e-06
4.029548329e-06
4.088989338e-06
4.118285947e-06
3.260319067e-06
3.429967835e-06
3.554619556e-06
3.653274088e-06
3.737716244e-06
3.882584373e-06
3.965549459e-06
4.070840353e-06
4.089692554e-06
4.151707109e-06
3.253066763e-06
3.393474691e-06
3.543859251e-06
3.65623586e-06
3.769186572e-06
3.896449011e-06
4.006212145e-06
4.068607188e-06
4.090304442e-06
4.139215572e-06
3.275254333e-06
3.385230312e-06
3.525066767e-06
3.64085151e-06
3.790728491e-06
3.885106019e-06
3.988726918e-06
4.07282089e-06
4.127830974e-06
4.139522376e-06
3.274435417e-06
3.384882591e-06
3.550979155e-06
3.670546532e-06
3.780567699e-06
3.890201923e-06
3.967952018e-06
4.046663321e-06
4.11961305e-06
4.151398652e-06
3.277782843e-06
3.393806564e-06
3.528262069e-06
3.67905423e-06
3.804800879e-06
3.920755339e-06
3.993608432e-06
4.050702125e-06
4.122861305e-06
4.168088215e-06
3.265453088e-06
3.423746173e-06
3.554333598e-06
3.665493323e-06
3.796460133e-06
3.93359751e-06
3.994082028e-06
4.024094218e-06
4.078419554e-06
4.142184915e-06
)
;

boundaryField
{
    stickingWall
    {
        type            calculated;
        value           nonuniform List<scalar> 
100
(
3.236492848e-06
3.368290891e-06
3.514603211e-06
3.647920466e-06
3.772918457e-06
3.860683935e-06
3.943535334e-06
4.04293103e-06
4.099493822e-06
4.130385121e-06
3.265207893e-06
3.358967337e-06
3.528862525e-06
3.656151148e-06
3.783434699e-06
3.895712786e-06
3.97103779e-06
4.048890258e-06
4.102969566e-06
4.150084711e-06
3.256270877e-06
3.360098587e-06
3.503330588e-06
3.63473859e-06
3.730673928e-06
3.838627545e-06
3.968023028e-06
4.045873138e-06
4.095843183e-06
4.146792304e-06
3.254982555e-06
3.389192341e-06
3.518956015e-06
3.616156519e-06
3.748875746e-06
3.858099838e-06
3.965121845e-06
4.029548329e-06
4.088989338e-06
4.118285947e-06
3.260319067e-06
3.429967835e-06
3.554619556e-06
3.653274088e-06
3.737716244e-06
3.882584373e-06
3.965549459e-06
4.070840353e-06
4.089692554e-06
4.151707109e-06
3.253066763e-06
3.393474691e-06
3.543859251e-06
3.65623586e-06
3.769186572e-06
3.896449011e-06
4.006212145e-06
4.068607188e-06
4.090304442e-06
4.139215572e-06
3.275254333e-06
3.385230312e-06
3.525066767e-06
3.64085151e-06
3.790728491e-06
3.885106019e-06
3.988726918e-06
4.07282089e-06
4.127830974e-06
4.139522376e-06
3.274435417e-06
3.384882591e-06
3.550979155e-06
3.670546532e-06
3.780567699e-06
3.890201923e-06
3.967952018e-06
4.046663321e-06
4.11961305e-06
4.151398652e-06
3.277782843e-06
3.393806564e-06
3.528262069e-06
3.67905423e-06
3.804800879e-06
3.920755339e-06
3.993608432e-06
4.050702125e-06
4.122861305e-06
4.168088215e-06
3.265453088e-06
3.423746173e-06
3.554333598e-06
3.665493323e-06
3.796460133e-06
3.93359751e-06
3.994082028e-06
4.024094218e-06
4.078419554e-06
4.142184915e-06
)
;
    }
    defaultFaces
    {
        type            calculated;
        value           nonuniform List<scalar> 
140
(
3.236492848e-06
3.368290891e-06
3.514603211e-06
3.647920466e-06
3.772918457e-06
3.860683935e-06
3.943535334e-06
4.04293103e-06
4.099493822e-06
4.130385121e-06
3.265207893e-06
3.358967337e-06
3.528862525e-06
3.656151148e-06
3.783434699e-06
3.895712786e-06
3.97103779e-06
4.048890258e-06
4.102969566e-06
4.150084711e-06
3.256270877e-06
3.360098587e-06
3.503330588e-06
3.63473859e-06
3.730673928e-06
3.838627545e-06
3.968023028e-06
4.045873138e-06
4.095843183e-06
4.146792304e-06
3.254982555e-06
3.389192341e-06
3.518956015e-06
3.616156519e-06
3.748875746e-06
3.858099838e-06
3.965121845e-06
4.029548329e-06
4.088989338e-06
4.118285947e-06
3.260319067e-06
3.429967835e-06
3.554619556e-06
3.653274088e-06
3.737716244e-06
3.882584373e-06
3.965549459e-06
4.070840353e-06
4.089692554e-06
4.151707109e-06
3.253066763e-06
3.393474691e-06
3.543859251e-06
3.65623586e-06
3.769186572e-06
3.896449011e-06
4.006212145e-06
4.068607188e-06
4.090304442e-06
4.139215572e-06
3.275254333e-06
3.385230312e-06
3.525066767e-06
3.64085151e-06
3.790728491e-06
3.885106019e-06
3.988726918e-06
4.07282089e-06
4.127830974e-06
4.139522376e-06
3.274435417e-06
3.384882591e-06
3.550979155e-06
3.670546532e-06
3.780567699e-06
3.890201923e-06
3.967952018e-06
4.046663321e-06
4.11961305e-06
4.151398652e-06
3.277782843e-06
3.393806564e-06
3.528262069e-06
3.67905423e-06
3.804800879e-06
3.920755339e-06
3.993608432e-06
4.050702125e-06
4.122861305e-06
4.168088215e-06
3.265453088e-06
3.423746173e-06
3.554333598e-06
3.665493323e-06
3.796460133e-06
3.93359751e-06
3.994082028e-06
4.024094218e-06
4.078419554e-06
4.142184915e-06
3.236492848e-06
3.265207893e-06
3.256270877e-06
3.254982555e-06
3.260319067e-06
3.253066763e-06
3.275254333e-06
3.274435417e-06
3.277782843e-06
3.265453088e-06
4.130385121e-06
4.150084711e-06
4.146792304e-06
4.118285947e-06
4.151707109e-06
4.139215572e-06
4.139522376e-06
4.151398652e-06
4.168088215e-06
4.142184915e-06
3.236492848e-06
3.368290891e-06
3.514603211e-06
3.647920466e-06
3.772918457e-06
3.860683935e-06
3.943535334e-06
4.04293103e-06
4.099493822e-06
4.130385121e-06
3.265453088e-06
3.423746173e-06
3.554333598e-06
3.665493323e-06
3.796460133e-06
3.93359751e-06
3.994082028e-06
4.024094218e-06
4.078419554e-06
4.142184915e-06
)
;
    }
}


// ************************************************************************* //
