/*--------------------------------*- C++ -*----------------------------------*\
| =========                 |                                                 |
| \\      /  F ield         | OpenFOAM: The Open Source CFD Toolbox           |
|  \\    /   O peration     | Version:  v1706                                 |
|   \\  /    A nd           | Web:      www.OpenFOAM.com                      |
|    \\/     M anipulation  |                                                 |
\*---------------------------------------------------------------------------*/
FoamFile
{
    version     2.0;
    format      ascii;
    class       volScalarField;
    location    "1e-06";
    object      nStuckParcels;
}
// * * * * * * * * * * * * * * * * * * * * * * * * * * * * * * * * * * * * * //

dimensions      [0 0 0 0 0 0 0];


internalField   uniform 0;

boundaryField
{
    stickingWall
    {
        type            calculated;
        value           nonuniform List<scalar> 
100
(
506
519
509
471
496
489
496
502
498
498
495
530
510
483
454
495
503
513
502
534
505
558
537
477
511
476
479
515
472
490
491
492
476
528
494
496
518
464
495
505
449
540
530
458
484
535
534
512
475
472
532
522
486
498
483
491
522
548
501
494
517
504
491
498
521
528
495
513
466
482
503
513
483
508
498
506
459
522
485
491
470
541
529
502
485
448
485
493
514
469
479
486
517
471
507
475
507
490
518
493
)
;
    }
    defaultFaces
    {
        type            calculated;
        value           uniform 0;
    }
}


// ************************************************************************* //
