/*--------------------------------*- C++ -*----------------------------------*\
| =========                 |                                                 |
| \\      /  F ield         | OpenFOAM: The Open Source CFD Toolbox           |
|  \\    /   O peration     | Version:  v1706                                 |
|   \\  /    A nd           | Web:      www.OpenFOAM.com                      |
|    \\/     M anipulation  |                                                 |
\*---------------------------------------------------------------------------*/
FoamFile
{
    version     2.0;
    format      ascii;
    class       volScalarField;
    location    "1e-06";
    object      p_Ar;
}
// * * * * * * * * * * * * * * * * * * * * * * * * * * * * * * * * * * * * * //

dimensions      [1 -1 -2 0 0 0 0];


internalField   nonuniform List<scalar> 
100
(
27.71582206
29.67244371
31.84733828
34.29195422
36.34664289
38.69677855
40.79837555
42.52909256
44.37271787
45.5491015
27.59838719
29.71425826
31.8219587
34.13719137
36.6144828
38.37876379
40.59480146
42.49239711
44.30398966
45.65383628
27.53626397
29.7192961
31.90731173
34.38107246
36.79787751
38.98024014
40.58412519
42.62443474
44.36899303
45.35359435
27.7346707
29.44756104
31.95825316
34.63756975
36.55573155
38.77762438
40.55304053
42.7234881
44.63964015
45.83005321
27.62261956
29.12139633
31.60426627
34.24278918
36.8095956
38.53810113
40.70471199
42.2930536
44.49501767
45.38130232
27.63853059
29.5452168
31.58677678
34.10397377
36.11571177
38.29203061
40.33045688
42.46714298
44.54882937
45.63085899
27.43185305
29.43894987
31.6315202
34.19562692
36.25992802
38.44756154
40.42939972
42.2637694
44.1820927
45.61617475
27.46442078
29.52146536
31.64643803
34.07921534
36.23555337
38.40524256
40.56639699
42.60408825
44.35979203
45.2140691
27.4741553
29.37671236
31.71702168
33.89280145
36.04785916
37.99428347
40.241331
42.57248411
44.12642871
45.51583179
27.35224062
29.15924145
31.379516
34.06310174
36.06797968
37.80078539
40.33809465
42.6737355
44.41638762
45.5885923
)
;

boundaryField
{
    stickingWall
    {
        type            calculated;
        value           nonuniform List<scalar> 
100
(
27.71582206
29.67244371
31.84733828
34.29195422
36.34664289
38.69677855
40.79837555
42.52909256
44.37271787
45.5491015
27.59838719
29.71425826
31.8219587
34.13719137
36.6144828
38.37876379
40.59480146
42.49239711
44.30398966
45.65383628
27.53626397
29.7192961
31.90731173
34.38107246
36.79787751
38.98024014
40.58412519
42.62443474
44.36899303
45.35359435
27.7346707
29.44756104
31.95825316
34.63756975
36.55573155
38.77762438
40.55304053
42.7234881
44.63964015
45.83005321
27.62261956
29.12139633
31.60426627
34.24278918
36.8095956
38.53810113
40.70471199
42.2930536
44.49501767
45.38130232
27.63853059
29.5452168
31.58677678
34.10397377
36.11571177
38.29203061
40.33045688
42.46714298
44.54882937
45.63085899
27.43185305
29.43894987
31.6315202
34.19562692
36.25992802
38.44756154
40.42939972
42.2637694
44.1820927
45.61617475
27.46442078
29.52146536
31.64643803
34.07921534
36.23555337
38.40524256
40.56639699
42.60408825
44.35979203
45.2140691
27.4741553
29.37671236
31.71702168
33.89280145
36.04785916
37.99428347
40.241331
42.57248411
44.12642871
45.51583179
27.35224062
29.15924145
31.379516
34.06310174
36.06797968
37.80078539
40.33809465
42.6737355
44.41638762
45.5885923
)
;
    }
    defaultFaces
    {
        type            calculated;
        value           nonuniform List<scalar> 
140
(
24.67243456
27.01827275
30.45868093
33.30216786
35.72927147
38.38811223
40.82885339
42.7815995
45.34296793
47.25717453
24.22289842
27.03424618
30.05705058
33.13778304
35.88514698
38.24836239
40.77655122
43.27565347
45.30747151
47.22345179
24.14091907
27.36086216
30.49634279
33.45128845
36.37487345
39.29942892
40.69419475
42.94187932
45.32150137
46.39598937
24.38141254
26.93551714
30.30749849
33.57609125
35.7351224
38.45078147
40.50737102
43.33387893
45.50984483
47.23267236
24.40277393
26.84426724
29.97502867
33.32636152
36.66222579
38.44197692
41.18678994
42.84592407
45.02173125
46.96734618
24.40485339
27.31245801
30.1640863
33.10435021
35.61141606
37.87682061
40.68110216
43.16628729
45.59024622
47.10785664
24.1208005
26.93649092
30.06734338
33.40750837
35.90428283
37.89661824
40.84008068
42.94904807
45.41188878
46.93195434
24.07959282
26.91992297
29.78313766
33.01651115
35.3550908
38.10965593
41.04744225
42.90814507
44.99285531
47.23818006
23.72056101
26.73175503
29.80030569
32.67617849
35.18883613
37.41847062
40.54899385
43.35458355
45.85594136
47.3519731
23.79961871
26.79326248
29.96956574
33.14452028
35.2028898
38.06349819
40.89536679
43.29289341
45.32590273
47.26388684
30.4706265
30.35015368
30.23691179
30.53520999
30.29348646
30.31681958
30.09961522
30.34120182
30.49456275
30.07403635
42.11223271
43.13584688
42.70636905
43.11571649
42.48946002
42.77134125
42.5346704
42.05597324
42.65581425
42.24931083
27.30660451
29.47844804
31.43220992
33.74371187
35.83952553
38.14387625
40.11249654
41.66976468
43.86454305
44.57811371
27.2536963
28.77003244
30.86570334
34.39225682
35.94403628
36.91024188
39.5399955
41.78259464
43.95106017
44.46822952
)
;
    }
}


// ************************************************************************* //
