/*--------------------------------*- C++ -*----------------------------------*\
| =========                 |                                                 |
| \\      /  F ield         | OpenFOAM: The Open Source CFD Toolbox           |
|  \\    /   O peration     | Version:  v1706                                 |
|   \\  /    A nd           | Web:      www.OpenFOAM.com                      |
|    \\/     M anipulation  |                                                 |
\*---------------------------------------------------------------------------*/
FoamFile
{
    version     2.0;
    format      ascii;
    class       volScalarField;
    location    "1e-06";
    object      rhoN_Ar;
}
// * * * * * * * * * * * * * * * * * * * * * * * * * * * * * * * * * * * * * //

dimensions      [0 -3 0 0 0 0 0];


internalField   nonuniform List<scalar> 
100
(
6.66012e+20
6.23924e+20
5.82274e+20
5.46552e+20
5.17177e+20
4.95367e+20
4.76601e+20
4.57695e+20
4.45455e+20
4.38645e+20
6.59445e+20
6.25856e+20
5.79479e+20
5.45612e+20
5.14516e+20
4.90823e+20
4.73084e+20
4.56956e+20
4.45151e+20
4.35841e+20
6.6203e+20
6.25571e+20
5.8433e+20
5.48666e+20
5.22901e+20
4.9803e+20
4.73557e+20
4.57044e+20
4.45954e+20
4.36944e+20
6.61239e+20
6.20283e+20
5.80911e+20
5.51187e+20
5.20574e+20
4.95534e+20
4.7407e+20
4.59081e+20
4.4624e+20
4.39602e+20
6.6053e+20
6.12791e+20
5.75225e+20
5.45747e+20
5.21646e+20
4.92394e+20
4.73592e+20
4.54417e+20
4.46485e+20
4.36243e+20
6.62259e+20
6.18836e+20
5.77457e+20
5.45721e+20
5.18584e+20
4.90969e+20
4.68679e+20
4.54287e+20
4.46276e+20
4.37306e+20
6.57882e+20
6.21222e+20
5.81067e+20
5.48224e+20
5.14467e+20
4.92271e+20
4.70946e+20
4.54218e+20
4.42129e+20
4.37299e+20
6.57902e+20
6.20893e+20
5.75773e+20
5.43188e+20
5.16256e+20
4.91602e+20
4.73616e+20
4.56985e+20
4.42801e+20
4.36661e+20
6.57018e+20
6.19592e+20
5.8005e+20
5.42335e+20
5.12824e+20
4.88107e+20
4.7075e+20
4.56502e+20
4.42918e+20
4.33826e+20
6.60771e+20
6.13979e+20
5.76246e+20
5.44173e+20
5.14148e+20
4.86723e+20
4.70416e+20
4.59975e+20
4.48195e+20
4.37014e+20
)
;

boundaryField
{
    stickingWall
    {
        type            calculated;
        value           nonuniform List<scalar> 
100
(
6.66012e+20
6.23924e+20
5.82274e+20
5.46552e+20
5.17177e+20
4.95367e+20
4.76601e+20
4.57695e+20
4.45455e+20
4.38645e+20
6.59445e+20
6.25856e+20
5.79479e+20
5.45612e+20
5.14516e+20
4.90823e+20
4.73084e+20
4.56956e+20
4.45151e+20
4.35841e+20
6.6203e+20
6.25571e+20
5.8433e+20
5.48666e+20
5.22901e+20
4.9803e+20
4.73557e+20
4.57044e+20
4.45954e+20
4.36944e+20
6.61239e+20
6.20283e+20
5.80911e+20
5.51187e+20
5.20574e+20
4.95534e+20
4.7407e+20
4.59081e+20
4.4624e+20
4.39602e+20
6.6053e+20
6.12791e+20
5.75225e+20
5.45747e+20
5.21646e+20
4.92394e+20
4.73592e+20
4.54417e+20
4.46485e+20
4.36243e+20
6.62259e+20
6.18836e+20
5.77457e+20
5.45721e+20
5.18584e+20
4.90969e+20
4.68679e+20
4.54287e+20
4.46276e+20
4.37306e+20
6.57882e+20
6.21222e+20
5.81067e+20
5.48224e+20
5.14467e+20
4.92271e+20
4.70946e+20
4.54218e+20
4.42129e+20
4.37299e+20
6.57902e+20
6.20893e+20
5.75773e+20
5.43188e+20
5.16256e+20
4.91602e+20
4.73616e+20
4.56985e+20
4.42801e+20
4.36661e+20
6.57018e+20
6.19592e+20
5.8005e+20
5.42335e+20
5.12824e+20
4.88107e+20
4.7075e+20
4.56502e+20
4.42918e+20
4.33826e+20
6.60771e+20
6.13979e+20
5.76246e+20
5.44173e+20
5.14148e+20
4.86723e+20
4.70416e+20
4.59975e+20
4.48195e+20
4.37014e+20
)
;
    }
    defaultFaces
    {
        type            calculated;
        value           nonuniform List<scalar> 
140
(
4.0322e+19
3.9912e+19
4.0534e+19
4.0452e+19
4.0382e+19
4.0706e+19
4.0758e+19
4.0532e+19
4.098e+19
4.1522e+19
3.9748e+19
4.0072e+19
4.0034e+19
4.0354e+19
4.0552e+19
4.0614e+19
4.0736e+19
4.1042e+19
4.0908e+19
4.1376e+19
3.9698e+19
4.0298e+19
4.0508e+19
4.0614e+19
4.1114e+19
4.1428e+19
4.0798e+19
4.0762e+19
4.0928e+19
4.1134e+19
3.981e+19
3.9714e+19
4.0178e+19
4.0474e+19
4.033e+19
4.0492e+19
4.0408e+19
4.0878e+19
4.0982e+19
4.1262e+19
3.9928e+19
3.969e+19
3.9764e+19
4.0448e+19
4.1348e+19
4.0352e+19
4.1036e+19
4.0666e+19
4.0754e+19
4.1082e+19
3.997e+19
4.0054e+19
4.0018e+19
4.0468e+19
4.0338e+19
4.0042e+19
4.0394e+19
4.1072e+19
4.1432e+19
4.1426e+19
3.9482e+19
3.9662e+19
4.0054e+19
4.0584e+19
4.0414e+19
4.009e+19
4.0384e+19
4.083e+19
4.1048e+19
4.1248e+19
3.9688e+19
3.9776e+19
3.9676e+19
4.0174e+19
4.0116e+19
4.0448e+19
4.0766e+19
4.048e+19
4.0756e+19
4.121e+19
3.9152e+19
3.9558e+19
3.9806e+19
3.9704e+19
3.9686e+19
3.9826e+19
4.0534e+19
4.1174e+19
4.1414e+19
4.1196e+19
3.9412e+19
3.9352e+19
4.007e+19
4.0412e+19
3.9892e+19
4.0182e+19
4.0602e+19
4.1092e+19
4.114e+19
4.131e+19
4.1314e+19
4.0774e+19
4.0858e+19
4.1252e+19
4.0946e+19
4.0918e+19
4.0744e+19
4.0762e+19
4.0928e+19
4.1122e+19
4.1742e+19
4.2106e+19
4.2018e+19
4.2404e+19
4.158e+19
4.2232e+19
4.1802e+19
4.1794e+19
4.2136e+19
4.1546e+19
4.0886e+19
4.1246e+19
4.123e+19
4.1326e+19
4.1124e+19
4.1502e+19
4.1802e+19
4.1566e+19
4.1988e+19
4.1774e+19
4.0648e+19
4.0268e+19
4.0336e+19
4.189e+19
4.1354e+19
4.03e+19
4.1164e+19
4.163e+19
4.2292e+19
4.1562e+19
)
;
    }
}


// ************************************************************************* //
