/*--------------------------------*- C++ -*----------------------------------*\
| =========                 |                                                 |
| \\      /  F ield         | OpenFOAM: The Open Source CFD Toolbox           |
|  \\    /   O peration     | Version:  v1706                                 |
|   \\  /    A nd           | Web:      www.OpenFOAM.com                      |
|    \\/     M anipulation  |                                                 |
\*---------------------------------------------------------------------------*/
FoamFile
{
    version     2.0;
    format      ascii;
    class       scalarField;
    location    "2.538e-05/lagrangian/dsmc";
    object      ERot;
}
// * * * * * * * * * * * * * * * * * * * * * * * * * * * * * * * * * * * * * //


99998
(
1.729643365e-19
2.175727107e-19
2.788205739e-20
1.375173745e-19
1.22427078e-19
2.680708152e-20
2.955195956e-20
1.939097002e-19
2.309295873e-19
2.884096449e-20
1.075556963e-19
7.067039839e-20
1.728517177e-19
1.591933016e-20
8.752780412e-21
2.360599779e-20
9.087554017e-21
3.98051999e-22
3.609028521e-20
1.680180648e-20
2.103708462e-20
1.493075152e-19
1.61448724e-19
4.484836391e-19
6.541064849e-20
1.190134516e-19
6.678233572e-20
1.931741073e-20
5.612991247e-21
5.471037828e-20
1.20258191e-19
2.040820007e-19
8.123490889e-21
4.541686528e-20
1.061910424e-20
7.986118207e-20
1.907377144e-19
1.558150772e-19
8.533777913e-20
2.389257323e-20
7.215552608e-20
9.517066862e-19
8.075945096e-20
1.068746598e-19
8.752474966e-20
1.430505409e-19
3.492952595e-22
7.689963561e-20
7.840562072e-21
8.287959264e-21
1.996365311e-19
4.055337159e-20
4.51891087e-20
1.369654252e-19
2.953734984e-20
2.213862232e-19
1.438013195e-19
3.383862601e-19
1.647626988e-19
2.058297172e-19
3.360179835e-20
1.848667991e-20
3.045034055e-20
2.333008005e-20
2.911295741e-19
1.422786184e-19
5.967983777e-20
1.312742699e-19
2.826725051e-20
8.603619524e-21
2.729908434e-19
4.521444832e-21
3.30129937e-19
1.303933615e-19
2.95169988e-19
1.625941341e-19
2.594380467e-19
9.10769981e-20
3.050963142e-20
2.101272344e-21
3.954535131e-20
9.454120048e-21
3.364871415e-20
5.219375375e-20
3.136167233e-20
3.298426582e-20
1.370970985e-20
2.127593876e-20
1.062787208e-19
6.021810067e-20
1.77936391e-19
6.7794038e-20
7.044309697e-20
4.100863589e-19
1.890033172e-20
3.897495489e-21
7.554692251e-21
1.757649463e-20
3.801314372e-20
1.674176131e-19
7.627712634e-20
1.627136406e-19
1.587215814e-19
5.578073261e-20
2.667756732e-19
2.768413437e-19
1.146896233e-19
1.461212802e-19
4.032373558e-19
5.858738789e-20
3.253250426e-20
9.731481171e-20
5.292690066e-20
3.201809238e-20
6.91485526e-19
3.094377908e-19
2.050376114e-19
1.602752081e-19
1.075325885e-19
1.86935742e-19
2.155645988e-20
7.869508178e-20
6.641065082e-20
7.800123449e-20
6.67455852e-20
1.903967965e-20
8.060297269e-20
2.703689118e-20
2.006546559e-21
5.904115847e-20
1.21013117e-19
1.719281905e-19
1.266705696e-19
1.123308248e-19
1.393388907e-19
8.182683143e-20
1.064816249e-19
4.578344376e-20
3.044991172e-19
3.047166055e-19
2.977133693e-20
3.607057295e-20
2.155277118e-19
9.277005681e-20
2.274109432e-20
1.082595338e-20
2.870208524e-20
6.715881852e-20
8.014977553e-21
8.433526925e-20
1.810808423e-19
6.589085723e-20
4.698754437e-20
9.3962925e-20
3.613502477e-20
4.475356145e-20
1.675946566e-19
5.086134727e-19
2.179846781e-20
1.451789852e-19
1.532083766e-20
1.739604627e-20
5.527487885e-20
2.378702602e-19
5.141327651e-20
5.091082239e-20
6.988817913e-22
9.400733177e-20
1.397802284e-19
2.451069777e-19
3.106121423e-19
9.012814487e-20
9.485453675e-21
6.117598031e-20
3.660690909e-20
8.110149381e-20
4.794177839e-21
1.579641864e-20
1.633410244e-19
2.142303819e-20
1.04672401e-19
1.874715507e-19
7.59438949e-20
3.074344275e-19
2.093445562e-19
1.389318044e-20
2.498148708e-20
1.186849556e-19
3.545754681e-20
1.315791228e-19
9.225817868e-20
1.667187314e-19
5.603220569e-20
2.829753956e-19
1.139385487e-20
4.229903762e-20
5.664201214e-20
1.028582203e-20
2.06773373e-20
3.895778406e-21
3.166030176e-19
1.708851293e-19
1.807401115e-19
3.690821085e-19
1.99618858e-20
1.183704734e-19
1.219290473e-20
1.263506988e-20
1.431177752e-19
7.084382249e-20
4.826085749e-20
4.290431844e-20
6.152768649e-20
9.10628722e-21
2.004662499e-20
3.328581748e-20
3.702256448e-19
2.284458361e-19
2.680121475e-19
6.952552095e-20
1.383642131e-22
1.388480012e-19
1.18993769e-19
1.954441395e-19
1.282546595e-20
1.293397856e-19
2.036322046e-19
1.207838795e-19
5.108636942e-20
3.813830252e-20
9.052757756e-20
9.866961196e-20
1.33929948e-21
7.959389364e-20
2.125841443e-21
1.605512392e-19
2.799875389e-21
7.7489291e-21
9.597450711e-20
7.657428912e-20
7.9348593e-20
1.529378245e-19
3.071494525e-20
6.987466996e-20
2.329993401e-22
1.677796443e-19
1.400610963e-20
5.043789071e-20
9.138322657e-20
1.0633158e-19
9.999355182e-20
6.152749545e-20
1.852998735e-19
1.793122149e-19
2.329686337e-20
1.280172136e-19
1.324819881e-19
5.13131463e-21
7.146187712e-20
1.811904166e-19
1.244624647e-19
2.655387384e-20
1.128368896e-19
3.578239567e-20
1.198301463e-19
2.346714014e-19
1.509775534e-19
5.30975623e-20
3.834013928e-19
9.59322598e-20
1.6699118e-19
3.045457007e-19
1.669729783e-19
9.458413386e-22
7.139347806e-20
1.19036166e-21
7.251052635e-20
2.768860801e-19
2.729229396e-19
1.123210415e-19
1.352795491e-19
1.01854232e-19
1.090385267e-19
4.860990927e-20
2.862396985e-19
3.2422225e-20
3.335588155e-19
2.134682009e-20
1.824487586e-20
1.219998044e-20
1.00437814e-19
2.488241348e-20
8.273735117e-20
1.114221843e-19
1.632341783e-19
2.656383106e-20
7.83175025e-20
1.146184346e-19
6.518815512e-21
1.781470216e-20
2.950111844e-19
1.041986378e-19
1.0112839e-19
9.446229485e-20
6.736262458e-20
1.379182174e-19
3.027462493e-20
2.980969092e-20
1.217121729e-19
2.335229575e-20
5.865104593e-20
6.334507933e-20
2.589942504e-19
1.824829656e-19
3.651047723e-19
1.620019711e-19
5.794104254e-20
1.878927286e-20
3.571960457e-20
3.670459294e-20
2.097891129e-20
3.835632822e-19
2.867140001e-20
1.351492705e-20
5.711575113e-20
8.313416178e-20
1.66534926e-20
1.95707077e-20
8.315873781e-20
3.263766544e-19
9.565614331e-21
2.218172674e-19
1.63119821e-19
4.851293808e-20
4.44765502e-20
1.134342021e-19
1.364631984e-19
5.043474914e-19
5.370247397e-21
1.838335443e-20
7.356483958e-20
3.544802217e-21
3.281156495e-20
1.328248739e-19
8.360886518e-20
8.01098813e-20
1.003223294e-19
1.030894082e-19
8.248655867e-20
8.484410369e-20
4.324296171e-19
4.211222718e-20
7.060817652e-20
1.594278994e-20
6.483900489e-20
5.043391907e-19
2.200686489e-20
2.550907429e-20
2.15501153e-19
6.481573745e-20
3.997090042e-20
4.833491459e-20
1.171571014e-20
5.693599241e-20
1.896507967e-19
2.331197622e-20
2.366960538e-19
2.013719851e-20
2.746531132e-19
2.288100903e-19
3.896987938e-20
3.419766522e-19
1.61783782e-19
2.555871167e-19
1.302000365e-19
2.714171674e-20
2.586766698e-20
8.033449853e-20
2.912495645e-20
2.126560626e-19
1.607527591e-19
1.333058823e-19
3.453197183e-20
7.085052128e-20
2.816394868e-20
1.540993962e-19
8.752102329e-20
1.653621686e-19
2.797919969e-20
8.436304043e-20
9.712233675e-20
6.337902304e-20
4.207752193e-20
8.342713282e-20
1.902388761e-19
3.714794695e-23
1.125689503e-19
1.901416116e-19
1.851454885e-20
3.097285285e-21
3.618206094e-21
8.091563343e-20
6.019559699e-20
4.258149014e-20
7.692861992e-20
1.345755293e-19
8.207926568e-20
1.448141079e-19
1.267043992e-19
3.322900179e-20
9.598178335e-20
5.028783978e-20
2.633941909e-19
1.934356541e-19
1.980899879e-20
1.747709522e-19
2.102220418e-19
2.890038467e-20
5.075312074e-20
5.109633856e-20
4.342063237e-20
4.227593608e-21
9.657963399e-21
3.9057317e-20
1.593689741e-19
3.499058759e-19
9.883297328e-20
2.049060757e-20
5.212573656e-21
2.598218509e-20
1.074956519e-19
5.850021721e-21
1.473723395e-19
1.168996892e-19
2.338643067e-19
9.452497858e-20
3.186391764e-20
5.441522336e-20
2.154986421e-20
3.189468533e-19
1.345984716e-19
5.482128418e-20
3.57524284e-20
3.570133581e-20
3.996630749e-21
6.845204887e-20
1.555936338e-19
1.002886797e-19
1.26599118e-19
1.317379227e-19
2.896978317e-20
1.404658858e-20
1.838494489e-19
3.764922729e-19
1.293689646e-19
1.665912382e-19
1.481202677e-19
2.613381453e-19
1.293123482e-19
1.008970024e-19
5.305418502e-20
4.474293991e-19
1.029283516e-19
1.356461235e-20
5.756722775e-21
5.629233351e-20
1.909094461e-20
1.276307277e-19
4.417289665e-21
2.037529943e-19
1.10301493e-19
1.606436232e-20
7.97205632e-21
1.001421351e-19
2.733779676e-20
6.197552034e-20
8.988430846e-20
1.218698506e-19
6.687971305e-20
3.402373301e-20
2.04007683e-21
5.079321989e-19
9.794101817e-20
9.411448949e-21
8.883643235e-20
6.640294598e-20
4.814529997e-20
7.841587411e-20
3.598229705e-20
1.928407802e-19
5.424986605e-20
3.611394975e-19
5.862524751e-20
2.460825577e-19
8.642189421e-20
1.547634965e-20
7.047219258e-20
3.694314378e-20
1.946903009e-19
1.604466252e-19
1.911819604e-19
5.509209778e-19
5.313684617e-20
1.837067592e-20
1.263016021e-20
1.153358156e-19
3.438841332e-20
9.263880892e-20
1.563438324e-19
4.703426334e-20
2.087761857e-19
2.608401974e-19
9.159116261e-20
2.605420893e-19
8.708753116e-21
3.404555622e-22
1.046846289e-19
1.239448665e-19
1.480347207e-19
3.284013752e-19
4.126852424e-20
4.074966867e-20
5.874075236e-20
2.32075104e-20
4.16707454e-20
7.74723834e-20
6.397409634e-20
6.27336477e-21
1.118500028e-20
6.982217608e-20
3.403112536e-19
4.795123389e-21
6.902523821e-20
1.450383601e-20
1.313245798e-20
2.47589032e-22
1.812974506e-19
4.484892176e-20
5.646542611e-20
1.212275677e-19
1.076435985e-19
5.080554827e-20
2.205883153e-19
2.091214553e-19
1.70923183e-19
5.318712564e-20
4.198239459e-20
9.67517123e-20
2.005344957e-19
3.492343868e-19
4.55116288e-20
5.055251957e-20
1.000368945e-19
6.388016265e-19
2.794722003e-19
1.732631967e-19
5.763774643e-20
2.07393878e-20
7.226475002e-19
8.167481723e-20
5.033492067e-20
4.149807713e-20
4.33776097e-20
7.682579313e-20
4.849416137e-20
5.774523626e-21
1.071545744e-19
8.142390759e-20
2.425730148e-20
1.956335457e-19
3.893408017e-20
2.347858518e-19
8.186728894e-20
6.895303791e-20
9.951171928e-21
1.931794274e-20
7.322157852e-20
4.871385014e-20
8.077856507e-20
1.016858213e-19
3.34849395e-20
8.82534751e-20
3.156222532e-19
2.913268844e-20
1.808538031e-19
8.166281349e-20
1.673497553e-19
1.380082887e-20
4.713366009e-21
8.039224235e-21
5.103281701e-20
5.781079798e-19
1.106998652e-19
1.07817355e-19
2.681936614e-19
3.55628761e-20
1.003353093e-19
1.984657098e-19
7.361749924e-20
1.367910515e-19
3.163881479e-20
1.35565394e-19
5.034600875e-19
8.010172135e-20
3.157369279e-20
1.281072817e-19
7.127954766e-20
6.804006757e-20
1.298871866e-20
2.947657875e-19
9.412271045e-21
5.26960599e-20
6.183351224e-21
8.061140531e-20
9.299759843e-20
7.262196466e-20
2.787061586e-19
1.845292597e-19
4.65593741e-20
1.782761321e-19
6.476645792e-20
3.021714206e-21
6.801673788e-20
8.255803565e-20
2.610280895e-19
3.058181035e-20
1.614932328e-19
2.358866322e-20
1.37089846e-19
8.087111274e-20
5.354832797e-20
9.727432665e-20
4.341669508e-20
5.765325316e-19
1.147481802e-19
1.938232721e-20
1.126029499e-20
5.730011789e-20
4.210078646e-20
7.214829633e-20
5.182872352e-20
1.48721824e-19
2.363758795e-19
1.321053526e-19
2.52815103e-20
4.172423673e-21
1.202223577e-20
4.435661047e-20
2.477174611e-20
7.279730257e-20
1.321023403e-19
1.133180043e-19
2.122045392e-19
1.756762968e-20
5.426096084e-21
1.508382459e-19
1.92905513e-19
5.866252933e-20
1.457846478e-19
4.634204491e-20
3.676275274e-21
4.320152338e-21
7.650182982e-20
1.39973297e-20
2.130255924e-19
3.713811139e-19
8.141496338e-20
1.338877475e-19
1.202865801e-19
7.673486907e-21
1.246910951e-19
9.365243108e-20
1.821569094e-20
8.991577704e-20
6.057798516e-20
1.449160992e-20
1.679432859e-19
2.782329786e-19
2.942636895e-19
2.729205309e-20
3.407627356e-20
3.236593723e-20
6.792724734e-20
5.378999901e-20
2.209327107e-20
2.806938997e-19
2.621225666e-20
2.14726754e-19
4.482304678e-19
6.396800658e-20
2.37654692e-20
1.017556511e-20
2.292401365e-19
2.056503906e-19
3.599303913e-20
1.14273841e-19
7.173918254e-20
1.001727638e-20
2.532262677e-19
2.920222084e-20
1.993399105e-19
5.413352751e-20
1.749983735e-19
1.577537896e-19
1.309780302e-19
1.265148681e-20
6.706769746e-20
4.903716754e-20
2.044375617e-19
2.728945458e-19
1.022951318e-20
7.155046446e-20
1.80006842e-19
1.385247931e-19
8.383966928e-20
1.740125536e-19
5.80642125e-20
3.653523157e-20
1.033078778e-20
2.72728622e-20
1.974671702e-19
2.373736636e-19
1.4626667e-19
6.659903844e-20
1.837975758e-20
1.224237878e-19
3.433393672e-19
2.991093113e-20
2.737656839e-19
7.765273227e-20
1.209537677e-19
5.276517927e-20
6.702255825e-20
1.92748277e-19
1.361269332e-20
1.193686868e-20
1.043690618e-21
3.295775191e-20
6.400563832e-20
1.798185368e-20
3.256758393e-20
5.709587833e-20
5.289677167e-20
2.210457195e-20
1.328179804e-19
3.083378541e-20
8.490997803e-20
2.87716695e-19
6.115043988e-20
9.044861969e-20
6.887763311e-21
2.791699275e-20
4.440821308e-20
7.927441183e-20
5.746492665e-20
1.237127082e-19
9.261222341e-20
4.605075666e-21
6.159967035e-20
1.064455645e-19
4.769896982e-20
1.66229403e-19
8.305013352e-20
1.362316634e-20
1.435291315e-19
4.429484005e-20
3.077720695e-21
2.483974282e-20
1.158793349e-19
3.027512243e-20
1.872618656e-20
1.686309566e-21
3.598744246e-21
2.859713472e-19
1.460921021e-19
2.493159415e-21
1.211316707e-19
1.858957409e-19
6.738796426e-21
4.835288376e-20
1.114370216e-19
5.868386988e-20
2.529300217e-19
6.926134037e-20
2.727117526e-19
1.404805011e-19
1.250423174e-20
6.062537866e-20
2.14665404e-20
2.062391234e-19
2.122074512e-20
1.069582919e-19
2.446146452e-20
3.253659444e-20
1.91041202e-20
1.776037719e-19
1.857451709e-19
1.313432133e-19
7.129557658e-20
1.002786296e-20
8.605256442e-20
9.899828808e-20
1.088109953e-20
3.761367627e-21
3.466035068e-19
1.265581629e-19
7.617299447e-20
1.422412178e-19
8.458136894e-20
7.628327291e-20
6.864482512e-20
5.430531723e-20
6.702653611e-20
1.954554375e-19
2.704341682e-20
1.452450544e-19
1.871337034e-20
6.314382196e-20
2.388867634e-19
2.856138905e-20
1.763275971e-19
2.41180926e-19
4.517089471e-20
1.182692743e-19
1.252142584e-20
1.242807411e-19
5.304193273e-20
1.730254737e-20
8.713840628e-20
1.455678754e-20
3.056085587e-21
2.046064156e-19
2.308365252e-20
1.428115948e-19
2.706354756e-20
8.447671117e-20
1.383569765e-20
1.798032602e-19
2.098978631e-19
8.573075545e-20
1.801612878e-19
1.632306651e-20
7.556755905e-20
6.540097757e-20
4.969513601e-22
1.249782571e-19
6.192769408e-21
5.094839588e-20
1.054317737e-19
8.683503047e-20
4.07109829e-20
7.899445243e-20
1.499254204e-19
4.271362393e-20
9.817981662e-20
2.028870832e-21
1.106408904e-20
1.743638786e-19
9.459465318e-20
1.049566002e-19
2.344573579e-19
1.998612883e-20
7.924376357e-20
1.523857031e-19
8.695399949e-20
9.534642494e-20
2.77469971e-20
6.020058224e-19
2.693204291e-21
5.613415084e-20
4.888447605e-21
5.531707049e-20
2.739798212e-20
1.153517693e-19
1.295119239e-19
1.40848566e-20
1.207247428e-20
5.117080685e-21
3.640372135e-20
5.524744718e-20
2.979265051e-20
7.462867828e-20
1.117357563e-19
5.179060961e-21
2.177513729e-20
4.679453892e-21
5.201536387e-21
6.647924838e-20
4.906047195e-20
1.026597569e-19
6.380630177e-20
4.810529226e-20
4.18965082e-19
3.270626435e-20
2.754884071e-19
3.254763247e-20
1.018041186e-19
5.752695063e-20
8.694089784e-20
1.958691336e-21
9.11517652e-20
2.214489635e-20
1.272285077e-19
2.228598895e-19
2.493310702e-19
2.736702529e-20
1.203198587e-19
1.19657605e-19
6.618494335e-20
2.78026491e-19
6.666610685e-20
7.613008446e-20
1.508656715e-19
1.161486523e-19
2.748691877e-19
8.114980684e-20
4.878522708e-20
1.51311957e-20
7.690867283e-20
8.191221062e-20
1.929556443e-19
4.017040351e-20
1.050822653e-20
2.734486443e-19
3.33516133e-19
6.460136497e-20
2.045572277e-19
2.550184319e-19
8.641658034e-20
5.08371461e-20
8.530888791e-20
3.652518003e-20
4.253359692e-20
4.54709396e-20
2.957954668e-21
2.703579306e-20
5.295163611e-20
3.405780673e-19
3.234588954e-19
2.442709799e-20
1.841499567e-20
8.591853981e-20
1.444197099e-19
5.093681385e-20
3.15511152e-19
6.828646149e-20
5.3974675e-20
5.093046438e-20
1.819170779e-20
3.202422919e-19
4.570278225e-19
1.155746271e-20
6.188686079e-20
2.562335344e-19
4.99332821e-20
7.525126314e-22
1.051671824e-19
7.163579604e-20
6.008536255e-20
3.496193522e-19
1.844253437e-19
1.188996972e-19
8.4857657e-20
3.596475763e-19
7.397560876e-20
1.610094862e-19
1.950684549e-19
2.26919674e-20
1.480068978e-19
2.32938663e-19
1.152706684e-19
6.995810743e-21
2.560972711e-21
8.677713161e-20
5.699604449e-20
2.63425392e-19
1.112908699e-19
1.869006169e-19
1.485629722e-19
1.370521498e-20
7.953431725e-21
1.698535513e-19
6.082755633e-20
2.664818677e-20
1.081049759e-19
4.307679694e-20
7.660084584e-20
6.272890355e-20
3.307771265e-20
9.282018568e-21
2.653982265e-19
9.422853054e-22
2.814447871e-20
1.595237296e-19
1.993020012e-19
2.738890164e-20
2.859908349e-20
1.231529144e-20
1.108278982e-19
1.600172091e-19
6.509184164e-20
1.493874285e-19
8.172249378e-20
1.021851428e-19
4.178675231e-20
6.420145203e-20
6.406722941e-20
1.270690718e-20
1.410592999e-20
7.451675638e-20
6.375952326e-20
1.37457068e-19
9.296473928e-20
4.44830568e-20
1.023224117e-19
6.052090307e-20
9.82938438e-20
1.994557954e-19
8.884926922e-21
1.446605646e-20
4.841945454e-20
2.649419563e-19
2.419725514e-19
2.89877215e-20
2.132734241e-19
1.417855862e-19
2.533733632e-20
2.996638377e-21
4.78133181e-19
1.523460822e-20
9.35352663e-21
1.278611885e-20
6.890485499e-20
5.609941392e-19
6.132055242e-21
6.940039762e-20
1.416457986e-19
3.168898932e-19
8.930930694e-21
2.467575573e-19
1.846140567e-19
9.754735472e-20
5.623107062e-19
2.741521598e-19
5.748573327e-20
7.796449448e-20
4.419545036e-20
8.560088259e-20
3.404937361e-19
1.291099553e-19
6.579442341e-20
1.929545523e-19
1.016499018e-19
3.049898904e-20
1.053544634e-20
4.216855717e-19
2.711420197e-21
1.092307465e-20
3.158282895e-20
1.447619904e-19
3.424487812e-19
1.686285801e-19
6.47644191e-20
3.328542968e-21
1.222354791e-19
2.090645524e-19
1.48007049e-19
9.005201906e-20
1.875798602e-21
2.494507524e-21
7.662900888e-20
1.18148912e-20
2.354823027e-19
3.528034937e-19
8.320350157e-21
1.684572122e-19
3.407579655e-20
1.045339143e-20
1.029790438e-19
2.331033852e-19
1.964490549e-19
6.363844914e-20
7.464301085e-21
3.726297311e-20
3.712057096e-20
9.796268999e-20
3.614149892e-21
1.844286145e-19
6.109052016e-20
2.939860889e-20
1.165972339e-20
1.181258926e-19
6.83508755e-21
4.065384084e-20
4.088446315e-20
8.59248029e-20
8.659994998e-20
1.519894787e-19
1.059835019e-19
3.270894073e-19
4.203243014e-20
2.933262706e-20
8.032244198e-21
4.410906509e-20
3.009542285e-20
1.657542152e-19
1.728318746e-19
2.596069695e-19
1.199791137e-19
2.161451115e-20
5.891269485e-21
5.094738069e-20
2.036479686e-21
1.45679678e-20
7.568977947e-20
1.081867788e-19
1.785666584e-19
4.898970744e-20
1.199282757e-21
8.417441962e-20
1.602842035e-19
2.131369217e-19
2.196642132e-19
6.557072645e-20
1.102886987e-20
2.176232923e-20
8.126351648e-20
1.91106506e-20
3.400521868e-19
5.600083964e-21
3.216676034e-19
4.792400455e-20
2.167302236e-20
2.316915991e-19
5.868614405e-20
9.448321151e-20
1.281496355e-19
5.742277133e-20
8.237178444e-20
1.012431824e-19
9.79644185e-20
5.082895786e-20
4.941691848e-20
1.201001721e-19
6.889388563e-20
1.344269453e-19
5.626672587e-20
1.667347536e-19
3.027739652e-20
2.456405533e-19
1.504741251e-21
5.676999096e-20
2.968859566e-20
9.03247358e-20
9.537706956e-20
1.060792883e-19
1.079121576e-21
9.121762021e-20
7.440173777e-20
7.44716322e-21
3.924401528e-20
5.844588507e-19
1.883048108e-19
2.333689234e-19
2.880908054e-20
5.675166139e-20
7.588468869e-20
1.142264963e-20
1.76851629e-19
2.372132277e-20
1.975843282e-20
1.123020126e-20
2.871124295e-20
9.617454896e-21
1.381246344e-19
4.033465466e-20
2.509073697e-20
1.830103956e-19
7.189925506e-20
5.683150872e-20
1.558466721e-20
4.628347768e-21
1.716002092e-19
8.477719407e-20
1.055082468e-19
3.023159751e-20
4.680879397e-20
3.137360131e-20
2.10035037e-19
2.84502711e-19
6.301208779e-21
4.868367325e-20
5.501985525e-20
2.480769176e-20
3.227744024e-19
3.934215782e-19
4.522392325e-20
1.172664073e-19
2.311922793e-19
4.180372933e-19
2.255851943e-19
1.423000847e-19
5.842936534e-21
6.199623211e-20
1.220493551e-20
7.357665387e-20
6.075694693e-20
1.203629526e-19
7.893848551e-20
6.367423949e-20
3.316594391e-19
4.163371263e-20
1.664715551e-19
1.43000831e-20
1.69314375e-19
1.240226791e-19
2.892644333e-21
2.2275321e-19
1.221975317e-20
1.572404639e-20
1.556150312e-19
8.120126546e-20
1.308379756e-20
1.977293517e-19
1.722584649e-19
1.327075541e-19
2.263331714e-20
3.123707766e-19
7.716007663e-20
8.420791233e-20
2.284704668e-20
3.339752286e-19
1.985685419e-19
1.126462106e-19
9.197744823e-21
4.919650434e-20
1.701012953e-19
8.894613035e-20
6.998244199e-20
2.1366119e-19
3.621682167e-20
6.06915612e-20
3.182893917e-19
8.315393063e-20
1.45934621e-20
8.605638051e-20
1.386334899e-19
9.734029996e-20
1.017232067e-19
1.539546291e-19
1.032109974e-19
4.614595087e-21
6.348323403e-20
1.75777719e-19
2.03831186e-20
2.498876267e-19
1.955611354e-19
1.29009224e-19
6.634146259e-20
1.647481993e-19
1.850306399e-19
2.926490142e-20
5.449395795e-20
3.099793837e-20
2.035169203e-21
2.404389015e-20
3.035088005e-19
5.449283258e-20
1.223780866e-19
2.57817935e-20
4.044189845e-19
1.747760039e-20
2.415948744e-20
2.788806704e-20
1.547405495e-20
1.108085354e-19
1.293474151e-19
6.068922169e-20
6.244970402e-20
6.279178134e-20
2.022006303e-20
1.720523994e-20
7.349682397e-20
4.744737658e-20
1.899043766e-19
1.845531812e-21
1.600396334e-19
1.844374526e-19
5.14735916e-20
7.248926322e-20
7.273944954e-20
1.118784908e-19
6.361685007e-20
7.533985767e-21
7.607338653e-20
5.546151276e-20
1.651509471e-19
4.330335281e-20
1.720498131e-20
9.944794717e-20
3.342426503e-20
8.822907604e-20
2.044309149e-19
6.601512746e-21
5.007278497e-20
9.841740229e-20
2.468562952e-20
7.03184854e-21
1.611434214e-19
1.948719459e-19
8.137029337e-20
1.555909236e-19
1.046139496e-19
5.894018824e-20
8.047654072e-20
1.007536268e-19
1.424812668e-20
1.706030412e-19
1.745508814e-19
1.38616503e-19
5.539274389e-20
5.048410476e-20
1.898416285e-19
1.547798706e-19
9.285140463e-20
4.369231473e-20
1.709853855e-20
6.321055829e-21
7.070833316e-20
4.030836634e-20
1.886427258e-19
3.26108596e-20
1.492222805e-19
2.680740294e-20
7.585175211e-21
1.117051033e-19
5.15235725e-21
5.177031603e-21
1.916039534e-19
1.673752325e-20
2.833477277e-21
8.140051682e-20
1.568044835e-19
3.415203294e-19
8.639177882e-20
6.252529612e-20
1.371355128e-19
9.741232386e-20
8.022091594e-20
3.485625754e-21
4.739329134e-19
9.648893208e-20
2.255916543e-19
2.404717117e-19
3.123809723e-20
5.251612229e-20
2.242570497e-20
1.099218413e-19
3.104319195e-20
1.948053356e-19
5.240789961e-20
1.059031167e-19
2.676888101e-20
8.06426744e-20
2.373742635e-21
3.08703222e-19
5.963253802e-20
2.579671555e-20
9.106661477e-21
6.984292319e-20
6.883535663e-20
5.359060783e-20
2.283325148e-19
1.817686627e-20
3.895945174e-20
3.326862302e-20
3.227129224e-20
1.517493903e-20
2.138731723e-20
1.265203398e-19
1.499099449e-19
1.454825452e-20
1.51659123e-19
2.05413221e-20
6.683476323e-20
3.794630907e-20
4.689145558e-20
2.221084644e-19
6.273563665e-20
6.715572025e-20
8.270759946e-20
3.030451847e-20
2.149926819e-19
2.933906814e-20
9.317672362e-20
6.450630057e-20
1.04252681e-20
3.079108746e-20
5.281951398e-20
1.200414187e-19
4.419978417e-20
4.97778922e-19
3.216658684e-20
1.227324719e-19
1.221779512e-19
2.981594366e-20
5.093745729e-20
5.099228841e-20
8.611258975e-21
3.328564019e-20
7.922369898e-20
2.777573351e-23
1.951487939e-19
1.414563013e-19
1.359245232e-20
4.114862866e-19
4.67818394e-20
6.619416211e-21
1.229675662e-19
5.967265e-20
1.584063196e-19
2.227316147e-20
4.913441581e-22
2.328711795e-19
2.86708154e-19
1.605868726e-19
1.11466039e-19
5.532719893e-20
3.837198267e-20
6.20105273e-20
1.075239992e-19
2.792464726e-19
1.187977784e-19
1.692952353e-19
1.490438141e-19
4.2274739e-20
3.090061209e-19
3.033563257e-19
4.29261297e-20
1.156485135e-19
1.298320588e-20
1.927627897e-20
1.430003363e-19
4.281745039e-20
3.001447177e-21
1.296807384e-19
5.20919415e-20
1.374952354e-20
8.002500745e-20
9.404774279e-20
1.056894836e-20
2.438233136e-20
1.873134743e-19
7.501956205e-20
1.071679745e-19
2.386854421e-20
4.432061756e-19
9.028674177e-21
1.876299915e-19
1.421595257e-20
2.147220803e-19
2.328489006e-19
4.770548224e-19
2.068904623e-20
1.874378026e-19
2.543362472e-20
1.483250819e-19
1.871761198e-19
5.057145034e-20
1.011614482e-19
1.178866099e-19
7.685855127e-20
4.386857409e-21
5.60193757e-20
1.790423944e-19
2.985529651e-19
3.736671702e-21
8.952619284e-20
7.352757149e-21
3.400544291e-19
9.943457381e-21
1.501621983e-20
3.168678734e-20
2.45505516e-20
3.099695681e-20
1.898451455e-19
2.509747614e-19
7.755480825e-20
3.845960802e-19
5.504601551e-20
2.566844354e-20
3.701358131e-20
1.612220113e-19
1.18751085e-19
1.678822483e-19
1.523396747e-19
4.336173136e-20
1.097273025e-19
3.965985018e-20
2.462009676e-19
1.054877045e-19
3.077186198e-20
2.131436867e-20
9.523330235e-20
8.822982273e-21
9.505085491e-20
1.537101243e-19
1.486869666e-19
1.799466796e-20
2.398102975e-19
3.815336088e-19
3.512320538e-19
2.881764796e-19
8.064494845e-20
2.051062784e-19
2.28968604e-20
1.611377273e-20
1.860660431e-20
4.704755655e-20
1.055383262e-19
2.311554172e-20
5.422367125e-20
1.618603189e-19
1.585411383e-19
3.038015507e-20
4.478799792e-20
1.645130913e-19
1.839140855e-20
2.331528165e-20
1.57766106e-19
5.928989925e-20
5.552453434e-20
2.745251028e-21
1.492499398e-20
2.746194997e-19
5.745107418e-20
4.157468585e-20
7.725284681e-20
6.709424507e-20
1.16905649e-20
4.378119136e-19
4.956940683e-20
4.304314596e-20
1.366244831e-20
2.076975749e-19
9.540305913e-20
1.686678493e-19
4.753190342e-20
1.29744864e-20
1.557005224e-20
2.380606898e-20
2.020707565e-19
5.064549761e-21
1.45863239e-19
1.135291161e-19
1.36680675e-19
3.053863472e-20
7.371639625e-20
1.3306643e-19
1.883894757e-20
4.305849579e-21
1.887108941e-19
1.953189456e-19
7.214029457e-20
6.634681134e-20
3.445275549e-19
2.483078947e-19
1.612702212e-19
2.377707897e-19
1.148779036e-21
1.155622516e-20
6.793450534e-20
1.60764308e-19
6.332200808e-20
6.012721433e-20
1.111615681e-19
8.831606508e-20
4.933452211e-20
5.342027699e-21
1.821337241e-20
1.909026447e-19
2.880659776e-19
1.478485738e-20
1.329816325e-19
8.107868946e-21
3.054067377e-21
4.86488292e-20
8.405342002e-21
3.962011869e-20
3.563040136e-20
5.835817687e-20
1.366255874e-19
1.799038289e-19
1.689812235e-19
8.220138351e-21
5.09208106e-20
1.079421104e-20
1.167282963e-20
8.258262982e-21
1.867790937e-19
5.367800377e-20
3.529971632e-19
4.485960734e-20
9.099053371e-21
2.471281608e-20
5.898419873e-20
8.16295446e-20
2.087968898e-20
1.144081208e-19
1.976269149e-19
3.255557811e-20
5.313940677e-19
1.056221667e-19
2.896929024e-19
1.984260807e-19
6.045602527e-20
4.445941357e-19
1.074387203e-19
9.885301936e-20
3.688054257e-20
4.626659324e-20
6.599065895e-20
8.5231435e-20
1.861218718e-19
1.745480132e-19
1.326388136e-19
8.690340834e-20
1.421805854e-20
9.000626125e-20
1.199154857e-20
6.814672857e-20
4.434015239e-20
2.062430999e-19
1.258700756e-19
1.106995194e-19
9.206385585e-20
2.705249241e-20
6.018546796e-20
1.901474597e-19
5.326158985e-20
8.383812267e-20
8.444441143e-20
3.407450627e-20
3.876384745e-20
3.384629108e-20
6.215721968e-19
6.526905503e-21
2.512913649e-19
7.723367005e-20
1.859164436e-20
1.723733531e-20
6.633101402e-19
1.348770324e-19
1.254169403e-20
2.131041202e-19
1.237424715e-19
1.640068788e-19
5.587005934e-20
5.839833496e-20
1.36305134e-19
5.305189408e-20
2.225474884e-19
1.183409264e-20
3.511695995e-20
2.541265597e-20
7.277211669e-20
2.108840365e-20
5.538457099e-20
5.94542778e-20
2.478700752e-19
1.942869173e-20
2.644634584e-21
1.253337339e-19
2.1973686e-19
7.361905528e-21
7.812014382e-21
5.688900878e-20
7.493334527e-21
1.873522493e-19
2.170514685e-20
1.262107723e-20
2.108609236e-19
1.943549867e-21
3.735519035e-20
1.003688277e-19
8.853655049e-20
8.684640668e-20
6.541335748e-20
7.543202064e-20
2.064314152e-19
1.832000043e-20
1.897712011e-19
2.977666306e-20
2.236962501e-20
1.214226519e-19
5.592220966e-20
1.431856297e-19
6.410908186e-20
1.690271155e-20
5.464393005e-19
5.093171557e-20
3.480153296e-20
1.179017687e-22
8.349295397e-21
2.865040138e-20
2.316382265e-19
3.137405396e-19
7.453584576e-20
3.104948943e-20
2.590390144e-20
1.852458773e-19
1.593921665e-19
1.572645168e-20
2.140615094e-20
3.135967414e-20
2.760137165e-20
2.522929009e-20
3.435838953e-20
3.487029882e-19
2.907780658e-19
6.893573372e-20
9.573094996e-20
1.703972997e-19
9.158879399e-21
9.647198106e-20
3.073758124e-19
5.012749524e-22
1.23821852e-19
1.291692552e-20
1.134647391e-19
2.064711953e-20
3.597204208e-19
7.925564107e-20
5.108872531e-20
6.184784976e-20
1.221442616e-19
7.789729595e-20
8.997429969e-20
1.270750195e-20
8.606761526e-22
7.077624265e-20
7.96500918e-20
1.800440747e-19
1.508840286e-19
5.099559085e-20
2.335638569e-20
1.764488759e-19
3.300777476e-20
1.145282454e-19
6.625439141e-20
1.412543559e-20
2.066398773e-19
4.280559855e-19
1.115349272e-19
7.815081056e-21
3.733138975e-20
4.379422706e-21
1.182559438e-19
1.202797689e-19
4.5954996e-20
1.041187187e-19
3.372327158e-20
3.303453404e-21
8.101914171e-20
1.037332411e-19
1.247313045e-19
2.088753785e-19
2.136691256e-20
2.747246026e-20
1.040773302e-19
8.985351705e-20
4.953377458e-20
1.101995102e-20
6.244777122e-20
1.741963788e-19
3.075718787e-19
2.303786056e-19
2.012877045e-19
7.699855129e-21
7.456857042e-20
2.287107242e-20
6.808916307e-20
6.228352921e-20
1.886584288e-19
5.774558172e-20
1.254567417e-19
1.609280416e-20
9.104515017e-20
9.720048777e-20
5.378214339e-20
1.63975715e-19
1.535642232e-19
9.328779697e-20
3.090272372e-19
7.288588153e-21
1.182757933e-20
8.346720201e-20
8.967171239e-21
4.140166486e-20
8.188667915e-20
4.246426676e-20
1.071192925e-19
1.402879349e-20
1.355051454e-19
1.983741089e-19
8.107245193e-20
9.135135335e-20
3.007750974e-19
2.121285221e-19
1.602061586e-19
4.464735302e-20
6.015245546e-20
8.599013702e-21
2.679736412e-19
6.523547833e-21
4.858562958e-19
3.335273593e-20
1.222879077e-19
1.687069267e-20
4.430509776e-19
1.617073458e-20
2.767845917e-21
1.804881823e-19
7.973090903e-20
1.083273452e-19
3.870301101e-19
1.748624092e-20
2.930904236e-20
6.656153022e-20
9.273232315e-20
1.135126043e-19
4.420725361e-20
4.769711859e-20
2.615878978e-20
2.35319816e-20
1.070730815e-19