/*--------------------------------*- C++ -*----------------------------------*\
| =========                 |                                                 |
| \\      /  F ield         | OpenFOAM: The Open Source CFD Toolbox           |
|  \\    /   O peration     | Version:  v1706                                 |
|   \\  /    A nd           | Web:      www.OpenFOAM.com                      |
|    \\/     M anipulation  |                                                 |
\*---------------------------------------------------------------------------*/
FoamFile
{
    version     2.0;
    format      ascii;
    class       vectorField;
    location    "2.538e-05/lagrangian/dsmc";
    object      U;
}
// * * * * * * * * * * * * * * * * * * * * * * * * * * * * * * * * * * * * * //


99998
(
(-411.3221122 1314.038585 -2692.584305)
(1965.269254 513.8660291 2191.070355)
(-1478.047952 -1486.660463 418.6599797)
(1082.162034 1614.111457 -1935.774459)
(599.4073585 73.59722471 972.7794561)
(1193.630431 1122.000448 605.2290926)
(2319.45038 -1418.545582 -2513.523599)
(2817.648214 -3049.007573 1.279965393)
(-2227.979649 -721.9727199 568.5390423)
(2733.439825 1050.649158 2909.101331)
(-818.4282618 400.0296616 690.0478711)
(2799.580993 1112.260188 -270.5956687)
(-966.7687647 1620.049175 910.2526239)
(337.0225228 -503.6170231 587.8377701)
(1127.960422 1534.107665 -4534.922858)
(-1255.09416 841.3302429 106.8963801)
(-1671.86464 1677.666827 -1675.636507)
(1307.650862 2729.10722 878.0321945)
(-407.8587217 -3854.458497 -492.6010066)
(-1759.835341 373.5200739 -817.4551498)
(-520.5181402 -1030.748171 -350.848118)
(-2484.37262 1438.061896 787.6963152)
(-1187.036069 -427.9513096 1949.795407)
(2129.492949 1479.761761 -355.5538053)
(527.2403953 -392.3863552 1656.34212)
(548.7799706 64.46027563 2272.495276)
(-1311.801586 -364.4608118 -901.4413032)
(2752.821336 1269.490308 1394.265533)
(-99.30982504 1840.300453 885.9725337)
(198.7453558 92.45645503 -1075.223043)
(-1701.477955 67.03689796 2615.453639)
(-1914.674039 1451.07229 -3412.815818)
(3682.80354 -780.3803777 -574.680334)
(2048.998297 -2175.906182 1123.333891)
(1457.887977 1495.795612 -1053.992826)
(1950.451917 1085.466204 537.3351705)
(86.60183162 2667.937124 1374.657426)
(-1791.166653 -832.4119701 -634.1960279)
(617.2223573 2065.612639 -225.3495384)
(-668.851077 162.0729054 -2413.867133)
(85.69569517 994.9415342 80.56411395)
(2140.295457 -2088.099466 299.8981396)
(-1262.149537 -1160.431781 -1292.916765)
(-896.5703528 -962.5269399 2037.590918)
(1404.414001 197.109233 -23.36264289)
(-937.2056035 -814.3422466 -1686.831383)
(-2418.729485 2536.57747 -2414.044989)
(15.64272289 835.282815 658.7648624)
(1455.186461 97.28354082 -587.9174651)
(-39.29414352 420.8617954 1769.347396)
(-2219.837477 -1535.563435 -1759.288778)
(-91.43235081 3068.044001 -1083.505435)
(-578.7122833 2666.790864 -999.3750529)
(-880.5495641 -1312.349209 -1839.306217)
(371.0069531 -2424.588043 634.8959497)
(1151.680015 -1706.717312 1305.39925)
(1014.935423 -104.8768621 1675.331808)
(2805.35337 -2002.574466 -1412.534253)
(1785.0167 1898.830099 716.4756351)
(-999.2980985 -824.5825034 269.6935157)
(194.7567584 105.4166453 -88.96151204)
(1599.041294 -696.6099002 -2408.184307)
(4054.34633 -1888.826334 -3936.559589)
(225.9756034 -198.7757582 825.0034693)
(3301.520242 1877.68952 -673.0012974)
(726.3264133 -69.0999895 1151.712687)
(-832.0512903 -281.5745056 -2149.838744)
(362.0791469 1252.466648 -1347.122777)
(-263.6620389 -1110.879637 3437.547414)
(590.0853794 576.2394039 -2148.098298)
(-393.4178385 -2249.571878 -635.1247206)
(-152.2752439 -3109.221629 733.2180911)
(476.7397717 2022.584909 -1197.959914)
(-627.9070984 -1586.040053 2542.139835)
(1077.959135 -180.7855521 737.0433133)
(473.6068718 1913.961683 979.3469732)
(554.4869916 -2539.858688 -345.4042786)
(1018.652776 -310.0452827 -338.5507249)
(2262.199489 488.5633086 585.599216)
(-2634.763274 -2468.743451 231.9932314)
(323.4306968 280.9679748 1347.277369)
(-374.9847982 2466.961982 2364.770661)
(540.2072505 136.7144221 -2264.544346)
(737.6174518 -1056.870636 2613.166862)
(2384.128827 571.9963576 -1769.134949)
(-1254.658057 1880.8681 -507.0142341)
(33.2476408 -799.470787 831.5896554)
(3906.997378 163.4851354 -723.6610563)
(-678.8210487 413.7602635 -196.9222309)
(78.18113952 -618.4312202 -2192.420529)
(1417.055204 -2344.629487 41.11644533)
(-92.60932887 -224.7859353 1513.92808)
(-4.625044551 -850.7112986 674.7848947)
(-8.134489982 1.485473978 -561.6052635)
(591.7505639 438.2844453 2934.68075)
(-2703.134307 -2190.093795 812.1075474)
(-884.077675 209.8544063 -1007.193444)
(-5453.365724 640.743642 -2547.947423)
(-718.2874044 -1168.489965 339.4955487)
(-1991.655824 -475.9943966 -2541.243094)
(-591.1528101 -1085.782214 -501.2661646)
(14.11088053 2664.309963 101.443529)
(-729.1939896 689.6761605 -624.3836717)
(2733.191858 1232.815607 -957.7812571)
(-728.2461587 -898.7634216 -1440.806818)
(2266.347812 -800.6287247 -1855.621497)
(-512.1128636 -2795.603379 -498.5684981)
(-415.8305312 703.845983 2011.565904)
(1399.325234 65.5876508 227.9199235)
(-2179.333262 1263.664592 2495.147368)
(-771.289856 -162.9341749 -1673.65874)
(2198.07042 -810.6271392 -61.27324205)
(582.7591595 204.6842478 555.0158413)
(-1306.733914 2412.240531 -810.404253)
(-165.3211308 205.7735019 1988.475478)
(-333.5843451 -1838.754079 -890.5451093)
(-1799.193863 347.0214514 -2266.893603)
(1672.230314 -2335.60001 -86.81023978)
(960.9288624 -611.5210787 -913.9246994)
(-1680.37256 -2742.149686 -1083.741839)
(-605.5568612 -784.4974664 1528.903098)
(-3072.982212 163.3056048 -3330.730068)
(1498.901587 -148.1753928 151.1402367)
(-468.5573515 -725.810402 253.6205814)
(1304.921734 -125.7732477 1355.258636)
(-2082.794617 -654.7604869 1350.938491)
(-1359.965978 -314.5471004 1223.632582)
(-40.61314749 1637.746172 -2227.394133)
(-365.3085904 -1364.309569 -2870.379826)
(67.45280091 -637.8261065 -472.8607829)
(1205.066195 665.1641824 -863.5676228)
(-780.1339529 1141.261179 1361.695952)
(573.095264 1233.888662 3345.923837)
(-2355.253717 -508.1825371 -774.5798)
(-2276.924606 1859.370194 1316.645935)
(-165.7883076 -9.044981764 -57.86208764)
(-1068.03497 -2311.577397 -431.1718532)
(-2279.115177 -404.6254067 1102.577595)
(753.6762468 700.2646214 -2155.779749)
(944.6151235 -1617.784101 570.8462511)
(-399.9958283 -1435.736147 1817.983589)
(1722.902324 -1824.463557 940.8136911)
(1230.094389 1846.097807 -1684.544917)
(2603.509476 -1143.198536 -862.3390663)
(2165.868667 181.2648323 -717.5639612)
(-701.7024399 124.3613978 523.2287456)
(-742.6004466 -1328.289045 -490.9332643)
(-2430.976446 -197.8193267 -326.7047602)
(2246.049283 -843.9962045 720.7912155)
(1580.682674 1897.607542 1328.892184)
(-1549.975426 101.9959954 -609.736731)
(158.4336609 -623.2505282 1013.790608)
(538.9827423 -73.58813065 410.0604026)
(314.8544889 -1575.732874 -800.0323626)
(772.4795293 -538.7983209 -1120.357136)
(-1185.484205 -888.6505993 -315.0063002)
(-1146.18271 1454.495567 -2624.202351)
(-467.9411472 -951.9745932 516.6410135)
(-2403.234078 -1023.698786 -11.95657782)
(-2512.30788 1238.429779 -46.92052337)
(-929.477523 639.0359983 -760.6216279)
(523.2350894 -856.8941665 80.61981848)
(-389.1449087 -171.3862946 -1534.805646)
(191.6509492 1524.67357 184.8252343)
(919.9877236 -2053.197767 -1112.835686)
(685.6561375 1156.058936 -1449.587196)
(-2027.677329 -1540.651107 -1882.868459)
(215.204993 4785.52799 2427.367787)
(-927.7362429 1918.070749 105.5811295)
(-2214.281429 1202.487932 -1251.789902)
(1242.124968 -1210.328038 -771.3845105)
(553.8279489 680.5498928 -216.9319114)
(-4329.098725 376.510403 418.7372172)
(588.4370256 -1225.480513 -1066.53735)
(1561.955092 9.457340783 305.5638185)
(-1812.932792 602.7096319 -232.1649896)
(862.3301972 -2863.312319 112.6460966)
(234.7452879 -9.528804414 3248.447728)
(-3327.891605 -1247.164525 1297.779941)
(2062.080402 710.5856422 -1526.767664)
(-1146.444631 1877.287531 2218.526215)
(767.2238861 -1986.836965 -1096.601854)
(66.12310029 -914.9497755 331.667971)
(1048.88178 1541.757331 352.8400414)
(-1045.652592 -1563.795673 -1564.079906)
(-406.4849289 -3714.447618 1978.062834)
(-2191.158352 2441.582901 124.1922151)
(-735.1566052 -449.8364988 -459.3876948)
(1788.232892 1182.272532 -78.32758523)
(-420.7822715 -1376.678459 -421.89282)
(820.4769185 -2457.458326 -872.4471113)
(-2273.559477 -1508.165222 -1055.318804)
(-125.873902 -364.6439955 -412.3159135)
(1845.302352 52.70433381 805.2075828)
(-619.4710799 1151.729555 -1105.078952)
(4786.480531 747.1156055 -1757.99422)
(157.7589465 -2507.634874 1067.99485)
(482.9484325 268.1644774 1282.624327)
(2405.92149 -1068.881029 497.8172708)
(-1728.93106 297.7017714 -1239.792651)
(260.8479924 1039.264785 2511.617897)
(-1000.034692 2232.577581 -612.3228716)
(664.9662099 853.3414327 -2444.498796)
(453.8584622 728.0795468 517.1384963)
(132.1161691 -1154.215096 -276.1073257)
(-1421.383088 -882.4689107 2041.991545)
(-1148.289696 879.9316669 -2007.433963)
(362.2931745 -1034.246229 -735.1882513)
(2706.782499 309.9602362 2710.43616)
(2571.993797 218.8681697 1026.110075)
(-1200.370347 -688.3855954 2185.550054)
(2032.417616 -849.9039712 2588.320914)
(269.0895327 1156.950767 44.28575877)
(972.2245601 158.4694647 899.4724666)
(1022.202764 -1546.001056 -358.2027461)
(-469.2342975 -377.7538162 -2404.521063)
(-1232.238938 -683.9609599 -1477.21259)
(-545.2996652 8.980748993 1706.751332)
(1069.853965 -359.7783791 1730.204154)
(1644.363594 87.37732282 -766.3685407)
(-789.1569092 1269.423442 -667.4571252)
(-3251.562927 368.7804547 861.7709806)
(2613.9143 -1022.292696 -248.3864453)
(-210.7354318 -148.6310589 -795.3156366)
(-1942.501251 1123.065358 -943.7068753)
(-2211.060894 2436.832598 -168.9441266)
(-1625.165917 -970.9881879 1141.634779)
(1024.901875 288.2736732 -546.0072796)
(-3301.357046 -1901.106698 2137.622479)
(-1510.100162 303.8528966 277.9588239)
(-5305.884788 1782.500312 286.8767245)
(469.8444754 -363.9965356 68.22909298)
(-1578.743956 608.6547508 1736.849725)
(-6.170263321 203.2533097 339.5294699)
(-296.1541134 -1673.572349 -2727.317136)
(455.2124029 -3042.799457 1945.434987)
(-1141.192874 -3575.493818 -334.1199885)
(-2010.254634 172.02989 -989.2324466)
(-2433.235646 2370.189086 -1198.174351)
(-1070.472896 -1908.902313 -2298.504095)
(-206.2883119 2999.253582 -1244.162866)
(1409.263408 387.1771975 -2625.706599)
(129.0701371 -203.9008898 -700.8228344)
(-189.068065 -595.4327261 535.2168887)
(1827.941364 1388.894499 -871.5985579)
(1122.475072 -1289.23223 -874.2576323)
(1466.915078 -2974.010964 694.4231442)
(711.6262737 303.7517026 1311.401699)
(-2335.783169 -1257.358009 1561.786482)
(1314.591698 896.0711257 1176.573528)
(-1982.879425 -845.9584159 1762.984302)
(-1398.115979 179.5160842 654.8033485)
(2063.171707 -1384.875336 -1754.489157)
(1663.66126 1538.471914 1775.390316)
(434.6880472 1428.806052 1252.473334)
(1129.021824 1744.107068 -473.6900158)
(1398.67064 -2478.121259 1509.269597)
(-3242.426024 2320.782893 27.02163646)
(-2677.149379 -2242.433807 2611.748021)
(-112.5198167 -624.4516004 735.8713763)
(-1422.398537 1357.991879 224.2887407)
(354.316119 -979.7383998 -2349.407016)
(1079.111657 -3090.859875 487.9679832)
(1625.048595 504.8682071 3.832011528)
(184.0164616 1298.116798 -1100.287223)
(637.9443403 -437.5923929 2063.325959)
(1425.533771 -697.6169634 1639.813236)
(3384.377026 -878.8689085 -257.7795375)
(350.798584 -273.3783454 1392.636313)
(-109.9230027 399.9670749 -3372.677176)
(2436.201925 2281.97872 2282.078755)
(-1320.511194 1949.323356 666.9816487)
(-19.72581423 112.13154 -151.8280324)
(-848.3681737 -2034.663861 601.8658544)
(-939.7177447 869.594056 40.97790628)
(-621.3350021 -501.4859945 -902.2570214)
(-239.4320316 -855.3045605 289.7330466)
(1562.829025 68.48759014 -1733.367945)
(-1557.591217 -422.2046351 -1689.087341)
(-313.87939 749.0781102 395.9777629)
(45.8183667 406.0661413 1073.214994)
(-96.67463473 -1841.481721 -647.8475452)
(-987.2320688 2329.220407 2393.365909)
(-1052.186966 98.58691267 2367.422372)
(-1494.62678 -1292.760811 902.0722201)
(2173.488091 -50.35750038 56.51158066)
(-1091.900565 -172.723042 -3434.300958)
(-307.4906196 -691.5774123 635.6601409)
(-1216.315845 -2162.591305 -944.2332173)
(1229.354748 331.6496869 -520.3286424)
(-415.6386378 940.2708364 414.339755)
(108.0383386 34.70917065 1746.648492)
(-946.2207763 -591.0783979 427.2369448)
(-2490.129987 4252.20139 690.6282786)
(1388.755062 -25.24174853 515.1266929)
(1768.031644 3020.298207 -979.721762)
(-123.5924783 -898.5026398 1203.636087)
(-388.2079298 -1660.78454 695.7785596)
(288.3497117 -2459.792213 1924.807974)
(627.1365247 -609.7267534 1591.174673)
(277.2010193 1037.000871 1666.136818)
(-979.1935984 -1833.854678 42.17596004)
(1678.921462 308.1945055 1437.984722)
(1960.432959 35.58257427 606.6081564)
(1620.332418 921.6151157 -1443.540161)
(1285.10672 987.2686876 -169.8696232)
(-492.0035625 990.8746642 1753.72454)
(-1789.936928 417.2423315 -779.7596981)
(30.216147 -2966.544062 -120.8513679)
(-1246.923193 689.4779943 -501.5261925)
(-903.7978383 -33.70915719 -1537.289917)
(-1554.802537 116.7646236 -111.3219261)
(-187.7713548 901.5239443 -1967.961871)
(235.8929807 2451.191542 -2189.182615)
(2256.423352 1827.61362 2242.929739)
(-2143.430954 3086.601635 -210.7283396)
(2732.295959 -164.5093063 1841.71874)
(-1804.621199 -1623.07884 -3536.300717)
(1595.07431 -2095.497371 -1734.353377)
(1515.536721 1788.115903 315.007388)
(2095.959372 -646.5491157 -3697.134592)
(1921.28349 -1052.829682 -1017.045533)
(-93.02597734 1380.125232 2129.020028)
(726.5609347 659.0542618 -354.7040556)
(1847.288666 336.6628956 933.6454809)
(614.5403471 -1019.231705 -3069.96186)
(1148.00643 -1908.945026 455.8711784)
(-1607.297902 1639.605126 1197.478741)
(-1534.737277 -1324.864275 1577.056205)
(-943.1010957 -300.8719845 2354.765739)
(-30.37766258 -1270.43561 1991.994262)
(-3120.312254 -1975.789556 -1042.97025)
(-1811.267343 2855.595527 2417.397965)
(56.50757113 563.8220493 3190.445244)
(275.1518201 -2095.686409 1424.957703)
(947.5344603 -1198.145046 24.7494583)
(1331.317567 -1385.364619 286.5727821)
(-1043.390417 436.742887 410.574429)
(1924.818637 -2128.637586 -192.3836202)
(1937.081731 1508.077283 1192.890461)
(622.7638723 -643.7781959 33.52723991)
(657.3264304 1791.081874 -639.0366814)
(1620.372346 2169.178806 -917.1890948)
(-980.7712396 1573.570987 2145.117412)
(-2443.542762 -2469.115422 -1341.164648)
(-1681.854401 -1024.641488 -1152.438836)
(1486.3768 -1607.147613 -388.7643479)
(400.2110418 -7.888794508 2488.725812)
(161.0181022 1147.555237 -1040.450589)
(-2906.806892 313.4794074 -2041.11282)
(1240.774737 -1465.304532 2248.280063)
(-642.8422616 581.3164474 -142.772491)
(714.4522695 -69.39159746 689.2988257)
(-1157.081139 -1991.468069 2216.218001)
(-1099.566792 -52.68488229 -1014.778793)
(-369.543409 926.2118227 -2107.280644)
(-842.8741755 -979.3439999 414.5013655)
(-721.6119042 -1534.960937 1221.323957)
(-678.3314479 -863.0884113 -2710.131311)
(-4286.04674 -2294.889495 314.7099693)
(658.7453048 887.2440591 -2509.603815)
(-2446.553736 -54.44651938 -1004.105194)
(-183.6479662 2206.140168 -940.4992191)
(1140.652891 -1273.627907 -448.675111)
(-525.5355207 -1626.656955 -1020.009868)
(617.1517691 1009.391054 2411.957098)
(937.4520686 981.9347062 674.3972837)
(-2544.899818 1043.105124 -235.5572501)
(385.596958 -482.7464934 747.8811214)
(31.49705397 -782.4588538 1569.454703)
(468.9505793 1196.982769 -1460.857586)
(-187.4231367 -596.4190733 2188.53824)
(663.1160994 -472.3491754 -1237.080873)
(-1421.545935 -630.6741486 118.5792762)
(-2878.876266 -2097.06359 1987.795603)
(81.76944742 -1172.723462 1149.798001)
(-205.0035201 1722.536009 619.2732718)
(-2185.060661 -1462.293927 1134.821287)
(-128.0799898 75.91852015 -1523.063487)
(-2238.870957 1322.115534 2437.298219)
(1605.745884 1839.825543 368.2888091)
(2404.206687 1524.949493 -3530.715674)
(3120.284373 -1882.166372 1138.595181)
(1440.789167 1463.709336 755.3114416)
(1247.088622 -2464.745907 -2127.915772)
(1960.86736 3418.058534 -3532.986211)
(-1597.058994 284.7579543 -1258.600609)
(3191.048739 1869.546022 -130.9071249)
(-630.0200315 -1188.277349 -1266.28554)
(-1359.501919 -268.3500757 -2069.997856)
(-1188.325991 -58.94650975 2525.895875)
(-954.638664 -401.1852642 -271.1039461)
(-206.8282626 1442.204992 -1132.882809)
(315.3934152 479.0398246 579.5817374)
(-1202.810994 197.6055629 1226.631315)
(2651.851856 -112.3932038 2293.835691)
(5.883499952 1182.09438 1582.199428)
(2587.941243 506.1295009 -115.085523)
(776.5947401 2206.8362 1515.77926)
(2165.328721 2060.998781 192.6365465)
(-674.9608719 499.4356502 -2141.751743)
(577.2568574 532.0682073 1184.832211)
(-487.8358544 1687.673246 568.7619189)
(2204.527824 -1281.34258 1311.802757)
(2459.829854 -2076.834726 -7.598023347)
(24.12827341 -990.9244497 2872.506804)
(76.643648 779.4465544 28.88518866)
(-312.8759403 -1535.209619 1074.264584)
(3248.450768 485.4751561 415.1396036)
(-145.2972442 -664.7100066 2272.634909)
(573.2404792 -24.81234891 759.6768475)
(208.8979593 442.7918205 1824.405971)
(-338.3683495 -1913.707376 -983.8577847)
(-1717.167244 -2649.376232 -950.1101014)
(-2807.713971 -311.5543967 -3220.037747)
(-788.8997018 -1224.129231 -49.31145649)
(1795.497158 1438.093708 1268.114317)
(-947.6333205 2394.100521 438.1792956)
(1481.760713 288.635655 42.72980861)
(325.3174717 -1105.577023 -1443.611514)
(-2085.270787 1780.422382 -2262.319523)
(1522.546407 160.548461 2694.600106)
(-1190.610059 -33.18027807 -1324.935851)
(-2590.61263 3909.119069 160.6935961)
(-1210.155791 255.1654361 -292.0938934)
(-682.1677268 1236.232546 -1182.778188)
(-664.7338524 -2659.651757 1213.561021)
(-1365.361273 3109.51425 -2768.319581)
(812.7783368 35.04331696 -2125.28316)
(-2445.976261 50.09663315 1366.002415)
(-2451.114225 1269.569401 -1424.235452)
(1680.74778 -1804.654937 -510.5660088)
(3973.51708 122.3844677 191.3113702)
(2281.810901 -1107.793313 -2312.599396)
(1047.940349 -16.96020609 29.17518616)
(-841.6831461 -543.9537559 -4041.939403)
(228.8991163 1719.971643 1726.054115)
(-1415.020942 1340.610537 896.3804962)
(-1643.483926 -2392.092378 -79.86808982)
(1426.414716 334.9157055 528.5265519)
(1005.551165 -1521.962766 -242.9083911)
(-1158.765253 -1182.701414 -3443.068864)
(-2000.502412 2159.140546 -207.7360228)
(-68.38668986 -572.0068971 -1325.627542)
(-210.4512167 2014.064225 -653.3947542)
(-1507.531428 -1116.669637 -371.7912129)
(-2052.7259 -333.1714904 -1404.160043)
(-3133.957093 198.1605197 471.3153988)
(23.02378732 360.6909983 -126.5684069)
(2432.281991 -116.3258585 833.3506492)
(3345.33034 2948.344343 -12.26344071)
(-685.5870289 463.1518109 -530.2729833)
(-133.5524593 608.775953 -432.484676)
(-2003.455023 1315.719565 -957.0461575)
(-727.0814789 -541.5740562 2503.504373)
(494.0083251 2467.60676 959.4876817)
(-600.6828405 -302.2274497 -1230.202989)
(737.4788884 -559.6406188 -2265.88535)
(1687.424574 -2645.947603 -738.9427419)
(-3203.940251 -2238.668739 -1166.996057)
(424.2928643 1040.375174 -897.4102733)
(-543.1608369 -1036.764588 -143.6824948)
(766.7274944 830.4461886 33.00811646)
(-535.2790668 -311.3831317 2243.581856)
(-921.4063901 -3509.090851 -1093.147828)
(-1346.848383 778.4198074 369.4879874)
(1679.661272 -329.0733023 203.7528736)
(149.4105536 -272.3360181 1384.987699)
(380.9244586 -75.07937119 -918.1797863)
(-476.6813852 1406.810392 -2416.173972)
(1579.765891 763.9803586 70.32320962)
(-304.9370637 298.1085695 -1956.267515)
(-2604.502682 -2548.974576 -2404.953786)
(-3131.79 -402.412942 -1167.542044)
(-3581.845517 -343.6004962 -406.6632376)
(-107.306526 -2168.763384 716.4521581)
(807.4429165 -455.7759802 -1505.582543)
(-165.0316357 1595.003656 3798.982104)
(-1155.087086 1904.367838 -1636.995414)
(-876.4090756 1258.679954 752.3842051)
(1344.098263 1317.125342 298.3447475)
(1934.750296 -1075.897708 -1781.614107)
(-718.2789734 -153.3635227 1463.850535)
(-1354.641565 1342.5256 688.5516212)
(-768.9166049 -986.2873111 894.1905022)
(-1805.178364 -288.4395341 -1451.629661)
(-3164.011978 1486.092898 1001.207342)
(-1772.871452 2081.573601 -696.1560166)
(-244.2460801 475.0976726 -745.6721735)
(902.6240323 -811.3312177 -291.0555066)
(2870.564566 -2509.50565 -1343.498712)
(-244.7740076 2356.483062 1241.326378)
(-2279.662799 -940.8848943 -816.2278562)
(-1344.780147 -1382.922537 -3105.529817)
(-370.8506595 -442.1995764 2387.572029)
(2750.857694 1044.315435 -136.5975729)
(1616.071954 989.9930418 779.8633491)
(959.8996777 1574.881404 -199.2651382)
(-1030.959386 406.996746 868.0395832)
(2283.895981 706.4830364 589.6923745)
(327.1304343 -3147.695665 -27.62831605)
(818.259844 -1419.227554 2349.492567)
(212.5595824 1033.371219 921.4390816)
(-947.7708956 107.1701343 -2299.829182)
(482.9120987 1479.074213 -288.1410934)
(1908.396618 -1257.911382 -3269.356847)
(1468.352112 -1715.186841 1044.156638)
(-2723.293553 -2819.969095 -583.2106136)
(-3210.765966 -1293.223229 -164.3449736)
(31.60972875 -372.2264183 -1337.671777)
(2356.999594 1983.936082 -40.49226212)
(1010.923253 -2264.712502 -1283.596722)
(927.3640396 1683.258028 1915.574251)
(113.5852808 -2124.367574 936.4333788)
(1066.823461 -322.0819536 -119.3432367)
(-1888.643157 212.3044393 1715.993128)
(-2451.595542 -1127.140792 355.1914999)
(4664.748949 -2425.811569 -578.7595745)
(1095.466129 -1077.264468 1024.654472)
(-1987.135749 412.7837487 -4150.990639)
(-2105.719766 -2473.414657 -3078.186579)
(109.0582259 -1827.138197 1156.469517)
(-2717.063881 605.2534925 3657.414525)
(1229.653211 1366.670096 -1305.41752)
(592.1908943 489.4399268 1575.434645)
(145.5035255 955.8951447 154.0828669)
(-1887.652043 862.9219694 2280.634191)
(4289.838608 -706.9117053 -2545.09279)
(-152.4053887 146.7793803 -1962.894462)
(-1556.195045 -3074.445805 -1391.128876)
(-1426.270452 -350.171375 -292.1736015)
(1038.894758 1380.206887 1166.792825)
(-1353.779719 3317.159764 -1099.762443)
(-1391.992728 2639.686749 3306.051005)
(-1437.148655 -3785.680014 1028.187065)
(717.8557238 2092.401269 -8.240198172)
(1977.218612 -1027.045913 1689.746395)
(-191.0409505 -2104.712499 -1018.076524)
(1947.520162 2837.852107 -87.27409211)
(-932.8202053 -2812.643179 -804.9543374)
(-686.6945648 595.3950015 -1055.784559)
(1307.288269 504.1627246 -117.4385168)
(891.7963563 2984.382312 390.5852214)
(115.2770259 670.0015648 -710.8145389)
(2237.777232 -1801.138473 -239.3393162)
(-2897.401971 2732.881811 -41.44788951)
(-1688.03651 -3134.324918 -2571.780989)
(783.9584667 336.6661349 321.6939005)
(619.0848226 -1020.065892 393.9153419)
(-107.1460344 -1295.781032 -421.5772413)
(1337.314381 2298.797104 -778.60018)
(2213.113964 851.2138179 786.5368076)
(1141.873299 1216.725946 1291.677818)
(889.9576482 -2782.857209 219.3324723)
(1855.91731 606.9297114 864.5129772)
(1490.636477 2660.642577 1864.001643)
(146.0622936 347.5355684 2427.361082)
(-1775.422049 -330.257476 842.7506405)
(455.6778961 -3078.184287 1937.09448)
(-139.3623033 275.1536189 -1142.524649)
(-1940.965373 -645.8613029 1403.004686)
(13.74292721 851.7514827 -1271.912364)
(3541.263305 -995.1312988 -3629.127341)
(-806.0882098 -301.6684043 -466.7291494)
(-2054.149258 120.3907559 573.3302134)
(-565.1192778 -3141.340611 -1128.654438)
(891.2571059 -1529.829499 494.6307253)
(-351.6095157 1193.170604 804.9442402)
(-2557.024062 -570.3256149 -949.4976502)
(-790.4528536 -1761.00779 -1893.387594)
(-514.899578 376.7344305 -1434.579129)
(3162.949978 -871.3132702 311.2864085)
(-1010.668324 -2510.842537 -286.0900948)
(-539.6968876 -156.4498922 2128.297555)
(-208.7918981 -2959.847759 -288.990157)
(467.4564588 -52.39278079 -906.488365)
(467.8656929 -146.6462162 -3191.646916)
(-158.2947959 3407.503405 -615.3856945)
(-1078.921155 1831.294672 2832.20582)
(-146.5291438 -1796.218944 -1351.435217)
(-235.873989 -979.8192523 -4297.548986)
(-2130.046593 -1156.016603 450.054689)
(820.2493189 1063.871436 -1000.549607)
(-159.6872472 -3340.889742 9.75589698)
(532.8187366 -2.054158298 -1318.141113)
(1430.642966 -987.5385599 2152.264748)
(1900.792575 1341.440126 186.7653847)
(249.3149985 614.5860512 535.4454776)
(941.995956 -1948.334376 2210.41167)
(576.229356 1356.153597 -1051.218478)
(219.1055094 1085.56263 661.8719658)
(896.6865146 766.6088239 3594.078513)
(941.3455106 972.3087826 -422.0977995)
(-3921.623539 400.7798911 -1418.955484)
(866.365502 -239.7249199 185.1189114)
(-321.7724268 -890.121899 1852.844187)
(-528.4476185 -251.0599407 -743.4641707)
(3314.643391 -120.2108079 -457.9797592)
(1482.886565 1013.323485 237.9763264)
(-110.227902 -450.029144 -560.3181709)
(-143.1090077 -1447.716528 1906.656793)
(-549.5284615 -730.7732728 -1861.110734)
(1810.252327 -366.6542131 1557.041525)
(-356.6714988 13.55012208 -865.916165)
(-2993.832173 -2924.815294 165.0765057)
(1999.058658 -265.1472038 -901.4512606)
(851.9116079 -2221.290102 815.3853435)
(-46.39395674 -2682.362612 -2056.539968)
(-200.6305886 1631.967172 -1435.778857)
(-1836.007889 1746.508967 -3467.481615)
(-1970.601205 -2113.486695 -499.6580213)
(1412.557525 231.7301981 -347.6522815)
(-607.5562121 -706.0703275 -1069.789394)
(850.6959659 -325.6665911 -360.3890527)
(-1.911619817 -1579.525911 -1394.765419)
(-147.5057909 -1126.686828 -1405.246251)
(-2210.390601 -1513.130786 2386.208544)
(-701.7472073 -1504.981598 -2121.141428)
(1709.716086 -755.6502778 141.0426644)
(-993.2077521 1220.612525 920.1044247)
(373.8088286 -1741.791229 802.0310421)
(3303.230756 -775.8522913 -1969.308656)
(1964.167937 3093.292269 1817.009361)
(1350.549589 1388.850821 -490.1990257)
(420.1485178 214.5020607 572.5761132)
(-2230.6138 -3151.165986 -3291.37912)
(263.1826607 173.2764159 -175.3903607)
(-1130.474123 -9.998639665 -912.8795402)
(1329.929352 962.204922 -3003.15747)
(-632.6669915 -786.3446332 -443.2734606)
(-152.8046677 2829.565712 929.3173574)
(-1700.569378 1631.912853 -425.3108409)
(273.8229368 -585.8569451 -1424.782175)
(-2374.747768 -1685.290836 -1777.17133)
(1195.325514 -702.3365013 -985.0444519)
(-1782.58197 1294.902053 -95.09036584)
(-424.254895 1014.706585 904.7995279)
(-658.377177 1587.599972 2150.918737)
(-1075.148572 1931.584395 1789.080566)
(-3312.751498 1418.373634 -678.8295731)
(-3479.429913 -808.4424391 -499.5359836)
(2171.342304 1757.975037 -956.1793366)
(-1060.381629 -1432.522849 617.5777151)
(885.8369938 -956.6550098 -1994.377763)
(-617.5853609 1355.062641 -1425.840109)
(-2394.018256 172.2995103 -1813.205516)
(400.9289527 2733.546105 425.4165197)
(-290.9439743 3352.215889 -3483.936556)
(-413.1651001 -3995.523923 -2164.60791)
(-61.78114306 1577.561021 1808.976718)
(424.6514018 916.9908308 -552.2365411)
(1216.055456 -786.6849001 1249.711716)
(-933.3759386 793.3681861 -140.8539807)
(1206.334051 -738.5353232 -17.11176552)
(1560.414673 -2222.60434 -211.6815636)
(-1525.068362 421.3743607 1737.899728)
(-2063.744482 234.1764508 1251.798619)
(-1795.349045 1383.910005 -1117.921554)
(1950.156644 -29.95630848 1424.481653)
(76.71511532 -984.7724075 -1361.736551)
(297.5132238 -600.3939118 78.1358727)
(-3552.661023 -1890.69909 -976.4744088)
(754.8759776 -220.8814347 -704.8749073)
(-1081.472544 1759.903334 144.8279921)
(-59.45072435 -1280.295355 437.8671492)
(-3762.605398 279.275417 727.6607088)
(-11.48160165 -155.6933503 -1233.081381)
(1383.891303 -24.49374022 3010.48707)
(-192.5814464 1106.077134 -817.1318692)
(1020.736239 2124.888869 215.3337072)
(-1281.770969 1290.620321 -683.2327723)
(810.0025383 356.2664992 -114.3495925)
(290.7831339 1623.984776 1008.16724)
(80.14643463 52.38322205 -1990.263135)
(339.4293147 -118.6728626 1165.682087)
(-947.8239608 2012.125045 -4821.609769)
(-193.5880862 755.2727494 -1114.944872)
(305.7194305 -2877.475453 1051.072119)
(2966.590896 1294.380059 -15.74293246)
(1741.939526 -1868.075564 -1719.975921)
(-1347.038063 -1340.926219 -1700.381205)
(-701.6128055 2106.829035 2118.145669)
(-36.18998711 986.5569862 -3333.390766)
(1966.840422 1224.460916 -476.1782633)
(-712.5332105 2111.125224 650.7429401)
(-853.0372655 513.6077475 -1405.247727)
(-62.11833221 1373.419623 -17.07729261)
(1362.677235 1275.314011 -2056.418347)
(1834.21561 1427.283079 207.4941067)
(-996.7304579 2278.154329 -2345.050843)
(1813.273276 1741.683198 -1119.144036)
(793.0833351 262.9488461 -1095.445169)
(76.35649414 -325.8511361 -3969.831234)
(1484.177114 2679.842474 -165.68128)
(1842.615434 1595.111114 -3399.931322)
(-1690.445329 -1096.494506 -353.5511174)
(-2031.032211 1314.417339 -929.9208291)
(301.3274966 -1175.750318 -1141.775673)
(-1675.566744 -396.7999364 -1372.420329)
(1372.325333 -727.9815377 -503.9383108)
(714.7192565 -628.3823552 -1839.582272)
(-978.3210474 1259.996572 2639.593859)
(-1127.028737 1396.3353 -1436.681913)
(-609.6743769 -505.5765352 2324.880316)
(-259.894627 -1166.135113 2176.930106)
(-572.4453437 670.9777637 667.2120391)
(-3791.892331 339.7381807 -34.66987637)
(-392.6051489 -2075.758728 585.7613029)
(-1632.428163 2378.311341 -2149.744985)
(-2044.624461 2122.525084 -388.1250274)
(-682.9871847 -2.714478008 -2764.723508)
(-1612.429078 440.3584936 1085.764194)
(3589.097559 -40.59730257 289.5099127)
(152.3978678 383.2190977 461.1776221)
(-2312.912126 -5095.799465 -142.3112694)
(-1839.989228 2921.644939 189.7562793)
(-2440.260382 2521.454158 2323.013343)
(-124.6407872 215.8306611 1394.625685)
(2009.99722 1281.028988 -748.508952)
(-2438.952899 -1573.857078 859.1363806)
(844.9249069 -1457.663286 -361.584923)
(-134.126133 2238.912568 1907.065016)
(-2664.177584 -821.2552002 -1139.33471)
(1127.162628 1483.46828 282.9429102)
(1986.678199 1591.284971 2618.444776)
(499.4609848 1177.133681 1457.413733)
(-1564.304377 1095.19434 921.8723385)
(-656.6441521 2104.398491 2172.95586)
(563.2168925 -2547.391662 1067.838709)
(-4051.150485 -688.9236497 -2754.634281)
(1469.611852 -667.3920027 -1111.235084)
(1077.300745 1013.576052 -136.3636233)
(-2167.514245 -472.8176412 1191.572308)
(-18.19446994 698.1836218 -1149.721814)
(2171.631489 2122.046993 -586.125714)
(-478.0103949 -220.8060008 -1775.791071)
(-1150.913022 -958.636417 -1315.474458)
(-941.1552656 1145.253377 -1292.163436)
(-1821.244449 -743.092399 -131.8017565)
(3995.655919 294.1725616 738.1533766)
(0.3884189849 1419.013888 3293.434742)
(-176.7054382 1354.578044 374.4601213)
(-460.3475597 503.9506314 -1337.720513)