# Probe 0 (5e-06 5e-06 5e-06)
#           Probe                 0
#            Time
            1e-07       299.2323523
            2e-07       299.2235549
            3e-07       299.2320473
            4e-07       299.2294778
            5e-07       299.2314337
            6e-07       299.2314245
            7e-07       299.2321539
            8e-07       299.2291059
            9e-07       299.2307815
            1e-06       299.2329937
          1.1e-06       299.2291735
          1.2e-06       299.2322236
          1.3e-06       299.2329793
          1.4e-06       299.2295558
          1.5e-06       299.2327371
          1.6e-06       299.2331848
          1.7e-06       299.2326727
          1.8e-06       299.2334341
          1.9e-06       299.2324249
            2e-06       299.2279205
          2.1e-06       299.2322925
          2.2e-06       299.2327004
          2.3e-06       299.2311046
          2.4e-06       299.2330066
          2.5e-06       299.2308174
          2.6e-06       299.2325833
          2.7e-06       299.2268428
          2.8e-06       299.2310851
          2.9e-06       299.2318438
            3e-06       299.2304983
          3.1e-06       299.2314823
          3.2e-06       299.2317387
          3.3e-06       299.2299292
          3.4e-06       299.2323166
          3.5e-06       299.2331487
          3.6e-06        299.232401
          3.7e-06       299.2314481
          3.8e-06       299.2277949
          3.9e-06       299.2319567
            4e-06       299.2330026
          4.1e-06         299.22852
          4.2e-06       299.2320688
          4.3e-06       299.2318246
          4.4e-06       299.2329656
          4.5e-06       299.2328212
          4.6e-06       299.2235593
          4.7e-06       299.2329864
          4.8e-06       299.2311502
          4.9e-06       299.2298066
            5e-06       299.2305275
