# Probe 0 (5e-06 5e-06 5e-06)
#           Probe                 0
#            Time
            1e-07        9.9998e+21
            2e-07        9.9998e+21
            3e-07        9.9998e+21
            4e-07        9.9998e+21
            5e-07        9.9998e+21
            6e-07        9.9998e+21
            7e-07        9.9998e+21
            8e-07        9.9998e+21
            9e-07        9.9998e+21
            1e-06        9.9998e+21
          1.1e-06        9.9998e+21
          1.2e-06        9.9998e+21
          1.3e-06        9.9998e+21
          1.4e-06        9.9998e+21
          1.5e-06        9.9998e+21
          1.6e-06        9.9998e+21
          1.7e-06        9.9998e+21
          1.8e-06        9.9998e+21
          1.9e-06        9.9998e+21
            2e-06        9.9998e+21
          2.1e-06        9.9998e+21
          2.2e-06        9.9998e+21
          2.3e-06        9.9998e+21
          2.4e-06        9.9998e+21
          2.5e-06        9.9998e+21
          2.6e-06        9.9998e+21
          2.7e-06        9.9998e+21
          2.8e-06        9.9998e+21
          2.9e-06        9.9998e+21
            3e-06        9.9998e+21
          3.1e-06        9.9998e+21
          3.2e-06        9.9998e+21
          3.3e-06        9.9998e+21
          3.4e-06        9.9998e+21
          3.5e-06        9.9998e+21
          3.6e-06        9.9998e+21
          3.7e-06        9.9998e+21
          3.8e-06        9.9998e+21
          3.9e-06        9.9998e+21
            4e-06        9.9998e+21
          4.1e-06        9.9998e+21
          4.2e-06        9.9998e+21
          4.3e-06        9.9998e+21
          4.4e-06        9.9998e+21
          4.5e-06        9.9998e+21
          4.6e-06        9.9998e+21
          4.7e-06        9.9998e+21
          4.8e-06        9.9998e+21
          4.9e-06        9.9998e+21
            5e-06        9.9998e+21
