/*--------------------------------*- C++ -*----------------------------------*\
| =========                 |                                                 |
| \\      /  F ield         | OpenFOAM: The Open Source CFD Toolbox           |
|  \\    /   O peration     | Version:  v1706                                 |
|   \\  /    A nd           | Web:      www.OpenFOAM.com                      |
|    \\/     M anipulation  |                                                 |
\*---------------------------------------------------------------------------*/
FoamFile
{
    version     2.0;
    format      ascii;
    class       volScalarField;
    location    "0.28";
    object      mctTimeStepRatio_Ar;
}
// * * * * * * * * * * * * * * * * * * * * * * * * * * * * * * * * * * * * * //

dimensions      [0 0 0 0 0 0 0];


internalField   nonuniform List<scalar> 
1000
(
2.502785454
2.505042431
2.500749759
2.50228098
2.497426265
2.498254782
2.500254261
2.497481413
2.500006793
2.497001959
2.492588729
2.495016372
2.496280253
2.499786711
2.498188323
2.490388164
2.496564229
2.497190207
2.498536608
2.498035981
2.495512194
2.495950601
2.498248655
2.498882719
2.499239573
2.500398724
2.501119617
2.497270599
2.49496689
2.497202323
2.501994022
2.498122103
2.497092145
2.495018433
2.497168234
2.499563664
2.495958893
2.50166725
2.498438027
2.500726669
2.498267043
2.497626473
2.500817381
2.498760548
2.500493719
2.499618694
2.498690908
2.500818201
2.500457319
2.4976875
2.501304862
2.500916487
2.503360802
2.499381364
2.498253813
2.498262191
2.501865041
2.503583092
2.504571065
2.505867744
2.502748401
2.501588451
2.505569256
2.499132205
2.504847951
2.502199485
2.496284217
2.498814084
2.503903422
2.50444319
2.503065824
2.505486085
2.504807352
2.505612368
2.510374946
2.508727096
2.503768854
2.498087625
2.505556415
2.505241852
2.502603405
2.502365713
2.501632927
2.506003032
2.508977235
2.505087132
2.503658243
2.50303672
2.507812605
2.506067042
2.505527334
2.505027624
2.501464047
2.501834308
2.510938244
2.510112086
2.50518309
2.508111397
2.509830072
2.504748081
2.50536136
2.50450832
2.506349263
2.507425704
2.501693876
2.50494691
2.50648574
2.505208372
2.507521208
2.505045494
2.500046746
2.499834186
2.501719212
2.500259036
2.502623677
2.50728526
2.506925375
2.500932976
2.504175467
2.506209792
2.50746667
2.505369572
2.503563866
2.500212193
2.503003128
2.503364578
2.506850881
2.507043701
2.507234316
2.504330025
2.505127242
2.505157626
2.506547473
2.505836434
2.505322042
2.508442552
2.509597088
2.499143106
2.50495516
2.506415624
2.500697867
2.501312733
2.502834823
2.503042767
2.504540432
2.502830488
2.50293534
2.5023112
2.503818113
2.503447675
2.504753567
2.503591454
2.505251508
2.502543265
2.501447928
2.498844055
2.505689514
2.506920818
2.507796802
2.501050616
2.50011835
2.495640235
2.50497722
2.504056924
2.499596665
2.499530813
2.499654952
2.499079775
2.501229801
2.506132238
2.502056159
2.504003249
2.503052564
2.50050343
2.509492029
2.500471397
2.49790756
2.501784815
2.501705505
2.505594514
2.501543884
2.497847409
2.500044241
2.498665771
2.501242388
2.499009893
2.499495108
2.49914351
2.500808179
2.501647849
2.496541097
2.493846195
2.499141159
2.497578479
2.505275496
2.497739255
2.497741323
2.4981445
2.49586236
2.50220262
2.496546961
2.500277086
2.500686458
2.49968118
2.496662018
2.498733406
2.499919972
2.496490187
2.497267229
2.497635646
2.496825581
2.495388444
2.494157758
2.503229724
2.496706677
2.498891308
2.498857088
2.497245172
2.494825498
2.493809751
2.49929405
2.504734448
2.498837403
2.501242595
2.501327835
2.504452783
2.49521205
2.494557887
2.494332123
2.494163676
2.497068784
2.491809227
2.496553595
2.493102506
2.500571072
2.499908409
2.498052252
2.499567243
2.503180623
2.499508235
2.49886083
2.497662707
2.499327133
2.499375222
2.501886373
2.501515605
2.501648548
2.500947916
2.500215888
2.503196343
2.500935413
2.498322283
2.497744173
2.499637244
2.500818019
2.496653189
2.498579482
2.503025259
2.506183505
2.506060403
2.50865869
2.506297908
2.505455222
2.502610842
2.501768457
2.506172678
2.502131868
2.501454969
2.503709811
2.505048369
2.507338232
2.5055417
2.504007715
2.505029525
2.504289847
2.503281658
2.502631812
2.501220276
2.503168817
2.503727247
2.503837859
2.503942765
2.50245053
2.503898347
2.50877339
2.507761483
2.505544301
2.50571111
2.503696709
2.504156167
2.5042052
2.504878143
2.503664609
2.510456006
2.50683099
2.504753129
2.50718109
2.506243724
2.507798321
2.506632999
2.504237228
2.507678791
2.507877883
2.505373995
2.507074106
2.50601497
2.509474665
2.507624216
2.50242086
2.501300784
2.503849885
2.502726047
2.504852072
2.50366724
2.507521566
2.507998383
2.506343523
2.501288558
2.504718694
2.504279912
2.505222374
2.506127445
2.505993729
2.505501501
2.503662569
2.506100588
2.504710549
2.503595328
2.508129833
2.503957857
2.503360755
2.503270855
2.505403623
2.504972834
2.504549466
2.506080505
2.502518315
2.502430793
2.50573215
2.50461573
2.502048176
2.499857088
2.502629104
2.507476409
2.505092429
2.505723919
2.501160334
2.503847857
2.503477639
2.505436195
2.500432297
2.502100466
2.499463218
2.502205424
2.500727744
2.501711455
2.505689033
2.507440715
2.499805828
2.501926127
2.498231299
2.501441883
2.501714967
2.504451564
2.501993424
2.503208424
2.502201688
2.499568002
2.502795177
2.497718767
2.502483435
2.499550706
2.499318031
2.502367753
2.501315903
2.498932784
2.499962619
2.498706473
2.499748715
2.502824268
2.499354411
2.500105806
2.503232814
2.49742162
2.49525246
2.501195848
2.499520945
2.501615399
2.499878545
2.50285275
2.497664751
2.499091501
2.497451907
2.498441311
2.503007089
2.503287544
2.502178541
2.502918958
2.500208833
2.498202008
2.499671625
2.497864691
2.499348094
2.50145972
2.500601639
2.504855414
2.502671704
2.500785213
2.498639032
2.497754525
2.49115306
2.492873163
2.492652708
2.495492035
2.498151874
2.49678401
2.496945468
2.494578719
2.49463432
2.498809147
2.500864004
2.502006644
2.497140156
2.500587521
2.497384698
2.496077208
2.497829865
2.495247705
2.504156456
2.49787809
2.495347768
2.496889599
2.496822744
2.499189961
2.497865374
2.494949702
2.500453212
2.500889112
2.499363445
2.494019386
2.501069406
2.501778047
2.500731974
2.497491398
2.500640326
2.500220782
2.502675847
2.49937775
2.497357754
2.501074853
2.499871096
2.499729546
2.499023267
2.495059072
2.496464323
2.499926217
2.495670996
2.502258717
2.503843436
2.504745454
2.500121894
2.504011887
2.505590614
2.503222054
2.504743054
2.502602219
2.503904413
2.500148387
2.504668054
2.499802982
2.506602112
2.506396352
2.507041429
2.507158354
2.504917608
2.502982246
2.504650775
2.50640793
2.500347027
2.506952581
2.502528714
2.501421114
2.503668001
2.505763148
2.504470105
2.503832633
2.508673608
2.508431437
2.502387054
2.506304187
2.504871478
2.508174319
2.506440844
2.506948578
2.508385475
2.501766506
2.506179635
2.503879673
2.508060497
2.507524161
2.504570524
2.50508637
2.506268686
2.509507308
2.509141942
2.50216135
2.500052339
2.504924661
2.503301727
2.502122568
2.505407888
2.502867085
2.504721874
2.504070919
2.505161208
2.505390904
2.506358136
2.502505551
2.50724192
2.504212729
2.506850213
2.507529275
2.504274385
2.503129163
2.501402602
2.502604898
2.501169699
2.504254589
2.506982361
2.500848386
2.50332464
2.503232474
2.502238354
2.503053982
2.502449665
2.505775922
2.501081747
2.500804368
2.503535529
2.502895812
2.502487565
2.500256858
2.5007894
2.499426391
2.501541178
2.497482205
2.502723799
2.505652226
2.504366892
2.507763289
2.500885222
2.501166634
2.499318806
2.500557868
2.502312173
2.503401087
2.50299596
2.503526532
2.500528572
2.501066583
2.499927228
2.499352789
2.506051193
2.499113621
2.502691995
2.502739427
2.503196687
2.504515579
2.500347071
2.498516818
2.499340212
2.50164431
2.500654314
2.50052867
2.505101519
2.503356437
2.506674577
2.502067091
2.503237334
2.49886371
2.500242312
2.501102901
2.500423908
2.500865036
2.502636329
2.497329918
2.506629689
2.503175068
2.499531935
2.501034314
2.499235197
2.501345454
2.500947104
2.503715765
2.497876461
2.497472174
2.499142252
2.504548648
2.500243843
2.494716611
2.503997812
2.502236129
2.499358044
2.499663478
2.500055731
2.500903734
2.502408665
2.498962378
2.498548011
2.495783705
2.494940946
2.496397697
2.496261803
2.497444945
2.498686333
2.499431006
2.497607261
2.501683196
2.494962125
2.496347978
2.502268558
2.495823431
2.500812921
2.500377176
2.494814518
2.496816334
2.496191602
2.497850369
2.498354218
2.494793711
2.5005191
2.498554075
2.499826816
2.496427966
2.496024728
2.498532362
2.501115223
2.501193754
2.497321679
2.499353553
2.498749613
2.500954595
2.502960465
2.504193814
2.501063059
2.501308701
2.5030311
2.499853636
2.496315337
2.495417649
2.503015941
2.502239692
2.498107187
2.490459801
2.501701922
2.50718262
2.499706174
2.499017769
2.505819814
2.504591822
2.500109328
2.500545972
2.505837687
2.505560386
2.501221251
2.503788494
2.50475747
2.499195566
2.502002078
2.501681185
2.508848123
2.503107287
2.506022083
2.504528519
2.504156093
2.502139892
2.504690584
2.503059631
2.498598831
2.50097951
2.501986398
2.50786873
2.505853941
2.506059995
2.502553267
2.509177799
2.505807574
2.507748867
2.504612488
2.505778946
2.509105132
2.508268292
2.506309879
2.507631167
2.508151523
2.509132132
2.506405958
2.506199928
2.507246625
2.504185769
2.508403711
2.50593229
2.504384672
2.508311428
2.502620194
2.505192469
2.503694438
2.507168026
2.505220472
2.504958171
2.503618609
2.502189658
2.506580813
2.504339118
2.498961827
2.502754721
2.502412364
2.504863325
2.503113246
2.503455134
2.506531448
2.506353524
2.507663361
2.503243073
2.504209976
2.504518362
2.501467392
2.505163298
2.507804296
2.503253355
2.50550896
2.499553867
2.501761581
2.503683876
2.501307267
2.498478436
2.501428811
2.50104854
2.500112899
2.502467492
2.504194306
2.499953943
2.499714979
2.502138472
2.500308951
2.500010017
2.506797192
2.503394677
2.502779324
2.503751612
2.501610138
2.500969891
2.500435583
2.500635665
2.503976516
2.509959242
2.502560692
2.5022977
2.501297378
2.497772303
2.49711204
2.504047785
2.500920821
2.50299652
2.503637578
2.503780653
2.5009716
2.501217709
2.501114549
2.497476763
2.493620888
2.499182297
2.501174707
2.500970488
2.499012034
2.504596529
2.503656591
2.503537015
2.503071991
2.50426338
2.499711576
2.500116914
2.501926862
2.500882007
2.505209749
2.498996859
2.496938955
2.496980575
2.499704323
2.498636286
2.49732782
2.502678259
2.501320491
2.499243765
2.498166749
2.495627375
2.497236777
2.498761827
2.501268828
2.499799932
2.499144208
2.502035441
2.503233575
2.497737206
2.499346567
2.495562098
2.500716178
2.502788018
2.503661624
2.499420392
2.499260883
2.497315984
2.496016696
2.493726439
2.500335111
2.497277811
2.494956545
2.499636615
2.495480437
2.498075203
2.498910707
2.500826458
2.503107906
2.500903604
2.497804372
2.496206831
2.495948745
2.496753938
2.496565514
2.493738136
2.499171091
2.496543413
2.498278572
2.501199849
2.496110646
2.500347685
2.498302448
2.501563726
2.501788908
2.504968321
2.502489411
2.500846502
2.501950245
2.496945205
2.501589003
2.499112878
2.504032142
2.502465376
2.497813541
2.501428755
2.500534797
2.503568656
2.500721066
2.500397807
2.497098
2.504376727
2.500382041
2.499899307
2.500970893
2.50285407
2.504311722
2.504637233
2.504189332
2.507073764
2.501218907
2.506730968
2.506443281
2.502440791
2.501620411
2.502160422
2.501459646
2.506091092
2.504429565
2.505446913
2.503444509
2.505410055
2.502375473
2.504833995
2.50441377
2.498593234
2.501451023
2.505386077
2.504536957
2.498262249
2.502327771
2.508159183
2.509341806
2.505233283
2.504036286
2.509285113
2.504170983
2.506006992
2.507210836
2.506259419
2.505780319
2.504507422
2.507367221
2.506384378
2.510489001
2.506465557
2.509910179
2.506811644
2.507400979
2.507526574
2.500671475
2.506278306
2.503435496
2.504286622
2.507685521
2.502596973
2.503030021
2.503605294
2.507299481
2.504726742
2.507124736
2.504415562
2.505141323
2.498239419
2.501400585
2.500969722
2.501389668
2.505577759
2.507436571
2.504371153
2.507684501
2.506422802
2.506995429
2.509163399
2.508514039
2.507198959
2.501577325
2.500936341
2.501924138
2.506424823
2.502949316
2.502901512
2.499761398
2.499698707
2.504213422
2.499506376
2.50380306
2.503567322
2.504226896
2.503515493
2.501310447
2.502357551
2.50436127
2.504733013
2.507066477
2.50307346
2.507298429
2.509462014
2.500635215
2.501799481
2.502416462
2.499911051
2.503910965
2.503210761
2.501069846
2.49552542
2.500926226
2.50073635
2.50142425
2.501661432
2.504645137
2.502896474
2.499978057
2.503503101
2.500540006
2.505775318
2.503248613
2.501565099
2.496271053
2.499954889
2.499334174
2.501356688
2.501703427
2.498105006
2.501462982
2.502620093
2.501469611
2.498996245
2.501845925
2.500655117
2.496560992
2.498012766
2.49587111
2.499275813
2.499400019
2.501546061
2.497463354
2.502888093
2.502530562
2.499925168
2.497996429
2.501170935
2.50074882
2.498488704
2.497639526
2.499769215
)
;

boundaryField
{
    bottom
    {
        type            calculated;
        value           nonuniform List<scalar> 
200
(
2.502785454
2.505042431
2.500749759
2.50228098
2.497426265
2.498254782
2.500254261
2.497481413
2.500006793
2.497001959
2.492588729
2.495016372
2.496280253
2.499786711
2.498188323
2.490388164
2.496564229
2.497190207
2.498536608
2.498035981
2.495512194
2.495950601
2.498248655
2.498882719
2.499239573
2.500398724
2.501119617
2.497270599
2.49496689
2.497202323
2.501994022
2.498122103
2.497092145
2.495018433
2.497168234
2.499563664
2.495958893
2.50166725
2.498438027
2.500726669
2.498267043
2.497626473
2.500817381
2.498760548
2.500493719
2.499618694
2.498690908
2.500818201
2.500457319
2.4976875
2.501304862
2.500916487
2.503360802
2.499381364
2.498253813
2.498262191
2.501865041
2.503583092
2.504571065
2.505867744
2.502748401
2.501588451
2.505569256
2.499132205
2.504847951
2.502199485
2.496284217
2.498814084
2.503903422
2.50444319
2.503065824
2.505486085
2.504807352
2.505612368
2.510374946
2.508727096
2.503768854
2.498087625
2.505556415
2.505241852
2.502603405
2.502365713
2.501632927
2.506003032
2.508977235
2.505087132
2.503658243
2.50303672
2.507812605
2.506067042
2.505527334
2.505027624
2.501464047
2.501834308
2.510938244
2.510112086
2.50518309
2.508111397
2.509830072
2.504748081
2.50536136
2.50450832
2.506349263
2.507425704
2.501693876
2.50494691
2.50648574
2.505208372
2.507521208
2.505045494
2.500046746
2.499834186
2.501719212
2.500259036
2.502623677
2.50728526
2.506925375
2.500932976
2.504175467
2.506209792
2.50746667
2.505369572
2.503563866
2.500212193
2.503003128
2.503364578
2.506850881
2.507043701
2.507234316
2.504330025
2.505127242
2.505157626
2.506547473
2.505836434
2.505322042
2.508442552
2.509597088
2.499143106
2.50495516
2.506415624
2.500697867
2.501312733
2.502834823
2.503042767
2.504540432
2.502830488
2.50293534
2.5023112
2.503818113
2.503447675
2.504753567
2.503591454
2.505251508
2.502543265
2.501447928
2.498844055
2.505689514
2.506920818
2.507796802
2.501050616
2.50011835
2.495640235
2.50497722
2.504056924
2.499596665
2.499530813
2.499654952
2.499079775
2.501229801
2.506132238
2.502056159
2.504003249
2.503052564
2.50050343
2.509492029
2.500471397
2.49790756
2.501784815
2.501705505
2.505594514
2.501543884
2.497847409
2.500044241
2.498665771
2.501242388
2.499009893
2.499495108
2.49914351
2.500808179
2.501647849
2.496541097
2.493846195
2.499141159
2.497578479
2.505275496
2.497739255
2.497741323
2.4981445
2.49586236
2.50220262
)
;
    }
    top
    {
        type            calculated;
        value           nonuniform List<scalar> 
200
(
2.499144208
2.502035441
2.503233575
2.497737206
2.499346567
2.495562098
2.500716178
2.502788018
2.503661624
2.499420392
2.499260883
2.497315984
2.496016696
2.493726439
2.500335111
2.497277811
2.494956545
2.499636615
2.495480437
2.498075203
2.498910707
2.500826458
2.503107906
2.500903604
2.497804372
2.496206831
2.495948745
2.496753938
2.496565514
2.493738136
2.499171091
2.496543413
2.498278572
2.501199849
2.496110646
2.500347685
2.498302448
2.501563726
2.501788908
2.504968321
2.502489411
2.500846502
2.501950245
2.496945205
2.501589003
2.499112878
2.504032142
2.502465376
2.497813541
2.501428755
2.500534797
2.503568656
2.500721066
2.500397807
2.497098
2.504376727
2.500382041
2.499899307
2.500970893
2.50285407
2.504311722
2.504637233
2.504189332
2.507073764
2.501218907
2.506730968
2.506443281
2.502440791
2.501620411
2.502160422
2.501459646
2.506091092
2.504429565
2.505446913
2.503444509
2.505410055
2.502375473
2.504833995
2.50441377
2.498593234
2.501451023
2.505386077
2.504536957
2.498262249
2.502327771
2.508159183
2.509341806
2.505233283
2.504036286
2.509285113
2.504170983
2.506006992
2.507210836
2.506259419
2.505780319
2.504507422
2.507367221
2.506384378
2.510489001
2.506465557
2.509910179
2.506811644
2.507400979
2.507526574
2.500671475
2.506278306
2.503435496
2.504286622
2.507685521
2.502596973
2.503030021
2.503605294
2.507299481
2.504726742
2.507124736
2.504415562
2.505141323
2.498239419
2.501400585
2.500969722
2.501389668
2.505577759
2.507436571
2.504371153
2.507684501
2.506422802
2.506995429
2.509163399
2.508514039
2.507198959
2.501577325
2.500936341
2.501924138
2.506424823
2.502949316
2.502901512
2.499761398
2.499698707
2.504213422
2.499506376
2.50380306
2.503567322
2.504226896
2.503515493
2.501310447
2.502357551
2.50436127
2.504733013
2.507066477
2.50307346
2.507298429
2.509462014
2.500635215
2.501799481
2.502416462
2.499911051
2.503910965
2.503210761
2.501069846
2.49552542
2.500926226
2.50073635
2.50142425
2.501661432
2.504645137
2.502896474
2.499978057
2.503503101
2.500540006
2.505775318
2.503248613
2.501565099
2.496271053
2.499954889
2.499334174
2.501356688
2.501703427
2.498105006
2.501462982
2.502620093
2.501469611
2.498996245
2.501845925
2.500655117
2.496560992
2.498012766
2.49587111
2.499275813
2.499400019
2.501546061
2.497463354
2.502888093
2.502530562
2.499925168
2.497996429
2.501170935
2.50074882
2.498488704
2.497639526
2.499769215
)
;
    }
    inlet
    {
        type            cyclic;
    }
    outlet
    {
        type            cyclic;
    }
    back
    {
        type            symmetry;
    }
    front
    {
        type            symmetry;
    }
}


// ************************************************************************* //
