/*--------------------------------*- C++ -*----------------------------------*\
| =========                 |                                                 |
| \\      /  F ield         | OpenFOAM: The Open Source CFD Toolbox           |
|  \\    /   O peration     | Version:  v1706                                 |
|   \\  /    A nd           | Web:      www.OpenFOAM.com                      |
|    \\/     M anipulation  |                                                 |
\*---------------------------------------------------------------------------*/
FoamFile
{
    version     2.0;
    format      ascii;
    class       volScalarField;
    location    "0.28";
    object      meanCollisionTime_Ar;
}
// * * * * * * * * * * * * * * * * * * * * * * * * * * * * * * * * * * * * * //

dimensions      [0 0 1 0 0 0 0];


internalField   nonuniform List<scalar> 
1000
(
2.502785454e-05
2.505042431e-05
2.500749759e-05
2.50228098e-05
2.497426265e-05
2.498254782e-05
2.500254261e-05
2.497481413e-05
2.500006793e-05
2.497001959e-05
2.492588729e-05
2.495016372e-05
2.496280253e-05
2.499786711e-05
2.498188323e-05
2.490388164e-05
2.496564229e-05
2.497190207e-05
2.498536608e-05
2.498035981e-05
2.495512194e-05
2.495950601e-05
2.498248655e-05
2.498882719e-05
2.499239573e-05
2.500398724e-05
2.501119617e-05
2.497270599e-05
2.49496689e-05
2.497202323e-05
2.501994022e-05
2.498122103e-05
2.497092145e-05
2.495018433e-05
2.497168234e-05
2.499563664e-05
2.495958893e-05
2.50166725e-05
2.498438027e-05
2.500726669e-05
2.498267043e-05
2.497626473e-05
2.500817381e-05
2.498760548e-05
2.500493719e-05
2.499618694e-05
2.498690908e-05
2.500818201e-05
2.500457319e-05
2.4976875e-05
2.501304862e-05
2.500916487e-05
2.503360802e-05
2.499381364e-05
2.498253813e-05
2.498262191e-05
2.501865041e-05
2.503583092e-05
2.504571065e-05
2.505867744e-05
2.502748401e-05
2.501588451e-05
2.505569256e-05
2.499132205e-05
2.504847951e-05
2.502199485e-05
2.496284217e-05
2.498814084e-05
2.503903422e-05
2.50444319e-05
2.503065824e-05
2.505486085e-05
2.504807352e-05
2.505612368e-05
2.510374946e-05
2.508727096e-05
2.503768854e-05
2.498087625e-05
2.505556415e-05
2.505241852e-05
2.502603405e-05
2.502365713e-05
2.501632927e-05
2.506003032e-05
2.508977235e-05
2.505087132e-05
2.503658243e-05
2.50303672e-05
2.507812605e-05
2.506067042e-05
2.505527334e-05
2.505027624e-05
2.501464047e-05
2.501834308e-05
2.510938244e-05
2.510112086e-05
2.50518309e-05
2.508111397e-05
2.509830072e-05
2.504748081e-05
2.50536136e-05
2.50450832e-05
2.506349263e-05
2.507425704e-05
2.501693876e-05
2.50494691e-05
2.50648574e-05
2.505208372e-05
2.507521208e-05
2.505045494e-05
2.500046746e-05
2.499834186e-05
2.501719212e-05
2.500259036e-05
2.502623677e-05
2.50728526e-05
2.506925375e-05
2.500932976e-05
2.504175467e-05
2.506209792e-05
2.50746667e-05
2.505369572e-05
2.503563866e-05
2.500212193e-05
2.503003128e-05
2.503364578e-05
2.506850881e-05
2.507043701e-05
2.507234316e-05
2.504330025e-05
2.505127242e-05
2.505157626e-05
2.506547473e-05
2.505836434e-05
2.505322042e-05
2.508442552e-05
2.509597088e-05
2.499143106e-05
2.50495516e-05
2.506415624e-05
2.500697867e-05
2.501312733e-05
2.502834823e-05
2.503042767e-05
2.504540432e-05
2.502830488e-05
2.50293534e-05
2.5023112e-05
2.503818113e-05
2.503447675e-05
2.504753567e-05
2.503591454e-05
2.505251508e-05
2.502543265e-05
2.501447928e-05
2.498844055e-05
2.505689514e-05
2.506920818e-05
2.507796802e-05
2.501050616e-05
2.50011835e-05
2.495640235e-05
2.50497722e-05
2.504056924e-05
2.499596665e-05
2.499530813e-05
2.499654952e-05
2.499079775e-05
2.501229801e-05
2.506132238e-05
2.502056159e-05
2.504003249e-05
2.503052564e-05
2.50050343e-05
2.509492029e-05
2.500471397e-05
2.49790756e-05
2.501784815e-05
2.501705505e-05
2.505594514e-05
2.501543884e-05
2.497847409e-05
2.500044241e-05
2.498665771e-05
2.501242388e-05
2.499009893e-05
2.499495108e-05
2.49914351e-05
2.500808179e-05
2.501647849e-05
2.496541097e-05
2.493846195e-05
2.499141159e-05
2.497578479e-05
2.505275496e-05
2.497739255e-05
2.497741323e-05
2.4981445e-05
2.49586236e-05
2.50220262e-05
2.496546961e-05
2.500277086e-05
2.500686458e-05
2.49968118e-05
2.496662018e-05
2.498733406e-05
2.499919972e-05
2.496490187e-05
2.497267229e-05
2.497635646e-05
2.496825581e-05
2.495388444e-05
2.494157758e-05
2.503229724e-05
2.496706677e-05
2.498891308e-05
2.498857088e-05
2.497245172e-05
2.494825498e-05
2.493809751e-05
2.49929405e-05
2.504734448e-05
2.498837403e-05
2.501242595e-05
2.501327835e-05
2.504452783e-05
2.49521205e-05
2.494557887e-05
2.494332123e-05
2.494163676e-05
2.497068784e-05
2.491809227e-05
2.496553595e-05
2.493102506e-05
2.500571072e-05
2.499908409e-05
2.498052252e-05
2.499567243e-05
2.503180623e-05
2.499508235e-05
2.49886083e-05
2.497662707e-05
2.499327133e-05
2.499375222e-05
2.501886373e-05
2.501515605e-05
2.501648548e-05
2.500947916e-05
2.500215888e-05
2.503196343e-05
2.500935413e-05
2.498322283e-05
2.497744173e-05
2.499637244e-05
2.500818019e-05
2.496653189e-05
2.498579482e-05
2.503025259e-05
2.506183505e-05
2.506060403e-05
2.50865869e-05
2.506297908e-05
2.505455222e-05
2.502610842e-05
2.501768457e-05
2.506172678e-05
2.502131868e-05
2.501454969e-05
2.503709811e-05
2.505048369e-05
2.507338232e-05
2.5055417e-05
2.504007715e-05
2.505029525e-05
2.504289847e-05
2.503281658e-05
2.502631812e-05
2.501220276e-05
2.503168817e-05
2.503727247e-05
2.503837859e-05
2.503942765e-05
2.50245053e-05
2.503898347e-05
2.50877339e-05
2.507761483e-05
2.505544301e-05
2.50571111e-05
2.503696709e-05
2.504156167e-05
2.5042052e-05
2.504878143e-05
2.503664609e-05
2.510456006e-05
2.50683099e-05
2.504753129e-05
2.50718109e-05
2.506243724e-05
2.507798321e-05
2.506632999e-05
2.504237228e-05
2.507678791e-05
2.507877883e-05
2.505373995e-05
2.507074106e-05
2.50601497e-05
2.509474665e-05
2.507624216e-05
2.50242086e-05
2.501300784e-05
2.503849885e-05
2.502726047e-05
2.504852072e-05
2.50366724e-05
2.507521566e-05
2.507998383e-05
2.506343523e-05
2.501288558e-05
2.504718694e-05
2.504279912e-05
2.505222374e-05
2.506127445e-05
2.505993729e-05
2.505501501e-05
2.503662569e-05
2.506100588e-05
2.504710549e-05
2.503595328e-05
2.508129833e-05
2.503957857e-05
2.503360755e-05
2.503270855e-05
2.505403623e-05
2.504972834e-05
2.504549466e-05
2.506080505e-05
2.502518315e-05
2.502430793e-05
2.50573215e-05
2.50461573e-05
2.502048176e-05
2.499857088e-05
2.502629104e-05
2.507476409e-05
2.505092429e-05
2.505723919e-05
2.501160334e-05
2.503847857e-05
2.503477639e-05
2.505436195e-05
2.500432297e-05
2.502100466e-05
2.499463218e-05
2.502205424e-05
2.500727744e-05
2.501711455e-05
2.505689033e-05
2.507440715e-05
2.499805828e-05
2.501926127e-05
2.498231299e-05
2.501441883e-05
2.501714967e-05
2.504451564e-05
2.501993424e-05
2.503208424e-05
2.502201688e-05
2.499568002e-05
2.502795177e-05
2.497718767e-05
2.502483435e-05
2.499550706e-05
2.499318031e-05
2.502367753e-05
2.501315903e-05
2.498932784e-05
2.499962619e-05
2.498706473e-05
2.499748715e-05
2.502824268e-05
2.499354411e-05
2.500105806e-05
2.503232814e-05
2.49742162e-05
2.49525246e-05
2.501195848e-05
2.499520945e-05
2.501615399e-05
2.499878545e-05
2.50285275e-05
2.497664751e-05
2.499091501e-05
2.497451907e-05
2.498441311e-05
2.503007089e-05
2.503287544e-05
2.502178541e-05
2.502918958e-05
2.500208833e-05
2.498202008e-05
2.499671625e-05
2.497864691e-05
2.499348094e-05
2.50145972e-05
2.500601639e-05
2.504855414e-05
2.502671704e-05
2.500785213e-05
2.498639032e-05
2.497754525e-05
2.49115306e-05
2.492873163e-05
2.492652708e-05
2.495492035e-05
2.498151874e-05
2.49678401e-05
2.496945468e-05
2.494578719e-05
2.49463432e-05
2.498809147e-05
2.500864004e-05
2.502006644e-05
2.497140156e-05
2.500587521e-05
2.497384698e-05
2.496077208e-05
2.497829865e-05
2.495247705e-05
2.504156456e-05
2.49787809e-05
2.495347768e-05
2.496889599e-05
2.496822744e-05
2.499189961e-05
2.497865374e-05
2.494949702e-05
2.500453212e-05
2.500889112e-05
2.499363445e-05
2.494019386e-05
2.501069406e-05
2.501778047e-05
2.500731974e-05
2.497491398e-05
2.500640326e-05
2.500220782e-05
2.502675847e-05
2.49937775e-05
2.497357754e-05
2.501074853e-05
2.499871096e-05
2.499729546e-05
2.499023267e-05
2.495059072e-05
2.496464323e-05
2.499926217e-05
2.495670996e-05
2.502258717e-05
2.503843436e-05
2.504745454e-05
2.500121894e-05
2.504011887e-05
2.505590614e-05
2.503222054e-05
2.504743054e-05
2.502602219e-05
2.503904413e-05
2.500148387e-05
2.504668054e-05
2.499802982e-05
2.506602112e-05
2.506396352e-05
2.507041429e-05
2.507158354e-05
2.504917608e-05
2.502982246e-05
2.504650775e-05
2.50640793e-05
2.500347027e-05
2.506952581e-05
2.502528714e-05
2.501421114e-05
2.503668001e-05
2.505763148e-05
2.504470105e-05
2.503832633e-05
2.508673608e-05
2.508431437e-05
2.502387054e-05
2.506304187e-05
2.504871478e-05
2.508174319e-05
2.506440844e-05
2.506948578e-05
2.508385475e-05
2.501766506e-05
2.506179635e-05
2.503879673e-05
2.508060497e-05
2.507524161e-05
2.504570524e-05
2.50508637e-05
2.506268686e-05
2.509507308e-05
2.509141942e-05
2.50216135e-05
2.500052339e-05
2.504924661e-05
2.503301727e-05
2.502122568e-05
2.505407888e-05
2.502867085e-05
2.504721874e-05
2.504070919e-05
2.505161208e-05
2.505390904e-05
2.506358136e-05
2.502505551e-05
2.50724192e-05
2.504212729e-05
2.506850213e-05
2.507529275e-05
2.504274385e-05
2.503129163e-05
2.501402602e-05
2.502604898e-05
2.501169699e-05
2.504254589e-05
2.506982361e-05
2.500848386e-05
2.50332464e-05
2.503232474e-05
2.502238354e-05
2.503053982e-05
2.502449665e-05
2.505775922e-05
2.501081747e-05
2.500804368e-05
2.503535529e-05
2.502895812e-05
2.502487565e-05
2.500256858e-05
2.5007894e-05
2.499426391e-05
2.501541178e-05
2.497482205e-05
2.502723799e-05
2.505652226e-05
2.504366892e-05
2.507763289e-05
2.500885222e-05
2.501166634e-05
2.499318806e-05
2.500557868e-05
2.502312173e-05
2.503401087e-05
2.50299596e-05
2.503526532e-05
2.500528572e-05
2.501066583e-05
2.499927228e-05
2.499352789e-05
2.506051193e-05
2.499113621e-05
2.502691995e-05
2.502739427e-05
2.503196687e-05
2.504515579e-05
2.500347071e-05
2.498516818e-05
2.499340212e-05
2.50164431e-05
2.500654314e-05
2.50052867e-05
2.505101519e-05
2.503356437e-05
2.506674577e-05
2.502067091e-05
2.503237334e-05
2.49886371e-05
2.500242312e-05
2.501102901e-05
2.500423908e-05
2.500865036e-05
2.502636329e-05
2.497329918e-05
2.506629689e-05
2.503175068e-05
2.499531935e-05
2.501034314e-05
2.499235197e-05
2.501345454e-05
2.500947104e-05
2.503715765e-05
2.497876461e-05
2.497472174e-05
2.499142252e-05
2.504548648e-05
2.500243843e-05
2.494716611e-05
2.503997812e-05
2.502236129e-05
2.499358044e-05
2.499663478e-05
2.500055731e-05
2.500903734e-05
2.502408665e-05
2.498962378e-05
2.498548011e-05
2.495783705e-05
2.494940946e-05
2.496397697e-05
2.496261803e-05
2.497444945e-05
2.498686333e-05
2.499431006e-05
2.497607261e-05
2.501683196e-05
2.494962125e-05
2.496347978e-05
2.502268558e-05
2.495823431e-05
2.500812921e-05
2.500377176e-05
2.494814518e-05
2.496816334e-05
2.496191602e-05
2.497850369e-05
2.498354218e-05
2.494793711e-05
2.5005191e-05
2.498554075e-05
2.499826816e-05
2.496427966e-05
2.496024728e-05
2.498532362e-05
2.501115223e-05
2.501193754e-05
2.497321679e-05
2.499353553e-05
2.498749613e-05
2.500954595e-05
2.502960465e-05
2.504193814e-05
2.501063059e-05
2.501308701e-05
2.5030311e-05
2.499853636e-05
2.496315337e-05
2.495417649e-05
2.503015941e-05
2.502239692e-05
2.498107187e-05
2.490459801e-05
2.501701922e-05
2.50718262e-05
2.499706174e-05
2.499017769e-05
2.505819814e-05
2.504591822e-05
2.500109328e-05
2.500545972e-05
2.505837687e-05
2.505560386e-05
2.501221251e-05
2.503788494e-05
2.50475747e-05
2.499195566e-05
2.502002078e-05
2.501681185e-05
2.508848123e-05
2.503107287e-05
2.506022083e-05
2.504528519e-05
2.504156093e-05
2.502139892e-05
2.504690584e-05
2.503059631e-05
2.498598831e-05
2.50097951e-05
2.501986398e-05
2.50786873e-05
2.505853941e-05
2.506059995e-05
2.502553267e-05
2.509177799e-05
2.505807574e-05
2.507748867e-05
2.504612488e-05
2.505778946e-05
2.509105132e-05
2.508268292e-05
2.506309879e-05
2.507631167e-05
2.508151523e-05
2.509132132e-05
2.506405958e-05
2.506199928e-05
2.507246625e-05
2.504185769e-05
2.508403711e-05
2.50593229e-05
2.504384672e-05
2.508311428e-05
2.502620194e-05
2.505192469e-05
2.503694438e-05
2.507168026e-05
2.505220472e-05
2.504958171e-05
2.503618609e-05
2.502189658e-05
2.506580813e-05
2.504339118e-05
2.498961827e-05
2.502754721e-05
2.502412364e-05
2.504863325e-05
2.503113246e-05
2.503455134e-05
2.506531448e-05
2.506353524e-05
2.507663361e-05
2.503243073e-05
2.504209976e-05
2.504518362e-05
2.501467392e-05
2.505163298e-05
2.507804296e-05
2.503253355e-05
2.50550896e-05
2.499553867e-05
2.501761581e-05
2.503683876e-05
2.501307267e-05
2.498478436e-05
2.501428811e-05
2.50104854e-05
2.500112899e-05
2.502467492e-05
2.504194306e-05
2.499953943e-05
2.499714979e-05
2.502138472e-05
2.500308951e-05
2.500010017e-05
2.506797192e-05
2.503394677e-05
2.502779324e-05
2.503751612e-05
2.501610138e-05
2.500969891e-05
2.500435583e-05
2.500635665e-05
2.503976516e-05
2.509959242e-05
2.502560692e-05
2.5022977e-05
2.501297378e-05
2.497772303e-05
2.49711204e-05
2.504047785e-05
2.500920821e-05
2.50299652e-05
2.503637578e-05
2.503780653e-05
2.5009716e-05
2.501217709e-05
2.501114549e-05
2.497476763e-05
2.493620888e-05
2.499182297e-05
2.501174707e-05
2.500970488e-05
2.499012034e-05
2.504596529e-05
2.503656591e-05
2.503537015e-05
2.503071991e-05
2.50426338e-05
2.499711576e-05
2.500116914e-05
2.501926862e-05
2.500882007e-05
2.505209749e-05
2.498996859e-05
2.496938955e-05
2.496980575e-05
2.499704323e-05
2.498636286e-05
2.49732782e-05
2.502678259e-05
2.501320491e-05
2.499243765e-05
2.498166749e-05
2.495627375e-05
2.497236777e-05
2.498761827e-05
2.501268828e-05
2.499799932e-05
2.499144208e-05
2.502035441e-05
2.503233575e-05
2.497737206e-05
2.499346567e-05
2.495562098e-05
2.500716178e-05
2.502788018e-05
2.503661624e-05
2.499420392e-05
2.499260883e-05
2.497315984e-05
2.496016696e-05
2.493726439e-05
2.500335111e-05
2.497277811e-05
2.494956545e-05
2.499636615e-05
2.495480437e-05
2.498075203e-05
2.498910707e-05
2.500826458e-05
2.503107906e-05
2.500903604e-05
2.497804372e-05
2.496206831e-05
2.495948745e-05
2.496753938e-05
2.496565514e-05
2.493738136e-05
2.499171091e-05
2.496543413e-05
2.498278572e-05
2.501199849e-05
2.496110646e-05
2.500347685e-05
2.498302448e-05
2.501563726e-05
2.501788908e-05
2.504968321e-05
2.502489411e-05
2.500846502e-05
2.501950245e-05
2.496945205e-05
2.501589003e-05
2.499112878e-05
2.504032142e-05
2.502465376e-05
2.497813541e-05
2.501428755e-05
2.500534797e-05
2.503568656e-05
2.500721066e-05
2.500397807e-05
2.497098e-05
2.504376727e-05
2.500382041e-05
2.499899307e-05
2.500970893e-05
2.50285407e-05
2.504311722e-05
2.504637233e-05
2.504189332e-05
2.507073764e-05
2.501218907e-05
2.506730968e-05
2.506443281e-05
2.502440791e-05
2.501620411e-05
2.502160422e-05
2.501459646e-05
2.506091092e-05
2.504429565e-05
2.505446913e-05
2.503444509e-05
2.505410055e-05
2.502375473e-05
2.504833995e-05
2.50441377e-05
2.498593234e-05
2.501451023e-05
2.505386077e-05
2.504536957e-05
2.498262249e-05
2.502327771e-05
2.508159183e-05
2.509341806e-05
2.505233283e-05
2.504036286e-05
2.509285113e-05
2.504170983e-05
2.506006992e-05
2.507210836e-05
2.506259419e-05
2.505780319e-05
2.504507422e-05
2.507367221e-05
2.506384378e-05
2.510489001e-05
2.506465557e-05
2.509910179e-05
2.506811644e-05
2.507400979e-05
2.507526574e-05
2.500671475e-05
2.506278306e-05
2.503435496e-05
2.504286622e-05
2.507685521e-05
2.502596973e-05
2.503030021e-05
2.503605294e-05
2.507299481e-05
2.504726742e-05
2.507124736e-05
2.504415562e-05
2.505141323e-05
2.498239419e-05
2.501400585e-05
2.500969722e-05
2.501389668e-05
2.505577759e-05
2.507436571e-05
2.504371153e-05
2.507684501e-05
2.506422802e-05
2.506995429e-05
2.509163399e-05
2.508514039e-05
2.507198959e-05
2.501577325e-05
2.500936341e-05
2.501924138e-05
2.506424823e-05
2.502949316e-05
2.502901512e-05
2.499761398e-05
2.499698707e-05
2.504213422e-05
2.499506376e-05
2.50380306e-05
2.503567322e-05
2.504226896e-05
2.503515493e-05
2.501310447e-05
2.502357551e-05
2.50436127e-05
2.504733013e-05
2.507066477e-05
2.50307346e-05
2.507298429e-05
2.509462014e-05
2.500635215e-05
2.501799481e-05
2.502416462e-05
2.499911051e-05
2.503910965e-05
2.503210761e-05
2.501069846e-05
2.49552542e-05
2.500926226e-05
2.50073635e-05
2.50142425e-05
2.501661432e-05
2.504645137e-05
2.502896474e-05
2.499978057e-05
2.503503101e-05
2.500540006e-05
2.505775318e-05
2.503248613e-05
2.501565099e-05
2.496271053e-05
2.499954889e-05
2.499334174e-05
2.501356688e-05
2.501703427e-05
2.498105006e-05
2.501462982e-05
2.502620093e-05
2.501469611e-05
2.498996245e-05
2.501845925e-05
2.500655117e-05
2.496560992e-05
2.498012766e-05
2.49587111e-05
2.499275813e-05
2.499400019e-05
2.501546061e-05
2.497463354e-05
2.502888093e-05
2.502530562e-05
2.499925168e-05
2.497996429e-05
2.501170935e-05
2.50074882e-05
2.498488704e-05
2.497639526e-05
2.499769215e-05
)
;

boundaryField
{
    bottom
    {
        type            calculated;
        value           nonuniform List<scalar> 
200
(
2.502785454e-05
2.505042431e-05
2.500749759e-05
2.50228098e-05
2.497426265e-05
2.498254782e-05
2.500254261e-05
2.497481413e-05
2.500006793e-05
2.497001959e-05
2.492588729e-05
2.495016372e-05
2.496280253e-05
2.499786711e-05
2.498188323e-05
2.490388164e-05
2.496564229e-05
2.497190207e-05
2.498536608e-05
2.498035981e-05
2.495512194e-05
2.495950601e-05
2.498248655e-05
2.498882719e-05
2.499239573e-05
2.500398724e-05
2.501119617e-05
2.497270599e-05
2.49496689e-05
2.497202323e-05
2.501994022e-05
2.498122103e-05
2.497092145e-05
2.495018433e-05
2.497168234e-05
2.499563664e-05
2.495958893e-05
2.50166725e-05
2.498438027e-05
2.500726669e-05
2.498267043e-05
2.497626473e-05
2.500817381e-05
2.498760548e-05
2.500493719e-05
2.499618694e-05
2.498690908e-05
2.500818201e-05
2.500457319e-05
2.4976875e-05
2.501304862e-05
2.500916487e-05
2.503360802e-05
2.499381364e-05
2.498253813e-05
2.498262191e-05
2.501865041e-05
2.503583092e-05
2.504571065e-05
2.505867744e-05
2.502748401e-05
2.501588451e-05
2.505569256e-05
2.499132205e-05
2.504847951e-05
2.502199485e-05
2.496284217e-05
2.498814084e-05
2.503903422e-05
2.50444319e-05
2.503065824e-05
2.505486085e-05
2.504807352e-05
2.505612368e-05
2.510374946e-05
2.508727096e-05
2.503768854e-05
2.498087625e-05
2.505556415e-05
2.505241852e-05
2.502603405e-05
2.502365713e-05
2.501632927e-05
2.506003032e-05
2.508977235e-05
2.505087132e-05
2.503658243e-05
2.50303672e-05
2.507812605e-05
2.506067042e-05
2.505527334e-05
2.505027624e-05
2.501464047e-05
2.501834308e-05
2.510938244e-05
2.510112086e-05
2.50518309e-05
2.508111397e-05
2.509830072e-05
2.504748081e-05
2.50536136e-05
2.50450832e-05
2.506349263e-05
2.507425704e-05
2.501693876e-05
2.50494691e-05
2.50648574e-05
2.505208372e-05
2.507521208e-05
2.505045494e-05
2.500046746e-05
2.499834186e-05
2.501719212e-05
2.500259036e-05
2.502623677e-05
2.50728526e-05
2.506925375e-05
2.500932976e-05
2.504175467e-05
2.506209792e-05
2.50746667e-05
2.505369572e-05
2.503563866e-05
2.500212193e-05
2.503003128e-05
2.503364578e-05
2.506850881e-05
2.507043701e-05
2.507234316e-05
2.504330025e-05
2.505127242e-05
2.505157626e-05
2.506547473e-05
2.505836434e-05
2.505322042e-05
2.508442552e-05
2.509597088e-05
2.499143106e-05
2.50495516e-05
2.506415624e-05
2.500697867e-05
2.501312733e-05
2.502834823e-05
2.503042767e-05
2.504540432e-05
2.502830488e-05
2.50293534e-05
2.5023112e-05
2.503818113e-05
2.503447675e-05
2.504753567e-05
2.503591454e-05
2.505251508e-05
2.502543265e-05
2.501447928e-05
2.498844055e-05
2.505689514e-05
2.506920818e-05
2.507796802e-05
2.501050616e-05
2.50011835e-05
2.495640235e-05
2.50497722e-05
2.504056924e-05
2.499596665e-05
2.499530813e-05
2.499654952e-05
2.499079775e-05
2.501229801e-05
2.506132238e-05
2.502056159e-05
2.504003249e-05
2.503052564e-05
2.50050343e-05
2.509492029e-05
2.500471397e-05
2.49790756e-05
2.501784815e-05
2.501705505e-05
2.505594514e-05
2.501543884e-05
2.497847409e-05
2.500044241e-05
2.498665771e-05
2.501242388e-05
2.499009893e-05
2.499495108e-05
2.49914351e-05
2.500808179e-05
2.501647849e-05
2.496541097e-05
2.493846195e-05
2.499141159e-05
2.497578479e-05
2.505275496e-05
2.497739255e-05
2.497741323e-05
2.4981445e-05
2.49586236e-05
2.50220262e-05
)
;
    }
    top
    {
        type            calculated;
        value           nonuniform List<scalar> 
200
(
2.499144208e-05
2.502035441e-05
2.503233575e-05
2.497737206e-05
2.499346567e-05
2.495562098e-05
2.500716178e-05
2.502788018e-05
2.503661624e-05
2.499420392e-05
2.499260883e-05
2.497315984e-05
2.496016696e-05
2.493726439e-05
2.500335111e-05
2.497277811e-05
2.494956545e-05
2.499636615e-05
2.495480437e-05
2.498075203e-05
2.498910707e-05
2.500826458e-05
2.503107906e-05
2.500903604e-05
2.497804372e-05
2.496206831e-05
2.495948745e-05
2.496753938e-05
2.496565514e-05
2.493738136e-05
2.499171091e-05
2.496543413e-05
2.498278572e-05
2.501199849e-05
2.496110646e-05
2.500347685e-05
2.498302448e-05
2.501563726e-05
2.501788908e-05
2.504968321e-05
2.502489411e-05
2.500846502e-05
2.501950245e-05
2.496945205e-05
2.501589003e-05
2.499112878e-05
2.504032142e-05
2.502465376e-05
2.497813541e-05
2.501428755e-05
2.500534797e-05
2.503568656e-05
2.500721066e-05
2.500397807e-05
2.497098e-05
2.504376727e-05
2.500382041e-05
2.499899307e-05
2.500970893e-05
2.50285407e-05
2.504311722e-05
2.504637233e-05
2.504189332e-05
2.507073764e-05
2.501218907e-05
2.506730968e-05
2.506443281e-05
2.502440791e-05
2.501620411e-05
2.502160422e-05
2.501459646e-05
2.506091092e-05
2.504429565e-05
2.505446913e-05
2.503444509e-05
2.505410055e-05
2.502375473e-05
2.504833995e-05
2.50441377e-05
2.498593234e-05
2.501451023e-05
2.505386077e-05
2.504536957e-05
2.498262249e-05
2.502327771e-05
2.508159183e-05
2.509341806e-05
2.505233283e-05
2.504036286e-05
2.509285113e-05
2.504170983e-05
2.506006992e-05
2.507210836e-05
2.506259419e-05
2.505780319e-05
2.504507422e-05
2.507367221e-05
2.506384378e-05
2.510489001e-05
2.506465557e-05
2.509910179e-05
2.506811644e-05
2.507400979e-05
2.507526574e-05
2.500671475e-05
2.506278306e-05
2.503435496e-05
2.504286622e-05
2.507685521e-05
2.502596973e-05
2.503030021e-05
2.503605294e-05
2.507299481e-05
2.504726742e-05
2.507124736e-05
2.504415562e-05
2.505141323e-05
2.498239419e-05
2.501400585e-05
2.500969722e-05
2.501389668e-05
2.505577759e-05
2.507436571e-05
2.504371153e-05
2.507684501e-05
2.506422802e-05
2.506995429e-05
2.509163399e-05
2.508514039e-05
2.507198959e-05
2.501577325e-05
2.500936341e-05
2.501924138e-05
2.506424823e-05
2.502949316e-05
2.502901512e-05
2.499761398e-05
2.499698707e-05
2.504213422e-05
2.499506376e-05
2.50380306e-05
2.503567322e-05
2.504226896e-05
2.503515493e-05
2.501310447e-05
2.502357551e-05
2.50436127e-05
2.504733013e-05
2.507066477e-05
2.50307346e-05
2.507298429e-05
2.509462014e-05
2.500635215e-05
2.501799481e-05
2.502416462e-05
2.499911051e-05
2.503910965e-05
2.503210761e-05
2.501069846e-05
2.49552542e-05
2.500926226e-05
2.50073635e-05
2.50142425e-05
2.501661432e-05
2.504645137e-05
2.502896474e-05
2.499978057e-05
2.503503101e-05
2.500540006e-05
2.505775318e-05
2.503248613e-05
2.501565099e-05
2.496271053e-05
2.499954889e-05
2.499334174e-05
2.501356688e-05
2.501703427e-05
2.498105006e-05
2.501462982e-05
2.502620093e-05
2.501469611e-05
2.498996245e-05
2.501845925e-05
2.500655117e-05
2.496560992e-05
2.498012766e-05
2.49587111e-05
2.499275813e-05
2.499400019e-05
2.501546061e-05
2.497463354e-05
2.502888093e-05
2.502530562e-05
2.499925168e-05
2.497996429e-05
2.501170935e-05
2.50074882e-05
2.498488704e-05
2.497639526e-05
2.499769215e-05
)
;
    }
    inlet
    {
        type            cyclic;
    }
    outlet
    {
        type            cyclic;
    }
    back
    {
        type            symmetry;
    }
    front
    {
        type            symmetry;
    }
}


// ************************************************************************* //
