/*--------------------------------*- C++ -*----------------------------------*\
| =========                 |                                                 |
| \\      /  F ield         | OpenFOAM: The Open Source CFD Toolbox           |
|  \\    /   O peration     | Version:  v1706                                 |
|   \\  /    A nd           | Web:      www.OpenFOAM.com                      |
|    \\/     M anipulation  |                                                 |
\*---------------------------------------------------------------------------*/
FoamFile
{
    version     2.0;
    format      ascii;
    class       volScalarField;
    location    "0.28";
    object      p_Ar;
}
// * * * * * * * * * * * * * * * * * * * * * * * * * * * * * * * * * * * * * //

dimensions      [1 -1 -2 0 0 0 0];


internalField   nonuniform List<scalar> 
1000
(
0.5267500439
0.5264880122
0.527277145
0.527319444
0.5280867115
0.5283178229
0.5272759929
0.5278126797
0.5271714615
0.5274417355
0.5285044621
0.5283023942
0.5286530134
0.5276612217
0.5272353362
0.5284532478
0.5285924155
0.5279240217
0.5274919652
0.5274352318
0.52798303
0.5279495321
0.5274021997
0.5271106107
0.5272271635
0.5265764215
0.5269077652
0.5280022383
0.5283912761
0.527446693
0.5269839871
0.5277349821
0.5276059614
0.5280671279
0.5271926225
0.5273128394
0.5283021324
0.5270017162
0.5277139664
0.5273641284
0.5276750461
0.5283457523
0.5274669883
0.5276795781
0.5271799334
0.5281662925
0.528312638
0.5276942695
0.5275925839
0.5277327026
0.5267933335
0.5272035916
0.5273668333
0.5275030299
0.5279239132
0.5274709344
0.5274369915
0.5272217826
0.5269810612
0.5269269365
0.5273660481
0.5271678328
0.5265139663
0.5278474014
0.5275963694
0.5282582021
0.5283262986
0.5277386908
0.5268771184
0.5268319719
0.5275126801
0.5272695794
0.5273881688
0.5272004335
0.5263480841
0.5265377552
0.5276140387
0.5283595351
0.5275874226
0.5275617105
0.5280238386
0.5280817394
0.5281238715
0.5271839481
0.5268036932
0.5273774177
0.5279982126
0.5285797539
0.5272842791
0.5272709321
0.5272935859
0.5272845004
0.5289836953
0.5290358683
0.527233738
0.5271247166
0.5285704122
0.5276875923
0.5266614736
0.5273698162
0.5276610379
0.5284381096
0.527769741
0.5268744475
0.5279526554
0.5276035621
0.5271016003
0.5273865836
0.5271850804
0.5274133057
0.5284493449
0.5282943445
0.5279911176
0.5289351029
0.5279951767
0.5272348911
0.5276949643
0.5284395724
0.5280910037
0.5279500122
0.5275830677
0.5284733281
0.5285905706
0.5289031101
0.5282875913
0.5282278192
0.5274921449
0.5277743564
0.5275283098
0.527913336
0.5272673915
0.5269448824
0.5272998271
0.527530474
0.5275815384
0.5268162998
0.5265034793
0.5282969275
0.5274252577
0.5271115574
0.5287575406
0.5281086471
0.5278243201
0.5286798327
0.5273294119
0.5278650041
0.5283013314
0.5287928799
0.5282013836
0.5273780433
0.5267779802
0.5278385179
0.5274289972
0.5279542742
0.5283899764
0.5281105135
0.5271549725
0.5272772397
0.5270596666
0.5281970388
0.5277163558
0.5287708585
0.5277145627
0.5274811082
0.5280361752
0.5286021775
0.5281700057
0.5284780317
0.5273130786
0.5269917321
0.5270480313
0.5275980132
0.5264828712
0.5270863729
0.5262566779
0.5273181837
0.5275146159
0.5273458933
0.5281283063
0.5268790727
0.5273604782
0.5278819889
0.528021856
0.5279588241
0.5271682104
0.5277695657
0.5272959593
0.5279913884
0.5281877782
0.5276514241
0.5284114752
0.5294834166
0.5286371983
0.5282374916
0.5264654719
0.5275882953
0.5271336034
0.5274127107
0.5285099268
0.5272886694
0.5285021479
0.5276321179
0.5276962672
0.5276823093
0.5277503478
0.5281660435
0.5277095969
0.5277494717
0.5279139727
0.5274725918
0.5270458596
0.527970669
0.5283642712
0.526711908
0.5275607436
0.5266244569
0.5274363508
0.5275869754
0.5283894145
0.528360996
0.5268521684
0.5268451985
0.5274950125
0.5268776866
0.5272319265
0.5267364258
0.5280486204
0.5281675503
0.5283456251
0.5279052635
0.5274338119
0.5284871193
0.527459392
0.5282815636
0.5272065419
0.5268914192
0.5279711603
0.52768206
0.5269534511
0.5272486846
0.5282689603
0.5278941943
0.5277944191
0.5275701775
0.5275627685
0.5273314934
0.5273650836
0.527410069
0.5271121214
0.5269043235
0.527076279
0.5275604962
0.5282147295
0.5274693074
0.5269029719
0.5282835557
0.5283199092
0.5270979934
0.5268325647
0.5269616117
0.5269362987
0.5270450721
0.527187959
0.52776857
0.5284141581
0.5268035766
0.527676338
0.5276935492
0.5269043193
0.527457273
0.5269650447
0.5277381222
0.5275735875
0.5269320915
0.5276922772
0.5281547136
0.5284035923
0.5284615729
0.5282944021
0.5274511491
0.5278696456
0.5275185331
0.5281956858
0.5275944337
0.5267233858
0.5268126799
0.5271897321
0.5277534926
0.5280303968
0.527920561
0.5278846219
0.5271120094
0.5276312746
0.5270588735
0.5274218294
0.5279230792
0.5278018505
0.5282616556
0.5267258349
0.5274759131
0.5279927051
0.5277096015
0.5275630721
0.5276367752
0.5274973793
0.5277532855
0.5263209247
0.5269552475
0.5274744362
0.527747004
0.5274934365
0.5280752823
0.5274042029
0.5279359185
0.5270667424
0.5275005167
0.5275174906
0.5287395755
0.5278473901
0.5286856621
0.5279208279
0.5273260493
0.5278538149
0.5280588074
0.5281267739
0.5277733415
0.5278389833
0.5283995304
0.5272236635
0.5277959844
0.5279971454
0.5278395645
0.5273004488
0.5275450898
0.5278330053
0.5283276384
0.5279481506
0.528477175
0.5276727107
0.5279677651
0.5283391642
0.5278951124
0.5277985094
0.5274439729
0.5280136455
0.5273700412
0.5284092651
0.5279057268
0.5279053523
0.5272356751
0.5282377977
0.5276487194
0.5280453237
0.5279399366
0.5280732911
0.527960795
0.5267161237
0.5269531728
0.5286261882
0.5279816131
0.5287198612
0.527504369
0.5279251317
0.527462745
0.527900726
0.5273320114
0.5279061663
0.5282779799
0.5272885853
0.5279044279
0.5271542865
0.5276809987
0.5278249969
0.5272651646
0.527660596
0.527846076
0.5280214585
0.5278675291
0.5279500596
0.5271509195
0.5285074348
0.5278264908
0.5266369226
0.5286076781
0.5287039031
0.5271186126
0.5279401997
0.527500108
0.5284714608
0.5280750679
0.5283041603
0.5280952849
0.5285534616
0.5285699918
0.5275552982
0.5268544339
0.5268735235
0.5277975553
0.5274879829
0.5277412151
0.5274393036
0.528358952
0.5278969704
0.5273556463
0.5281079383
0.5270521781
0.5275166503
0.5277974475
0.5279179682
0.5270495425
0.52821438
0.5288255875
0.5282993147
0.5280667787
0.5271216497
0.5283516605
0.5275147545
0.5285694837
0.5280925984
0.5267839568
0.5276782044
0.5273576695
0.5278090117
0.5269399605
0.5272725826
0.5279690014
0.5280129751
0.5284187248
0.5266184513
0.5274278485
0.5274248913
0.527807755
0.5276665559
0.5275408315
0.5271182988
0.5286200586
0.5276206774
0.527350545
0.5273379176
0.5287332686
0.5275545293
0.5271263058
0.5274840514
0.5284695475
0.5275264668
0.5279587399
0.527440376
0.5278128455
0.5280126199
0.5273858023
0.5278386043
0.5277411043
0.5277782251
0.5283273774
0.5282606969
0.5280445199
0.5286096685
0.5271896242
0.5271953599
0.5271811385
0.5287666399
0.5275330921
0.5275249089
0.5275934333
0.5278152418
0.5278724199
0.5272639731
0.5272401751
0.5267836068
0.5278651778
0.5265713038
0.5268306136
0.526878254
0.5267264029
0.5276114345
0.5281086891
0.5278283439
0.5275446367
0.528284454
0.5271682453
0.5279202047
0.5278427642
0.52755373
0.5266402747
0.5271819738
0.5279298006
0.5268992943
0.5277410748
0.5281954387
0.5274748913
0.5276277098
0.5269334011
0.5272107538
0.5278284115
0.5273000252
0.5282737686
0.5275831223
0.5281104635
0.5274759078
0.5273090204
0.5281800972
0.5280542425
0.5273880525
0.5270622184
0.5271099826
0.5284985817
0.5283683063
0.5280457985
0.527842208
0.5279561093
0.5268368074
0.5285834852
0.5270874266
0.5278161673
0.5275352179
0.5281989658
0.5276767682
0.5279295231
0.5274613889
0.5279285832
0.5273533551
0.5271146167
0.5276766154
0.5281260668
0.5282383676
0.528320631
0.5286604155
0.5280627086
0.5277437414
0.5289173946
0.5282680706
0.5281118737
0.5278736518
0.5281223644
0.5280910248
0.5275226475
0.5280302572
0.5279912118
0.5277949728
0.5284088725
0.5285988196
0.5283929351
0.5282598953
0.5286415298
0.5280966707
0.5284296253
0.5276657506
0.5273500109
0.5274848657
0.5270352053
0.5282876307
0.5276717535
0.5287920691
0.5278892745
0.5281125002
0.5275495511
0.5272450941
0.5271339826
0.5278552745
0.5278975524
0.5276278762
0.528504116
0.5270927094
0.5287611453
0.5279839053
0.5279179157
0.5275539558
0.5274256082
0.5275462106
0.5279219136
0.5273340809
0.527145764
0.5280616833
0.5276381758
0.5268738919
0.5273665532
0.5266703624
0.5279449576
0.5270655649
0.5277817072
0.5272647214
0.5283213742
0.5278579237
0.5279657938
0.5273009603
0.5286719519
0.5267015693
0.5276721987
0.5285117567
0.5277378167
0.5274854669
0.5276155026
0.527786556
0.5271525554
0.5277525556
0.5283814284
0.5280879769
0.5277610888
0.5280631589
0.528445378
0.5266048634
0.5270203228
0.5278296329
0.5281605243
0.5285787659
0.5279586441
0.5272464016
0.5282122953
0.5276734988
0.5282672386
0.5287955522
0.5277870057
0.5271684728
0.5275507716
0.527550438
0.5274182449
0.5283159694
0.526744888
0.5286184787
0.5284567871
0.5274683345
0.5289197371
0.527311355
0.5273501707
0.5280593496
0.5277135263
0.5277834434
0.5280167564
0.5278869132
0.5280774221
0.527033222
0.5273683371
0.5269553832
0.5273908531
0.5275994536
0.5270870852
0.5274279537
0.5276928248
0.5280619688
0.5274746266
0.5278625252
0.5276369712
0.5274421203
0.526992475
0.5278144216
0.5277709781
0.5270004625
0.5279286333
0.5278265554
0.5286844286
0.5273427131
0.5276447432
0.5280450746
0.5295917736
0.5269377209
0.5265234151
0.5279635681
0.5279582588
0.5271828581
0.5270471466
0.5276680551
0.5280417673
0.5275660123
0.5273359026
0.5286225631
0.5272582969
0.5273850319
0.5278618841
0.5270231135
0.5275407123
0.5259954974
0.5272404106
0.5274642851
0.5277772593
0.5281176396
0.5277063523
0.526910139
0.528006356
0.5286005275
0.5281192819
0.5277210564
0.526515855
0.5267763083
0.5271362559
0.5284847275
0.5269769572
0.5274322004
0.5270070624
0.5275570024
0.5273418972
0.5274443464
0.5270089607
0.5279242811
0.5274019676
0.5274634495
0.5272645469
0.5278064852
0.527600653
0.5270807424
0.527667243
0.5269392228
0.5273924886
0.5282026308
0.5275996525
0.5283498057
0.528239429
0.5278001196
0.5276356014
0.5277474711
0.5275203321
0.5281283829
0.5276091264
0.5270015077
0.5276263611
0.5289035475
0.5281931708
0.5286013271
0.5275280634
0.5277951135
0.5273421225
0.5266832315
0.5272438616
0.5278612617
0.5281001044
0.5279336891
0.5275352642
0.5285303971
0.52821326
0.5276250417
0.5280343284
0.5275395015
0.5281953773
0.5287275927
0.5280774708
0.527791003
0.5287151322
0.5281641356
0.5283285014
0.5277909758
0.5279215578
0.52743742
0.5282922853
0.5279015791
0.5278062674
0.528100373
0.5283252059
0.5272612815
0.5273743337
0.5281012308
0.5270913364
0.5281286921
0.5280500547
0.5285037142
0.5279441397
0.5282164116
0.5271981622
0.5283502565
0.5278630952
0.5281585062
0.5281394257
0.5283045466
0.5274400082
0.5282931534
0.5284632461
0.5279719165
0.5266591477
0.5279528893
0.5275280508
0.526944041
0.5278025202
0.5287914376
0.5274992519
0.5269314968
0.5273328532
0.5277641177
0.5267768259
0.5275376945
0.5273609218
0.5265369802
0.5268325407
0.5270669114
0.5276299597
0.5275137409
0.5273257031
0.5263571617
0.5287025368
0.528081973
0.5281133601
0.5275553419
0.5282751254
0.5280592257
0.526898455
0.5272533697
0.527630336
0.5277078334
0.5282819135
0.5279591016
0.528256249
0.5276606531
0.5280958355
0.5282762421
0.5268154087
0.5273573693
0.5282194135
0.5275335042
0.5281430446
0.5274831741
0.5268576248
0.5275382598
0.528181002
0.5275336074
0.527414291
0.5272869186
0.5282261089
0.527363122
0.527371972
0.5281912459
0.5280122342
0.5278743673
0.5273507915
0.5280783436
0.5273955365
0.5268652421
0.5267651769
0.5279932676
0.5278849953
0.5277656864
0.5279495122
0.528220618
0.528173243
0.5275894024
0.5284825648
0.5272004464
0.5267442402
0.5274579495
0.5272735069
0.5276142252
0.5269907569
0.5268995573
0.526668212
0.5265209663
0.5271473091
0.5272421923
0.5286459579
0.5278744803
0.5278248949
0.5270927437
0.5268357823
0.5283984966
0.52726827
0.5275822571
0.5267905947
0.5274624026
0.5275369268
0.5279335955
0.5271041614
0.5273028493
0.5276957225
0.5273682016
0.5270278512
0.5270092842
0.527447572
0.5279340265
0.5271294942
0.5275922199
0.527105933
0.5264377768
0.5273775943
0.5278180894
0.527743996
0.5279925532
0.5277520479
0.5276460174
0.5269769065
0.5275823305
0.5273568737
0.528121139
0.5273176556
0.5275046405
0.52811932
0.5272251564
0.5265804996
0.5269676465
0.5281621193
0.5278768451
0.5274878273
0.526959851
0.527776356
0.528143899
0.5272011158
0.5281185589
0.527353839
0.5278058665
0.5281096461
0.5275505977
0.5276222282
0.5275946422
0.5275337907
0.5267124263
0.5273802766
0.5267494258
0.5273293832
0.5275706038
0.5274089635
0.5288310372
0.5273271487
0.5277850029
0.5282262706
0.5271602105
0.5284228118
0.5279172136
0.5280590387
0.5271299267
0.5273842401
0.527438238
0.5281231783
0.5278937253
0.5292060262
0.5287976332
0.529059526
0.5286722485
0.5278099962
0.5270613076
0.5274627202
0.5274927831
0.5276605358
0.5277313169
0.5265877613
0.5274513887
0.5277666481
0.528159003
0.5289221434
0.5274113369
0.5267059218
0.5274893045
0.5279030182
0.5287105048
0.5282422
0.527300464
0.5279789134
0.5273353465
0.5280529779
0.5273265065
0.527829508
0.5280548265
0.5277833293
0.5270414211
0.5273721677
0.5267921459
0.5268747664
0.527337261
0.527361808
0.5287872496
0.5283601829
0.5279556708
0.5289685606
0.5282101602
0.5276018623
0.5281182781
0.5291211265
0.5277995072
0.5278117983
0.5273990976
0.5279682005
0.5278489592
0.5274752047
0.5275663036
0.5268724057
0.5269129741
0.5264630842
0.5269937219
0.5269943469
0.5278319089
0.5267571633
0.5276781662
0.5275436663
0.5283449039
0.5284190221
0.5274942565
0.5274080253
0.5273150049
0.5281684778
0.5270561524
0.5273852517
0.5283708982
0.5277768158
0.5283661853
0.5279220652
0.528397252
0.5275463584
0.5277346477
0.526560738
0.5272422143
0.5276424402
0.5281488702
0.5276055619
0.5277344772
0.5277772599
0.5278197885
0.52772772
)
;

boundaryField
{
    bottom
    {
        type            calculated;
        value           nonuniform List<scalar> 
200
(
0.5267500439
0.5264880122
0.527277145
0.527319444
0.5280867115
0.5283178229
0.5272759929
0.5278126797
0.5271714615
0.5274417355
0.5285044621
0.5283023942
0.5286530134
0.5276612217
0.5272353362
0.5284532478
0.5285924155
0.5279240217
0.5274919652
0.5274352318
0.52798303
0.5279495321
0.5274021997
0.5271106107
0.5272271635
0.5265764215
0.5269077652
0.5280022383
0.5283912761
0.527446693
0.5269839871
0.5277349821
0.5276059614
0.5280671279
0.5271926225
0.5273128394
0.5283021324
0.5270017162
0.5277139664
0.5273641284
0.5276750461
0.5283457523
0.5274669883
0.5276795781
0.5271799334
0.5281662925
0.528312638
0.5276942695
0.5275925839
0.5277327026
0.5267933335
0.5272035916
0.5273668333
0.5275030299
0.5279239132
0.5274709344
0.5274369915
0.5272217826
0.5269810612
0.5269269365
0.5273660481
0.5271678328
0.5265139663
0.5278474014
0.5275963694
0.5282582021
0.5283262986
0.5277386908
0.5268771184
0.5268319719
0.5275126801
0.5272695794
0.5273881688
0.5272004335
0.5263480841
0.5265377552
0.5276140387
0.5283595351
0.5275874226
0.5275617105
0.5280238386
0.5280817394
0.5281238715
0.5271839481
0.5268036932
0.5273774177
0.5279982126
0.5285797539
0.5272842791
0.5272709321
0.5272935859
0.5272845004
0.5289836953
0.5290358683
0.527233738
0.5271247166
0.5285704122
0.5276875923
0.5266614736
0.5273698162
0.5276610379
0.5284381096
0.527769741
0.5268744475
0.5279526554
0.5276035621
0.5271016003
0.5273865836
0.5271850804
0.5274133057
0.5284493449
0.5282943445
0.5279911176
0.5289351029
0.5279951767
0.5272348911
0.5276949643
0.5284395724
0.5280910037
0.5279500122
0.5275830677
0.5284733281
0.5285905706
0.5289031101
0.5282875913
0.5282278192
0.5274921449
0.5277743564
0.5275283098
0.527913336
0.5272673915
0.5269448824
0.5272998271
0.527530474
0.5275815384
0.5268162998
0.5265034793
0.5282969275
0.5274252577
0.5271115574
0.5287575406
0.5281086471
0.5278243201
0.5286798327
0.5273294119
0.5278650041
0.5283013314
0.5287928799
0.5282013836
0.5273780433
0.5267779802
0.5278385179
0.5274289972
0.5279542742
0.5283899764
0.5281105135
0.5271549725
0.5272772397
0.5270596666
0.5281970388
0.5277163558
0.5287708585
0.5277145627
0.5274811082
0.5280361752
0.5286021775
0.5281700057
0.5284780317
0.5273130786
0.5269917321
0.5270480313
0.5275980132
0.5264828712
0.5270863729
0.5262566779
0.5273181837
0.5275146159
0.5273458933
0.5281283063
0.5268790727
0.5273604782
0.5278819889
0.528021856
0.5279588241
0.5271682104
0.5277695657
0.5272959593
0.5279913884
0.5281877782
0.5276514241
0.5284114752
0.5294834166
0.5286371983
0.5282374916
0.5264654719
0.5275882953
0.5271336034
0.5274127107
0.5285099268
0.5272886694
)
;
    }
    top
    {
        type            calculated;
        value           nonuniform List<scalar> 
200
(
0.5282762421
0.5268154087
0.5273573693
0.5282194135
0.5275335042
0.5281430446
0.5274831741
0.5268576248
0.5275382598
0.528181002
0.5275336074
0.527414291
0.5272869186
0.5282261089
0.527363122
0.527371972
0.5281912459
0.5280122342
0.5278743673
0.5273507915
0.5280783436
0.5273955365
0.5268652421
0.5267651769
0.5279932676
0.5278849953
0.5277656864
0.5279495122
0.528220618
0.528173243
0.5275894024
0.5284825648
0.5272004464
0.5267442402
0.5274579495
0.5272735069
0.5276142252
0.5269907569
0.5268995573
0.526668212
0.5265209663
0.5271473091
0.5272421923
0.5286459579
0.5278744803
0.5278248949
0.5270927437
0.5268357823
0.5283984966
0.52726827
0.5275822571
0.5267905947
0.5274624026
0.5275369268
0.5279335955
0.5271041614
0.5273028493
0.5276957225
0.5273682016
0.5270278512
0.5270092842
0.527447572
0.5279340265
0.5271294942
0.5275922199
0.527105933
0.5264377768
0.5273775943
0.5278180894
0.527743996
0.5279925532
0.5277520479
0.5276460174
0.5269769065
0.5275823305
0.5273568737
0.528121139
0.5273176556
0.5275046405
0.52811932
0.5272251564
0.5265804996
0.5269676465
0.5281621193
0.5278768451
0.5274878273
0.526959851
0.527776356
0.528143899
0.5272011158
0.5281185589
0.527353839
0.5278058665
0.5281096461
0.5275505977
0.5276222282
0.5275946422
0.5275337907
0.5267124263
0.5273802766
0.5267494258
0.5273293832
0.5275706038
0.5274089635
0.5288310372
0.5273271487
0.5277850029
0.5282262706
0.5271602105
0.5284228118
0.5279172136
0.5280590387
0.5271299267
0.5273842401
0.527438238
0.5281231783
0.5278937253
0.5292060262
0.5287976332
0.529059526
0.5286722485
0.5278099962
0.5270613076
0.5274627202
0.5274927831
0.5276605358
0.5277313169
0.5265877613
0.5274513887
0.5277666481
0.528159003
0.5289221434
0.5274113369
0.5267059218
0.5274893045
0.5279030182
0.5287105048
0.5282422
0.527300464
0.5279789134
0.5273353465
0.5280529779
0.5273265065
0.527829508
0.5280548265
0.5277833293
0.5270414211
0.5273721677
0.5267921459
0.5268747664
0.527337261
0.527361808
0.5287872496
0.5283601829
0.5279556708
0.5289685606
0.5282101602
0.5276018623
0.5281182781
0.5291211265
0.5277995072
0.5278117983
0.5273990976
0.5279682005
0.5278489592
0.5274752047
0.5275663036
0.5268724057
0.5269129741
0.5264630842
0.5269937219
0.5269943469
0.5278319089
0.5267571633
0.5276781662
0.5275436663
0.5283449039
0.5284190221
0.5274942565
0.5274080253
0.5273150049
0.5281684778
0.5270561524
0.5273852517
0.5283708982
0.5277768158
0.5283661853
0.5279220652
0.528397252
0.5275463584
0.5277346477
0.526560738
0.5272422143
0.5276424402
0.5281488702
0.5276055619
0.5277344772
0.5277772599
0.5278197885
0.52772772
)
;
    }
    inlet
    {
        type            cyclic;
    }
    outlet
    {
        type            cyclic;
    }
    back
    {
        type            symmetry;
    }
    front
    {
        type            symmetry;
    }
}


// ************************************************************************* //
