/*--------------------------------*- C++ -*----------------------------------*\
| =========                 |                                                 |
| \\      /  F ield         | OpenFOAM: The Open Source CFD Toolbox           |
|  \\    /   O peration     | Version:  v1706                                 |
|   \\  /    A nd           | Web:      www.OpenFOAM.com                      |
|    \\/     M anipulation  |                                                 |
\*---------------------------------------------------------------------------*/
FoamFile
{
    version     2.0;
    format      ascii;
    class       volVectorField;
    location    "0.28";
    object      UMean_Ar;
}
// * * * * * * * * * * * * * * * * * * * * * * * * * * * * * * * * * * * * * //

dimensions      [0 1 -1 0 0 0 0];


internalField   nonuniform List<vector> 
1000
(
(0.1456756381 0.1337908063 0.05625542843)
(-0.05792625611 0.04788058936 -0.004912680253)
(-0.1632440498 0.04138027551 0.1526327181)
(-0.009011849199 -0.09871747069 -0.1982933168)
(-0.1421126104 -0.172084628 0.2093608675)
(0.1612499585 -0.13088949 0.08655151493)
(0.1174323745 0.140008604 0.008201716195)
(-0.1216112244 0.07016747784 0.3065644965)
(-0.00778939377 -0.08150136645 -0.1521264247)
(-0.3410248889 0.03518268959 0.09047295194)
(-0.4103869807 0.1114968144 -0.0876944997)
(-0.3981752052 -0.1395384613 0.0890294406)
(-0.3997222504 -0.2325710643 -0.08606903573)
(-0.06201183612 -0.02340276863 0.06272369787)
(-0.08065198524 -0.01436910515 -0.04350926753)
(-0.07649976808 0.1277147088 -0.08814716936)
(-0.008585487599 0.007610368744 0.1679787481)
(0.1851562055 -0.2272561048 -0.214800564)
(0.07428359801 0.1710393701 0.09201534004)
(0.05135576202 -0.138827091 -0.002468533469)
(0.1266459815 0.2482931589 0.06094998056)
(-0.2083063234 0.085228125 -0.05533922075)
(-0.1611415664 -0.3509786584 0.02402102315)
(-0.04608902763 0.05369933023 0.2207851648)
(0.04203217865 -0.1398890504 -0.02372854989)
(0.1010977352 -0.07573791463 -0.09108655582)
(0.02985933749 -0.08563024059 -0.1229186136)
(0.1114972925 0.01449639822 0.03658419252)
(0.05474724551 0.03666131287 -0.03085408868)
(0.04273500605 0.0563699427 0.2215958325)
(-0.249387681 0.01557380349 -0.05835844365)
(0.00377741407 0.02214952098 0.1570053938)
(-0.4589925837 0.2152452338 -0.02139743937)
(-0.3724188085 -0.3232408337 0.08303794965)
(-0.2399086925 -0.0775055981 0.01588795564)
(-0.1126300334 -0.03208241537 0.2901050831)
(-0.1691407117 0.01371245748 -0.1821664942)
(0.09852301238 -0.05668761434 -0.1762670455)
(0.01571344105 0.02876268699 0.08721720634)
(-0.00326860159 0.1466385596 -0.03597992946)
(-0.06190967993 -0.02023291556 -0.1331195972)
(-0.006533187706 0.1718065291 0.05866677463)
(-0.2856635394 0.08600022393 -0.1241352325)
(-0.2628028892 -0.004871518883 -0.0006300161321)
(-0.2633063696 -0.01151093922 -0.04221720324)
(-0.312781797 0.03322354943 0.02210611603)
(-0.1408839821 0.02135834642 -0.0651309697)
(0.09418120245 -0.0934489911 0.06664679396)
(0.1301421125 0.1085228101 -0.02447887077)
(0.1164192895 -0.1336617579 -0.07348948529)
(0.01144941623 0.1865057261 0.2332126864)
(-0.09074345879 -0.08508787152 -0.1855602875)
(0.04059396739 0.07725993417 0.09318817747)
(-0.3796159623 -0.07309187853 -0.002704936435)
(-0.2272759619 0.004675694722 0.05884493923)
(-0.07749253639 -0.08560680861 0.1294251566)
(0.25981809 0.0392787573 -0.0547570859)
(0.08431414255 0.01767737966 -0.0824212144)
(0.08447134554 0.05685579951 0.02655495411)
(-0.1780411714 0.07661273418 -0.04683218258)
(-0.3610459181 -0.204042193 -0.02770910968)
(-0.4045190637 0.0001993582147 -0.1615923774)
(-0.1311773407 0.1718785742 -0.0124783489)
(-0.05009809358 -0.2207237854 0.1609609089)
(0.1317073045 0.1283084858 -0.07825442815)
(-0.1192023952 0.07630622596 0.1953994964)
(-0.292642186 0.1587635492 0.1035630432)
(-0.2511563395 -0.3357886801 -0.1771608523)
(-0.0172002344 0.02454549098 0.05026087945)
(-0.09191312006 0.09927165937 0.1513829422)
(-0.1438007661 0.07089035023 -0.03729540707)
(-0.01051650438 -0.05499413024 -0.07482092431)
(-0.1186644255 -0.1089580508 0.01674532998)
(-0.224371208 -0.09545582287 0.06110132763)
(-0.360663057 0.3740986447 0.03140642351)
(-0.5167617953 -0.09736319901 0.1414624041)
(-0.2989883684 -0.007203555044 0.2412554337)
(-0.1831306337 -0.2183189611 0.03346272505)
(-0.08854951253 -0.01921899143 0.08327379985)
(-0.1894444631 0.04528012356 0.07304211983)
(-0.2442271048 -0.01538240878 0.01387866535)
(-0.1110801778 -0.06023825916 -0.07162439499)
(-0.2116790319 0.1812393344 0.05672555194)
(-0.141535845 -0.09591054876 -0.1073661893)
(-0.07819444627 -0.003206871908 -0.1694497862)
(0.1088415329 -0.2717821378 -0.1114523894)
(0.3266570319 0.002079492649 -0.2666023899)
(0.06744188203 0.218607139 0.0850815308)
(-0.1027347061 -0.01767388797 -0.07036694485)
(-0.009808509312 0.05407483785 -0.2102284209)
(0.04923516124 0.2028025884 0.07417436029)
(-0.1821095186 -0.1221065736 -0.1140512913)
(0.1211484025 -0.1622754303 0.04795469547)
(-0.04513996641 0.2078500793 0.1743237569)
(-0.1578605867 0.06798466837 0.0499602186)
(-0.4617901004 0.1303486707 -0.08126062253)
(-0.2125555222 -0.3048797162 -0.2637759205)
(-0.03257798422 0.1416833376 -0.1199107642)
(-0.4510454279 0.009410251079 -0.05386436417)
(-0.1310295674 0.01268809587 0.1215365979)
(-0.1753296747 -0.1761910913 0.2129025554)
(-0.02778852514 -0.01895842245 0.1364798012)
(0.009233995797 -0.09891086577 -0.07922667592)
(-0.02542930345 0.04758156582 0.2124441224)
(0.09845377372 -0.04872305844 0.08914220572)
(0.144543224 -0.1531975905 -0.1613117583)
(0.3840368448 0.05006652546 -0.273216241)
(0.1425836669 0.3128467366 0.1189765453)
(0.146001233 -0.03898734655 -0.06773575424)
(-0.1520232122 0.1376414036 -0.04044678096)
(-0.3102384777 0.0180813418 -0.05002408696)
(-0.1719251057 0.1981415366 0.04550481342)
(-0.414372752 0.1654746981 0.1563954405)
(-0.2339554232 -0.05807560073 -0.1849360233)
(-0.4628281853 -0.01397153053 0.1081365247)
(-0.1401366749 -0.06226370263 0.1188279535)
(-0.03592312737 0.009486294808 -0.02351747952)
(0.1278260111 0.02143813404 -0.1606328199)
(0.03362595136 -0.09688397707 -0.0589085833)
(-0.01357782538 0.02773274302 0.1209023612)
(0.1542723754 -0.07803939095 0.04595567552)
(-0.05877280928 0.2774370701 -0.06703254451)
(-0.3037272959 0.1072908912 0.2665628198)
(-0.3053660101 -0.1109517758 -0.1894027364)
(-0.1292907412 -0.1330978376 0.2085638277)
(-0.1145707687 -0.08715936186 -0.06308419967)
(-0.1969760396 0.1914934543 0.04724406786)
(-0.4613193109 0.1323754741 -0.09574657689)
(-0.3510446646 0.0009384810428 0.1700698801)
(-0.2054467831 -0.2244819722 0.06632333055)
(-0.0916608417 -0.02819934458 -0.1621919859)
(-0.04801265039 -0.1322537542 0.1703642862)
(-0.005527884835 0.1913283793 0.1051497128)
(-0.1847165378 0.02398476142 -0.2569401303)
(0.04754518206 0.07179762817 0.08684556292)
(-0.16366218 -0.08886619695 0.03910272774)
(-0.1953549844 -0.01585616327 -0.01057995788)
(0.07181577338 -0.1635888673 -0.01102729232)
(0.1026490237 -0.1635822096 -0.1024601172)
(-0.009729657811 0.09569407834 0.3649800336)
(0.05085528282 0.007964936409 -0.1356634866)
(-0.06636257073 -0.05066632256 0.07815239183)
(-0.05448478121 -0.2639246577 0.00311648649)
(0.1881347359 0.08601467464 -0.1626591855)
(0.3339635731 -0.03530496108 -0.0758849063)
(0.2433481215 0.1400700537 -0.1710234349)
(-0.006796207732 0.03892002654 0.08233030519)
(0.006926498982 0.03891225654 0.009022822308)
(0.09512089559 -0.2152657419 -0.2970295959)
(0.1466663002 0.1633911103 0.0509764389)
(0.2049947848 -0.04336345038 0.1202312028)
(0.1176693405 -0.1496341161 0.02589668158)
(0.1926126391 0.1620708843 0.018171153)
(0.03718975383 0.1253261644 0.2889215359)
(0.02757549473 -0.03708632655 -0.2253756103)
(-0.009189095141 -0.07178335674 0.08452912256)
(-0.02461618697 -0.07431586216 0.02109722924)
(0.008160384081 0.008880321448 -0.02336867541)
(0.07619907296 0.1552076876 -0.2858782108)
(-0.08511223975 0.0463435729 0.3598257177)
(-0.2277980841 -0.1548597655 -0.09503230605)
(-0.1581735183 0.03901848211 -0.06913727226)
(-0.3313226691 -0.05857886709 -0.2474026365)
(-0.2697274147 -0.05352316812 -0.06391640346)
(-0.2528708766 -0.164369329 0.2208501793)
(0.06502471316 -0.02801453738 -0.004882542084)
(-0.0006485102299 0.2072119671 0.05751709608)
(-0.2558662532 -0.02067581987 -0.08470000104)
(-0.1138085843 -0.1212206164 0.09420257456)
(0.02721960604 0.1605052352 0.1078026395)
(-0.07808977859 -0.1251858427 0.1095490489)
(-0.03943061201 0.01030622055 -0.03982129029)
(-0.1345341106 -0.02830679792 -0.03432005912)
(-0.2196001826 -0.02331331799 0.08833374661)
(-0.1873646613 -0.05352201462 -0.07792093622)
(-0.1588567011 0.02212888351 0.1563496923)
(-0.2020368142 -0.07323725977 0.03671267663)
(0.1135598493 -0.1241402635 -0.01910924732)
(-0.0810860341 0.1599947043 -0.03424464534)
(-0.3227178468 0.05247722754 -0.02329258784)
(-0.4016894361 0.01158981244 0.1794894305)
(-0.4908685195 -0.2489541589 -0.05160116891)
(-0.3553785348 0.1538620801 -0.05766571735)
(-0.07979941498 -0.2777457742 -0.1385538228)
(-0.2732140087 -0.01658925955 0.03225256903)
(-0.2503305252 -0.1239812837 0.1475470628)
(-0.08787385885 -0.1269804105 -0.05838364622)
(0.1194331953 -0.01851045763 0.04443083325)
(-0.01724816696 0.1465247673 -0.04462379134)
(0.08439470669 -0.1602244086 0.1247167271)
(0.2186254685 0.0359552195 -0.06068210117)
(-0.1554487364 0.1697090232 -0.005800413767)
(-0.1268909265 -0.04725211458 0.260908289)
(-0.128530335 -0.07296729218 -0.09390647709)
(-0.155385027 -0.006335312455 0.006577868506)
(-0.2262758745 0.168903983 -0.06873585748)
(-0.3765861893 0.08096094807 -0.2020362016)
(-0.07718051951 -0.2541277999 -0.09583171009)
(0.03471481336 -0.04932533675 0.1109849999)
(0.08774204509 -0.131983117 -0.1782810357)
(-0.006827427058 0.1594025133 0.1147551497)
(-0.05403100612 0.2143432039 0.06684732934)
(0.07215347103 0.2097260725 -0.1083055019)
(-0.07981782799 -0.324133975 0.1345602841)
(-0.07242262496 0.06834056786 -0.09303579503)
(0.06873419574 -0.3006574714 -0.03834724344)
(-0.1574302933 0.1164192466 0.07940870065)
(0.1652718406 0.04122611334 0.06095879315)
(-0.06931191843 0.1495099729 0.03217699402)
(-0.0343372103 0.3676934975 0.04325748382)
(-0.1470437803 0.06329790628 -0.02191654603)
(-0.3729781953 0.03694316303 0.01953216483)
(-0.2357946727 -0.3308144995 -0.03889690278)
(-0.09794586226 -0.3602471886 -0.1075832415)
(0.01584453477 0.1820152847 -0.05751927347)
(-0.09309753133 0.08076372393 0.1653086502)
(-0.04873768205 -0.1963284225 0.0307121412)
(-0.1523828135 -0.000820481839 0.2315374979)
(0.001477735382 -0.03932682696 0.3511199089)
(0.03651581478 -0.129493404 -0.1165192166)
(0.0873053174 0.1690796739 0.1287922773)
(0.364662887 0.002835840198 -0.1138401884)
(0.1604462775 0.2190936034 -0.3174532863)
(-0.1459990131 -0.0869860085 0.06377797448)
(-0.2127369934 -0.1635541262 -0.00659780993)
(-0.3614538216 0.2296436595 -0.1578060332)
(-0.2696143303 -0.2415960234 0.2857082642)
(-0.2296045721 0.08886701146 -0.1096707811)
(-0.5134343358 0.133771939 -0.07397104593)
(-0.1652048709 -0.133000694 -0.06527717355)
(-0.1152584694 0.05076645288 0.08602047178)
(-0.1362900624 0.1614765072 -0.02027328909)
(0.1214528108 0.2182159434 -0.1205380318)
(0.05627972818 -0.3471628146 -0.2633328446)
(0.1786556263 0.1116725214 -0.1198757718)
(-0.2454362253 -0.02933154932 0.1336838501)
(-0.1446748485 0.01804377842 -0.1155489495)
(-0.1252652784 -0.3752608766 0.1592737223)
(-0.09651504102 0.3576507063 0.120566378)
(-0.2587354715 0.07542983638 -0.0024369412)
(-0.2260603391 -0.1508883558 0.02993767377)
(-0.1542984635 0.07322850366 0.04420817373)
(-0.2801531416 0.1820111729 -0.02160497881)
(-0.2658296519 0.07844500685 0.01577714086)
(-0.05726531678 -0.2292706634 0.0655479287)
(0.05187021064 -0.03732432417 -0.1490741425)
(0.2553200807 -0.2765007639 0.2193671613)
(0.3399919236 0.07180621482 -0.08746560207)
(-0.1135925547 -0.002482052496 -0.2200894505)
(0.03574121457 -0.008955150343 0.03011137137)
(-0.1211437985 0.2305139756 -0.120273688)
(-0.1440727022 0.1343919809 -0.1901988925)
(-0.3104040176 -0.1397039183 0.05298291178)
(-0.06351986356 0.4264967923 -0.02577979347)
(-0.1715540938 -0.2302617724 -0.01804441037)
(-0.1906221244 -0.3226915294 0.05826987648)
(-0.1252517373 -0.2730668491 -0.05179200236)
(-0.2022143649 0.2303053966 0.09927952162)
(-0.07881328472 0.003732874173 -0.0540931072)
(0.1228915373 0.241241663 0.189088418)
(0.008332131062 0.07521353826 0.1313015676)
(-0.144743015 -0.0699508353 0.1604597777)
(0.1313099886 -0.1172973777 0.100165572)
(-0.2880173959 -0.1952830584 -0.122578721)
(-0.3096993201 -0.06403988775 -0.08532327351)
(0.09989702845 0.08628951197 -0.09797271102)
(0.1538191221 0.02667649186 0.090703172)
(-0.06713983633 0.165265695 -0.0673699415)
(0.06238751287 -0.3030483081 -0.01413138493)
(0.02552840371 0.1730759525 0.2602444406)
(0.0006793890904 -0.0003487783571 0.2628649305)
(-0.2032412787 0.1083904558 -0.292401995)
(0.06406889658 0.02331997125 0.1023414472)
(0.04854947946 0.1209335144 -0.1629061104)
(0.2196804028 0.3678441656 -0.07249443012)
(0.06028092823 0.02812502173 -0.09795183207)
(-0.06635562844 -0.3148066428 -0.2472494934)
(-0.0197142775 0.1379359061 0.06449890668)
(-0.3666037305 0.109144995 -0.01305184387)
(-0.01908757594 -0.3209550782 -0.06532776259)
(-0.1430312192 0.1239547876 -0.04728807658)
(-0.1089880974 0.034681709 -0.3085324494)
(-0.30314074 -0.1035379154 0.2043632742)
(-0.1769648787 -0.0395268209 -0.07715935079)
(-0.151984828 -0.1979329334 0.1315292367)
(-0.08336816797 -0.4674525749 0.4623085778)
(-0.1272557772 0.0003149458977 0.1031696002)
(-0.08547486246 0.4303777233 -0.1162086226)
(-0.08402493811 0.1401474498 0.1065223437)
(-0.2457863191 -0.1214935376 -0.1378346353)
(-0.07837405004 -0.08207610113 0.2950863451)
(0.1618716111 -0.01982795954 0.0324771258)
(-0.06589616486 -0.0427060113 -0.1057342326)
(-0.08489276805 0.179560814 0.3203843305)
(-0.2508887256 0.1683773638 -0.08120599368)
(0.1385861024 -0.09127909459 -0.06762110041)
(0.2011454385 -0.272527595 -0.155956294)
(0.04481237449 0.3710493078 0.03247033632)
(0.3225198782 -0.009178055038 0.2487662451)
(0.06580084024 -0.1688421506 -0.09881477499)
(-0.09153759494 0.1025417817 0.1890551386)
(-0.4125015762 0.06073632567 -0.09729179482)
(-0.4468008512 -0.0673141682 0.1352379146)
(-0.1319115328 -0.1636688824 0.1727637838)
(0.06637133591 -0.1870409931 -0.2969381994)
(0.1588711164 -0.1106729322 0.1035775789)
(-0.3211062453 -0.02154061441 -0.02275078224)
(-0.1487610998 0.1789313254 -0.08891854102)
(-0.1721535856 0.1935609007 -0.2238586379)
(-0.0866043153 0.3441386582 0.198301143)
(-0.07792661242 0.1213918739 -0.07429666421)
(-0.3747599496 -0.07419407477 -0.221141141)
(-0.1778931627 0.0653375933 0.2071567775)
(-0.1015197598 -0.0524169527 0.08584287732)
(0.03578642942 -0.2338005271 -0.1029972588)
(0.05928376295 -0.005458583957 0.03272297793)
(0.3397218832 -0.2731820829 -0.111409009)
(0.176021764 0.2360375918 0.1239560708)
(-0.09522178815 0.04101601183 0.06608312871)
(-0.2909414671 -0.05726940066 -0.2542031691)
(-0.1794649791 -0.02443595754 -0.1743218217)
(-0.2227812716 0.1844468704 0.1426537765)
(0.005081462167 0.2376728297 0.09208894442)
(-0.1425345394 -0.1362056333 0.01644550248)
(-0.218278316 -0.003571820679 0.1454697817)
(-0.1714708744 0.1369776061 -0.07982755657)
(-0.01349403377 0.1189847282 -0.1048749544)
(-0.07893356961 0.1489747789 0.1121650317)
(-0.2609656936 -0.1426430618 -0.273871482)
(-0.04879701564 -0.07976252597 0.2218383237)
(-0.04458202357 0.05968321921 -0.001814259868)
(-0.1197333164 -0.2718893054 -0.05630127988)
(-0.2019026045 0.3430161809 0.05425647842)
(0.05899735292 -0.2930202797 0.1454302975)
(0.08021983235 0.06029348497 0.1263978533)
(-0.03572805811 0.2163308127 -0.1758542874)
(-0.251770971 0.02987209968 0.1211858633)
(-0.3797026268 -0.2063246928 0.09984673714)
(-0.4924089938 0.04968886967 0.1017011292)
(-0.3771733307 0.136935619 -0.09949058065)
(-0.247049875 -0.0354916381 0.1280699895)
(-0.4439609419 0.1781408832 0.07831129626)
(-0.1800111735 -0.5455950506 0.0376281835)
(0.03811198876 -0.1573690248 0.06326790999)
(-0.03030024689 -0.1585150959 0.1438261758)
(-0.1548051046 0.3852357631 -0.1559873594)
(-0.2258009813 -0.05963199344 -0.04095821997)
(-0.04393124733 0.1199662006 0.174231221)
(-0.08099067148 -0.116709107 0.1721207697)
(0.007191752782 -0.1653600128 0.1229789948)
(0.135076233 0.03106308405 -0.2302340891)
(0.135151861 0.1436537462 -0.2673843022)
(-0.1882946509 0.078239255 0.09811151936)
(-0.03210519009 0.0309808273 0.03938297814)
(0.1336001243 -0.1739499878 -0.05223759646)
(0.1793885848 0.3305593131 -0.2072745957)
(0.07799475048 -0.04168106702 -0.07988753593)
(0.0227778905 -0.1087293812 0.2898286675)
(0.1849291908 0.08582384983 0.1068587683)
(-0.008246469598 0.07160351656 -0.1315762724)
(0.143320175 -0.03598192701 -0.1136372478)
(-0.01472967727 0.3361946956 0.2099790389)
(-0.10169165 0.1329991161 0.08133369684)
(0.02916773922 -0.004196015901 0.02779910304)
(-0.09729003614 -0.07245512519 0.002710035265)
(-0.46073009 -0.08092743326 0.0855910795)
(-0.2647826554 0.1796398043 -0.04619250841)
(-0.1800400641 0.1012941718 0.01642355997)
(-0.4039641776 -0.21770881 -0.1941557343)
(-0.4593587732 -0.04852297885 -0.03149792373)
(-0.2874722915 -0.1571955511 -0.1101224308)
(0.1825605639 0.03224374472 -0.1639677144)
(-0.1965415398 0.482062603 0.1034126231)
(-0.1149845679 0.05761727723 0.04205691424)
(0.05476963519 -0.3723983435 0.01722931144)
(0.01955658122 0.07441369045 0.03860581488)
(0.09516185788 -0.04685945732 -0.03875712916)
(-0.03669466403 -0.1097314173 -0.04779743437)
(-0.260784412 0.1189928128 0.04290061791)
(-0.05488091548 0.3814679197 -0.1523900615)
(-0.2320044192 -0.01893924826 -0.1310706346)
(0.1380397275 -0.2570103473 0.09683701944)
(-0.1237291144 -0.04875800252 -0.006108456589)
(-0.1068976596 0.03788654409 -0.06526196272)
(-0.05722676241 -0.1249571166 0.06246136615)
(-0.02367320641 0.2658344796 -0.1903811124)
(-0.04676969995 -0.2094690771 0.1411522312)
(-0.2226359908 -0.1171545938 0.0738013186)
(-0.1423627575 -0.1500360167 -0.07198413848)
(-0.2608318522 0.09885736784 -0.2573103041)
(-0.267527076 -0.08249626593 0.1238762835)
(-0.06400254339 0.121512959 0.1872415499)
(-0.01362516495 -0.03928840683 -0.03111335565)
(0.2089251171 -0.08187152118 -0.1869483641)
(-0.05489984626 0.08878373876 0.1043566297)
(0.1279226994 0.2121991975 0.004459745583)
(0.01557782761 -0.2398613267 -0.02102720602)
(0.03341712507 0.06219294537 0.1397332565)
(-0.159409412 -0.5037716312 -0.007319036666)
(0.2022525188 0.001856859575 0.01475060357)
(-0.178161734 -0.006817749362 0.0637917945)
(0.2713810244 0.05612184822 0.02875857785)
(0.2018897006 0.3399124367 0.1187911417)
(-0.07095554504 -0.04049597423 -0.3178819703)
(-0.1871560668 0.05782767535 0.004257929511)
(-0.4067801536 0.06469960886 0.03772870708)
(-0.2138759481 0.03377450908 -0.2556761401)
(-0.3976479453 -0.009653195955 -0.1020804214)
(-0.3842552142 0.3024258131 0.2197969329)
(0.07166703568 0.1367432376 -0.0301783627)
(0.09308973073 0.358560679 -0.2468967212)
(0.1114231192 -0.1876191295 0.0629596854)
(0.3853758163 -0.0407565776 0.1821054826)
(0.2058362547 -0.05757397498 0.293387122)
(-0.08025181984 -0.03722091523 -0.01166837614)
(0.1230085511 -0.06314251345 0.07311190985)
(-0.0222165276 -0.1628586351 -0.1174130422)
(0.1204836335 -0.1416655766 -0.02798592274)
(-0.1206022009 0.1159136946 -0.2337846768)
(-0.08313759468 0.04220396211 -0.1078253903)
(-0.1630123294 -0.1038850151 0.3071742884)
(-0.2261526759 0.1562573973 0.0186575098)
(-0.2080313518 0.2445885909 -0.04669722155)
(-0.2762539053 0.1830096418 0.1051534911)
(-0.2685393385 0.04834639048 0.149826318)
(-0.1808939743 0.1653336592 -0.08393295129)
(-0.01827863489 -0.0674070885 0.04737277164)
(-0.06042829229 -0.01648751724 -0.01798477859)
(0.08774487178 -0.07958327151 -0.05291632478)
(0.08796856121 -0.05177572441 -0.1416532014)
(0.05053748242 0.1001949617 0.05321630328)
(-0.2539664108 0.07736655304 -0.09787789731)
(-0.1781899924 0.08739485602 0.09737116558)
(0.06730393368 -0.09951511202 0.1375386)
(-0.2354270821 0.169575675 0.03928521822)
(-0.2194130377 -0.009729161164 0.1402738772)
(-0.4169301973 -0.1635754392 0.008672882976)
(-0.3634805644 -0.2658307532 0.2394055375)
(-0.5163577721 -0.1006158581 -0.00628587539)
(-0.03112235111 0.2489456545 -0.1872343743)
(0.1252184822 -0.2880662699 0.2097137453)
(0.1558518115 0.1115244156 -0.1755289252)
(-0.04220198541 0.2761881459 -0.1394895813)
(-0.02869018353 -0.1040814003 -0.1622617193)
(-0.06722478892 -0.08191022798 -0.1041736731)
(-0.2376117171 -0.2402847487 -0.009579498135)
(-0.2139553045 -0.3437633536 0.1921515644)
(-0.3163243094 0.147735706 0.1524309619)
(-0.1881217738 -0.02133983092 0.07411825686)
(-0.349290099 0.06559918589 -0.1463907438)
(-0.2762788418 0.1257731731 0.09498540205)
(-0.07342109179 0.040288395 -0.1214396263)
(-0.006738646372 0.0682076389 0.06647929875)
(-0.06701088181 0.18300782 0.07892789922)
(-0.1060367661 -0.1802867022 -0.08257912241)
(-0.28044109 -0.03844907891 0.2435055443)
(-0.6004492832 0.1164187707 -0.0783678101)
(-0.2740965933 0.01262017257 -0.03302166532)
(-0.2527213234 -0.2241567392 -0.07904360418)
(0.03806633056 -0.01010279269 -0.1009721086)
(0.2227142897 0.2842891825 -0.1218403631)
(0.1598274637 0.1175415302 -0.1385558722)
(-0.09296803305 0.01700662364 0.07826216471)
(-0.1970210696 -0.06797524198 -0.1509477597)
(-0.3242404469 -0.06048740373 -0.02722048765)
(-0.07224991248 -0.1213605928 0.2682205265)
(-0.08105373614 0.1686075139 -0.1777511073)
(-0.03632838594 -0.03879362215 0.1097122979)
(-0.1369316233 -0.4279352726 0.03972353631)
(-0.005158373307 0.1379175069 -0.0119403519)
(-0.1316527947 0.1886620733 0.04118449388)
(-0.1362830352 0.08107425637 -0.07749689519)
(-0.3116204832 0.06560297045 0.188374944)
(-0.2024857798 -0.1197896933 -0.03345321751)
(-0.05684915373 -0.001545447359 -0.1115785191)
(0.2928879711 -0.1148227871 -0.1250300043)
(0.199878539 -0.1081220707 0.2120220852)
(0.04513867292 0.1671604359 0.04272803002)
(0.3196596789 0.1569269395 0.0669246219)
(0.1724270306 0.03539577129 0.1767555089)
(-0.3524320386 0.04568431642 -0.02302504509)
(-0.2515629851 -0.002489913033 0.1960475114)
(-0.02228059331 0.1138241286 0.1143826851)
(-0.01927172638 -0.1171962947 -0.04943345491)
(0.2534777414 -0.2260263507 -0.09635842635)
(-0.03414680232 0.005950687852 -0.08796094972)
(-0.2672155705 0.1365807729 -0.03589506134)
(-0.05784861101 -0.01670956985 0.1015357728)
(-0.315342321 0.2101454826 -0.2313906312)
(-0.08730069897 -0.08441989385 -0.1160246096)
(-0.02321722172 -0.2074566307 -0.0290541056)
(-0.1496404677 0.06814060041 -0.1019642018)
(-0.142150358 0.01724202469 0.1218515793)
(-0.1162794751 0.3332038315 0.02044124906)
(0.1276541457 -0.1444072989 0.01534591325)
(0.2064896088 -0.10706116 -0.2672378028)
(-0.2255807388 -0.3110568801 -0.09425398209)
(-0.008727455025 0.1019116502 -0.08849506063)
(0.209866189 0.08053611081 0.1429904599)
(-0.1181526728 0.2513223852 -0.06173943621)
(-0.2451773174 -0.003855209035 0.05350981733)
(-0.1988425463 0.2958363116 0.009055816859)
(-0.0797995063 -0.3101774078 -0.04018700615)
(-0.2020105899 -0.06251175572 -0.1120382568)
(-0.3012926752 -0.2576231166 -0.02991808031)
(-0.2893585746 0.127738059 -0.04763154981)
(-0.4411385033 0.4074874515 -0.03463855041)
(-0.2993643925 -0.348406334 0.10297239)
(0.01270132877 0.08968127147 0.167843029)
(0.1204636999 0.1587504215 -0.175847336)
(0.2363615785 0.07202432436 -0.08233053967)
(0.2932319067 0.2816528458 0.1028241414)
(0.215837889 -0.159878727 -0.157467749)
(-0.03791872424 -0.1067315326 -0.2741044191)
(0.1814146121 -0.05720554597 0.08718259587)
(0.2367501724 -0.3021349101 -0.1265981451)
(-0.1991771609 -0.3658524071 0.2846413208)
(-0.05837339923 0.2331094756 0.03413813801)
(0.07143325125 0.3358639766 -0.07373464024)
(-0.09047542099 0.01250237516 0.05406028563)
(-0.183748428 -0.1246011091 0.01585404891)
(-0.1455176146 0.09091316426 -0.06008025571)
(0.006746964822 0.1275380174 0.01864362361)
(0.05935792943 0.1385508356 -0.0371781371)
(-0.03748224921 -0.1693625766 -0.216383751)
(0.0143614082 -0.3133971782 0.08373540621)
(0.06048180369 0.1179494193 -0.2278413809)
(0.04544233136 0.2926989392 -0.2161820196)
(0.02111421316 0.002380397033 -0.101904135)
(-0.1897422041 -0.3087844717 -0.0008289678057)
(-0.01327369758 0.01101731052 0.2619796656)
(-0.1667687174 0.07597585659 -0.09342204159)
(0.0238890193 -0.1247943117 -0.2144393296)
(-0.06343967219 -0.2253057348 0.0601308725)
(-0.1196536499 0.200887722 0.154615017)
(-0.03238789316 0.1132811555 0.0677861001)
(-0.01076717781 0.09622245636 0.1048295742)
(-0.1895096214 -0.009667054069 0.1123937525)
(-0.2100367257 0.1661756286 0.02755814462)
(-0.2130804377 -0.1871440419 -0.1506010098)
(-0.3172344238 0.1209264926 0.05095764935)
(0.1071386167 -0.08290942334 -0.2297524099)
(-0.001246967091 -0.4148037967 0.09955266214)
(0.09716307252 -0.2402897638 0.2780346624)
(-0.2058208468 0.2939489972 -0.1383022285)
(-0.1621903181 0.2165872293 0.1315294554)
(-0.0763847757 0.127945735 -0.1184445948)
(-0.3078985506 0.059859824 -0.02554574254)
(-0.1811339227 -0.2845820311 0.01082945322)
(-0.3846718796 -0.088121383 -0.1903527998)
(-0.6045326388 0.004170003975 0.1016595859)
(-0.6600180359 0.09535781518 0.2237062717)
(-0.4437708374 -0.03933755298 -0.1776634824)
(-0.3130527378 -0.09512792801 -0.007677377057)
(-0.1179139279 -0.1546431702 0.07089645623)
(-0.2242505224 0.2273549993 -0.05918247128)
(-0.1331404714 -0.3686726164 -0.04393590964)
(0.2309778911 0.01580512947 0.05381937486)
(-0.03886403373 0.1196441117 -0.0104321454)
(0.05112862382 0.1961359212 -0.03175885865)
(-0.2126546613 -0.1688550889 0.01548981072)
(0.02194609592 0.4383996012 -0.002748623796)
(-0.06645826323 -0.05240788341 0.03698070292)
(-0.3546989645 -0.07266377152 0.01947461451)
(-0.205453769 0.4229417682 -0.2258683699)
(-0.2519117949 -0.07023031456 -0.01069805928)
(-0.0534035997 -0.1195575639 -0.0131389898)
(0.09250341076 0.05791133975 0.02102336332)
(-0.03694101264 -0.07568153871 0.1952184824)
(0.1294994558 0.03769025522 0.2074577589)
(0.0283669117 -0.2146166664 0.09098743135)
(-0.1357667275 -0.1940151778 -0.3264781227)
(-0.01297930033 0.09658869807 -0.1419308223)
(0.3627539638 -0.1312831845 0.1844555382)
(0.1479263489 -0.1214993767 -0.02860306782)
(0.1517794845 -0.1642586062 -0.1082252599)
(0.06811846295 0.00295742748 0.03181704415)
(0.0321068256 0.155890496 -0.2192629064)
(0.1595022589 0.1343574372 -0.06897049267)
(0.01371718245 0.1649007238 -0.02332428795)
(0.3138767392 0.02052240501 -0.09390832908)
(-0.1852684452 -0.1397030258 -0.04090153109)
(0.09981596676 0.2236331942 0.01984930898)
(-0.1034889458 -0.1242889952 -0.04142876842)
(-0.002780546284 -0.2815434835 -0.006292331421)
(-0.06104554292 -0.05144057078 0.02368705866)
(0.01227151381 0.01463772153 0.1148683954)
(0.007913721033 0.1104030691 0.05195158585)
(-0.0881678506 -0.2526688785 0.01254888745)
(0.03485477555 -0.0100798414 -0.2034998355)
(-0.02816665088 0.1034314431 -0.08494231873)
(0.01490198411 -0.09008380273 0.02624250098)
(0.09875821987 0.01259192789 -0.161326291)
(-0.221055604 0.1166350939 0.2595025114)
(0.08816118208 0.2248421233 -0.2024696472)
(-0.2391791687 0.1960520246 -0.132904548)
(-0.2632670231 -0.169637076 0.1254349232)
(0.007030844929 -0.2133762851 -0.1651826263)
(-0.330826291 -0.1236968229 -0.2661267323)
(-0.1774395337 -0.2254017975 0.08084296382)
(-0.1495813954 0.1628803226 0.01455546)
(-0.415322906 -0.1304126841 0.01556603705)
(-0.2721970436 0.1874611805 -0.1868236411)
(-0.2370615941 0.3429457734 0.1328945808)
(-0.3204440522 -0.05485820634 0.1086190123)
(-0.2901415506 -0.013943612 0.2080740919)
(-0.0458449377 -0.08628277322 0.2492701732)
(-0.2123742361 0.1857315685 0.05057318669)
(-0.290835854 0.1550352981 0.06825740573)
(-0.1470645853 -0.3316201496 -0.02967853276)
(0.1088595687 0.02167033202 0.1182648809)
(-0.05316745321 -0.1461677196 0.04218072128)
(-0.0694456964 -0.2018504738 -0.11362687)
(-0.2516225344 -0.1765855813 -0.0807631871)
(0.01196046576 0.06822365939 -0.0986768639)
(-0.1460757316 0.1589602158 -0.09406173839)
(-0.3212224202 -0.02883224934 0.1833538698)
(-0.4304029103 -0.0467559334 -0.0991193478)
(-0.2767836656 -0.181362649 0.05542635254)
(-0.140701498 0.1582641712 0.06541963598)
(-0.3729838467 0.04563997896 -0.06542434399)
(-0.2461384414 0.01708707187 0.3531512642)
(-0.008586721574 -0.06934547794 -0.2818152299)
(0.1628134378 0.04529260557 0.02703709566)
(-0.09044719584 0.02470121017 -0.08337775855)
(-0.0566392079 -0.04313207213 0.01565807782)
(-0.2162344972 -0.009350818136 -0.190527285)
(-0.01685871843 -0.04899394695 -0.04839415256)
(-0.0003864533661 -0.3280249108 -0.005973652468)
(0.1220479715 -0.0223731442 0.01045727055)
(-0.07972074653 0.3115619757 0.05157645442)
(-0.127762797 0.04900910482 0.1033957965)
(-0.2422803935 -0.1458855397 0.09736433879)
(-0.07961057548 -0.02629292088 0.04614099577)
(-0.01070037938 0.0394173781 -0.07382316803)
(0.1807474087 0.2695209893 -0.2965441463)
(-0.0521877986 -0.05189692718 -0.1134501488)
(-0.0310450557 0.0410978424 0.1080737523)
(0.04183722924 -0.2775284834 -0.03596493421)
(0.2633346792 -0.1871481256 -0.1488137904)
(0.02102757663 -0.0828028388 -0.1299435905)
(0.02506139362 0.109157248 0.06402793674)
(0.1712136005 0.4352200987 0.005927544927)
(0.2272534374 -0.2315012473 0.0171388273)
(0.1769481352 0.06475631585 0.2531199912)
(0.1581639107 -0.2647136541 -0.1232010512)
(-0.1751074744 -0.1728480835 -0.001893551934)
(0.0403436004 0.1225797448 0.07363905572)
(-0.1574177657 0.05725956171 0.02972419546)
(-0.07550387211 -0.004288882301 -0.2442097308)
(-0.218193214 0.2053905218 0.07319981926)
(-0.2441604852 -0.08739674172 0.1848805681)
(-0.1110768812 0.1542197463 -0.1514672394)
(0.04969752312 0.173373939 -0.06533733692)
(-0.06696426052 -0.1632755936 0.2110313436)
(-0.01442221896 0.1431440025 -0.09663430378)
(0.1290156419 -0.2429828279 -0.03074651932)
(-0.1873825564 0.02204156662 -0.02186279285)
(-0.1830115474 -0.4153079427 0.05066267393)
(-0.393106796 0.1139260714 0.0303681462)
(0.005610491808 0.08982440777 -0.05833926522)
(-0.107861143 0.09424529848 -0.04543287309)
(-0.01163362504 0.1139246984 0.1862559238)
(-0.04506127194 0.2457249688 0.08969984469)