/*--------------------------------*- C++ -*----------------------------------*\
| =========                 |                                                 |
| \\      /  F ield         | OpenFOAM: The Open Source CFD Toolbox           |
|  \\    /   O peration     | Version:  v1706                                 |
|   \\  /    A nd           | Web:      www.OpenFOAM.com                      |
|    \\/     M anipulation  |                                                 |
\*---------------------------------------------------------------------------*/
FoamFile
{
    version     2.0;
    format      ascii;
    class       volScalarField;
    location    "0.28";
    object      variableHardSphereMeanFreePath_Ar;
}
// * * * * * * * * * * * * * * * * * * * * * * * * * * * * * * * * * * * * * //

dimensions      [0 1 0 0 0 0 0];


internalField   nonuniform List<scalar> 
1000
(
0.009515485587
0.009526440808
0.009508840371
0.009518729806
0.009497400849
0.009505063885
0.009505780644
0.009494697437
0.009503095929
0.009487631411
0.009472288671
0.009484974126
0.009496634387
0.009507191048
0.009492629013
0.00945820194
0.009497709558
0.009494143118
0.009497621968
0.00949391407
0.009484481822
0.009486805157
0.009494854242
0.009495509817
0.009498999272
0.009498881084
0.009507001465
0.009495505755
0.009485654872
0.009488917739
0.009513226797
0.009497773842
0.009490009127
0.009482379228
0.009485886573
0.009501944524
0.009490766717
0.00951141497
0.009499482973
0.009509666632
0.009497999148
0.009501508091
0.009511369501
0.009501084092
0.009506183869
0.009511773365
0.009507690022
0.009513904201
0.009510552461
0.009495076362
0.009506865567
0.00950904679
0.009525902359
0.009502938893
0.009500682674
0.009495701277
0.009517480395
0.009525652762
0.009529046269
0.009536421635
0.009522125077
0.00951278091
0.009529971179
0.009505235268
0.009537617787
0.009528684624
0.009493035469
0.00950207032
0.009523778704
0.009526595359
0.009525712893
0.009537899203
0.009535044363
0.009537904524
0.009557690971
0.009549670092
0.009531170543
0.009504498537
0.009541881059
0.009539656719
0.009528561989
0.009527743246
0.009523700305
0.009540125563
0.009554187579
0.009536646885
0.0095347726
0.009537423382
0.009552391348
0.009541491342
0.009538421231
0.009535243324
0.00953222767
0.009535090131
0.009571087349
0.009564773786
0.009550549483
0.009558742468
0.0095578473
0.009534474649
0.009541501453
0.009544914407
0.009548801084
0.009545425408
0.009522169485
0.009538307457
0.009542177512
0.009537495675
0.009549487159
0.009536791106
0.009517554994
0.00951452324
0.00952275366
0.009524262285
0.009528367536
0.009548590823
0.009551515642
0.009522903333
0.009538993139
0.009549954756
0.009553600565
0.009550616294
0.009540792595
0.009523618103
0.009533962009
0.009535522693
0.009548790434
0.009553131867
0.009551556851
0.009537963986
0.009535665593
0.009532251779
0.009544772668
0.009542969868
0.009540371896
0.00955103597
0.00955464266
0.009510298371
0.009536368318
0.009541857079
0.009524991644
0.009521559519
0.009527764044
0.009538575282
0.009532745471
0.009528190676
0.009533697475
0.009535325325
0.009538022128
0.009526561992
0.009527902054
0.009532581076
0.009538234748
0.009527416772
0.009525522812
0.009506386735
0.009537871738
0.009546819584
0.00954978201
0.009520929422
0.009509844312
0.009494003051
0.009539732816
0.00953146147
0.009510191277
0.009516077097
0.009512037788
0.009511920864
0.009512192721
0.009538773581
0.009514322582
0.009532434927
0.009514148026
0.009505202114
0.009551231028
0.009507585381
0.009494006694
0.009515972117
0.009524196542
0.009534205381
0.009514652481
0.009497717631
0.009512786237
0.009503604429
0.00951065691
0.009503617755
0.009501335291
0.009506905267
0.009519333842
0.00951853217
0.009495560269
0.009490853859
0.009514067088
0.009500011002
0.00952762249
0.009493790593
0.009488751822
0.009494330845
0.009492477058
0.009517904831
0.009496602109
0.009509883659
0.009513115871
0.009506776469
0.00948896815
0.009506322927
0.009508548793
0.009487902249
0.009494505153
0.009491868506
0.009482151763
0.009483584126
0.009480381097
0.009517792101
0.009487138078
0.00949015563
0.009498974017
0.009490738884
0.009484764874
0.009478205604
0.009495162901
0.009528534892
0.009499505125
0.009507422439
0.009511891965
0.009525587823
0.009483364157
0.009480661381
0.009481246456
0.009475332711
0.009487954074
0.009467306559
0.009485072338
0.009472979479
0.009506955669
0.00949937481
0.009499967803
0.009506072894
0.009520184127
0.009500890151
0.009508250457
0.009496717366
0.009505845316
0.009503647809
0.009519012595
0.00951415572
0.009515347606
0.009511538809
0.009503720997
0.00951973293
0.009507745611
0.009497065944
0.009500777591
0.009504137304
0.009505094095
0.009494830661
0.009507085099
0.009520840228
0.009537310607
0.009537994868
0.009553710021
0.009540389436
0.009536797796
0.009525763989
0.009527766056
0.009536920035
0.009521788324
0.009517814302
0.009522891206
0.009537299558
0.009545899962
0.009543472748
0.009532190003
0.009531320662
0.009535250986
0.009534197277
0.009532966609
0.009524917419
0.009535058593
0.009529097944
0.009534445527
0.009531176121
0.009529534595
0.009531749152
0.009552033244
0.009546801871
0.009537365974
0.009544687957
0.009535368289
0.009536973688
0.009536874914
0.009532397709
0.009530720946
0.00956615566
0.009547882168
0.009540678952
0.009554285793
0.009553643327
0.009546057152
0.009547266884
0.009538277501
0.009556322192
0.009555911001
0.009541308448
0.00955022412
0.009546557649
0.009551843898
0.009547551336
0.009521317479
0.009517460604
0.009530324457
0.009529890281
0.009535498635
0.009534133597
0.009548166106
0.009555954075
0.009545948249
0.009528430798
0.009539622461
0.00954626611
0.009543544681
0.009542478973
0.009547549243
0.009546804354
0.009536232273
0.009547309097
0.009539478509
0.00953885781
0.00955366764
0.009534363177
0.009532928498
0.009530618598
0.00953773619
0.009537814555
0.009538419634
0.009553373619
0.009527194943
0.009532547576
0.009543915695
0.009540330999
0.00952865412
0.009510225154
0.009526209976
0.0095521057
0.009543779737
0.009540485426
0.009523966299
0.009534909383
0.009532625216
0.009537213475
0.009517576276
0.009521287428
0.009509471854
0.00952517704
0.009517565013
0.009522368321
0.009532966679
0.009546398226
0.009518037351
0.009523921665
0.00950938358
0.009515627375
0.009521992879
0.009533686128
0.009523435249
0.009524576384
0.009524777938
0.009512702904
0.009521549475
0.009497175749
0.009518134729
0.009505959382
0.009506129277
0.009518658794
0.009516591694
0.009503993892
0.009512279537
0.009502840314
0.009510169372
0.009520193847
0.00951393822
0.009510992219
0.00951697466
0.009503154725
0.009490875453
0.009509818376
0.009508658351
0.009516647457
0.009516765261
0.009530668179
0.009501281869
0.00950773999
0.009502739426
0.009509012257
0.009525826421
0.009519737432
0.009513130364
0.009527983792
0.009507860189
0.009498334424
0.009504014995
0.009503120318
0.009507114345
0.009514080951
0.009517174241
0.009531589916
0.009523331539
0.009514849453
0.009502985984
0.00948789885
0.009460259998
0.009477589859
0.009470411983
0.009485286535
0.009491141498
0.00949639093
0.009488095005
0.009485242383
0.009480300631
0.009491425061
0.009514007214
0.009517467952
0.009492558608
0.009504089093
0.009488104662
0.009487799406
0.009499064424
0.009487685827
0.009522448337
0.009492861574
0.009477281572
0.009491004304
0.009489026001
0.009502182277
0.009489343926
0.009488084191
0.009510839801
0.009510514489
0.009500992518
0.009483616542
0.009513894307
0.009513484336
0.009511034088
0.009502051116
0.009510942418
0.009513170663
0.009522507016
0.009506361531
0.00949615697
0.009512049416
0.009509682921
0.009507727828
0.009503796267
0.009485513539
0.009493415482
0.009512311967
0.00949240566
0.009517146254
0.009526960083
0.00953235268
0.009521544971
0.009531764034
0.009541393753
0.009527574671
0.009539413859
0.009526867895
0.009528100705
0.009504731081
0.009527438798
0.009509559377
0.009536966504
0.009538598823
0.00954310218
0.009542124006
0.009538214861
0.009531840285
0.009538991636
0.009546648223
0.00951757023
0.009545796962
0.009526947665
0.009519267167
0.009529877171
0.009532575253
0.009530667307
0.009535084019
0.009553387748
0.009561313308
0.00952914091
0.009545230103
0.009538112396
0.00955069449
0.009543120773
0.009553149587
0.009556096814
0.009526191406
0.009545671786
0.009537387867
0.009556061637
0.009550891129
0.009542420672
0.009544195352
0.009544041403
0.009560347251
0.009558630904
0.009531125971
0.009516688457
0.009543104762
0.00953083816
0.009524847052
0.009532584843
0.009536419594
0.009531161555
0.009535284512
0.009538864381
0.009547686782
0.009547817359
0.009526908856
0.009550855728
0.009537411536
0.009547235372
0.009548748925
0.009534981081
0.009532938776
0.009523556512
0.009531876899
0.009526817987
0.009539165066
0.009552411792
0.009527696474
0.009535725169
0.009533416952
0.009524641525
0.009532434473
0.009528363629
0.009542509779
0.009519265196
0.009517123416
0.009531751272
0.009534651849
0.00953425177
0.009518221436
0.009520020514
0.00951587142
0.009522832648
0.00950155145
0.009525313669
0.009539820286
0.009533411641
0.009549302029
0.009520919024
0.009515797439
0.009516881501
0.009514472226
0.009527756134
0.00952818752
0.009522300018
0.009524325506
0.009513913678
0.009517695016
0.009507684458
0.009513891357
0.009539402828
0.009515274438
0.009528662646
0.009528219534
0.009526978461
0.009533665875
0.009509358309
0.009502278095
0.009500807012
0.009512878617
0.009516983899
0.009511498705
0.009531113807
0.009525872371
0.009538519889
0.00952438132
0.00952178326
0.009502853629
0.009505581738
0.009522634754
0.009513299124
0.009517213986
0.009520710071
0.009503303601
0.009538592509
0.009528163414
0.009515079163
0.009515718605
0.009501844829
0.00951627149
0.009515724429
0.009525697
0.00949645867
0.009500954776
0.009507971037
0.009537612355
0.009514473963
0.009484715429
0.009521321051
0.009515120597
0.009506426948
0.009511984855
0.009519049092
0.009517372603
0.009518701381
0.009508245749
0.009499709583
0.009489302492
0.009489974583
0.00948775027
0.009480050455
0.009491564732
0.009499192396
0.009502301257
0.009501059267
0.009508651437
0.009488143094
0.009494874919
0.009520312326
0.009496780357
0.009509609626
0.009507361962
0.009481039682
0.009489507988
0.009486443995
0.009499232523
0.009500889155
0.009481112095
0.009504706776
0.00949635523
0.009499585196
0.009483539666
0.009483377056
0.009493095241
0.009512767022
0.009516198877
0.009496482956
0.009502452029
0.009503050052
0.009514105648
0.009524277955
0.009526852435
0.009516748112
0.009517776211
0.009519788659
0.009510576682
0.009487682877
0.009491675806
0.009523511233
0.009522099983
0.00950112665
0.009471215889
0.009510915169
0.00954000322
0.009510057828
0.009505763484
0.00953898537
0.009529911623
0.009509251516
0.009516095506
0.009543374423
0.009539097253
0.009526714474
0.009527324014
0.009534702255
0.00950578601
0.009513712332
0.009517504401
0.009544342664
0.00952293278
0.009543374116
0.009537668773
0.009539170766
0.009522172023
0.009528989991
0.009531176664
0.009510320999
0.00951962648
0.009521391089
0.00954414122
0.009534653831
0.009539943497
0.009533386218
0.00955736265
0.009541694715
0.009548898451
0.009535728597
0.009540509969
0.009562146391
0.009552118629
0.009550284234
0.009552589542
0.009556483223
0.009560300525
0.009549560799
0.009545992587
0.009546629517
0.009534330871
0.009552172349
0.009542019262
0.009541526771
0.009558991946
0.009532296034
0.009546915232
0.009532787156
0.009552347497
0.009541598351
0.009537447956
0.009535979409
0.009521395298
0.009541644267
0.009534819113
0.009515921354
0.009531380086
0.009533816323
0.009536950211
0.009529152763
0.009526207354
0.009537782922
0.009542952994
0.00955792231
0.00953335109
0.00953745152
0.009534906494
0.009527205235
0.009546443503
0.009556150363
0.009532681429
0.00954105379
0.009511697718
0.009531211873
0.009535813968
0.009517990302
0.009510852511
0.009522891737
0.009522379319
0.009510640821
0.009526585805
0.009531819853
0.009515237515
0.009509422731
0.009523276158
0.009515288581
0.009515948713
0.009545879849
0.009526194463
0.009530507447
0.009525234688
0.009523613659
0.009518796972
0.00952055374
0.009515561402
0.009539165574
0.009564654417
0.009531934519
0.009524889281
0.009522019871
0.009500114519
0.009497885966
0.00953094677
0.009521199649
0.009535877971
0.009534352196
0.009520591396
0.009517726259
0.009514511895
0.009507374329
0.009494556031
0.009481809842
0.009501672838
0.009507604452
0.00951081801
0.009503570365
0.009526923082
0.009529628119
0.009526920904
0.009514871037
0.009525495549
0.009500117899
0.009508874386
0.009518715648
0.009510194235
0.009526008162
0.009513904455
0.009494351326
0.009494955612
0.009505506719
0.00950693718
0.009496490269
0.009516481191
0.009512085598
0.009503508294
0.00949774675
0.009488503917
0.009494818903
0.009507499997
0.009516302672
0.009512105413
0.009510075296
0.009511602804
0.00952501388
0.009500786742
0.0095030638
0.009486562872
0.00951092716
0.009516700935
0.00952966541
0.009510716497
0.009502538058
0.009489256384
0.009479859619
0.009476199858
0.009507247415
0.009488551804
0.009483374492
0.009510170922
0.00948308168
0.009493216869
0.009506439344
0.009510629983
0.009518753156
0.009504085603
0.009498688777
0.009487664299
0.00948475439
0.009491743622
0.009493593183
0.009475686298
0.009502606268
0.009496363067
0.009492795841
0.009505673203
0.009482334787
0.009506327428
0.009497541032
0.009510656325
0.009511024784
0.009527997496
0.009511111173
0.009507989814
0.009515834515
0.009500647673
0.009520653591
0.009504866209
0.009526976485
0.009514473391
0.009503244621
0.009512917402
0.009510914149
0.009520754237
0.009510726037
0.009509567081
0.009493682431
0.009529224291
0.009506865245
0.009508267362
0.009511214037
0.009519005136
0.009527765488
0.009534659915
0.009537328127
0.009546110058
0.009515233672
0.009543735848
0.009534496441
0.009520361019
0.009520219075
0.009522717683
0.00952117176
0.009547012817
0.00953559533
0.009534389732
0.009528820267
0.009538405783
0.009528242143
0.009534421407
0.009533920868
0.009504941404
0.009512574193
0.00952958767
0.009528686664
0.009503380532
0.00952522756
0.009556803058
0.009558181452
0.009541999633
0.00953872543
0.009560533198
0.009539272748
0.009542047621
0.009554513996
0.009552043002
0.009542848955
0.009535809365
0.009553117147
0.009546381988
0.009562476921
0.009545167034
0.009559325975
0.009546729926
0.009553056471
0.009552023375
0.009525646289
0.009543420284
0.009531024187
0.0095411862
0.009550221091
0.009532966009
0.009530001015
0.00953512448
0.009547504913
0.009534504251
0.00954987505
0.009540831113
0.009542742906
0.00951483018
0.009529766866
0.009530024573
0.009528304715
0.009544497187
0.009547581914
0.009533190808
0.009553933501
0.009548034455
0.009552353497
0.009552916249
0.00955858227
0.009554002556
0.009523749019
0.009528291222
0.00951755821
0.009537380377
0.009524735277
0.009529051548
0.009518700828
0.009513109651
0.009530409625
0.009508999121
0.009528273048
0.009534823038
0.009530783104
0.009532012883
0.009520946448
0.009524369211
0.009528429014
0.009534408126
0.009542293597
0.009518647521
0.009549816343
0.00956342219
0.009524936043
0.009527356368
0.009526651597
0.009522490336
0.009538692016
0.009527599117
0.009520171425
0.009497177982
0.009515740092
0.009514708473
0.009514346644
0.009522142827
0.009539186883
0.009524252912
0.009507312173
0.009521263696
0.009503496575
0.009530670185
0.009521051451
0.009510704754
0.009487470075
0.009498166195
0.009504596113
0.009515540788
0.009526594726
0.009505266031
0.009515644572
0.009521803401
0.009513689177
0.00950796725
0.009513120178
0.009509461699
0.009495232533
0.009497566262
0.009490937134
0.00950694865
0.009512994558
0.009516735893
0.009493719908
0.009514005481
0.009519404621
0.009507833785
0.009501598091
0.00951508705
0.009513924776
0.009500497906
0.00949574855
0.009507822998
)
;

boundaryField
{
    bottom
    {
        type            calculated;
        value           nonuniform List<scalar> 
200
(
0.009515485587
0.009526440808
0.009508840371
0.009518729806
0.009497400849
0.009505063885
0.009505780644
0.009494697437
0.009503095929
0.009487631411
0.009472288671
0.009484974126
0.009496634387
0.009507191048
0.009492629013
0.00945820194
0.009497709558
0.009494143118
0.009497621968
0.00949391407
0.009484481822
0.009486805157
0.009494854242
0.009495509817
0.009498999272
0.009498881084
0.009507001465
0.009495505755
0.009485654872
0.009488917739
0.009513226797
0.009497773842
0.009490009127
0.009482379228
0.009485886573
0.009501944524
0.009490766717
0.00951141497
0.009499482973
0.009509666632
0.009497999148
0.009501508091
0.009511369501
0.009501084092
0.009506183869
0.009511773365
0.009507690022
0.009513904201
0.009510552461
0.009495076362
0.009506865567
0.00950904679
0.009525902359
0.009502938893
0.009500682674
0.009495701277
0.009517480395
0.009525652762
0.009529046269
0.009536421635
0.009522125077
0.00951278091
0.009529971179
0.009505235268
0.009537617787
0.009528684624
0.009493035469
0.00950207032
0.009523778704
0.009526595359
0.009525712893
0.009537899203
0.009535044363
0.009537904524
0.009557690971
0.009549670092
0.009531170543
0.009504498537
0.009541881059
0.009539656719
0.009528561989
0.009527743246
0.009523700305
0.009540125563
0.009554187579
0.009536646885
0.0095347726
0.009537423382
0.009552391348
0.009541491342
0.009538421231
0.009535243324
0.00953222767
0.009535090131
0.009571087349
0.009564773786
0.009550549483
0.009558742468
0.0095578473
0.009534474649
0.009541501453
0.009544914407
0.009548801084
0.009545425408
0.009522169485
0.009538307457
0.009542177512
0.009537495675
0.009549487159
0.009536791106
0.009517554994
0.00951452324
0.00952275366
0.009524262285
0.009528367536
0.009548590823
0.009551515642
0.009522903333
0.009538993139
0.009549954756
0.009553600565
0.009550616294
0.009540792595
0.009523618103
0.009533962009
0.009535522693
0.009548790434
0.009553131867
0.009551556851
0.009537963986
0.009535665593
0.009532251779
0.009544772668
0.009542969868
0.009540371896
0.00955103597
0.00955464266
0.009510298371
0.009536368318
0.009541857079
0.009524991644
0.009521559519
0.009527764044
0.009538575282
0.009532745471
0.009528190676
0.009533697475
0.009535325325
0.009538022128
0.009526561992
0.009527902054
0.009532581076
0.009538234748
0.009527416772
0.009525522812
0.009506386735
0.009537871738
0.009546819584
0.00954978201
0.009520929422
0.009509844312
0.009494003051
0.009539732816
0.00953146147
0.009510191277
0.009516077097
0.009512037788
0.009511920864
0.009512192721
0.009538773581
0.009514322582
0.009532434927
0.009514148026
0.009505202114
0.009551231028
0.009507585381
0.009494006694
0.009515972117
0.009524196542
0.009534205381
0.009514652481
0.009497717631
0.009512786237
0.009503604429
0.00951065691
0.009503617755
0.009501335291
0.009506905267
0.009519333842
0.00951853217
0.009495560269
0.009490853859
0.009514067088
0.009500011002
0.00952762249
0.009493790593
0.009488751822
0.009494330845
0.009492477058
0.009517904831
)
;
    }
    top
    {
        type            calculated;
        value           nonuniform List<scalar> 
200
(
0.009510075296
0.009511602804
0.00952501388
0.009500786742
0.0095030638
0.009486562872
0.00951092716
0.009516700935
0.00952966541
0.009510716497
0.009502538058
0.009489256384
0.009479859619
0.009476199858
0.009507247415
0.009488551804
0.009483374492
0.009510170922
0.00948308168
0.009493216869
0.009506439344
0.009510629983
0.009518753156
0.009504085603
0.009498688777
0.009487664299
0.00948475439
0.009491743622
0.009493593183
0.009475686298
0.009502606268
0.009496363067
0.009492795841
0.009505673203
0.009482334787
0.009506327428
0.009497541032
0.009510656325
0.009511024784
0.009527997496
0.009511111173
0.009507989814
0.009515834515
0.009500647673
0.009520653591
0.009504866209
0.009526976485
0.009514473391
0.009503244621
0.009512917402
0.009510914149
0.009520754237
0.009510726037
0.009509567081
0.009493682431
0.009529224291
0.009506865245
0.009508267362
0.009511214037
0.009519005136
0.009527765488
0.009534659915
0.009537328127
0.009546110058
0.009515233672
0.009543735848
0.009534496441
0.009520361019
0.009520219075
0.009522717683
0.00952117176
0.009547012817
0.00953559533
0.009534389732
0.009528820267
0.009538405783
0.009528242143
0.009534421407
0.009533920868
0.009504941404
0.009512574193
0.00952958767
0.009528686664
0.009503380532
0.00952522756
0.009556803058
0.009558181452
0.009541999633
0.00953872543
0.009560533198
0.009539272748
0.009542047621
0.009554513996
0.009552043002
0.009542848955
0.009535809365
0.009553117147
0.009546381988
0.009562476921
0.009545167034
0.009559325975
0.009546729926
0.009553056471
0.009552023375
0.009525646289
0.009543420284
0.009531024187
0.0095411862
0.009550221091
0.009532966009
0.009530001015
0.00953512448
0.009547504913
0.009534504251
0.00954987505
0.009540831113
0.009542742906
0.00951483018
0.009529766866
0.009530024573
0.009528304715
0.009544497187
0.009547581914
0.009533190808
0.009553933501
0.009548034455
0.009552353497
0.009552916249
0.00955858227
0.009554002556
0.009523749019
0.009528291222
0.00951755821
0.009537380377
0.009524735277
0.009529051548
0.009518700828
0.009513109651
0.009530409625
0.009508999121
0.009528273048
0.009534823038
0.009530783104
0.009532012883
0.009520946448
0.009524369211
0.009528429014
0.009534408126
0.009542293597
0.009518647521
0.009549816343
0.00956342219
0.009524936043
0.009527356368
0.009526651597
0.009522490336
0.009538692016
0.009527599117
0.009520171425
0.009497177982
0.009515740092
0.009514708473
0.009514346644
0.009522142827
0.009539186883
0.009524252912
0.009507312173
0.009521263696
0.009503496575
0.009530670185
0.009521051451
0.009510704754
0.009487470075
0.009498166195
0.009504596113
0.009515540788
0.009526594726
0.009505266031
0.009515644572
0.009521803401
0.009513689177
0.00950796725
0.009513120178
0.009509461699
0.009495232533
0.009497566262
0.009490937134
0.00950694865
0.009512994558
0.009516735893
0.009493719908
0.009514005481
0.009519404621
0.009507833785
0.009501598091
0.00951508705
0.009513924776
0.009500497906
0.00949574855
0.009507822998
)
;
    }
    inlet
    {
        type            cyclic;
    }
    outlet
    {
        type            cyclic;
    }
    back
    {
        type            symmetry;
    }
    front
    {
        type            symmetry;
    }
}


// ************************************************************************* //
