# Wall shear stress
# Time           	patch            	min              	max              
1.2700000000e-03	wall	(-5.0733123706e+03 -1.2325528905e+03 -9.9900677925e-17)	(1.8952596742e+02 2.4155999904e+02 2.4245351189e-16)
