# Probe 0 (5e-06 5e-06 5e-06)
#           Probe                 0
#            Time
            1e-07   2.463830202e-07
            2e-07   2.507403615e-07
            3e-07   2.546238359e-07
            4e-07    2.58011841e-07
            5e-07   2.608892623e-07
            6e-07   2.633476838e-07
            7e-07   2.655463325e-07
            8e-07   2.674413598e-07
            9e-07   2.690683324e-07
            1e-06   2.703761277e-07
          1.1e-06   2.714759932e-07
          1.2e-06   2.726150618e-07
          1.3e-06   2.734544497e-07
          1.4e-06   2.742051969e-07
          1.5e-06   2.748942083e-07
          1.6e-06   2.754270793e-07
          1.7e-06   2.758376496e-07
          1.8e-06   2.761460001e-07
          1.9e-06    2.76362847e-07
            2e-06   2.766170881e-07
          2.1e-06   2.768609334e-07
          2.2e-06   2.769797755e-07
          2.3e-06   2.771318571e-07
          2.4e-06   2.772516244e-07
          2.5e-06   2.773936888e-07
          2.6e-06   2.775520095e-07
          2.7e-06   2.776876769e-07
          2.8e-06   2.776622322e-07
          2.9e-06   2.777805733e-07
            3e-06   2.778644266e-07
          3.1e-06   2.779206793e-07
          3.2e-06   2.779142545e-07
          3.3e-06   2.779421666e-07
          3.4e-06   2.779986411e-07
          3.5e-06   2.779102214e-07
          3.6e-06   2.779062596e-07
          3.7e-06   2.780277756e-07
          3.8e-06   2.779296645e-07
          3.9e-06   2.779670344e-07
            4e-06   2.778777437e-07
          4.1e-06   2.778749476e-07
          4.2e-06   2.779279497e-07
          4.3e-06   2.778566534e-07
          4.4e-06    2.77834631e-07
          4.5e-06   2.779190156e-07
          4.6e-06   2.778853137e-07
          4.7e-06   2.779578983e-07
          4.8e-06   2.779456087e-07
          4.9e-06    2.77868542e-07
            5e-06   2.778562834e-07
