# Probe 0 (5e-06 5e-06 5e-06)
#           Probe                 0
#            Time
            1e-07       33.87446665
            2e-07       80.55428735
            3e-07       118.9731722
            4e-07       150.2440019
            5e-07       175.2840476
            6e-07       195.6331068
            7e-07       213.0823942
            8e-07       227.5559832
            9e-07       239.6045036
            1e-06       249.0215702
          1.1e-06       256.7919597
          1.2e-06       264.6685977
          1.3e-06       270.3733103
          1.4e-06       275.3995378
          1.5e-06       279.9579189
          1.6e-06       283.4422489
          1.7e-06       286.1105499
          1.8e-06       288.0973762
          1.9e-06       289.4900745
            2e-06       291.1141978
          2.1e-06       292.6650359
          2.2e-06       293.4146262
          2.3e-06       294.3768871
          2.4e-06       295.1372741
          2.5e-06       296.0341781
          2.6e-06       297.0265998
          2.7e-06       297.8741857
          2.8e-06       297.7128626
          2.9e-06        298.457255
            3e-06       298.9744582
          3.1e-06       299.3199287
          3.2e-06       299.2966219
          3.3e-06       299.4666399
          3.4e-06       299.8220389
          3.5e-06        299.268863
          3.6e-06       299.2465262
          3.7e-06       299.9997506
          3.8e-06       299.3913698
          3.9e-06       299.6150833
            4e-06       299.0693535
          4.1e-06       299.0498882
          4.2e-06       299.3739495
          4.3e-06        298.935287
          4.4e-06       298.7946011
          4.5e-06        299.325078
          4.6e-06       299.1153317
          4.7e-06       299.5661588
          4.8e-06        299.478423
          4.9e-06       299.0123406
            5e-06         298.93411
