# Probe 0 (5e-06 5e-06 5e-06)
#           Probe                 0
#            Time
            1e-08    1.27105689e-08
            2e-08   1.271324293e-08
            3e-08   1.271579865e-08
            4e-08   1.271669971e-08
            5e-08   1.271916041e-08
            6e-08    1.27166712e-08
            7e-08   1.271727707e-08
            8e-08   1.271778757e-08
            9e-08   1.271916364e-08
            1e-07   1.272200405e-08
          1.1e-07   1.272256681e-08
          1.2e-07   1.272684965e-08
          1.3e-07   1.272547447e-08
          1.4e-07   1.272276731e-08
          1.5e-07   1.272361914e-08
          1.6e-07   1.271595213e-08
          1.7e-07   1.271876471e-08
          1.8e-07   1.271856689e-08
          1.9e-07   1.271800155e-08
            2e-07   1.271645119e-08
          2.1e-07   1.271553351e-08
          2.2e-07   1.271433238e-08
          2.3e-07    1.27172235e-08
          2.4e-07   1.271674726e-08
          2.5e-07    1.27112869e-08
          2.6e-07   1.271430352e-08
          2.7e-07   1.271248865e-08
          2.8e-07   1.271374084e-08
          2.9e-07   1.271705772e-08
            3e-07   1.271754618e-08
          3.1e-07   1.272096584e-08
          3.2e-07   1.271827383e-08
          3.3e-07   1.271632229e-08
          3.4e-07   1.271600444e-08
          3.5e-07   1.271574956e-08
          3.6e-07   1.271317911e-08
          3.7e-07   1.271391533e-08
          3.8e-07   1.271356425e-08
          3.9e-07   1.271166191e-08
            4e-07   1.271428426e-08
          4.1e-07   1.271788944e-08
          4.2e-07   1.272078358e-08
          4.3e-07   1.272101524e-08
          4.4e-07   1.272354967e-08
          4.5e-07   1.271801818e-08
          4.6e-07   1.272027278e-08
          4.7e-07   1.272014473e-08
          4.8e-07   1.271899314e-08
          4.9e-07   1.271797153e-08
            5e-07   1.271805536e-08
          5.1e-07   1.271490158e-08
          5.2e-07   1.271134633e-08
          5.3e-07    1.27139065e-08
          5.4e-07    1.27142654e-08
          5.5e-07   1.271674217e-08
          5.6e-07   1.271610088e-08
          5.7e-07    1.27197874e-08
          5.8e-07   1.272220099e-08
          5.9e-07    1.27243271e-08
            6e-07   1.272676148e-08
          6.1e-07   1.272729962e-08
          6.2e-07    1.27194703e-08
          6.3e-07    1.27222079e-08
          6.4e-07   1.272571943e-08
          6.5e-07   1.272867481e-08
          6.6e-07   1.272462178e-08
          6.7e-07   1.272503129e-08
          6.8e-07   1.272727302e-08
          6.9e-07   1.272925832e-08
            7e-07   1.272512562e-08
          7.1e-07   1.272627738e-08
          7.2e-07   1.272040008e-08
          7.3e-07   1.271565161e-08
          7.4e-07   1.271624415e-08
          7.5e-07   1.271717886e-08
          7.6e-07   1.271603524e-08
          7.7e-07   1.271682687e-08
          7.8e-07   1.272257186e-08
          7.9e-07    1.27203172e-08
            8e-07   1.272447235e-08
          8.1e-07   1.272155672e-08
          8.2e-07   1.272233477e-08
          8.3e-07   1.272086466e-08
          8.4e-07    1.27205093e-08
          8.5e-07   1.271576611e-08
          8.6e-07   1.271240832e-08
          8.7e-07   1.271105018e-08
          8.8e-07   1.270992156e-08
          8.9e-07   1.271117199e-08
            9e-07   1.271281274e-08
          9.1e-07   1.271075265e-08
          9.2e-07   1.270527688e-08
          9.3e-07   1.270639349e-08
          9.4e-07   1.270699531e-08
          9.5e-07   1.271307971e-08
          9.6e-07   1.271028161e-08
          9.7e-07   1.270891636e-08
          9.8e-07   1.270637579e-08
          9.9e-07   1.270671274e-08
            1e-06   1.270763361e-08
         1.01e-06   1.270885699e-08
         1.02e-06    1.27068898e-08
         1.03e-06   1.270787366e-08
         1.04e-06   1.270998116e-08
         1.05e-06   1.270899197e-08
         1.06e-06   1.270848261e-08
         1.07e-06   1.270934605e-08
         1.08e-06   1.270840614e-08
         1.09e-06   1.270812603e-08
          1.1e-06   1.270455737e-08
         1.11e-06   1.270492073e-08
         1.12e-06   1.271080141e-08
         1.13e-06    1.27062983e-08
         1.14e-06   1.270297923e-08
         1.15e-06     1.2705544e-08
         1.16e-06   1.270685062e-08
         1.17e-06   1.270579286e-08
         1.18e-06   1.270620165e-08
         1.19e-06   1.270781867e-08
          1.2e-06   1.271307338e-08
         1.21e-06   1.271448285e-08
         1.22e-06   1.271369114e-08
         1.23e-06   1.271508896e-08
         1.24e-06    1.27145234e-08
         1.25e-06   1.271342974e-08
         1.26e-06   1.271442139e-08
         1.27e-06    1.27149291e-08
         1.28e-06   1.271701706e-08
         1.29e-06   1.272122398e-08
          1.3e-06   1.272203733e-08
         1.31e-06   1.272249903e-08
         1.32e-06   1.271963104e-08
         1.33e-06   1.271916098e-08
         1.34e-06   1.271753104e-08
         1.35e-06   1.271996473e-08
         1.36e-06   1.271842641e-08
         1.37e-06   1.271515758e-08
         1.38e-06   1.271693993e-08
         1.39e-06   1.271380469e-08
          1.4e-06   1.271717269e-08
         1.41e-06   1.271980134e-08
         1.42e-06    1.27148251e-08
         1.43e-06   1.271714898e-08
         1.44e-06    1.27173649e-08
         1.45e-06   1.271790362e-08
         1.46e-06   1.271643054e-08
         1.47e-06   1.271484295e-08
         1.48e-06   1.271372836e-08
         1.49e-06   1.271608347e-08
          1.5e-06    1.27172888e-08
         1.51e-06   1.272228458e-08
         1.52e-06    1.27234962e-08
         1.53e-06    1.27226896e-08
         1.54e-06   1.272054644e-08
         1.55e-06   1.272042423e-08
         1.56e-06   1.272210482e-08
         1.57e-06   1.272372531e-08
         1.58e-06   1.272229797e-08
         1.59e-06   1.272308945e-08
          1.6e-06   1.272588048e-08
         1.61e-06   1.272315245e-08
         1.62e-06   1.272301654e-08
         1.63e-06     1.2724862e-08
         1.64e-06   1.272277794e-08
         1.65e-06   1.271770618e-08
         1.66e-06   1.271631346e-08
         1.67e-06   1.272246813e-08
         1.68e-06   1.272526713e-08
         1.69e-06    1.27213998e-08
          1.7e-06   1.271917807e-08
         1.71e-06    1.27167661e-08
         1.72e-06   1.271479253e-08
         1.73e-06   1.271075505e-08
         1.74e-06   1.271315247e-08
         1.75e-06   1.271373299e-08
         1.76e-06   1.271391132e-08
         1.77e-06   1.271893755e-08
         1.78e-06   1.271488656e-08
         1.79e-06   1.271297071e-08
          1.8e-06   1.271793483e-08
         1.81e-06   1.272082073e-08
         1.82e-06   1.272117222e-08
         1.83e-06   1.271992595e-08
         1.84e-06   1.272026105e-08
         1.85e-06   1.271888006e-08
         1.86e-06   1.271859015e-08
         1.87e-06   1.271924455e-08
         1.88e-06   1.271860372e-08
         1.89e-06   1.272054612e-08
          1.9e-06   1.272128739e-08
         1.91e-06   1.272072045e-08
         1.92e-06   1.272119332e-08
         1.93e-06   1.272237831e-08
         1.94e-06   1.272518792e-08
         1.95e-06   1.272419959e-08
         1.96e-06   1.272452647e-08
         1.97e-06   1.272581109e-08
         1.98e-06   1.272349789e-08
         1.99e-06   1.272445062e-08
            2e-06   1.272614505e-08
         2.01e-06   1.272329019e-08
         2.02e-06   1.272100473e-08
         2.03e-06    1.27172759e-08
         2.04e-06   1.272418717e-08
         2.05e-06   1.272487062e-08
         2.06e-06   1.271809603e-08
         2.07e-06   1.271744695e-08
         2.08e-06   1.272357028e-08
         2.09e-06   1.272360055e-08
          2.1e-06   1.272544403e-08
         2.11e-06   1.272227821e-08
         2.12e-06   1.272013667e-08
         2.13e-06   1.272181415e-08
         2.14e-06   1.271723883e-08
         2.15e-06   1.271867932e-08
         2.16e-06   1.272001279e-08
         2.17e-06   1.271598545e-08
         2.18e-06   1.271461051e-08
         2.19e-06   1.271726174e-08
          2.2e-06     1.2720914e-08
         2.21e-06   1.272271771e-08
         2.22e-06   1.272334606e-08
         2.23e-06   1.272242971e-08
         2.24e-06   1.271718528e-08
         2.25e-06   1.271788228e-08
         2.26e-06   1.271551472e-08
         2.27e-06    1.27120818e-08
         2.28e-06   1.271534345e-08
         2.29e-06   1.271965325e-08
          2.3e-06   1.272042651e-08
         2.31e-06   1.272122483e-08
         2.32e-06   1.272044357e-08
         2.33e-06   1.272156646e-08
         2.34e-06   1.272509487e-08
         2.35e-06   1.272769514e-08
         2.36e-06   1.272808806e-08
         2.37e-06   1.272704184e-08
         2.38e-06   1.272487626e-08
         2.39e-06   1.272515338e-08
          2.4e-06   1.272716002e-08
         2.41e-06   1.272707752e-08
         2.42e-06   1.272687572e-08
         2.43e-06   1.272630284e-08
         2.44e-06   1.272662375e-08
         2.45e-06   1.271911196e-08
         2.46e-06   1.271635298e-08
         2.47e-06   1.272069008e-08
         2.48e-06   1.272098374e-08
         2.49e-06    1.27208945e-08
          2.5e-06   1.271891388e-08
         2.51e-06   1.271863165e-08
         2.52e-06   1.272126253e-08
         2.53e-06    1.27247048e-08
         2.54e-06   1.272454275e-08
         2.55e-06   1.272520142e-08
         2.56e-06   1.272142251e-08
         2.57e-06   1.271769265e-08
         2.58e-06   1.271508356e-08
         2.59e-06   1.271978739e-08
          2.6e-06   1.271704522e-08
         2.61e-06   1.271793113e-08
         2.62e-06   1.271436729e-08
         2.63e-06   1.271805783e-08
         2.64e-06   1.272058643e-08
         2.65e-06   1.271890087e-08
         2.66e-06   1.271898562e-08
         2.67e-06   1.271900645e-08
         2.68e-06    1.27206768e-08
         2.69e-06   1.271572182e-08
          2.7e-06   1.272013349e-08
         2.71e-06   1.271765272e-08
         2.72e-06   1.271919589e-08
         2.73e-06   1.271475448e-08
         2.74e-06   1.271444596e-08
         2.75e-06   1.270970653e-08
         2.76e-06   1.270799272e-08
         2.77e-06   1.271297243e-08
         2.78e-06   1.271358628e-08
         2.79e-06   1.271325114e-08
          2.8e-06   1.271403031e-08
         2.81e-06   1.271179597e-08
         2.82e-06   1.271338026e-08
         2.83e-06   1.271380705e-08
         2.84e-06   1.271286524e-08
         2.85e-06   1.270962418e-08
         2.86e-06   1.270722196e-08
         2.87e-06   1.271072943e-08
         2.88e-06   1.270906947e-08
         2.89e-06   1.270546964e-08
          2.9e-06   1.270694107e-08
         2.91e-06    1.27079511e-08
         2.92e-06   1.271208986e-08
         2.93e-06   1.271664078e-08
         2.94e-06   1.271207199e-08
         2.95e-06   1.271291391e-08
         2.96e-06   1.271390287e-08
         2.97e-06   1.271841013e-08
         2.98e-06   1.271368017e-08
         2.99e-06   1.271218478e-08
            3e-06   1.271722238e-08
         3.01e-06   1.271256115e-08
         3.02e-06   1.271297155e-08
         3.03e-06   1.271386672e-08
         3.04e-06   1.272033849e-08
         3.05e-06   1.272257205e-08
         3.06e-06   1.272449517e-08
         3.07e-06   1.272405735e-08
         3.08e-06   1.272291113e-08
         3.09e-06   1.271772994e-08
          3.1e-06   1.271947508e-08
         3.11e-06   1.271823787e-08
         3.12e-06   1.271667248e-08
         3.13e-06   1.271733812e-08
         3.14e-06   1.271988831e-08
         3.15e-06   1.272042374e-08
         3.16e-06   1.272051288e-08
         3.17e-06   1.272265669e-08
         3.18e-06   1.272087329e-08
         3.19e-06   1.271827051e-08
          3.2e-06   1.271545172e-08
         3.21e-06   1.271327167e-08
         3.22e-06   1.271422698e-08
         3.23e-06   1.271089683e-08
         3.24e-06   1.271190018e-08
         3.25e-06    1.27110165e-08
         3.26e-06   1.270857019e-08
         3.27e-06   1.270885315e-08
         3.28e-06   1.270949979e-08
         3.29e-06   1.271072216e-08
          3.3e-06    1.27145768e-08
         3.31e-06   1.271743049e-08
         3.32e-06   1.272062094e-08
         3.33e-06   1.272547661e-08
         3.34e-06   1.271808023e-08
         3.35e-06   1.271175355e-08
         3.36e-06   1.271283845e-08
         3.37e-06   1.271659219e-08
         3.38e-06    1.27143893e-08
         3.39e-06   1.271262118e-08
          3.4e-06   1.271028735e-08
         3.41e-06   1.271137937e-08
         3.42e-06   1.271549649e-08
         3.43e-06   1.271374646e-08
         3.44e-06   1.271246202e-08
         3.45e-06    1.27156649e-08
         3.46e-06   1.271454601e-08
         3.47e-06   1.271451432e-08
         3.48e-06   1.271520018e-08
         3.49e-06   1.271697501e-08
          3.5e-06   1.271789849e-08
         3.51e-06   1.272013586e-08
         3.52e-06   1.271999308e-08
         3.53e-06   1.272413265e-08
         3.54e-06    1.27219835e-08
         3.55e-06   1.272206754e-08
         3.56e-06   1.272031661e-08
         3.57e-06   1.271828144e-08
         3.58e-06   1.271742699e-08
         3.59e-06   1.271791314e-08
          3.6e-06   1.271548968e-08
         3.61e-06   1.271119834e-08
         3.62e-06   1.271094366e-08
         3.63e-06   1.270943167e-08
         3.64e-06   1.271314855e-08
         3.65e-06   1.271625514e-08
         3.66e-06   1.271270324e-08
         3.67e-06   1.271565062e-08
         3.68e-06   1.271446429e-08
         3.69e-06   1.271872945e-08
          3.7e-06   1.271707152e-08
         3.71e-06   1.272084436e-08
         3.72e-06   1.271830899e-08
         3.73e-06   1.271681722e-08
         3.74e-06    1.27181033e-08
         3.75e-06   1.272144654e-08
         3.76e-06   1.272489102e-08
         3.77e-06   1.272672258e-08
         3.78e-06   1.272579378e-08
         3.79e-06   1.272291652e-08
          3.8e-06   1.272737911e-08
         3.81e-06   1.272928885e-08
         3.82e-06   1.272976484e-08
         3.83e-06   1.273375666e-08
         3.84e-06   1.272871948e-08
         3.85e-06   1.272671892e-08
         3.86e-06   1.272027416e-08
         3.87e-06    1.27217821e-08
         3.88e-06   1.272092826e-08
         3.89e-06   1.272111401e-08
          3.9e-06   1.271977209e-08
         3.91e-06   1.271945029e-08
         3.92e-06   1.271883032e-08
         3.93e-06   1.272391971e-08
         3.94e-06   1.272637504e-08
         3.95e-06   1.272552731e-08
         3.96e-06   1.272305908e-08
         3.97e-06   1.272299602e-08
         3.98e-06   1.272391814e-08
         3.99e-06   1.272723557e-08
            4e-06   1.272530902e-08
         4.01e-06   1.272624281e-08
         4.02e-06   1.272218581e-08
         4.03e-06   1.272298873e-08
         4.04e-06   1.272104023e-08
         4.05e-06   1.271648705e-08
         4.06e-06   1.271646429e-08
         4.07e-06   1.271773126e-08
         4.08e-06   1.271061422e-08
         4.09e-06   1.271288123e-08
          4.1e-06   1.271481119e-08
         4.11e-06   1.271254415e-08
         4.12e-06   1.271504864e-08
         4.13e-06   1.271608326e-08
         4.14e-06   1.272100421e-08
         4.15e-06   1.271752043e-08
         4.16e-06   1.271717919e-08
         4.17e-06   1.271592563e-08
         4.18e-06   1.271739711e-08
         4.19e-06   1.272248676e-08
          4.2e-06   1.272427023e-08
         4.21e-06   1.272777208e-08
         4.22e-06   1.272324737e-08
         4.23e-06   1.272501511e-08
         4.24e-06    1.27206192e-08
         4.25e-06   1.271703923e-08
         4.26e-06   1.271809368e-08
         4.27e-06   1.271269107e-08
         4.28e-06   1.271621021e-08
         4.29e-06   1.271694651e-08
          4.3e-06   1.272273222e-08
         4.31e-06   1.272624402e-08
         4.32e-06   1.272598322e-08
         4.33e-06   1.272584921e-08
         4.34e-06     1.2725716e-08
         4.35e-06   1.272423429e-08
         4.36e-06   1.272619129e-08
         4.37e-06   1.272761503e-08
         4.38e-06   1.272572303e-08
         4.39e-06   1.272131605e-08
          4.4e-06   1.272088631e-08
         4.41e-06   1.271832114e-08
         4.42e-06   1.272115486e-08
         4.43e-06   1.272156216e-08
         4.44e-06   1.271717128e-08
         4.45e-06    1.27173779e-08
         4.46e-06   1.272049883e-08
         4.47e-06   1.271912181e-08
         4.48e-06   1.271842668e-08
         4.49e-06   1.272112118e-08
          4.5e-06   1.271520104e-08
         4.51e-06   1.271394693e-08
         4.52e-06    1.27157638e-08
         4.53e-06   1.271629913e-08
         4.54e-06   1.271927143e-08
         4.55e-06   1.271806498e-08
         4.56e-06   1.272061328e-08
         4.57e-06   1.272034886e-08
         4.58e-06   1.272005013e-08
         4.59e-06   1.271470866e-08
          4.6e-06   1.271124822e-08
         4.61e-06   1.271603525e-08
         4.62e-06   1.271399528e-08
         4.63e-06   1.271840104e-08
         4.64e-06   1.272100706e-08
         4.65e-06   1.272492829e-08
         4.66e-06   1.271956913e-08
         4.67e-06   1.271771486e-08
         4.68e-06   1.271595025e-08
         4.69e-06   1.271472908e-08
          4.7e-06   1.271636461e-08
         4.71e-06   1.271730289e-08
         4.72e-06   1.271647255e-08
         4.73e-06   1.271858017e-08
         4.74e-06   1.271830007e-08
         4.75e-06    1.27141616e-08
         4.76e-06   1.271506305e-08
         4.77e-06   1.271283298e-08
         4.78e-06   1.271240824e-08
         4.79e-06   1.271239167e-08
          4.8e-06   1.271668142e-08
         4.81e-06   1.271404842e-08
         4.82e-06   1.271504423e-08
         4.83e-06   1.271609595e-08
         4.84e-06   1.271638585e-08
         4.85e-06   1.272015812e-08
         4.86e-06   1.272311018e-08
         4.87e-06   1.272363355e-08
         4.88e-06   1.272308464e-08
         4.89e-06   1.271988637e-08
          4.9e-06   1.271722236e-08
         4.91e-06   1.271727508e-08
         4.92e-06   1.271788678e-08
         4.93e-06   1.272076769e-08
         4.94e-06   1.272031234e-08
         4.95e-06   1.272097862e-08
         4.96e-06   1.271992324e-08
         4.97e-06   1.271901639e-08
         4.98e-06   1.272128498e-08
         4.99e-06   1.271986229e-08
            5e-06   1.271908786e-08
         5.01e-06   1.271751587e-08
         5.02e-06   1.271780617e-08
         5.03e-06   1.271725443e-08
         5.04e-06   1.271773766e-08
         5.05e-06   1.271881194e-08
         5.06e-06   1.271548814e-08
         5.07e-06   1.271899864e-08
         5.08e-06   1.271578476e-08
         5.09e-06   1.271910494e-08
          5.1e-06   1.271855266e-08
         5.11e-06   1.271758902e-08
         5.12e-06   1.271723645e-08
         5.13e-06   1.271395665e-08
         5.14e-06   1.271678904e-08
         5.15e-06    1.27158203e-08
         5.16e-06   1.271926442e-08
         5.17e-06    1.27221032e-08
         5.18e-06   1.272133736e-08
         5.19e-06   1.272485427e-08
          5.2e-06   1.272666441e-08
         5.21e-06   1.272359548e-08
         5.22e-06   1.272234533e-08
         5.23e-06   1.271855956e-08
         5.24e-06   1.271665859e-08
         5.25e-06   1.271515352e-08
         5.26e-06    1.27171063e-08
         5.27e-06   1.271615759e-08
         5.28e-06    1.27129853e-08
         5.29e-06   1.270941569e-08
          5.3e-06    1.27075766e-08
         5.31e-06   1.271087318e-08
         5.32e-06   1.270936537e-08
         5.33e-06   1.271098737e-08
         5.34e-06   1.271249978e-08
         5.35e-06   1.271441096e-08
         5.36e-06    1.27163027e-08
         5.37e-06   1.271710286e-08
         5.38e-06   1.271861707e-08
         5.39e-06   1.271622494e-08
          5.4e-06   1.271831236e-08
         5.41e-06   1.271837723e-08
         5.42e-06   1.272018874e-08
         5.43e-06    1.27127582e-08
         5.44e-06   1.271285548e-08
         5.45e-06   1.271170038e-08
         5.46e-06   1.271756386e-08
         5.47e-06   1.271459501e-08
         5.48e-06   1.271821927e-08
         5.49e-06   1.272032863e-08
          5.5e-06   1.272000243e-08
         5.51e-06   1.272377579e-08
         5.52e-06   1.271936225e-08
         5.53e-06   1.271846976e-08
         5.54e-06     1.2713898e-08
         5.55e-06   1.271548187e-08
         5.56e-06   1.272169901e-08
         5.57e-06   1.271431269e-08
         5.58e-06    1.27189659e-08
         5.59e-06   1.272192528e-08
          5.6e-06   1.272071199e-08
         5.61e-06   1.272254132e-08
         5.62e-06   1.271988068e-08
         5.63e-06   1.271670019e-08
         5.64e-06   1.271735098e-08
         5.65e-06   1.272242351e-08
         5.66e-06   1.272521661e-08
         5.67e-06   1.272017995e-08
         5.68e-06   1.272151177e-08
         5.69e-06   1.272315999e-08
          5.7e-06   1.272296982e-08
         5.71e-06   1.272400025e-08
         5.72e-06   1.272188478e-08
         5.73e-06   1.272177359e-08
         5.74e-06   1.272241689e-08
         5.75e-06    1.27189428e-08
         5.76e-06   1.271591182e-08
         5.77e-06   1.271237488e-08
         5.78e-06   1.271355678e-08
         5.79e-06   1.271624462e-08
          5.8e-06   1.271472634e-08
         5.81e-06   1.271700375e-08
         5.82e-06   1.271531419e-08
         5.83e-06     1.2716234e-08
         5.84e-06   1.271956848e-08
         5.85e-06   1.271693939e-08
         5.86e-06   1.271571825e-08
         5.87e-06   1.271629736e-08
         5.88e-06   1.271957162e-08
         5.89e-06   1.272032858e-08
          5.9e-06   1.272491532e-08
         5.91e-06   1.271746175e-08
         5.92e-06   1.271206653e-08
         5.93e-06   1.271431399e-08
         5.94e-06   1.271351625e-08
         5.95e-06   1.271497929e-08
         5.96e-06   1.271319234e-08
         5.97e-06   1.271384824e-08
         5.98e-06   1.271196794e-08
         5.99e-06   1.271322249e-08
            6e-06   1.271151822e-08
         6.01e-06   1.271360382e-08
         6.02e-06    1.27168072e-08
         6.03e-06   1.271815535e-08
         6.04e-06   1.271653384e-08
         6.05e-06    1.27161381e-08
         6.06e-06   1.271796971e-08
         6.07e-06   1.271579873e-08
         6.08e-06   1.271670066e-08
         6.09e-06   1.271883234e-08
          6.1e-06   1.272008697e-08
         6.11e-06   1.272030654e-08
         6.12e-06   1.271949636e-08
         6.13e-06   1.272002195e-08
         6.14e-06   1.271943368e-08
         6.15e-06   1.272015939e-08
         6.16e-06   1.271927532e-08
         6.17e-06   1.272110722e-08
         6.18e-06   1.271971158e-08
         6.19e-06   1.271924129e-08
          6.2e-06   1.272186263e-08
         6.21e-06   1.271998033e-08
         6.22e-06   1.271749629e-08
         6.23e-06    1.27166831e-08
         6.24e-06   1.271790407e-08
         6.25e-06   1.271238809e-08
         6.26e-06   1.271252987e-08
         6.27e-06   1.271337895e-08
         6.28e-06   1.271281284e-08
         6.29e-06   1.271310676e-08
          6.3e-06   1.271096495e-08
         6.31e-06   1.270768148e-08
         6.32e-06   1.271174231e-08
         6.33e-06   1.271146103e-08
         6.34e-06   1.271051448e-08
         6.35e-06     1.2711759e-08
         6.36e-06    1.27117072e-08
         6.37e-06   1.270944668e-08
         6.38e-06   1.271109584e-08
         6.39e-06   1.271666333e-08
          6.4e-06   1.271457115e-08
         6.41e-06   1.271135306e-08
         6.42e-06   1.270913703e-08
         6.43e-06    1.27073271e-08
         6.44e-06   1.271086625e-08
         6.45e-06   1.271295781e-08
         6.46e-06    1.27093976e-08
         6.47e-06   1.270823032e-08
         6.48e-06   1.270625684e-08
         6.49e-06    1.27004962e-08
          6.5e-06   1.270732331e-08
         6.51e-06   1.270712754e-08
         6.52e-06   1.270770842e-08
         6.53e-06   1.270760968e-08
         6.54e-06   1.271096461e-08
         6.55e-06   1.271101499e-08
         6.56e-06   1.271219519e-08
         6.57e-06   1.270648146e-08
         6.58e-06   1.270992811e-08
         6.59e-06   1.270781999e-08
          6.6e-06   1.270446471e-08
         6.61e-06   1.270237069e-08
         6.62e-06   1.269873374e-08
         6.63e-06   1.269785128e-08
         6.64e-06   1.269953652e-08
         6.65e-06   1.269951329e-08
         6.66e-06   1.270039448e-08
         6.67e-06   1.270111866e-08
         6.68e-06    1.27072938e-08
         6.69e-06   1.270553136e-08
          6.7e-06   1.270233439e-08
         6.71e-06   1.270448858e-08
         6.72e-06    1.27013385e-08
         6.73e-06   1.270645171e-08
         6.74e-06   1.270771527e-08
         6.75e-06   1.270631768e-08
         6.76e-06   1.270591114e-08
         6.77e-06   1.270779305e-08
         6.78e-06   1.270764276e-08
         6.79e-06   1.271178941e-08
          6.8e-06   1.271076476e-08
         6.81e-06   1.271201351e-08
         6.82e-06   1.271687117e-08
         6.83e-06   1.271221828e-08
         6.84e-06   1.271552223e-08
         6.85e-06   1.272130413e-08
         6.86e-06   1.271904861e-08
         6.87e-06   1.271860944e-08
         6.88e-06   1.272099209e-08
         6.89e-06   1.272301318e-08
          6.9e-06   1.272173744e-08
         6.91e-06   1.271643063e-08
         6.92e-06   1.271315341e-08
         6.93e-06   1.270884685e-08
         6.94e-06   1.271094794e-08
         6.95e-06   1.271189652e-08
         6.96e-06   1.271497123e-08
         6.97e-06    1.27190814e-08
         6.98e-06   1.271925947e-08
         6.99e-06    1.27196221e-08
            7e-06    1.27181073e-08
         7.01e-06   1.271939377e-08
         7.02e-06   1.271566822e-08
         7.03e-06   1.271582302e-08
         7.04e-06   1.271685335e-08
         7.05e-06    1.27171033e-08
         7.06e-06   1.271965002e-08
         7.07e-06   1.271806135e-08
         7.08e-06   1.271528788e-08
         7.09e-06   1.271584615e-08
          7.1e-06   1.271180463e-08
         7.11e-06   1.271568368e-08
         7.12e-06    1.27124584e-08
         7.13e-06   1.270880305e-08
         7.14e-06   1.270508096e-08
         7.15e-06   1.270950064e-08
         7.16e-06   1.270420657e-08
         7.17e-06    1.27134607e-08
         7.18e-06   1.271312933e-08
         7.19e-06   1.271914818e-08
          7.2e-06   1.271693162e-08
         7.21e-06   1.271567805e-08
         7.22e-06   1.271811141e-08
         7.23e-06   1.271908762e-08
         7.24e-06   1.271147584e-08
         7.25e-06   1.270706645e-08
         7.26e-06   1.271117882e-08
         7.27e-06   1.270711052e-08
         7.28e-06   1.271042651e-08
         7.29e-06   1.270953724e-08
          7.3e-06   1.271145482e-08
         7.31e-06   1.271404237e-08
         7.32e-06   1.271333849e-08
         7.33e-06   1.270986801e-08
         7.34e-06   1.271415263e-08
         7.35e-06   1.270917372e-08
         7.36e-06   1.270852879e-08
         7.37e-06   1.270927237e-08
         7.38e-06   1.271175971e-08
         7.39e-06   1.271119329e-08
          7.4e-06    1.27178108e-08
         7.41e-06   1.271777101e-08
         7.42e-06   1.272255496e-08
         7.43e-06   1.271995403e-08
         7.44e-06   1.271979455e-08
         7.45e-06   1.271719055e-08
         7.46e-06   1.272197519e-08
         7.47e-06   1.272527738e-08
         7.48e-06    1.27216506e-08
         7.49e-06   1.272118477e-08
          7.5e-06    1.27211262e-08
         7.51e-06   1.272213618e-08
         7.52e-06   1.272498798e-08
         7.53e-06   1.272622372e-08
         7.54e-06   1.272495508e-08
         7.55e-06   1.272695879e-08
         7.56e-06   1.272451588e-08
         7.57e-06   1.272847967e-08
         7.58e-06   1.272368528e-08
         7.59e-06   1.272174422e-08
          7.6e-06   1.272496871e-08
         7.61e-06   1.271614542e-08
         7.62e-06   1.271508098e-08
         7.63e-06    1.27151139e-08
         7.64e-06   1.271206682e-08
         7.65e-06   1.270999571e-08
         7.66e-06   1.271245933e-08
         7.67e-06   1.271458071e-08
         7.68e-06   1.271564201e-08
         7.69e-06   1.272286242e-08
          7.7e-06   1.271931442e-08
         7.71e-06   1.272210479e-08
         7.72e-06   1.272390897e-08
         7.73e-06   1.272294616e-08
         7.74e-06   1.271898764e-08
         7.75e-06   1.271969258e-08
         7.76e-06   1.272183822e-08
         7.77e-06   1.272375771e-08
         7.78e-06    1.27190281e-08
         7.79e-06   1.271966685e-08
          7.8e-06    1.27186516e-08
         7.81e-06   1.271894539e-08
         7.82e-06   1.271968163e-08
         7.83e-06    1.27204198e-08
         7.84e-06   1.272161573e-08
         7.85e-06   1.272395755e-08
         7.86e-06   1.271815637e-08
         7.87e-06   1.271886682e-08
         7.88e-06   1.272032245e-08
         7.89e-06   1.271818107e-08
          7.9e-06   1.270950108e-08
         7.91e-06   1.270939409e-08
         7.92e-06   1.270762798e-08
         7.93e-06    1.27087933e-08
         7.94e-06   1.271286289e-08
         7.95e-06   1.271575737e-08
         7.96e-06   1.271787558e-08
         7.97e-06   1.272718205e-08
         7.98e-06   1.272712811e-08
         7.99e-06   1.273025249e-08
            8e-06   1.272596922e-08
         8.01e-06   1.272712125e-08
         8.02e-06   1.273059759e-08
         8.03e-06    1.27298349e-08
         8.04e-06   1.273149808e-08
         8.05e-06   1.272798089e-08
         8.06e-06   1.272735465e-08
         8.07e-06   1.272225869e-08
         8.08e-06     1.2722801e-08
         8.09e-06   1.271873388e-08
          8.1e-06   1.271236722e-08
         8.11e-06   1.271127717e-08
         8.12e-06   1.270986283e-08
         8.13e-06   1.271192013e-08
         8.14e-06   1.271535919e-08
         8.15e-06   1.271848182e-08
         8.16e-06   1.272257769e-08
         8.17e-06   1.272452691e-08
         8.18e-06   1.272280111e-08
         8.19e-06   1.272372004e-08
          8.2e-06   1.272226257e-08
         8.21e-06   1.272189361e-08
         8.22e-06    1.27241176e-08
         8.23e-06   1.272561486e-08
         8.24e-06   1.272245451e-08
         8.25e-06   1.271861234e-08
         8.26e-06   1.271731036e-08
         8.27e-06   1.271890053e-08
         8.28e-06   1.271638024e-08
         8.29e-06   1.272048395e-08
          8.3e-06   1.272123365e-08
         8.31e-06   1.271684306e-08