/*--------------------------------*- C++ -*----------------------------------*\
| =========                 |                                                 |
| \\      /  F ield         | OpenFOAM: The Open Source CFD Toolbox           |
|  \\    /   O peration     | Version:  v1706                                 |
|   \\  /    A nd           | Web:      www.OpenFOAM.com                      |
|    \\/     M anipulation  |                                                 |
\*---------------------------------------------------------------------------*/
FoamFile
{
    version     2.0;
    format      ascii;
    class       volScalarField;
    location    "0.1";
    object      dsmcRhoNMean_Ar;
}
// * * * * * * * * * * * * * * * * * * * * * * * * * * * * * * * * * * * * * //

dimensions      [0 -3 0 0 0 0 0];


internalField   nonuniform List<scalar> 
1000
(
96.963
96.88
97.12
98.149
98.269
97.693
96.39
96.284
96.724
97.35
96.985
97.682
97.592
97.33
97.344
97.316
97.127
97.278
96.892
96.621
97.071
97.088
96.836
96.922
96.792
97.782
97.972
96.935
97.167
97.346
96.667
96.514
96.958
96.555
97.557
97.462
97.632
97.51
97.747
97.754
97.176
97.362
96.922
97.062
96.281
96.678
96.589
97.43
96.602
97.531
97.69
97.692
96.901
97.218
96.884
97.02
96.651
97.246
97.608
96.858
97.372
96.128
96.488
96.196
97.26
96.406
96.692
96.645
97.107
97.046
95.942
96.516
96.641
96.499
96.473
97.104
96.463
96.948
96.826
96.573
97.792
97.538
97.246
97.146
96.963
96.886
97.99
97.899
98.081
98.402
98.115
98.186
97.887
96.661
96.92
96.276
96.893
95.998
96.519
96.487
95.935
96.505
96.837
96.937
96.615
96.98
96.656
96.467
97.095
97.645
96.966
96.721
96.935
96.71
96.713
96.627
97.516
97.176
96.852
96.787
97.339
97.45
97.298
98.088
96.848
97.523
97.177
98.061
97.321
97.787
97.351
96.996
98.285
98.64
97.882
97.668
97.179
97.223
97.063
96.532
97.105
97.694
97.036
97.106
97.549
96.87
97.53
97.151
97.285
96.905
97.506
96.777
97.165
96.866
96.421
96.117
97.064
96.759
96.935
97.568
97.202
96.647
96.881
96.948
96.569
97.519
97.475
97.366
97.535
97.655
97.92
97.301
97.019
96.598
96.847
97.55
97.401
97.078
97.498
96.444
97.035
97.673
97.332
96.506
97.107
96.66
96.852
96.956
97.095
97.129
97.548
97.026
96.226
96.454
97.419
96.939
97.245
96.985
96.933
97.489
97.85
97.744
97.148
97.29
97.046
97.504
97.108
96.433
97.252
97.378
96.487
98.048
98.386
97.302
97.57
97.248
97.663
96.818
97.708
96.937
97.59
97.417
97.15
97.037
97.107
97.438
97.248
97.208
97.297
97.425
97.094
96.974
96.884
96.758
96.52
97.655
97.368
98.059
97.065
97.498
97.218
97.067
97.296
97.004
96.769
96.504
97.438
97.761
96.178
96.931
96.698
97.579
97.249
96.785
96.203
97.051
96.967
96.694
97.418
97.122
96.278
96.677
96.414
96.879
96.395
96.244
97.177
97.498
96.201
96.816
97.117
96.358
97.255
97.311
97.427
97.051
97.157
97.393
97.565
97.209
97.424
97.419
96.935
98.078
97.224
96.885
98.149
97.907
98.179
97.926
96.763
97.02
98.193
97.252
96.25
96.527
97.006
97.114
96.964
96.361
96.635
95.962
96.403
97.271
96.842
97.284
96.813
96.799
96.772
96.537
96.547
96.266
97.191
96.198
97.483
97.826
97.728
96.683
96.687
97.958
97.882
96.658
97.102
97.476
97.538
97.828
97.65
97.062
97.595
96.564
97.209
97.955
98.042
97.732
97.747
97.289
97.483
96.723
96.351
95.66
97.53
97.363
97.504
96.871
96.549
96.877
97.31
96.931
96.697
97.126
97.024
96.577
96.525
96.784
97.049
96.546
96.473
96.617
96.867
97.974
97.893
97.186
96.673
96.661
97.199
98.485
97.578
97.423
97.771
97.586
96.445
97.794
97.012
96.603
97.37
96.9
97.521
96.77
96.195
95.96
96.774
96.423
97.047
97.08
97.185
97.76
96.839
95.838
97.074
97.389
96.939
96.959
96.564
96.937
96.478
97.317
97.268
96.497
96.861
96.417
97.258
97.427
97.763
97.451
97.128
97.649
96.923
97.36
97.067
97.136
97.403
97.827
97.551
96.766
97.421
97.13
97.758
97.726
97.202
97.202
97.479
98.308
97.279
98.306
97.719
97.823
97.758
96.962
96.665
96.966
97.26
97.727
97.309
96.631
96.476
97.368
97.611
97.271
96.952
97.443
97.454
96.81
97.091
96.422
97.095
96.889
96.644
97.127
96.208
96.694
97.439
96.54
96.613
97.098
96.995
96.457
96.253
96.548
95.942
96.753
96.777
96.3
96.326
95.93
96.722
96.915
97.831
96.223
96.122
96.335
96.331
96.847
96.935
97.104
97.794
97.085
97.881
97.568
97.971
97.626
97.438
97.538
97.306
96.89
96.688
96.911
97.344
97.685
97.51
97.309
97.318
97.114
97.597
96.768
96.124
97.407
97.188
96.414
96.875
96.42
96.342
96.145
96.21
97.291
96.937
97.214
97.203
97.922
96.746
96.635
97.299
97.272
96.178
96.659
97.512
96.402
95.951
96.616
96.003
98.035
97.056
97.094
96.963
97.666
97.124
97.954
97.546
97.132
97.756
96.339
97.916
97.325
97.145
97.288
97.438
97.109
98.123
97.379
97.541
96.818
97.43
97.652
97.56
98.406
96.403
96.726
96.796
96.614
96.995
97.233
96.566
96.468
96.63
96.518
96.882
97.643
97.629
97.1
97.616
97.29
97.262
96.862
95.96
97.356
97.223
96.86
96.752
96.618
97.392
97.601
97.742
97.14
96.934
96.544
96.98
96.846
97.504
97.301
96.208
97.015
97.084
96.773
96.989
97.235
97.063
96.635
96.819
97.053
97.136
97.765
97.501
96.721
96.909
97.382
97.059
97.22
97.681
97.472
96.939
97.475
96.717
97.733
97.502
97.578
97.833
97.049
97.769
97.179
97.28
96.456
97.945
97.58
96.761
96.952
97.362
97.297
97.069
96.69
97.463
97.105
96.842
97.756
98.593
97.94
97.628
97.3
97.134
96.977
97.042
97.707
97.238
97.648
97.306
96.498
96.439
96.195
96.853
97.529
97.673
96.954
97.111
98.183
97.483
97.118
97.134
96.07
95.834
96.39
96.354
96.647
96.935
96.717
97.078
97.122
96.849
97.104
96.821
95.514
96.114
97.078
96.03
96.584
96.436
96.295
96.005
97.037
96.99
97.108
97.018
96.809
96.776
97.131
97.088
96.943
98.104
96.844
97.027
97.39
97.271
96.894
97.341
96.857
97.918
97.671
97.539
97.652
97.731
97.498
97.458
97.87
97.681
97.003
96.686
96.542
96.6
96.917
96.705
96.834
96.799
96.738
96.963
96.68
96.761
97.414
97.255
97.556
97.373
96.981
96.908
96.435
96.301
96.554
96.921
96.613
97.357
97.11
97.883
96.793
97.041
97.388
96.871
96.645
97.645
97.921
97.745
97.801
96.912
97.465
97.879
97.164
97.165
97.911
96.964
97.202
97.504
98.075
97.821
97.365
97.65
97.395
97.467
97.085
97.471
97.797
96.744
97.238
96.939
96.958
97.625
96.359
96.378
96.429
96.785
96.437
96.522
98.212
97.139
97.478
97.673
97.386
96.945
97.914
97.485
97.581
97.126
98.261
96.689
96.493
96.785
97.257
96.642
97.977
96.835
97.757
97.527
97.45
96.907
97.096
97.457
97.66
98.026
96.91
96.778
97.62
96.884
97.159
97.538
97.172
97.077
97.433
97.379
97.521
97.289
97.725
96.773
98.025
97.238
97.47
97.176
97.225
96.857
97.403
97.473
97.483
97.225
96.651
96.773
96.761
96.843
97.462
97.214
96.926
97.025
97.363
97.338
96.461
96.3
96.674
97.497
97.857
97.149
97.069
98.202
98.173
97.57
97.754
97.621
97.529
97.375
97.271
98.391
97.473
96.528
96.492
96.062
96.284
96.85
97.181
97.379
97.958
97.443
97.565
97.196
97.19
95.967
95.77
96.592
96.082
96.832
96.631
95.874
96.569
96.646
96.056
95.909
96.542
96.449
96.329
96.931
96.883
96.649
97.35
96.902
96.938
96.952
97.51
96.678
96.942
97.516
96.74
96.746
97.086
97.086
97.171
98.163
96.673
96.446
96.944
97.018
97.196
96.958
96.501
97.352
97.152
97.098
97.538
96.608
97.041
96.587
96.748
96.71
96.295
96.335
97.122
96.278
96.07
96.309
97.343
96.772
96.93
96.216
97.433
97.533
97.229
96.915
96.491
97.38
97.192
96.73
97.214
96.761
97.208
96.604
96.425
97.29
98.079
97.188
97.48
97.645
97.526
97.358
97.76
98.203
98.247
97.68
97.411
96.929
97.644
98.011
97.392
97.546
97.814
97.071
97.379
97.123
97.058
97.248
97.522
97.481
98.258
97.638
97.356
96.74
96.831
96.709
97.691
97.355
96.942
96.72
96.874
96
96.325
97.026
97.219
97.331
97.343
97.159
97.686
97.435
97.076
97.437
97.019
98.086
97.814
98.118
97.703
96.665
96.587
96.512
97.058
97.432
97.094
96.724
96.253
96.356
96.908
97.03
97.535
97.934
97.868
97.819
97.397
97.317
96.607
96.557
96.835
96.73
97.509
97.283
97.952
98.495
97.464
97.9
96.941
97.303
97.449
97.774
96.98
96.752
97.258
)
;

boundaryField
{
    bottom
    {
        type            calculated;
        value           nonuniform List<scalar> 
200
(
96.963
96.88
97.12
98.149
98.269
97.693
96.39
96.284
96.724
97.35
96.985
97.682
97.592
97.33
97.344
97.316
97.127
97.278
96.892
96.621
97.071
97.088
96.836
96.922
96.792
97.782
97.972
96.935
97.167
97.346
96.667
96.514
96.958
96.555
97.557
97.462
97.632
97.51
97.747
97.754
97.176
97.362
96.922
97.062
96.281
96.678
96.589
97.43
96.602
97.531
97.69
97.692
96.901
97.218
96.884
97.02
96.651
97.246
97.608
96.858
97.372
96.128
96.488
96.196
97.26
96.406
96.692
96.645
97.107
97.046
95.942
96.516
96.641
96.499
96.473
97.104
96.463
96.948
96.826
96.573
97.792
97.538
97.246
97.146
96.963
96.886
97.99
97.899
98.081
98.402
98.115
98.186
97.887
96.661
96.92
96.276
96.893
95.998
96.519
96.487
95.935
96.505
96.837
96.937
96.615
96.98
96.656
96.467
97.095
97.645
96.966
96.721
96.935
96.71
96.713
96.627
97.516
97.176
96.852
96.787
97.339
97.45
97.298
98.088
96.848
97.523
97.177
98.061
97.321
97.787
97.351
96.996
98.285
98.64
97.882
97.668
97.179
97.223
97.063
96.532
97.105
97.694
97.036
97.106
97.549
96.87
97.53
97.151
97.285
96.905
97.506
96.777
97.165
96.866
96.421
96.117
97.064
96.759
96.935
97.568
97.202
96.647
96.881
96.948
96.569
97.519
97.475
97.366
97.535
97.655
97.92
97.301
97.019
96.598
96.847
97.55
97.401
97.078
97.498
96.444
97.035
97.673
97.332
96.506
97.107
96.66
96.852
96.956
97.095
97.129
97.548
97.026
96.226
96.454
97.419
96.939
97.245
96.985
96.933
97.489
)
;
    }
    top
    {
        type            calculated;
        value           nonuniform List<scalar> 
200
(
96.857
97.403
97.473
97.483
97.225
96.651
96.773
96.761
96.843
97.462
97.214
96.926
97.025
97.363
97.338
96.461
96.3
96.674
97.497
97.857
97.149
97.069
98.202
98.173
97.57
97.754
97.621
97.529
97.375
97.271
98.391
97.473
96.528
96.492
96.062
96.284
96.85
97.181
97.379
97.958
97.443
97.565
97.196
97.19
95.967
95.77
96.592
96.082
96.832
96.631
95.874
96.569
96.646
96.056
95.909
96.542
96.449
96.329
96.931
96.883
96.649
97.35
96.902
96.938
96.952
97.51
96.678
96.942
97.516
96.74
96.746
97.086
97.086
97.171
98.163
96.673
96.446
96.944
97.018
97.196
96.958
96.501
97.352
97.152
97.098
97.538
96.608
97.041
96.587
96.748
96.71
96.295
96.335
97.122
96.278
96.07
96.309
97.343
96.772
96.93
96.216
97.433
97.533
97.229
96.915
96.491
97.38
97.192
96.73
97.214
96.761
97.208
96.604
96.425
97.29
98.079
97.188
97.48
97.645
97.526
97.358
97.76
98.203
98.247
97.68
97.411
96.929
97.644
98.011
97.392
97.546
97.814
97.071
97.379
97.123
97.058
97.248
97.522
97.481
98.258
97.638
97.356
96.74
96.831
96.709
97.691
97.355
96.942
96.72
96.874
96
96.325
97.026
97.219
97.331
97.343
97.159
97.686
97.435
97.076
97.437
97.019
98.086
97.814
98.118
97.703
96.665
96.587
96.512
97.058
97.432
97.094
96.724
96.253
96.356
96.908
97.03
97.535
97.934
97.868
97.819
97.397
97.317
96.607
96.557
96.835
96.73
97.509
97.283
97.952
98.495
97.464
97.9
96.941
97.303
97.449
97.774
96.98
96.752
97.258
)
;
    }
    inlet
    {
        type            calculated;
        value           nonuniform List<scalar> 5(96.963 97.85 97.258 96.717 96.857);
    }
    outlet
    {
        type            calculated;
        value           nonuniform List<scalar> 5(97.489 96.417 97.475 97.225 97.258);
    }
    back
    {
        type            symmetry;
    }
    front
    {
        type            symmetry;
    }
}


// ************************************************************************* //
