/*--------------------------------*- C++ -*----------------------------------*\
| =========                 |                                                 |
| \\      /  F ield         | OpenFOAM: The Open Source CFD Toolbox           |
|  \\    /   O peration     | Version:  v1706                                 |
|   \\  /    A nd           | Web:      www.OpenFOAM.com                      |
|    \\/     M anipulation  |                                                 |
\*---------------------------------------------------------------------------*/
FoamFile
{
    version     2.0;
    format      ascii;
    class       volScalarField;
    location    "0.1";
    object      Ma_Ar;
}
// * * * * * * * * * * * * * * * * * * * * * * * * * * * * * * * * * * * * * //

dimensions      [0 0 0 0 0 0 0];


internalField   nonuniform List<scalar> 
1000
(
0.32796985
0.3230894846
0.3270298687
0.3222158419
0.320636119
0.3192632373
0.3223162887
0.3288673906
0.3258558426
0.3225829769
0.3226922371
0.3231662814
0.3220350642
0.3228092309
0.3271114639
0.3232217366
0.3245345046
0.3237721041
0.3239463096
0.3284509294
0.3256404138
0.3256781113
0.3249563352
0.326772356
0.3278204682
0.3258705376
0.3234075496
0.3217423606
0.3159669329
0.3198857655
0.3234000391
0.3214626202
0.3250928442
0.3225640136
0.3224503912
0.3250982737
0.3215644905
0.3212568497
0.3248999277
0.3243871508
0.3243947617
0.3235610305
0.3268226907
0.3316324331
0.3286557711
0.3276579093
0.3273293799
0.3254691766
0.3316318179
0.3333162033
0.3274106534
0.3261760231
0.3236707789
0.3271659297
0.3300484962
0.3268183473
0.3255454871
0.3260885428
0.3283405461
0.3292529947
0.3243600694
0.3281949073
0.325677618
0.324227637
0.3268409947
0.3274825456
0.3232055261
0.3199153996
0.3214880405
0.3211987369
0.3225602698
0.3210044134
0.3254766826
0.3258856736
0.323496569
0.326831123
0.3231432171
0.3234580557
0.3249664101
0.3264466417
0.3274075323
0.3266071259
0.3264516964
0.3259572223
0.3264497879
0.3238250218
0.3207630741
0.3217503184
0.3202625853
0.3232213724
0.3248742458
0.3242313042
0.3222124723
0.3225201288
0.32185236
0.3245639384
0.3250618096
0.3283954321
0.3284577819
0.3240138462
0.3286918726
0.329076404
0.3270262823
0.3245226281
0.3276946389
0.3223596275
0.3248412589
0.3208841842
0.3179378487
0.31980145
0.3249714247
0.3255943364
0.3262229109
0.3241882903
0.3195728741
0.3171724056
0.3154912072
0.321586925
0.3251211693
0.3288920769
0.3248218212
0.3225639964
0.3250170554
0.3196343828
0.3282290169
0.3246863343
0.3224380422
0.3190112098
0.3243162421
0.322357505
0.323099063
0.324752379
0.3259329322
0.325834399
0.3250755488
0.3241115661
0.320847546
0.3148834811
0.3166819899
0.3205268549
0.3186023919
0.3187943446
0.322946342
0.3228138657
0.3226702628
0.3266190502
0.3213553341
0.3214275349
0.322629916
0.3236842937
0.3257186444
0.3267399076
0.3257537281
0.3258125715
0.3264021318
0.3296506931
0.325266284
0.325181888
0.3232517603
0.3240343155
0.3262744381
0.3255967374
0.3232745491
0.3210606403
0.3253736901
0.3226541269
0.3284069121
0.3280720238
0.3284338936
0.3287679447
0.32627403
0.3211142622
0.3229202421
0.3271756709
0.3275957373
0.3237176062
0.3265328699
0.3296788008
0.3342094341
0.3346427958
0.3287192256
0.3298023792
0.3277629657
0.3270974099
0.3210948455
0.3250220464
0.3260986665
0.3283807058
0.3253707015
0.3284612851
0.326753106
0.3271573915
0.3250592555
0.3288255538
0.3267043511
0.3258340019
0.3267667369
0.3290188459
0.3276810123
0.3279860392
0.3219583515
0.326806745
0.3310514242
0.323312666
0.3226594225
0.3234338682
0.327149223
0.3233529998
0.3242797258
0.3217981865
0.3296690741
0.3258976571
0.3247781436
0.3250409566
0.3145759722
0.317164219
0.3243931001
0.3237092017
0.3183477914
0.3188895274
0.3179266547
0.3231199441
0.3256120665
0.3276247344
0.328414375
0.3277015804
0.3238364254
0.3272106508
0.3282673044
0.3243598805
0.3238083514
0.3271914576
0.3239076658
0.3287439196
0.3283447265
0.3235809281
0.3279557547
0.3275571945
0.3254085259
0.3192855916
0.3190014194
0.3262975242
0.3224257908
0.3305108491
0.3270128909
0.3283514019
0.3275016572
0.3241065929
0.329206468
0.3272176759
0.331416251
0.32632745
0.328929
0.3309218212
0.3292029077
0.3278552545
0.330779724
0.3275548834
0.3246975753
0.3218676446
0.3248838076
0.3265289773
0.3310911659
0.3290821179
0.323970069
0.3280272881
0.3286736749
0.3276988344
0.3265117889
0.329857484
0.3272177235
0.3263792611
0.3273616251
0.3283077006
0.3269939029
0.3256112834
0.3233824069
0.3257114512
0.3302865319
0.3282998693
0.3248770227
0.3203733603
0.3220785749
0.3217380819
0.3262208607
0.3265844916
0.322266256
0.3239395545
0.3286627587
0.3252089649
0.3249225358
0.3205464826
0.320880435
0.3304648799
0.3273471337
0.3279128227
0.3266078725
0.3291774305
0.3327545692
0.3305555382
0.3329049534
0.3318898497
0.3306780031
0.328821383
0.3261855992
0.3321974742
0.3245079749
0.3267860244
0.3263713522
0.3231237928
0.3238637031
0.3254159452
0.3253859887
0.3254913997
0.3264469006
0.3268784566
0.3256003891
0.3241430306
0.3298365235
0.3211822647
0.3283002686
0.3312294463
0.3277581505
0.3244431465
0.3262990372
0.3259860531
0.323015904
0.3251588587
0.3231992743
0.3242998214
0.3214995164
0.3214313502
0.317275636
0.318372364
0.3237973816
0.3217646873
0.3226945828
0.3253792984
0.3214821515
0.327811853
0.3218674775
0.3197722707
0.322180775
0.3233266307
0.3255924901
0.3272028719
0.3231660183
0.3263665777
0.3228909552
0.3213806818
0.323930879
0.3294215648
0.3325326117
0.3297441668
0.3280593664
0.3258531881
0.3228485619
0.3280029603
0.3281918976
0.3275724042
0.3258537357
0.3249813763
0.3293299115
0.3309730086
0.3249963137
0.3267787921
0.3297554031
0.3280207692
0.3326850346
0.3253311681
0.3292279213
0.3261472138
0.3280483189
0.3293122664
0.3297030661
0.3277165934
0.3249429109
0.3242282055
0.3244612936
0.3271594719
0.328178144
0.3288410125
0.3282515865
0.3305769224
0.3304819762
0.3234682429
0.3229961285
0.3251591582
0.326609563
0.3237109525
0.3241765561
0.3257008014
0.3308310499
0.3215269836
0.3249501296
0.3241014448
0.3229888351
0.3257566599
0.3266312324
0.3292559677
0.3245153069
0.3263504855
0.3206401608
0.3213662841
0.3220051202
0.3275630144
0.3300864032
0.3262986435
0.3229975645
0.3251890808
0.3269044778
0.3265250696
0.3283765485
0.3245694021
0.3220574505
0.3235214324
0.3249954092
0.3263115494
0.3253190167
0.3261424305
0.3234690069
0.32189828
0.3271302747
0.3214943785
0.3247618051
0.3204982821
0.3252653909
0.3259762196
0.329309522
0.3290030606
0.3261610461
0.3239520253
0.3301254983
0.3310860641
0.3232311083
0.3254634137
0.3220203869
0.323426816
0.321751957
0.3202492535
0.324818466
0.3230357958
0.3267335728
0.3208678062
0.3281999956
0.3293660006
0.3334670565
0.3290837984
0.3236927397
0.3250435771
0.3224722127
0.3245914586
0.3243428357
0.3259012417
0.3301877964
0.3273751831
0.3289986737
0.3312640472
0.3308240747
0.3255264873
0.3261127315
0.326587205
0.3230761005
0.332931548
0.3322011964
0.3269210286
0.3283319734
0.3307446182
0.3256729347
0.3269008498
0.3301055231
0.331854066
0.3230863877
0.3238062017
0.3239989373
0.3281266482
0.3291340231
0.3245151014
0.3250551837
0.3243537376
0.323174229
0.3204417001
0.3227183003
0.322240288
0.3210567755
0.3240220009
0.3257671125
0.3253309653
0.3265878856
0.3262771793
0.3232193947
0.329140741
0.3260590848
0.3286180198
0.3339014637
0.3239007744
0.3262405352
0.3284752807
0.3239012245
0.3295517548
0.3242494593
0.3266110583
0.3257745826
0.3242335205
0.3249331626
0.323611495
0.3290999378
0.3244093189
0.3238010092
0.3248159163
0.3209517031
0.3231607177
0.3257375964
0.3227387031
0.3175912951
0.3241691246
0.3234402253
0.3260062627
0.3255980451
0.3264394936
0.3247089029
0.3284237305
0.3255142768
0.3175317985
0.3176925078
0.3219521334
0.3232716799
0.3237878752
0.3237370891
0.3282976146
0.3254134912
0.3235397244
0.3225275532
0.3208950471
0.3209826895
0.3225923839
0.3245612078
0.3277228725
0.3280483113
0.3291024422
0.3226896718
0.3238815799
0.3240374515
0.3230127838
0.3226746385
0.323661344
0.3259730881
0.324961278
0.3303708074
0.3297321501
0.3286633256
0.329609343
0.3293827054
0.3289893882
0.3305035004
0.3222207889
0.3259092026
0.328822835
0.3231857643
0.3260454204
0.3236558813
0.3286882058
0.3266490648
0.3305738048
0.32756061
0.3224064604
0.3195724464
0.3202787289
0.3204767986
0.3226550558
0.3279683054
0.328591518
0.3270483311
0.3253141114
0.3270660154
0.3281546221
0.3222255018
0.3209981204
0.3235732151
0.322545133
0.3229713583
0.3258967821
0.3278805145
0.3283995806
0.3267975921
0.3257897545
0.324800177
0.3258714717
0.3287639183
0.3263762305
0.3304956974
0.3261670726
0.3266203437
0.3278537724
0.3248160091
0.3237773437
0.3279291374
0.32264835
0.3268418474
0.3235730136
0.3264281876
0.3210206078
0.3237548954
0.3248025147
0.3264181961
0.3261431783
0.3257151751
0.3255929647
0.3262709436
0.3250679058
0.3233987643
0.3236770452
0.3230832207
0.3285497002
0.3278350665
0.3317966706
0.3276645914
0.3299652742
0.3285209309
0.3290440864
0.3293711153
0.3268327264
0.3223136509
0.3213362596
0.3231977851
0.3223671791
0.324037303
0.3226089278
0.3300968459
0.3285323604
0.327738628
0.3263549931
0.3249806438
0.3300004602
0.3315029738
0.3251458377
0.3281906894
0.3246873385
0.3259331471
0.3326112361
0.3286658935
0.3271571873
0.32231046
0.325799798
0.3241147671
0.3259415661
0.3225514909
0.326518465
0.3261575433
0.3203697088
0.3229489435
0.3264171277
0.3245233578
0.3208323909
0.3176130803
0.3257069221
0.3267999388
0.3251766282
0.3276881265
0.3278491573
0.3274248909
0.3247973979
0.3299108517
0.3319758001
0.3252823646
0.3289565818
0.330892905
0.325519778
0.3260570412
0.3300453086
0.3280880803
0.3289806038
0.3257637336
0.3295794311
0.3206657013
0.3227519089
0.3241425044
0.3240744085
0.319912034
0.3231964537
0.3244652287
0.3300525705
0.3255544495
0.3239280071
0.3240099101
0.3241860139
0.3287529115
0.3280408814
0.3228009485
0.3247747421
0.3256430453
0.3260821488
0.3292208533
0.3236781141
0.3252960452
0.3299475332
0.32882862
0.326218366
0.3260822796
0.3226652936
0.3259292196
0.3272112131
0.3216292191
0.3203224609
0.3218230195
0.3225296428
0.3233719397
0.3304390321
0.3272272029
0.3307428747
0.3299018211
0.322704609
0.323281842
0.3232942209
0.3285153454
0.3300781475
0.3236119504
0.3258249216
0.3248340639
0.3230324824
0.3216887666
0.3222910158
0.3228036286
0.321254807
0.3246849166
0.3246897614
0.3244445988
0.3290970025
0.3268673529
0.3266358126
0.3224753642
0.3237033125
0.3270797885
0.3250963801
0.3211308285
0.3230945215
0.3208822265
0.3289738222
0.3270007213
0.3259999863
0.329101351
0.3291625166
0.3269891801
0.3260632186
0.3252952789
0.3229687479
0.3247403107
0.3307418045
0.3273868202
0.3293329194
0.3244209168
0.3188373117
0.3209998223
0.3229605272
0.3245098434
0.3265234267
0.3255146448
0.3224282174
0.3299249738
0.3260613208
0.3270018179
0.3279768943
0.3284842846
0.3246313709
0.3249076696
0.3263535857
0.3255701939
0.3252946502
0.3244883454
0.3244040618
0.3264652159
0.3226987337
0.3256525963
0.3250186318
0.3262283383
0.3290898117
0.3277330746
0.3260399164
0.3245772386
0.3264972823
0.3252725739
0.3243271373
0.324338253
0.3236382367
0.3234135642
0.3266313338
0.3299562792
0.3304533553
0.327243819
0.3211211907
0.3255478798
0.3245214358
0.3243172046
0.3286682379
0.3298721139
0.328140282
0.3252985352
0.3265225833
0.3213302391
0.3274193268
0.324257411
0.3250053482
0.3225722247
0.3299487043
0.32994639
0.3317191062
0.3276209584
0.3282375646
0.3311937258
0.3317986846
0.3279142112
0.3235492749
0.3255840389
0.3280514673
0.3306576402
0.3303637509
0.3264330156
0.3285819404
0.3308572579
0.3293469427
0.3330238691
0.3284133824
0.3247731946
0.3228755409
0.3233362945
0.3255155535
0.3253770531
0.3293484329
0.3231394473
0.3252872729
0.322439006
0.3234474013
0.325958265
0.3239157536
0.3274801714
0.3324400192
0.3278971344
0.3246252953
0.3259153955
0.3269173441
0.3224497876
0.32267055
0.3239226867
0.322123361
0.3194590563
0.3234458271
0.3232707872
0.3231558443
0.3240069767
0.3244214156
0.3229387706
0.3234912275
0.328257401
0.3283759401
0.3278394078
0.3225945064
0.3242505482
0.3271229549
0.3235508704
0.32539089
0.331886765
0.3284701718
0.3303792264
0.3233480918
0.3281777967
0.3203018138
0.3195819059
0.3255440695
0.3267547365
0.3244429716
0.3280720436
0.3236086758
0.3259326815
0.3252376259
0.3264322565
0.327250665
0.3267919905
0.3259834773
0.3256222813
0.3241099206
0.3296818098
0.3276636915
0.3268045641
0.3291371746
0.3292814834
0.3281200413
0.327578607
0.3208013148
0.3242399163
0.3264070388
0.3281512694
0.3260910681
0.3267472265
0.324410272
0.3270018119
0.3272945925
0.3245920302
0.3190564581
0.3191356363
0.3233474499
0.3251057523
0.3223007107
0.3249587782
0.3257964796
0.3249658082
0.3264723518
0.3220517298
0.3230389789
0.3265244053
0.3277713143
0.3287199003
0.3254762027
0.3294815303
0.3326753688
0.3270882468
0.324988909
0.326596111
0.3280737373
0.3233046069
0.3210925016
0.3234184547
0.3214773514
0.320949507
0.3258998239
0.3248104595
0.326859617
0.3296661959
0.323045056
0.3232375296
0.3233337085
0.3279966406
0.3273826867
0.328398079
0.3285991983
0.3279064751
0.3280056816
0.3295355025
0.3260948646
0.3269581088
0.3294078701
0.3252052778
0.3275375276
0.3281984397
0.3276583562
0.3281074279
0.3254782628
0.3256221124
0.3189709309
0.3203918626
0.3240258062
0.3274102897
0.328345979
0.3254991151
0.324592077
0.3231814307
0.326290162
0.3299945906
0.3279666103
0.3267746208
0.3297955796
0.3261347361
0.3265751712
0.3241899921
0.3236884849
0.3241675027
0.327928236
0.3299612931
0.3304334587
0.332215791
0.326180209
0.32411753
0.3226468536
0.3295205429
0.328107014
0.3228956932
0.3244585726
0.3267339621
0.3257217962
0.3244967896
0.3187986316
0.3177146828
0.3186573626
0.3206679901
0.3239204395
0.3299846513
0.3258685082
0.3272533273
0.3237028757
0.3257924995
0.3255658012
0.3213016766
0.3238329674
0.3245329851
0.3205559851
0.3230787689
0.321856815
0.3241187198
0.3280589615
0.3282434771
0.3221531988
)
;

boundaryField
{
    bottom
    {
        type            calculated;
        value           nonuniform List<scalar> 
200
(
0.32796985
0.3230894846
0.3270298687
0.3222158419
0.320636119
0.3192632373
0.3223162887
0.3288673906
0.3258558426
0.3225829769
0.3226922371
0.3231662814
0.3220350642
0.3228092309
0.3271114639
0.3232217366
0.3245345046
0.3237721041
0.3239463096
0.3284509294
0.3256404138
0.3256781113
0.3249563352
0.326772356
0.3278204682
0.3258705376
0.3234075496
0.3217423606
0.3159669329
0.3198857655
0.3234000391
0.3214626202
0.3250928442
0.3225640136
0.3224503912
0.3250982737
0.3215644905
0.3212568497
0.3248999277
0.3243871508
0.3243947617
0.3235610305
0.3268226907
0.3316324331
0.3286557711
0.3276579093
0.3273293799
0.3254691766
0.3316318179
0.3333162033
0.3274106534
0.3261760231
0.3236707789
0.3271659297
0.3300484962
0.3268183473
0.3255454871
0.3260885428
0.3283405461
0.3292529947
0.3243600694
0.3281949073
0.325677618
0.324227637
0.3268409947
0.3274825456
0.3232055261
0.3199153996
0.3214880405
0.3211987369
0.3225602698
0.3210044134
0.3254766826
0.3258856736
0.323496569
0.326831123
0.3231432171
0.3234580557
0.3249664101
0.3264466417
0.3274075323
0.3266071259
0.3264516964
0.3259572223
0.3264497879
0.3238250218
0.3207630741
0.3217503184
0.3202625853
0.3232213724
0.3248742458
0.3242313042
0.3222124723
0.3225201288
0.32185236
0.3245639384
0.3250618096
0.3283954321
0.3284577819
0.3240138462
0.3286918726
0.329076404
0.3270262823
0.3245226281
0.3276946389
0.3223596275
0.3248412589
0.3208841842
0.3179378487
0.31980145
0.3249714247
0.3255943364
0.3262229109
0.3241882903
0.3195728741
0.3171724056
0.3154912072
0.321586925
0.3251211693
0.3288920769
0.3248218212
0.3225639964
0.3250170554
0.3196343828
0.3282290169
0.3246863343
0.3224380422
0.3190112098
0.3243162421
0.322357505
0.323099063
0.324752379
0.3259329322
0.325834399
0.3250755488
0.3241115661
0.320847546
0.3148834811
0.3166819899
0.3205268549
0.3186023919
0.3187943446
0.322946342
0.3228138657
0.3226702628
0.3266190502
0.3213553341
0.3214275349
0.322629916
0.3236842937
0.3257186444
0.3267399076
0.3257537281
0.3258125715
0.3264021318
0.3296506931
0.325266284
0.325181888
0.3232517603
0.3240343155
0.3262744381
0.3255967374
0.3232745491
0.3210606403
0.3253736901
0.3226541269
0.3284069121
0.3280720238
0.3284338936
0.3287679447
0.32627403
0.3211142622
0.3229202421
0.3271756709
0.3275957373
0.3237176062
0.3265328699
0.3296788008
0.3342094341
0.3346427958
0.3287192256
0.3298023792
0.3277629657
0.3270974099
0.3210948455
0.3250220464
0.3260986665
0.3283807058
0.3253707015
0.3284612851
0.326753106
0.3271573915
0.3250592555
0.3288255538
0.3267043511
0.3258340019
0.3267667369
0.3290188459
0.3276810123
0.3279860392
)
;
    }
    top
    {
        type            calculated;
        value           nonuniform List<scalar> 
200
(
0.324257411
0.3250053482
0.3225722247
0.3299487043
0.32994639
0.3317191062
0.3276209584
0.3282375646
0.3311937258
0.3317986846
0.3279142112
0.3235492749
0.3255840389
0.3280514673
0.3306576402
0.3303637509
0.3264330156
0.3285819404
0.3308572579
0.3293469427
0.3330238691
0.3284133824
0.3247731946
0.3228755409
0.3233362945
0.3255155535
0.3253770531
0.3293484329
0.3231394473
0.3252872729
0.322439006
0.3234474013
0.325958265
0.3239157536
0.3274801714
0.3324400192
0.3278971344
0.3246252953
0.3259153955
0.3269173441
0.3224497876
0.32267055
0.3239226867
0.322123361
0.3194590563
0.3234458271
0.3232707872
0.3231558443
0.3240069767
0.3244214156
0.3229387706
0.3234912275
0.328257401
0.3283759401
0.3278394078
0.3225945064
0.3242505482
0.3271229549
0.3235508704
0.32539089
0.331886765
0.3284701718
0.3303792264
0.3233480918
0.3281777967
0.3203018138
0.3195819059
0.3255440695
0.3267547365
0.3244429716
0.3280720436
0.3236086758
0.3259326815
0.3252376259
0.3264322565
0.327250665
0.3267919905
0.3259834773
0.3256222813
0.3241099206
0.3296818098
0.3276636915
0.3268045641
0.3291371746
0.3292814834
0.3281200413
0.327578607
0.3208013148
0.3242399163
0.3264070388
0.3281512694
0.3260910681
0.3267472265
0.324410272
0.3270018119
0.3272945925
0.3245920302
0.3190564581
0.3191356363
0.3233474499
0.3251057523
0.3223007107
0.3249587782
0.3257964796
0.3249658082
0.3264723518
0.3220517298
0.3230389789
0.3265244053
0.3277713143
0.3287199003
0.3254762027
0.3294815303
0.3326753688
0.3270882468
0.324988909
0.326596111
0.3280737373
0.3233046069
0.3210925016
0.3234184547
0.3214773514
0.320949507
0.3258998239
0.3248104595
0.326859617
0.3296661959
0.323045056
0.3232375296
0.3233337085
0.3279966406
0.3273826867
0.328398079
0.3285991983
0.3279064751
0.3280056816
0.3295355025
0.3260948646
0.3269581088
0.3294078701
0.3252052778
0.3275375276
0.3281984397
0.3276583562
0.3281074279
0.3254782628
0.3256221124
0.3189709309
0.3203918626
0.3240258062
0.3274102897
0.328345979
0.3254991151
0.324592077
0.3231814307
0.326290162
0.3299945906
0.3279666103
0.3267746208
0.3297955796
0.3261347361
0.3265751712
0.3241899921
0.3236884849
0.3241675027
0.327928236
0.3299612931
0.3304334587
0.332215791
0.326180209
0.32411753
0.3226468536
0.3295205429
0.328107014
0.3228956932
0.3244585726
0.3267339621
0.3257217962
0.3244967896
0.3187986316
0.3177146828
0.3186573626
0.3206679901
0.3239204395
0.3299846513
0.3258685082
0.3272533273
0.3237028757
0.3257924995
0.3255658012
0.3213016766
0.3238329674
0.3245329851
0.3205559851
0.3230787689
0.321856815
0.3241187198
0.3280589615
0.3282434771
0.3221531988
)
;
    }
    inlet
    {
        type            calculated;
        value           nonuniform List<scalar> 5(0.32796985 0.3219583515 0.3245153069 0.3264281876 0.324257411);
    }
    outlet
    {
        type            calculated;
        value           nonuniform List<scalar> 5(0.3279860392 0.3292559677 0.3235730136 0.3274193268 0.3221531988);
    }
    back
    {
        type            symmetry;
    }
    front
    {
        type            symmetry;
    }
}


// ************************************************************************* //
