/*--------------------------------*- C++ -*----------------------------------*\
| =========                 |                                                 |
| \\      /  F ield         | OpenFOAM: The Open Source CFD Toolbox           |
|  \\    /   O peration     | Version:  v1706                                 |
|   \\  /    A nd           | Web:      www.OpenFOAM.com                      |
|    \\/     M anipulation  |                                                 |
\*---------------------------------------------------------------------------*/
FoamFile
{
    version     2.0;
    format      ascii;
    class       volScalarField;
    location    "0.1";
    object      p_Ar;
}
// * * * * * * * * * * * * * * * * * * * * * * * * * * * * * * * * * * * * * //

dimensions      [1 -1 -2 0 0 0 0];


internalField   nonuniform List<scalar> 
1000
(
0.5252184068
0.5272655321
0.5270838454
0.5358033038
0.5340473627
0.5315706635
0.5273029878
0.5234961374
0.5296330175
0.5285504808
0.5278352265
0.5251335554
0.5271156297
0.5264804838
0.5271457839
0.5289843473
0.5258383475
0.5259015886
0.5241175988
0.5233428744
0.5236719445
0.5269390683
0.524946281
0.524686563
0.5235991579
0.529137109
0.5256339067
0.5258902382
0.5272401111
0.528163922
0.5268002769
0.5274456483
0.5234817016
0.5254721706
0.528320746
0.5272738
0.5277766342
0.5294107695
0.5307605452
0.5285640171
0.527848642
0.5295567573
0.5265209837
0.5282606775
0.5271645027
0.5296373416
0.528089003
0.5323164901
0.5259568738
0.527548231
0.5324244595
0.5318071072
0.5274491446
0.5272760785
0.5255778083
0.5294254589
0.5281566313
0.5271426873
0.5286299522
0.5263191466
0.5280974704
0.5229816466
0.5259135705
0.5217296924
0.5279438214
0.5225798447
0.5246783877
0.526550833
0.5267414472
0.5292531374
0.5244459465
0.526814375
0.5223475367
0.5249388315
0.5267988161
0.5287386968
0.5253426711
0.5289913004
0.5247309522
0.5268752833
0.529988646
0.5296744388
0.526491749
0.5298385786
0.5287231868
0.5282392337
0.5294291636
0.5292402973
0.5314021544
0.5297621462
0.5294369438
0.5264502149
0.5250385991
0.5285747925
0.5268073119
0.5255259347
0.5279400469
0.5233271187
0.5264477387
0.5262769401
0.520514708
0.524457023
0.5270589779
0.5238171486
0.5236392864
0.5264762793
0.527626145
0.5274521659
0.5312959742
0.5308670753
0.5279326152
0.5280786095
0.5274068981
0.5279791667
0.52784254
0.5280773632
0.5301163283
0.5278241297
0.5260398023
0.5258629949
0.5275010446
0.5311779605
0.5282413793
0.5312047571
0.5236493541
0.5262247499
0.5273201775
0.5310201157
0.527021642
0.5298717633
0.5279117761
0.5246833106
0.5311184227
0.5335003458
0.5304189138
0.5323528175
0.5308606123
0.5300744005
0.5282703484
0.5281531437
0.528236304
0.5319644163
0.5292750442
0.5298714501
0.535923064
0.5306954518
0.5341177666
0.5297173384
0.5309549439
0.5291672886
0.5316149849
0.5249174174
0.5280820904
0.5251831592
0.526215283
0.5242685782
0.5288033379
0.5256633392
0.5212152623
0.5225580477
0.5263594518
0.5220325228
0.5269214144
0.5280602468
0.5255606645
0.527091578
0.5297088437
0.5269321326
0.5263576623
0.5286558342
0.5277772102
0.5285637321
0.5267087795
0.5249068634
0.5239847664
0.524852137
0.5273160439
0.5268721781
0.5281274115
0.5271770721
0.5297558754
0.535727588
0.5300394708
0.5293104483
0.5282413689
0.5295112659
0.5283081101
0.5302284977
0.5263442666
0.5275852552
0.5255935651
0.5262776827
0.5253091889
0.5279625646
0.5315871208
0.526065994
0.5274721316
0.5277951305
0.525528782
0.5293307021
0.5307272186
0.5324317773
0.5297708948
0.528400672
0.5261123793
0.5272613904
0.5271254853
0.5271561538
0.53020086
0.5308543377
0.5225901314
0.5297059117
0.5314510988
0.5309373934
0.531180333
0.5287654868
0.5299631309
0.5247232006
0.5273321954
0.527470734
0.5294065532
0.5274507951
0.5253101316
0.5268676614
0.5245739591
0.5297720246
0.5280585033
0.530577786
0.5302312395
0.5286659772
0.5288726015
0.5273890655
0.5264122892
0.5249009858
0.5246853142
0.5290675046
0.5277145817
0.5323511552
0.5280256531
0.5289211544
0.5290176139
0.5283651507
0.5266065308
0.5273776292
0.5283649216
0.526006692
0.5289334758
0.5336899577
0.5240349619
0.5266512275
0.5244742653
0.5295794314
0.5288666637
0.5267341972
0.5239841005
0.5280412636
0.5261200886
0.5224621098
0.5267240236
0.5271627174
0.5276961595
0.5274305017
0.5208787771
0.5262738907
0.5221761886
0.5229763013
0.5277757042
0.5309004662
0.525335177
0.5287808318
0.5298765931
0.5230925438
0.5263898789
0.5278781024
0.5292808948
0.5287055225
0.5287787196
0.532672773
0.5338756713
0.5274548294
0.5271425406
0.5309673924
0.5280531485
0.5334002594
0.5281973051
0.5268835298
0.5294287531
0.5268796487
0.5325310987
0.5292786304
0.5239672508
0.5280892189
0.5324061579
0.5295160385
0.5280401322
0.5263571995
0.5274957087
0.5293229699
0.5283581565
0.5262879076
0.5269395137
0.5224241619
0.5256998271
0.5251633772
0.5276792028
0.5259184637
0.5282817671
0.5295108412
0.5286368601
0.5275369586
0.5262147739
0.5237011372
0.5289874967
0.525230401
0.5316408019
0.5323255591
0.5337513441
0.5287187076
0.5244294491
0.5289698539
0.527467159
0.5258323203
0.5298145448
0.5298396678
0.5297339901
0.5286490734
0.5300765599
0.5291867473
0.5299550422
0.5251064401
0.5309405639
0.5301785524
0.527216089
0.5307739153
0.530802272
0.5327063767
0.5321970528
0.526016376
0.5240298931
0.5237284794
0.5326359073
0.5311460466
0.5302905389
0.525422601
0.5297563389
0.5321536109
0.5288612047
0.530095645
0.526744955
0.5302938648
0.5307025988
0.5257980755
0.5238087404
0.5234020455
0.5291174757
0.524596836
0.5249554344
0.524181541
0.524748194
0.5264015787
0.5260156865
0.5272909271
0.5266187992
0.525396824
0.5277916335
0.5339262664
0.5292375862
0.5283828422
0.524895306
0.5247536197
0.5234581233
0.5331061241
0.5243256265
0.5235405263
0.5256528445
0.5254567324
0.5299395792
0.5285257081
0.5228186467
0.5214430991
0.5303880221
0.5272552945
0.531219734
0.5296040093
0.5268237799
0.5324407076
0.527232659
0.5210170223
0.5259744447
0.5288158129
0.5239360799
0.5281455917
0.5286418807
0.5298909018
0.5287946983
0.5276765752
0.5304464544
0.5257140113
0.5251698638
0.5233044421
0.5290082666
0.5265179917
0.5306646874
0.5306532137
0.5281010587
0.52751274
0.5248236769
0.5285252544
0.5295113364
0.5284818679
0.5272375188
0.5293545524
0.5298289643
0.5267372925
0.5294069409
0.5276860271
0.5301476538
0.5294482526
0.5266934402
0.5263271115
0.5275844055
0.5312331797
0.5241794411
0.5314494007
0.5288899869
0.5304539972
0.5274589765
0.5274410229
0.52550116
0.5238693518
0.5261840552
0.5302003551
0.5293536865
0.5266458025
0.5252873646
0.5278439034
0.5298007328
0.5297896765
0.5273454424
0.5283093174
0.5273770595
0.5268857
0.5286568196
0.5256443115
0.5273461915
0.5270237738
0.5278046237
0.5287259198
0.5241607071
0.5232786603
0.5301899737
0.5263005444
0.5255660375
0.5308535572
0.5296085482
0.5227159099
0.5224383445
0.5231420084
0.5251128576
0.5280733488
0.5266217853
0.5248119029
0.520281506
0.5225194331
0.5252732253
0.5279916243
0.5308854242
0.5243470168
0.5271633778
0.5241405667
0.5252329436
0.5252544637
0.5275201205
0.5279202346
0.5281574363
0.5271264136
0.5300488861
0.5304212051
0.533988911
0.5255189453
0.5256353447
0.5307894364
0.5310671832
0.5297943486
0.5298658472
0.5289113933
0.5280154973
0.5303793468
0.5285339709
0.5270771756
0.527443949
0.5278769908
0.5315029327
0.5276926315
0.5256299002
0.5267149966
0.5277711222
0.5245096624
0.5301235772
0.5264936768
0.5257630621
0.5255006061
0.5267600914
0.5294993083
0.5267737024
0.5321471929
0.5253662778
0.5281367333
0.5290196492
0.5255200256
0.5301544421
0.5277632726
0.526611403
0.5315300394
0.534337509
0.5266043134
0.5232431817
0.5285253784
0.5251839593
0.5294262772
0.5256618568
0.529292128
0.5279436771
0.5351210655
0.5314306048
0.530861683
0.529158345
0.5265537346
0.5308392326
0.5261762939
0.5306657389
0.5279171414
0.5254588247
0.5291632551
0.5336088053
0.5311236237
0.5326082071
0.5290593471
0.5271743744
0.525908232
0.5310720179
0.5305625619
0.5274373743
0.5333068806
0.5263996257
0.5280197822
0.5313031958
0.5269813211
0.5257787432
0.529416504
0.5281174326
0.5272042471
0.525746388
0.5229594001
0.5248208231
0.5283160457
0.5255642239
0.523469363
0.5273065931
0.5256996164
0.5253400056
0.5258628122
0.5216162404
0.5268837923
0.5259153209
0.5268437685
0.5252327762
0.5259025258
0.5271911505
0.5278190148
0.5309202744
0.5291470398
0.5280803889
0.5235640814
0.5251042604
0.5249715566
0.5263209033
0.5273806592
0.5281207003
0.5285431683
0.5283461837
0.5274566762
0.5289391304
0.5276362815
0.5280288586
0.5257741861
0.5249847594
0.5246852596
0.5239125001
0.5280958238
0.5298258153
0.5284177039
0.5274813323
0.5318466871
0.5298950386
0.5295309713
0.5307117242
0.5292412047
0.5264134689
0.5293883913
0.5268076252
0.5298015675
0.5278008218
0.5291458196
0.5280018905
0.5303008617
0.5309955428
0.5282447445
0.5295565887
0.5261999678
0.5296674677
0.5296233514
0.5303625426
0.526521595
0.5275177169
0.527109493
0.526587789
0.5252819218
0.5286685289
0.5250660092
0.5240583047
0.5271096039
0.5306363337
0.5297220572
0.5307540107
0.5264904003
0.5282235783
0.5275954575
0.5292463587
0.5324946194
0.5297357613
0.5298152849
0.5279101655
0.5271803257
0.5267360783
0.5239610475
0.5261272668
0.52824965
0.5299309853
0.5300225533
0.5276158763
0.5322810906
0.5330962148
0.5263296009
0.5283753612
0.5259604385
0.5229940482
0.5265219065
0.526314717
0.5254773286
0.5257889328
0.5236300839
0.526725689
0.5266817763
0.5269130236
0.5272816744
0.5261460824
0.5217051005
0.522961521
0.5289753482
0.5260186389
0.5252109683
0.5226275432
0.523777708
0.5234191086
0.5258783744
0.5257416405
0.5264024149
0.5246986106
0.52604972
0.5283288451
0.5277010173
0.5279915554
0.5288942605
0.5329159715
0.5272116653
0.5264427889
0.5272617629
0.5287950972
0.5236932224
0.5293851624
0.5269559932
0.5289275447
0.5324538184
0.5292477409
0.5297519374
0.5265421911
0.5292766226
0.5281240556
0.5280909961
0.5271864584
0.5292998203
0.5279466688
0.5281053116
0.5296134589
0.5266803651
0.5261027435
0.5265961794
0.5267420621
0.5255999294
0.5288188565
0.5279964886
0.5270391912
0.5321192502
0.5298174635
0.5307097527
0.5279103391
0.5251614425
0.5295919878
0.5287276783
0.5214652475
0.5239298185
0.5300787587
0.5273244444
0.5303369424
0.5296366831
0.5311852981
0.5294079845
0.5276169833
0.5294182579
0.5266530031
0.5272522378
0.5303034799
0.5320419365
0.5304422449
0.5288359641
0.5258417057
0.5281582074
0.5272605718
0.5280679539
0.5295387791
0.5311326847
0.5256557733
0.5250787062
0.5299630846
0.5345617513
0.5299138464
0.52999295
0.532894096
0.5309488691
0.531515566
0.5239294721
0.5267499324
0.5333902134
0.5268608646
0.5295784793
0.5309412379
0.5298213318
0.5318903301
0.5253763499
0.5248202677
0.5292197291
0.5271084846
0.527284528
0.5280122253
0.534390338
0.5251557705
0.5295722152
0.5283219789
0.5273761961
0.5276116969
0.529864461
0.5298392453
0.5284098631
0.5264920336
0.5288527177
0.5217144884
0.5250092241
0.5239904181
0.5270583441
0.5272957601
0.5340860339
0.5266213694
0.5325862148
0.5284610295
0.5282333641
0.5233242641
0.5282111311
0.5322853682
0.5317234405
0.5321238096
0.5273558827
0.5246349988
0.5317734663
0.5282808189
0.5301908364
0.5287373689
0.5259730945
0.5247576263
0.5258344523
0.5258181246
0.5288686807
0.5264490409
0.5307044481
0.5271269279
0.5327912971
0.5312726473
0.5279782404
0.5285628919
0.5269711197
0.5252595018
0.5267446429
0.5296326194
0.5290265022
0.5265242761
0.525089526
0.5258784758
0.5271366571
0.5246050032
0.5261116151
0.5249735526
0.5283199535
0.5308463088
0.5299446224
0.5300905251
0.5280634014
0.528797422
0.5288697197
0.5269556538
0.5310710944
0.5296190685
0.5254216099
0.5289393541
0.5299619641
0.5309899556
0.5293069054
0.5288749188
0.5265156039
0.5276930874
0.5264158498
0.5321413459
0.5321428802
0.5270101399
0.5258317346
0.5248928372
0.5246411954
0.5265791786
0.5278937211
0.5258733287
0.526487493
0.5288213581
0.5312713955
0.5297113647
0.529421177
0.5221494101
0.5224894572
0.5262221947
0.5215207452
0.5236128211
0.5257076376
0.5237718648
0.5303608653
0.5275906936
0.5225112753
0.5266748358
0.5239777743
0.5249695533
0.5248104899
0.5237667288
0.526609838
0.5239146139
0.5287035275
0.5216978823
0.5254444268
0.523554968
0.5284269531
0.5272584675
0.5286214101
0.5328526115
0.5276258498
0.5257673516
0.5275025025
0.5269092827
0.526985015
0.5304300617
0.5258141523
0.523956258
0.5238731784
0.5248079531
0.5286473041
0.5240706851
0.527240612
0.5252777337
0.524116979
0.5248394973
0.5281573393
0.5257242166
0.5269897854
0.5251351424
0.5245266463
0.5244256498
0.5223513094
0.5224176684
0.5287738756
0.5250495184
0.5244051941
0.5266571298
0.5280435907
0.5252500491
0.5262795871
0.5218854028
0.5256841243
0.5281181991
0.52920813
0.5322145719
0.5248358915
0.527331574
0.5272904691
0.5253908914
0.5271670074
0.5265124748
0.5273349057
0.5287258339
0.5249466136
0.5253283612
0.5309615544
0.5276339169
0.5294860463
0.5311230371
0.5320095311
0.5315858819
0.5316121879
0.5313300172
0.5313996624
0.5258493772
0.5273946542
0.525482962
0.5271284807
0.5305543305
0.5264540778
0.5282407819
0.5293455201
0.5282068536
0.5310566367
0.5262270588
0.5243560031
0.5281910503
0.5285754589
0.5293692462
0.5311192616
0.5298026945
0.5260500009
0.5264643433
0.5288606
0.5277747862
0.5302521571
0.5298979898
0.5326919442
0.5298300888
0.530150585
0.5241185908
0.5262593661
0.5292181792
0.5305312907
0.5307713183
0.5279404351
0.5261107411
0.5287929479
0.5268240843
0.5269216718
0.5281723618
0.5282426468
0.5291893811
0.5302270791
0.5318192558
0.5293766974
0.5234677659
0.5235508849
0.5236533214
0.525429752
0.5259963021
0.5276279881
0.5251874965
0.5239164518
0.5249063636
0.5272119439
0.5272267333
0.5283400793
0.531677542
0.5333151912
0.5331712706
0.5312733902
0.5309859256
0.5260404671
0.5260358061
0.5273178027
0.5256272407
0.5291003412
0.5222663977
0.5310418378
0.5337769093
0.5311210003
0.5330947947
0.5273823086
0.5277882502
0.5281272112
0.5304178975
0.5267347783
0.5293761375
0.5283635131
)
;

boundaryField
{
    bottom
    {
        type            calculated;
        value           nonuniform List<scalar> 
200
(
0.5252184068
0.5272655321
0.5270838454
0.5358033038
0.5340473627
0.5315706635
0.5273029878
0.5234961374
0.5296330175
0.5285504808
0.5278352265
0.5251335554
0.5271156297
0.5264804838
0.5271457839
0.5289843473
0.5258383475
0.5259015886
0.5241175988
0.5233428744
0.5236719445
0.5269390683
0.524946281
0.524686563
0.5235991579
0.529137109
0.5256339067
0.5258902382
0.5272401111
0.528163922
0.5268002769
0.5274456483
0.5234817016
0.5254721706
0.528320746
0.5272738
0.5277766342
0.5294107695
0.5307605452
0.5285640171
0.527848642
0.5295567573
0.5265209837
0.5282606775
0.5271645027
0.5296373416
0.528089003
0.5323164901
0.5259568738
0.527548231
0.5324244595
0.5318071072
0.5274491446
0.5272760785
0.5255778083
0.5294254589
0.5281566313
0.5271426873
0.5286299522
0.5263191466
0.5280974704
0.5229816466
0.5259135705
0.5217296924
0.5279438214
0.5225798447
0.5246783877
0.526550833
0.5267414472
0.5292531374
0.5244459465
0.526814375
0.5223475367
0.5249388315
0.5267988161
0.5287386968
0.5253426711
0.5289913004
0.5247309522
0.5268752833
0.529988646
0.5296744388
0.526491749
0.5298385786
0.5287231868
0.5282392337
0.5294291636
0.5292402973
0.5314021544
0.5297621462
0.5294369438
0.5264502149
0.5250385991
0.5285747925
0.5268073119
0.5255259347
0.5279400469
0.5233271187
0.5264477387
0.5262769401
0.520514708
0.524457023
0.5270589779
0.5238171486
0.5236392864
0.5264762793
0.527626145
0.5274521659
0.5312959742
0.5308670753
0.5279326152
0.5280786095
0.5274068981
0.5279791667
0.52784254
0.5280773632
0.5301163283
0.5278241297
0.5260398023
0.5258629949
0.5275010446
0.5311779605
0.5282413793
0.5312047571
0.5236493541
0.5262247499
0.5273201775
0.5310201157
0.527021642
0.5298717633
0.5279117761
0.5246833106
0.5311184227
0.5335003458
0.5304189138
0.5323528175
0.5308606123
0.5300744005
0.5282703484
0.5281531437
0.528236304
0.5319644163
0.5292750442
0.5298714501
0.535923064
0.5306954518
0.5341177666
0.5297173384
0.5309549439
0.5291672886
0.5316149849
0.5249174174
0.5280820904
0.5251831592
0.526215283
0.5242685782
0.5288033379
0.5256633392
0.5212152623
0.5225580477
0.5263594518
0.5220325228
0.5269214144
0.5280602468
0.5255606645
0.527091578
0.5297088437
0.5269321326
0.5263576623
0.5286558342
0.5277772102
0.5285637321
0.5267087795
0.5249068634
0.5239847664
0.524852137
0.5273160439
0.5268721781
0.5281274115
0.5271770721
0.5297558754
0.535727588
0.5300394708
0.5293104483
0.5282413689
0.5295112659
0.5283081101
0.5302284977
0.5263442666
0.5275852552
0.5255935651
0.5262776827
0.5253091889
0.5279625646
0.5315871208
0.526065994
0.5274721316
0.5277951305
0.525528782
0.5293307021
)
;
    }
    top
    {
        type            calculated;
        value           nonuniform List<scalar> 
200
(
0.5252595018
0.5267446429
0.5296326194
0.5290265022
0.5265242761
0.525089526
0.5258784758
0.5271366571
0.5246050032
0.5261116151
0.5249735526
0.5283199535
0.5308463088
0.5299446224
0.5300905251
0.5280634014
0.528797422
0.5288697197
0.5269556538
0.5310710944
0.5296190685
0.5254216099
0.5289393541
0.5299619641
0.5309899556
0.5293069054
0.5288749188
0.5265156039
0.5276930874
0.5264158498
0.5321413459
0.5321428802
0.5270101399
0.5258317346
0.5248928372
0.5246411954
0.5265791786
0.5278937211
0.5258733287
0.526487493
0.5288213581
0.5312713955
0.5297113647
0.529421177
0.5221494101
0.5224894572
0.5262221947
0.5215207452
0.5236128211
0.5257076376
0.5237718648
0.5303608653
0.5275906936
0.5225112753
0.5266748358
0.5239777743
0.5249695533
0.5248104899
0.5237667288
0.526609838
0.5239146139
0.5287035275
0.5216978823
0.5254444268
0.523554968
0.5284269531
0.5272584675
0.5286214101
0.5328526115
0.5276258498
0.5257673516
0.5275025025
0.5269092827
0.526985015
0.5304300617
0.5258141523
0.523956258
0.5238731784
0.5248079531
0.5286473041
0.5240706851
0.527240612
0.5252777337
0.524116979
0.5248394973
0.5281573393
0.5257242166
0.5269897854
0.5251351424
0.5245266463
0.5244256498
0.5223513094
0.5224176684
0.5287738756
0.5250495184
0.5244051941
0.5266571298
0.5280435907
0.5252500491
0.5262795871
0.5218854028
0.5256841243
0.5281181991
0.52920813
0.5322145719
0.5248358915
0.527331574
0.5272904691
0.5253908914
0.5271670074
0.5265124748
0.5273349057
0.5287258339
0.5249466136
0.5253283612
0.5309615544
0.5276339169
0.5294860463
0.5311230371
0.5320095311
0.5315858819
0.5316121879
0.5313300172
0.5313996624
0.5258493772
0.5273946542
0.525482962
0.5271284807
0.5305543305
0.5264540778
0.5282407819
0.5293455201
0.5282068536
0.5310566367
0.5262270588
0.5243560031
0.5281910503
0.5285754589
0.5293692462
0.5311192616
0.5298026945
0.5260500009
0.5264643433
0.5288606
0.5277747862
0.5302521571
0.5298979898
0.5326919442
0.5298300888
0.530150585
0.5241185908
0.5262593661
0.5292181792
0.5305312907
0.5307713183
0.5279404351
0.5261107411
0.5287929479
0.5268240843
0.5269216718
0.5281723618
0.5282426468
0.5291893811
0.5302270791
0.5318192558
0.5293766974
0.5234677659
0.5235508849
0.5236533214
0.525429752
0.5259963021
0.5276279881
0.5251874965
0.5239164518
0.5249063636
0.5272119439
0.5272267333
0.5283400793
0.531677542
0.5333151912
0.5331712706
0.5312733902
0.5309859256
0.5260404671
0.5260358061
0.5273178027
0.5256272407
0.5291003412
0.5222663977
0.5310418378
0.5337769093
0.5311210003
0.5330947947
0.5273823086
0.5277882502
0.5281272112
0.5304178975
0.5267347783
0.5293761375
0.5283635131
)
;
    }
    inlet
    {
        type            calculated;
        value           nonuniform List<scalar> 5(0.5252184068 0.5307272186 0.5290082666 0.5268076252 0.5252595018);
    }
    outlet
    {
        type            calculated;
        value           nonuniform List<scalar> 5(0.5293307021 0.5233044421 0.5293883913 0.5269711197 0.5283635131);
    }
    back
    {
        type            symmetry;
    }
    front
    {
        type            symmetry;
    }
}


// ************************************************************************* //
