/*--------------------------------*- C++ -*----------------------------------*\
| =========                 |                                                 |
| \\      /  F ield         | OpenFOAM: The Open Source CFD Toolbox           |
|  \\    /   O peration     | Version:  v1706                                 |
|   \\  /    A nd           | Web:      www.OpenFOAM.com                      |
|    \\/     M anipulation  |                                                 |
\*---------------------------------------------------------------------------*/
FoamFile
{
    version     2.0;
    format      ascii;
    class       volScalarField;
    location    "0.1";
    object      rhoM_Ar;
}
// * * * * * * * * * * * * * * * * * * * * * * * * * * * * * * * * * * * * * //

dimensions      [1 -3 0 0 0 0 0];


internalField   nonuniform List<scalar> 
1000
(
9.257251536e-06
9.24932736e-06
9.27224064e-06
9.370481328e-06
9.381937968e-06
9.326946096e-06
9.20254608e-06
9.192426048e-06
9.234433728e-06
9.2941992e-06
9.25935192e-06
9.325895904e-06
9.317303424e-06
9.29228976e-06
9.293626368e-06
9.290953152e-06
9.272908944e-06
9.287325216e-06
9.250473024e-06
9.224600112e-06
9.267562512e-06
9.269185536e-06
9.245126592e-06
9.253337184e-06
9.240925824e-06
9.335443104e-06
9.353582784e-06
9.25457832e-06
9.276727824e-06
9.293817312e-06
9.228991824e-06
9.214384608e-06
9.256774176e-06
9.21829896e-06
9.313961904e-06
9.304892064e-06
9.321122304e-06
9.30947472e-06
9.332101584e-06
9.332769888e-06
9.277587072e-06
9.295344864e-06
9.253337184e-06
9.266703264e-06
9.192139632e-06
9.230042016e-06
9.221545008e-06
9.30183696e-06
9.222786144e-06
9.311479632e-06
9.32665968e-06
9.326850624e-06
9.251332272e-06
9.281596896e-06
9.249709248e-06
9.26269344e-06
9.227464272e-06
9.284270112e-06
9.318830976e-06
9.247226976e-06
9.296299584e-06
9.177532416e-06
9.211902336e-06
9.184024512e-06
9.28560672e-06
9.204073632e-06
9.231378624e-06
9.22689144e-06
9.270999504e-06
9.265175712e-06
9.159774624e-06
9.214575552e-06
9.226509552e-06
9.212952528e-06
9.210470256e-06
9.270713088e-06
9.209515536e-06
9.255819456e-06
9.244171872e-06
9.220017456e-06
9.336397824e-06
9.312147936e-06
9.284270112e-06
9.274722912e-06
9.257251536e-06
9.249900192e-06
9.35530128e-06
9.346613328e-06
9.363989232e-06
9.394635744e-06
9.36723528e-06
9.374013792e-06
9.345467664e-06
9.228418992e-06
9.25314624e-06
9.191662272e-06
9.250568496e-06
9.165121056e-06
9.214861968e-06
9.211806864e-06
9.15910632e-06
9.21352536e-06
9.245222064e-06
9.254769264e-06
9.22402728e-06
9.25887456e-06
9.227941632e-06
9.209897424e-06
9.26985384e-06
9.32236344e-06
9.257537952e-06
9.234147312e-06
9.25457832e-06
9.23309712e-06
9.233383536e-06
9.225172944e-06
9.310047552e-06
9.277587072e-06
9.246654144e-06
9.240448464e-06
9.293149008e-06
9.3037464e-06
9.289234656e-06
9.364657536e-06
9.246272256e-06
9.310715856e-06
9.277682544e-06
9.362079792e-06
9.291430512e-06
9.335920464e-06
9.294294672e-06
9.260402112e-06
9.38346552e-06
9.41735808e-06
9.344990304e-06
9.324559296e-06
9.277873488e-06
9.282074256e-06
9.266798736e-06
9.216103104e-06
9.27080856e-06
9.327041568e-06
9.264220992e-06
9.270904032e-06
9.313198128e-06
9.24837264e-06
9.31138416e-06
9.275200272e-06
9.28799352e-06
9.25171416e-06
9.309092832e-06
9.239493744e-06
9.27653688e-06
9.247990752e-06
9.205505712e-06
9.176482224e-06
9.266894208e-06
9.237775248e-06
9.25457832e-06
9.315012096e-06
9.280069344e-06
9.227082384e-06
9.249422832e-06
9.255819456e-06
9.219635568e-06
9.310333968e-06
9.3061332e-06
9.295726752e-06
9.31186152e-06
9.32331816e-06
9.34861824e-06
9.289521072e-06
9.262597968e-06
9.222404256e-06
9.246176784e-06
9.3132936e-06
9.299068272e-06
9.268230816e-06
9.308329056e-06
9.207701568e-06
9.26412552e-06
9.325036656e-06
9.292480704e-06
9.213620832e-06
9.270999504e-06
9.22832352e-06
9.246654144e-06
9.256583232e-06
9.26985384e-06
9.273099888e-06
9.313102656e-06
9.263266272e-06
9.186888672e-06
9.208656288e-06
9.300786768e-06
9.254960208e-06
9.28417464e-06
9.25935192e-06
9.254387376e-06
9.307469808e-06
9.3419352e-06
9.331815168e-06
9.274913856e-06
9.28847088e-06
9.265175712e-06
9.308901888e-06
9.271094976e-06
9.206651376e-06
9.284842944e-06
9.296872416e-06
9.211806864e-06
9.360838656e-06
9.393108192e-06
9.289616544e-06
9.31520304e-06
9.284461056e-06
9.324081936e-06
9.243408096e-06
9.328378176e-06
9.254769264e-06
9.31711248e-06
9.300595824e-06
9.2751048e-06
9.264316464e-06
9.270999504e-06
9.302600736e-06
9.284461056e-06
9.280642176e-06
9.289139184e-06
9.3013596e-06
9.269758368e-06
9.258301728e-06
9.249709248e-06
9.237679776e-06
9.21495744e-06
9.32331816e-06
9.295917696e-06
9.361888848e-06
9.26698968e-06
9.308329056e-06
9.281596896e-06
9.267180624e-06
9.289043712e-06
9.261165888e-06
9.238729968e-06
9.213429888e-06
9.302600736e-06
9.333438192e-06
9.182306016e-06
9.254196432e-06
9.231951456e-06
9.316062288e-06
9.284556528e-06
9.24025752e-06
9.184692816e-06
9.265653072e-06
9.257633424e-06
9.231569568e-06
9.300691296e-06
9.272431584e-06
9.191853216e-06
9.229946544e-06
9.204837408e-06
9.249231888e-06
9.20302344e-06
9.188607168e-06
9.277682544e-06
9.308329056e-06
9.184501872e-06
9.243217152e-06
9.271954224e-06
9.199490976e-06
9.28512936e-06
9.290475792e-06
9.301550544e-06
9.265653072e-06
9.275773104e-06
9.298304496e-06
9.31472568e-06
9.280737648e-06
9.301264128e-06
9.300786768e-06
9.25457832e-06
9.363702816e-06
9.282169728e-06
9.24980472e-06
9.370481328e-06
9.347377104e-06
9.373345488e-06
9.349191072e-06
9.238157136e-06
9.26269344e-06
9.374682096e-06
9.284842944e-06
9.18918e-06
9.215625744e-06
9.261356832e-06
9.271667808e-06
9.257347008e-06
9.199777392e-06
9.22593672e-06
9.161684064e-06
9.203787216e-06
9.286656912e-06
9.245699424e-06
9.287898048e-06
9.242930736e-06
9.241594128e-06
9.239016384e-06
9.216580464e-06
9.217535184e-06
9.190707552e-06
9.279019152e-06
9.184215456e-06
9.306896976e-06
9.339643872e-06
9.330287616e-06
9.230519376e-06
9.230901264e-06
9.352246176e-06
9.344990304e-06
9.228132576e-06
9.270522144e-06
9.306228672e-06
9.312147936e-06
9.339834816e-06
9.3228408e-06
9.266703264e-06
9.31758984e-06
9.219158208e-06
9.280737648e-06
9.35195976e-06
9.360265824e-06
9.330669504e-06
9.332101584e-06
9.288375408e-06
9.306896976e-06
9.234338256e-06
9.198822672e-06
9.13285152e-06
9.31138416e-06
9.295440336e-06
9.308901888e-06
9.248468112e-06
9.217726128e-06
9.249040944e-06
9.29038032e-06
9.254196432e-06
9.231855984e-06
9.272813472e-06
9.263075328e-06
9.220399344e-06
9.2154348e-06
9.240162048e-06
9.265462128e-06
9.217439712e-06
9.210470256e-06
9.224218224e-06
9.248086224e-06
9.353773728e-06
9.346040496e-06
9.278541792e-06
9.229564656e-06
9.228418992e-06
9.279782928e-06
9.40255992e-06
9.315966816e-06
9.301168656e-06
9.334392912e-06
9.316730592e-06
9.20779704e-06
9.336588768e-06
9.261929664e-06
9.222881616e-06
9.29610864e-06
9.2512368e-06
9.310524912e-06
9.23882544e-06
9.18392904e-06
9.16149312e-06
9.239207328e-06
9.205696656e-06
9.265271184e-06
9.26842176e-06
9.27844632e-06
9.33334272e-06
9.245413008e-06
9.149845536e-06
9.267848928e-06
9.297922608e-06
9.254960208e-06
9.256869648e-06
9.219158208e-06
9.254769264e-06
9.210947616e-06
9.291048624e-06
9.286370496e-06
9.212761584e-06
9.247513392e-06
9.205123824e-06
9.285415776e-06
9.301550544e-06
9.333629136e-06
9.303841872e-06
9.273004416e-06
9.322745328e-06
9.253432656e-06
9.29515392e-06
9.267180624e-06
9.273768192e-06
9.299259216e-06
9.339739344e-06
9.313389072e-06
9.238443552e-06
9.300977712e-06
9.27319536e-06
9.333151776e-06
9.330096672e-06
9.280069344e-06
9.280069344e-06
9.306515088e-06
9.385661376e-06
9.287420688e-06
9.385470432e-06
9.329428368e-06
9.339357456e-06
9.333151776e-06
9.257156064e-06
9.22880088e-06
9.257537952e-06
9.28560672e-06
9.330192144e-06
9.290284848e-06
9.225554832e-06
9.210756672e-06
9.295917696e-06
9.319117392e-06
9.286656912e-06
9.256201344e-06
9.303078096e-06
9.304128288e-06
9.24264432e-06
9.269471952e-06
9.205601184e-06
9.26985384e-06
9.250186608e-06
9.226795968e-06
9.272908944e-06
9.185170176e-06
9.231569568e-06
9.302696208e-06
9.21686688e-06
9.223836336e-06
9.270140256e-06
9.26030664e-06
9.208942704e-06
9.189466416e-06
9.217630656e-06
9.159774624e-06
9.237202416e-06
9.239493744e-06
9.1939536e-06
9.196435872e-06
9.15862896e-06
9.234242784e-06
9.25266888e-06
9.340121232e-06
9.186602256e-06
9.176959584e-06
9.19729512e-06
9.196913232e-06
9.246176784e-06
9.25457832e-06
9.270713088e-06
9.336588768e-06
9.26889912e-06
9.344894832e-06
9.315012096e-06
9.353487312e-06
9.320549472e-06
9.302600736e-06
9.312147936e-06
9.289998432e-06
9.25028208e-06
9.230996736e-06
9.252286992e-06
9.293626368e-06
9.32618232e-06
9.30947472e-06
9.290284848e-06
9.291144096e-06
9.271667808e-06
9.317780784e-06
9.238634496e-06
9.177150528e-06
9.299641104e-06
9.278732736e-06
9.204837408e-06
9.24885e-06
9.20541024e-06
9.197963424e-06
9.17915544e-06
9.18536112e-06
9.288566352e-06
9.254769264e-06
9.281215008e-06
9.280164816e-06
9.348809184e-06
9.236534112e-06
9.22593672e-06
9.289330128e-06
9.286752384e-06
9.182306016e-06
9.228228048e-06
9.309665664e-06
9.203691744e-06
9.160633872e-06
9.224122752e-06
9.165598416e-06
9.35959752e-06
9.266130432e-06
9.269758368e-06
9.257251536e-06
9.324368352e-06
9.272622528e-06
9.351864288e-06
9.312911712e-06
9.273386304e-06
9.332960832e-06
9.197677008e-06
9.348236352e-06
9.2918124e-06
9.27462744e-06
9.288279936e-06
9.302600736e-06
9.271190448e-06
9.367999056e-06
9.296967888e-06
9.312434352e-06
9.243408096e-06
9.30183696e-06
9.323031744e-06
9.31424832e-06
9.395017632e-06
9.203787216e-06
9.234624672e-06
9.241307712e-06
9.223931808e-06
9.26030664e-06
9.283028976e-06
9.219349152e-06
9.209992896e-06
9.22545936e-06
9.214766496e-06
9.249518304e-06
9.322172496e-06
9.320835888e-06
9.2703312e-06
9.319594752e-06
9.28847088e-06
9.285797664e-06
9.247608864e-06
9.16149312e-06
9.294772032e-06
9.282074256e-06
9.24741792e-06
9.237106944e-06
9.224313696e-06
9.298209024e-06
9.318162672e-06
9.331624224e-06
9.27415008e-06
9.254482848e-06
9.217248768e-06
9.25887456e-06
9.246081312e-06
9.308901888e-06
9.289521072e-06
9.185170176e-06
9.26221608e-06
9.268803648e-06
9.239111856e-06
9.259733808e-06
9.28321992e-06
9.266798736e-06
9.22593672e-06
9.243503568e-06
9.265844016e-06
9.273768192e-06
9.33382008e-06
9.308615472e-06
9.234147312e-06
9.252096048e-06
9.297254304e-06
9.266416848e-06
9.28178784e-06
9.325800432e-06
9.305846784e-06
9.254960208e-06
9.3061332e-06
9.233765424e-06
9.330764976e-06
9.308710944e-06
9.315966816e-06
9.340312176e-06
9.265462128e-06
9.334201968e-06
9.277873488e-06
9.28751616e-06
9.208847232e-06
9.35100504e-06
9.31615776e-06
9.237966192e-06
9.256201344e-06
9.295344864e-06
9.289139184e-06
9.267371568e-06
9.23118768e-06
9.304987536e-06
9.27080856e-06
9.245699424e-06
9.332960832e-06
9.412870896e-06
9.35052768e-06
9.320740416e-06
9.2894256e-06
9.273577248e-06
9.258588144e-06
9.264793824e-06
9.328282704e-06
9.283506336e-06
9.322649856e-06
9.289998432e-06
9.212857056e-06
9.207224208e-06
9.18392904e-06
9.246749616e-06
9.311288688e-06
9.325036656e-06
9.256392288e-06
9.271381392e-06
9.373727376e-06
9.306896976e-06
9.272049696e-06
9.273577248e-06
9.17199504e-06
9.149463648e-06
9.20254608e-06
9.199109088e-06
9.227082384e-06
9.25457832e-06
9.233765424e-06
9.268230816e-06
9.272431584e-06
9.246367728e-06
9.270713088e-06
9.243694512e-06
9.118912608e-06
9.176195808e-06
9.268230816e-06
9.16817616e-06
9.221067648e-06
9.206937792e-06
9.19347624e-06
9.16578936e-06
9.264316464e-06
9.25982928e-06
9.271094976e-06
9.262502496e-06
9.242548848e-06
9.239398272e-06
9.273290832e-06
9.269185536e-06
9.255342096e-06
9.366185088e-06
9.245890368e-06
9.263361744e-06
9.29801808e-06
9.286656912e-06
9.250663968e-06
9.293339952e-06
9.247131504e-06
9.348427296e-06
9.324845712e-06
9.312243408e-06
9.323031744e-06
9.330574032e-06
9.308329056e-06
9.304510176e-06
9.34384464e-06
9.325800432e-06
9.261070416e-06
9.230805792e-06
9.217057824e-06
9.2225952e-06
9.252859824e-06
9.23261976e-06
9.244935648e-06
9.241594128e-06
9.235770336e-06
9.257251536e-06
9.23023296e-06
9.237966192e-06
9.300309408e-06
9.28512936e-06
9.313866432e-06
9.296395056e-06
9.258970032e-06
9.252000576e-06
9.20684232e-06
9.194049072e-06
9.218203488e-06
9.253241712e-06
9.223836336e-06
9.294867504e-06
9.27128592e-06
9.345085776e-06
9.241021296e-06
9.264698352e-06
9.297827136e-06
9.248468112e-06
9.22689144e-06
9.32236344e-06
9.348713712e-06
9.33191064e-06
9.337257072e-06
9.252382464e-06
9.30517848e-06
9.344703888e-06
9.276441408e-06
9.27653688e-06
9.347758992e-06
9.257347008e-06
9.280069344e-06
9.308901888e-06
9.3634164e-06
9.339166512e-06
9.29563128e-06
9.3228408e-06
9.29849544e-06
9.305369424e-06
9.26889912e-06
9.305751312e-06
9.336875184e-06
9.236343168e-06
9.283506336e-06
9.254960208e-06
9.256774176e-06
9.320454e-06
9.199586448e-06
9.201400416e-06
9.206269488e-06
9.24025752e-06
9.207033264e-06
9.215148384e-06
9.376496064e-06
9.274054608e-06
9.306419616e-06
9.325036656e-06
9.297636192e-06
9.25553304e-06
9.348045408e-06
9.30708792e-06
9.316253232e-06
9.272813472e-06
9.381174192e-06
9.231092208e-06
9.212379696e-06
9.24025752e-06
9.285320304e-06
9.226605024e-06
9.354060144e-06
9.24503112e-06
9.333056304e-06
9.311097744e-06
9.3037464e-06
9.251905104e-06
9.269949312e-06
9.304414704e-06
9.32379552e-06
9.358738272e-06
9.25219152e-06
9.239589216e-06
9.31997664e-06
9.249709248e-06
9.275964048e-06
9.312147936e-06
9.277205184e-06
9.268135344e-06
9.302123376e-06
9.296967888e-06
9.310524912e-06
9.288375408e-06
9.3300012e-06
9.239111856e-06
9.3586428e-06
9.283506336e-06
9.30565584e-06
9.277587072e-06
9.2822652e-06
9.247131504e-06
9.299259216e-06
9.305942256e-06
9.306896976e-06
9.2822652e-06
9.227464272e-06
9.239111856e-06
9.237966192e-06
9.245794896e-06
9.304892064e-06
9.281215008e-06
9.253719072e-06
9.2631708e-06
9.295440336e-06
9.293053536e-06
9.209324592e-06
9.1939536e-06
9.229660128e-06
9.308233584e-06
9.342603504e-06
9.275009328e-06
9.267371568e-06
9.375541344e-06
9.372772656e-06
9.31520304e-06
9.332769888e-06
9.320072112e-06
9.311288688e-06
9.296586e-06
9.286656912e-06
9.393585552e-06
9.305942256e-06
9.215721216e-06
9.212284224e-06
9.171231264e-06
9.192426048e-06
9.2464632e-06
9.278064432e-06
9.296967888e-06
9.352246176e-06
9.303078096e-06
9.31472568e-06
9.279496512e-06
9.27892368e-06
9.162161424e-06
9.14335344e-06
9.221831424e-06
9.173140704e-06
9.244744704e-06
9.225554832e-06
9.153282528e-06
9.219635568e-06
9.226986912e-06
9.170658432e-06
9.156624048e-06
9.217057824e-06
9.208178928e-06
9.196722288e-06
9.254196432e-06
9.249613776e-06
9.227273328e-06
9.2941992e-06
9.251427744e-06
9.254864736e-06
9.256201344e-06
9.30947472e-06
9.230042016e-06
9.255246624e-06
9.310047552e-06
9.23596128e-06
9.236534112e-06
9.268994592e-06
9.268994592e-06
9.277109712e-06
9.371817936e-06
9.229564656e-06
9.207892512e-06
9.255437568e-06
9.262502496e-06
9.279496512e-06
9.256774176e-06
9.213143472e-06
9.294390144e-06
9.275295744e-06
9.270140256e-06
9.312147936e-06
9.223358976e-06
9.264698352e-06
9.221354064e-06
9.236725056e-06
9.23309712e-06
9.19347624e-06
9.19729512e-06
9.272431584e-06
9.191853216e-06
9.17199504e-06
9.194812848e-06
9.293530896e-06
9.239016384e-06
9.25410096e-06
9.185933952e-06
9.302123376e-06
9.311670576e-06
9.282647088e-06
9.25266888e-06
9.212188752e-06
9.29706336e-06
9.279114624e-06
9.23500656e-06
9.281215008e-06
9.237966192e-06
9.280642176e-06
9.222977088e-06
9.2058876e-06
9.28847088e-06
9.363798288e-06
9.278732736e-06
9.30661056e-06
9.32236344e-06
9.311002272e-06
9.294962976e-06
9.33334272e-06
9.375636816e-06
9.379837584e-06
9.32570496e-06
9.300022992e-06
9.254005488e-06
9.322267968e-06
9.357306192e-06
9.298209024e-06
9.312911712e-06
9.338498208e-06
9.267562512e-06
9.296967888e-06
9.272527056e-06
9.266321376e-06
9.284461056e-06
9.310620384e-06
9.306706032e-06
9.380887776e-06
9.321695136e-06
9.294772032e-06
9.23596128e-06
9.244649232e-06
9.233001648e-06
9.326755152e-06
9.29467656e-06
9.255246624e-06
9.23405184e-06
9.248754528e-06
9.165312e-06
9.1963404e-06
9.263266272e-06
9.281692368e-06
9.292385232e-06
9.293530896e-06
9.275964048e-06
9.326277792e-06
9.30231432e-06
9.268039872e-06
9.302505264e-06
9.262597968e-06
9.364466592e-06
9.338498208e-06
9.367521696e-06
9.327900816e-06
9.22880088e-06
9.221354064e-06
9.214193664e-06
9.266321376e-06
9.302027904e-06
9.269758368e-06
9.234433728e-06
9.189466416e-06
9.199300032e-06
9.252000576e-06
9.26364816e-06
9.31186152e-06
9.349954848e-06
9.343653696e-06
9.338975568e-06
9.298686384e-06
9.291048624e-06
9.223263504e-06
9.218489904e-06
9.24503112e-06
9.23500656e-06
9.309379248e-06
9.287802576e-06
9.351673344e-06
9.40351464e-06
9.305083008e-06
9.3467088e-06
9.255151152e-06
9.289712016e-06
9.303650928e-06
9.334679328e-06
9.25887456e-06
9.237106944e-06
9.285415776e-06
)
;

boundaryField
{
    bottom
    {
        type            calculated;
        value           nonuniform List<scalar> 
200
(
9.257251536e-06
9.24932736e-06
9.27224064e-06
9.370481328e-06
9.381937968e-06
9.326946096e-06
9.20254608e-06
9.192426048e-06
9.234433728e-06
9.2941992e-06
9.25935192e-06
9.325895904e-06
9.317303424e-06
9.29228976e-06
9.293626368e-06
9.290953152e-06
9.272908944e-06
9.287325216e-06
9.250473024e-06
9.224600112e-06
9.267562512e-06
9.269185536e-06
9.245126592e-06
9.253337184e-06
9.240925824e-06
9.335443104e-06
9.353582784e-06
9.25457832e-06
9.276727824e-06
9.293817312e-06
9.228991824e-06
9.214384608e-06
9.256774176e-06
9.21829896e-06
9.313961904e-06
9.304892064e-06
9.321122304e-06
9.30947472e-06
9.332101584e-06
9.332769888e-06
9.277587072e-06
9.295344864e-06
9.253337184e-06
9.266703264e-06
9.192139632e-06
9.230042016e-06
9.221545008e-06
9.30183696e-06
9.222786144e-06
9.311479632e-06
9.32665968e-06
9.326850624e-06
9.251332272e-06
9.281596896e-06
9.249709248e-06
9.26269344e-06
9.227464272e-06
9.284270112e-06
9.318830976e-06
9.247226976e-06
9.296299584e-06
9.177532416e-06
9.211902336e-06
9.184024512e-06
9.28560672e-06
9.204073632e-06
9.231378624e-06
9.22689144e-06
9.270999504e-06
9.265175712e-06
9.159774624e-06
9.214575552e-06
9.226509552e-06
9.212952528e-06
9.210470256e-06
9.270713088e-06
9.209515536e-06
9.255819456e-06
9.244171872e-06
9.220017456e-06
9.336397824e-06
9.312147936e-06
9.284270112e-06
9.274722912e-06
9.257251536e-06
9.249900192e-06
9.35530128e-06
9.346613328e-06
9.363989232e-06
9.394635744e-06
9.36723528e-06
9.374013792e-06
9.345467664e-06
9.228418992e-06
9.25314624e-06
9.191662272e-06
9.250568496e-06
9.165121056e-06
9.214861968e-06
9.211806864e-06
9.15910632e-06
9.21352536e-06
9.245222064e-06
9.254769264e-06
9.22402728e-06
9.25887456e-06
9.227941632e-06
9.209897424e-06
9.26985384e-06
9.32236344e-06
9.257537952e-06
9.234147312e-06
9.25457832e-06
9.23309712e-06
9.233383536e-06
9.225172944e-06
9.310047552e-06
9.277587072e-06
9.246654144e-06
9.240448464e-06
9.293149008e-06
9.3037464e-06
9.289234656e-06
9.364657536e-06
9.246272256e-06
9.310715856e-06
9.277682544e-06
9.362079792e-06
9.291430512e-06
9.335920464e-06
9.294294672e-06
9.260402112e-06
9.38346552e-06
9.41735808e-06
9.344990304e-06
9.324559296e-06
9.277873488e-06
9.282074256e-06
9.266798736e-06
9.216103104e-06
9.27080856e-06
9.327041568e-06
9.264220992e-06
9.270904032e-06
9.313198128e-06
9.24837264e-06
9.31138416e-06
9.275200272e-06
9.28799352e-06
9.25171416e-06
9.309092832e-06
9.239493744e-06
9.27653688e-06
9.247990752e-06
9.205505712e-06
9.176482224e-06
9.266894208e-06
9.237775248e-06
9.25457832e-06
9.315012096e-06
9.280069344e-06
9.227082384e-06
9.249422832e-06
9.255819456e-06
9.219635568e-06
9.310333968e-06
9.3061332e-06
9.295726752e-06
9.31186152e-06
9.32331816e-06
9.34861824e-06
9.289521072e-06
9.262597968e-06
9.222404256e-06
9.246176784e-06
9.3132936e-06
9.299068272e-06
9.268230816e-06
9.308329056e-06
9.207701568e-06
9.26412552e-06
9.325036656e-06
9.292480704e-06
9.213620832e-06
9.270999504e-06
9.22832352e-06
9.246654144e-06
9.256583232e-06
9.26985384e-06
9.273099888e-06
9.313102656e-06
9.263266272e-06
9.186888672e-06
9.208656288e-06
9.300786768e-06
9.254960208e-06
9.28417464e-06
9.25935192e-06
9.254387376e-06
9.307469808e-06
)
;
    }
    top
    {
        type            calculated;
        value           nonuniform List<scalar> 
200
(
9.247131504e-06
9.299259216e-06
9.305942256e-06
9.306896976e-06
9.2822652e-06
9.227464272e-06
9.239111856e-06
9.237966192e-06
9.245794896e-06
9.304892064e-06
9.281215008e-06
9.253719072e-06
9.2631708e-06
9.295440336e-06
9.293053536e-06
9.209324592e-06
9.1939536e-06
9.229660128e-06
9.308233584e-06
9.342603504e-06
9.275009328e-06
9.267371568e-06
9.375541344e-06
9.372772656e-06
9.31520304e-06
9.332769888e-06
9.320072112e-06
9.311288688e-06
9.296586e-06
9.286656912e-06
9.393585552e-06
9.305942256e-06
9.215721216e-06
9.212284224e-06
9.171231264e-06
9.192426048e-06
9.2464632e-06
9.278064432e-06
9.296967888e-06
9.352246176e-06
9.303078096e-06
9.31472568e-06
9.279496512e-06
9.27892368e-06
9.162161424e-06
9.14335344e-06
9.221831424e-06
9.173140704e-06
9.244744704e-06
9.225554832e-06
9.153282528e-06
9.219635568e-06
9.226986912e-06
9.170658432e-06
9.156624048e-06
9.217057824e-06
9.208178928e-06
9.196722288e-06
9.254196432e-06
9.249613776e-06
9.227273328e-06
9.2941992e-06
9.251427744e-06
9.254864736e-06
9.256201344e-06
9.30947472e-06
9.230042016e-06
9.255246624e-06
9.310047552e-06
9.23596128e-06
9.236534112e-06
9.268994592e-06
9.268994592e-06
9.277109712e-06
9.371817936e-06
9.229564656e-06
9.207892512e-06
9.255437568e-06
9.262502496e-06
9.279496512e-06
9.256774176e-06
9.213143472e-06
9.294390144e-06
9.275295744e-06
9.270140256e-06
9.312147936e-06
9.223358976e-06
9.264698352e-06
9.221354064e-06
9.236725056e-06
9.23309712e-06
9.19347624e-06
9.19729512e-06
9.272431584e-06
9.191853216e-06
9.17199504e-06
9.194812848e-06
9.293530896e-06
9.239016384e-06
9.25410096e-06
9.185933952e-06
9.302123376e-06
9.311670576e-06
9.282647088e-06
9.25266888e-06
9.212188752e-06
9.29706336e-06
9.279114624e-06
9.23500656e-06
9.281215008e-06
9.237966192e-06
9.280642176e-06
9.222977088e-06
9.2058876e-06
9.28847088e-06
9.363798288e-06
9.278732736e-06
9.30661056e-06
9.32236344e-06
9.311002272e-06
9.294962976e-06
9.33334272e-06
9.375636816e-06
9.379837584e-06
9.32570496e-06
9.300022992e-06
9.254005488e-06
9.322267968e-06
9.357306192e-06
9.298209024e-06
9.312911712e-06
9.338498208e-06
9.267562512e-06
9.296967888e-06
9.272527056e-06
9.266321376e-06
9.284461056e-06
9.310620384e-06
9.306706032e-06
9.380887776e-06
9.321695136e-06
9.294772032e-06
9.23596128e-06
9.244649232e-06
9.233001648e-06
9.326755152e-06
9.29467656e-06
9.255246624e-06
9.23405184e-06
9.248754528e-06
9.165312e-06
9.1963404e-06
9.263266272e-06
9.281692368e-06
9.292385232e-06
9.293530896e-06
9.275964048e-06
9.326277792e-06
9.30231432e-06
9.268039872e-06
9.302505264e-06
9.262597968e-06
9.364466592e-06
9.338498208e-06
9.367521696e-06
9.327900816e-06
9.22880088e-06
9.221354064e-06
9.214193664e-06
9.266321376e-06
9.302027904e-06
9.269758368e-06
9.234433728e-06
9.189466416e-06
9.199300032e-06
9.252000576e-06
9.26364816e-06
9.31186152e-06
9.349954848e-06
9.343653696e-06
9.338975568e-06
9.298686384e-06
9.291048624e-06
9.223263504e-06
9.218489904e-06
9.24503112e-06
9.23500656e-06
9.309379248e-06
9.287802576e-06
9.351673344e-06
9.40351464e-06
9.305083008e-06
9.3467088e-06
9.255151152e-06
9.289712016e-06
9.303650928e-06
9.334679328e-06
9.25887456e-06
9.237106944e-06
9.285415776e-06
)
;
    }
    inlet
    {
        type            calculated;
        value           nonuniform List<scalar> 5(9.257251536e-06 9.3419352e-06 9.285415776e-06 9.233765424e-06 9.247131504e-06);
    }
    outlet
    {
        type            calculated;
        value           nonuniform List<scalar> 5(9.307469808e-06 9.205123824e-06 9.3061332e-06 9.2822652e-06 9.285415776e-06);
    }
    back
    {
        type            symmetry;
    }
    front
    {
        type            symmetry;
    }
}


// ************************************************************************* //
