/*--------------------------------*- C++ -*----------------------------------*\
| =========                 |                                                 |
| \\      /  F ield         | OpenFOAM: The Open Source CFD Toolbox           |
|  \\    /   O peration     | Version:  v1706                                 |
|   \\  /    A nd           | Web:      www.OpenFOAM.com                      |
|    \\/     M anipulation  |                                                 |
\*---------------------------------------------------------------------------*/
FoamFile
{
    version     2.0;
    format      ascii;
    class       volScalarField;
    location    "1e-06";
    object      dsmcSigmaTcRMax;
}
// * * * * * * * * * * * * * * * * * * * * * * * * * * * * * * * * * * * * * //

dimensions      [0 3 -1 0 0 0 0];


internalField   nonuniform List<scalar> 
100
(
6.663349421e-16
6.889731905e-16
6.871489621e-16
7.752134148e-16
7.394292475e-16
7.166196423e-16
7.452145264e-16
7.643587421e-16
8.352930553e-16
7.731764627e-16
6.271731688e-16
7.329276316e-16
7.041631087e-16
6.647016788e-16
7.060076602e-16
7.759069516e-16
6.921440768e-16
7.394524439e-16
7.452318724e-16
7.691442942e-16
6.935008251e-16
6.670887609e-16
6.699475208e-16
7.924211e-16
7.093954582e-16
7.111766273e-16
7.506430667e-16
7.297463458e-16
8.3251461e-16
7.98448635e-16
6.300141135e-16
6.871126043e-16
7.123670895e-16
7.906430529e-16
7.041193702e-16
6.744547279e-16
7.387997605e-16
7.470193281e-16
7.66307042e-16
7.665447788e-16
6.592495982e-16
6.790330857e-16
7.265444646e-16
7.293413728e-16
7.198886639e-16
7.749281817e-16
7.650371772e-16
7.337771805e-16
7.531664916e-16
7.465886851e-16
6.646222006e-16
6.960835556e-16
6.889102101e-16
7.274892208e-16
6.87765882e-16
7.608438469e-16
7.385929058e-16
7.485572857e-16
8.042073296e-16
7.998766467e-16
6.562689105e-16
6.841896458e-16
7.082133707e-16
7.507501922e-16
7.335677988e-16
7.043124737e-16
7.516311825e-16
7.340891094e-16
7.742687978e-16
7.748168382e-16
6.743954383e-16
7.403602028e-16
7.425791886e-16
7.082138382e-16
7.173710443e-16
6.933731381e-16
7.981821187e-16
7.459738615e-16
8.21332715e-16
7.606067271e-16
6.513101536e-16
6.677139016e-16
6.955044636e-16
6.903662739e-16
7.226629913e-16
7.083035643e-16
7.277892621e-16
7.736647076e-16
7.738876408e-16
8.090809717e-16
6.29417115e-16
7.177306234e-16
6.943994205e-16
7.303156979e-16
7.162769724e-16
7.374247727e-16
7.847926296e-16
7.106290295e-16
7.337972811e-16
9.122662909e-16
)
;

boundaryField
{
    stickingWall
    {
        type            zeroGradient;
    }
    defaultFaces
    {
        type            zeroGradient;
    }
}


// ************************************************************************* //
