/*--------------------------------*- C++ -*----------------------------------*\
| =========                 |                                                 |
| \\      /  F ield         | OpenFOAM: The Open Source CFD Toolbox           |
|  \\    /   O peration     | Version:  v1706                                 |
|   \\  /    A nd           | Web:      www.OpenFOAM.com                      |
|    \\/     M anipulation  |                                                 |
\*---------------------------------------------------------------------------*/
FoamFile
{
    version     2.0;
    format      ascii;
    class       volScalarField;
    location    "1e-06";
    object      dsmcRhoNMean_Ar;
}
// * * * * * * * * * * * * * * * * * * * * * * * * * * * * * * * * * * * * * //

dimensions      [0 -3 0 0 0 0 0];


internalField   nonuniform List<scalar> 
100
(
666.012
623.924
582.274
546.552
517.177
495.367
476.601
457.695
445.455
438.645
659.445
625.856
579.479
545.612
514.516
490.823
473.084
456.956
445.151
435.841
662.03
625.571
584.33
548.666
522.901
498.03
473.557
457.044
445.954
436.944
661.239
620.283
580.911
551.187
520.574
495.534
474.07
459.081
446.24
439.602
660.53
612.791
575.225
545.747
521.646
492.394
473.592
454.417
446.485
436.243
662.259
618.836
577.457
545.721
518.584
490.969
468.679
454.287
446.276
437.306
657.882
621.222
581.067
548.224
514.467
492.271
470.946
454.218
442.129
437.299
657.902
620.893
575.773
543.188
516.256
491.602
473.616
456.985
442.801
436.661
657.018
619.592
580.05
542.335
512.824
488.107
470.75
456.502
442.918
433.826
660.771
613.979
576.246
544.173
514.148
486.723
470.416
459.975
448.195
437.014
)
;

boundaryField
{
    stickingWall
    {
        type            calculated;
        value           nonuniform List<scalar> 
100
(
666.012
623.924
582.274
546.552
517.177
495.367
476.601
457.695
445.455
438.645
659.445
625.856
579.479
545.612
514.516
490.823
473.084
456.956
445.151
435.841
662.03
625.571
584.33
548.666
522.901
498.03
473.557
457.044
445.954
436.944
661.239
620.283
580.911
551.187
520.574
495.534
474.07
459.081
446.24
439.602
660.53
612.791
575.225
545.747
521.646
492.394
473.592
454.417
446.485
436.243
662.259
618.836
577.457
545.721
518.584
490.969
468.679
454.287
446.276
437.306
657.882
621.222
581.067
548.224
514.467
492.271
470.946
454.218
442.129
437.299
657.902
620.893
575.773
543.188
516.256
491.602
473.616
456.985
442.801
436.661
657.018
619.592
580.05
542.335
512.824
488.107
470.75
456.502
442.918
433.826
660.771
613.979
576.246
544.173
514.148
486.723
470.416
459.975
448.195
437.014
)
;
    }
    defaultFaces
    {
        type            calculated;
        value           uniform 0;
    }
}


// ************************************************************************* //
