/*--------------------------------*- C++ -*----------------------------------*\
| =========                 |                                                 |
| \\      /  F ield         | OpenFOAM: The Open Source CFD Toolbox           |
|  \\    /   O peration     | Version:  v1706                                 |
|   \\  /    A nd           | Web:      www.OpenFOAM.com                      |
|    \\/     M anipulation  |                                                 |
\*---------------------------------------------------------------------------*/
FoamFile
{
    version     2.0;
    format      ascii;
    class       volScalarField;
    location    "1e-06";
    object      Ma_Ar;
}
// * * * * * * * * * * * * * * * * * * * * * * * * * * * * * * * * * * * * * //

dimensions      [0 0 0 0 0 0 0];


internalField   nonuniform List<scalar> 
100
(
0.002195542184
0.003623641374
0.006963522631
0.009184559545
0.009646764246
0.007621883056
0.009456387147
0.007702069888
0.008007544074
0.009897755308
0.003645573319
0.006207088683
0.007368013989
0.007470681106
0.008638102606
0.008356325008
0.009109479858
0.008259030936
0.005016662457
0.008558973408
0.003113495904
0.003415560718
0.006186632985
0.007962257576
0.007712514035
0.009359520797
0.007418494278
0.007024243446
0.01028095272
0.009363366788
0.005781200523
0.004879693738
0.00552137935
0.007541912272
0.007847010853
0.007355517347
0.006939878159
0.006234716513
0.008265838595
0.009805104727
0.001999950646
0.006077872322
0.005717251297
0.006322011732
0.008670331531
0.005899965492
0.00794176567
0.00894830877
0.008015826401
0.009603791931
0.002712781185
0.005076462479
0.007608147457
0.006595465712
0.007765070857
0.008717217401
0.00997046868
0.01129887981
0.009573712635
0.00828605794
0.004227610763
0.005801456935
0.002525309773
0.00811447544
0.006623528415
0.009181202978
0.007201969226
0.007425384948
0.01130521125
0.009449223661
0.002144707795
0.007706642646
0.01191278843
0.008888873004
0.008317466633
0.01069788345
0.00936555041
0.01181048148
0.008154488935
0.00914222798
0.004145064763
0.004170958843
0.00808673405
0.007736151867
0.008876617541
0.009533321588
0.0098563414
0.007101201321
0.007856133482
0.01021026772
0.003639850718
0.00517036544
0.006719389228
0.009022612892
0.009590346423
0.005849201683
0.006119812288
0.008471119799
0.01006667791
0.008188306344
)
;

boundaryField
{
    stickingWall
    {
        type            calculated;
        value           nonuniform List<scalar> 
100
(
0.002195542184
0.003623641374
0.006963522631
0.009184559545
0.009646764246
0.007621883056
0.009456387147
0.007702069888
0.008007544074
0.009897755308
0.003645573319
0.006207088683
0.007368013989
0.007470681106
0.008638102606
0.008356325008
0.009109479858
0.008259030936
0.005016662457
0.008558973408
0.003113495904
0.003415560718
0.006186632985
0.007962257576
0.007712514035
0.009359520797
0.007418494278
0.007024243446
0.01028095272
0.009363366788
0.005781200523
0.004879693738
0.00552137935
0.007541912272
0.007847010853
0.007355517347
0.006939878159
0.006234716513
0.008265838595
0.009805104727
0.001999950646
0.006077872322
0.005717251297
0.006322011732
0.008670331531
0.005899965492
0.00794176567
0.00894830877
0.008015826401
0.009603791931
0.002712781185
0.005076462479
0.007608147457
0.006595465712
0.007765070857
0.008717217401
0.00997046868
0.01129887981
0.009573712635
0.00828605794
0.004227610763
0.005801456935
0.002525309773
0.00811447544
0.006623528415
0.009181202978
0.007201969226
0.007425384948
0.01130521125
0.009449223661
0.002144707795
0.007706642646
0.01191278843
0.008888873004
0.008317466633
0.01069788345
0.00936555041
0.01181048148
0.008154488935
0.00914222798
0.004145064763
0.004170958843
0.00808673405
0.007736151867
0.008876617541
0.009533321588
0.0098563414
0.007101201321
0.007856133482
0.01021026772
0.003639850718
0.00517036544
0.006719389228
0.009022612892
0.009590346423
0.005849201683
0.006119812288
0.008471119799
0.01006667791
0.008188306344
)
;
    }
    defaultFaces
    {
        type            calculated;
        value           nonuniform List<scalar> 
140
(
0.03666830833
0.06429015814
0.06572788995
0.05465820815
0.06038538617
0.05074554563
0.03529064197
0.03143138557
0.02440345282
0.01087154712
0.03141588915
0.06236233621
0.06478836213
0.052822466
0.05252289546
0.04060622711
0.03963440047
0.03289408109
0.03030983612
0.009455457187
0.02983498852
0.06322965928
0.05288782399
0.05822627199
0.05207659124
0.04839408152
0.03532805955
0.02505656266
0.03066890529
0.007342624624
0.0292590012
0.06274788057
0.06988780089
0.05286239055
0.05004957619
0.04270344907
0.04149635771
0.03677286599
0.02856525654
0.01496401276
0.02254025008
0.06686778655
0.06088213928
0.05592249994
0.05194035054
0.04935505056
0.03893822442
0.03951109386
0.0280064856
0.007936083827
0.03266623175
0.06334238646
0.06465828365
0.05249694689
0.04910332351
0.05376592235
0.04068205492
0.03265006913
0.01752039872
0.01116085096
0.03526596917
0.06102704241
0.05916621016
0.05350459609
0.05310373879
0.04463287439
0.04337366969
0.04098238277
0.03193131157
0.01039218615
0.03151438854
0.06515803581
0.06347632093
0.06236311633
0.04841597695
0.04244525197
0.04365070216
0.03444151049
0.03074869069
0.009958337541
0.03122765282
0.0560636277
0.06336938162
0.06205033259
0.05261314476
0.04599027885
0.04461392582
0.02699287711
0.01973261048
0.008099491361
0.03410719913
0.06355499397
0.06721780168
0.05993379491
0.04885276776
0.04375026137
0.04582074975
0.03210948379
0.02975025541
0.01478377071
0.04270727065
0.0367415344
0.03486156598
0.03306779104
0.03658116663
0.03840156347
0.03842818019
0.03265029941
0.03979769197
0.04161010393
0.02047166943
0.02105240144
0.01140558912
0.01618656188
0.02411118156
0.009983399325
0.02098928514
0.01593457898
0.01185578323
0.01810043454
0.03024202292
0.04870214363
0.05690638837
0.06605322332
0.05804074716
0.04715235868
0.04634540147
0.02666147319
0.02964782794
0.01538193973
0.0349803952
0.04307308399
0.05718979735
0.05645470762
0.05976173859
0.04385322817
0.04334247479
0.03325062867
0.02724759045
0.0143001675
)
;
    }
}


// ************************************************************************* //
