/*--------------------------------*- C++ -*----------------------------------*\
| =========                 |                                                 |
| \\      /  F ield         | OpenFOAM: The Open Source CFD Toolbox           |
|  \\    /   O peration     | Version:  v1706                                 |
|   \\  /    A nd           | Web:      www.OpenFOAM.com                      |
|    \\/     M anipulation  |                                                 |
\*---------------------------------------------------------------------------*/
FoamFile
{
    version     2.0;
    format      ascii;
    class       volScalarField;
    location    "1e-06";
    object      rhoM_Ar;
}
// * * * * * * * * * * * * * * * * * * * * * * * * * * * * * * * * * * * * * //

dimensions      [1 -3 0 0 0 0 0];


internalField   nonuniform List<scalar> 
100
(
4.41565956e-05
4.13661612e-05
3.86047662e-05
3.62363976e-05
3.42888351e-05
3.28428321e-05
3.15986463e-05
3.03451785e-05
2.95336665e-05
2.90821635e-05
4.37212035e-05
4.14942528e-05
3.84194577e-05
3.61740756e-05
3.41124108e-05
3.25415649e-05
3.13654692e-05
3.02961828e-05
2.95135113e-05
2.88962583e-05
4.3892589e-05
4.14753573e-05
3.8741079e-05
3.63765558e-05
3.46683363e-05
3.3019389e-05
3.13968291e-05
3.03020172e-05
2.95667502e-05
2.89693872e-05
4.38401457e-05
4.11247629e-05
3.85143993e-05
3.65436981e-05
3.45140562e-05
3.28539042e-05
3.1430841e-05
3.04370703e-05
2.9585712e-05
2.91456126e-05
4.3793139e-05
4.06280433e-05
3.81374175e-05
3.61830261e-05
3.45851298e-05
3.26457222e-05
3.13991496e-05
3.01278471e-05
2.96019555e-05
2.89229109e-05
4.39077717e-05
4.10288268e-05
3.82853991e-05
3.61813023e-05
3.43821192e-05
3.25512447e-05
3.10734177e-05
3.01192281e-05
2.95880988e-05
2.89933878e-05
4.36175766e-05
4.11870186e-05
3.85247421e-05
3.63472512e-05
3.41091621e-05
3.26375673e-05
3.12237198e-05
3.01146534e-05
2.93131527e-05
2.89929237e-05
4.36189026e-05
4.11652059e-05
3.81737499e-05
3.60133644e-05
3.42277728e-05
3.25932126e-05
3.14007408e-05
3.02981055e-05
2.93577063e-05
2.89506243e-05
4.35602934e-05
4.10789496e-05
3.8457315e-05
3.59568105e-05
3.40002312e-05
3.23614941e-05
3.1210725e-05
3.02660826e-05
2.93654634e-05
2.87626638e-05
4.38091173e-05
4.07068077e-05
3.82051098e-05
3.60786699e-05
3.40880124e-05
3.22697349e-05
3.11885808e-05
3.04963425e-05
2.97153285e-05
2.89740282e-05
)
;

boundaryField
{
    stickingWall
    {
        type            calculated;
        value           nonuniform List<scalar> 
100
(
4.41565956e-05
4.13661612e-05
3.86047662e-05
3.62363976e-05
3.42888351e-05
3.28428321e-05
3.15986463e-05
3.03451785e-05
2.95336665e-05
2.90821635e-05
4.37212035e-05
4.14942528e-05
3.84194577e-05
3.61740756e-05
3.41124108e-05
3.25415649e-05
3.13654692e-05
3.02961828e-05
2.95135113e-05
2.88962583e-05
4.3892589e-05
4.14753573e-05
3.8741079e-05
3.63765558e-05
3.46683363e-05
3.3019389e-05
3.13968291e-05
3.03020172e-05
2.95667502e-05
2.89693872e-05
4.38401457e-05
4.11247629e-05
3.85143993e-05
3.65436981e-05
3.45140562e-05
3.28539042e-05
3.1430841e-05
3.04370703e-05
2.9585712e-05
2.91456126e-05
4.3793139e-05
4.06280433e-05
3.81374175e-05
3.61830261e-05
3.45851298e-05
3.26457222e-05
3.13991496e-05
3.01278471e-05
2.96019555e-05
2.89229109e-05
4.39077717e-05
4.10288268e-05
3.82853991e-05
3.61813023e-05
3.43821192e-05
3.25512447e-05
3.10734177e-05
3.01192281e-05
2.95880988e-05
2.89933878e-05
4.36175766e-05
4.11870186e-05
3.85247421e-05
3.63472512e-05
3.41091621e-05
3.26375673e-05
3.12237198e-05
3.01146534e-05
2.93131527e-05
2.89929237e-05
4.36189026e-05
4.11652059e-05
3.81737499e-05
3.60133644e-05
3.42277728e-05
3.25932126e-05
3.14007408e-05
3.02981055e-05
2.93577063e-05
2.89506243e-05
4.35602934e-05
4.10789496e-05
3.8457315e-05
3.59568105e-05
3.40002312e-05
3.23614941e-05
3.1210725e-05
3.02660826e-05
2.93654634e-05
2.87626638e-05
4.38091173e-05
4.07068077e-05
3.82051098e-05
3.60786699e-05
3.40880124e-05
3.22697349e-05
3.11885808e-05
3.04963425e-05
2.97153285e-05
2.89740282e-05
)
;
    }
    defaultFaces
    {
        type            calculated;
        value           nonuniform List<scalar> 
140
(
2.6733486e-06
2.6461656e-06
2.6874042e-06
2.6819676e-06
2.6773266e-06
2.6988078e-06
2.7022554e-06
2.6872716e-06
2.716974e-06
2.7529086e-06
2.6352924e-06
2.6567736e-06
2.6542542e-06
2.6754702e-06
2.6885976e-06
2.6927082e-06
2.7007968e-06
2.7210846e-06
2.7122004e-06
2.7432288e-06
2.6319774e-06
2.6717574e-06
2.6856804e-06
2.6927082e-06
2.7258582e-06
2.7466764e-06
2.7049074e-06
2.7025206e-06
2.7135264e-06
2.7271842e-06
2.639403e-06
2.6330382e-06
2.6638014e-06
2.6834262e-06
2.673879e-06
2.6846196e-06
2.6790504e-06
2.7102114e-06
2.7171066e-06
2.7356706e-06
2.6472264e-06
2.631447e-06
2.6363532e-06
2.6817024e-06
2.7413724e-06
2.6753376e-06
2.7206868e-06
2.6961558e-06
2.7019902e-06
2.7237366e-06
2.650011e-06
2.6555802e-06
2.6531934e-06
2.6830284e-06
2.6744094e-06
2.6547846e-06
2.6781222e-06
2.7230736e-06
2.7469416e-06
2.7465438e-06
2.6176566e-06
2.6295906e-06
2.6555802e-06
2.6907192e-06
2.6794482e-06
2.657967e-06
2.6774592e-06
2.707029e-06
2.7214824e-06
2.7347424e-06
2.6313144e-06
2.6371488e-06
2.6305188e-06
2.6635362e-06
2.6596908e-06
2.6817024e-06
2.7027858e-06
2.683824e-06
2.7021228e-06
2.732223e-06
2.5957776e-06
2.6226954e-06
2.6391378e-06
2.6323752e-06
2.6311818e-06
2.6404638e-06
2.6874042e-06
2.7298362e-06
2.7457482e-06
2.7312948e-06
2.6130156e-06
2.6090376e-06
2.656641e-06
2.6793156e-06
2.6448396e-06
2.6640666e-06
2.6919126e-06
2.7243996e-06
2.727582e-06
2.738853e-06
2.7391182e-06
2.7033162e-06
2.7088854e-06
2.7350076e-06
2.7147198e-06
2.7128634e-06
2.7013272e-06
2.7025206e-06
2.7135264e-06
2.7263886e-06
2.7674946e-06
2.7916278e-06
2.7857934e-06
2.8113852e-06
2.756754e-06
2.7999816e-06
2.7714726e-06
2.7709422e-06
2.7936168e-06
2.7544998e-06
2.7107418e-06
2.7346098e-06
2.733549e-06
2.7399138e-06
2.7265212e-06
2.7515826e-06
2.7714726e-06
2.7558258e-06
2.7838044e-06
2.7696162e-06
2.6949624e-06
2.6697684e-06
2.6742768e-06
2.777307e-06
2.7417702e-06
2.67189e-06
2.7291732e-06
2.760069e-06
2.8039596e-06
2.7555606e-06
)
;
    }
}


// ************************************************************************* //
