/*--------------------------------*- C++ -*----------------------------------*\
| =========                 |                                                 |
| \\      /  F ield         | OpenFOAM: The Open Source CFD Toolbox           |
|  \\    /   O peration     | Version:  v1706                                 |
|   \\  /    A nd           | Web:      www.OpenFOAM.com                      |
|    \\/     M anipulation  |                                                 |
\*---------------------------------------------------------------------------*/
FoamFile
{
    version     2.0;
    format      ascii;
    class       volScalarField;
    location    "1e-06";
    object      surfaceShearStress_Ar;
}
// * * * * * * * * * * * * * * * * * * * * * * * * * * * * * * * * * * * * * //

dimensions      [1 -1 -2 0 0 0 0];


internalField   uniform 0;

boundaryField
{
    stickingWall
    {
        type            calculated;
        value           uniform 0;
    }
    defaultFaces
    {
        type            calculated;
        value           nonuniform List<scalar> 
140
(
0
5.178367467e-14
5.837761869e-14
0
6.847932091e-14
7.35752997e-14
1.565065303e-13
8.199593109e-14
8.690509277e-14
9.057389324e-14
0
5.181428961e-14
5.760784722e-14
6.351243073e-14
6.877807453e-14
7.330745281e-14
7.815302193e-14
0
8.683705974e-14
9.050925968e-14
4.626889034e-14
1.048805746e-13
0
0
0
0
7.799517614e-14
8.230312608e-14
0
0
0
5.162506388e-14
0
0
0
0
7.763710664e-14
8.305443911e-14
0
0
4.677076578e-14
1.029003456e-13
0
0
0
0
7.893929234e-14
8.211921664e-14
0
0
4.67747513e-14
1.046950302e-13
0
0
0
0
7.797008266e-14
8.273323015e-14
0
0
4.623033076e-14
5.162693024e-14
0
6.402939081e-14
0
0
7.827478355e-14
0
0
0
0
5.159517583e-14
0
6.327999898e-14
0
0
0
8.223847045e-14
0
0
4.546322505e-14
1.0246906e-13
0
0
0
0
7.771688166e-14
8.309412192e-14
0
0
4.561474837e-14
1.027048324e-13
0
0
0
0
7.838074584e-14
8.297588557e-14
0
0
0
0
0
0
0
0
0
0
0
0
8.071301147e-14
1.653497751e-13
0
0
0
0
8.152266264e-14
8.060518363e-14
0
0
0
0
0
0
0
0
0
0
0
0
5.223489139e-14
5.514112668e-14
0
0
0
0
0
0
0
0
)
;
    }
}


// ************************************************************************* //
