# Probe 0 (5e-06 5e-06 5e-06)
#           Probe                 0
#            Time
            1e-08                 0
            2e-08       18.19484776
            3e-08       36.52886157
            4e-08       36.99766613
            5e-08       60.01015971
            6e-08       60.70700939
            7e-08       61.33941919
            8e-08       61.27502312
            9e-08       81.18060083
            1e-07        80.7876081
          1.1e-07       82.27898687
          1.2e-07       82.95923671
          1.3e-07       102.4225569
          1.4e-07       102.2028197
          1.5e-07       123.1694673
          1.6e-07       164.8689642
          1.7e-07       187.2015209
          1.8e-07        188.920407
          1.9e-07       212.7209017
            2e-07        215.194674
          2.1e-07        217.564887
          2.2e-07       238.0712923
          2.3e-07       238.4621954
          2.4e-07       237.8744971
          2.5e-07       240.5717641
          2.6e-07       237.6241274
          2.7e-07       236.7622533
          2.8e-07       236.4560093
          2.9e-07        238.071151
            3e-07       237.7981922
          3.1e-07       241.9300326
          3.2e-07       247.5540241
          3.3e-07       248.3516672
          3.4e-07       250.0243888
          3.5e-07       251.4633703
          3.6e-07       251.7013972
          3.7e-07       253.6959497
          3.8e-07       253.7159865
          3.9e-07       256.2268032
            4e-07       277.6032495
          4.1e-07       278.2869578
          4.2e-07       276.3220263
          4.3e-07       273.9888882
          4.4e-07       277.2560744
          4.5e-07       278.8506438
          4.6e-07       281.1161906
          4.7e-07       284.4037611
          4.8e-07       286.0014004
          4.9e-07       283.5623487
            5e-07       284.9711561
          5.1e-07       285.8845532
          5.2e-07       309.0286052
          5.3e-07       330.8928474
          5.4e-07       358.1505441
          5.5e-07       358.6127629
          5.6e-07       360.2772882
          5.7e-07        364.282555
          5.8e-07       368.4779199
          5.9e-07       365.2544681
            6e-07       369.5830202
          6.1e-07       370.3296302
          6.2e-07       371.4042498
          6.3e-07       393.7056826
          6.4e-07       421.7219298
          6.5e-07       403.5008355
          6.6e-07       405.5592562
          6.7e-07        407.826078
          6.8e-07       406.1218919
          6.9e-07       407.6560911
            7e-07       405.5156769
          7.1e-07        407.419837
          7.2e-07       406.5904253
          7.3e-07       408.0634433
          7.4e-07       465.1988956
          7.5e-07       472.6236451
          7.6e-07       476.6745397
          7.7e-07       479.5661106
          7.8e-07       485.5828938
          7.9e-07       486.6150042
            8e-07       522.6654405
          8.1e-07       523.9879629
          8.2e-07       526.7025924
          8.3e-07       532.3632871
          8.4e-07       535.7173602
          8.5e-07       538.6811957
          8.6e-07       542.0387803
          8.7e-07       548.4083877
          8.8e-07       581.6130339
          8.9e-07       582.7869318
            9e-07       612.1028796
          9.1e-07        608.864965
          9.2e-07       603.2540314
          9.3e-07       634.4906032
          9.4e-07       670.9238661
          9.5e-07       677.2922316
          9.6e-07       671.4327734
          9.7e-07       679.8320412
          9.8e-07       676.9057272
          9.9e-07       672.8216093
            1e-06       708.0002669
         1.01e-06       722.7590865
         1.02e-06       740.6807191
         1.03e-06       740.9356587
         1.04e-06       712.2174501
         1.05e-06       744.2600726
         1.06e-06       746.8024416
         1.07e-06       762.8835686
         1.08e-06       764.9908365
         1.09e-06       791.9745072
          1.1e-06       796.8755501
         1.11e-06       789.4887886
         1.12e-06       787.3862779
         1.13e-06       786.2251141
         1.14e-06       779.7141053
         1.15e-06       783.7030188
         1.16e-06        797.384227
         1.17e-06       793.4207623
         1.18e-06       791.1997988
         1.19e-06       797.1174201
          1.2e-06       794.0929712
         1.21e-06       799.6756669
         1.22e-06       789.2753664
         1.23e-06       793.3462466
         1.24e-06       795.1873387
         1.25e-06       803.8745336
         1.26e-06       836.5366277
         1.27e-06        843.039694
         1.28e-06        837.243659
         1.29e-06       828.2371409
          1.3e-06        843.549173
         1.31e-06       850.6570362
         1.32e-06       861.4045865
         1.33e-06       866.0994375
         1.34e-06       865.8177492
         1.35e-06       871.7860267
         1.36e-06       863.6552335
         1.37e-06       873.1696423
         1.38e-06       880.7971506
         1.39e-06       884.4394174
          1.4e-06       886.7975375
         1.41e-06       880.8488481
         1.42e-06         889.27976
         1.43e-06       899.3670266
         1.44e-06       906.4665777
         1.45e-06       964.4876992
         1.46e-06       995.9145964
         1.47e-06       996.5830986
         1.48e-06       988.6915457
         1.49e-06       986.6109381
          1.5e-06       985.0201895
         1.51e-06       993.4409939
         1.52e-06         1002.3985
         1.53e-06       1012.978175
         1.54e-06        1041.13237
         1.55e-06       1081.863705
         1.56e-06       1087.097024
         1.57e-06       1082.039409
         1.58e-06        1090.85227
         1.59e-06       1122.210448
          1.6e-06        1129.54057
         1.61e-06       1136.404943
         1.62e-06       1187.587653
         1.63e-06       1173.211923
         1.64e-06       1170.092731
         1.65e-06       1178.637216
         1.66e-06        1185.43009
         1.67e-06        1184.13992
         1.68e-06       1200.698686
         1.69e-06       1190.390955
          1.7e-06       1196.671016
         1.71e-06       1189.097643
         1.72e-06       1181.281337
         1.73e-06       1175.762101
         1.74e-06       1193.858021
         1.75e-06       1202.516005
         1.76e-06       1192.941651
         1.77e-06       1195.920405
         1.78e-06       1198.740006
         1.79e-06       1196.370649
          1.8e-06       1197.993779
         1.81e-06       1203.277327
         1.82e-06       1206.478448
         1.83e-06       1253.994394
         1.84e-06       1264.503593
         1.85e-06       1256.497887
         1.86e-06       1263.410706
         1.87e-06       1307.188649
         1.88e-06        1306.08249
         1.89e-06       1316.298656
          1.9e-06       1307.626735
         1.91e-06       1326.478018
         1.92e-06       1338.942861
         1.93e-06       1337.153444
         1.94e-06       1343.061179
         1.95e-06       1346.619686
         1.96e-06       1349.685287
         1.97e-06       1362.148492
         1.98e-06       1348.559995
         1.99e-06       1358.105185
            2e-06       1360.603642
         2.01e-06       1382.816804
         2.02e-06       1373.787636
         2.03e-06       1391.040047
         2.04e-06       1379.403037
         2.05e-06       1390.434609
         2.06e-06       1402.749263
         2.07e-06       1455.819029
         2.08e-06       1456.278281
         2.09e-06       1446.346642
          2.1e-06       1456.772015
         2.11e-06       1470.837773
         2.12e-06       1467.519787
         2.13e-06       1471.926222
         2.14e-06        1470.39936
         2.15e-06       1467.020075
         2.16e-06       1471.977689
         2.17e-06       1461.101771
         2.18e-06       1467.149283
         2.19e-06       1489.182607
          2.2e-06       1493.440212
         2.21e-06       1546.473202
         2.22e-06       1558.846136
         2.23e-06       1564.341487
         2.24e-06       1565.120582
         2.25e-06       1561.633652
         2.26e-06       1630.314634
         2.27e-06       1663.381507
         2.28e-06       1669.916619
         2.29e-06       1672.122969
          2.3e-06       1643.310026
         2.31e-06       1651.335305
         2.32e-06       1644.493593
         2.33e-06       1644.122949
         2.34e-06       1644.899672
         2.35e-06       1648.766923
         2.36e-06        1663.15388
         2.37e-06       1670.219619
         2.38e-06       1658.831493
         2.39e-06       1661.935745
          2.4e-06       1655.410529
         2.41e-06       1651.416388
         2.42e-06       1701.203781
         2.43e-06       1694.229545
         2.44e-06       1743.296911
         2.45e-06       1755.174713
         2.46e-06       1762.597945
         2.47e-06       1769.226163
         2.48e-06       1769.873203
         2.49e-06       1763.642336
          2.5e-06       1777.482457
         2.51e-06       1774.908413
         2.52e-06       1848.925353
         2.53e-06        1831.28692
         2.54e-06       1848.768411
         2.55e-06       1819.544671
         2.56e-06       1819.674278
         2.57e-06       1842.060736
         2.58e-06       1866.804711
         2.59e-06       1869.025028
          2.6e-06       1877.318384
         2.61e-06        1873.80489
         2.62e-06        1910.70922
         2.63e-06       1921.882464
         2.64e-06       1908.981945
         2.65e-06       1907.077485
         2.66e-06       1903.781117
         2.67e-06       1899.701004
         2.68e-06       1910.325341
         2.69e-06       1930.607263
          2.7e-06       1951.093464
         2.71e-06       1978.158055
         2.72e-06       1971.243685
         2.73e-06       1966.580869
         2.74e-06       1973.027363
         2.75e-06       1962.531382
         2.76e-06       1956.144546
         2.77e-06       1964.701414
         2.78e-06       1932.606539
         2.79e-06       1938.936865
          2.8e-06       1957.190148
         2.81e-06       1975.604054
         2.82e-06       2004.629379
         2.83e-06       2062.303106
         2.84e-06       2084.973789
         2.85e-06       2071.488408
         2.86e-06       2051.118029
         2.87e-06       2027.957471
         2.88e-06       2049.075123
         2.89e-06       2057.928046
          2.9e-06       2061.557066
         2.91e-06       2166.272805
         2.92e-06       2169.351244
         2.93e-06       2218.697571
         2.94e-06        2258.82891
         2.95e-06       2225.912377
         2.96e-06       2198.409716
         2.97e-06       2215.327048
         2.98e-06       2220.145152
         2.99e-06       2217.355884
            3e-06       2250.445636
         3.01e-06       2253.098125
         3.02e-06       2235.088949
         3.03e-06       2251.198189
         3.04e-06       2261.429397
         3.05e-06       2274.968912
         3.06e-06       2288.554783
         3.07e-06       2316.659572
         3.08e-06       2312.916631
         3.09e-06       2309.523908
          3.1e-06       2288.401916
         3.11e-06       2284.453861
         3.12e-06       2274.690178
         3.13e-06       2293.068211
         3.14e-06       2327.933059
         3.15e-06       2326.213694
         3.16e-06       2277.973123
         3.17e-06       2285.213736
         3.18e-06       2307.033093
         3.19e-06       2297.801762
          3.2e-06       2354.236817
         3.21e-06       2351.952324
         3.22e-06       2396.385848
         3.23e-06       2410.700806
         3.24e-06       2407.747917
         3.25e-06       2413.419533
         3.26e-06       2352.671099
         3.27e-06       2360.549501
         3.28e-06       2356.706925
         3.29e-06       2363.721817
          3.3e-06       2393.482551
         3.31e-06       2414.905011
         3.32e-06       2445.008416
         3.33e-06       2478.344139
         3.34e-06        2512.50045
         3.35e-06       2486.942018
         3.36e-06       2524.687252
         3.37e-06       2536.858364
         3.38e-06       2551.427718
         3.39e-06       2546.478577
          3.4e-06       2585.365018
         3.41e-06       2604.148281
         3.42e-06       2608.808658
         3.43e-06       2618.760893
         3.44e-06       2663.925244
         3.45e-06       2672.679483
         3.46e-06       2714.457577
         3.47e-06       2728.262099
         3.48e-06       2744.367542
         3.49e-06       2757.446633
          3.5e-06       2784.770726
         3.51e-06       2742.152582
         3.52e-06       2719.595123
         3.53e-06       2708.875955
         3.54e-06       2703.763131
         3.55e-06       2771.418807
         3.56e-06        2765.41543
         3.57e-06       2760.273624
         3.58e-06       2750.633129
         3.59e-06       2718.548786
          3.6e-06       2713.461721
         3.61e-06       2698.049652
         3.62e-06       2726.635938
         3.63e-06       2738.955638
         3.64e-06       2748.550423
         3.65e-06       2772.442598
         3.66e-06       2778.246248
         3.67e-06       2850.618365
         3.68e-06       2901.781957
         3.69e-06       2863.633651
          3.7e-06       2952.697068
         3.71e-06        2980.59254
         3.72e-06       2970.346008
         3.73e-06        2975.31677
         3.74e-06       2989.380255
         3.75e-06       2973.063427
         3.76e-06       2957.447612
         3.77e-06       2981.441348
         3.78e-06       2958.959804
         3.79e-06       2965.052963
          3.8e-06       2941.947315
         3.81e-06       2948.356419
         3.82e-06       2982.784888
         3.83e-06       2983.174205
         3.84e-06       2953.703211
         3.85e-06       2950.287128
         3.86e-06        2932.84821
         3.87e-06       2942.513101
         3.88e-06       2904.248199
         3.89e-06       2941.966692
          3.9e-06       3008.727706
         3.91e-06       3021.533607
         3.92e-06       3016.524201
         3.93e-06       2998.105694
         3.94e-06       3005.383611
         3.95e-06       3044.572629
         3.96e-06       3085.483136
         3.97e-06       3085.455059
         3.98e-06       3114.773124
         3.99e-06       3109.010306
            4e-06       3191.905527
         4.01e-06       3202.844832
         4.02e-06       3191.168595
         4.03e-06       3170.746284
         4.04e-06       3214.568477
         4.05e-06       3216.264393
         4.06e-06       3136.888441
         4.07e-06       3114.562692
         4.08e-06       3125.679821
         4.09e-06       3090.938199
          4.1e-06       3067.149467
         4.11e-06       3083.867277
         4.12e-06       3124.479412
         4.13e-06        3125.83288
         4.14e-06       3163.293774
         4.15e-06       3173.979882
         4.16e-06       3158.146525
         4.17e-06       3102.275058
         4.18e-06       3111.337304
         4.19e-06       3123.817197
          4.2e-06       3143.573854
         4.21e-06       3146.896205
         4.22e-06       3153.598317
         4.23e-06       3178.807318
         4.24e-06       3173.413257
         4.25e-06       3196.819121
         4.26e-06       3185.797382
         4.27e-06       3191.762639
         4.28e-06       3192.827363
         4.29e-06       3226.074675
          4.3e-06       3254.390885
         4.31e-06       3253.187971
         4.32e-06       3263.371756
         4.33e-06        3242.63674
         4.34e-06        3322.78525
         4.35e-06       3358.966333
         4.36e-06       3339.449453
         4.37e-06       3326.691482
         4.38e-06       3319.254122
         4.39e-06       3301.756528
          4.4e-06         3325.1745
         4.41e-06       3318.214825
         4.42e-06       3289.795859
         4.43e-06       3299.705015
         4.44e-06        3310.05954
         4.45e-06       3355.860716
         4.46e-06       3358.453804
         4.47e-06       3355.284675
         4.48e-06       3327.635868
         4.49e-06        3361.28383
          4.5e-06       3329.667529
         4.51e-06       3353.324973
         4.52e-06       3369.481367
         4.53e-06       3464.707245
         4.54e-06       3496.093627
         4.55e-06       3495.166835
         4.56e-06       3510.826614
         4.57e-06       3536.492749
         4.58e-06       3514.193304
         4.59e-06       3558.189037
          4.6e-06       3517.665674
         4.61e-06       3535.663237
         4.62e-06       3565.719027
         4.63e-06       3566.739397
         4.64e-06       3550.105762
         4.65e-06         3543.9566
         4.66e-06       3560.191899
         4.67e-06       3562.319972
         4.68e-06       3564.233446
         4.69e-06       3587.630289
          4.7e-06       3592.324599
         4.71e-06        3497.06246
         4.72e-06        3516.53078
         4.73e-06       3515.966175
         4.74e-06       3527.705516
         4.75e-06       3547.373786
         4.76e-06       3625.934318
         4.77e-06       3617.495257
         4.78e-06       3675.183212
         4.79e-06       3657.259925
          4.8e-06       3642.598274
         4.81e-06       3729.402629
         4.82e-06       3681.378751
         4.83e-06        3677.88745
         4.84e-06       3735.458332
         4.85e-06       3762.572183
         4.86e-06       3686.642328
         4.87e-06       3771.079476
         4.88e-06       3862.321288
         4.89e-06       3851.144199
          4.9e-06       3814.224271
         4.91e-06       3823.156778
         4.92e-06       3850.279217
         4.93e-06       3811.008734
         4.94e-06       3776.480544
         4.95e-06       3747.506091
         4.96e-06        3783.27885
         4.97e-06       3819.825822
         4.98e-06       3746.250081
         4.99e-06       3764.370133
            5e-06       3861.333073
         5.01e-06       3846.867205
         5.02e-06       3841.081958
         5.03e-06       3860.661851
         5.04e-06       3898.570061
         5.05e-06       3863.648102
         5.06e-06       3811.171242
         5.07e-06       3819.799363
         5.08e-06       3796.095228
         5.09e-06       3743.825252
          5.1e-06       3743.168872
         5.11e-06       3704.170638
         5.12e-06       3722.341448
         5.13e-06       3730.068087
         5.14e-06       3798.117254
         5.15e-06       3838.815126
         5.16e-06       3851.892399
         5.17e-06       3858.351662
         5.18e-06       3865.318526
         5.19e-06       3764.180644
          5.2e-06       3732.028986
         5.21e-06       3810.277341
         5.22e-06        3830.12215
         5.23e-06       3893.281393
         5.24e-06       3907.764124
         5.25e-06       3918.060097
         5.26e-06       3913.346561
         5.27e-06       3923.077989
         5.28e-06       3830.919326
         5.29e-06       3844.705052
          5.3e-06       3857.678459
         5.31e-06       3912.950777
         5.32e-06       3919.011005
         5.33e-06       3883.692554
         5.34e-06       3871.788188
         5.35e-06        3910.80898
         5.36e-06       3908.927536
         5.37e-06       3896.260785
         5.38e-06       3889.077167
         5.39e-06       3886.665217
          5.4e-06       3911.518493
         5.41e-06       3855.133049
         5.42e-06       3913.519077
         5.43e-06       3910.370357
         5.44e-06       3899.365097
         5.45e-06        3901.88281
         5.46e-06       3951.124814
         5.47e-06       3987.134931
         5.48e-06        4016.87342
         5.49e-06        4012.90045
          5.5e-06       3963.662909
         5.51e-06       3884.633637
         5.52e-06       3906.702043
         5.53e-06       3925.333571
         5.54e-06       3926.340076
         5.55e-06       3931.962226
         5.56e-06       3948.795911
         5.57e-06       3959.946334
         5.58e-06       4026.791728
         5.59e-06       4054.320001
          5.6e-06       4044.688929
         5.61e-06       3898.671499
         5.62e-06       3959.331679
         5.63e-06       3940.717149
         5.64e-06       3941.715874
         5.65e-06       3927.490314
         5.66e-06        3913.43424
         5.67e-06       3895.418906
         5.68e-06       3996.295202
         5.69e-06       4034.486029
          5.7e-06       4042.448845
         5.71e-06       4032.575718
         5.72e-06       4098.267827
         5.73e-06       4092.538058
         5.74e-06       4111.480037
         5.75e-06       4123.277996
         5.76e-06       4052.882573
         5.77e-06       4042.140544
         5.78e-06       4050.619217
         5.79e-06       3986.495562
          5.8e-06       4041.981189
         5.81e-06       4018.170545
         5.82e-06       4053.625398
         5.83e-06       4090.686568
         5.84e-06       4076.280191
         5.85e-06       4109.614583
         5.86e-06       4105.274736
         5.87e-06       4090.024554
         5.88e-06       4152.658226
         5.89e-06        4183.02505
          5.9e-06       4166.963615
         5.91e-06       4190.143685
         5.92e-06       4193.027663
         5.93e-06       4162.546093
         5.94e-06       4137.865898
         5.95e-06       4172.729877
         5.96e-06       4190.141749
         5.97e-06       4262.647382
         5.98e-06       4291.600752
         5.99e-06       4229.461357
            6e-06       4221.883774
         6.01e-06       4219.644205
         6.02e-06       4221.333189
         6.03e-06       4213.053516
         6.04e-06       4281.799202
         6.05e-06       4329.808595
         6.06e-06       4323.427904
         6.07e-06       4388.669157
         6.08e-06       4399.287574
         6.09e-06       4353.559494
          6.1e-06       4373.346363
         6.11e-06       4311.473053
         6.12e-06        4249.15294
         6.13e-06       4237.920359
         6.14e-06       4237.097357
         6.15e-06       4305.906445
         6.16e-06       4284.686452
         6.17e-06       4297.601352
         6.18e-06       4307.826401
         6.19e-06       4305.200776
          6.2e-06       4311.038688
         6.21e-06       4328.857565
         6.22e-06       4364.976252
         6.23e-06       4416.689348
         6.24e-06       4415.116359
         6.25e-06       4322.078331
         6.26e-06       4337.549584
         6.27e-06        4391.02538
         6.28e-06       4360.912809
         6.29e-06       4442.966441
          6.3e-06       4437.508386
         6.31e-06       4465.541478
         6.32e-06       4466.558779
         6.33e-06       4456.585339
         6.34e-06       4470.376931
         6.35e-06       4454.472401
         6.36e-06       4478.131557
         6.37e-06       4535.035658
         6.38e-06       4573.136105
         6.39e-06       4526.349367
          6.4e-06       4523.427549
         6.41e-06       4567.272382
         6.42e-06       4597.008648
         6.43e-06       4604.006534
         6.44e-06       4521.110998
         6.45e-06       4535.550861
         6.46e-06       4594.579981
         6.47e-06       4590.042384
         6.48e-06       4580.360816
         6.49e-06       4490.813448
          6.5e-06       4447.410776
         6.51e-06       4460.598525
         6.52e-06        4402.49911
         6.53e-06       4379.480536
         6.54e-06       4355.255033
         6.55e-06        4334.13517
         6.56e-06       4331.417956
         6.57e-06       4324.874587
         6.58e-06       4358.262612
         6.59e-06       4356.296136
          6.6e-06       4405.688757
         6.61e-06       4457.871812
         6.62e-06       4544.901507
         6.63e-06       4557.934911
         6.64e-06       4584.088271
         6.65e-06       4631.546439
         6.66e-06       4663.569121
         6.67e-06       4579.541812
         6.68e-06       4631.604836
         6.69e-06       4615.686958
          6.7e-06       4619.231477
         6.71e-06       4637.389663
         6.72e-06       4630.657111
         6.73e-06       4576.919597
         6.74e-06       4545.072428
         6.75e-06       4514.040987
         6.76e-06       4483.266309
         6.77e-06       4509.360587
         6.78e-06       4544.786422
         6.79e-06       4609.521032
          6.8e-06       4602.020696
         6.81e-06       4641.735008
         6.82e-06       4661.688072
         6.83e-06         4675.1081
         6.84e-06       4680.541522
         6.85e-06        4635.04629
         6.86e-06       4641.592083
         6.87e-06       4639.778967
         6.88e-06       4618.459949
         6.89e-06       4641.643579
          6.9e-06       4706.957764
         6.91e-06       4679.250715
         6.92e-06       4666.189545
         6.93e-06       4719.164057
         6.94e-06       4750.128968
         6.95e-06       4890.581911
         6.96e-06       4870.388424
         6.97e-06       4853.401489
         6.98e-06       4820.885939
         6.99e-06       4771.411451
            7e-06       4764.872817
         7.01e-06       4857.038078
         7.02e-06       4884.121266
         7.03e-06       4854.769225
         7.04e-06       4865.953284
         7.05e-06       4807.648797
         7.06e-06       4758.533673
         7.07e-06       4769.894319
         7.08e-06        4779.74862
         7.09e-06        4731.56525
          7.1e-06       4621.641369
         7.11e-06       4633.436626
         7.12e-06       4653.668744
         7.13e-06       4641.088743
         7.14e-06       4601.476547
         7.15e-06       4683.077659
         7.16e-06       4650.000416
         7.17e-06       4711.554242
         7.18e-06       4817.500859
         7.19e-06       4819.844605
          7.2e-06       4839.800775
         7.21e-06       4836.744012
         7.22e-06       4790.532623
         7.23e-06       4802.606534
         7.24e-06       4619.654013
         7.25e-06       4649.000473
         7.26e-06       4672.584274
         7.27e-06       4727.205507
         7.28e-06       4795.826483
         7.29e-06       4808.047673
          7.3e-06       4777.445064
         7.31e-06       4735.471076
         7.32e-06        4754.18065
         7.33e-06       4728.425554
         7.34e-06       4679.691638
         7.35e-06       4729.387584
         7.36e-06        4741.84983
         7.37e-06       4714.805964
         7.38e-06       4724.086936
         7.39e-06       4741.626915
          7.4e-06       4766.896374
         7.41e-06       4755.128093
         7.42e-06       4763.623116
         7.43e-06       4795.252462
         7.44e-06       4800.578601
         7.45e-06        4814.01713
         7.46e-06       4804.337531
         7.47e-06       4736.832829
         7.48e-06       4667.915194
         7.49e-06       4746.647197
          7.5e-06       4829.071838
         7.51e-06        4819.62978
         7.52e-06       4845.153977
         7.53e-06       4876.189704
         7.54e-06       4916.464203
         7.55e-06       4921.673252
         7.56e-06        4929.76359
         7.57e-06       4897.446222
         7.58e-06       4834.591356
         7.59e-06        4802.22892
          7.6e-06       4787.689525
         7.61e-06       4809.758599
         7.62e-06       4838.121701
         7.63e-06       4851.683494
         7.64e-06       4912.147208
         7.65e-06       4897.443134
         7.66e-06       4909.284121
         7.67e-06       4898.695387
         7.68e-06        4933.14867
         7.69e-06        4975.09507
          7.7e-06       5006.990625
         7.71e-06       5062.784625
         7.72e-06       5039.123943
         7.73e-06       5067.331213
         7.74e-06       5063.531256
         7.75e-06       5013.339074
         7.76e-06       5026.985855
         7.77e-06       5021.732401
         7.78e-06       4915.044558
         7.79e-06       5002.768569
          7.8e-06       4985.925369
         7.81e-06       4924.477632
         7.82e-06       4920.653131
         7.83e-06        4955.73681
         7.84e-06       5023.559215
         7.85e-06       5027.806195
         7.86e-06        5042.14449
         7.87e-06       4993.997291
         7.88e-06       4991.206268
         7.89e-06       4959.956911
          7.9e-06        4975.37565
         7.91e-06       5069.602191
         7.92e-06       5024.297279
         7.93e-06       5029.454255
         7.94e-06       5018.517798
         7.95e-06       5014.707216
         7.96e-06       4985.312413
         7.97e-06       4943.959598
         7.98e-06       4933.148042
         7.99e-06       4908.573962
            8e-06        4913.41177
         8.01e-06       4963.535356
         8.02e-06       4958.344614
         8.03e-06       4972.705897
         8.04e-06        5009.46033
         8.05e-06       5005.676112
         8.06e-06       5060.518275
         8.07e-06       5099.207818
         8.08e-06       5132.527745
         8.09e-06       5029.889608
          8.1e-06       5002.361262
         8.11e-06       4938.248873
         8.12e-06       4962.202851
         8.13e-06       4969.061431
         8.14e-06       4966.001652
         8.15e-06       4882.635738
         8.16e-06       4923.324938
         8.17e-06       4972.988655
         8.18e-06       4949.521459
         8.19e-06       4955.091574
          8.2e-06       5027.107554
         8.21e-06       5126.404499
         8.22e-06       5177.548751
         8.23e-06       5111.554574
         8.24e-06       5152.581279
         8.25e-06       5206.548813
         8.26e-06       5201.327774
         8.27e-06       5160.424198
         8.28e-06       5139.228423
         8.29e-06       5131.658373
          8.3e-06       5095.830409
         8.31e-06       5075.749345