# Probe 0 (5e-06 5e-06 5e-06)
#           Probe                 0
#            Time
            1e-08    1.11786829e-08
            2e-08   1.117955467e-08
            3e-08   1.118107342e-08
            4e-08   1.118614314e-08
            5e-08   1.119310171e-08
            6e-08   1.119767798e-08
            7e-08   1.120178132e-08
            8e-08   1.120136562e-08
            9e-08   1.120470711e-08
            1e-07   1.120278766e-08
          1.1e-07    1.12100181e-08
          1.2e-07   1.121326835e-08
          1.3e-07   1.121193259e-08
          1.4e-07   1.121108474e-08
          1.5e-07   1.121515969e-08
          1.6e-07   1.121969957e-08
          1.7e-07   1.122434596e-08
          1.8e-07   1.122794094e-08
          1.9e-07   1.122665211e-08
            2e-07   1.123119653e-08
          2.1e-07   1.123549719e-08
          2.2e-07   1.123474707e-08
          2.3e-07   1.123539091e-08
          2.4e-07    1.12344225e-08
          2.5e-07   1.123884562e-08
          2.6e-07   1.123400914e-08
          2.7e-07   1.123258252e-08
          2.8e-07   1.123207423e-08
          2.9e-07   1.123474684e-08
            3e-07   1.123429657e-08
          3.1e-07   1.124105241e-08
          3.2e-07   1.125004719e-08
          3.3e-07   1.125130472e-08
          3.4e-07   1.125392753e-08
          3.5e-07   1.125616848e-08
          3.6e-07   1.125653781e-08
          3.7e-07   1.125961761e-08
          3.8e-07   1.125964842e-08
          3.9e-07    1.12634875e-08
            4e-07   1.126188894e-08
          4.1e-07   1.126284774e-08
          4.2e-07   1.126008523e-08
          4.3e-07   1.125677693e-08
          4.4e-07   1.126140109e-08
          4.5e-07   1.126363628e-08
          4.6e-07   1.126678802e-08
          4.7e-07   1.127131235e-08
          4.8e-07   1.127349035e-08
          4.9e-07   1.127015989e-08
            5e-07   1.127208739e-08
          5.1e-07   1.127333151e-08
          5.2e-07   1.127339422e-08
          5.3e-07   1.127194741e-08
          5.4e-07   1.127658174e-08
          5.5e-07   1.127708264e-08
          5.6e-07   1.127888064e-08
          5.7e-07   1.128317001e-08
          5.8e-07   1.128760788e-08
          5.9e-07   1.128420307e-08
            6e-07   1.128876765e-08
          6.1e-07   1.128954904e-08
          6.2e-07    1.12906707e-08
          6.3e-07   1.128885725e-08
          6.4e-07   1.129252652e-08
          6.5e-07     1.1298362e-08
          6.6e-07   1.130032725e-08
          6.7e-07   1.130247887e-08
          6.8e-07   1.130086252e-08
          6.9e-07   1.130231797e-08
            7e-07   1.130028576e-08
          7.1e-07   1.130209424e-08
          7.2e-07   1.130130764e-08
          7.3e-07   1.130270341e-08
          7.4e-07   1.130093534e-08
          7.5e-07   1.130704385e-08
          7.6e-07   1.131033246e-08
          7.7e-07   1.131266124e-08
          7.8e-07   1.131745809e-08
          7.9e-07   1.131827439e-08
            8e-07   1.132214719e-08
          8.1e-07   1.132311764e-08
          8.2e-07   1.132510122e-08
          8.3e-07   1.132561056e-08
          8.4e-07   1.132801988e-08
          8.5e-07   1.133013518e-08
          8.6e-07   1.133251618e-08
          8.7e-07    1.13369891e-08
          8.8e-07   1.134093256e-08
          8.9e-07    1.13417033e-08
            9e-07   1.133956398e-08
          9.1e-07   1.133753519e-08
          9.2e-07   1.133399143e-08
          9.3e-07   1.133654016e-08
          9.4e-07   1.134183606e-08
          9.5e-07    1.13454452e-08
          9.6e-07   1.134212585e-08
          9.7e-07   1.134687425e-08
          9.8e-07   1.134522722e-08
          9.9e-07   1.134291547e-08
            1e-06    1.13469906e-08
         1.01e-06   1.135485849e-08
         1.02e-06    1.13494299e-08
         1.03e-06   1.134956118e-08
         1.04e-06   1.135209341e-08
         1.05e-06   1.135399564e-08
         1.06e-06   1.135529493e-08
         1.07e-06   1.136340287e-08
         1.08e-06   1.136445147e-08
         1.09e-06   1.136335439e-08
          1.1e-06   1.136569928e-08
         1.11e-06   1.136215904e-08
         1.12e-06   1.136114475e-08
         1.13e-06   1.136058331e-08
         1.14e-06   1.135741829e-08
         1.15e-06   1.135936073e-08
         1.16e-06   1.136594175e-08
         1.17e-06   1.136404799e-08
         1.18e-06   1.136298228e-08
         1.19e-06   1.136581459e-08
          1.2e-06    1.13643699e-08
         1.21e-06   1.136703193e-08
         1.22e-06   1.136205621e-08
         1.23e-06   1.136401229e-08
         1.24e-06   1.136489334e-08
         1.25e-06   1.136902075e-08
         1.26e-06   1.137040063e-08
         1.27e-06   1.137333868e-08
         1.28e-06   1.137072127e-08
         1.29e-06   1.136661452e-08
          1.3e-06   1.137356781e-08
         1.31e-06   1.137674883e-08
         1.32e-06   1.138150401e-08
         1.33e-06   1.138356092e-08
         1.34e-06   1.138343785e-08
         1.35e-06   1.138603608e-08
         1.36e-06   1.138249159e-08
         1.37e-06   1.138663565e-08
         1.38e-06   1.138992242e-08
         1.39e-06   1.139148096e-08
          1.4e-06   1.139248628e-08
         1.41e-06   1.138994459e-08
         1.42e-06   1.139354136e-08
         1.43e-06   1.139779616e-08
         1.44e-06   1.140075964e-08
         1.45e-06   1.140516795e-08
         1.46e-06   1.140472497e-08
         1.47e-06   1.140497753e-08
         1.48e-06   1.140198425e-08
         1.49e-06   1.140119072e-08
          1.5e-06   1.140058279e-08
         1.51e-06   1.140378883e-08
         1.52e-06   1.140716682e-08
         1.53e-06   1.141111437e-08
         1.54e-06   1.140932602e-08
         1.55e-06   1.141203488e-08
         1.56e-06   1.141384762e-08
         1.57e-06   1.141209589e-08
         1.58e-06   1.141514252e-08
         1.59e-06   1.141443447e-08
          1.6e-06   1.141687855e-08
         1.61e-06   1.141915171e-08
         1.62e-06   1.142259901e-08
         1.63e-06   1.141803222e-08
         1.64e-06   1.141703328e-08
         1.65e-06   1.141976283e-08
         1.66e-06   1.142191747e-08
         1.67e-06   1.142150928e-08
         1.68e-06   1.142671179e-08
         1.69e-06   1.142348252e-08
          1.7e-06   1.142545359e-08
         1.71e-06    1.14230752e-08
         1.72e-06   1.142060313e-08
         1.73e-06   1.141884678e-08
         1.74e-06    1.14245721e-08
         1.75e-06   1.142727799e-08
         1.76e-06   1.142428445e-08
         1.77e-06    1.14252186e-08
         1.78e-06   1.142610049e-08
         1.79e-06   1.142535957e-08
          1.8e-06   1.142586731e-08
         1.81e-06   1.142751491e-08
         1.82e-06   1.142850931e-08
         1.83e-06   1.143039833e-08
         1.84e-06   1.143351898e-08
         1.85e-06   1.143114431e-08
         1.86e-06   1.143319578e-08
         1.87e-06   1.143374631e-08
         1.88e-06   1.143342988e-08
         1.89e-06   1.143634129e-08
          1.9e-06   1.143387155e-08
         1.91e-06   1.143921782e-08
         1.92e-06   1.144270759e-08
         1.93e-06   1.144032958e-08
         1.94e-06   1.144197435e-08
         1.95e-06   1.144296127e-08
         1.96e-06   1.144380922e-08
         1.97e-06   1.144723505e-08
         1.98e-06    1.14434982e-08
         1.99e-06   1.144608938e-08
            2e-06   1.144677425e-08
         2.01e-06   1.145280372e-08
         2.02e-06   1.145036569e-08
         2.03e-06   1.145500909e-08
         2.04e-06   1.145188399e-08
         2.05e-06   1.145484721e-08
         2.06e-06   1.145812498e-08
         2.07e-06   1.146210319e-08
         2.08e-06   1.146222028e-08
         2.09e-06   1.145967919e-08
          2.1e-06   1.146234611e-08
         2.11e-06   1.146591153e-08
         2.12e-06   1.146507383e-08
         2.13e-06   1.146618588e-08
         2.14e-06   1.146580096e-08
         2.15e-06   1.146494749e-08
         2.16e-06   1.146619885e-08
         2.17e-06   1.146344761e-08
         2.18e-06   1.146498017e-08
         2.19e-06   1.147050622e-08
          2.2e-06   1.147156378e-08
         2.21e-06   1.147495205e-08
         2.22e-06   1.147790017e-08
         2.23e-06   1.147920141e-08
         2.24e-06   1.147938548e-08
         2.25e-06   1.147856085e-08
         2.26e-06   1.148347739e-08
         2.27e-06   1.148022676e-08
         2.28e-06   1.148167582e-08
         2.29e-06   1.148216365e-08
          2.3e-06   1.147743846e-08
         2.31e-06   1.147923994e-08
         2.32e-06   1.147770474e-08
         2.33e-06   1.147762137e-08
         2.34e-06   1.147779605e-08
         2.35e-06   1.147866444e-08
         2.36e-06   1.148187566e-08
         2.37e-06   1.148344171e-08
         2.38e-06   1.148991151e-08
         2.39e-06   1.149060089e-08
          2.4e-06   1.148915016e-08
         2.41e-06   1.148825909e-08
         2.42e-06   1.149022492e-08
         2.43e-06   1.148870988e-08
         2.44e-06   1.149046429e-08
         2.45e-06   1.149296723e-08
         2.46e-06   1.149452215e-08
         2.47e-06   1.149428333e-08
         2.48e-06   1.149441802e-08
         2.49e-06   1.149311869e-08
          2.5e-06   1.149599806e-08
         2.51e-06   1.149546439e-08
         2.52e-06   1.150198398e-08
         2.53e-06   1.149845784e-08
         2.54e-06   1.150195277e-08
         2.55e-06   1.149608987e-08
         2.56e-06    1.14961161e-08
         2.57e-06   1.150061603e-08
         2.58e-06   1.150552115e-08
         2.59e-06   1.150595783e-08
          2.6e-06   1.150758396e-08
         2.61e-06     1.1506896e-08
         2.62e-06   1.150575283e-08
         2.63e-06   1.150789431e-08
         2.64e-06   1.150542056e-08
         2.65e-06   1.150505383e-08
         2.66e-06   1.150441812e-08
         2.67e-06   1.150362961e-08
         2.68e-06   1.150567901e-08
         2.69e-06   1.150955713e-08
          2.7e-06   1.151342959e-08
         2.71e-06   1.151847831e-08
         2.72e-06   1.151719566e-08
         2.73e-06   1.151632791e-08
         2.74e-06   1.151752701e-08
         2.75e-06   1.151557249e-08
         2.76e-06   1.151437759e-08
         2.77e-06   1.151597751e-08
         2.78e-06   1.150993701e-08
         2.79e-06   1.151113702e-08
          2.8e-06    1.15145735e-08
         2.81e-06    1.15180051e-08
         2.82e-06   1.152334425e-08
         2.83e-06   1.152562966e-08
         2.84e-06   1.152171402e-08
         2.85e-06   1.151933854e-08
         2.86e-06   1.151571818e-08
         2.87e-06   1.151948451e-08
         2.88e-06   1.152327616e-08
         2.89e-06   1.152485308e-08
          2.9e-06   1.152549736e-08
         2.91e-06   1.152505703e-08
         2.92e-06    1.15255763e-08
         2.93e-06   1.152627646e-08
         2.94e-06   1.152545889e-08
         2.95e-06   1.152746318e-08
         2.96e-06   1.152291683e-08
         2.97e-06   1.152572063e-08
         2.98e-06    1.15265149e-08
         2.99e-06   1.152605531e-08
            3e-06   1.153146746e-08
         3.01e-06   1.153189755e-08
         3.02e-06   1.152896656e-08
         3.03e-06   1.153158954e-08
         3.04e-06   1.153324486e-08
         3.05e-06   1.153542298e-08
         3.06e-06   1.153759444e-08
         3.07e-06   1.154204239e-08
         3.08e-06   1.154145341e-08
         3.09e-06   1.154091865e-08
          3.1e-06   1.153757009e-08
         3.11e-06   1.153694046e-08
         3.12e-06   1.153537828e-08
         3.13e-06   1.153831274e-08
         3.14e-06   1.154242131e-08
         3.15e-06   1.154215222e-08
         3.16e-06   1.153451295e-08
         3.17e-06   1.153567071e-08
         3.18e-06   1.153913562e-08
         3.19e-06   1.153767405e-08
          3.2e-06    1.15378393e-08
         3.21e-06   1.153748533e-08
         3.22e-06   1.154430392e-08
         3.23e-06   1.154647142e-08
         3.24e-06   1.154602546e-08
         3.25e-06   1.153973827e-08
         3.26e-06   1.153759674e-08
         3.27e-06   1.153881548e-08
         3.28e-06   1.153822161e-08
         3.29e-06   1.153930497e-08
          3.3e-06    1.15438626e-08
         3.31e-06   1.154710535e-08
         3.32e-06   1.155160973e-08
         3.33e-06   1.154940109e-08
         3.34e-06   1.154738161e-08
         3.35e-06   1.154366067e-08
         3.36e-06   1.154227176e-08
         3.37e-06   1.154402293e-08
         3.38e-06    1.15461072e-08
         3.39e-06   1.154540063e-08
          3.4e-06   1.154417308e-08
         3.41e-06   1.154680751e-08
         3.42e-06   1.154745795e-08
         3.43e-06   1.154884276e-08
         3.44e-06   1.155505614e-08
         3.45e-06   1.155624724e-08
         3.46e-06   1.156187384e-08
         3.47e-06   1.156371236e-08
         3.48e-06   1.156584461e-08
         3.49e-06   1.156756622e-08
          3.5e-06   1.157113449e-08
         3.51e-06   1.156555217e-08
         3.52e-06   1.156255925e-08
         3.53e-06   1.156112758e-08
         3.54e-06   1.156044253e-08
         3.55e-06   1.156280776e-08
         3.56e-06   1.156202173e-08
         3.57e-06   1.156134704e-08
         3.58e-06   1.156007836e-08
         3.59e-06   1.155582104e-08
          3.6e-06   1.155514102e-08
         3.61e-06   1.155307231e-08
         3.62e-06   1.155815371e-08
         3.63e-06   1.155978909e-08
         3.64e-06   1.156105723e-08
         3.65e-06   1.156419428e-08
         3.66e-06   1.156495188e-08
         3.67e-06   1.157425738e-08
         3.68e-06   1.157297997e-08
         3.69e-06   1.157465444e-08
          3.7e-06   1.157926442e-08
         3.71e-06    1.15826579e-08
         3.72e-06   1.158141543e-08
         3.73e-06   1.158201875e-08
         3.74e-06   1.158371979e-08
         3.75e-06   1.158174539e-08
         3.76e-06   1.157984478e-08
         3.77e-06   1.158276061e-08
         3.78e-06    1.15800293e-08
         3.79e-06   1.158077179e-08
          3.8e-06   1.157794742e-08
         3.81e-06   1.157873326e-08
         3.82e-06   1.158292313e-08
         3.83e-06   1.158297021e-08
         3.84e-06   1.157938742e-08
         3.85e-06   1.157896962e-08
         3.86e-06   1.157682857e-08
         3.87e-06   1.157801687e-08
         3.88e-06   1.157328712e-08
         3.89e-06    1.15779498e-08
          3.9e-06   1.157971429e-08
         3.91e-06   1.158124724e-08
         3.92e-06   1.158064843e-08
         3.93e-06   1.157843739e-08
         3.94e-06   1.157931282e-08
         3.95e-06   1.158398749e-08
         3.96e-06   1.158258019e-08
         3.97e-06   1.158257691e-08
         3.98e-06   1.158598723e-08
         3.99e-06   1.158531964e-08
            4e-06   1.159479563e-08
         4.01e-06   1.159602617e-08
         4.02e-06   1.159471257e-08
         4.03e-06   1.159240245e-08
         4.04e-06   1.159733988e-08
         4.05e-06   1.159752949e-08
         4.06e-06   1.159474623e-08
         4.07e-06   1.159217611e-08
         4.08e-06   1.159345839e-08
         4.09e-06   1.158943463e-08
          4.1e-06   1.158665103e-08
         4.11e-06   1.158860967e-08
         4.12e-06   1.159332017e-08
         4.13e-06   1.159347601e-08
         4.14e-06    1.15977605e-08
         4.15e-06   1.159897262e-08
         4.16e-06   1.159717507e-08
         4.17e-06   1.159075303e-08
         4.18e-06   1.159180316e-08
         4.19e-06    1.15932439e-08
          4.2e-06   1.159551199e-08
         4.21e-06   1.159589188e-08
         4.22e-06   1.159665691e-08
         4.23e-06   1.159951874e-08
         4.24e-06   1.159890846e-08
         4.25e-06   1.160154847e-08
         4.26e-06   1.160030792e-08
         4.27e-06   1.160097992e-08
         4.28e-06   1.160109972e-08
         4.29e-06   1.160481898e-08
          4.3e-06     1.1607954e-08
         4.31e-06   1.160782142e-08
         4.32e-06   1.160894214e-08
         4.33e-06   1.160665625e-08
         4.34e-06   1.160922645e-08
         4.35e-06   1.161308387e-08
         4.36e-06   1.161099615e-08
         4.37e-06   1.160962427e-08
         4.38e-06   1.160882189e-08
         4.39e-06   1.160692644e-08
          4.4e-06   1.160946077e-08
         4.41e-06   1.160870961e-08
         4.42e-06   1.160562451e-08
         4.43e-06    1.16067035e-08
         4.44e-06   1.160782723e-08
         4.45e-06   1.161275254e-08
         4.46e-06   1.161302921e-08
         4.47e-06   1.161269105e-08
         4.48e-06   1.160972602e-08
         4.49e-06    1.16133309e-08
          4.5e-06    1.16099448e-08
         4.51e-06   1.161248177e-08
         4.52e-06   1.161420322e-08
         4.53e-06   1.161810936e-08
         4.54e-06    1.16213344e-08
         4.55e-06   1.162123962e-08
         4.56e-06   1.162283746e-08
         4.57e-06   1.161835045e-08
         4.58e-06     1.1616087e-08
         4.59e-06   1.162053787e-08
          4.6e-06   1.161644048e-08
         4.61e-06   1.161826653e-08
         4.62e-06   1.162129367e-08
         4.63e-06   1.162139595e-08
         4.64e-06   1.161972461e-08
         4.65e-06   1.161910459e-08
         4.66e-06   1.162073907e-08
         4.67e-06   1.161982624e-08
         4.68e-06   1.162001827e-08
         4.69e-06   1.162235733e-08
          4.7e-06   1.162282465e-08
         4.71e-06   1.162028458e-08
         4.72e-06   1.162226922e-08
         4.73e-06   1.162221183e-08
         4.74e-06   1.162340302e-08
         4.75e-06   1.162538917e-08
         4.76e-06   1.163320509e-08
         4.77e-06   1.163237433e-08
         4.78e-06   1.163801182e-08
         4.79e-06   1.163627061e-08
          4.8e-06   1.163599095e-08
         4.81e-06   1.163844042e-08
         4.82e-06   1.163382317e-08
         4.83e-06   1.163348496e-08
         4.84e-06   1.163901807e-08
         4.85e-06   1.164159205e-08
         4.86e-06   1.163543969e-08
         4.87e-06   1.164350072e-08
         4.88e-06   1.164615172e-08
         4.89e-06   1.164512157e-08
          4.9e-06   1.164169565e-08
         4.91e-06   1.164252781e-08
         4.92e-06   1.164504171e-08
         4.93e-06   1.164139557e-08
         4.94e-06   1.163815596e-08
         4.95e-06   1.163541258e-08
         4.96e-06   1.163879634e-08
         4.97e-06   1.163645642e-08
         4.98e-06   1.163529314e-08
         4.99e-06    1.16370121e-08
            5e-06   1.164030461e-08
         5.01e-06   1.163896857e-08
         5.02e-06   1.163843273e-08
         5.03e-06   1.164024274e-08
         5.04e-06   1.164371897e-08
         5.05e-06   1.164051792e-08
         5.06e-06   1.164141075e-08
         5.07e-06   1.164221528e-08
         5.08e-06   1.164000023e-08
         5.09e-06   1.163506242e-08
          5.1e-06   1.163499994e-08
         5.11e-06   1.163126627e-08
         5.12e-06   1.163301121e-08
         5.13e-06    1.16337504e-08
         5.14e-06   1.164018976e-08
         5.15e-06   1.164398149e-08
         5.16e-06   1.164519063e-08
         5.17e-06   1.164578622e-08
         5.18e-06   1.164642741e-08
         5.19e-06   1.164398054e-08
          5.2e-06   1.164092908e-08
         5.21e-06   1.164132728e-08
         5.22e-06   1.164317525e-08
         5.23e-06   1.164898842e-08
         5.24e-06   1.165030701e-08
         5.25e-06   1.165124121e-08
         5.26e-06   1.165081386e-08
         5.27e-06   1.165169554e-08
         5.28e-06   1.165020294e-08
         5.29e-06   1.165147823e-08
          5.3e-06   1.165267386e-08
         5.31e-06   1.165771944e-08
         5.32e-06   1.165826795e-08
         5.33e-06   1.165505826e-08
         5.34e-06   1.165396929e-08
         5.35e-06   1.165752536e-08
         5.36e-06   1.165735479e-08
         5.37e-06   1.165620405e-08
         5.38e-06   1.165554965e-08
         5.39e-06   1.165532963e-08
          5.4e-06   1.165758967e-08
         5.41e-06   1.165243962e-08
         5.42e-06   1.165191789e-08
         5.43e-06   1.165163219e-08
         5.44e-06   1.165063166e-08
         5.45e-06   1.165086083e-08
         5.46e-06   1.165531094e-08
         5.47e-06   1.165852741e-08
         5.48e-06   1.166116007e-08
         5.49e-06   1.166080958e-08
          5.5e-06   1.165643445e-08
         5.51e-06   1.164928758e-08
         5.52e-06   1.165129903e-08
         5.53e-06   1.165298766e-08
         5.54e-06   1.165307864e-08
         5.55e-06   1.165358635e-08
         5.56e-06   1.165510183e-08
         5.57e-06   1.165610182e-08
         5.58e-06   1.166203342e-08
         5.59e-06   1.166444526e-08
          5.6e-06   1.166360347e-08
         5.61e-06    1.16623683e-08
         5.62e-06   1.166783154e-08
         5.63e-06   1.166616475e-08
         5.64e-06   1.166625439e-08
         5.65e-06    1.16649752e-08
         5.66e-06   1.166370631e-08
         5.67e-06   1.166207277e-08
         5.68e-06   1.167111635e-08
         5.69e-06   1.167447588e-08
          5.7e-06     1.1675172e-08
         5.71e-06   1.167430865e-08
         5.72e-06   1.167408999e-08
         5.73e-06   1.167359593e-08
         5.74e-06   1.167522639e-08
         5.75e-06   1.167623781e-08
         5.76e-06   1.167015592e-08
         5.77e-06   1.166921781e-08
         5.78e-06   1.166995849e-08
         5.79e-06   1.166431468e-08
          5.8e-06   1.166920387e-08
         5.81e-06   1.166711472e-08
         5.82e-06    1.16702207e-08
         5.83e-06   1.166760441e-08
         5.84e-06   1.166635659e-08
         5.85e-06   1.166923668e-08
         5.86e-06   1.166886315e-08
         5.87e-06   1.166754718e-08
         5.88e-06   1.167291848e-08
         5.89e-06   1.167549119e-08
          5.9e-06   1.167413297e-08
         5.91e-06   1.167609136e-08
         5.92e-06    1.16763342e-08
         5.93e-06   1.167375842e-08
         5.94e-06   1.167165787e-08
         5.95e-06   1.167462124e-08
         5.96e-06    1.16760912e-08
         5.97e-06   1.168214207e-08
         5.98e-06   1.168452729e-08
         5.99e-06    1.16793865e-08
            6e-06   1.167875402e-08
         6.01e-06   1.167856686e-08
         6.02e-06   1.167870802e-08
         6.03e-06   1.167801544e-08
         6.04e-06   1.167799851e-08
         6.05e-06   1.168193035e-08
         6.06e-06   1.168141051e-08
         6.07e-06    1.16800123e-08
         6.08e-06   1.168086437e-08
         6.09e-06   1.167717899e-08
          6.1e-06   1.167877879e-08
         6.11e-06   1.167374989e-08
         6.12e-06   1.166860511e-08
         6.13e-06   1.166766914e-08
         6.14e-06   1.166760045e-08
         6.15e-06   1.167329363e-08
         6.16e-06   1.167823631e-08
         6.17e-06    1.16792979e-08
         6.18e-06   1.168013595e-08
         6.19e-06   1.167992096e-08
          6.2e-06   1.168039879e-08
         6.21e-06   1.168185292e-08
         6.22e-06   1.168478068e-08
         6.23e-06   1.168330222e-08
         6.24e-06    1.16831767e-08
         6.25e-06    1.16756655e-08
         6.26e-06    1.16769266e-08
         6.27e-06   1.168124832e-08
         6.28e-06   1.167882178e-08
         6.29e-06   1.168539185e-08
          6.3e-06   1.168495891e-08
         6.31e-06   1.168717643e-08
         6.32e-06   1.168725662e-08
         6.33e-06   1.168646961e-08
         6.34e-06   1.168755741e-08
         6.35e-06   1.168630263e-08
         6.36e-06   1.168816746e-08
         6.37e-06   1.169189262e-08
         6.38e-06   1.169483366e-08
         6.39e-06   1.169121837e-08
          6.4e-06   1.169099125e-08
         6.41e-06   1.169438275e-08
         6.42e-06   1.169666295e-08
         6.43e-06   1.169719723e-08
         6.44e-06   1.169081107e-08
         6.45e-06   1.169193256e-08
         6.46e-06   1.169647731e-08
         6.47e-06    1.16961302e-08
         6.48e-06   1.170098609e-08
         6.49e-06   1.169974221e-08
          6.5e-06   1.169633187e-08
         6.51e-06   1.169737188e-08
         6.52e-06   1.169276486e-08
         6.53e-06   1.169092137e-08
         6.54e-06   1.168896988e-08
         6.55e-06   1.168725895e-08
         6.56e-06   1.168703817e-08
         6.57e-06   1.168079827e-08
         6.58e-06   1.168350875e-08
         6.59e-06   1.168334973e-08
          6.6e-06   1.168732048e-08
         6.61e-06   1.169146358e-08
         6.62e-06   1.169825802e-08
         6.63e-06   1.169926341e-08
         6.64e-06   1.170019364e-08
         6.65e-06   1.170380707e-08
         6.66e-06   1.170622271e-08
         6.67e-06   1.169984535e-08
         6.68e-06   1.170381149e-08
         6.69e-06   1.170260401e-08
          6.7e-06   1.170287328e-08
         6.71e-06    1.17042492e-08
         6.72e-06   1.170373973e-08
         6.73e-06   1.169964431e-08
         6.74e-06   1.169719257e-08
         6.75e-06    1.16947857e-08
         6.76e-06     1.1692381e-08
         6.77e-06   1.169442112e-08
         6.78e-06   1.169717047e-08
         6.79e-06   1.170213507e-08
          6.8e-06   1.170156373e-08
         6.81e-06    1.17045776e-08
         6.82e-06   1.170608131e-08
         6.83e-06   1.170708876e-08
         6.84e-06   1.170749577e-08
         6.85e-06   1.170407196e-08
         6.86e-06    1.17045668e-08
         6.87e-06   1.170442981e-08
         6.88e-06   1.170281469e-08
         6.89e-06   1.170457069e-08
          6.9e-06   1.170946729e-08
         6.91e-06   1.170739912e-08
         6.92e-06   1.170641959e-08
         6.93e-06   1.171037424e-08
         6.94e-06   1.171266367e-08
         6.95e-06   1.171729706e-08
         6.96e-06   1.171585034e-08
         6.97e-06   1.171462831e-08
         6.98e-06   1.171227623e-08
         6.99e-06   1.170866428e-08
            7e-06   1.170818389e-08
         7.01e-06   1.171489031e-08
         7.02e-06    1.17168349e-08
         7.03e-06   1.171472688e-08
         7.04e-06   1.171553172e-08
         7.05e-06   1.171131377e-08
         7.06e-06   1.170771748e-08
         7.07e-06   1.170855288e-08
         7.08e-06   1.170927577e-08
         7.09e-06   1.171129308e-08
          7.1e-06   1.170871696e-08
         7.11e-06   1.170960972e-08
         7.12e-06   1.171113536e-08
         7.13e-06   1.171018759e-08
         7.14e-06   1.170718499e-08
         7.15e-06   1.171334025e-08
         7.16e-06   1.171085927e-08
         7.17e-06   1.171546102e-08
         7.18e-06   1.171758965e-08
         7.19e-06   1.171775968e-08
          7.2e-06   1.171920376e-08
         7.21e-06   1.171898298e-08
         7.22e-06   1.171562683e-08
         7.23e-06   1.171545754e-08
         7.24e-06   1.171322779e-08
         7.25e-06   1.171544308e-08
         7.26e-06   1.171721244e-08
         7.27e-06   1.172127357e-08
         7.28e-06   1.172059155e-08
         7.29e-06   1.172148052e-08
          7.3e-06   1.171924987e-08
         7.31e-06   1.171616511e-08
         7.32e-06   1.171754375e-08
         7.33e-06   1.171564442e-08
         7.34e-06   1.171201971e-08
         7.35e-06   1.171569394e-08
         7.36e-06   1.171661417e-08
         7.37e-06   1.171461387e-08
         7.38e-06   1.171530173e-08
         7.39e-06   1.171659773e-08
          7.4e-06   1.171845577e-08
         7.41e-06   1.171759179e-08
         7.42e-06   1.171821569e-08
         7.43e-06   1.172052813e-08
         7.44e-06   1.172091591e-08
         7.45e-06   1.172189225e-08
         7.46e-06    1.17211893e-08
         7.47e-06   1.172196215e-08
         7.48e-06   1.171684093e-08
         7.49e-06    1.17226849e-08
          7.5e-06   1.172298252e-08
         7.51e-06   1.172229915e-08
         7.52e-06   1.172414315e-08
         7.53e-06   1.172637124e-08
         7.54e-06   1.172923985e-08
         7.55e-06   1.172960902e-08
         7.56e-06   1.173018155e-08
         7.57e-06   1.172788844e-08
         7.58e-06   1.172338133e-08
         7.59e-06   1.172103597e-08
          7.6e-06   1.171997671e-08
         7.61e-06   1.172158318e-08
         7.62e-06   1.172363615e-08
         7.63e-06   1.172461319e-08
         7.64e-06   1.172331663e-08
         7.65e-06   1.172226991e-08
         7.66e-06   1.172311309e-08
         7.67e-06   1.172235919e-08
         7.68e-06   1.172480577e-08
         7.69e-06   1.172775965e-08
          7.7e-06    1.17299878e-08
         7.71e-06    1.17338488e-08
         7.72e-06    1.17322171e-08
         7.73e-06    1.17341614e-08
         7.74e-06   1.173390015e-08
         7.75e-06   1.173042945e-08
         7.76e-06   1.173137681e-08
         7.77e-06   1.173101244e-08
         7.78e-06   1.172352248e-08
         7.79e-06   1.172969374e-08
          7.8e-06   1.172851796e-08
         7.81e-06   1.172419177e-08
         7.82e-06   1.172392059e-08
         7.83e-06   1.172533468e-08
         7.84e-06   1.173007524e-08
         7.85e-06   1.173036979e-08
         7.86e-06   1.173136223e-08
         7.87e-06   1.172801752e-08
         7.88e-06   1.172782256e-08
         7.89e-06   1.172563169e-08
          7.9e-06   1.172671455e-08
         7.91e-06   1.173325426e-08
         7.92e-06   1.173012645e-08
         7.93e-06   1.173048402e-08
         7.94e-06   1.172972525e-08
         7.95e-06   1.172946046e-08
         7.96e-06   1.172741049e-08
         7.97e-06   1.172450436e-08
         7.98e-06   1.172374022e-08
         7.99e-06   1.172199665e-08
            8e-06   1.172234064e-08
         8.01e-06   1.172588333e-08
         8.02e-06   1.172551825e-08
         8.03e-06   1.172652731e-08
         8.04e-06    1.17290955e-08
         8.05e-06   1.172883202e-08
         8.06e-06   1.173262954e-08
         8.07e-06   1.173528193e-08
         8.08e-06   1.173754883e-08
         8.09e-06    1.17361046e-08
          8.1e-06   1.173419393e-08
         8.11e-06   1.172969965e-08
         8.12e-06   1.173138616e-08
         8.13e-06   1.173186743e-08
         8.14e-06   1.173165281e-08
         8.15e-06   1.173143761e-08
         8.16e-06   1.173432844e-08
         8.17e-06    1.17378221e-08
         8.18e-06   1.173617599e-08
         8.19e-06   1.173656747e-08
          8.2e-06   1.174158651e-08
         8.21e-06   1.174271533e-08
         8.22e-06   1.174616416e-08
         8.23e-06   1.174170699e-08
         8.24e-06   1.174448514e-08
         8.25e-06   1.174915866e-08
         8.26e-06   1.174881047e-08
         8.27e-06    1.17460695e-08
         8.28e-06   1.174463991e-08
         8.29e-06   1.174412779e-08
          8.3e-06   1.174169289e-08
         8.31e-06   1.174032006e-08