# Probe 0 (5e-06 5e-06 5e-06)
#           Probe                 0
#            Time
            1e-08       9868.784902
            2e-08        9797.64726
            3e-08       9719.139677
            4e-08       9663.336691
            5e-08       9589.368812
            6e-08       9540.981988
            7e-08        9495.03862
            8e-08       9451.809424
            9e-08       9400.831638
            1e-07       9361.303127
          1.1e-07       9319.492031
          1.2e-07       9276.768885
          1.3e-07       9240.229699
          1.4e-07       9209.858668
          1.5e-07       9186.868381
          1.6e-07       9156.758661
          1.7e-07       9126.285194
          1.8e-07       9102.971546
          1.9e-07       9082.711246
            2e-07       9061.369273
          2.1e-07       9035.796223
          2.2e-07       9016.065569
          2.3e-07        8999.24284
          2.4e-07       8977.565855
          2.5e-07       8957.322899
          2.6e-07        8941.18597
          2.7e-07       8921.999494
          2.8e-07       8905.297181
          2.9e-07       8884.125512
            3e-07       8869.828662
          3.1e-07       8845.724536
          3.2e-07       8830.759546
          3.3e-07       8811.818668
          3.4e-07       8799.370825
          3.5e-07       8780.011565
          3.6e-07       8767.962202
          3.7e-07       8753.709705
          3.8e-07       8745.776962
          3.9e-07       8733.336079
            4e-07       8721.081686
          4.1e-07       8711.698696
          4.2e-07       8701.588784
          4.3e-07       8691.316793
          4.4e-07        8679.34829
          4.5e-07       8663.752596
          4.6e-07        8654.84995
          4.7e-07       8646.500786
          4.8e-07        8636.27139
          4.9e-07       8626.171316
            5e-07       8616.549129
          5.1e-07       8607.579771
          5.2e-07       8594.301585
          5.3e-07       8589.682641
          5.4e-07       8578.310226
          5.5e-07       8571.441257
          5.6e-07       8565.693962
          5.7e-07       8556.241554
          5.8e-07       8546.520171
          5.9e-07       8538.565651
            6e-07       8533.266583
          6.1e-07       8527.499868
          6.2e-07       8518.984376
          6.3e-07       8511.200995
          6.4e-07       8503.495944
          6.5e-07       8498.157825
          6.6e-07       8488.990742
          6.7e-07       8481.008926
          6.8e-07       8473.565504
          6.9e-07       8465.008759
            7e-07       8456.434769
          7.1e-07       8450.166874
          7.2e-07       8440.928731
          7.3e-07       8434.386873
          7.4e-07       8426.042939
          7.5e-07       8418.568983
          7.6e-07       8412.880764
          7.7e-07        8407.62746
          7.8e-07       8400.908883
          7.9e-07       8397.067534
            8e-07       8391.212171
          8.1e-07       8383.620174
          8.2e-07        8377.06997
          8.3e-07       8373.002663
          8.4e-07       8365.816825
          8.5e-07       8362.074191
          8.6e-07       8355.100711
          8.7e-07       8348.204853
          8.8e-07         8343.3447
          8.9e-07       8337.833885
            9e-07       8333.792485
          9.1e-07       8330.814357
          9.2e-07       8327.693317
          9.3e-07        8322.68203
          9.4e-07       8317.048339
          9.5e-07       8312.138409
          9.6e-07       8307.376859
          9.7e-07       8301.508735
          9.8e-07       8296.783263
          9.9e-07       8291.962664
            1e-06       8287.327019
         1.01e-06        8284.11603
         1.02e-06       8281.073429
         1.03e-06       8276.119008
         1.04e-06       8271.065569
         1.05e-06       8269.835869
         1.06e-06       8266.351443
         1.07e-06       8262.920796
         1.08e-06        8258.54718
         1.09e-06       8256.026112
          1.1e-06       8253.524761
         1.11e-06       8250.677213
         1.12e-06       8246.854523
         1.13e-06       8243.804609
         1.14e-06       8240.595751
         1.15e-06        8237.75028
         1.16e-06         8234.2927
         1.17e-06       8231.619562
         1.18e-06       8228.699493
         1.19e-06        8225.81556
          1.2e-06       8223.650265
         1.21e-06       8220.302448
         1.22e-06       8218.645934
         1.23e-06       8214.896845
         1.24e-06       8211.544347
         1.25e-06        8209.60728
         1.26e-06       8206.199221
         1.27e-06       8202.338041
         1.28e-06       8200.084843
         1.29e-06       8197.078544
          1.3e-06        8193.74975
         1.31e-06        8189.62462
         1.32e-06       8185.909055
         1.33e-06        8183.40203
         1.34e-06       8178.927385
         1.35e-06       8175.622539
         1.36e-06       8171.475819
         1.37e-06       8167.685521
         1.38e-06       8164.680448
         1.39e-06       8161.495231
          1.4e-06       8158.438441
         1.41e-06       8155.838943
         1.42e-06       8152.302723
         1.43e-06       8149.542839
         1.44e-06       8147.660663
         1.45e-06       8144.477239
         1.46e-06        8143.10476
         1.47e-06       8139.969044
         1.48e-06       8137.584851
         1.49e-06       8133.846702
          1.5e-06       8129.615431
         1.51e-06       8127.347359
         1.52e-06       8123.929554
         1.53e-06       8122.100709
         1.54e-06       8119.613228
         1.55e-06       8116.671428
         1.56e-06       8114.217955
         1.57e-06       8112.437273
         1.58e-06       8109.202672
         1.59e-06       8107.397028
          1.6e-06       8104.604913
         1.61e-06       8101.971365
         1.62e-06       8099.391742
         1.63e-06       8097.799631
         1.64e-06       8096.889755
         1.65e-06       8095.972013
         1.66e-06       8093.829666
         1.67e-06       8090.850373
         1.68e-06       8086.557071
         1.69e-06       8084.792768
          1.7e-06       8082.953768
         1.71e-06       8080.752852
         1.72e-06        8078.09177
         1.73e-06       8075.245371
         1.74e-06       8073.779971
         1.75e-06       8071.676278
         1.76e-06       8070.135155
         1.77e-06       8069.307397
         1.78e-06       8067.311799
         1.79e-06       8064.616525
          1.8e-06       8062.017222
         1.81e-06       8059.894035
         1.82e-06       8057.776108
         1.83e-06       8055.318245
         1.84e-06       8052.682712
         1.85e-06       8050.181131
         1.86e-06       8049.163562
         1.87e-06       8047.421468
         1.88e-06        8046.16388
         1.89e-06        8044.21963
          1.9e-06       8042.586668
         1.91e-06       8040.913616
         1.92e-06       8040.083384
         1.93e-06        8038.97975
         1.94e-06       8037.258904
         1.95e-06       8035.915316
         1.96e-06       8034.655653
         1.97e-06       8032.964033
         1.98e-06       8031.928623
         1.99e-06       8031.223047
            2e-06       8028.196137
         2.01e-06       8025.916225
         2.02e-06        8024.23085
         2.03e-06       8021.415945
         2.04e-06       8019.193503
         2.05e-06       8016.996572
         2.06e-06       8014.859934
         2.07e-06       8012.649133
         2.08e-06       8011.248062
         2.09e-06        8009.73051
          2.1e-06       8007.384226
         2.11e-06       8005.795878
         2.12e-06       8003.605593
         2.13e-06       8002.160064
         2.14e-06        7999.99975
         2.15e-06        7998.13665
         2.16e-06       7997.592098
         2.17e-06       7996.023717
         2.18e-06       7993.956428
         2.19e-06       7992.213859
          2.2e-06       7990.892248
         2.21e-06       7989.784825
         2.22e-06       7988.049003
         2.23e-06       7986.214225
         2.24e-06       7985.342011
         2.25e-06       7984.189347
         2.26e-06       7982.396731
         2.27e-06       7980.810792
         2.28e-06       7979.380281
         2.29e-06       7978.510947
          2.3e-06       7977.376533
         2.31e-06       7976.151135
         2.32e-06       7974.722997
         2.33e-06       7973.490828
         2.34e-06       7971.528251
         2.35e-06       7970.020326
         2.36e-06       7969.202504
         2.37e-06       7967.408657
         2.38e-06       7966.686282
         2.39e-06       7966.036467
          2.4e-06       7965.081897
         2.41e-06       7963.288848
         2.42e-06       7962.105004
         2.43e-06       7960.986328
         2.44e-06       7958.813657
         2.45e-06       7956.990886
         2.46e-06       7955.868782
         2.47e-06       7954.305971
         2.48e-06        7952.65801
         2.49e-06        7952.07922
          2.5e-06       7951.083541
         2.51e-06       7950.084222
         2.52e-06       7948.277358
         2.53e-06       7946.847401
         2.54e-06       7945.133439
         2.55e-06       7943.989219
         2.56e-06       7942.938225
         2.57e-06       7941.683682
         2.58e-06       7940.611853
         2.59e-06       7939.770654
          2.6e-06       7938.599717
         2.61e-06       7938.915897
         2.62e-06       7937.930554
         2.63e-06       7936.603498
         2.64e-06       7936.017806
         2.65e-06       7934.485252
         2.66e-06       7933.629208
         2.67e-06       7932.987519
         2.68e-06       7932.035322
         2.69e-06       7930.927032
          2.7e-06       7929.182932
         2.71e-06       7927.463433
         2.72e-06        7926.61695
         2.73e-06       7925.539885
         2.74e-06       7924.933871
         2.75e-06        7923.91285
         2.76e-06       7922.640136
         2.77e-06       7921.423854
         2.78e-06       7920.274844
         2.79e-06       7918.812486
          2.8e-06       7918.053197
         2.81e-06       7916.942751
         2.82e-06       7915.878402
         2.83e-06       7914.974364
         2.84e-06       7913.960554
         2.85e-06       7912.754999
         2.86e-06       7911.400257
         2.87e-06       7910.461683
         2.88e-06       7909.518466
         2.89e-06       7908.212819
          2.9e-06       7906.917096
         2.91e-06       7904.876598
         2.92e-06       7903.994647
         2.93e-06       7902.627512
         2.94e-06       7901.190872
         2.95e-06       7899.999163
         2.96e-06       7899.891369
         2.97e-06       7899.225257
         2.98e-06       7898.470341
         2.99e-06        7897.65797
            3e-06       7896.118547
         3.01e-06       7895.508024
         3.02e-06       7894.987824
         3.03e-06       7894.297923
         3.04e-06       7893.951577
         3.05e-06       7892.743447
         3.06e-06       7892.191857
         3.07e-06        7891.68758
         3.08e-06       7890.485809
         3.09e-06        7890.38725
          3.1e-06       7889.522834
         3.11e-06       7888.887612
         3.12e-06       7887.800131
         3.13e-06       7887.038045
         3.14e-06       7886.605451
         3.15e-06       7885.195741
         3.16e-06       7884.715171
         3.17e-06       7883.961846
         3.18e-06       7882.685761
         3.19e-06       7881.960065
          3.2e-06       7880.865275
         3.21e-06       7880.828249
         3.22e-06       7879.651706
         3.23e-06       7878.589097
         3.24e-06       7878.209273
         3.25e-06        7877.85096
         3.26e-06       7877.535789
         3.27e-06       7876.642099
         3.28e-06       7876.211656
         3.29e-06       7875.853536
          3.3e-06       7874.428215
         3.31e-06       7872.844529
         3.32e-06       7871.767618
         3.33e-06       7870.837508
         3.34e-06       7869.512253
         3.35e-06        7868.54213
         3.36e-06       7867.933119
         3.37e-06       7866.422927
         3.38e-06       7865.933793
         3.39e-06        7865.50896
          3.4e-06       7864.688457
         3.41e-06       7863.480969
         3.42e-06       7862.628058
         3.43e-06       7860.867463
         3.44e-06        7860.19808
         3.45e-06       7859.208148
         3.46e-06       7858.479628
         3.47e-06       7858.096565
         3.48e-06       7857.123034
         3.49e-06       7856.270674
          3.5e-06       7855.785114
         3.51e-06       7855.101039
         3.52e-06       7855.425555
         3.53e-06       7854.225327
         3.54e-06       7853.796249
         3.55e-06       7852.900433
         3.56e-06       7852.263912
         3.57e-06        7851.61689
         3.58e-06       7850.937207
         3.59e-06       7849.974591
          3.6e-06       7849.301706
         3.61e-06       7848.670059
         3.62e-06       7848.229292
         3.63e-06        7847.58525
         3.64e-06       7847.300865
         3.65e-06       7846.209082
         3.66e-06       7845.604491
         3.67e-06       7845.047018
         3.68e-06       7843.182521
         3.69e-06        7843.17574
          3.7e-06        7842.32194
         3.71e-06       7841.614741
         3.72e-06        7841.41071
         3.73e-06       7841.229091
         3.74e-06       7840.545261
         3.75e-06       7840.397245
         3.76e-06       7839.148784
         3.77e-06       7838.256036
         3.78e-06       7837.649042
         3.79e-06       7836.708185
          3.8e-06       7835.575572
         3.81e-06       7834.144222
         3.82e-06        7833.27345
         3.83e-06       7832.806694
         3.84e-06       7832.165037
         3.85e-06       7831.737243
         3.86e-06       7831.047236
         3.87e-06        7829.97892
         3.88e-06        7829.27342
         3.89e-06       7828.390495
          3.9e-06       7827.551693
         3.91e-06       7826.719249
         3.92e-06       7825.939721
         3.93e-06        7825.44914
         3.94e-06       7824.900492
         3.95e-06       7824.692402
         3.96e-06       7823.886723
         3.97e-06       7823.529995
         3.98e-06       7822.254324
         3.99e-06       7822.001511
            4e-06       7821.252917
         4.01e-06       7820.129572
         4.02e-06       7819.828848
         4.03e-06       7819.793763
         4.04e-06       7819.455795
         4.05e-06       7819.294172
         4.06e-06       7819.297521
         4.07e-06       7818.541344
         4.08e-06       7817.614328
         4.09e-06       7817.069121
          4.1e-06       7816.990243
         4.11e-06       7816.674082
         4.12e-06       7815.946593
         4.13e-06       7815.167315
         4.14e-06       7814.855579
         4.15e-06       7814.073504
         4.16e-06       7813.869533
         4.17e-06        7813.34126
         4.18e-06       7812.640013
         4.19e-06       7811.423821
          4.2e-06       7811.105369
         4.21e-06       7810.640423
         4.22e-06       7810.425284
         4.23e-06       7809.458736
         4.24e-06       7809.270362
         4.25e-06       7808.647944
         4.26e-06       7807.355474
         4.27e-06       7806.903416
         4.28e-06       7806.075354
         4.29e-06       7805.857812
          4.3e-06        7805.12242
         4.31e-06       7804.436903
         4.32e-06       7803.488887
         4.33e-06        7803.76879
         4.34e-06       7802.935961
         4.35e-06       7803.074461
         4.36e-06        7802.44363
         4.37e-06       7801.235027
         4.38e-06       7801.087512
         4.39e-06       7800.912523
          4.4e-06       7799.888504
         4.41e-06       7799.934403
         4.42e-06       7799.459208
         4.43e-06       7799.013382
         4.44e-06       7798.289874
         4.45e-06       7797.595492
         4.46e-06       7797.335068
         4.47e-06       7796.358475
         4.48e-06        7795.86376
         4.49e-06       7795.210625
          4.5e-06       7795.120579
         4.51e-06       7794.838544
         4.52e-06       7794.578928
         4.53e-06        7793.99265
         4.54e-06       7793.931644
         4.55e-06       7794.135079
         4.56e-06       7793.324477
         4.57e-06       7792.757842
         4.58e-06        7792.22411
         4.59e-06       7791.994476
          4.6e-06       7791.777672
         4.61e-06       7791.413713
         4.62e-06       7790.535658
         4.63e-06       7789.923469
         4.64e-06        7789.65702
         4.65e-06       7789.594327
         4.66e-06       7789.256972
         4.67e-06       7788.103819
         4.68e-06       7787.223441
         4.69e-06       7787.205436
          4.7e-06       7786.433829
         4.71e-06       7786.341219
         4.72e-06       7785.844553
         4.73e-06       7785.655218
         4.74e-06       7785.380772
         4.75e-06       7784.722663
         4.76e-06       7783.680038
         4.77e-06       7783.635813
         4.78e-06       7783.162731
         4.79e-06       7783.193324
          4.8e-06       7783.046582
         4.81e-06       7782.382082
         4.82e-06       7781.986245
         4.83e-06       7781.575432
         4.84e-06       7781.052603
         4.85e-06       7781.001882
         4.86e-06       7780.305996
         4.87e-06       7779.707086
         4.88e-06       7779.475272
         4.89e-06        7779.09907
          4.9e-06       7778.972748
         4.91e-06       7778.805641
         4.92e-06       7778.325674
         4.93e-06       7778.250495
         4.94e-06       7777.773508
         4.95e-06       7777.283297
         4.96e-06       7777.054745
         4.97e-06       7776.479939
         4.98e-06       7775.712984
         4.99e-06       7775.340835
            5e-06       7774.511188
         5.01e-06       7773.816082
         5.02e-06       7773.884577
         5.03e-06        7773.25867
         5.04e-06       7772.582419
         5.05e-06       7772.322171
         5.06e-06       7772.482599
         5.07e-06       7772.154552
         5.08e-06       7771.843447
         5.09e-06        7771.62062
          5.1e-06       7771.537359
         5.11e-06       7770.834717
         5.12e-06        7770.72273
         5.13e-06        7770.40603
         5.14e-06       7770.542119
         5.15e-06       7770.335803
         5.16e-06       7770.058607
         5.17e-06       7769.889079
         5.18e-06       7769.631195
         5.19e-06        7769.27125
          5.2e-06       7769.010377
         5.21e-06       7768.544583
         5.22e-06       7768.149639
         5.23e-06       7767.280473
         5.24e-06       7766.554715
         5.25e-06       7766.146771
         5.26e-06       7765.782511
         5.27e-06       7765.049249
         5.28e-06        7764.64823
         5.29e-06       7764.473875
          5.3e-06       7764.374753
         5.31e-06       7764.342943
         5.32e-06       7764.114933
         5.33e-06       7763.205275
         5.34e-06       7762.624342
         5.35e-06       7762.076131
         5.36e-06       7762.187479
         5.37e-06       7761.368021
         5.38e-06       7760.919275
         5.39e-06       7760.856458
          5.4e-06        7760.85495
         5.41e-06       7760.392262
         5.42e-06       7759.620532
         5.43e-06       7758.829972
         5.44e-06       7758.433978
         5.45e-06       7758.594086
         5.46e-06         7757.7631
         5.47e-06       7757.682414
         5.48e-06       7757.488004
         5.49e-06       7756.810592
          5.5e-06        7756.41927
         5.51e-06       7755.931014
         5.52e-06        7755.24421
         5.53e-06       7755.009682
         5.54e-06       7754.017625
         5.55e-06       7753.779082
         5.56e-06       7753.387673
         5.57e-06       7752.669322
         5.58e-06        7752.61975
         5.59e-06       7752.445342
          5.6e-06       7752.293683
         5.61e-06       7752.546168
         5.62e-06       7752.414241
         5.63e-06       7752.168502
         5.64e-06       7752.086322
         5.65e-06       7752.009979
         5.66e-06       7751.732502
         5.67e-06       7751.901104
         5.68e-06       7751.991959
         5.69e-06       7752.281926
          5.7e-06       7752.067696
         5.71e-06       7751.802226
         5.72e-06       7750.961523
         5.73e-06       7750.876012
         5.74e-06       7751.255957
         5.75e-06       7751.138859
         5.76e-06        7750.34496
         5.77e-06       7750.014669
         5.78e-06       7749.705695
         5.79e-06       7749.152198
          5.8e-06       7748.778154
         5.81e-06       7748.652892
         5.82e-06       7748.462977
         5.83e-06       7748.159158
         5.84e-06       7748.148406
         5.85e-06       7747.762257
         5.86e-06       7747.017079
         5.87e-06       7747.208037
         5.88e-06       7747.346651
         5.89e-06       7747.034891
          5.9e-06       7746.539557
         5.91e-06        7746.51717
         5.92e-06       7746.230888
         5.93e-06       7745.891934
         5.94e-06       7745.659231
         5.95e-06        7744.83416
         5.96e-06       7744.895448
         5.97e-06       7744.414387
         5.98e-06       7744.144129
         5.99e-06       7743.610084
            6e-06       7743.582822
         6.01e-06       7742.980418
         6.02e-06        7742.54491
         6.03e-06       7742.446774
         6.04e-06       7741.608804
         6.05e-06       7741.822025
         6.06e-06       7741.445864
         6.07e-06       7741.473872
         6.08e-06       7741.419334
         6.09e-06       7741.141892
          6.1e-06       7740.935887
         6.11e-06       7740.929748
         6.12e-06       7740.561399
         6.13e-06        7740.06417
         6.14e-06       7740.015974
         6.15e-06       7739.922153
         6.16e-06       7740.130627
         6.17e-06       7739.642391
         6.18e-06       7739.753578
         6.19e-06        7739.02228
          6.2e-06       7738.713047
         6.21e-06       7738.044045
         6.22e-06       7737.703441
         6.23e-06       7737.719647
         6.24e-06       7737.612841
         6.25e-06       7737.627037
         6.26e-06       7737.118172
         6.27e-06       7736.845631
         6.28e-06       7736.386273
         6.29e-06       7736.182853
          6.3e-06       7736.216152
         6.31e-06       7735.623262
         6.32e-06        7735.32904
         6.33e-06       7734.977772
         6.34e-06       7734.724172
         6.35e-06       7734.793915
         6.36e-06       7734.530706
         6.37e-06       7734.142524
         6.38e-06       7734.066669
         6.39e-06       7733.928053
          6.4e-06       7733.972583
         6.41e-06       7732.976861
         6.42e-06       7732.525249
         6.43e-06       7732.651641
         6.44e-06       7732.420232
         6.45e-06       7732.378923
         6.46e-06       7731.953339
         6.47e-06       7731.698383
         6.48e-06       7731.875157
         6.49e-06       7731.915272
          6.5e-06       7731.379232
         6.51e-06       7730.800809
         6.52e-06       7730.751327
         6.53e-06       7730.492611
         6.54e-06       7730.073288
         6.55e-06       7729.523831
         6.56e-06       7729.250963
         6.57e-06       7728.947548
         6.58e-06       7728.776937
         6.59e-06       7727.988934
          6.6e-06       7727.665016
         6.61e-06       7727.343495
         6.62e-06       7727.206163
         6.63e-06       7727.193713
         6.64e-06       7727.019774
         6.65e-06       7727.353152
         6.66e-06       7726.995715
         6.67e-06       7726.357808
         6.68e-06        7725.49915
         6.69e-06       7725.316765
          6.7e-06       7724.835761
         6.71e-06       7724.455158
         6.72e-06       7724.596504
         6.73e-06       7724.404534
         6.74e-06       7724.355027
         6.75e-06       7724.103403
         6.76e-06       7724.314937
         6.77e-06       7724.011156
         6.78e-06       7723.652773
         6.79e-06       7723.479214
          6.8e-06       7723.802332
         6.81e-06       7723.935349
         6.82e-06       7723.946408
         6.83e-06       7723.496831
         6.84e-06       7723.379362
         6.85e-06       7722.751634
         6.86e-06       7722.892547
         6.87e-06       7722.824364
         6.88e-06       7722.535523
         6.89e-06       7722.323398
          6.9e-06        7721.88984
         6.91e-06       7721.572969
         6.92e-06       7721.180965
         6.93e-06       7721.280067
         6.94e-06       7720.989495
         6.95e-06       7720.684096
         6.96e-06       7719.876308
         6.97e-06       7719.724301
         6.98e-06       7719.499265
         6.99e-06       7719.358487
            7e-06       7718.941019
         7.01e-06       7718.780931
         7.02e-06       7718.862776
         7.03e-06       7718.861832
         7.04e-06       7719.202057
         7.05e-06       7719.123812
         7.06e-06       7718.959555
         7.07e-06       7718.568662
         7.08e-06       7717.699492
         7.09e-06       7717.551988
          7.1e-06       7717.687225
         7.11e-06       7717.270822
         7.12e-06       7716.596005
         7.13e-06       7716.537467
         7.14e-06       7715.998249
         7.15e-06        7715.88218
         7.16e-06       7715.465739
         7.17e-06       7715.429671
         7.18e-06       7715.446942
         7.19e-06       7715.540167
          7.2e-06       7715.323002
         7.21e-06       7714.984337
         7.22e-06         7714.9258
         7.23e-06       7714.898681
         7.24e-06       7714.940668
         7.25e-06       7715.103346
         7.26e-06       7714.416678
         7.27e-06       7713.894657
         7.28e-06       7713.697328
         7.29e-06       7713.793513
          7.3e-06        7713.39104
         7.31e-06       7712.996716
         7.32e-06       7712.468047
         7.33e-06       7712.083098
         7.34e-06       7712.476378
         7.35e-06       7712.165321
         7.36e-06       7712.119722
         7.37e-06       7711.492262
         7.38e-06       7711.284216
         7.39e-06        7711.23879
          7.4e-06       7711.339838
         7.41e-06       7711.145876
         7.42e-06       7711.071327
         7.43e-06       7710.944718
         7.44e-06       7711.128481
         7.45e-06       7711.128466
         7.46e-06       7710.905678
         7.47e-06       7710.818325
         7.48e-06       7710.805316
         7.49e-06       7710.637247
          7.5e-06       7710.509741
         7.51e-06       7709.994496
         7.52e-06       7709.611892
         7.53e-06       7708.999121
         7.54e-06       7708.427326
         7.55e-06       7708.087373
         7.56e-06       7708.045383
         7.57e-06       7707.869581
         7.58e-06       7707.509151
         7.59e-06       7707.344156
          7.6e-06       7707.254745
         7.61e-06       7707.275562
         7.62e-06       7706.994212
         7.63e-06       7706.880366
         7.64e-06       7706.384071
         7.65e-06       7706.343272
         7.66e-06       7706.228522
         7.67e-06       7705.753019
         7.68e-06       7705.535992
         7.69e-06       7705.584202
          7.7e-06       7705.521814
         7.71e-06        7705.39305
         7.72e-06       7705.310075
         7.73e-06       7705.008524
         7.74e-06       7704.946205
         7.75e-06       7704.904467
         7.76e-06       7704.839854
         7.77e-06       7704.209265
         7.78e-06       7704.248519
         7.79e-06       7704.107046
          7.8e-06       7703.909369
         7.81e-06       7703.813967
         7.82e-06       7703.318104
         7.83e-06       7703.433473
         7.84e-06        7703.69502
         7.85e-06       7703.845085
         7.86e-06         7703.3973
         7.87e-06       7703.234273
         7.88e-06       7702.592175
         7.89e-06       7702.320538
          7.9e-06        7702.15103
         7.91e-06       7702.130623
         7.92e-06       7702.170086
         7.93e-06       7701.948806
         7.94e-06        7702.02227
         7.95e-06       7701.715268
         7.96e-06        7701.61742
         7.97e-06       7701.768807
         7.98e-06        7701.30099
         7.99e-06       7701.105267
            8e-06       7701.286934
         8.01e-06       7701.378667
         8.02e-06       7701.021042
         8.03e-06       7700.896833
         8.04e-06       7700.534232
         8.05e-06       7699.829919
         8.06e-06       7699.723906
         8.07e-06       7699.865474
         8.08e-06       7699.732992
         8.09e-06        7699.84537
          8.1e-06       7699.441461
         8.11e-06       7699.183735
         8.12e-06        7699.27272
         8.13e-06       7699.104346
         8.14e-06       7698.741495
         8.15e-06       7698.876719
         8.16e-06       7698.408108
         8.17e-06       7698.380122
         8.18e-06       7698.378949
         8.19e-06       7697.807843
          8.2e-06       7697.821101
         8.21e-06       7697.211435
         8.22e-06       7697.039661
         8.23e-06       7696.784692
         8.24e-06       7696.606213
         8.25e-06       7696.695042
         8.26e-06       7696.648883
         8.27e-06       7696.512745
         8.28e-06       7696.666919
         8.29e-06       7696.503759
          8.3e-06       7696.099712
         8.31e-06       7696.193617