# Probe 0 (5e-06 5e-06 5e-06)
#           Probe                 0
#            Time
            1e-08       9988.874918
            2e-08       9976.703135
            3e-08       9963.010812
            4e-08       9972.209663
            5e-08       9982.428294
            6e-08       9988.169049
            7e-08       9991.285252
            8e-08       9971.187703
            9e-08       9964.922465
            1e-07       9936.342777
          1.1e-07       9952.171726
          1.2e-07       9946.012649
          1.3e-07       9918.331375
          1.4e-07       9896.353186
          1.5e-07       9902.408315
          1.6e-07       9905.838624
          1.7e-07       9908.661122
          1.8e-07       9911.443923
          1.9e-07       9890.249339
            2e-07       9897.750791
          2.1e-07       9900.706623
          2.2e-07       9881.488838
          2.3e-07       9871.545452
          2.4e-07       9849.365928
          2.5e-07       9854.794984
          2.6e-07       9817.035611
          2.7e-07        9793.15932
          2.8e-07       9775.841968
          2.9e-07       9770.006585
            3e-07       9754.356686
          3.1e-07       9765.033243
          3.2e-07       9795.325181
          3.3e-07        9782.45571
          3.4e-07       9782.686576
          3.5e-07       9773.190658
          3.6e-07       9762.126281
          3.7e-07        9761.78359
          3.8e-07       9753.065247
          3.9e-07       9757.956087
            4e-07       9735.655502
          4.1e-07       9729.322305
          4.2e-07       9703.592907
          4.3e-07       9674.734632
          4.4e-07        9682.94493
          4.5e-07        9674.41826
          4.6e-07       9678.691134
          4.7e-07       9690.256787
          4.8e-07       9687.600251
          4.9e-07       9657.575006
            5e-07       9654.014822
          5.1e-07       9647.857547
          5.2e-07       9629.557859
          5.3e-07       9615.763621
          5.4e-07       9622.239408
          5.5e-07       9614.664794
          5.6e-07        9615.10386
          5.7e-07       9622.242128
          5.8e-07        9629.30911
          5.9e-07       9600.432375
            6e-07       9614.690321
          6.1e-07       9609.458425
          6.2e-07       9601.568546
          6.3e-07       9580.164966
          6.4e-07       9585.533849
          6.5e-07       9605.518486
          6.6e-07       9599.929334
          6.7e-07       9597.086116
          6.8e-07        9576.50907
          6.9e-07       9568.849432
            7e-07       9543.908837
          7.1e-07       9541.640709
          7.2e-07       9521.215048
          7.3e-07       9516.186543
          7.4e-07       9492.383479
          7.5e-07       9508.246263
          7.6e-07       9513.527723
          7.7e-07       9514.914592
          7.8e-07       9525.283363
          7.9e-07        9521.77803
            8e-07        9529.14431
          8.1e-07        9518.95359
          8.2e-07        9515.45953
          8.3e-07       9509.720298
          8.4e-07       9506.692539
          8.5e-07       9509.081205
          8.6e-07       9506.183899
          8.7e-07       9513.172348
          8.8e-07       9521.995556
          8.9e-07        9513.86478
            9e-07       9495.066153
          9.1e-07       9478.843611
          9.2e-07       9454.964711
          9.3e-07       9456.377122
          9.4e-07       9469.565087
          9.5e-07       9475.862466
          9.6e-07       9449.165246
          9.7e-07       9458.499666
          9.8e-07       9439.684452
          9.9e-07       9417.324445
            1e-06       9426.305918
         1.01e-06       9456.295479
         1.02e-06        9423.37526
         1.03e-06       9412.174853
         1.04e-06       9411.695548
         1.05e-06       9418.114772
         1.06e-06       9415.801908
         1.07e-06       9445.970946
         1.08e-06       9440.150926
         1.09e-06       9428.950016
          1.1e-06       9433.829379
         1.11e-06       9409.814325
         1.12e-06       9395.293713
         1.13e-06       9384.818915
         1.14e-06       9361.558905
         1.15e-06       9363.450434
         1.16e-06       9385.797959
         1.17e-06       9369.809719
         1.18e-06       9357.087259
         1.19e-06       9362.956127
          1.2e-06       9350.345474
         1.21e-06       9354.075507
         1.22e-06       9325.972386
         1.23e-06       9325.182754
         1.24e-06       9320.281004
         1.25e-06       9334.591323
         1.26e-06       9332.185965
         1.27e-06       9335.453819
         1.28e-06       9316.786442
         1.29e-06       9288.918375
          1.3e-06       9312.548336
         1.31e-06       9315.929053
         1.32e-06       9327.795719
         1.33e-06       9330.295518
         1.34e-06       9316.772458
         1.35e-06        9319.39664
         1.36e-06        9290.53588
         1.37e-06       9298.858461
         1.38e-06       9305.369137
         1.39e-06       9303.147236
          1.4e-06        9298.64713
         1.41e-06       9278.817141
         1.42e-06       9284.918039
         1.43e-06       9296.392201
         1.44e-06       9304.456815
         1.45e-06       9315.928081
         1.46e-06       9310.083614
         1.47e-06       9301.461019
         1.48e-06       9279.963507
         1.49e-06       9264.433935
          1.5e-06       9248.062681
         1.51e-06       9255.764953
         1.52e-06       9260.484372
         1.53e-06       9272.947194
         1.54e-06       9257.028337
         1.55e-06       9260.542933
         1.56e-06       9260.883799
         1.57e-06       9246.842824
         1.58e-06       9250.239109
         1.59e-06       9241.466504
          1.6e-06       9243.424241
         1.61e-06         9245.0657
         1.62e-06        9252.96757
         1.63e-06       9226.348524
         1.64e-06       9218.597534
         1.65e-06       9228.122332
         1.66e-06       9230.716867
         1.67e-06       9218.519581
         1.68e-06       9227.628614
         1.69e-06       9206.476072
          1.7e-06       9209.110203
         1.71e-06       9190.308295
         1.72e-06       9169.384447
         1.73e-06       9151.066709
         1.74e-06       9172.274592
         1.75e-06       9177.219735
         1.76e-06       9157.757042
         1.77e-06       9159.092219
         1.78e-06       9155.879836
         1.79e-06       9142.568429
          1.8e-06       9135.300274
         1.81e-06        9135.04779
         1.82e-06       9131.761935
         1.83e-06       9132.065013
         1.84e-06       9136.581359
         1.85e-06       9116.136993
         1.86e-06       9121.708373
         1.87e-06       9118.467458
         1.88e-06       9112.222794
         1.89e-06       9118.149704
          1.9e-06       9100.466435
         1.91e-06       9118.610947
         1.92e-06       9131.422385
         1.93e-06       9116.345941
         1.94e-06         9117.1816
         1.95e-06       9116.463838
         1.96e-06        9115.46027
         1.97e-06       9124.498149
         1.98e-06       9103.221811
         1.99e-06       9112.313091
            2e-06       9103.448351
         2.01e-06       9122.026167
         2.02e-06       9103.974973
         2.03e-06       9113.826432
         2.04e-06       9090.569583
         2.05e-06       9095.105994
         2.06e-06       9101.368052
         2.07e-06       9111.105735
         2.08e-06       9105.821728
         2.09e-06       9087.946134
          2.1e-06       9090.301149
         2.11e-06       9099.861575
         2.12e-06        9086.84995
         2.13e-06        9085.77809
         2.14e-06       9074.960942
         2.15e-06       9062.980971
         2.16e-06        9066.34184
         2.17e-06       9047.138073
         2.18e-06       9045.185581
         2.19e-06       9062.717237
          2.2e-06        9061.82274
         2.21e-06       9073.172216
         2.22e-06         9078.8908
         2.23e-06       9076.690975
         2.24e-06       9073.750177
         2.25e-06       9064.854522
         2.26e-06       9080.128869
         2.27e-06       9059.446201
         2.28e-06       9059.565468
         2.29e-06       9057.895009
          2.3e-06       9031.370627
         2.31e-06       9034.002345
         2.32e-06       9020.583327
         2.33e-06       9014.699701
         2.34e-06       9006.541358
         2.35e-06       9003.591885
         2.36e-06       9014.367652
         2.37e-06       9013.142588
         2.38e-06        9038.03574
         2.39e-06       9038.235718
          2.4e-06       9027.230789
         2.41e-06       9014.922794
         2.42e-06       9019.142146
         2.43e-06        9007.24989
         2.44e-06       9005.766895
         2.45e-06       9008.502721
         2.46e-06        9010.20096
         2.47e-06       9001.835916
         2.48e-06       8994.576323
         2.49e-06       8985.993112
          2.5e-06       8994.103485
         2.51e-06       8986.900041
         2.52e-06       9008.365626
         2.53e-06        8985.65682
         2.54e-06       8993.125429
         2.55e-06       8961.318633
         2.56e-06        8956.20725
         2.57e-06       8970.187758
         2.58e-06       8987.081861
         2.59e-06       8984.651952
          2.6e-06       8986.254547
         2.61e-06       8984.679023
         2.62e-06       8975.677617
         2.63e-06       8978.594689
         2.64e-06       8964.725951
         2.65e-06       8955.458003
         2.66e-06         8948.3705
         2.67e-06       8941.617963
         2.68e-06       8945.986633
         2.69e-06       8957.827139
          2.7e-06       8966.120015
         2.71e-06       8979.811964
         2.72e-06       8969.811036
         2.73e-06       8960.494332
         2.74e-06       8962.753169
         2.75e-06        8948.85947
         2.76e-06       8937.120045
         2.77e-06       8937.869381
         2.78e-06       8905.133113
         2.79e-06       8902.852463
          2.8e-06       8914.206478
         2.81e-06       8923.685575
         2.82e-06       8941.799349
         2.83e-06       8948.097758
         2.84e-06       8926.483827
         2.85e-06       8909.656343
         2.86e-06       8886.425275
         2.87e-06       8897.295151
         2.88e-06       8909.001265
         2.89e-06       8909.041242
          2.9e-06       8904.939235
         2.91e-06       8894.412881
         2.92e-06        8892.11998
         2.93e-06       8888.802833
         2.94e-06       8878.369112
         2.95e-06       8879.854364
         2.96e-06       8859.092956
         2.97e-06        8867.94191
         2.98e-06       8867.271437
         2.99e-06       8860.785022
            3e-06       8876.160223
         3.01e-06       8874.869015
         3.02e-06       8859.085899
         3.03e-06       8866.672075
         3.04e-06        8872.09917
         3.05e-06       8875.004716
         3.06e-06       8881.530346
         3.07e-06       8898.266683
         3.08e-06       8888.957764
         3.09e-06       8886.049527
          3.1e-06       8866.522707
         3.11e-06       8860.236247
         3.12e-06        8847.20484
         3.13e-06       8855.823584
         3.14e-06        8871.56921
         3.15e-06       8862.436394
         3.16e-06       8826.267343
         3.17e-06        8827.31737
         3.18e-06       8835.062236
         3.19e-06       8824.662011
          3.2e-06       8820.181965
         3.21e-06       8818.432953
         3.22e-06       8841.611822
         3.23e-06       8844.891765
         3.24e-06         8840.8873
         3.25e-06       8812.299046
         3.26e-06       8800.162473
         3.27e-06       8800.349686
         3.28e-06       8795.187398
         3.29e-06       8797.899993
          3.3e-06       8809.600308
         3.31e-06       8814.506224
         3.32e-06       8827.806185
         3.33e-06       8813.787753
         3.34e-06       8798.443228
         3.35e-06       8776.392045
         3.36e-06       8767.669487
         3.37e-06       8766.461512
         3.38e-06       8772.816857
         3.39e-06       8766.962117
          3.4e-06       8757.806972
         3.41e-06       8762.310295
         3.42e-06       8759.792826
         3.43e-06       8755.339228
         3.44e-06       8778.236613
         3.45e-06       8777.601626
         3.46e-06       8797.339633
         3.47e-06       8803.019694
         3.48e-06       8806.386136
         3.49e-06       8808.550095
          3.5e-06       8821.026874
         3.51e-06       8792.672093
         3.52e-06       8781.727468
         3.53e-06       8768.240174
         3.54e-06       8762.793671
         3.55e-06       8768.389882
         3.56e-06        8761.09474
         3.57e-06       8754.147334
         3.58e-06       8744.574275
         3.59e-06       8720.229317
          3.6e-06        8713.04028
         3.61e-06        8700.26727
         3.62e-06       8719.205435
         3.63e-06       8722.688131
         3.64e-06       8725.974968
         3.65e-06          8732.816
         3.66e-06        8732.23786
         3.67e-06       8768.712634
         3.68e-06       8752.694384
         3.69e-06       8758.866075
          3.7e-06       8774.249574
         3.71e-06       8784.297071
         3.72e-06       8777.913384
         3.73e-06       8779.192974
         3.74e-06       8781.995957
         3.75e-06       8772.573979
         3.76e-06       8756.497435
         3.77e-06       8763.331866
         3.78e-06       8747.671144
         3.79e-06       8744.813201
          3.8e-06       8725.402992
         3.81e-06       8719.664891
         3.82e-06       8731.915654
         3.83e-06       8728.946439
         3.84e-06       8709.753202
         3.85e-06       8705.003594
         3.86e-06       8691.327564
         3.87e-06       8689.397763
         3.88e-06       8664.407742
         3.89e-06       8678.767529
          3.9e-06       8681.747547
         3.91e-06       8682.816116
         3.92e-06       8675.042927
         3.93e-06       8662.412887
         3.94e-06       8662.384277
         3.95e-06       8681.031993
         3.96e-06       8670.672294
         3.97e-06       8668.429948
         3.98e-06       8674.397856
         3.99e-06       8669.752993
            4e-06       8705.042015
         4.01e-06       8702.800614
         4.02e-06       8695.141318
         4.03e-06       8685.002086
         4.04e-06       8703.722774
         4.05e-06       8703.412037
         4.06e-06       8690.566065
         4.07e-06       8674.567193
         4.08e-06       8673.670444
         4.09e-06       8652.918999
          4.1e-06       8640.632645
         4.11e-06        8647.04514
         4.12e-06       8661.825207
         4.13e-06       8657.363191
         4.14e-06       8673.052634
         4.15e-06       8672.903201
         4.16e-06       8663.779538
         4.17e-06       8632.983352
         4.18e-06        8632.83877
         4.19e-06       8630.448309
          4.2e-06       8637.719397
         4.21e-06       8636.404606
         4.22e-06       8638.023772
         4.23e-06       8643.407362
         4.24e-06       8639.305893
         4.25e-06       8646.263628
         4.26e-06       8632.045114
         4.27e-06       8631.835041
         4.28e-06       8626.245489
         4.29e-06       8640.408467
          4.3e-06       8648.488174
         4.31e-06       8643.094419
         4.32e-06       8641.056811
         4.33e-06       8633.414798
         4.34e-06       8639.395589
         4.35e-06       8656.526721
         4.36e-06       8643.502189
         4.37e-06       8629.020906
         4.38e-06       8624.600959
         4.39e-06       8615.332595
          4.4e-06       8618.972598
         4.41e-06       8615.965305
         4.42e-06         8599.4415
         4.43e-06       8600.849625
         4.44e-06       8600.320126
         4.45e-06       8616.070513
         4.46e-06       8615.284959
         4.47e-06       8606.836577
         4.48e-06       8590.748875
         4.49e-06       8601.394414
          4.5e-06       8586.510626
         4.51e-06       8594.904303
         4.52e-06       8600.239921
         4.53e-06       8613.546632
         4.54e-06       8626.395028
         4.55e-06        8627.53444
         4.56e-06       8628.261143
         4.57e-06       8606.794278
         4.58e-06       8593.333073
         4.59e-06       8610.178616
          4.6e-06       8591.710455
         4.61e-06       8596.424891
         4.62e-06       8602.633808
         4.63e-06       8598.513458
         4.64e-06       8589.706199
         4.65e-06       8586.599719
         4.66e-06       8590.895974
         4.67e-06       8578.845919
         4.68e-06       8573.349523
         4.69e-06       8582.666471
          4.7e-06       8578.824882
         4.71e-06       8566.467089
         4.72e-06       8571.178739
         4.73e-06       8569.135962
         4.74e-06       8572.165726
         4.75e-06       8575.654655
         4.76e-06       8600.132783
         4.77e-06       8596.191969
         4.78e-06       8615.985353
         4.79e-06         8609.0752
          4.8e-06       8606.493971
         4.81e-06       8612.706132
         4.82e-06       8590.837835
         4.83e-06        8586.21726
         4.84e-06       8605.014351
         4.85e-06       8615.232619
         4.86e-06       8584.445793
         4.87e-06       8613.013028
         4.88e-06       8623.251778
         4.89e-06       8616.478017
          4.9e-06       8601.177952
         4.91e-06       8603.220812
         4.92e-06       8610.184522
         4.93e-06       8594.341589
         4.94e-06       8577.339132
         4.95e-06       8562.764063
         4.96e-06       8574.479943
         4.97e-06       8561.557938
         4.98e-06       8549.704609
         4.99e-06       8553.982719
            5e-06       8562.137649
         5.01e-06        8551.51784
         5.02e-06       8549.633838
         5.03e-06       8552.134074
         5.04e-06       8561.479007
         5.05e-06       8546.143101
         5.06e-06       8550.243603
         5.07e-06       8550.730334
         5.08e-06       8539.280455
         5.09e-06       8516.991943
          5.1e-06       8516.184862
         5.11e-06       8495.439742
         5.12e-06       8501.651593
         5.13e-06       8502.205601
         5.14e-06       8529.718332
         5.15e-06       8543.668882
         5.16e-06       8546.472514
         5.17e-06       8547.736168
         5.18e-06       8548.546677
         5.19e-06       8534.530814
          5.2e-06       8519.598856
         5.21e-06       8518.972585
         5.22e-06       8523.168785
         5.23e-06       8540.163646
         5.24e-06       8540.096318
         5.25e-06       8540.446478
         5.26e-06       8536.071801
         5.27e-06       8534.147969
         5.28e-06       8523.161623
         5.29e-06       8527.085767
          5.3e-06       8530.815908
         5.31e-06       8551.157358
         5.32e-06       8551.591656
         5.33e-06        8531.21926
         5.34e-06       8522.196186
         5.35e-06       8532.414315
         5.36e-06       8532.367935
         5.37e-06       8521.063025
         5.38e-06       8515.318777
         5.39e-06       8513.410681
          5.4e-06       8522.548589
         5.41e-06       8497.767545
         5.42e-06       8490.572709
         5.43e-06       8483.054337
         5.44e-06       8475.680122
         5.45e-06       8478.148095
         5.46e-06        8489.38767
         5.47e-06       8501.783399
         5.48e-06       8511.027559
         5.49e-06       8503.981103
          5.5e-06       8482.858391
         5.51e-06       8450.072686
         5.52e-06        8452.48461
         5.53e-06       8457.214679
         5.54e-06       8449.488068
         5.55e-06        8449.55524
         5.56e-06       8452.472014
         5.57e-06       8450.663887
         5.58e-06       8474.252027
         5.59e-06       8482.742079
          5.6e-06       8477.925276
         5.61e-06       8472.829834
         5.62e-06       8494.269731
         5.63e-06       8485.347176
         5.64e-06       8484.895172
         5.65e-06        8478.96416
         5.66e-06       8471.597661
         5.67e-06       8466.449064
         5.68e-06       8503.726154
         5.69e-06        8519.64919
          5.7e-06       8520.627688
         5.71e-06       8514.975142
         5.72e-06         8508.1051
         5.73e-06       8505.463099
         5.74e-06        8515.20309
         5.75e-06       8518.367348
         5.76e-06       8487.289309
         5.77e-06       8480.652559
         5.78e-06       8480.991681
         5.79e-06       8453.580965
          5.8e-06        8470.23405
         5.81e-06       8460.702369
         5.82e-06       8471.521938
         5.83e-06       8460.043208
         5.84e-06       8454.458584
         5.85e-06       8462.920149
         5.86e-06       8455.183696
         5.87e-06       8451.263107
         5.88e-06       8474.529942
         5.89e-06         8481.8006
          5.9e-06        8472.29785
         5.91e-06       8479.845287
         5.92e-06        8478.54253
         5.93e-06       8465.304335
         5.94e-06       8454.688218
         5.95e-06       8460.256645
         5.96e-06        8466.06177
         5.97e-06       8486.636297
         5.98e-06       8493.736913
         5.99e-06       8468.642984
            6e-06       8465.600363
         6.01e-06       8459.631593
         6.02e-06       8456.619379
         6.03e-06       8452.889244
         6.04e-06       8446.599132
         6.05e-06         8464.3678
         6.06e-06       8459.042388
         6.07e-06       8454.860939
         6.08e-06       8457.925381
         6.09e-06       8440.520314
          6.1e-06       8445.156967
         6.11e-06       8424.943122
         6.12e-06       8401.092594
         6.13e-06       8393.137957
         6.14e-06       8392.530261
         6.15e-06       8414.560307
         6.16e-06       8434.957502
         6.17e-06       8435.013499
         6.18e-06       8439.149506
         6.19e-06       8432.268286
          6.2e-06       8431.239631
         6.21e-06       8431.567034
         6.22e-06        8440.02058
         6.23e-06       8435.289595
         6.24e-06       8434.197712
         6.25e-06       8404.260077
         6.26e-06       8404.486527
         6.27e-06       8419.340109
         6.28e-06       8405.652698
         6.29e-06       8430.422478
          6.3e-06       8428.652378
         6.31e-06       8432.249235
         6.32e-06       8430.284528
         6.33e-06        8423.84373
         6.34e-06       8425.977186
         6.35e-06        8421.54334
         6.36e-06       8427.161978
         6.37e-06       8438.255687
         6.38e-06       8449.373372
         6.39e-06       8433.873512
          6.4e-06       8433.005302
         6.41e-06        8437.70679
         6.42e-06       8442.957525
         6.43e-06       8445.881478
         6.44e-06       8418.738286
         6.45e-06       8422.792559
         6.46e-06       8436.945266
         6.47e-06       8433.851466
         6.48e-06       8453.598406
         6.49e-06       8447.800295
          6.5e-06       8429.247097
         6.51e-06       8428.473667
         6.52e-06       8409.495762
         6.53e-06       8399.952038
         6.54e-06        8388.36394
         6.55e-06       8377.028836
         6.56e-06        8373.45414
         6.57e-06        8346.90039
         6.58e-06       8356.141878
         6.59e-06       8348.733783
          6.6e-06       8361.385366
         6.61e-06       8374.909721
         6.62e-06       8401.104079
         6.63e-06       8404.870087
         6.64e-06       8406.635354
         6.65e-06       8423.830309
         6.66e-06       8430.170149
         6.67e-06       8399.396803
         6.68e-06       8407.100129
         6.69e-06       8400.765152
          6.7e-06       8397.803451
         6.71e-06       8399.782769
         6.72e-06       8398.586963
         6.73e-06       8380.971013
         6.74e-06       8370.820416
         6.75e-06       8358.772551
         6.76e-06       8351.114109
         6.77e-06       8356.597412
         6.78e-06       8364.301577
         6.79e-06       8382.149277
          6.8e-06       8382.705184
         6.81e-06       8395.884868
         6.82e-06       8401.905311
         6.83e-06       8401.807921
         6.84e-06       8402.290942
         6.85e-06       8383.095452
         6.86e-06       8386.430397
         6.87e-06       8385.239916
         6.88e-06       8376.380238
         6.89e-06       8381.483963
          6.9e-06       8396.302457
         6.91e-06       8385.531709
         6.92e-06       8377.802869
         6.93e-06       8394.672618
         6.94e-06       8400.880765
         6.95e-06       8416.612951
         6.96e-06       8403.502687
         6.97e-06       8397.273789
         6.98e-06       8386.069964
         6.99e-06       8370.737524
            7e-06       8364.940589
         7.01e-06       8389.963182
         7.02e-06       8398.304783
         7.03e-06       8389.939649
         7.04e-06       8396.064015
         7.05e-06       8378.817684
         7.06e-06        8363.42163
         7.07e-06       8362.854452
         7.08e-06       8357.662333
         7.09e-06       8363.290105
          7.1e-06       8353.405968
         7.11e-06       8353.137173
         7.12e-06       8352.711898
         7.13e-06       8348.512885
         7.14e-06       8331.675574
         7.15e-06       8354.960534
         7.16e-06       8341.220307
         7.17e-06        8358.62955
         7.18e-06       8368.105656
         7.19e-06       8369.888511
          7.2e-06       8373.385454
         7.21e-06       8369.896145
         7.22e-06       8355.587671
         7.23e-06       8354.786825
         7.24e-06        8344.84474
         7.25e-06       8354.694973
         7.26e-06       8355.358095
         7.27e-06       8366.105923
         7.28e-06       8362.831809
         7.29e-06       8366.963832
          7.3e-06       8354.374765
         7.31e-06       8338.601294
         7.32e-06       8338.891526
         7.33e-06       8328.608142
         7.34e-06       8317.425688
         7.35e-06       8328.917553
         7.36e-06       8332.325554
         7.37e-06       8318.819225
         7.38e-06       8318.871795
         7.39e-06       8323.706937
          7.4e-06       8331.968181
         7.41e-06       8326.521768
         7.42e-06       8328.393262
         7.43e-06       8336.023844
         7.44e-06       8339.338626
         7.45e-06       8343.154615
         7.46e-06       8338.490983
         7.47e-06       8339.692096
         7.48e-06       8319.663507
         7.49e-06       8340.697047
          7.5e-06       8341.877132
         7.51e-06       8334.090324
         7.52e-06       8337.737891
         7.53e-06       8340.226713
         7.54e-06       8345.579415
         7.55e-06       8344.254794
         7.56e-06       8345.515599
         7.57e-06       8334.971567
         7.58e-06          8314.231
         7.59e-06       8303.345884
          7.6e-06       8298.928108
         7.61e-06       8305.123191
         7.62e-06       8310.198535
         7.63e-06       8313.171129
         7.64e-06       8303.818838
         7.65e-06       8299.391677
         7.66e-06       8301.553622
         7.67e-06       8294.106717
         7.68e-06       8301.451688
         7.69e-06       8313.634618
          7.7e-06       8321.299468
         7.71e-06       8334.860857
         7.72e-06       8327.732067
         7.73e-06        8332.45426
         7.74e-06       8330.622804
         7.75e-06       8316.901443
         7.76e-06       8319.851956
         7.77e-06       8313.330619
         7.78e-06       8283.952006
         7.79e-06       8306.255021
          7.8e-06       8299.709714
         7.81e-06       8282.276517
         7.82e-06       8276.420607
         7.83e-06       8282.908061
         7.84e-06       8303.903623
         7.85e-06       8306.606998
         7.86e-06       8306.033767
         7.87e-06       8291.596051
         7.88e-06       8284.485224
         7.89e-06       8273.305981
          7.9e-06       8275.696406
         7.91e-06       8301.060228
         7.92e-06       8289.199401
         7.93e-06       8288.487317
         7.94e-06       8286.005331
         7.95e-06        8282.11627
         7.96e-06       8273.338258
         7.97e-06       8263.464003
         7.98e-06       8256.003856
         7.99e-06       8247.164801
            8e-06       8250.291568
         8.01e-06       8265.014439
         8.02e-06       8260.986101
         8.03e-06       8262.657968
         8.04e-06       8269.119575
         8.05e-06        8261.03628
         8.06e-06       8274.728775
         8.07e-06       8286.169917
         8.08e-06       8293.990154
         8.09e-06       8288.237932
          8.1e-06       8276.862529
         8.11e-06       8257.201998
         8.12e-06       8264.334538
         8.13e-06       8264.645558
         8.14e-06       8260.402836
         8.15e-06       8259.734392
         8.16e-06       8266.208708
         8.17e-06       8279.280554
         8.18e-06       8272.929998
         8.19e-06       8268.903302
          8.2e-06       8288.059614
         8.21e-06       8287.236918
         8.22e-06       8298.682433
         8.23e-06        8279.09798
         8.24e-06       8287.952261
         8.25e-06       8306.346064
         8.26e-06       8304.563201
         8.27e-06       8293.304904
         8.28e-06       8288.875805
         8.29e-06       8285.281186
          8.3e-06        8272.22125
         8.31e-06       8267.673825