# Probe 0 (5e-06 5e-06 5e-06)
#           Probe                 0
#            Time
            1e-08        9974.93807
            2e-08       9971.946729
            3e-08       9966.738056
            4e-08       9949.375938
            5e-08       9925.607081
            6e-08       9910.014646
            7e-08       9896.059802
            8e-08       9897.472394
            9e-08       9886.124736
            1e-07       9892.641143
          1.1e-07       9868.122383
          1.2e-07       9857.125572
          1.3e-07       9861.643099
          1.4e-07       9864.511835
          1.5e-07       9850.733589
          1.6e-07       9835.411825
          1.7e-07       9819.761692
          1.8e-07       9807.674493
          1.9e-07       9812.005697
            2e-07        9796.74457
          2.1e-07       9782.329551
          2.2e-07       9784.841897
          2.3e-07       9782.685463
          2.4e-07       9785.929225
          2.5e-07        9771.12477
          2.6e-07       9787.314211
          2.7e-07       9792.096076
          2.8e-07       9793.800501
          2.9e-07       9784.842677
            3e-07        9786.35113
          3.1e-07        9763.74906
          3.2e-07       9733.758455
          3.3e-07       9729.574811
          3.4e-07       9720.856348
          3.5e-07       9713.415033
          3.6e-07       9712.189332
          3.7e-07       9701.975844
          3.8e-07       9701.873757
          3.9e-07       9689.161384
            4e-07       9694.452158
          4.1e-07       9691.278387
          4.2e-07       9700.426296
          4.3e-07       9711.395876
          4.4e-07        9696.06753
          4.5e-07       9688.669167
          4.6e-07       9678.249162
          4.7e-07        9663.31587
          4.8e-07       9656.137389
          4.9e-07       9667.117007
            5e-07       9660.760639
          5.1e-07       9656.660685
          5.2e-07       9656.454091
          5.3e-07       9661.222087
          5.4e-07       9645.959988
          5.5e-07       9644.312193
          5.6e-07       9638.400366
          5.7e-07       9624.315298
          5.8e-07       9609.769878
          5.9e-07       9620.926897
            6e-07       9605.973227
          6.1e-07       9603.416296
          6.2e-07       9599.747421
          6.3e-07       9605.679984
          6.4e-07       9593.681066
          6.5e-07       9574.637231
          6.6e-07        9568.23446
          6.7e-07       9561.230693
          6.8e-07       9566.491496
          6.9e-07       9561.754195
            7e-07        9568.36959
          7.1e-07       9562.482235
          7.2e-07       9565.042368
          7.3e-07       9560.500149
          7.4e-07        9566.25442
          7.5e-07       9546.392512
          7.6e-07       9535.721056
          7.7e-07       9528.173308
          7.8e-07        9512.65011
          7.9e-07       9510.011622
            8e-07       9497.506373
          8.1e-07       9494.376054
          8.2e-07       9487.981758
          8.3e-07       9486.340723
          8.4e-07       9478.582998
          8.5e-07       9471.778555
          8.6e-07       9464.126806
          8.7e-07       9449.773335
          8.8e-07       9437.141644
          8.9e-07       9434.675295
            9e-07       9441.523078
          9.1e-07       9448.022831
          9.2e-07        9459.38972
          9.3e-07       9451.212725
          9.4e-07       9434.250533
          9.5e-07       9422.712813
          9.6e-07       9433.323482
          9.7e-07       9418.149345
          9.8e-07        9423.40916
          9.9e-07       9430.797997
            1e-06       9417.777939
         1.01e-06        9392.70393
         1.02e-06       9409.995185
         1.03e-06       9409.576544
         1.04e-06       9401.506303
         1.05e-06       9395.449634
         1.06e-06       9391.315529
         1.07e-06       9365.569264
         1.08e-06       9362.245986
         1.09e-06       9365.722939
          1.1e-06       9358.293317
         1.11e-06       9369.513194
         1.12e-06       9372.730839
         1.13e-06       9374.512489
         1.14e-06       9384.564316
         1.15e-06       9378.393709
         1.16e-06       9357.525485
         1.17e-06       9363.524535
         1.18e-06       9366.902621
         1.19e-06       9357.928145
          1.2e-06       9362.504443
         1.21e-06       9354.074232
         1.22e-06       9369.839321
         1.23e-06       9363.637681
         1.24e-06       9360.846033
         1.25e-06       9347.782188
         1.26e-06       9343.419756
         1.27e-06       9334.139848
         1.28e-06       9342.406443
         1.29e-06       9355.395454
          1.3e-06       9333.416613
         1.31e-06       9323.383354
         1.32e-06       9308.410344
         1.33e-06       9301.942979
         1.34e-06       9302.329777
         1.35e-06       9294.168027
         1.36e-06       9305.304481
         1.37e-06       9292.285895
         1.38e-06       9281.976838
         1.39e-06        9277.09345
          1.4e-06         9273.9452
         1.41e-06       9281.907347
         1.42e-06        9270.64257
         1.43e-06       9257.339121
         1.44e-06       9248.087464
         1.45e-06       9234.346719
         1.46e-06        9235.72633
         1.47e-06        9234.93973
         1.48e-06       9244.267765
         1.49e-06        9246.74263
          1.5e-06       9248.639221
         1.51e-06       9238.642675
         1.52e-06       9228.124707
         1.53e-06       9215.852384
         1.54e-06        9221.40954
         1.55e-06       9212.993642
         1.56e-06       9207.367215
         1.57e-06       9212.804188
         1.58e-06       9203.350716
         1.59e-06       9205.546669
          1.6e-06       9197.969395
         1.61e-06       9190.929099
         1.62e-06       9180.265242
         1.63e-06       9194.395468
         1.64e-06       9197.489975
         1.65e-06       9189.037532
         1.66e-06       9182.372286
         1.67e-06       9183.634539
         1.68e-06       9167.563211
         1.69e-06       9177.534711
          1.7e-06       9171.446726
         1.71e-06        9178.79345
         1.72e-06       9186.437398
         1.73e-06       9191.873103
         1.74e-06       9174.168738
         1.75e-06        9165.81626
         1.76e-06         9175.0572
         1.77e-06       9172.172277
         1.78e-06       9169.449752
         1.79e-06       9171.736997
          1.8e-06       9170.169508
         1.81e-06       9165.085396
         1.82e-06       9162.018652
         1.83e-06       9156.196393
         1.84e-06       9146.588264
         1.85e-06       9153.898453
         1.86e-06       9147.582792
         1.87e-06        9145.88884
         1.88e-06       9146.862418
         1.89e-06       9137.909646
          1.9e-06       9145.503546
         1.91e-06       9129.074979
         1.92e-06       9118.371287
         1.93e-06       9125.663323
         1.94e-06       9120.618953
         1.95e-06       9117.593833
         1.96e-06       9114.995724
         1.97e-06        9104.50841
         1.98e-06       9115.948557
         1.99e-06       9108.013912
            2e-06       9105.918152
         2.01e-06       9087.493801
         2.02e-06       9094.938068
         2.03e-06       9080.766534
         2.04e-06       9090.301201
         2.05e-06       9081.260138
         2.06e-06       9071.272545
         2.07e-06       9059.169223
         2.08e-06       9058.813307
         2.09e-06       9066.541572
          2.1e-06       9058.430825
         2.11e-06       9047.601813
         2.12e-06       9050.144619
         2.13e-06       9046.769214
         2.14e-06        9047.93739
         2.15e-06       9050.528204
         2.16e-06       9046.729864
         2.17e-06       9055.083582
         2.18e-06       9050.429006
         2.19e-06       9033.670673
          2.2e-06       9030.467971
         2.21e-06       9020.216628
         2.22e-06       9011.308863
         2.23e-06       9007.380718
         2.24e-06       9006.825202
         2.25e-06       9009.314162
         2.26e-06       8994.487611
         2.27e-06        9004.28691
         2.28e-06       8999.916927
         2.29e-06        8998.44636
          2.3e-06       9012.703214
         2.31e-06       9007.264418
         2.32e-06       9011.899025
         2.33e-06       9012.150786
         2.34e-06       9011.623276
         2.35e-06       9009.001445
         2.36e-06       8999.314482
         2.37e-06        8994.59511
         2.38e-06       8975.130998
         2.39e-06       8973.060149
          2.4e-06       8977.418714
         2.41e-06       8980.097186
         2.42e-06       8974.189452
         2.43e-06       8978.742037
         2.44e-06       8973.470433
         2.45e-06       8965.956445
         2.46e-06       8961.292482
         2.47e-06       8962.008619
         2.48e-06       8961.604701
         2.49e-06       8965.502005
          2.5e-06       8956.868308
         2.51e-06         8958.4677
         2.52e-06       8938.953192
         2.53e-06        8949.50103
         2.54e-06       8939.046492
         2.55e-06        8956.59319
         2.56e-06       8956.514599
         2.57e-06       8943.043333
         2.58e-06       8928.388122
         2.59e-06       8927.084894
          2.6e-06       8922.234017
         2.61e-06       8924.285843
         2.62e-06        8927.69668
         2.63e-06       8921.308608
         2.64e-06       8928.688355
         2.65e-06       8929.783049
         2.66e-06       8931.681033
         2.67e-06       8934.035944
         2.68e-06       8927.916979
         2.69e-06       8916.352373
          2.7e-06       8904.823454
         2.71e-06       8889.820818
         2.72e-06       8893.629302
         2.73e-06       8896.206988
         2.74e-06       8892.645254
         2.75e-06       8898.451779
         2.76e-06       8902.003965
         2.77e-06        8897.24813
         2.78e-06       8915.220575
         2.79e-06        8911.64652
          2.8e-06       8901.421445
         2.81e-06       8891.225652
         2.82e-06       8875.391478
         2.83e-06       8868.624552
         2.84e-06       8880.222433
         2.85e-06       8887.267781
         2.86e-06       8898.018797
         2.87e-06       8886.834635
         2.88e-06       8875.593174
         2.89e-06       8870.923222
          2.9e-06       8869.016096
         2.91e-06       8870.319459
         2.92e-06       8868.782468
         2.93e-06       8866.710599
         2.94e-06        8869.12995
         2.95e-06       8863.200333
         2.96e-06       8876.657766
         2.97e-06       8868.355337
         2.98e-06       8866.005164
         2.99e-06        8867.36494
            3e-06       8851.368769
         3.01e-06        8850.09915
         3.02e-06       8858.755932
         3.03e-06       8851.008369
         3.04e-06       8846.123392
         3.05e-06       8839.700798
         3.06e-06        8833.30367
         3.07e-06       8820.218236
         3.08e-06       8821.949541
         3.09e-06       8823.521855
          3.1e-06       8833.375388
         3.11e-06       8835.229685
         3.12e-06        8839.83254
         3.13e-06       8831.188859
         3.14e-06        8819.10462
         3.15e-06       8819.895438
         3.16e-06       8842.383483
         3.17e-06       8838.970702
         3.18e-06       8828.766917
         3.19e-06       8833.069272
          3.2e-06       8832.582686
         3.21e-06       8833.624974
         3.22e-06       8813.574383
         3.23e-06        8807.21268
         3.24e-06       8808.521135
         3.25e-06       8826.993692
         3.26e-06       8833.296902
         3.27e-06       8829.709062
         3.28e-06       8831.457122
         3.29e-06       8828.268573
          3.3e-06        8814.87038
         3.31e-06       8805.353177
         3.32e-06        8792.15466
         3.33e-06         8798.6232
         3.34e-06       8804.542964
         3.35e-06        8815.46346
         3.36e-06       8819.544111
         3.37e-06       8814.399522
         3.38e-06        8808.28129
         3.39e-06        8810.35476
          3.4e-06       8813.958572
         3.41e-06       8806.226764
         3.42e-06       8804.319093
         3.43e-06       8800.259357
         3.44e-06       8782.073005
         3.45e-06       8778.592092
         3.46e-06       8762.172277
         3.47e-06       8756.815386
         3.48e-06       8750.607846
         3.49e-06       8745.599827
          3.5e-06       8735.231539
         3.51e-06       8751.458884
         3.52e-06       8760.174705
         3.53e-06       8764.347825
         3.54e-06       8766.345523
         3.55e-06       8759.450604
         3.56e-06       8761.741199
         3.57e-06        8763.70796
         3.58e-06       8767.407734
         3.59e-06       8779.837441
          3.6e-06       8781.824885
         3.61e-06       8787.874434
         3.62e-06       8773.024205
         3.63e-06       8768.251573
         3.64e-06       8764.552937
         3.65e-06       8755.411902
         3.66e-06       8753.206161
         3.67e-06       8726.170083
         3.68e-06       8729.875228
         3.69e-06       8725.018822
          3.7e-06       8711.666235
         3.71e-06       8701.853654
         3.72e-06       8705.444761
         3.73e-06       8703.700747
         3.74e-06       8698.785953
         3.75e-06       8704.490896
         3.76e-06       8709.987096
         3.77e-06       8701.556857
         3.78e-06       8709.453292
         3.79e-06       8707.305819
          3.8e-06       8715.478228
         3.81e-06       8713.203413
         3.82e-06       8701.087283
         3.83e-06       8700.951263
         3.84e-06       8711.310322
         3.85e-06       8712.519335
         3.86e-06       8718.718363
         3.87e-06       8715.277164
         3.88e-06       8728.984137
         3.89e-06       8715.471341
          3.9e-06       8710.364584
         3.91e-06       8705.931021
         3.92e-06       8707.662569
         3.93e-06       8714.059792
         3.94e-06       8711.526193
         3.95e-06       8698.012799
         3.96e-06       8702.078193
         3.97e-06       8702.087679
         3.98e-06       8692.240093
         3.99e-06       8694.166687
            4e-06       8666.869939
         4.01e-06        8663.33316
         4.02e-06       8667.108734
         4.03e-06       8673.753589
         4.04e-06       8659.559317
         4.05e-06       8659.014809
         4.06e-06       8667.011966
         4.07e-06       8674.404977
         4.08e-06       8670.715468
         4.09e-06       8682.299672
          4.1e-06       8690.324931
         4.11e-06       8684.677095
         4.12e-06       8671.113074
         4.13e-06       8670.664784
         4.14e-06       8658.351453
         4.15e-06       8654.871921
         4.16e-06       8660.032646
         4.17e-06       8678.501919
         4.18e-06       8675.478451
         4.19e-06       8671.332497
          4.2e-06       8664.810773
         4.21e-06       8663.719028
         4.22e-06       8661.520998
         4.23e-06       8653.304786
         4.24e-06       8655.056058
         4.25e-06       8647.483423
         4.26e-06       8651.040794
         4.27e-06       8649.113568
         4.28e-06        8648.77005
         4.29e-06        8638.11387
          4.3e-06       8629.144484
         4.31e-06       8629.523555
         4.32e-06       8626.319816
         4.33e-06       8632.855968
         4.34e-06       8625.507302
         4.35e-06       8614.493046
         4.36e-06       8620.451997
         4.37e-06       8624.370567
         4.38e-06       8626.663493
         4.39e-06       8632.083062
          4.4e-06       8624.837736
         4.41e-06       8626.984411
         4.42e-06       8635.808099
         4.43e-06       8632.720802
         4.44e-06       8629.506944
         4.45e-06       8615.438401
         4.46e-06       8614.648987
         4.47e-06       8615.613868
         4.48e-06       8624.079867
         4.49e-06       8613.788299
          4.5e-06       8623.454828
         4.51e-06       8616.211086
         4.52e-06        8611.30024
         4.53e-06       8600.170107
         4.54e-06       8590.994353
         4.55e-06       8591.263842
         4.56e-06       8586.722143
         4.57e-06        8599.48375
         4.58e-06       8605.930324
         4.59e-06       8593.259469
          4.6e-06       8604.923182
         4.61e-06       8599.722656
         4.62e-06       8591.110177
         4.63e-06       8590.819362
         4.64e-06       8595.572935
         4.65e-06       8597.337203
         4.66e-06       8592.687243
         4.67e-06       8595.283771
         4.68e-06       8594.737456
         4.69e-06       8588.086534
          4.7e-06       8586.758542
         4.71e-06       8593.979906
         4.72e-06       8588.336958
         4.73e-06       8588.500067
         4.74e-06       8585.115297
         4.75e-06         8579.4754
         4.76e-06       8557.326481
         4.77e-06       8559.677269
         4.78e-06       8543.740805
         4.79e-06       8548.658986
          4.8e-06        8549.44924
         4.81e-06       8542.530752
         4.82e-06       8555.578004
         4.83e-06       8556.534696
         4.84e-06        8540.90022
         4.85e-06       8533.639368
         4.86e-06       8551.007268
         4.87e-06       8528.260303
         4.88e-06       8520.796283
         4.89e-06       8523.695742
          4.9e-06       8533.347294
         4.91e-06       8531.001656
         4.92e-06       8523.920559
         4.93e-06       8534.193336
         4.94e-06       8543.333834
         4.95e-06        8551.08389
         4.96e-06       8541.526032
         4.97e-06       8548.134006
         4.98e-06       8551.421514
         4.99e-06       8546.564176
            5e-06       8537.270091
         5.01e-06       8541.039927
         5.02e-06       8542.552463
         5.03e-06       8537.444628
         5.04e-06       8527.645514
         5.05e-06       8536.668404
         5.06e-06       8534.150558
         5.07e-06       8531.882507
         5.08e-06       8538.128763
         5.09e-06       8552.073719
          5.1e-06       8552.250355
         5.11e-06       8562.814011
         5.12e-06       8557.875027
         5.13e-06       8555.783851
         5.14e-06       8537.594069
         5.15e-06       8526.906076
         5.16e-06       8523.501327
         5.17e-06       8521.824863
         5.18e-06       8520.020523
         5.19e-06        8526.90875
          5.2e-06       8535.508769
         5.21e-06       8534.385897
         5.22e-06       8529.177257
         5.23e-06       8512.818515
         5.24e-06       8509.113376
         5.25e-06       8506.489602
         5.26e-06       8507.689722
         5.27e-06       8505.213941
         5.28e-06       8509.405736
         5.29e-06       8505.824058
          5.3e-06       8502.467833
         5.31e-06       8488.322887
         5.32e-06       8486.786952
         5.33e-06       8495.779624
         5.34e-06       8498.833368
         5.35e-06       8488.866415
         5.36e-06       8489.344175
         5.37e-06       8492.568053
         5.38e-06       8494.402126
         5.39e-06       8495.018864
          5.4e-06        8488.68632
         5.41e-06       8503.125235
         5.42e-06       8504.589719
         5.43e-06         8505.3918
         5.44e-06        8508.20145
         5.45e-06       8507.557816
         5.46e-06        8495.07126
         5.47e-06       8486.060544
         5.48e-06       8478.694292
         5.49e-06       8479.674512
          5.5e-06       8491.922464
         5.51e-06        8511.97771
         5.52e-06        8506.32724
         5.53e-06        8501.58725
         5.54e-06       8501.331976
         5.55e-06       8499.907545
         5.56e-06       8495.657491
         5.57e-06        8492.85456
         5.58e-06       8476.252416
         5.59e-06       8469.513553
          5.6e-06       8471.864804
         5.61e-06       8475.316346
         5.62e-06       8460.063407
         5.63e-06       8464.713291
         5.64e-06       8464.463126
         5.65e-06       8468.033776
         5.66e-06       8471.577536
         5.67e-06       8476.142438
         5.68e-06       8450.909121
         5.69e-06       8441.559534
          5.7e-06       8439.623835
         5.71e-06       8442.024614
         5.72e-06       8442.632803
         5.73e-06       8444.007174
         5.74e-06       8439.472635
         5.75e-06       8436.661261
         5.76e-06       8453.584402
         5.77e-06       8456.198555
         5.78e-06       8454.134498
         5.79e-06       8469.878224
          5.8e-06       8456.237399
         5.81e-06       8462.062742
         5.82e-06       8453.403945
         5.83e-06       8460.696839
         5.84e-06       8464.177955
         5.85e-06       8456.145965
         5.86e-06       8457.187118
         5.87e-06       8460.856476
         5.88e-06       8445.892169
         5.89e-06       8438.736475
          5.9e-06       8442.513239
         5.91e-06       8437.068258
         5.92e-06       8436.393403
         5.93e-06       8443.555134
         5.94e-06       8449.401187
         5.95e-06       8441.155278
         5.96e-06       8437.068712
         5.97e-06       8420.273203
         5.98e-06       8413.664073
         5.99e-06       8427.916654
            6e-06       8429.672267
         6.01e-06       8430.191883
         6.02e-06        8429.79998
         6.03e-06       8431.722995
         6.04e-06        8431.77001
         6.05e-06       8420.860157
         6.06e-06       8422.301549
         6.07e-06        8426.18003
         6.08e-06       8423.816227
         6.09e-06       8434.046212
          6.1e-06       8429.603501
         6.11e-06       8443.578845
         6.12e-06       8457.906449
         6.13e-06       8460.516328
         6.14e-06       8460.707886
         6.15e-06       8444.848247
         6.16e-06       8431.109662
         6.17e-06       8428.162546
         6.18e-06       8425.836945
         6.19e-06       8426.433474
          6.2e-06       8425.107737
         6.21e-06       8421.074828
         6.22e-06       8412.962351
         6.23e-06       8417.057755
         6.24e-06       8417.405554
         6.25e-06       8438.251912
         6.26e-06       8434.747377
         6.27e-06       8422.751327
         6.28e-06        8429.48416
         6.29e-06       8411.270099
          6.3e-06       8412.468798
         6.31e-06       8406.331302
         6.32e-06       8406.109466
         6.33e-06       8408.286983
         6.34e-06       8405.277423
         6.35e-06       8408.749072
         6.36e-06       8403.590233
         6.37e-06       8393.296947
         6.38e-06       8385.181533
         6.39e-06       8395.158847
          6.4e-06       8395.786123
         6.41e-06       8386.425096
         6.42e-06        8380.13883
         6.43e-06       8378.666723
         6.44e-06        8396.28381
         6.45e-06       8393.186651
         6.46e-06       8380.650379
         6.47e-06       8381.607019
         6.48e-06       8368.236636
         6.49e-06        8371.65904
          6.5e-06        8381.05122
         6.51e-06       8378.185587
         6.52e-06       8390.889081
         6.53e-06       8395.979141
         6.54e-06       8401.371673
         6.55e-06       8406.103027
         6.56e-06       8406.713802
         6.57e-06       8423.999552
         6.58e-06       8416.485513
         6.59e-06       8416.926111
          6.6e-06       8405.932823
         6.61e-06        8394.48164
         6.62e-06       8375.744912
         6.63e-06       8372.976848
         6.64e-06       8370.416777
         6.65e-06       8360.481598
         6.66e-06       8353.848055
         6.67e-06       8371.375179
         6.68e-06        8360.46945
         6.69e-06       8363.787772
          6.7e-06        8363.04765
         6.71e-06       8359.266979
         6.72e-06       8360.666626
         6.73e-06       8371.928477
         6.74e-06       8378.679563
         6.75e-06       8385.313789
         6.76e-06       8391.948624
         6.77e-06        8386.31927
         6.78e-06       8378.740455
         6.79e-06       8365.076926
          6.8e-06       8366.647929
         6.81e-06       8358.364936
         6.82e-06       8354.236171
         6.83e-06       8351.471416
         6.84e-06       8350.354804
         6.85e-06       8359.753865
         6.86e-06       8358.394589
         6.87e-06       8358.770859
         6.88e-06       8363.208692
         6.89e-06       8358.383905
          6.9e-06       8344.948612
         6.91e-06       8350.619932
         6.92e-06       8353.307704
         6.93e-06       8342.463093
         6.94e-06       8336.193028
         6.95e-06       8323.521721
         6.96e-06       8327.475583
         6.97e-06       8330.817195
         6.98e-06       8337.253704
         6.99e-06       8347.150044
            7e-06        8348.46737
         7.01e-06       8330.100613
         7.02e-06       8324.784528
         7.03e-06       8330.547608
         7.04e-06       8328.346669
         7.05e-06       8339.889278
         7.06e-06       8349.746622
         7.07e-06         8347.4555
         7.08e-06       8345.473577
         7.09e-06       8339.945946
          7.1e-06       8347.005602
         7.11e-06       8344.558197
         7.12e-06       8340.377959
         7.13e-06       8342.974537
         7.14e-06       8351.207401
         7.15e-06       8334.341229
         7.16e-06       8341.134231
         7.17e-06       8328.539994
         7.18e-06       8322.722354
         7.19e-06       8322.257895
          7.2e-06       8318.314368
         7.21e-06        8318.91712
         7.22e-06       8328.086641
         7.23e-06       8328.549495
         7.24e-06       8334.648987
         7.25e-06       8328.589027
         7.26e-06       8323.752915
         7.27e-06       8312.666185
         7.28e-06       8314.526762
         7.29e-06       8312.101713
          7.3e-06       8318.188478
         7.31e-06       8326.615118
         7.32e-06        8322.84775
         7.33e-06       8328.038538
         7.34e-06       8337.956051
         7.35e-06       8327.903161
         7.36e-06       8325.387745
         7.37e-06        8330.85669
         7.38e-06       8328.975522
         7.39e-06       8325.432667
          7.4e-06       8320.356691
         7.41e-06        8322.71652
         7.42e-06       8321.012343
         7.43e-06       8314.699803
         7.44e-06       8313.641839
         7.45e-06       8310.978838
         7.46e-06       8312.896044
         7.47e-06       8310.788221
         7.48e-06       8324.768049
         7.49e-06       8308.817669
          7.5e-06       8308.006367
         7.51e-06       8309.869321
         7.52e-06        8304.84355
         7.53e-06       8298.776057
         7.54e-06        8290.97252
         7.55e-06        8289.96894
         7.56e-06       8288.412823
         7.57e-06       8294.647627
         7.58e-06       8306.919411
         7.59e-06       8313.314317
          7.6e-06       8316.204553
         7.61e-06       8311.821729
         7.62e-06       8306.224978
         7.63e-06       8303.563081
         7.64e-06       8307.095734
         7.65e-06       8309.949042
         7.66e-06       8307.650492
         7.67e-06       8309.705635
         7.68e-06       8303.038518
         7.69e-06       8294.997966
          7.7e-06       8288.939385
         7.71e-06        8278.45407
         7.72e-06       8282.883239
         7.73e-06       8277.605873
         7.74e-06       8278.314717
         7.75e-06       8287.739131
         7.76e-06       8285.165325
         7.77e-06       8286.155122
         7.78e-06       8306.534741
         7.79e-06       8289.738649
          7.8e-06       8292.935423
         7.81e-06       8304.711083
         7.82e-06       8305.449942
         7.83e-06        8301.59809
         7.84e-06       8288.701721
         7.85e-06       8287.901263
         7.86e-06       8285.204927
         7.87e-06       8294.296519
         7.88e-06       8294.826834
         7.89e-06        8300.78935
          7.9e-06       8297.841654
         7.91e-06       8280.067575
         7.92e-06       8288.562553
         7.93e-06       8287.590864
         7.94e-06       8289.652988
         7.95e-06       8290.372785
         7.96e-06       8295.947903
         7.97e-06       8303.859542
         7.98e-06       8305.941386
         7.99e-06       8310.694165
            8e-06       8309.756202
         8.01e-06       8300.104238
         8.02e-06       8301.098231
         8.03e-06       8298.351246
         8.04e-06       8291.364989
         8.05e-06       8292.081387
         8.06e-06       8281.763403
         8.07e-06       8274.566371
         8.08e-06        8268.42156
         8.09e-06       8272.335713
          8.1e-06       8277.517612
         8.11e-06        8289.72257
         8.12e-06       8285.139914
         8.13e-06       8283.832779
         8.14e-06        8284.41565
         8.15e-06       8285.000163
         8.16e-06       8277.152668
         8.17e-06       8267.681211
         8.18e-06       8272.142185
         8.19e-06          8271.081
          8.2e-06       8257.491018
         8.21e-06         8254.4384
         8.22e-06       8245.120729
         8.23e-06       8257.165143
         8.24e-06        8249.65527
         8.25e-06       8237.041233
         8.26e-06       8237.980171
         8.27e-06       8245.376285
         8.28e-06       8249.237133
         8.29e-06       8250.620754
          8.3e-06       8257.203283
         8.31e-06       8260.917511