# Probe 0 (5e-06 5e-06 5e-06)
#           Probe                 0
#            Time
            1e-08       656.0068686
            2e-08       740.7305024
            3e-08       821.8248868
            4e-08       875.9735317
            5e-08        944.692344
            6e-08       989.3866288
            7e-08       1031.752241
            8e-08       1071.684285
            9e-08       1118.593315
            1e-07       1155.781593
          1.1e-07       1195.687267
          1.2e-07       1237.170271
          1.3e-07       1272.775014
          1.4e-07       1303.360635
          1.5e-07       1326.169207
          1.6e-07       1356.384998
          1.7e-07        1387.81662
          1.8e-07       1413.059119
          1.9e-07       1434.409497
            2e-07       1457.924912
          2.1e-07       1486.787835
          2.2e-07        1508.73728
          2.3e-07       1528.203675
          2.4e-07       1553.742032
          2.5e-07       1577.907777
          2.6e-07       1597.621926
          2.7e-07       1621.231112
          2.8e-07       1642.197667
          2.9e-07       1669.180515
            3e-07       1687.666334
          3.1e-07       1719.349627
          3.2e-07       1739.469893
          3.3e-07       1765.300997
          3.4e-07       1782.551568
          3.5e-07       1809.637866
          3.6e-07       1826.965127
          3.7e-07       1847.650914
          3.8e-07       1859.290849
          3.9e-07       1877.687656
            4e-07       1895.382728
          4.1e-07       1909.566138
          4.2e-07       1925.125321
          4.3e-07       1941.097471
          4.4e-07       1959.838355
          4.5e-07       1984.681958
          4.6e-07       1999.111589
          4.7e-07       2012.731685
          4.8e-07       2029.646401
          4.9e-07       2046.457268
            5e-07       2062.663683
          5.1e-07       2078.022148
          5.2e-07         2100.2847
          5.3e-07       2107.559233
          5.4e-07       2126.797812
          5.5e-07       2138.992824
          5.6e-07       2149.347169
          5.7e-07       2166.588368
          5.8e-07       2184.349889
          5.9e-07       2199.197577
            6e-07       2209.156595
          6.1e-07        2219.95377
          6.2e-07       2236.255337
          6.3e-07       2250.326713
          6.4e-07       2264.204756
          6.5e-07       2275.753374
          6.6e-07       2293.882614
          6.7e-07        2309.95575
          6.8e-07       2324.989543
          6.9e-07       2342.467527
            7e-07       2360.181009
          7.1e-07       2373.278333
          7.2e-07        2392.78126
          7.3e-07       2406.850431
          7.4e-07       2422.592865
          7.5e-07       2438.855428
          7.6e-07       2451.345344
          7.7e-07       2463.108248
          7.8e-07       2478.111761
          7.9e-07       2486.740175
            8e-07       2498.648465
          8.1e-07       2516.323434
          8.2e-07       2531.544998
          8.3e-07       2540.821129
          8.4e-07       2557.711682
          8.5e-07       2566.300544
          8.6e-07       2583.299175
          8.7e-07       2599.879927
          8.8e-07       2610.750197
          8.9e-07       2624.272601
            9e-07       2632.994291
          9.1e-07       2640.436378
          9.2e-07       2648.258083
          9.3e-07        2659.72921
          9.4e-07       2673.108722
          9.5e-07       2685.665101
          9.6e-07       2697.938159
          9.7e-07       2713.106507
          9.8e-07       2725.424683
          9.9e-07       2737.958172
            1e-06       2749.485657
         1.01e-06       2757.913843
         1.02e-06       2764.964301
         1.03e-06       2778.519476
         1.04e-06       2793.465113
         1.05e-06       2795.897207
         1.06e-06       2805.468726
         1.07e-06        2814.84289
         1.08e-06       2827.166232
         1.09e-06       2833.077012
          1.1e-06       2840.082908
         1.11e-06       2848.030746
         1.12e-06       2858.809016
         1.13e-06        2867.34945
         1.14e-06       2876.865663
         1.15e-06       2884.903637
         1.16e-06       2895.010073
         1.17e-06       2902.735478
         1.18e-06       2911.359979
         1.19e-06       2919.978899
          1.2e-06       2926.373647
         1.21e-06       2936.411069
         1.22e-06       2941.257964
         1.23e-06       2952.560749
         1.24e-06       2962.729142
         1.25e-06       2968.541694
         1.26e-06       2977.724401
         1.27e-06       2989.559487
         1.28e-06       2996.371479
         1.29e-06       3005.760797
          1.3e-06       3016.190467
         1.31e-06       3029.114552
         1.32e-06       3040.833696
         1.33e-06       3048.628988
         1.34e-06       3062.605804
         1.35e-06       3073.294195
         1.36e-06       3087.025691
         1.37e-06       3099.555984
         1.38e-06       3109.290867
         1.39e-06       3119.799452
          1.4e-06       3129.781917
         1.41e-06       3138.534794
         1.42e-06        3150.61807
         1.43e-06       3159.804441
         1.44e-06       3166.283767
         1.45e-06       3174.943713
         1.46e-06       3178.569231
         1.47e-06       3188.997612
         1.48e-06       3197.498412
         1.49e-06        3209.87267
          1.5e-06       3225.190053
         1.51e-06       3233.157317
         1.52e-06       3245.285939
         1.53e-06       3251.697226
         1.54e-06       3259.395202
         1.55e-06        3268.56232
         1.56e-06        3277.39386
         1.57e-06        3283.61026
         1.58e-06       3295.375405
         1.59e-06       3300.557132
          1.6e-06       3310.916425
         1.61e-06       3320.646205
         1.62e-06       3328.499947
         1.63e-06       3334.369868
         1.64e-06       3337.707613
         1.65e-06       3341.118139
         1.66e-06       3349.367012
         1.67e-06       3360.470171
         1.68e-06       3376.765845
         1.69e-06        3383.53666
          1.7e-06       3390.634499
         1.71e-06       3399.009779
         1.72e-06        3409.17268
         1.73e-06       3419.988274
         1.74e-06       3426.160947
         1.75e-06       3434.193735
         1.76e-06        3440.36236
         1.77e-06       3443.464264
         1.78e-06       3451.417729
         1.79e-06       3462.066506
          1.8e-06       3472.600862
         1.81e-06        3481.09036
         1.82e-06       3489.540258
         1.83e-06       3497.877817
         1.84e-06       3508.359185
         1.85e-06       3518.653963
         1.86e-06       3522.981505
         1.87e-06       3528.144418
         1.88e-06       3533.197158
         1.89e-06       3541.410103
          1.9e-06       3548.239951
         1.91e-06       3555.249417
         1.92e-06       3558.771538
         1.93e-06       3563.055488
         1.94e-06       3570.350984
         1.95e-06       3575.975373
         1.96e-06       3581.054357
         1.97e-06        3588.30823
         1.98e-06       3592.913336
         1.99e-06       3595.958763
            2e-06       3608.752752
         2.01e-06       3618.135705
         2.02e-06       3625.994426
         2.03e-06       3638.266581
         2.04e-06       3647.674895
         2.05e-06       3657.477629
         2.06e-06       3666.589796
         2.07e-06       3675.012135
         2.08e-06       3681.300038
         2.09e-06       3688.019952
          2.1e-06       3698.529997
         2.11e-06       3705.678828
         2.12e-06       3715.460302
         2.13e-06       3722.063531
         2.14e-06       3731.442453
         2.15e-06       3740.529775
         2.16e-06       3743.017455
         2.17e-06       3750.046665
         2.18e-06       3759.632407
         2.19e-06       3767.810165
          2.2e-06       3773.752883
         2.21e-06       3777.317924
         2.22e-06       3785.562646
         2.23e-06       3794.272864
         2.24e-06       3798.123247
         2.25e-06       3803.843911
         2.26e-06       3810.318793
         2.27e-06       3815.713446
         2.28e-06       3822.689078
         2.29e-06       3826.787401
          2.3e-06       3832.286901
         2.31e-06       3838.180675
         2.32e-06       3845.187021
         2.33e-06       3850.898693
         2.34e-06       3860.523498
         2.35e-06       3867.847823
         2.36e-06       3871.796494
         2.37e-06       3880.768881
         2.38e-06       3886.151075
         2.39e-06         3889.0212
          2.4e-06       3893.935683
         2.41e-06        3902.72245
         2.42e-06       3906.917722
         2.43e-06       3912.008677
         2.44e-06       3921.435565
         2.45e-06         3930.3581
         2.46e-06       3935.946871
         2.47e-06       3943.683588
         2.48e-06       3952.098777
         2.49e-06       3954.998833
          2.5e-06       3960.225453
         2.51e-06       3965.379669
         2.52e-06       3972.787458
         2.53e-06        3980.19361
         2.54e-06       3988.635354
         2.55e-06       3994.500411
         2.56e-06       4000.257199
         2.57e-06       4006.906692
         2.58e-06       4011.839355
         2.59e-06       4016.949993
          2.6e-06       4022.738757
         2.61e-06        4021.27379
         2.62e-06       4024.596674
         2.63e-06       4031.777307
         2.64e-06        4034.63486
         2.65e-06       4042.741902
         2.66e-06       4047.205337
         2.67e-06       4050.668574
         2.68e-06       4055.773556
         2.69e-06       4061.377483
          2.7e-06       4071.155486
         2.71e-06       4080.502774
         2.72e-06       4085.068511
         2.73e-06        4090.81054
         2.74e-06       4094.019976
         2.75e-06       4099.511027
         2.76e-06       4106.141983
         2.77e-06       4113.056874
         2.78e-06       4119.115257
         2.79e-06         4127.2747
          2.8e-06       4131.442814
         2.81e-06       4137.533843
         2.82e-06       4143.445832
         2.83e-06       4146.864394
         2.84e-06       4150.531885
         2.85e-06       4157.118241
         2.86e-06       4164.700051
         2.87e-06       4171.461909
         2.88e-06       4177.012868
         2.89e-06       4184.341768
          2.9e-06       4191.740428
         2.91e-06       4199.066575
         2.92e-06       4203.689173
         2.93e-06       4209.768845
         2.94e-06       4216.274134
         2.95e-06       4224.697444
         2.96e-06       4225.479265
         2.97e-06       4229.139407
         2.98e-06       4233.651941
         2.99e-06       4238.377126
            3e-06       4247.506193
         3.01e-06       4250.631629
         3.02e-06       4253.614779
         3.03e-06       4258.089096
         3.04e-06       4260.006512
         3.05e-06       4267.071776
         3.06e-06       4270.231227
         3.07e-06       4273.212961
         3.08e-06       4280.346958
         3.09e-06       4280.950275
          3.1e-06       4285.989407
         3.11e-06       4289.644174
         3.12e-06       4296.207764
         3.13e-06       4300.748463
         3.14e-06       4303.125041
         3.15e-06       4311.495215
         3.16e-06       4314.013039
         3.17e-06       4317.984518
         3.18e-06       4326.209985
         3.19e-06       4330.180338
          3.2e-06       4335.036437
         3.21e-06       4335.213657
         3.22e-06       4342.372725
         3.23e-06       4349.069998
         3.24e-06       4351.054179
         3.25e-06       4351.337626
         3.26e-06       4354.774276
         3.27e-06       4360.229851
         3.28e-06       4362.992807
         3.29e-06       4365.118041
          3.3e-06       4373.901261
         3.31e-06       4383.780318
         3.32e-06       4390.648345
         3.33e-06       4394.435933
         3.34e-06       4400.240593
         3.35e-06       4406.327611
         3.36e-06       4408.450797
         3.37e-06       4417.720892
         3.38e-06        4420.48033
         3.39e-06       4423.664091
          3.4e-06       4426.812261
         3.41e-06       4433.992117
         3.42e-06       4439.933228
         3.43e-06       4450.894009
         3.44e-06       4455.560403
         3.45e-06       4461.498783
         3.46e-06        4466.87096
         3.47e-06       4469.274106
         3.48e-06        4475.42278
         3.49e-06       4481.111366
          3.5e-06       4484.255697
         3.51e-06       4488.600896
         3.52e-06       4486.375356
         3.53e-06        4493.89939
         3.54e-06       4496.301182
         3.55e-06        4500.71593
         3.56e-06       4504.741832
         3.57e-06       4508.979263
         3.58e-06       4513.075097
         3.59e-06       4519.006388
          3.6e-06       4523.489686
         3.61e-06        4527.23134
         3.62e-06       4531.008005
         3.63e-06        4534.39617
         3.64e-06       4537.219464
         3.65e-06          4544.277
         3.66e-06       4548.405196
         3.67e-06       4552.744729
         3.68e-06       4562.833577
         3.69e-06       4564.667697
          3.7e-06       4568.794224
         3.71e-06       4573.660978
         3.72e-06       4574.472059
         3.73e-06       4576.023655
         3.74e-06        4580.92498
         3.75e-06       4581.876981
         3.76e-06       4590.056414
         3.77e-06       4596.049139
         3.78e-06       4600.137894
         3.79e-06       4606.481875
          3.8e-06       4613.987922
         3.81e-06       4623.395391
         3.82e-06       4629.595649
         3.83e-06        4633.04775
         3.84e-06        4636.57007
         3.85e-06       4639.810398
         3.86e-06       4644.388786
         3.87e-06       4651.819026
         3.88e-06       4656.537222
         3.89e-06       4662.522397
          3.9e-06        4666.78203
         3.91e-06       4672.590079
         3.92e-06        4678.04556
         3.93e-06       4681.142622
         3.94e-06       4685.260036
         3.95e-06       4686.878763
         3.96e-06       4690.643878
         3.97e-06       4692.825416
         3.98e-06       4702.043219
         3.99e-06       4703.978058
            4e-06       4709.817347
         4.01e-06       4717.590389
         4.02e-06       4719.735699
         4.03e-06       4720.017045
         4.04e-06       4722.619429
         4.05e-06       4723.815078
         4.06e-06       4725.467845
         4.07e-06       4730.566502
         4.08e-06       4737.317118
         4.09e-06       4740.797589
          4.1e-06       4740.973365
         4.11e-06       4742.906862
         4.12e-06        4748.95301
         4.13e-06       4754.119849
         4.14e-06       4757.318135
         4.15e-06       4762.835637
         4.16e-06       4764.381848
         4.17e-06       4767.544424
         4.18e-06        4772.21769
         4.19e-06        4781.28205
          4.2e-06       4784.022159
         4.21e-06       4786.832394
         4.22e-06         4788.6941
         4.23e-06       4795.929603
         4.24e-06       4797.650538
         4.25e-06       4802.110686
         4.26e-06        4811.31087
         4.27e-06       4814.435799
         4.28e-06       4821.036231
         4.29e-06       4822.931965
          4.3e-06       4828.478395
         4.31e-06       4833.497824
         4.32e-06       4840.657682
         4.33e-06       4838.411543
         4.34e-06       4842.938831
         4.35e-06       4842.342231
         4.36e-06        4846.41303
         4.37e-06        4855.46607
         4.38e-06       4856.483576
         4.39e-06       4857.711577
          4.4e-06       4864.973823
         4.41e-06        4864.90366
         4.42e-06       4868.446766
         4.43e-06       4871.744127
         4.44e-06        4877.35625
         4.45e-06       4882.862649
         4.46e-06       4884.966876
         4.47e-06       4892.225913
         4.48e-06       4895.802518
         4.49e-06       4900.571007
          4.5e-06       4900.991738
         4.51e-06       4903.726424
         4.52e-06       4905.829948
         4.53e-06        4908.49431
         4.54e-06       4909.581057
         4.55e-06       4907.933401
         4.56e-06       4914.278393
         4.57e-06       4915.715567
         4.58e-06       4919.746493
         4.59e-06       4922.024728
          4.6e-06       4922.865902
         4.61e-06       4926.265534
         4.62e-06       4933.204424
         4.63e-06       4937.970094
         4.64e-06       4939.616971
         4.65e-06       4940.142561
         4.66e-06       4942.945635
         4.67e-06       4951.213994
         4.68e-06       4957.589716
         4.69e-06       4958.500483
          4.7e-06       4964.595282
         4.71e-06       4966.906953
         4.72e-06       4970.689511
         4.73e-06       4972.860881
         4.74e-06       4974.892096
         4.75e-06       4979.934843
         4.76e-06       4989.108848
         4.77e-06       4989.669051
         4.78e-06       4993.905435
         4.79e-06       4993.380278
          4.8e-06       4995.060765
         4.81e-06       4998.596651
         4.82e-06       5000.837115
         4.83e-06       5004.232674
         4.84e-06       5009.133177
         4.85e-06       5009.833219
         4.86e-06       5014.838309
         4.87e-06       5020.682942
         4.88e-06       5020.857923
         4.89e-06       5023.132637
          4.9e-06       5024.182479
         4.91e-06       5025.792205
         4.92e-06       5029.361461
         4.93e-06       5030.026301
         4.94e-06       5033.455375
         4.95e-06       5036.149526
         4.96e-06       5039.228425
         4.97e-06       5041.537507
         4.98e-06       5049.548719
         4.99e-06       5052.627013
            5e-06       5057.908765
         5.01e-06       5062.875341
         5.02e-06       5062.630518
         5.03e-06       5068.051391
         5.04e-06       5073.366933
         5.05e-06       5075.360156
         5.06e-06       5075.604933
         5.07e-06       5078.821934
         5.08e-06       5080.919897
         5.09e-06       5082.493328
          5.1e-06       5082.982833
         5.11e-06       5087.947616
         5.12e-06        5089.27616
         5.13e-06       5091.968132
         5.14e-06       5091.793332
         5.15e-06       5093.960825
         5.16e-06       5096.337998
         5.17e-06       5097.526555
         5.18e-06       5099.344308
         5.19e-06       5103.958395
          5.2e-06       5106.300279
         5.21e-06       5107.733334
         5.22e-06       5111.682822
         5.23e-06       5119.476302
         5.24e-06       5125.102456
         5.25e-06       5128.981099
         5.26e-06       5131.461923
         5.27e-06       5137.087137
         5.28e-06       5143.131132
         5.29e-06        5144.56345
          5.3e-06       5146.170407
         5.31e-06       5147.078671
         5.32e-06       5148.999962
         5.33e-06        5156.12576
         5.34e-06       5160.666347
         5.35e-06       5165.486045
         5.36e-06        5164.96218
         5.37e-06       5171.667369
         5.38e-06       5174.391177
         5.39e-06       5175.753043
          5.4e-06       5176.172074
         5.41e-06       5179.419481
         5.42e-06       5183.784051
         5.43e-06       5190.278055
         5.44e-06       5193.594666
         5.45e-06       5191.884011
         5.46e-06       5199.738734
         5.47e-06       5200.925598
         5.48e-06       5202.705859
         5.49e-06       5208.535044
          5.5e-06       5211.466919
         5.51e-06       5214.014764
         5.52e-06       5220.401451
         5.53e-06        5223.01879
         5.54e-06       5231.358773
         5.55e-06       5233.522134
         5.56e-06       5237.115968
         5.57e-06       5243.291387
         5.58e-06        5244.72178
         5.59e-06       5246.291693
          5.6e-06        5247.72203
         5.61e-06       5249.117455
         5.62e-06       5250.373316
         5.63e-06       5252.466372
         5.64e-06       5253.408229
         5.65e-06        5254.07101
         5.66e-06       5256.129084
         5.67e-06       5254.315191
         5.68e-06       5255.012847
         5.69e-06       5253.094278
          5.7e-06       5255.117495
         5.71e-06       5257.210422
         5.72e-06       5262.651768
         5.73e-06       5263.209834
         5.74e-06       5260.175306
         5.75e-06       5261.221708
         5.76e-06       5267.046423
         5.77e-06       5269.906302
         5.78e-06       5272.800951
         5.79e-06        5276.67194
          5.8e-06        5280.61248
         5.81e-06       5281.449383
         5.82e-06       5283.785691
         5.83e-06       5283.227773
         5.84e-06         5283.8903
         5.85e-06       5287.551532
         5.86e-06       5293.897265
         5.87e-06       5292.398044
         5.88e-06       5291.282327
         5.89e-06       5295.152404
          5.9e-06       5299.022291
         5.91e-06       5299.754411
         5.92e-06       5302.055314
         5.93e-06       5304.635035
         5.94e-06       5306.656919
         5.95e-06       5313.279975
         5.96e-06       5314.011963
         5.97e-06       5318.543168
         5.98e-06       5321.540594
         5.99e-06       5325.339496
            6e-06       5325.931969
         6.01e-06       5331.333727
         6.02e-06       5334.957929
         6.03e-06       5335.898801
         6.04e-06       5341.613493
         6.05e-06       5340.045478
         6.06e-06       5343.320853
         6.07e-06       5340.742377
         6.08e-06       5341.160514
         6.09e-06       5343.460228
          6.1e-06        5345.55082
         6.11e-06       5344.784276
         6.12e-06       5347.223255
         6.13e-06       5351.334512
         6.14e-06       5351.613234
         6.15e-06       5353.459741
         6.16e-06       5354.574594
         6.17e-06       5359.068687
         6.18e-06       5358.511294
         6.19e-06       5364.503076
          6.2e-06       5367.777469
         6.21e-06       5373.489929
         6.22e-06       5377.495381
         6.23e-06       5375.266283
         6.24e-06       5375.649414
         6.25e-06       5374.291035
         6.26e-06       5379.724417
         6.27e-06       5382.998207
         6.28e-06       5386.689771
         6.29e-06       5389.127507
          6.3e-06       5389.301628
         6.31e-06       5395.117069
         6.32e-06       5397.310812
         6.33e-06       5400.723188
         6.34e-06       5403.160513
         6.35e-06       5402.394504
         6.36e-06       5404.274696
         6.37e-06       5408.905358
         6.38e-06       5409.915018
         6.39e-06       5410.437251
          6.4e-06       5410.576512
         6.41e-06       5420.185004
         6.42e-06       5424.362268
         6.43e-06       5423.805312
         6.44e-06       5424.431888
         6.45e-06       5425.058459
         6.46e-06       5429.896827
         6.47e-06       5431.289112
         6.48e-06       5432.402924
         6.49e-06       5434.004002
          6.5e-06       5438.772255
         6.51e-06       5443.853457
         6.52e-06        5443.92306
         6.53e-06       5445.837132
         6.54e-06       5449.491151
         6.55e-06       5453.632185
         6.56e-06       5456.520351
         6.57e-06       5456.415961
         6.58e-06        5458.53853
         6.59e-06       5465.323442
          6.6e-06       5469.428926
         6.61e-06       5473.221107
         6.62e-06       5474.891007
         6.63e-06       5475.343265
         6.64e-06       5477.639313
         6.65e-06       5475.308476
         6.66e-06       5478.996039
         6.67e-06       5483.553096
         6.68e-06       5492.562151
         6.69e-06       5493.918647
          6.7e-06        5497.91845
         6.71e-06         5501.7094
         6.72e-06       5501.048604
         6.73e-06       5501.639843
         6.74e-06       5501.674621
         6.75e-06       5503.969981
         6.76e-06       5501.639843
         6.77e-06       5504.595977
         6.78e-06       5508.317089
         6.79e-06       5511.133902
          6.8e-06       5508.212761
         6.81e-06       5507.378132
         6.82e-06       5507.552014
         6.83e-06       5511.898947
         6.84e-06       5513.150825
         6.85e-06       5518.401563
         6.86e-06       5517.010669
         6.87e-06       5517.671347
         6.88e-06       5519.861979
         6.89e-06       5521.983016
          6.9e-06       5527.719995
         6.91e-06       5529.910381
         6.92e-06       5533.873802
         6.93e-06       5533.004646
         6.94e-06        5536.34216
         6.95e-06       5539.192855
         6.96e-06        5546.59729
         6.97e-06       5547.883445
         6.98e-06       5549.447662
         6.99e-06       5549.899542
            7e-06       5553.862087
         7.01e-06       5556.295142
         7.02e-06       5555.912809
         7.03e-06       5555.704263
         7.04e-06       5552.888846
         7.05e-06       5552.854087
         7.06e-06       5553.375468
         7.07e-06       5557.615917
         7.08e-06       5565.991963
         7.09e-06       5569.467276
          7.1e-06        5569.53678
         7.11e-06       5573.533224
         7.12e-06       5580.483148
         7.13e-06       5580.761134
         7.14e-06        5585.38253
         7.15e-06       5587.328312
         7.16e-06       5591.046031
         7.17e-06       5592.713745
         7.18e-06       5591.150264
         7.19e-06       5589.899461
          7.2e-06       5592.435795
         7.21e-06       5594.798345
         7.22e-06       5595.736399
         7.23e-06       5595.736399
         7.24e-06       5597.890415
         7.25e-06       5597.299803
         7.26e-06        5603.97003
         7.27e-06       5610.118724
         7.28e-06       5609.701876
         7.29e-06       5609.319764
          7.3e-06       5612.932399
         7.31e-06        5616.16281
         7.32e-06       5621.720248
         7.33e-06       5623.873667
         7.34e-06       5620.469853
         7.35e-06       5624.116792
         7.36e-06       5624.359916
         7.37e-06       5629.673761
         7.38e-06       5632.868871
         7.39e-06       5633.250888
          7.4e-06        5632.55631
         7.41e-06       5634.640027
         7.42e-06       5635.265133
         7.43e-06       5637.244608
         7.44e-06       5635.438772
         7.45e-06       5635.612412
         7.46e-06       5637.348789
         7.47e-06       5640.126928
         7.48e-06       5639.119862
         7.49e-06       5642.175752
          7.5e-06       5641.307612
         7.51e-06       5646.551062
         7.52e-06        5650.47478
         7.53e-06       5657.419021
         7.54e-06        5664.08502
         7.55e-06       5666.723517
         7.56e-06       5668.112171
         7.57e-06       5669.327227
         7.58e-06       5671.618434
         7.59e-06       5673.041732
          7.6e-06       5672.833446
         7.61e-06        5673.35416
         7.62e-06       5676.860233
         7.63e-06       5677.762766
         7.64e-06       5681.407525
         7.65e-06       5681.546371
         7.66e-06       5682.865391
         7.67e-06       5687.308275
         7.68e-06       5690.050267
         7.69e-06         5689.7726
          7.7e-06        5691.40388
         7.71e-06        5693.65986
         7.72e-06       5694.180464
         7.73e-06       5697.373438
         7.74e-06       5698.275782
         7.75e-06       5697.824611
         7.76e-06       5698.796361
         7.77e-06       5703.446744
         7.78e-06       5702.648559
         7.79e-06       5705.702448
          7.8e-06       5707.541676
         7.81e-06       5707.194654
         7.82e-06       5712.052845
         7.83e-06       5711.324132
         7.84e-06       5709.554377
         7.85e-06         5707.9581
         7.86e-06       5712.712153
         7.87e-06       5713.510256
         7.88e-06       5720.033641
         7.89e-06       5722.358361
          7.9e-06       5724.509546
         7.91e-06       5725.654513
         7.92e-06       5724.856507
         7.93e-06       5727.042333
         7.94e-06       5726.556598
         7.95e-06        5729.36689
         7.96e-06       5729.748528
         7.97e-06       5727.770932
         7.98e-06       5732.177102
         7.99e-06        5734.01584
            8e-06       5732.246489
         8.01e-06       5731.934248
         8.02e-06       5734.085226
         8.03e-06       5737.103457
         8.04e-06       5741.162314
         8.05e-06       5748.412343
         8.06e-06       5750.181409
         8.07e-06       5749.591724
         8.08e-06       5750.805778
         8.09e-06       5751.672951
          8.1e-06       5755.384367
         8.11e-06       5756.667722
         8.12e-06       5756.528982
         8.13e-06       5758.159168
         8.14e-06       5761.523513
         8.15e-06       5762.182495
         8.16e-06       5767.627607
         8.17e-06       5768.841445
         8.18e-06       5768.494636
         8.19e-06       5774.182164
          8.2e-06       5775.569318
         8.21e-06       5780.320177
         8.22e-06        5782.92092
         8.23e-06       5784.481333
         8.24e-06       5786.943271
         8.25e-06       5787.706114
         8.26e-06       5788.087532
         8.27e-06       5787.983509
         8.28e-06       5786.839247
         8.29e-06       5788.399601
          8.3e-06       5791.520239
         8.31e-06       5790.584058