/*--------------------------------*- C++ -*----------------------------------*\
| =========                 |                                                 |
| \\      /  F ield         | OpenFOAM: The Open Source CFD Toolbox           |
|  \\    /   O peration     | Version:  v1706                                 |
|   \\  /    A nd           | Web:      www.OpenFOAM.com                      |
|    \\/     M anipulation  |                                                 |
\*---------------------------------------------------------------------------*/
FoamFile
{
    version     2.0;
    format      ascii;
    class       volScalarField;
    location    "0.14";
    object      Ma_N2cold;
}
// * * * * * * * * * * * * * * * * * * * * * * * * * * * * * * * * * * * * * //

dimensions      [0 0 0 0 0 0 0];


internalField   nonuniform List<scalar> 
6000
(
3.987079188
3.957072137
3.860650855
3.581660876
2.742133019
3.984055785
3.935199595
3.806868861
3.458560433
2.876078241
3.984867482
3.933377422
3.795471442
3.524825564
3.149701876
3.979861021
3.921213814
3.822899734
3.621494789
3.372850648
3.97632935
3.937020841
3.855090549
3.718854406
3.544475889
3.980230524
3.950486233
3.889657849
3.793261218
3.681254091
3.984045992
3.958326597
3.915730498
3.851672525
3.769337482
3.9916103
3.971953036
3.936451629
3.895928989
3.833693758
3.990642117
3.971062239
3.952340105
3.919992309
3.876753662
3.996796063
3.982389534
3.96637415
3.944831959
3.915302459
3.994767811
3.983951052
3.973815269
3.956226163
3.940037668
3.992026865
3.990002694
3.984545318
3.974695647
3.953284283
3.996120807
3.991374588
3.985911525
3.975630418
3.972994191
3.99626039
3.992743107
3.990510456
3.984684176
3.979210498
4.000782676
3.996221243
3.994496092
3.98941493
3.985388693
3.99934217
4.000128031
3.994514488
3.991900358
3.985926994
4.001092898
4.000159347
3.993397692
3.992710191
3.991975382
3.999590244
3.99754784
3.999751972
3.997881079
3.993883246
4.003609428
4.006265654
4.005176448
4.002221138
3.998387139
3.99888374
3.999911649
4.000021976
4.001215433
4.000258832
4.003180702
4.002328462
3.999129241
3.998156816
3.999455739
4.000102112
3.999684343
4.002763291
4.005023725
4.00223393
3.999440222
3.998340969
3.999059359
3.998216729
3.996844114
3.998462147
4.000758378
3.997706041
3.998994852
3.999990829
3.998247088
4.000376568
4.000436933
3.999738205
3.995332273
3.998321114
3.998192303
3.995657898
3.997404537
3.996859952
4.002100901
4.003678614
4.001805804
4.001006915
3.999958624
4.001853395
4.001428553
4.003796556
4.004728199
4.006077511
4.00108655
4.005022485
4.002668545
4.001810749
4.001383145
3.998909551
3.997323045
3.998303166
4.000303552
3.999697379
3.998668649
4.001244001
4.001618587
4.004008036
4.003568582
4.003526283
4.00335522
4.0034151
4.00057503
3.998834702
4.000310536
3.999824782
4.002210149
4.004307572
4.006811962
4.000334892
4.001151269
4.00144559
4.000422756
3.997100041
3.99934062
3.998717747
3.997630771
3.999188234
4.000224626
3.997935492
3.999002436
3.999755072
3.998280865
3.995894735
3.99517764
3.99682398
3.998578427
4.000816685
4.000769515
4.000151581
4.000030669
3.999411292
4.002619258
4.002089984
4.001395986
4.00123711
4.000031632
3.999341143
3.999317229
4.004949057
4.004605703
4.001261119
4.001274243
3.999520036
4.001692927
4.001763877
4.001330994
4.000031387
4.000260037
4.00154884
4.001564401
4.003977307
4.005336535
4.0042324
3.997355526
4.001058726
3.999951133
3.998947335
3.99992149
4.001490554
4.000803404
4.001880923
4.002308616
4.001837292
4.003597058
4.002542776
4.003908198
4.00440257
4.0059034
4.003425231
4.003433741
4.002981432
4.000121539
3.999870105
3.998963417
3.997892641
3.99847298
3.999675168
3.999096816
4.000817891
3.998693857
3.996635007
3.998189895
3.999228479
4.001074402
4.004879075
4.004393847
4.001813206
4.001690816
4.001400134
3.999660931
3.99954219
4.000210865
3.999908248
3.999542733
3.998424444
4.000473694
4.000739234
4.000735043
4.00020097
4.003142155
4.002743534
4.004345584
4.001862299
4.002643706
4.000946086
4.001340051
4.000425758
4.002010746
4.000400204
3.999587156
4.000965185
4.002295424
4.001753715
4.003638021
4.004322776
4.001865945
4.000813711
3.999441555
3.996147169
3.996710191
3.997559149
3.998422476
3.998042344
4.001136805
3.999410814
3.996589934
3.997291358
3.998533339
3.99995296
4.001619999
4.000959298
4.000006235
4.001024454
3.997273446
3.999198804
4.001622114
4.002123319
3.999549795
4.00014126
3.998585116
3.998638284
3.999411118
4.00116554
1.768431024
1.533197133
1.386179052
1.272302166
1.18218156
1.11128949
1.050936581
0.9987938161
0.9569006558
0.9187333285
0.8824559177
0.8518774697
0.824963287
0.8018073129
0.7805268067
0.7578954669
0.7361694506
0.718595972
0.7022754948
0.6865295592
0.6720893058
0.6594641085
0.6458329885
0.6320568816
0.6183904604
0.6073929353
0.5976052558
0.5905265533
0.5779934261
0.5680919934
0.5583093628
0.5495731073
0.5402180413
0.536977204
0.5276224031
0.5198625099
0.5138636391
0.5074385924
0.4996269499
0.4938354618
0.4886958556
0.4818126942
0.4760007874
0.4722449343
0.4678184296
0.4612212869
0.4558841389
0.4527319086
0.4454358605
0.4426072761
0.439612508
0.4342844088
0.4298134046
0.4249326465
0.4197310893
0.4159736092
0.4109161527
0.4069420398
0.405021174
0.4025425476
0.3978390117
0.3936321302
0.3886316054
0.3837830529
0.380555531
0.3796291789
0.377887021
0.376483057
0.3717839156
0.3688365732
0.3667647723
0.3631307954
0.3616765299
0.3604025316
0.3589297128
0.356834732
0.3543744744
0.3555136713
0.352041459
0.3502531136
0.3496121817
0.3533877095
0.3526288008
0.3532545424
0.3531747694
0.3572071402
0.3647392993
0.3719115023
0.3812136001
0.3936131242
0.4116857381
0.4343209044
0.4675534707
0.5252446802
0.6877087412
2.369484942
2.111281716
1.977932962
1.872917785
1.773612332
1.68197299
1.597559203
1.518809567
1.455755401
1.395287766
1.341422907
1.290634958
1.249465409
1.210402302
1.170972626
1.135852309
1.102312429
1.074992011
1.048760938
1.02168709
1.002222569
0.9752700732
0.9509613967
0.931403852
0.9100251312
0.8949606857
0.8814539879
0.8616782698
0.8477375422
0.8335835822
0.820998361
0.8027507523
0.7887735539
0.7771892689
0.7655174465
0.7550395504
0.7436199787
0.7336129027
0.7224161376
0.7133330375
0.7041275407
0.6951194391
0.6864193352
0.6738191319
0.6673625729
0.6588478216
0.6531912793
0.6447784678
0.6366838333
0.6294401379
0.626972788
0.6175703936
0.6103197735
0.6035528092
0.5972183414
0.5916899471
0.587064997
0.580065954
0.5756201021
0.5672851684
0.562160281
0.5552618815
0.548773389
0.5481124101
0.541939227
0.5369573106
0.5333721157
0.528428853
0.5255538223
0.5202336185
0.5173056978
0.5135203593
0.5113393306
0.5070061277
0.5031394942
0.499968416
0.4995376239
0.4934541175
0.4933182019
0.493170667
0.4915818253
0.4916914749
0.4903291793
0.4914606248
0.494204973
0.4989835962
0.5052246533
0.5137595267
0.5237845291
0.5394183389
0.5616182338
0.5953161628
0.6412589394
0.7260757886
0.9433193376
2.793876279
2.529138845
2.356449348
2.245160126
2.147479501
2.06920113
1.997770002
1.928400371
1.855519181
1.790437801
1.726849048
1.670692151
1.614194215
1.563308809
1.517515356
1.471048138
1.430806099
1.390054156
1.3541697
1.318255183
1.29105184
1.256951623
1.228419646
1.196269999
1.17068735
1.151592402
1.128656032
1.106980098
1.085972995
1.066825576
1.049393208
1.027933056
1.011304666
0.9937405406
0.9730969172
0.9614908071
0.946779693
0.9335829578
0.9176526278
0.9059828969
0.8948908751
0.8829917645
0.8713651457
0.8569505496
0.84669989
0.8379054549
0.8265725713
0.8194402376
0.8051409254
0.7964342006
0.7878733467
0.7788120898
0.7685115512
0.7604781509
0.7520513922
0.7468340615
0.7392169404
0.7310498334
0.7242370356
0.7161291111
0.7092044531
0.6991894358
0.6956849082
0.6880888544
0.682735622
0.6753523892
0.6724682739
0.6657008937
0.6609232501
0.6544940092
0.6474069786
0.6406575983
0.6371677952
0.6325812994
0.6259952895
0.6231216205
0.6226170767
0.6183764263
0.6143449877
0.6130266252
0.6119692175
0.610041873
0.6118623021
0.6122205588
0.6157031932
0.6193792851
0.6274074693
0.6346578404
0.6477123265
0.6617181492
0.6853451141
0.7247584457
0.7800878805
0.8793524708
1.083919439
3.116184386
2.883018799
2.688839889
2.54959901
2.442387794
2.359750073
2.294779433
2.231343424
2.169402796
2.109574242
2.046709025
1.990317559
1.933345272
1.88118839
1.829731203
1.777250758
1.729916182
1.684835698
1.644182106
1.602964543
1.564818448
1.526622932
1.493118461
1.457413585
1.429364861
1.397587548
1.374970769
1.347239818
1.321056217
1.293502924
1.268390612
1.245275366
1.226235753
1.200564149
1.179460528
1.161240359
1.144514357
1.127308815
1.111890817
1.094615519
1.079071235
1.064753662
1.0475336
1.032833193
1.02152247
1.008231945
0.9950344374
0.9801512975
0.9688038693
0.9557637714
0.946290297
0.9362126843
0.923763696
0.9129758126
0.90199105
0.8934536928
0.8831884403
0.8739942644
0.8648530138
0.8576145203
0.8479324655
0.8390327194
0.8304625482
0.8238525156
0.8187167659
0.811272632
0.8002636045
0.7920632608
0.7864009751
0.77849659
0.7734225573
0.7659288157
0.7576626966
0.7506593727
0.7484916167
0.7435708628
0.7386980613
0.7351973204
0.7324196408
0.7283212661
0.7243720344
0.7222114173
0.7243389741
0.7233266481
0.7275088297
0.7318141612
0.741117814
0.7482547007
0.7582695241
0.778645025
0.8023791707
0.8437156332
0.9022033539
0.9995577934
1.188654526
3.368583568
3.16304541
2.979987467
2.82944505
2.703064339
2.609442605
2.532446565
2.466864796
2.407090388
2.35631856
2.305469908
2.25134435
2.204142859
2.155405941
2.105539767
2.054019861
2.008368515
1.957788093
1.912831674
1.866380878
1.824912178
1.782581081
1.745554553
1.706104048
1.668154606
1.636503666
1.606932356
1.573853135
1.541487136
1.512550386
1.485731821
1.457176456
1.431016612
1.410161337
1.383207984
1.358558262
1.342381003
1.320635686
1.296212717
1.275775411
1.25422684
1.24036141
1.221316729
1.199159937
1.188272605
1.17454594
1.160323177
1.146203524
1.128740769
1.115913516
1.103414287
1.086918264
1.07348831
1.06366953
1.04961127
1.040976672
1.027405981
1.018306934
1.005584556
0.9983085493
0.9851500085
0.9743009182
0.9629969444
0.9550741516
0.9474169778
0.9363544713
0.927126651
0.9181647586
0.9088482081
0.9003368024
0.8919359209
0.8862439519
0.8812463107
0.8740061627
0.867517045
0.8614775083
0.8552297345
0.8462336797
0.845258096
0.8406164923
0.8363376957
0.8323640892
0.8335274996
0.8331673663
0.8384775813
0.8404389988
0.8460960946
0.8561487046
0.8684832818
0.8871690522
0.9127852085
0.954583676
1.011672216
1.108173743
1.274957304
3.548049905
3.386190405
3.231619039
3.091010391
2.956967161
2.843644913
2.75069675
2.677138173
2.613079965
2.562625299
2.509331
2.465581927
2.419578761
2.373718474
2.329552465
2.286694004
2.242220447
2.198226934
2.155640316
2.107209841
2.063796342
2.020292031
1.981825629
1.945315894
1.907621389
1.871081103
1.834874857
1.801136646
1.763466799
1.732982228
1.700179432
1.667850732
1.639041386
1.611009598
1.580763376
1.557577974
1.533616776
1.507928853
1.482909601
1.458859079
1.437459326
1.417442585
1.392604778
1.372943973
1.36008657
1.339956154
1.321340119
1.301120657
1.284446526
1.269238676
1.257128866
1.23800652
1.219415053
1.209439667
1.196566109
1.183586627
1.168904461
1.157033262
1.146468902
1.133027582
1.120850929
1.106999777
1.097483538
1.085281761
1.077266797
1.064585731
1.051545512
1.040962969
1.030938399
1.024531497
1.013983252
1.004107757
0.9973579685
0.9887407552
0.9781755887
0.9735630803
0.9687976965
0.9607861282
0.9581831719
0.950633412
0.9465553313
0.9410791213
0.9419335739
0.9437827723
0.9433162239
0.9438648269
0.9473951013
0.9568793059
0.9699100993
0.9892750093
1.019187206
1.058048659
1.112977489
1.205745173
1.352113705
3.676030017
3.558449595
3.430720965
3.305539829
3.180340336
3.072792709
2.966358572
2.879632779
2.798661911
2.744402146
2.689316829
2.640452116
2.598639578
2.551761324
2.515900475
2.475162482
2.440610198
2.398725838
2.360219575
2.322415406
2.282945408
2.236753205
2.198028619
2.159111225
2.122131018
2.083483139
2.04617451
2.005216011
1.972753118
1.941323843
1.904229018
1.870781556
1.841310737
1.806892949
1.77767516
1.753250159
1.721973947
1.693427152
1.670915324
1.643186003
1.620046331
1.594546191
1.569896386
1.547537284
1.527884766
1.505457681
1.483990081
1.461516204
1.445603052
1.426247512
1.408841739
1.390713412
1.375470523
1.360894419
1.341069282
1.32409157
1.311700091
1.295410465
1.286462903
1.271528488
1.256110591
1.240384408
1.230157693
1.212468995
1.200608049
1.189855516
1.179361095
1.166328058
1.156589554
1.147921593
1.136718665
1.124182337
1.115140281
1.107646165
1.097819159
1.086771203
1.078250042
1.07159195
1.064009801
1.060112932
1.053802586
1.051689863
1.049174721
1.046958539
1.045559743
1.0478747
1.053075058
1.060328391
1.075660221
1.09211932
1.117946397
1.151265667
1.206592189
1.293531896
1.421467765
3.768088734
3.68384811
3.589523977
3.478746612
3.375780217
3.269178934
3.17312497
3.073352017
2.986967832
2.923417228
2.854032636
2.801162573
2.752891815
2.707692014
2.664445169
2.636517361
2.604543448
2.567225808
2.53369624
2.495347229
2.463083165
2.421831617
2.387607587
2.3535528
2.318012519
2.280090389
2.243301694
2.205560991
2.170296266
2.139613456
2.102106787
2.066520154
2.03365214
2.002565324
1.970112199
1.938086008
1.910009382
1.875408686
1.854588079
1.82406557
1.797205507
1.767166971
1.743750745
1.720210447
1.693303859
1.670325888
1.646518174
1.627188044
1.607132507
1.579733463
1.563736041
1.546370583
1.525589596
1.506710659
1.486564741
1.468806088
1.453647936
1.437478097
1.423996235
1.407527884
1.388806471
1.374276719
1.360100159
1.343362678
1.331297658
1.317951169
1.303808799
1.292731734
1.280468105
1.26636114
1.254450276
1.244068375
1.23240379
1.224153697
1.213837326
1.200818588
1.192946147
1.18419864
1.176832236
1.168109381
1.163220338
1.156424242
1.155955393
1.15076079
1.150948322
1.149884413
1.154845941
1.161418132
1.17390968
1.192120484
1.212293716
1.248134816
1.298781385
1.372068946
1.490231217
3.837729684
3.777236849
3.695553315
3.619876904
3.533067518
3.436931663
3.349033723
3.260661994
3.164446235
3.091105662
3.021649588
2.960043463
2.905889349
2.853538335
2.807685521
2.773221037
2.739846999
2.70742237
2.674172337
2.64370971
2.61386519
2.582948677
2.554279535
2.517281879
2.48807463
2.453430278
2.418300486
2.385197574
2.347087627
2.316010876
2.288044895
2.249424761
2.216017265
2.184840238
2.149082919
2.116818373
2.088010274
2.06036244
2.027840101
1.997832341
1.969321289
1.940685242
1.913608467
1.885976631
1.859918211
1.837358483
1.814073286
1.788402001
1.763562743
1.738569142
1.71748095
1.698262457
1.678477888
1.653751219
1.632568649
1.618007461
1.598864518
1.581550578
1.563388023
1.545750336
1.527023732
1.507488556
1.488963281
1.472946474
1.464088372
1.445038592
1.42884733
1.416581357
1.403909451
1.388249162
1.375281985
1.36263237
1.352885143
1.340700994
1.32961913
1.318908228
1.307181435
1.29603052
1.287756909
1.283066867
1.270694255
1.265090587
1.259135393
1.254150938
1.254448623
1.253578818
1.256241257
1.262522771
1.273766701
1.287468411
1.310319405
1.340285401
1.390065736
1.45660861
1.560582672
3.888505038
3.842138501
3.786498576
3.728267288
3.659729775
3.581268463
3.50047281
3.429109836
3.337593393
3.258566913
3.18785378
3.117899659
3.054328722
2.999619088
2.946825704
2.905691858
2.870149063
2.834245051
2.80236464
2.778140105
2.746595771
2.71418698
2.689693828
2.661497329
2.631398313
2.603666171
2.574656633
2.538197677
2.505771733
2.476412318
2.446666038
2.413657089
2.380399538
2.354507386
2.318939106
2.284981151
2.258746137
2.226481145
2.196271013
2.170313229
2.138915542
2.110166924
2.081833854
2.052706485
2.025588265
1.99537107
1.972058965
1.945307158
1.920068708
1.893684458
1.870364434
1.84893211
1.82774072
1.803055842
1.780817047
1.76178572
1.742224057
1.725769105
1.704942393
1.682109352
1.662015726
1.643399858
1.623934305
1.606777712
1.591415589
1.576400271
1.556130396
1.539560888
1.529850207
1.513727371
1.497278521
1.483461601
1.46854241
1.456795593
1.442864947
1.433773789
1.420566509
1.409777781
1.396945878
1.390921178
1.378878123
1.372994613
1.366117975
1.359144499
1.358591952
1.35657078
1.355985327
1.36087409
1.368561598
1.383328639
1.402889556
1.433190429
1.474917147
1.535128186
1.62708704
3.917643646
3.890357535
3.848250945
3.798598231
3.749631254
3.690320771
3.630377967
3.565374997
3.484061064
3.415051792
3.343125549
3.271178471
3.200885855
3.142937466
3.083562923
3.033712285
2.991607609
2.948199208
2.916559863
2.885873211
2.857538281
2.828889372
2.803361069
2.776791455
2.750947425
2.729688438
2.701557923
2.672545928
2.64488862
2.617862997
2.587422563
2.563005604
2.53165523
2.502983053
2.47505654
2.442781337
2.416307801
2.38680398
2.356602525
2.329406121
2.298609188
2.268459969
2.236522494
2.210501963
2.184573432
2.15951466
2.129711099
2.10177873
2.072853772
2.047338941
2.024913995
2.002330522
1.977344588
1.951961521
1.927310922
1.905603708
1.884379972
1.865525323
1.844231354
1.817902561
1.801040221
1.777118993
1.755312693
1.739305051
1.720848946
1.704196514
1.683837594
1.669635418
1.652127811
1.63696185
1.620103845
1.605352289
1.591150521
1.577104602
1.563196408
1.54789091
1.535840826
1.522978429
1.512095904
1.501046207
1.489935244
1.481081063
1.475480432
1.469017697
1.465070843
1.460719464
1.458375997
1.464063051
1.468303633
1.482743112
1.497964603
1.52438759
1.560823106
1.614365398
1.697666225
3.940364098
3.918202128
3.894044568
3.858026133
3.821862135
3.777336437
3.727223078
3.668753219
3.607122623
3.544689965
3.48438307
3.415185451
3.35150326
3.289755198
3.223556625
3.170178545
3.119795582
3.07406723
3.027314641
2.996222498
2.964148868
2.9287218
2.902139708
2.877068856
2.857426087
2.835461725
2.814567417
2.791147695
2.765303336
2.743301277
2.71772069
2.691962159
2.663719184
2.638556195
2.610242143
2.579264724
2.556938246
2.532048845
2.503066457
2.47341917
2.448333202
2.421609987
2.390669369
2.363438402
2.333393974
2.311570817
2.282956628
2.252317696
2.22451436
2.198601384
2.172261914
2.146448706
2.123946305
2.098163356
2.073619735
2.052559541
2.027354848
2.006110129
1.987048747
1.962233572
1.937817343
1.912963088
1.892507207
1.872731486
1.85501268
1.833969901
1.814865209
1.797713572
1.778348194
1.763285803
1.748415282
1.730930721
1.713506896
1.697173238
1.685700208
1.670594326
1.653080045
1.639416489
1.623961293
1.612466409
1.601302813
1.591870058
1.582638735
1.57589515
1.569467507
1.564881794
1.565753248
1.567323248
1.569723796
1.578354262
1.594179975
1.614336455
1.645411592
1.691130484
1.764865504
3.959647467
3.945646634
3.928700274
3.903914706
3.874149343
3.837091125
3.799381887
3.761463551
3.715738236
3.657987556
3.605289385
3.546376478
3.486854364
3.427942556
3.364403297
3.305425236
3.249580218
3.197603802
3.152702495
3.105906479
3.068923307
3.035783061
3.004419333
2.978366242
2.949486268
2.928656784
2.905262599
2.888110006
2.863173731
2.842496369
2.818775082
2.80181236
2.779780143
2.755917608
2.732958655
2.705874706
2.682134704
2.66023062
2.636275526
2.606556024
2.579774971
2.561272262
2.531128053
2.50055218
2.477719714
2.454197401
2.424383217
2.395127618
2.367601953
2.341011045
2.312902446
2.29391814
2.266503428
2.241112533
2.215087656
2.186772046
2.167379066
2.145885391
2.121169898
2.098763675
2.074048544
2.049846636
2.029735882
2.007333639
1.989134041
1.965800493
1.94672237
1.928956995
1.910353983
1.886255592
1.869726317
1.853333998
1.836162514
1.818327296
1.805534509
1.788608843
1.768617182
1.754866876
1.74028784
1.72670176
1.71353034
1.701023659
1.693072477
1.685119987
1.67654487
1.673592022
1.670196248
1.670724126
1.669790556
1.674850143
1.684863748
1.706908686
1.735288901
1.769688731
1.834957035
3.969209042
3.963393453
3.950425012
3.928791877
3.90968324
3.886609941
3.855850869
3.829446376
3.796866159
3.751712172
3.702143873
3.6512953
3.60220359
3.549324972
3.492800649
3.43565034
3.382159735
3.326349532
3.271614084
3.223316586
3.180489198
3.141599899
3.10343519
3.074443836
3.042903127
3.017863575
2.993049513
2.975171395
2.953396311
2.931959854
2.910705867
2.895886507
2.876073175
2.85316483
2.833694098
2.811167973
2.790192772
2.77014228
2.750249835
2.725766069
2.703028424
2.67991406
2.658418318
2.631293344
2.603141977
2.580859238
2.558871228
2.529595395
2.503866685
2.481059356
2.449562229
2.429007088
2.402686102
2.377512457
2.353201213
2.325831144
2.302361257
2.277653077
2.254351102
2.232637004
2.207259565
2.185042238
2.161325723
2.140653038
2.116144781
2.095855184
2.075879941
2.055020053
2.031570402
2.014729777
1.991869505
1.976988882
1.955169702
1.937126622
1.92309403
1.908271039
1.88709539
1.871762539
1.858304288
1.842802606
1.830961967
1.817286604
1.804398173
1.79032474
1.784104875
1.778697275
1.771974246
1.772141758
1.773632185
1.772039817
1.78136102
1.795795913
1.822430793
1.852359227
1.911021157
3.978442093
3.970510974
3.964165267
3.949837429
3.935132058
3.919492953
3.902017818
3.87720845
3.847216442
3.8202714
3.782602044
3.741908047
3.702955492
3.653377644
3.604637832
3.556071104
3.505373502
3.447985721
3.397709308
3.348319497
3.29997495
3.250730024
3.208419724
3.172279564
3.137653262
3.106226969
3.076513006
3.051374882
3.033035426
3.012615304
2.993068009
2.976076035
2.958061512
2.93931644
2.918990295
2.902611771
2.885944718
2.862886841
2.843411917
2.82755055
2.808418601
2.787284475
2.767981363
2.74480427
2.721005372
2.695932118
2.680555943
2.654465174
2.628064277
2.607031181
2.581539848
2.556593192
2.535351643
2.506257047
2.484042875
2.459850926
2.433205514
2.409985323
2.385763666
2.358399646
2.34017132
2.314704555
2.288900218
2.266421131
2.244507611
2.227672659
2.203786302
2.183665402
2.15877708
2.138813795
2.1211396
2.101045906
2.081382538
2.064588659
2.045300032
2.028438926
2.006392671
1.987841517
1.972473765
1.959426578
1.945270048
1.929237804
1.915895998
1.905785982
1.893282688
1.885020801
1.879387218
1.874466122
1.868985956
1.872868482
1.87996998
1.887825665
1.909888374
1.939197974
1.988666869
3.982262919
3.979780271
3.975624335
3.965841598
3.953866426
3.945665376
3.92871916
3.91209155
3.888555611
3.867721448
3.844562968
3.811502949
3.784459112
3.740341419
3.699373336
3.656548284
3.61143727
3.561662381
3.51284726
3.464583041
3.415687899
3.369579854
3.32388194
3.278170158
3.240499649
3.202226386
3.16717708
3.135948416
3.110551694
3.085197927
3.06637344
3.045528896
3.028318984
3.014376164
2.996287918
2.97972799
2.964734668
2.952801436
2.933287636
2.917381428
2.899209866
2.881965534
2.86586658
2.844108208
2.826299728
2.807293217
2.784351612
2.765858833
2.744150439
2.719262361
2.698647663
2.674641099
2.655294416
2.6308037
2.605655159
2.581992533
2.560884383
2.534667819
2.513538563
2.485547556
2.463493708
2.441677163
2.41740524
2.394457368
2.373655047
2.349339286
2.327618198
2.306959917
2.285813155
2.264221185
2.248414079
2.224027857
2.201093569
2.183412858
2.167090864
2.14789822
2.127075831
2.106972333
2.088125824
2.070858197
2.056251773
2.044537763
2.0287581
2.016937604
2.002557681
1.994648667
1.983737734
1.975412529
1.972102776
1.96909515
1.971459736
1.983797019
2.001945427
2.021647599
2.063359676
3.985804319
3.983031449
3.980954494
3.976013319
3.969064733
3.957905424
3.945853487
3.936788505
3.921254048
3.902851048
3.889081649
3.860700144
3.838274208
3.807652229
3.773947545
3.740708762
3.705891188
3.665708604
3.616896797
3.571868498
3.521453554
3.477446848
3.43420606
3.388777064
3.343928355
3.305194537
3.266935951
3.227437399
3.197796881
3.169983316
3.142040264
3.121791004
3.099475549
3.080579313
3.064687068
3.049501776
3.038684981
3.019648909
3.004760085
2.989896549
2.97473106
2.96034665
2.944765173
2.929591562
2.915993811
2.896974369
2.879226309
2.859733683
2.842158843
2.819112328
2.801295829
2.782645539
2.763607944
2.740982661
2.716861996
2.697306334
2.67611588
2.650726359
2.629748861
2.604360199
2.586036763
2.561600017
2.539621318
2.5163768
2.492155144
2.469743198
2.448551754
2.426256948
2.407728819
2.385082688
2.364516481
2.339416272
2.322920846
2.302213123
2.283558002
2.263965608
2.243956093
2.223428078
2.204384624
2.187338673
2.168051538
2.157909598
2.141033081
2.126002774
2.110122594
2.104030923
2.092206302
2.084460543
2.078641655
2.06984828
2.07165808
2.078811262
2.089984253
2.108908358
2.138719387
3.996151465
3.992793094
3.986667382
3.983658059
3.979867147
3.971524654
3.96240985
3.952918824
3.945067998
3.931492723
3.917524172
3.90109769
3.886506636
3.862423621
3.836956658
3.808289247
3.775709149
3.742219939
3.707045654
3.669370956
3.627651672
3.580039665
3.535985769
3.491375103
3.447278213
3.405286638
3.363575559
3.327123052
3.28627049
3.254674764
3.226864873
3.198155765
3.175705888
3.154121175
3.133166577
3.113056247
3.095928434
3.083068352
3.071676179
3.057388453
3.043199246
3.02833934
3.018165129
3.001397553
2.985767394
2.971828256
2.955212791
2.937928623
2.926241904
2.910127219
2.892528858
2.873706181
2.857423245
2.835763962
2.817140828
2.797405957
2.780294734
2.75729452
2.739263
2.717585627
2.693920134
2.670488513
2.652577857
2.632331014
2.607387384
2.585178388
2.562580608
2.542720871
2.520378454
2.501461151
2.478886211
2.456785851
2.438213633
2.419710071
2.399509403
2.381747091
2.358356187
2.334692433
2.317780226
2.299763103
2.282027786
2.265381091
2.249545181
2.233486236
2.220900923
2.209203764
2.19968423
2.188000077
2.177221317
2.172347069
2.17035106
2.172641309
2.17798546
2.190379989
2.220308532
3.997059955
3.993456019
3.989331333
3.988587519
3.987089097
3.981463999
3.973050974
3.965525927
3.961314926
3.95077675
3.940003236
3.926201395
3.913650861
3.903616237
3.883255905
3.865446775
3.83917147
3.812250321
3.779892641
3.748270176
3.71162985
3.675737418
3.635994241
3.598967991
3.55463763
3.509570509
3.466110187
3.427674558
3.387955792
3.346681277
3.310682675
3.27997062
3.249778672
3.225444576
3.200629658
3.176178354
3.158653124
3.142859107
3.127293979
3.112353601
3.099171855
3.090426944
3.076342198
3.06531544
3.050693249
3.039071605
3.029002011
3.014058835
2.998355774
2.987105228
2.972434371
2.954137199
2.938791173
2.92294352
2.907836407
2.891658421
2.874000611
2.855289276
2.835706114
2.81841908
2.79766718
2.776385307
2.75816021
2.739902104
2.714499042
2.694699626
2.673512285
2.652402316
2.631372106
2.612959399
2.59073546
2.570450264
2.550182843
2.530972184
2.50940225
2.485614851
2.470112731
2.450092505
2.435015461
2.412769424
2.394216821
2.376432933
2.362320532
2.343708674
2.328805616
2.314889342
2.304160259
2.288895633
2.280841496
2.273253419
2.270557703
2.270762761
2.272944017
2.278215865
2.299940481
3.999087626
3.995751887
3.997249722
3.996362649
3.991425158
3.988047962
3.985418575
3.983994218
3.970537479
3.96775741
3.960851302
3.951909379
3.941214218
3.927625483
3.915601955
3.89975591
3.885128115
3.863751461
3.842180195
3.818505352
3.788964013
3.756138082
3.719596897
3.685306094
3.64723627
3.609713979
3.568349001
3.525174475
3.489460995
3.445925551
3.405516379
3.371180803
3.335332438
3.301595435
3.274071274
3.248637704
3.223405122
3.203324193
3.185023305
3.171304459
3.156717204
3.142284159
3.129347042
3.113464706
3.104955736
3.093592441
3.082078334
3.075076441
3.063086409
3.049353107
3.03717773
3.025003121
3.011031293
2.998398679
2.984813127
2.9698286
2.955093901
2.937238055
2.921713881
2.907091533
2.888593445
2.869221771
2.853865055
2.832061941
2.812073517
2.792038209
2.775025884
2.756431545
2.737570872
2.717841623
2.696324268
2.677802128
2.657522941
2.637592131
2.616365715
2.596229794
2.576934061
2.558683452
2.541950434
2.52280443
2.501812893
2.482410439
2.465782238
2.448418929
2.435965669
2.418514018
2.405216209
2.394651548
2.381418384
2.375783644
2.368244792
2.363024843
2.36429204
2.370455115
2.385370921
4.001630209
4.001008007
3.996699175
3.998719848
3.995148315
3.990401338
3.985148462
3.984723487
3.983444536
3.977408956
3.970639952
3.961205838
3.953028041
3.950514753
3.941749879
3.92937966
3.915897655
3.897214025
3.884796736
3.866219109
3.843981529
3.819929196
3.791677734
3.761789222
3.728914547
3.69343335
3.665062076
3.623905714
3.580497514
3.549054514
3.508003156
3.465792225
3.426102156
3.391094324
3.35550055
3.325254096
3.296030533
3.270726596
3.247346209
3.227843696
3.210395518
3.193107061
3.179206053
3.164940342
3.15320641
3.142889562
3.131741529
3.122510838
3.112481311
3.101270915
3.094078271
3.082217403
3.074231482
3.058913279
3.049052976
3.038179838
3.024291737
3.011852905
3.003068822
2.986330287
2.971045616
2.952559221
2.937244674
2.919971097
2.903851574
2.889095843
2.870233021
2.854266462
2.833878506
2.813809972
2.794978242
2.776163267
2.75902116
2.738311128
2.720328952
2.701652112
2.681374493
2.660720911
2.645999458
2.630557725
2.609059702
2.589279138
2.570462662
2.556955327
2.542802744
2.518821178
2.50700394
2.496462063
2.482770794
2.47155673
2.468651524
2.459282037
2.457852674
2.460833507
2.46993994
4.001492329
3.99944676
4.000759148
3.99833584
3.999183203
3.999721346
3.996452474
3.992828332
3.986815523
3.983351257
3.981887194
3.976333337
3.969983192
3.963742617
3.95549094
3.94899377
3.941629668
3.92966586
3.918422763
3.9032718
3.885978173
3.869566
3.850760909
3.828862256
3.801342847
3.771524756
3.7388264
3.707529602
3.671888124
3.632328269
3.592621582
3.554767434
3.520493017
3.480544398
3.445647807
3.409970815
3.377468716
3.343768951
3.315754341
3.290987379
3.266911742
3.246366036
3.231903297
3.21784129
3.202408736
3.190379406
3.180831635
3.168801864
3.158208118
3.148855223
3.140445816
3.132044577
3.122075954
3.113240291
3.105259264
3.098181407
3.089448776
3.075889818
3.064957105
3.052686215
3.039472685
3.029268027
3.01396655
2.999805046
2.985383925
2.965922318
2.953271595
2.937659533
2.919951877
2.901491998
2.883865806
2.869023376
2.851901041
2.83496405
2.818526743
2.798091264
2.777880651
2.763267872
2.7449703
2.725777811
2.70715643
2.692725951
2.675164892
2.657856475
2.638966479
2.623309579
2.607009652
2.594897311
2.582354082
2.567637111
2.567034042
2.555406896
2.550377488
2.546963023
2.551146092
3.999656598
4.001286718
4.002747325
4.002015622
3.997322953
3.996761524
3.995706936
3.99613821
3.996208808
3.993090701
3.991467121
3.986936382
3.980875226
3.973079665
3.9722531
3.96510381
3.960063086
3.952417303
3.941766163
3.928887111
3.918337131
3.908018016
3.89682228
3.875949112
3.854762236
3.836117576
3.808211651
3.778611822
3.750763977
3.715044598
3.683997817
3.648860942
3.61144996
3.571800929
3.53273746