/*--------------------------------*- C++ -*----------------------------------*\
| =========                 |                                                 |
| \\      /  F ield         | OpenFOAM: The Open Source CFD Toolbox           |
|  \\    /   O peration     | Version:  v1706                                 |
|   \\  /    A nd           | Web:      www.OpenFOAM.com                      |
|    \\/     M anipulation  |                                                 |
\*---------------------------------------------------------------------------*/
FoamFile
{
    version     2.0;
    format      ascii;
    class       volScalarField;
    location    "0.14";
    object      mctTimeStepRatio_N2cold;
}
// * * * * * * * * * * * * * * * * * * * * * * * * * * * * * * * * * * * * * //

dimensions      [0 0 0 0 0 0 0];


internalField   nonuniform List<scalar> 
6000
(
6.937485055
6.906031267
6.807417334
6.51619331
5.536191091
6.941027331
6.888685456
6.759823532
6.385014996
5.691417812
6.92836771
6.871262917
6.727109563
6.431881224
5.980576621
6.928042467
6.868622439
6.761682001
6.546369375
6.250463585
6.924276219
6.887259915
6.802389267
6.652423974
6.449720716
6.928985443
6.907894731
6.833782958
6.737435353
6.607408956
6.938935994
6.905953776
6.864815185
6.790230558
6.689207996
6.939884994
6.918857257
6.871258785
6.835277075
6.763469647
6.941022117
6.925887319
6.906565525
6.867706663
6.806482604
6.943595224
6.920079623
6.902307841
6.877030027
6.860741724
6.947435146
6.928724596
6.926171171
6.896193106
6.881779242
6.9440596
6.952939429
6.932921967
6.924539796
6.893063866
6.945001064
6.931548681
6.931742796
6.92968567
6.926413467
6.946159667
6.941247789
6.942697112
6.930972635
6.923295756
6.949477924
6.946676972
6.936308898
6.936438575
6.915641967
6.946283872
6.946945911
6.945604875
6.934990112
6.933790361
6.956921557
6.952729736
6.951091661
6.945727415
6.944747259
6.946263327
6.948133535
6.951450671
6.954631588
6.958077465
6.956537944
6.962307229
6.961024412
6.954900298
6.941710718
6.948929712
6.953675351
6.947468128
6.952251911
6.945981192
6.953122667
6.947479744
6.940360729
6.936849948
6.942181343
6.942105877
6.947062231
6.952744126
6.961156444
6.960218529
6.95533153
6.955454697
6.953401256
6.951078687
6.951330248
6.946109826
6.951765461
6.949428099
6.946208468
6.954843674
6.947684933
6.947440076
6.955188351
6.947091514
6.944218894
6.947035401
6.945220225
6.944736488
6.956915782
6.948634586
6.953328837
6.961782293
6.95998564
6.944504527
6.939881953
6.951840846
6.946088519
6.946792738
6.95420907
6.958262829
6.95369028
6.962656738
6.952007988
6.953003844
6.947450423
6.94312099
6.940901601
6.946117551
6.948321431
6.9496402
6.947381217
6.949431266
6.950150911
6.953128448
6.959451337
6.958452796
6.95963879
6.964505527
6.951082029
6.942920513
6.94802356
6.949041124
6.948998972
6.951295923
6.962397433
6.955203605
6.949266855
6.949109158
6.948720618
6.949566823
6.945333935
6.948140828
6.95091826
6.95222136
6.954039435
6.947415191
6.947579176
6.953389852
6.946889415
6.949423425
6.943790358
6.948910973
6.95181276
6.950464031
6.952913864
6.950077914
6.948214668
6.947709072
6.950092921
6.951000406
6.950018177
6.953435776
6.956514981
6.950105259
6.94748074
6.952369933
6.950714766
6.94450209
6.946413156
6.937911227
6.949287401
6.949707451
6.950435021
6.948031357
6.943702501
6.953407311
6.951184363
6.956187125
6.959260915
6.956343788
6.947072595
6.950624696
6.945090187
6.948925699
6.952541334
6.954372421
6.954944389
6.952935681
6.956519929
6.949357774
6.94847086
6.946970121
6.952338346
6.950751555
6.952355213
6.957720968
6.95426105
6.958068446
6.947195591
6.946785862
6.944905095
6.94697978
6.947347605
6.959783851
6.949690476
6.950064399
6.949282297
6.938298547
6.937101362
6.948068237
6.95313213
6.95817338
6.960471053
6.955645783
6.952590344
6.947672331
6.951260584
6.943173419
6.945699405
6.942782801
6.948732154
6.947222955
6.958911176
6.959805445
6.955641749
6.952669321
6.956061325
6.954937022
6.953765932
6.954906217
6.957350815
6.955540526
6.949646425
6.954965805
6.951687556
6.945822498
6.943095591
6.947795569
6.954181483
6.95039661
6.956262162
6.956648084
6.954518939
6.948048157
6.945829693
6.945069718
6.944568983
6.956431383
6.953997058
6.95636279
6.951519366
6.948075417
6.933614003
6.941119124
6.934842687
6.94517105
6.947144283
6.945571809
6.945299893
6.942525543
6.953456241
6.951950059
6.961656565
6.960249637
6.957986653
6.952905968
6.948479273
6.951169187
6.951072699
6.956411733
4.09984598
3.895536941
3.915461269
3.960932521
4.009989115
4.060255245
4.101666318
4.148949884
4.199526851
4.238355228
4.274814936
4.327014047
4.386708475
4.437979088
4.479154476
4.516343737
4.536289184
4.581265723
4.625883115
4.677589456
4.720755915
4.746357166
4.778519489
4.80328045
4.826437364
4.875952053
4.917641765
4.975358398
4.978394259
5.027678057
5.075155823
5.076625934
5.091524991
5.143289686
5.172138267
5.200932753
5.232177962
5.250053731
5.276648533
5.316021829
5.345099093
5.359581361
5.372768065
5.39723544
5.425170446
5.45713836
5.479394832
5.521420474
5.505668581
5.543699695
5.599463606
5.597226872
5.618484024
5.635138755
5.650223333
5.689843193
5.726466539
5.714917076
5.755211844
5.777283183
5.784344173
5.815579356
5.831023667
5.868744659
5.849323466
5.889686696
5.911290072
5.94862643
5.970310683
5.968831015
5.98344071
6.016338305
6.065286608
6.037181278
6.068534392
6.102055564
6.13694797
6.164900268
6.214276518
6.260838881
6.24879819
6.316329102
6.351972756
6.396518937
6.464664525
6.526650798
6.641463773
6.745657766
6.857220326
6.994333566
7.249005984
7.562530812
7.954153443
8.565519149
10.1023006
4.919134607
4.385562352
4.109667206
3.998615812
3.971973616
3.988609294
4.020287794
4.053324062
4.116718757
4.172359933
4.22374132
4.270303276
4.327533843
4.38517415
4.435895311
4.4772367
4.527137409
4.58085556
4.63351478
4.661738601
4.727074359
4.757954726
4.783332403
4.832495372
4.854978337
4.916378228
4.969678158
4.998745635
5.046335054
5.079153382
5.119139027
5.129065744
5.162692066
5.212319575
5.234087845
5.263055643
5.293185251
5.340704648
5.356020971
5.378507103
5.403178892
5.43409008
5.462729142
5.473658134
5.521586001
5.529074164
5.557642837
5.60287973
5.611080911
5.637497745
5.681469849
5.712928091
5.71155478
5.722691062
5.742825611
5.781959636
5.803987881
5.819867413
5.857038212
5.861758406
5.891431678
5.901638386
5.930642401
5.977893851
5.977825899
5.977980931
6.02144198
6.051555469
6.084598913
6.065269835
6.080306779
6.10771579
6.151123688
6.159811113
6.179003691
6.197305328
6.248186445
6.261353958
6.303765588
6.34160493
6.366365661
6.42015312
6.457408946
6.495584426
6.576941777
6.653347269
6.776699752
6.858784743
6.96312938
7.135715827
7.367348998
7.697951529
8.114115983
8.830630417
10.53196118
5.488989708
5.034647052
4.674172976
4.417375542
4.244061801
4.134633032
4.098403803
4.095330187
4.1045605
4.135151474
4.16975558
4.217800657
4.260683442
4.309391297
4.363190759
4.407294184
4.46687815
4.514705496
4.565467467
4.61217505
4.674455342
4.710711593
4.76151014
4.794803022
4.842601576
4.890736235
4.93971131
4.989943707
5.031251312
5.072047968
5.09785705
5.123456893
5.161640265
5.203970727
5.23280538
5.285111002
5.319552284
5.354100541
5.360612307
5.406042749
5.440968173
5.465036142
5.487037438
5.511560007
5.548021135
5.588179977
5.606234638
5.642360516
5.650696163
5.689554116
5.718956996
5.731395585
5.747925911
5.785600395
5.797864784
5.828775813
5.852148615
5.876889351
5.897382954
5.932178443
5.981413978
5.970698879
6.01396934
6.013583139
6.05221224
6.075617419
6.099194152
6.118093291
6.110395901
6.121593511
6.159858238
6.167016937
6.186493115
6.227506674
6.246670459
6.280442313
6.319566501
6.332704826
6.36330603
6.415998348
6.451006434
6.469668566
6.521294042
6.58346415
6.651890411
6.7057417
6.833157194
6.927805675
7.044557163
7.213862729
7.427538233
7.783898862
8.1961364
8.897033583
10.40716477
5.908858871
5.55202068
5.200898662
4.900658129
4.648337096
4.46157021
4.331991088
4.243678509
4.189080969
4.169051269
4.16019201
4.178568258
4.206571375
4.245832103
4.290173345
4.336949886
4.378016059
4.427577155
4.490487101
4.531361045
4.586331642
4.642879735
4.689092474
4.723756928
4.773000701
4.81730051
4.889510097
4.9239954
4.961242353
4.995292575
5.041761472
5.090083879
5.139881438
5.162695829
5.183193868
5.22600481
5.278435581
5.3136523
5.359436908
5.384980764
5.416142404
5.456815694
5.476802909
5.498040385
5.545277989
5.565602582
5.622029828
5.647636143
5.677636864
5.694044373
5.727900607
5.751061882
5.776556038
5.806183981
5.83240136
5.856848113
5.88396828
5.905149621
5.932512352
5.97431805
5.977250648
5.993465296
6.022898467
6.061939132
6.090298483
6.101692263
6.120772807
6.129123289
6.166570604
6.185158437
6.210344228
6.218041651
6.247619977
6.253260326
6.30092758
6.321947377
6.372979968
6.392132552
6.428607277
6.461312269
6.476039332
6.528087251
6.582575747
6.634037175
6.699959786
6.768932224
6.876956257
6.967878191
7.106792447
7.262150563
7.473516767
7.793379186
8.208192368
8.914810184
10.16338633
6.223674966
5.938651621
5.630029197
5.347292702
5.078126577
4.84581479
4.654281467
4.499919401
4.377200819
4.300055621
4.251858938
4.220520515
4.217212314
4.223433571
4.246714163
4.262619215
4.304500988
4.330191341
4.381121809
4.426968882
4.477515504
4.523456657
4.578955983
4.625663616
4.667255097
4.728878216
4.784962123
4.829900958
4.869782346
4.921121407
4.968484727
5.003969649
5.050978374
5.109063939
5.13796971
5.174263689
5.223584832
5.262308554
5.301931294
5.335724969
5.368239893
5.419828505
5.466214523
5.467572097
5.52884721
5.576997013
5.602582081
5.637429218
5.647595849
5.694965491
5.728245255
5.747880689
5.76502872
5.801833007
5.818448473
5.867923217
5.877423561
5.928847997
5.944212362
5.974617779
5.985013165
6.0055412
6.008712983
6.044119576
6.094387602
6.113733192
6.134291823
6.152101032
6.175780715
6.218600515
6.233294121
6.250347821
6.275939055
6.295047712
6.311028488
6.338761724
6.395402962
6.399317715
6.459327242
6.476217192
6.519770158
6.549877115
6.61705131
6.663191589
6.742245188
6.808879617
6.893790666
6.994549546
7.137683539
7.318373039
7.510544189
7.793303102
8.179824103
8.783515951
9.898063751
6.432249288
6.217089818
5.987693408
5.751886036
5.495096966
5.247830401
5.025626034
4.833200782
4.663958804
4.536233454
4.42536526
4.354452071
4.294266218
4.267644914
4.253406503
4.256297888
4.271874794
4.293267427
4.31767798
4.339666032
4.375757617
4.417138224
4.467437679
4.522950559
4.572072275
4.619947159
4.661630133
4.725935773
4.766169375
4.818892829
4.860647522
4.8998222
4.949099956
5.002907452
5.040634884
5.090440348
5.138984435
5.186622044
5.217034636
5.265055515
5.311880121
5.362810704
5.384962118
5.423833497
5.475589599
5.497361955
5.535523868
5.561615797
5.599706987
5.643204126
5.684585657
5.716088681
5.735453132
5.789653916
5.818651338
5.850669518
5.87042331
5.910661762
5.941351324
5.958267474
5.96268925
5.991777352
6.032043479
6.04442109
6.090292807
6.126537668
6.139841242
6.153475748
6.176360195
6.217146679
6.242522647
6.261842068
6.282938096
6.317694701
6.334034696
6.365647924
6.385677694
6.415228227
6.444602399
6.47467483
6.522528579
6.576444561
6.633713892
6.68609517
6.743598998
6.814634076
6.885262607
7.008744239
7.155121016
7.299140107
7.513622843
7.738117806
8.108471665
8.691411127
9.588542456
6.578616792
6.422824966
6.247890431
6.044242624
5.833768716
5.623876402
5.393642795
5.191016812
4.990120809
4.829898797
4.682601435
4.555473222
4.459857669
4.376264263
4.332443162
4.291634664
4.275149302
4.266693684
4.276114395
4.295889993
4.312201049
4.34050123
4.370664318
4.412497298
4.464680361
4.509059944
4.554098716
4.594667428
4.641682889
4.701210511
4.746645491
4.801078744
4.843108578
4.881858374
4.935955663
4.996197782
5.032304859
5.069587443
5.135466057
5.184952544
5.222325453
5.258835378
5.292036316
5.33864579
5.389524136
5.433714772
5.461190702
5.495671504
5.53545851
5.572203032
5.615740184
5.64138706
5.682403412
5.717241919
5.754689736
5.784275631
5.826077007
5.844343717
5.891132547
5.916022615
5.960878033
5.971312175
6.015842813
6.018975753
6.054768372
6.095256987
6.106653892
6.130195432
6.169738994
6.198846565
6.224854665
6.23986419
6.282375088
6.319336775
6.340810121
6.356825598
6.373348577
6.403661798
6.439384617
6.468793943
6.515800194
6.570121227
6.620723776
6.679421736
6.725879386
6.812928869
6.898665959
6.983354536
7.127460642
7.268638952
7.458075628
7.704588921
8.03965343
8.56785243
9.345053443
6.678161857
6.572402811
6.445389224
6.294477529
6.127043704
5.928953298
5.74275998
5.533469192
5.335968068
5.158234896
4.974451236
4.823878955
4.683077278
4.564941336
4.460475423
4.399299018
4.351166598
4.315318283
4.293330628
4.282058497
4.288159375
4.284786928
4.30985366
4.339032319
4.368861906
4.402398665
4.443643917
4.483501432
4.524566174
4.581593654
4.62280264
4.664118478
4.717654999
4.760512334
4.80887085
4.861154148
4.918090475
4.947788481
5.009269892
5.045648044
5.09096615
5.135319175
5.194508251
5.239209732
5.275589509
5.323221911
5.357919511
5.400289825
5.449386519
5.469157251
5.534855245
5.572166663
5.60698578
5.652532719
5.681958643
5.717970375
5.752690921
5.788390803
5.846788358
5.87029023
5.883377111
5.913364948
5.945368604
5.977869545
6.008373377
6.027093248
6.075455916
6.110502522
6.137938803
6.16450889
6.190595441
6.224769913
6.242410868
6.289111535
6.31324845
6.32669721
6.348703819
6.370738039
6.41350955
6.472564273
6.510975432
6.538545785
6.615906112
6.657781889
6.729655458
6.798158807
6.878989935
6.986821321
7.079794784
7.237627615
7.389042354
7.636864013
7.945051024
8.388598584
9.05200749
6.764379192
6.676981323
6.565952766
6.456069582
6.33441051
6.186520151
6.031718635
5.849692145
5.652733143
5.473657276
5.294398459
5.123738358
4.960372559
4.811974068
4.683201746
4.57691183
4.491022559
4.419623997
4.362412491
4.318010564
4.300143974
4.292234143
4.288255588
4.282259716
4.311546742
4.32931566
4.35004263
4.389462749
4.424562502
4.460949784
4.506524043
4.545543871
4.595875663
4.64017422
4.678852253
4.730824217
4.789074854
4.844276456
4.885678339
4.933940258
4.986616774
5.030972791
5.083543953
5.121123797
5.164386898
5.208868495
5.259514411
5.302405101
5.353420046
5.386659244
5.431777271
5.480260722
5.52445692
5.556387265
5.588980466
5.634370647
5.67553745
5.715943889
5.757578916
5.791220327
5.824517401
5.859406364
5.881253347
5.914920897
5.958828597
5.970151956
5.990013162
6.032030306
6.084486176
6.097545624
6.135997758
6.159205899
6.193457464
6.217924567
6.251679707
6.289818866
6.325554563
6.358020646
6.404271131
6.43032026
6.460709824
6.52370741
6.555198686
6.620903788
6.69302284
6.729176766
6.828243453
6.921045958
7.055148693
7.170591685
7.338789494
7.52229622
7.825185505
8.187963796
8.774647892
6.827815159
6.772162429
6.701842875
6.62228173
6.522684534
6.390795154
6.250593286
6.114227046
5.94945896
5.774220746
5.605629107
5.432419797
5.259474343
5.099109206
4.937103499
4.807119191
4.693365899
4.58526392
4.501243063
4.438042748
4.378503266
4.326454578
4.307268654
4.292353976
4.279113517
4.28818636
4.303225921
4.314700172
4.332351113
4.366561846
4.399398142
4.435691609
4.47235559
4.527775312
4.568808561
4.609786072
4.659977492
4.702061265
4.752289799
4.809805071
4.850682486
4.897700651
4.947216274
4.985169733
5.042791912
5.085723563
5.146473073
5.182969305
5.220336476
5.262128169
5.309946151
5.356542767
5.399147781
5.430663895
5.475405404
5.523753999
5.576496052
5.628599154
5.664444299
5.697727192
5.729744648
5.764717263
5.793091868
5.824916687
5.876803955
5.913045925
5.934805198
5.959125851
6.003713726
6.036459933
6.065863953
6.092339001
6.119530193
6.165683371
6.200172322
6.235030026
6.272045932
6.312645678
6.334379606
6.377578004
6.423568495
6.476595835
6.527020977
6.5622587
6.624934039
6.693836858
6.774822529
6.853485321
6.948362776
7.076176402
7.229084669
7.427411124
7.689702934
8.027900559
8.517465221
6.852686496
6.824849966
6.772076656
6.692935644
6.621509015
6.529617953
6.43812791
6.332130122
6.193033296
6.050410586
5.897390986
5.730698817
5.564255432
5.41480057
5.246129375
5.091842124
4.944862296
4.809569069
4.697039927
4.599808328
4.514061019
4.44632394
4.390293864
4.345494334
4.313662779
4.295449475
4.28173634
4.2740341
4.282175686
4.299399183
4.319641524
4.35292031
4.384131645
4.410863338
4.446647328
4.480493839
4.531200317
4.572042119
4.616807917
4.669482956
4.716313263
4.760365646
4.805699003
4.862195414
4.907542253
4.960088376
4.998758041
5.050030019
5.087908839
5.133683885
5.178299127
5.229849291
5.273740524
5.319399795
5.358191436
5.399877458
5.451953936
5.50886799
5.550345287
5.579802343
5.625738377
5.65886846
5.685705861
5.72840008
5.760588109
5.812905339
5.840469189
5.886214912
5.92148465
5.959959885
5.982001828
6.023849455
6.061961327
6.097968796
6.127785189
6.170654636
6.205558057
6.222314027
6.265797852
6.32015599
6.350915569
6.393882753
6.450024244
6.512406549
6.572792305
6.625534386
6.682146365
6.785572875
6.870688398
6.997213257
7.142407702
7.332325673
7.553912852
7.848810294
8.282838079
6.87344659
6.83445969
6.807261811
6.770737046
6.722645797
6.673960393
6.586022713
6.49194027
6.389473619
6.2773633
6.155928907
6.021511013
5.868182245
5.710631839
5.545544645
5.392013516
5.235136325
5.08461374
4.935978654
4.815757299
4.704462293
4.597006712
4.511814127
4.440729439
4.386850554
4.349686257
4.316099435
4.295801025
4.278353542
4.274518883
4.27985923
4.287728701
4.298867835
4.328150986
4.359203662
4.385391894
4.423561713
4.471285928
4.502018097
4.544408144
4.585517262
4.638588213
4.679160067
4.722669364
4.762516516
4.823223055
4.870794482
4.912417754
4.960093996
5.000482061
5.050071481
5.103611437
5.160106583
5.198830814
5.24111281
5.288151237
5.330252662
5.371978169
5.424615633
5.463707493
5.501330676
5.526154493
5.563094774
5.619532134
5.673083326
5.706069648
5.743880875
5.783922055
5.820787147
5.858185743
5.904995735
5.939201296
5.978332324
6.018351764
6.057284022
6.082334719
6.114483124
6.168387182
6.188303809
6.234278473
6.277969318
6.324528007
6.37737567
6.423560022
6.476511748
6.535362939
6.606269102
6.684772091
6.784657892
6.905156144
7.049554858
7.202647226
7.390809935
7.644853913
8.036590894
6.907009968
6.896121543
6.870389932
6.834522415
6.787547496
6.732462406
6.677976939
6.612467772
6.538155489
6.444001372
6.343518626
6.227218031
6.106079025
5.964505736
5.8258373
5.666228146
5.520864695
5.365771222
5.229526549
5.072861037
4.945891599
4.818373989
4.708022472
4.607725467
4.519686416
4.452306183
4.398192461
4.359480725
4.317198881
4.292852813
4.271857031
4.274466249
4.273502615
4.284990843
4.297921615
4.313058254
4.336924678
4.371532595
4.402423075
4.431567394
4.4673236
4.511914108
4.548104118
4.586759676
4.639700226
4.685442663
4.730887394
4.774676297
4.818321656
4.875774433
4.913819473
4.9728519
5.011912796
5.070894002
5.112156288
5.151732713
5.202784389
5.253063058
5.285192903
5.32883913
5.365694143
5.411666267
5.467694619
5.504923018
5.550317408
5.588285649
5.625773038
5.667662614
5.706511079
5.730133926
5.78960547
5.834307027
5.874983316
5.897633757
5.956707632
5.993058613
6.026055167
6.070222747
6.115813486
6.152791921
6.193668591
6.231055119
6.278079381
6.336680475
6.385357393
6.454306216
6.517506802
6.590264302
6.678041764
6.783385722
6.888844687
7.056413597
7.260551767
7.473635196
7.806778845
6.919284741
6.906022391
6.888215605
6.85391025
6.830627021
6.794003901
6.746847692
6.704985687
6.651769064
6.577711821
6.48974762
6.402934717
6.306833685
6.194964053
6.077124341
5.943292581
5.81006353
5.663131678
5.50808144
5.363393102
5.219869196
5.077240501
4.946659841
4.833293711
4.709431487
4.614294786
4.528855464
4.462815545
4.402978476
4.352797516
4.315087364
4.290079785
4.274908987
4.259707779
4.252144863
4.25831412
4.272138773
4.285282875
4.317212127
4.343932441
4.376417659
4.408724339
4.446849299
4.479069633
4.513819364
4.5654492
4.609748687
4.643866289
4.692402202
4.741572227
4.783196332
4.837290481
4.87902134
4.920619787
4.971423662
5.007298978
5.05646071
5.106732544
5.152376274
5.2010388
5.243386545
5.286907071
5.334946764
5.373449997
5.404312351
5.45590231
5.503939575
5.542616846
5.583674935
5.631296455
5.662903164
5.719864202
5.760998198
5.810076319
5.851559335
5.904215147
5.922743878
5.968033003
6.015538659
6.057508272
6.099506052
6.132218157
6.182965484
6.228834658
6.289940116
6.3598145
6.412790783
6.497637929
6.557379359
6.638533288
6.767108164
6.916588602
7.082936102
7.28729829
7.567552687
6.911177213
6.90393207
6.900988593
6.879142516
6.865921004
6.841086785
6.816380949
6.77326742
6.727312738
6.688702299
6.627892432
6.550869814
6.473381364
6.376830342
6.277003522
6.171907546
6.048823498
5.913647749
5.780901601
5.638440386
5.498752387
5.349544504
5.209723855
5.076001826
4.953394597
4.829424178
4.719029326
4.61717209
4.536845177
4.467224372
4.403221906
4.351386987
4.311197605
4.278974204
4.258089798
4.250635433
4.246890588
4.24676973
4.249692828
4.271618066
4.294410716
4.322607729
4.357474124
4.384842172
4.413236327
4.444629075
4.497447148
4.534022592
4.567007701
4.612590425
4.64921846
4.691811102
4.741352167
4.786207655
4.830114706
4.874992626
4.917135965
4.96711218
5.01441329
5.059126044
5.111902484
5.151545526
5.178965145
5.23835474
5.283940726
5.338637587
5.37641413
5.421676772
5.461625989
5.507836643
5.55664414
5.593785662
5.638571417
5.693488456
5.743981761
5.785188755
5.817227187
5.846657316
5.893571485
5.928803095
5.970933886
6.021990995
6.064895898
6.116607202
6.167437493
6.228910515
6.296823531
6.36921941
6.444325981
6.54355868
6.630479086
6.733159115
6.903948834
7.08786134
7.350222337
6.924537952
6.924508999
6.917282845
6.911026242
6.893503338
6.88624121
6.87156851
6.849347967
6.815881083
6.771347232
6.720144828
6.67713654
6.627987912
6.54723854
6.463948983
6.37032214
6.275194921
6.15798161
6.039263183
5.912792787
5.780725983
5.645234189
5.502312605
5.361658336
5.218694602
5.085896934
4.953629482
4.833552994
4.721351883
4.625783026
4.538296294
4.466713834
4.407210028
4.361127445
4.311382649
4.278753825
4.256937184
4.24528181
4.239082652
4.239923948
4.246175114
4.258644019
4.277716186
4.2976479
4.324740983
4.353146846
4.379867979
4.419696225
4.457025954
4.493735292
4.53761345
4.573648912
4.620119528
4.661244186
4.69922114
4.748708015
4.791848548
4.829970147
4.877522761
4.918198709
4.959158547
5.015994377
5.058934745
5.100038545
5.151533044
5.198988817
5.246308413
5.294085031
5.337642137
5.377102031
5.426260041
5.466431275
5.50726215
5.557874657
5.610621719
5.65105942
5.688569822
5.728780764
5.764235755
5.814791567
5.864612852
5.901942659
5.948143454
6.002296272
6.054444789
6.12415066
6.189790404
6.256653234
6.331224735
6.4001548
6.486956822
6.612931526
6.75252179
6.899021434
7.113884569
6.939636311
6.93185178
6.932066595
6.92165521
6.916035558
6.89489332
6.880790182
6.855809071
6.831953079
6.813240909
6.787610274
6.744715076
6.692889836
6.633559328
6.576492391
6.514202293
6.440288757
6.357536361
6.246578551
6.136132028
6.015289152
5.892302938
5.771686611
5.628156156
5.486112924
5.354437476
5.215355774
5.080069628
4.956467557
4.845578174
4.733339349
4.638665546
4.5432962
4.466166946
4.408432126
4.356076776
4.318847398
4.278793312
4.254706361
4.231024768
4.222072821
4.224546316
4.228185714
4.244511626
4.262557619
4.28067784
4.301736457
4.325981703
4.355424449
4.382741415
4.4193357
4.458200384
4.492793173
4.536167098
4.574530651
4.620221585
4.664096763
4.704846382
4.748830511
4.790090282
4.842550795
4.88230909
4.93011544
4.970608814
5.009855345
5.05141592
5.104717905
5.156392485
5.206260584
5.247955005
5.29834846
5.33475728
5.38153193
5.414465053
5.465703108
5.515783291
5.559403953
5.596511733
5.640689148
5.68425876
5.72908704
5.800947896
5.844159656
5.884592938
5.933364271
6.002633251
6.05033164
6.120308074
6.179239833
6.247213424
6.342527527
6.443191059
6.562884998
6.720313165
6.898827894
6.955571588
6.952239078
6.946558626
6.936751687
6.925583592
6.909287152
6.904782713
6.894576576
6.877940949
6.856202811
6.839201289
6.811539525
6.783469546
6.738636606
6.696026509
6.634003071
6.572364952
6.500104414
6.429760259
6.350396567
6.245446621
6.137320162
6.015735256
5.894558728
5.767373004
5.633211751
5.499657444
5.36577832
5.220383041
5.098697879
4.970513049
4.851254686
4.750727843
4.661115324
4.563093789
4.483300659
4.416118356
4.361851295
4.319856358
4.278852919
4.255658996
4.227578833
4.22574932
4.214789245
4.218233474
4.231811514
4.243098308
4.254791447
4.280034883
4.300794481
4.331832032
4.361607103
4.397560216
4.423946603
4.458218034
4.492998369
4.53869915
4.575873425
4.62119848
4.663204961
4.702163599
4.739579689
4.786651837
4.832649012
4.88066846
4.927817171
4.966666059
5.013865281
5.061791127
5.117294687
5.157574823
5.19802509
5.242034142
5.29708613
5.342390309
5.38607372
5.427428573
5.4644934
5.510016931
5.558144854
5.604750702
5.653491154
5.707809248
5.756111213
5.808850384
5.864661571
5.931903117
5.980010819
6.053139907
6.124655181
6.208803482
6.302129039
6.401776514
6.518261912
6.689189797
6.936596472
6.931792655
6.927791123
6.937636498
6.940346576
6.933576747
6.918507821
6.912161192
6.903223643
6.883448067
6.859931525
6.840763529
6.82990755
6.813431325
6.772163972
6.74059905
6.688654216
6.627049
6.568679348
6.493295582
6.409770608
6.323993985
6.222232834
6.129469917
6.015590641
5.888345461
5.755636116
5.630861635
5.50200447
5.360050191
5.233231333
5.105922426
4.984069753
4.862370921
4.759593825
4.653052272
4.571981192
4.496453191
4.430280326
4.36524028
4.319756192
4.284620309
4.24581255
4.227665819
4.209263987
4.195043015
4.203665513
4.21297597
4.223598712
4.242338066
4.257693823
4.278383837
4.305372094
4.331344947
4.364703779
4.396079874
4.431170944
4.463219
4.503619189
4.54388235
4.579156063
4.623348563
4.664242775
4.715261899
4.747351681
4.787908809
4.831113727
4.874887475
4.921935143
4.96998099
5.014342932
5.065472577
5.11426146
5.154803399
5.199635885
5.242199673
5.288622271
5.335273856
5.390875808
5.427714434
5.471480431
5.512774969
5.573021304
5.619504084
5.666736097
5.714190302
5.773236862
5.824592242
5.899662987
5.960625367
6.036639232
6.126006007
6.219739721
6.324981955
6.470803521
6.942113806
6.939203886
6.937834
6.93120584
6.923398993
6.930269881
6.926818385
6.918921253
6.904415986
6.894990975
6.888345042
6.880143173
6.865496112
6.834800383
6.817114842
6.78494339
6.771800986
6.729100825
6.680372821
6.637113348
6.570592047
6.498168169
6.417971808
6.331344273
6.237976429
6.135366755
6.022476884
5.901161256
5.780928774
5.642922349
5.507937927
5.381251359
5.248578534
5.118909101
4.997811944
4.883355804
4.769106393
4.666661252
4.579186477
4.50461525
4.434199716
4.372487271
4.327134731
4.276640307
4.247584502
4.222552083
4.199638532
4.193713163
4.194724377
4.192402849
4.208135319
4.220223093
4.234785524
4.261366004
4.286260919
4.310313531
4.342092932
4.374214821
4.407093954
4.445795607
4.484307733
4.515094738
4.556311494
4.585797686
4.625488413
4.665266407
4.707835916
4.754665255
4.79304455
4.83756728
4.88415006
4.923671821
4.973395118
5.015498233
5.055435291
5.099501595
5.15450995
5.200162968
5.254138731
5.29859351
5.340593354
5.387618012
5.427297116
5.476803144
5.529193736
5.579661291
5.638721974
5.694602536
5.736687756
5.81262496
5.882204455
5.957600203
6.050084144
6.155918651
6.286543113
6.961692551
6.952515126
6.952610586
6.952133338
6.949386123
6.934004063
6.925444529
6.92669682
6.925524858
6.922334028
6.908964185
6.89274894
6.871148537
6.866234936
6.858595613
6.835031581
6.793557926
6.766286997
6.741891445
6.704069853
6.669547477
6.612719567
6.557233697
6.493766816
6.417760645
6.340481586
6.253855249
6.149612639
6.028403537
5.925727472
5.794083764
5.661099235
5.522345432
5.395013018
5.25965382
5.130621104
5.007155464
4.891143896
4.779637826
4.680700321
4.59117539
4.510011975
4.436839023
4.378883832
4.324736901
4.284832468
4.253163097
4.223292402
4.199227969
4.19623326
4.187195252
4.188100904
4.197097357
4.207489461
4.222956369
4.249886343
4.270816007
4.29342453
4.3247769
4.347894608
4.378600942
4.409303939
4.4444089
4.479694036
4.512663727
4.556670961
4.597017844
4.637445835
4.671200678
4.713623353
4.756433562
4.802115117
4.844416357
4.884530475
4.929787103
4.973327456
5.014417368
5.058617243
5.103882899
5.162153308
5.20035087
5.245301994
5.284156929
5.340197888
5.391629964
5.428331036
5.48136206
5.544755331
5.607572482
5.665242348
5.74315253
5.809992828
5.893723849
5.983837428
6.091375425
6.949341134
6.944939904
6.942838122
6.939990505
6.946086931
6.953433723
6.947948881
6.94346018
6.931616055
6.923048434
6.920320819
6.91727139
6.899792376
6.893688102
6.877757348
6.868634104
6.858700827
6.841866059
6.813004312
6.785299159
6.746532279
6.707604648
6.668115157
6.616521411
6.560817694
6.485043313
6.407978231
6.32834204
6.245828763
6.142494935
6.030324497
5.911775155
5.793687374
5.66303157
5.533544567
5.40529851
5.272860504
5.143605433
5.019461836
4.905552966
4.792961276
4.691723259
4.601011095
4.523076176
4.449148288
4.390627064
4.336694582
4.290589658
4.248785798
4.219556419
4.196596742
4.184957266
4.17667029
4.177530914
4.184840993
4.190945017
4.204493474
4.222144587
4.245730189
4.266100429
4.291596489
4.323162554
4.352877966
4.38592859
4.421249114
4.446372186
4.48348688
4.520395047
4.560265287
4.596013393
4.633975848
4.676453668
4.721177432
4.758734768
4.799618539
4.838448158
4.87842691
4.92923708
4.975982803
5.017797234
5.061754996
5.112980825
5.165778195
5.19920786
5.251989437
5.301773208
5.350947825
5.406477676
5.45926331
5.515943066
5.598586435
5.656010398
5.728350055
5.815224917
5.906759576
6.957747932
6.95802137
6.964266344
6.962087215
6.952180625
6.942462034
6.939229861
6.934570849
6.940493198
6.938038863
6.927545369
6.924616222
6.916118487
6.904250491
6.895495629
6.891612404
6.881328207
6.86609416
6.845043791
6.822666877
6.805797191
6.79229879
6.757479751
6.722107317
6.674478002
6.621000641
6.559864107
6.483267753
6.406944618
6.324185897
6.242797871
6.139393502
6.033548845
5.925020636
5.802211278
5.674968107
5.546712562
5.418371566
5.28814022
5.16257696
5.042621236
4.918684735
4.80944007
4.71282235
4.611506895
4.526443557
4.457800709
4.395894006
4.34203271
4.293413979
4.255645942
4.221904331
4.199670417
4.184432697
4.17819009
4.181978804
4.179943059
4.185292569
4.192948097
4.208099836
4.229302646