/*--------------------------------*- C++ -*----------------------------------*\
| =========                 |                                                 |
| \\      /  F ield         | OpenFOAM: The Open Source CFD Toolbox           |
|  \\    /   O peration     | Version:  v1706                                 |
|   \\  /    A nd           | Web:      www.OpenFOAM.com                      |
|    \\/     M anipulation  |                                                 |
\*---------------------------------------------------------------------------*/
FoamFile
{
    version     2.0;
    format      ascii;
    class       volScalarField;
    location    "0.14";
    object      mfpCellRatio_N2cold;
}
// * * * * * * * * * * * * * * * * * * * * * * * * * * * * * * * * * * * * * //

dimensions      [0 0 0 0 0 0 0];


internalField   nonuniform List<scalar> 
6000
(
0.9654879435
1.150033941
1.375936372
1.663686046
2.025640697
0.9667536158
1.152757252
1.382407124
1.676052067
1.991883945
0.9645619962
1.150167953
1.378749264
1.662536935
1.93621923
0.9654447986
1.152074387
1.376876366
1.655725494
1.899648649
0.9655444812
1.151712973
1.376386895
1.648002803
1.865049933
0.9656247341
1.151946196
1.372418338
1.64250382
1.833072171
0.9660699411
1.149455039
1.371348992
1.634694501
1.799314197
0.9647814905
1.148532919
1.366678496
1.630123498
1.773780174
0.9647266926
1.149472697
1.368311628
1.628927716
1.747548463
0.9639798709
1.145959402
1.36395246
1.623487047
1.727437651
0.9650506795
1.147153885
1.366769845
1.624214503
1.703963144
0.9653440131
1.150059992
1.365168653
1.624723718
1.681956908
0.9648086587
1.146156897
1.364341477
1.625659778
1.663885865
0.9648401185
1.147602959
1.365748339
1.623224258
1.641360475
0.9642295507
1.147090051
1.362670656
1.621946351
1.6188526
0.9644235849
1.146834976
1.364917366
1.601938269
1.603551126
0.9655996702
1.147750337
1.36625702
1.585075556
1.585238042
0.9639747538
1.147210246
1.36426659
1.566833343
1.568866025
0.9645074638
1.147440269
1.364782262
1.54737751
1.545851077
0.9642704822
1.14736383
1.363533644
1.529061703
1.52796728
0.9642103
1.14590893
1.362198798
1.508668349
1.509764801
0.9631570556
1.146416509
1.363873061
1.494229566
1.494769708
0.9653734711
1.148426206
1.364996838
1.476596069
1.477371838
0.9642844022
1.147308382
1.364539815
1.458235527
1.45988092
0.9646409823
1.146530913
1.365119575
1.441341754
1.441973927
0.9642039867
1.146477881
1.364292691
1.426935731
1.425378367
0.9645502481
1.148228709
1.365476506
1.406876546
1.406454283
0.9650298513
1.146500921
1.362731963
1.391978987
1.392546914
0.9651338979
1.148299963
1.364431502
1.375972323
1.375055042
0.9636767901
1.14609571
1.359421071
1.359431594
1.359812225
0.9644608115
1.146948406
1.343220878
1.343027336
1.34438117
0.9648211806
1.147440741
1.329366022
1.327790557
1.326463954
0.9638395588
1.146799577
1.311526221
1.311492497
1.313261635
0.9650087845
1.146335131
1.296292306
1.296220367
1.297317933
0.9637800716
1.146738174
1.282468629
1.282450232
1.282430958
0.9644396276
1.146817703
1.267496803
1.266793331
1.267777278
0.9643598948
1.147453175
1.252695538
1.251940224
1.252547561
0.964615021
1.146677631
1.237486282
1.236882555
1.237016373
0.9641926761
1.147230046
1.223963094
1.223132074
1.222918166
0.9637642699
1.145800922
1.207088285
1.207744281
1.206446186
0.9640998847
1.146820708
1.194885988
1.194559296
1.193666712
0.9647232012
1.146696134
1.180840466
1.180841044
1.18062099
0.9644534633
1.146696628
1.165992129
1.167049047
1.167635879
0.9650436633
1.147947142
1.153481946
1.153902749
1.152752534
0.9632793598
1.138357385
1.139247554
1.138947534
1.138857295
0.9647409197
1.126292931
1.126699002
1.12581348
1.125731697
0.9641225137
1.113124439
1.113154376
1.114770304
1.113482223
0.9642971577
1.100590464
1.099333402
1.098701599
1.10025889
0.9648198086
1.087826013
1.088184114
1.088069575
1.08750573
0.9637569071
1.074649474
1.073717673
1.073980169
1.073645931
0.9642973267
1.062263705
1.063546241
1.063633777
1.063002296
0.9648020163
1.049954272
1.049903382
1.049481706
1.050153891
0.9652458255
1.03833058
1.037228183
1.038203033
1.037332189
0.9637052162
1.024385067
1.024791564
1.025520537
1.02528719
0.964849855
1.01378248
1.013997454
1.013246513
1.013287619
0.9649829078
1.002091147
1.003497215
1.002871925
1.002994341
0.964921162
0.9900592861
0.9885006394
0.9894137415
0.9883387446
0.9639170968
0.9777527698
0.9776439856
0.9777578691
0.977148612
0.9657098665
0.9676926533
0.9685887471
0.9682576346
0.9684038128
0.956228475
0.9557595533
0.9562193807
0.9560443308
0.9565533937
1.860518914
1.804752452
1.820643773
1.835522029
1.844946497
1.848313038
1.845729684
1.844460189
1.841694008
1.834604215
1.825174637
1.820887035
1.823455959
1.820644999
1.813582384
1.807214867
1.78826046
1.7848846
1.780627098
1.779867431
1.775957887
1.764679987
1.757615625
1.745964151
1.733487588
1.731760067
1.729052702
1.730100406
1.714104533
1.713079747
1.712126612
1.694089552
1.681600535
1.683724021
1.677643532
1.66896384
1.663436389
1.653108492
1.645596641
1.645328541
1.638022732
1.626963937
1.617163525
1.608618425
1.602645065
1.594009136
1.586482191
1.585940452
1.565781873
1.563000994
1.568338822
1.552311958
1.544394711
1.535067199
1.525115419
1.522687159
1.520399285
1.504802164
1.502180509
1.495033857
1.48455732
1.479863568
1.46984928
1.469469692
1.449350712
1.448326974
1.440465705
1.439424626
1.432153045
1.418490331
1.409869086
1.408067294
1.409753309
1.390337765
1.384607894
1.380792762
1.377525643
1.372158151
1.372620541
1.373145817
1.35587843
1.360947422
1.356952508
1.355009256
1.361115046
1.363067527
1.377211902
1.385773524
1.397472385
1.41290359
1.452548528
1.506263299
1.572335989
1.680047313
1.940200468
1.936842569
1.81727132
1.730925286
1.694137505
1.691386335
1.702959061
1.716718045
1.72883062
1.748431061
1.762638564
1.772815391
1.780185876
1.787524844
1.794200524
1.799375465
1.798172452
1.80089488
1.804277269
1.805877167
1.799059297
1.805722676
1.799809475
1.790474411
1.789874898
1.77897516
1.783884052
1.783758624
1.779497714
1.776032506
1.769305322
1.766560831
1.752316506
1.745990983
1.746945399
1.737010516
1.731610035
1.723021898
1.722588225
1.710521852
1.703020913
1.694807728
1.688597143
1.68070883
1.667779628
1.668554419
1.655285937
1.647338164
1.647536215
1.636064625
1.630392746
1.626141938
1.621814017
1.606715805
1.594681427
1.586045886
1.583264748
1.576005683
1.566508769
1.562256704
1.550032736
1.543298134
1.533871278
1.529063
1.528630153
1.513909264
1.501765641
1.499961547
1.494541562
1.490406074
1.471880137
1.464966064
1.460121014
1.456991087
1.447154036
1.437679282
1.429555448
1.430551582
1.420335842
1.420172822
1.415399782
1.408547094
1.411294454
1.405690491
1.402091412
1.408063238
1.411455834
1.428093641
1.430478783
1.439569709
1.462329723
1.495989
1.54968409
1.615060062
1.730867167
1.980981842
1.929198612
1.876569771
1.804927916
1.738617704
1.686515478
1.648601954
1.636271985
1.636406817
1.642321329
1.652724404
1.665313665
1.679690241
1.691777549
1.703724399
1.716305702
1.725667056
1.7380292
1.744549873
1.750452948
1.756071726
1.764224968
1.764678102
1.767035646
1.766722937
1.768976555
1.770796707
1.773768063
1.774676079
1.773815456
1.770365728
1.765212397
1.758689638
1.754368567
1.753865696
1.748157664
1.748831619
1.746206438
1.741780146
1.727280468
1.727194404
1.722076019
1.711747799
1.704199441
1.695560403
1.692848504
1.68971496
1.682010905
1.676264551
1.665988729
1.662161831
1.656613088
1.64515533
1.635194365
1.632893098
1.622232813
1.616049292
1.606730191
1.600052504
1.591294807
1.588829405
1.59047123
1.572940835
1.572673958
1.557338466
1.553420794
1.546326291
1.539894748
1.531496029
1.516326354
1.503964331
1.501930057
1.492182686
1.483477888
1.480944498
1.472035752
1.468572123
1.465542313
1.453488255
1.449452981
1.449784041
1.445431939
1.437864664
1.436996946
1.43652567
1.437790687
1.436738423
1.453544353
1.460571702
1.469268769
1.489949376
1.518811596
1.574587548
1.632345646
1.733781416
1.942833551
1.902980428
1.884936318
1.843344203
1.787771222
1.730537535
1.680885423
1.635582792
1.603809438
1.585272921
1.578738332
1.576944145
1.582500364
1.59194658
1.603629249
1.6164133
1.631499296
1.639947983
1.652446875
1.667955053
1.67472831
1.686690866
1.69842337
1.705012108
1.707579507
1.713099074
1.717817703
1.729054834
1.728992125
1.728711626
1.727577628
1.729954935
1.732811231
1.736498145
1.730492161
1.723086253
1.723799737
1.726268433
1.721994684
1.724228029
1.717752309
1.713259044
1.711362455
1.702803879
1.695770385
1.696218167
1.687895303
1.69134638
1.684544331
1.679645959
1.670019756
1.664338437
1.656215476
1.652377995
1.647689861
1.639924958
1.632055577
1.626117852
1.616894108
1.610942525
1.608984692
1.597599699
1.587543674
1.583691158
1.579841781
1.573753505
1.563508138
1.555297466
1.544814493
1.541407696
1.533620411
1.529120115
1.516032996
1.509320281
1.497673401
1.49617419
1.489943016
1.489667031
1.48089916
1.477170911
1.472282224
1.46142084
1.463333895
1.461166368
1.459239085
1.46149984
1.461906623
1.471544166
1.476983475
1.493142609
1.510020239
1.534382582
1.579324571
1.635192546
1.732008195
1.891951307
1.870370387
1.868493476
1.844413405
1.810795937
1.766725127
1.717274955
1.672541854
1.62604849
1.584929715
1.556081988
1.537949678
1.527014882
1.523097687
1.523795446
1.530586918
1.53402055
1.545347523
1.552137616
1.566706125
1.579644775
1.591866151
1.60197234
1.614641926
1.624419519
1.631358425
1.643668755
1.654388366
1.661356293
1.665315257
1.672042234
1.676336046
1.678648672
1.682585699
1.688333258
1.688100887
1.687834498
1.689748465
1.688948824
1.691360019
1.690007477
1.687949993
1.690301359
1.693603267
1.682818057
1.686100649
1.686930135
1.679806887
1.676730208
1.666292883
1.667083048
1.663402145
1.655930822
1.648933742
1.643200188
1.636360523
1.63523436
1.625078358
1.625222554
1.617770367
1.612224872
1.603448381
1.594591985
1.583621766
1.579947894
1.579384096
1.571639007
1.564253981
1.556812537
1.54967945
1.548232845
1.539861932
1.53125343
1.524149344
1.515639414
1.505352315
1.501069778
1.500577724
1.4889384
1.490585774
1.481065551
1.477717346
1.474263755
1.475331128
1.47288639
1.476092746
1.475679852
1.481814686
1.488057978
1.501487479
1.523443149
1.544467596
1.579254675
1.627490725
1.702669825
1.844161098
1.836666658
1.839473854
1.83268018
1.81566163
1.786853395
1.747886062
1.70646912
1.664518483
1.623042669
1.580090243
1.543393045
1.516167277
1.493964222
1.482755705
1.475417205
1.473378564
1.475877277
1.480500057
1.485624549
1.490464275
1.499232406
1.510071158
1.522236474
1.535383562
1.546819919
1.556220544
1.564428447
1.579009929
1.587147307
1.596600899
1.602449422
1.607416814
1.613013866
1.621631314
1.625901759
1.631103961
1.636106197
1.641508842
1.641130363
1.647563217
1.649972818
1.654581531
1.651651954
1.652171685
1.652746347
1.647453962
1.647685896
1.643305034
1.642770839
1.643097759
1.641578103
1.638836585
1.633484731
1.635535802
1.630368439
1.626704202
1.61911842
1.616700433
1.612164304
1.606492323
1.593595075
1.590552125
1.588578105
1.578040386
1.576159849
1.574706975
1.566397364
1.557527105
1.550186076
1.547449551
1.543079496
1.534257945
1.527060349
1.522120414
1.516454138
1.509573732
1.500708817
1.49720564
1.489361887
1.483112787
1.481271563
1.48269284
1.483217849
1.479979072
1.480559212
1.483476136
1.481950468
1.49305656
1.50917983
1.520371492
1.543233193
1.564001818
1.608163103
1.681568454
1.788088142
1.805057352
1.807680214
1.808179226
1.798247595
1.783771458
1.760074405
1.727175289
1.693179075
1.654143261
1.616747182
1.577178674
1.536075561
1.501667011
1.473785626
1.454856009
1.43895237
1.429007162
1.423009262
1.422412878
1.425225644
1.426793674
1.434834134
1.440916928
1.45002176
1.462823386
1.473346623
1.482691442
1.49243463
1.501998492
1.514542928
1.523984806
1.534664636
1.540766516
1.547497737
1.556770819
1.567203728
1.571058658
1.574264274
1.584072216
1.591560069
1.594136129
1.595458488
1.597284787
1.60017046
1.604424391
1.607976474
1.60731055
1.607380187
1.606849328
1.605873906
1.607244457
1.604257713
1.602311743
1.601440889
1.601859171
1.599109768
1.597105902
1.59032621
1.591009845
1.586131311
1.586205028
1.577223037
1.577961173
1.566759135
1.562297538
1.562400471
1.553804777
1.547315589
1.544540207
1.539120071
1.53507326
1.524631134
1.525825323
1.522239514
1.515606022
1.508390219
1.499852577
1.4922523
1.489795232
1.483636528
1.483844473
1.483514817
1.48026056
1.480208155
1.477574559
1.483217862
1.486919481
1.488687284
1.501624187
1.512825353
1.529950477
1.559673943
1.594351599
1.656310518
1.744130352
1.775915258
1.779314585
1.780818589
1.781246957
1.773150591
1.755865368
1.736928846
1.709700877
1.679381632
1.644438005
1.60741133
1.573975741
1.531618846
1.493606919
1.458534215
1.432467813
1.412117204
1.398302493
1.387153858
1.38078298
1.378222137
1.374896083
1.377772645
1.382522027
1.387491706
1.395107242
1.40436944
1.41332261
1.421978236
1.433729706
1.442931148
1.451113682
1.461940739
1.469144315
1.479859831
1.489597213
1.499260159
1.504283989
1.512199029
1.516503757
1.522033682
1.5292601
1.539012609
1.54255652
1.545299605
1.550115539
1.551521459
1.553991391
1.558120533
1.556810739
1.563213239
1.563115659
1.563604444
1.566346481
1.564969447
1.564221174
1.561810672
1.561263096
1.566271336
1.561223808
1.553847599
1.551186167
1.548756114
1.546315379
1.543081299
1.535316581
1.5379851
1.533254993
1.530182316
1.525983305
1.520853714
1.516426055
1.509617211
1.510441818
1.504289637
1.496660444
1.488275825
1.481180912
1.480191908
1.481482846
1.47973896
1.472750354
1.476639416
1.473701473
1.474368715
1.476263249
1.480090171
1.487128357
1.489604047
1.503582106
1.51512629
1.540840477
1.573671353
1.621980052
1.693435384
1.750841884
1.750333666
1.751287642
1.750338187
1.750129724
1.745455545
1.734526257
1.714603389
1.69224074
1.66380743
1.633286996
1.600851054
1.565773116
1.530582275
1.491117991
1.454245229
1.424409195
1.397571586
1.376046112
1.357603513
1.346972051
1.339843285
1.333505469
1.328961431
1.332765909
1.334392618
1.337159211
1.345140542
1.353417893
1.358699031
1.366935516
1.375724453
1.387064049
1.394926178
1.402658135
1.413653457
1.425356516
1.43502831
1.44180722
1.449965375
1.45901112
1.465630075
1.473946334
1.478724727
1.483110046
1.487848616
1.49395153
1.498268176
1.505069114
1.507424189
1.511305903
1.514755496
1.51827506
1.519552172
1.518903389
1.520755229
1.521630254
1.523115392
1.52431343
1.523145746
1.522726522
1.5219952
1.517893969
1.518221743
1.516895127
1.508347233
1.503440272
1.503657332
1.505549223
1.498217692
1.498268858
1.491337209
1.487680508
1.48385541
1.480352943
1.478888409
1.476479125
1.473223171
1.472095524
1.465987711
1.46176556
1.464598701
1.457903348
1.460864641
1.463058429
1.457105251
1.464398826
1.467965918
1.480107021
1.486476382
1.500831498
1.514363683
1.546235573
1.580850202
1.643991262
1.729315976
1.732058511
1.733939167
1.734417283
1.733009751
1.72686622
1.718508376
1.707234106
1.694739145
1.673455537
1.649249008
1.622297083
1.591786274
1.560510364
1.526683037
1.490002111
1.452316906
1.417371908
1.388444773
1.363056357
1.340861516
1.321653649
1.309892444
1.30043023
1.292457117
1.289925018
1.289646232
1.290223968
1.291509918
1.29690093
1.302000314
1.308794613
1.315884787
1.326422717
1.335132341
1.342970335
1.351574806
1.359284361
1.370198688
1.379767721
1.385681569
1.393643615
1.402480484
1.407653
1.417358687
1.423759816
1.432703959
1.437776103
1.440893506
1.445680997
1.450939008
1.455446814
1.459034343
1.460829904
1.464504313
1.468690248
1.473796679
1.476995636
1.478869346
1.479801294
1.478452431
1.479257405
1.47808963
1.476433619
1.47995964
1.479652625
1.476049564
1.472398626
1.471510185
1.469856863
1.466853317
1.464878904
1.460394767
1.460349749
1.458679324
1.455432718
1.454723789
1.454308952
1.448781347
1.444808308
1.445835148
1.446220583
1.445379773
1.442054079
1.442376788
1.443172128
1.44709901
1.447472257
1.452559118
1.46030449
1.474083464
1.492453103
1.516487673
1.54935236
1.596267049
1.70466365
1.70690708
1.708754865
1.706096863
1.70589748
1.703611878
1.701597747
1.696809807
1.688879237
1.674838161
1.657494088
1.635983101
1.612421722
1.588330532
1.557983188
1.52765147
1.49437355
1.455053411
1.41786223
1.385249333
1.356008466
1.331702986
1.310163978
1.291819868
1.277179421
1.265638679
1.25717428
1.251101053
1.248991543
1.248898034
1.251217711
1.254425115
1.259427403
1.262530119
1.267752673
1.274554212
1.283073725
1.289401567
1.297501473
1.30698609
1.316116537
1.323583168
1.33213459
1.342040899
1.348549028
1.35662033
1.362142499
1.371006673
1.37687205
1.382243885
1.386945397
1.393883263
1.399558926
1.405502835
1.408688327
1.41042141
1.41678665
1.423890737
1.426757773
1.428011249
1.430823016
1.432290174
1.431839732
1.432868577
1.432321316
1.436148422
1.434790028
1.435907838
1.436804307
1.43586404
1.432066377
1.432334949
1.431948919
1.43085633
1.428012938
1.428811572
1.42682543
1.420345534
1.419600609
1.422444965
1.418845575
1.417440915
1.417926562
1.421068381
1.422281619
1.419743993
1.419085758
1.425933828
1.429562387
1.438879495
1.449730212
1.467365372
1.484572945
1.511243687
1.553021759
1.681772691
1.679552273
1.681658022
1.68547961
1.686038226
1.690125662
1.684968274
1.68106285
1.676569657
1.66965316
1.658890713
1.647127327
1.627555278
1.605008472
1.580965162
1.554479253
1.525065503
1.4952288
1.459143709
1.420906152
1.385331984
1.352483208
1.323250124
1.297799461
1.275809888
1.25947019
1.243916744
1.232615831
1.223010872
1.216560914
1.21338215
1.210927716
1.209944751
1.213210469
1.217509003
1.220897531
1.225699606
1.233192108
1.237509562
1.245214938
1.251097147
1.260332938
1.26764055
1.274065521
1.281014849
1.29062168
1.298794603
1.305529496
1.31315755
1.317921238
1.325084113
1.33387808
1.34195541
1.346304784
1.351163778
1.35625599
1.360480518
1.363800364
1.368816388
1.373414523
1.377645271
1.376837836
1.378104064
1.384505735
1.389121053
1.39046087
1.39171414
1.39213378
1.392917882
1.393554125
1.396370438
1.395973007
1.397685673
1.398348141
1.396018009
1.392974731
1.393056209
1.395945983
1.390286012
1.390265461
1.390518094
1.390771934
1.390672964
1.389560644
1.390011535
1.390433732
1.392039079
1.394153237
1.40246431
1.411187635
1.422422182
1.434229813
1.447611975
1.467738316
1.505315586
1.663958482
1.666259729
1.665960554
1.665646782
1.664417539
1.663548364
1.663133027
1.660559499
1.657616741
1.653634257
1.645919694
1.63673761
1.625611625
1.60813117
1.592519454
1.568273695
1.546547139
1.519562188
1.49473675
1.463855447
1.427927405
1.389758655
1.355509717
1.322360424
1.294250095
1.2691612
1.248792205
1.231306105
1.214898964
1.202510864
1.191931168
1.186046757
1.180136733
1.178277161
1.176449683
1.17706929
1.178340569
1.18199241
1.185026055
1.188879598
1.194044299
1.199479141
1.205594369
1.212237415
1.220722841
1.226929388
1.234950331
1.242630258
1.249031784
1.259317295
1.264904856
1.272634878
1.277713241
1.287079964
1.292470127
1.298661173
1.303631114
1.309606646
1.311854547
1.316536589
1.319196222
1.325360155
1.3316734
1.334516425
1.337535233
1.340361996
1.342223642
1.343852542
1.345128438
1.345531862
1.351494256
1.353526054
1.355621773
1.352139178
1.35673562
1.355735304
1.3566038
1.357155733
1.359380439
1.358411468
1.358122721
1.357203677
1.356636425
1.357914399
1.357776916
1.359962639
1.361660814
1.36363908
1.3684344
1.376035099
1.380829577
1.394297246
1.412984506
1.430436611
1.458166746
1.643806735
1.642814047
1.642387491
1.64187618
1.642777925
1.642060052
1.641232357
1.640185655
1.638410289
1.635652426
1.630284713
1.625700109
1.618260294
1.607617814
1.596197823
1.580164672
1.562689726
1.541436687
1.51709592
1.492552756
1.465020997
1.43327582
1.396550738
1.361897176
1.324811958
1.294042842
1.266302186
1.241595261
1.220180372
1.201606677
1.185934331
1.172199174
1.162527521
1.153690708
1.145647991
1.142383972
1.140918004
1.139262714
1.142054405
1.144681659
1.147972074
1.151286527
1.155652645
1.160270975
1.165242611
1.173365349
1.179173706
1.184337796
1.191745722
1.19909367
1.206266574
1.213674698
1.219937538
1.224784862
1.23172809
1.236006091
1.243018725
1.250367168
1.255975968
1.26186304
1.266792182
1.27132699
1.277218197
1.279617171
1.281765031
1.28719518
1.291441077
1.294180827
1.297538455
1.301111632
1.302321738
1.307360466
1.310402427
1.314399004
1.315425979
1.319251138
1.316521907
1.318730129
1.320716836
1.321104588
1.320961767
1.31926669
1.321126821
1.321911972
1.324231398
1.327601855
1.327412572
1.332979057
1.332407677
1.336537941
1.346735101
1.359824048
1.370428534
1.387311651
1.409091955
1.620096474
1.620793421
1.622183839
1.622168859
1.624024214
1.623412809
1.623520708
1.621517328
1.620706784
1.620433525
1.618455335
1.612910465
1.607114726
1.599896196
1.591066277
1.580915339
1.566190402
1.549911064
1.531624798
1.509292349
1.487031866
1.461924577
1.436449934
1.402238099
1.368105033
1.331974298
1.299694141
1.267823621
1.240042955
1.215633602
1.193215775
1.173430186
1.156944104
1.142674792
1.132201696
1.124474112
1.117276797
1.112780661
1.108079217
1.107848591
1.108368283
1.110292937
1.113967393
1.116102847
1.118742455
1.122613155
1.128966577
1.134037856
1.138094934
1.144222915
1.148558189
1.15507205
1.161278322
1.169373548
1.174790255
1.180740749
1.186611712
1.193141476
1.198844406
1.20578649
1.211724182
1.216194708
1.217729295
1.226731238
1.231785816
1.237499485
1.240785117
1.245200071
1.24931073
1.252985077
1.256847948
1.258654428
1.262235141
1.267677709
1.272278511
1.273271934
1.275272578
1.273968901
1.276519281
1.27529909
1.276780856
1.279686025
1.280518217
1.281736355
1.283558159
1.286855083
1.290221742
1.293360929
1.298409618
1.305058591
1.307175698
1.312541099
1.327011425
1.341459432
1.363777054
1.602769696
1.603851402
1.603908651
1.605716605
1.605340185
1.606169815
1.607993168
1.608401993
1.608443908
1.604962864
1.600939373
1.602020904
1.599011823
1.594349979
1.587458151
1.578849641
1.5702062
1.557330821
1.543157598
1.52686682
1.50842115
1.487553384
1.464068788
1.440092549
1.411353695
1.375692887
1.339446871
1.305127947
1.271651851
1.242430621
1.213649704
1.190006073
1.168735879
1.150059073
1.131943895
1.117477815
1.105486503
1.096007223
1.0893575
1.083366547
1.079870863
1.07732849
1.076688572
1.076834211
1.078178577
1.079969435
1.082248208
1.086445083
1.091067309
1.09569062
1.10168198
1.106139086
1.111475532
1.117028129
1.121828059
1.128980538
1.133461558
1.138865644
1.144616557
1.150283142
1.154949433
1.162934889
1.168574088
1.172553679
1.178903842
1.185289037
1.190380765
1.195711284
1.199446278
1.202501361
1.206218728
1.210641147
1.214046255
1.218806093
1.222972279
1.225529475
1.227659124
1.230217859
1.231012263
1.235120209
1.237615121
1.237155
1.239387363
1.242240094
1.244623803
1.249606859
1.254319223
1.257701599
1.26177901
1.264310411
1.268889758
1.277742823
1.287130754
1.297835278
1.31246342
1.586120833
1.584763376
1.585392585
1.584215559
1.585159618
1.584336618
1.58529978
1.582610668
1.582298151
1.584121221
1.582350817
1.581765234
1.576849033
1.573028599
1.570569843
1.566659431
1.560589613
1.553997149
1.542699508
1.529955895
1.516265234
1.499377139
1.482492611
1.459536938
1.436376905
1.413101248
1.381708081
1.347095352
1.312327266
1.280412672
1.248103098
1.218576371
1.189624105
1.164475373
1.14362382
1.124113121
1.107640843
1.092484241
1.080558678
1.068935387
1.060817612
1.055878462
1.050974832
1.049336906
1.047612975
1.046692453
1.046966318
1.04815577
1.049910667
1.052289582
1.056025487
1.059860332
1.063231985
1.068849716
1.073694365
1.079085134
1.084548473
1.09030524
1.095598278
1.101327851
1.107413795
1.112426509
1.11789961
1.122526609
1.127020243
1.13135032
1.137805234
1.144538134
1.149979527
1.154481295
1.159787948
1.163311779
1.166447148
1.167719666
1.172213644
1.177311842
1.180298112
1.182561893
1.186170546
1.188300367
1.192215244
1.19859294
1.200263065
1.201256966
1.204413695
1.208491606
1.210026791
1.215464287
1.216682286
1.220634499
1.227133527
1.233171217
1.241020011
1.254049075
1.267013196
1.567226918
1.567767548
1.568497703
1.56741924
1.565788829
1.565134869
1.567129519
1.567553183
1.566345151
1.566061585
1.566253047
1.565453181
1.56380309
1.561699325
1.559998059
1.554905939
1.551242253
1.545037196
1.539827297
1.533174618
1.521131317
1.509641494
1.493811361
1.477545611
1.459345434
1.438332245
1.416765907
1.392793351
1.357359975
1.324721242
1.288939376
1.255921411
1.225908494
1.198647776
1.169208878
1.144370365
1.122162751
1.102216371
1.085044648
1.069036318
1.057662166
1.045042062
1.037976646
1.030173612
1.025963711
1.023634244
1.020959286
1.018523092
1.018322074
1.018269245
1.020137854
1.022363988
1.02532193
1.02711997
1.030288903
1.033622474
1.038763956
1.042949083
1.047960565
1.053037731
1.057428088
1.061583773
1.066858843
1.071990409
1.078842214
1.084550234
1.088488684
1.093974231
1.099448871
1.106243259
1.110016205
1.113980902
1.117339205
1.123566254
1.127422818
1.130658789
1.134897692
1.137649438
1.140769059
1.144685185
1.148177464
1.151393469
1.156277181
1.159403128
1.162420208
1.166072735
1.170804274
1.172719756
1.178610022
1.182612589
1.188113074
1.193670699
1.200371823
1.207131028
1.218638553
1.545029125
1.545218848
1.545261548
1.547683447
1.548927375
1.549033122
1.548557536
1.549542732
1.548995712
1.547938614
1.546236827
1.546314809
1.547628287
1.54743609
1.544772719
1.54293711
1.539532185
1.534021324
1.53058506
1.523001238
1.51487617
1.506260928
1.494630047
1.484270475
1.470358461
1.453296472
1.433612191
1.413924445
1.393289095
1.365251051
1.333590135
1.299647641
1.267265968
1.233328797
1.204222797
1.173853452
1.148448684
1.124355148
1.102236533
1.080608951
1.063483299
1.04794591
1.033246995
1.022825788
1.012765233
1.003493969
0.999397541
0.9963420011
0.9937342521
0.9916986845
0.9899046524
0.9901860578
0.9913018665
0.9923506905
0.99444347
0.996342816
0.9989501866
1.001488579
1.005947547
1.009588601
1.012998516
1.018472059
1.022338583
1.028495609
1.031970141
1.036235399
1.040889878
1.04559363
1.051064428
1.05606989
1.061161159
1.066943919
1.072695969
1.07598061
1.080185089
1.084748231
1.088096448
1.092774366
1.097929498
1.10075007
1.104226959
1.106817738
1.112144415
1.115847967
1.118435862
1.120302717
1.124346681
1.127637821
1.134100128
1.137149788
1.141323036
1.147814806
1.153244751
1.160740324
1.170615172
1.527649342
1.528228234
1.527540688
1.526444417
1.526326263
1.528571089
1.528584212
1.527536498
1.528550046
1.526995369
1.528003109
1.528976925
1.528681219
1.525915587
1.525833191
1.523558423
1.525439647
1.522500278
1.518480954
1.515861042
1.510408237
1.50405252
1.497216845
1.487408966
1.477321303
1.464706818
1.450412655
1.434262391
1.415714569
1.394953951
1.373074431
1.343658696
1.31075801
1.277727738
1.24556726
1.214617997
1.183035494
1.153254388
1.127062774
1.103481487
1.080818848
1.060520694
1.043558986
1.026326309
1.012755704
1.001078611
0.9897242473
0.981852915
0.9765130033
0.9707828109
0.9684138277
0.965576325
0.9636230777
0.9639908811
0.9644598804
0.9647389347
0.9670511798
0.9696382312
0.9715038538
0.9746889992
0.9783828547
0.9807120908
0.9840714391
0.9863929861
0.9907153206
0.994837222
0.9987906381
1.003851541
1.00720235
1.011867048
1.017450476
1.020478514
1.025860265
1.030200218
1.03392812
1.038668157
1.044636834
1.048629885
1.05375219
1.057246285
1.061013547
1.065385099
1.067571561
1.071636603
1.074835249
1.079102748
1.083284076
1.086555597
1.087788188
1.09384282
1.098053419
1.103526447
1.110096108
1.117312164
1.127169263
1.513177448
1.511623828
1.512629046
1.511910756
1.512267756
1.510446054
1.510219878
1.510606669
1.510714083
1.512052275
1.511039487
1.510496762
1.508763275
1.508489383
1.509507905
1.508075175
1.502566552
1.502424683
1.501177488
1.49848903
1.497598317
1.49257555
1.489064447
1.483950652
1.476889313
1.469768715
1.458779991
1.447019513
1.431254036
1.416475782
1.397315338
1.377622577
1.353360935
1.321642109
1.288912523
1.255722869
1.223944069
1.192728004
1.162481522
1.134239676
1.107873065
1.08357003
1.060786119
1.041617714
1.023043922
1.007390424
0.9942266493
0.9810984424
0.9698633914
0.9635955589
0.955191528
0.9499287561
0.9457629298
0.9431469428
0.9407666943
0.9408035757
0.9404307994
0.9401840415
0.9411175703
0.9416037271
0.9433087011
0.94568233
0.9481463338
0.9507576274
0.9530248147
0.9568452211
0.960660988
0.9643407078
0.9673378605
0.971992319
0.9760223405
0.9809299942
0.9842768983
0.9879052484
0.9921390251
0.996081133
1.00051464
1.004521852
1.008064726
1.01373134
1.016926462
1.02069395
1.023281289
1.028314097
1.032167671
1.035336804
1.038902062
1.043392409
1.04883435
1.052863408
1.058402661
1.063069108
1.068672153
1.074298128
1.081024438
1.49224861
1.492203617
1.491246897
1.491590314
1.492757712
1.494292902
1.494291521
1.494321446
1.493528223
1.492794798
1.492533507
1.493743906
1.491748395
1.492280834
1.491509109
1.491858057
1.491756353
1.49201156
1.488982216
1.487665779
1.484481122
1.480757421
1.477720171
1.473102233
1.469427309
1.461870748
1.454263355
1.445607009
1.437919331
1.425861128
1.41145097
1.394882896
1.377169432
1.357281191
1.329908653
1.299372494
1.266956569
1.235488065
1.203965503
1.173793665
1.143783216
1.115828984
1.0891279
1.065589516
1.043420388
1.024181932
1.005636879
0.9892246064
0.973809791
0.9613440364
0.9502108262
0.9412726557
0.9338290354
0.9281705213
0.9241149102
0.9192234818
0.9162629801
0.9151222064
0.9146998278
0.9140976536
0.9145214638
0.915499077
0.9171505838
0.9193514535
0.9214800425
0.9227702274
0.9253442806
0.9278812025
0.9317791456
0.9351789722
0.9382676743
0.9417993057
0.9459413249
0.9485342182
0.9516722505
0.9552029554
0.9588395513
0.963766868
0.9684029463
0.9717849794
0.9754876561
0.9796886118
0.9849398816
0.9862291609
0.9915303772
0.9959743924
0.9996286528
1.003570776
1.006707971
1.01156289
1.017402787
1.02164062
1.026613361
1.033051522
1.038924738
1.478026321
1.477310696
1.477968047
1.477703102
1.476770613
1.474891988
1.47451102
1.473361885
1.474817316
1.475459932
1.473676391
1.47489531
1.47462969
1.474694021
1.472918692
1.474009996
1.473475475
1.472844202
1.471569163
1.470407734
1.470202504
1.470455454
1.466427828
1.465096854
1.460702458
1.454666432
1.450025952
1.442057554
1.433080452
1.425397883
1.416326346
1.402972551
1.389651607
1.376484317
1.359535276
1.340193061
1.309028853
1.27826311
1.247484084
1.216256807
1.185811132
1.15430247
1.12573906
1.098333941