/*--------------------------------*- C++ -*----------------------------------*\
| =========                 |                                                 |
| \\      /  F ield         | OpenFOAM: The Open Source CFD Toolbox           |
|  \\    /   O peration     | Version:  v1706                                 |
|   \\  /    A nd           | Web:      www.OpenFOAM.com                      |
|    \\/     M anipulation  |                                                 |
\*---------------------------------------------------------------------------*/
FoamFile
{
    version     2.0;
    format      ascii;
    class       volScalarField;
    location    "0.14";
    object      p_N2cold;
}
// * * * * * * * * * * * * * * * * * * * * * * * * * * * * * * * * * * * * * //

dimensions      [1 -1 -2 0 0 0 0];


internalField   nonuniform List<scalar> 
6000
(
0.4166397641
0.4223771128
0.4416554066
0.5044914379
0.7933576641
0.4169202236
0.4265100417
0.4525388001
0.5364350292
0.7352505752
0.4174076408
0.4277710281
0.4562236944
0.5205188177
0.6344429081
0.4180218291
0.4292297714
0.4495552185
0.4952159992
0.5625330209
0.4186499001
0.4261570067
0.4426798917
0.4725858838
0.5153301856
0.4179960299
0.4231337523
0.4357873237
0.4556758427
0.4813985995
0.4167953051
0.4220742251
0.4304213102
0.4437984136
0.4622285709
0.4158318098
0.419626055
0.4272582546
0.4347747866
0.4480537958
0.4156279413
0.4190775099
0.4226082906
0.4292346383
0.4390126769
0.4147704129
0.418052033
0.4212609714
0.4256799242
0.4305630188
0.4148832458
0.4174027325
0.4189481465
0.4230328061
0.426084741
0.4155704612
0.4153593304
0.4172127443
0.4189453803
0.4235722192
0.4150898378
0.4164448744
0.4170145382
0.4185308889
0.4191188584
0.4149381773
0.4157783962
0.416018755
0.4174109382
0.4184199893
0.414058899
0.4146985189
0.4155797018
0.416363959
0.4182924004
0.4146546983
0.4145222471
0.4152127824
0.4161702878
0.4169694413
0.4138298166
0.4141563412
0.4150025529
0.4152926531
0.4155010578
0.4143721662
0.4145472329
0.4140550263
0.4140811477
0.4143670874
0.4131937335
0.4125798528
0.4128750529
0.4135841128
0.414929186
0.4141659338
0.4138103547
0.4143142575
0.4138775232
0.4143654438
0.4135086183
0.413948068
0.4147656152
0.4151276067
0.4147831632
0.41446699
0.4142812067
0.4136873499
0.4128424698
0.4132014143
0.413920925
0.4141147099
0.414094857
0.4142530436
0.4145379833
0.4145918974
0.4140627418
0.4144767705
0.4145047319
0.4139198236
0.414585629
0.4142865116
0.4138861098
0.4144326768
0.4151272995
0.41440377
0.4145865968
0.4150602557
0.4140250666
0.414579269
0.4136939828
0.4130767303
0.4133388784
0.4143825101
0.4148830018
0.4142182527
0.4144704091
0.4140536072
0.4136243673
0.4132764452
0.414011146
0.41298601
0.4140467748
0.4139139301
0.4143258255
0.4146476554
0.4150217858
0.4147153463
0.4143939509
0.4143706125
0.4145159687
0.4142153172
0.4139714926
0.4134438073
0.4131284586
0.4131105902
0.4129725268
0.4127007486
0.4139529537
0.4145470513
0.4140259162
0.4141934361
0.4139074173
0.4135525733
0.4127418121
0.4137083948
0.4139118515
0.4139308782
0.4139542781
0.4143479939
0.4143858043
0.4142937143
0.4142929639
0.4140916183
0.4138139786
0.414497467
0.4144193127
0.4139311363
0.4145516253
0.4146530541
0.4149835113
0.4145621113
0.4141652707
0.4139949005
0.4139302501
0.41421521
0.4142504249
0.4144854751
0.4138340057
0.4137662728
0.4139556506
0.4137742993
0.4136506027
0.4141807962
0.414461635
0.4133365146
0.4134127566
0.4141170379
0.4141674441
0.4147666114
0.4140046415
0.4141062494
0.4142132479
0.4144009725
0.4145830686
0.4137921912
0.4138215443
0.4133177987
0.4128655079
0.413181031
0.4145569642
0.4139044494
0.4144015895
0.4143898673
0.4141636556
0.4138531694
0.4139343822
0.4138311229
0.4135257078
0.413971985
0.4136037828
0.4138236324
0.413509746
0.4135826493
0.4132976329
0.413167486
0.4134170718
0.4130765949
0.4141994922
0.4142155441
0.4146672263
0.4144848374
0.4144469124
0.4134995352
0.4142810138
0.414015212
0.4144044263
0.4153302064
0.4151546134
0.4143991865
0.4138941405
0.413142994
0.4130059893
0.4136524525
0.4137858751
0.4140252744
0.413894019
0.4145580685
0.4143341417
0.4145749146
0.4142122024
0.4145864961
0.4135996695
0.4135182525
0.4137685736
0.4139511726
0.4133380152
0.4134740827
0.4134009403
0.4136246451
0.413542113
0.4137917537
0.414011238
0.4138013177
0.4137712309
0.4142658979
0.4145440968
0.4140920612
0.4135847015
0.4140040119
0.4134514859
0.4133656513
0.4138094076
0.4143112969
0.414664446
0.4151906154
0.4152425214
0.4143476315
0.4143250535
0.4140504884
0.4141967091
0.4145197951
0.41569677
0.4151498725
0.4154134256
0.4144971093
0.4141916231
0.4143559796
0.4144676571
0.4144959879
0.4144114543
0.4143431661
0.413477941
0.4134759667
0.4139020135
0.4140980789
0.4144516583
0.4143488854
0.4142508887
0.4137887251
1.473927506
1.617007125
1.63527846
1.626022641
1.606573238
1.579046023
1.553481467
1.524959656
1.492736374
1.466665447
1.440565423
1.408279509
1.379041971
1.351481888
1.327715036
1.30821239
1.287937664
1.267049973
1.246119317
1.224765354
1.206383275
1.192078918
1.178128577
1.164369009
1.150908027
1.132781509
1.118691728
1.099694491
1.094924925
1.079269015
1.065095245
1.059275294
1.051564982
1.038704398
1.030106008
1.019313784
1.010331979
1.003522405
0.9951696891
0.9874728098
0.9784287949
0.9727481715
0.9687457702
0.9608385152
0.9537588707
0.9427084671
0.9368951942
0.9289277063
0.9280605102
0.9199390787
0.911822155
0.9088201741
0.9033338393
0.8984754137
0.8936881767
0.8858810644
0.8795047874
0.8800847082
0.8721192758
0.8672167969
0.8650311243
0.8588860448
0.8539930303
0.8493426219
0.8482653136
0.8421908377
0.8369672664
0.8321507304
0.8274988247
0.8253015417
0.8218656089
0.818112357
0.8120717991
0.8136221116
0.8071029705
0.8016080587
0.7962287949
0.791359032
0.7847615844
0.7792615319
0.7768948935
0.7689942751
0.763330119
0.7568397483
0.7502735719
0.7423394729
0.7297859344
0.7163949093
0.7040905812
0.6888157671
0.6639110138
0.6376545732
0.606094608
0.5624871872
0.4673650476
1.012714371
1.225151832
1.345773062
1.41061354
1.446449479
1.461921983
1.466613458
1.46811491
1.452215203
1.437184814
1.421575898
1.40723979
1.384883834
1.362378945
1.344319592
1.326847303
1.307962146
1.287763221
1.267169585
1.254880718
1.232332552
1.219961515
1.20785241
1.189939382
1.178525583
1.159615448
1.141286396
1.133224046
1.11582793
1.103864629
1.091972654
1.085578188
1.074083842
1.061268111
1.052955995
1.045210853
1.034188089
1.022236326
1.015519615
1.009464025
1.00182967
0.9931838571
0.9842335391
0.9788620487
0.9691030091
0.9649797841
0.956342519
0.9477615957
0.9448704428
0.9393358555
0.9279278099
0.9217087007
0.9195609442
0.9149340249
0.9096126053
0.9018897429
0.8971059991
0.8928031428
0.8848938327
0.8824987217
0.875420077
0.8732802262
0.8681503427
0.8602117371
0.8573090571
0.8563918668
0.8488628163
0.8430967628
0.8374733462
0.8377181818
0.835880583
0.8315920114
0.8234610163
0.821312122
0.8159718151
0.8120580481
0.8053186013
0.8013707464
0.7965782865
0.7895113591
0.7848404632
0.7793132043
0.7720800282
0.7663117566
0.7559109541
0.7452755892
0.7324926077
0.7205228093
0.7082672614
0.6896828092
0.666207068
0.6364087993
0.600243363
0.5450506286
0.434676098
0.7806193448
0.928365974
1.053696096
1.146877876
1.222043698
1.274520999
1.302388237
1.319292479
1.333444266
1.335905342
1.337880272
1.331505061
1.326771292
1.31769765
1.305934887
1.298150998
1.282889925
1.270179709
1.255259717
1.243283487
1.224166666
1.214572917
1.198033655
1.190118634
1.176157501
1.162019102
1.148943704
1.133626555
1.122066358
1.108686369
1.102066866
1.094392227
1.082266757
1.071748367
1.063618341
1.049689253
1.041930636
1.032701297
1.028092289
1.01777157
1.008199591
0.9992307279
0.9936591406
0.9860698076
0.9784007712
0.9689413228
0.9652184954
0.9555369886
0.9537724751
0.9447678229
0.9383475092
0.9339041885
0.9290444301
0.9222198351
0.9185089361
0.9112579363
0.9043852553
0.8992333762
0.8939948563
0.8886729318
0.8815421525
0.8806229147
0.8742651351
0.8712715565
0.8637294497
0.8590491326
0.854884059
0.8507449332
0.8501520418
0.8452840255
0.8397709573
0.8384255153
0.8337722767
0.827126062
0.8224770669
0.817602113
0.8114569607
0.806231458
0.8020849621
0.7947395655
0.7891712421
0.7860057221
0.7784253729
0.7682922587
0.7580452472
0.7503776135
0.7365824437
0.7248443483
0.7092519209
0.690152352
0.6676940762
0.6339055731
0.5947541933
0.536351385
0.4350165898
0.648347314
0.7460609592
0.8487836529
0.9400796153
1.021371462
1.086040725
1.13440757
1.172420148
1.203088625
1.22333231
1.241207397
1.247664048
1.251609083
1.249977914
1.24610844
1.24333104
1.237359207
1.230244456
1.21769754
1.210945327
1.200747799
1.189729957
1.180345862
1.174311036
1.162591751
1.153412086
1.134724003
1.127293158
1.118293101
1.110469641
1.099403737
1.088136651
1.077217418
1.071632604
1.066009314
1.056591903
1.044275074
1.034663824
1.025962314
1.01936871
1.011981862
1.002633881
0.9970608813
0.9922759395
0.9824887888
0.9771590059
0.9663911328
0.9603022706
0.9540465812
0.949526082
0.9411765408
0.9352325903
0.9319750772
0.9264193721
0.9197263884
0.9136953936
0.908285844
0.9024760304
0.8970689328
0.8896528513
0.8889296768
0.8843631733
0.8801005139
0.8724664528
0.8669211291
0.8639886277
0.8600042213
0.8578766388
0.8515005945
0.8480616894
0.8450868863
0.8409730817
0.8347533361
0.8324280725
0.8246385033
0.8217385938
0.8141321064
0.8098567652
0.8042651174
0.7989923514
0.7944577489
0.788913914
0.7795857203
0.7715564275
0.7628734351
0.7522115992
0.7383297257
0.7264651717
0.7107013571
0.6924049142
0.6675547201
0.6348108819
0.5941203561
0.5328952555
0.4435851334
0.5653816448
0.634142459
0.7101154891
0.7852352979
0.8605785473
0.926783764
0.9850279336
1.034637811
1.078563484
1.108996375
1.133120743
1.154509023
1.165012426
1.17429407
1.178838162
1.184698469
1.181803465
1.184933247
1.179897585
1.176678707
1.169831435
1.163954389
1.15506073
1.148931567
1.143227238
1.131297177
1.121491768
1.114728408
1.108106854
1.098037553
1.088150076
1.083052672
1.073554366
1.060328058
1.056853787
1.049715683
1.038297808
1.029917219
1.024187775
1.01803299
1.011987267
1.00117137
0.9938563282
0.994693966
0.9810210045
0.9713926407
0.9649055286
0.9580049701
0.9553295626
0.946676087
0.9402527201
0.9362785772
0.9337154922
0.9244027917
0.9222311663
0.912047341
0.9099346428
0.9003766149
0.8983018103
0.8921946693
0.890878242
0.885747852
0.8852049518
0.878946914
0.8700660781
0.8664003567
0.8626113032
0.8597404642
0.8551012899
0.8486232658
0.8461122891
0.8426002264
0.8374741592
0.8333699963
0.8288372564
0.8253821814
0.8158353818
0.8141005759
0.8055184175
0.8014641531
0.7942368491
0.7910857371
0.7806180994
0.7737989198
0.7621883166
0.7516743508
0.7414596026
0.7276146256
0.7089211058
0.6882437045
0.6658472742
0.634784671
0.5950708926
0.5390653044
0.4560613437
0.5160614376
0.5627647129
0.6143855718
0.6694507189
0.7321989865
0.7944122777
0.8535529668
0.9063191941
0.9544974849
0.9935331865
1.031499069
1.057225504
1.082469056
1.099037058
1.112147388
1.120163287
1.125059682
1.128613157
1.130834806
1.134379197
1.133307032
1.131305072
1.125333647
1.117499381
1.112045263
1.10544519
1.10149872
1.091266353
1.088538478
1.080317954
1.074853271
1.070119863
1.060787538
1.052315795
1.048297296
1.039172087
1.030796273
1.023512907
1.019501124
1.013382424
1.004421442
0.9957970148
0.9938748867
0.987476573
0.9755759595
0.9719972761
0.9661493235
0.9616296608
0.9554038258
0.9478084389
0.9397152386
0.9347795426
0.9326180438
0.9228253683
0.9171582076
0.911648134
0.9076787105
0.9002306202
0.8947662389
0.8935557343
0.891007297
0.887464347
0.8808024399
0.8772682968
0.868885691
0.864407882
0.8624250143
0.8598479815
0.8553160134
0.8484797759
0.845621921
0.8412065641
0.837524231
0.8312136141
0.8303725673
0.8236211442
0.8190261449
0.815760224
0.8091062932
0.8035788382
0.7962300232
0.7898200769
0.7819099194
0.7727162621
0.7652229779
0.7559737466
0.7438401104
0.7275676141
0.7099935352
0.6906837323
0.6643842055
0.6368574062
0.5974838042
0.5432247588
0.4714055983
0.4840169597
0.5147625601
0.5514754869
0.5938503683
0.640701397
0.6878993361
0.7420236703
0.792285877
0.8441127538
0.8848133841
0.9258334584
0.96370598
0.9930463985
1.023392575
1.040667418
1.059692335
1.070549727
1.080874652
1.086100624
1.088704273
1.092130704
1.095420393
1.095420345
1.091715084
1.086015349
1.082753756
1.078024008
1.076529412
1.071288054
1.062348204
1.058380666
1.050967034
1.045903316
1.043397684
1.0355239
1.025952674
1.022563481
1.018098913
1.006041
1.000132242
0.995637094
0.9905355107
0.9875669905
0.9795391311
0.9710731943
0.9652013313
0.9630721834
0.9586220655
0.9514923282
0.9454286516
0.9387157952
0.9357730778
0.9275291085
0.9228573168
0.918354562
0.9143715865
0.9063602077
0.9035132539
0.8961114711
0.892455938
0.8855658528
0.8839482246
0.8779402552
0.8771312597
0.8701325068
0.8653444987
0.8637155324
0.8595601071
0.8529756178
0.8479052834
0.8450555984
0.8407053698
0.8367078674
0.8307742598
0.8274884214
0.8255000711
0.8222662249
0.8154102178
0.8110823298
0.8058127801
0.800323628
0.7923562679
0.7834026552
0.7748097604
0.7679355429
0.7562481766
0.743937647
0.7309680971
0.7115413266
0.6927733866
0.6681210853
0.6411181365
0.6025071775
0.5503934381
0.4842833747
0.4632064889
0.4832780155
0.5078765643
0.5388037753
0.5721896897
0.6118435935
0.6516840412
0.6980185154
0.7438943398
0.7842997507
0.8296957983
0.8679864588
0.9058618809
0.9400840867
0.971778335
0.989897154
1.006889126
1.024029761
1.036117177
1.047179582
1.052044646
1.061862151
1.061374317
1.060602769
1.059789567
1.05984244
1.057280972
1.055351545
1.05254654
1.044192767
1.04228872
1.03939115
1.032771381
1.028401989
1.02491497
1.018582291
1.010066926
1.011010633
0.9990044858
0.9961866733
0.9903516167
0.9868037671
0.9788439791
0.9720812128
0.9685704799
0.9620331001
0.9583292326
0.9523421075
0.9451276376
0.9457775746
0.9339113757
0.928472273
0.9246986813
0.9186545843
0.9156598893
0.9106714179
0.9048775002
0.9004109148
0.8921282197
0.8887334545
0.887296422
0.8835490436
0.879324539
0.8749904436
0.8707935843
0.8670854279
0.8616079979
0.8548192719
0.8521173116
0.8488295247
0.844982406
0.8390424272
0.8367254779
0.8310860499
0.8272496009
0.8256883072
0.8207386699
0.8168483445
0.8114184103
0.8029210776
0.7985141413
0.7932833049
0.7819784105
0.7759942533
0.7644061551
0.755059154
0.7441387224
0.728937737
0.7149265628
0.6938362398
0.6739268113
0.6436336281
0.6085822929
0.5623200349
0.5017134867
0.4470646638
0.461519704
0.4815050429
0.5016832091
0.5258268562
0.5553516374
0.5859007187
0.6214448193
0.6635186477
0.7008648377
0.7406234788
0.7798192359
0.8178118739
0.8553077482
0.8897896126
0.9176124626
0.9429276817
0.9643900944
0.9841219084
1.00030944
1.00991884
1.017649678
1.023974429
1.033574375
1.031757731
1.034360028
1.036569521
1.033824691
1.034073404
1.03032167
1.02482449
1.023818729
1.019479718
1.014891119
1.013377997
1.00839853
1.0011296
0.993648848
0.9904572737
0.9854052267
0.9792957992
0.975045377
0.9687350436
0.9662561306
0.9608919568
0.9554928807
0.9488041399
0.9441111221
0.938341338
0.936351177
0.9307814326
0.9235954414
0.9184636471
0.9165049051
0.912642141
0.9059651884
0.9002852501
0.8955833439
0.8902955071
0.8861482238
0.8828648178
0.8788054721
0.8767780985
0.8742186061
0.8666268435
0.86475836
0.8629047082
0.8575641393
0.8501365022
0.848753105
0.8448356249
0.8403597309
0.8349375267
0.8327072745
0.8277170118
0.8230658421
0.818510522
0.8143874147
0.8077407933
0.8034655938
0.7994198379
0.7912391907
0.7850832419
0.7766362476
0.7660432785
0.7595737401
0.7460675579
0.7320520512
0.7143422798
0.6981117339
0.6758802623
0.6512958486
0.6157261423
0.5748412779
0.5187130598
0.4364321601
0.4464267146
0.4588701895
0.4728569686
0.4903763722
0.513154543
0.5382960894
0.563051524
0.5960045244
0.6299801273
0.663554604
0.6999886329
0.7374522222
0.7732683095
0.8109959102
0.8422045021
0.8699306473
0.898808615
0.9227248008
0.9401118863
0.9592109544
0.977821596
0.9863719845
0.9950763258
1.00454762
1.007322318
1.009248987
1.014279774
1.016577715
1.014112206
1.012229339
1.010450669
1.008930873
1.001067792
0.9992932218
0.9967308577
0.9902822692
0.9873508202
0.9838008473
0.9753559036
0.9717104078
0.9673184146
0.9628032393
0.9603114684
0.9532139141
0.9499388937
0.9411768691
0.9398778677
0.9364097048
0.9327162679
0.9269994951
0.9213034237
0.9166254438
0.9150679178
0.9098515025
0.9038074554
0.8970389468
0.8890537628
0.886431514
0.8840559806
0.8802334578
0.8772701489
0.875138921
0.8713555908
0.8648017412
0.8607977195
0.8592460215
0.8567628891
0.8495393922
0.8459446425
0.842428688
0.8408458067
0.8369298424
0.8304553519
0.8266322857
0.8214507286
0.8177728715
0.813279052
0.8106431302
0.8025721045
0.7978868221
0.7906741764
0.7834480658
0.7788792345
0.7693351982
0.7586920075
0.7474792704
0.7346337908
0.7215348809
0.7027212216
0.6831768556
0.6577832657
0.6247584821
0.5859699161
0.5346038279
0.430846979
0.4360662055
0.4452547305
0.4573712704
0.469623427
0.4852210355
0.5016226317
0.5205305486
0.5462081445
0.5715919597
0.5997704355
0.6316413487
0.6651071251
0.6958901843
0.7315178048
0.7651363418
0.7972825684
0.8300270821
0.8564235273
0.8810504891
0.9042629534
0.9240455961
0.9410456954
0.9557277097
0.9675342718
0.9752787232
0.984009398
0.9921229398
0.9957967592
0.9966412433
0.9986473748
0.994332123
0.9934225396
0.9929055179
0.989916008
0.9899426261
0.9829038579
0.9789225552
0.9750316844
0.9687703184
0.9653551114
0.9617218841
0.9587826685
0.9519931508
0.9472932653
0.9409979872
0.938804295
0.9343141305
0.933099541
0.9279481634
0.9228391303
0.9170727273
0.9135954302
0.9097723364
0.906361809
0.9005018725
0.8949136943
0.8882810237
0.8841052423
0.8832974472
0.8775671728
0.8756984098
0.8745731359
0.8688404567
0.8657631174
0.8592435771
0.8573389379
0.851117549
0.8485862494
0.843411028
0.8415902552
0.8364740676
0.8321967168
0.8281258855
0.824715114
0.8201517705
0.815952248
0.8139062234
0.8081205475
0.8020451439
0.7981430625
0.79235803
0.7842698248
0.7767137096
0.7684369952
0.7596122771
0.7513975006
0.7364796034
0.7246158429
0.7069184796
0.6867796656
0.6623138047
0.6327470411
0.5972656016
0.5501282936
0.4265074895
0.4317218337
0.4368215576
0.4441785815
0.4523222852
0.4622029382
0.4755039618
0.4910881185
0.5088321537
0.5284248512
0.549371555
0.5742097875
0.6014063013
0.6302512311
0.6628379282
0.6930862188
0.7249524566
0.7568878748
0.7901213317
0.8164367983
0.8424585353
0.8704624889
0.8924665529
0.9119121412
0.9265231296
0.9385860825
0.9496765152
0.9583551896
0.9674338848
0.9725858514
0.9764300578
0.9797171188
0.9829329778
0.9810343498
0.9794840516
0.9796530601
0.974992217
0.9685012655
0.9676286143
0.9645932646
0.9603149497
0.9538652659
0.951838195
0.9475095449
0.9457365366
0.936849788
0.9330311361
0.930669218
0.9265672291
0.9230167194
0.9179196655
0.9129295827
0.9061505102
0.9035812683
0.9001155296
0.8950193471
0.8913126513
0.8870290863
0.8801061279
0.8784082242
0.8770448219
0.8760633365
0.8723489705
0.8660384256
0.8594106761
0.8576608914
0.854123726
0.8491257269
0.8457276252
0.8421040221
0.8372035064
0.8340012873
0.8310390832
0.8269510755
0.8207342724
0.8186426583
0.8169468365
0.8106099387
0.8081056453
0.802095589
0.7971879347
0.7915156635
0.7837742114
0.7773999237
0.7704607565
0.7619781752
0.7512788873
0.7392528314
0.7267389046
0.7098108288
0.6897445682
0.669270882
0.6434803516
0.6105909033
0.5661299588
0.4220721652
0.4245943999
0.428435232
0.4339120174
0.4409156073
0.449568955
0.458551155
0.4688243522
0.4808866664
0.4967292018
0.5129099032
0.5325678586
0.5535403623
0.5773861363
0.6032980905
0.6318155737
0.66010816
0.6902252613
0.7179667465
0.7506633444
0.7782373653
0.8064366497
0.8321951895
0.8555462156
0.8789221971
0.8959539507
0.9115840221
0.9225596829
0.9367180869
0.9459144237
0.9554151273
0.9573991068
0.9613126319
0.9631616106
0.9642636799
0.9671354793
0.9660004126
0.961933989
0.9592867842
0.9586679557
0.9561778782
0.9495109951
0.9482081136
0.9463674947
0.939556219
0.9340186182
0.9308663308
0.9283002533
0.924549563
0.9187017099
0.9170399584
0.9082006433
0.905845665
0.8992649028
0.8965713546
0.8955502728
0.8885136155
0.8830489773
0.8815747157
0.8778709856
0.875072619
0.8721503496
0.8655492457
0.8631645967
0.8579075259
0.8554494462
0.852364069
0.8475284609
0.8436193378
0.8445580421
0.8377033231
0.8327439098
0.8293970217
0.8273785387
0.8201447228
0.8158367805
0.814405648
0.8090520578
0.804840527
0.8007528789
0.7961037401
0.7921225615
0.7855350789
0.7771477499
0.7707900459
0.7605748874
0.7519492405
0.7411470185
0.7288690269
0.7146473478
0.6989584363
0.6753738823
0.6488211606
0.6217279637
0.58037668
0.4199463737
0.4215721848
0.4241170529
0.4292032791
0.433192564
0.438722906
0.4460339923
0.4525446904
0.4608375754
0.472632524
0.4863080431
0.5007330317
0.5163520219
0.5345407992
0.5547323519
0.5775355758
0.6009655756
0.6275321884
0.6566061186
0.6846871271
0.7124256368
0.7413520598
0.7693835835
0.7937851171
0.821596381
0.8438679191
0.8653966986
0.8812746066
0.897855943
0.9129198492
0.9249225555
0.9324325043
0.9393927701
0.9473687492
0.9520858294
0.9550373204
0.9559686147
0.9570648367
0.9533641707
0.9524228442
0.9492702144
0.9463700905
0.9418022245
0.9407778032
0.9389688099
0.9324085215
0.9270844495
0.9262443583
0.921031638
0.9156673808
0.9138967989
0.9066921964
0.9041822568
0.9003274548
0.8947678512
0.8931699632
0.8887656338
0.8844234671
0.8804258667
0.8756155777
0.8726195791
0.8688777269
0.864823359
0.8612472235
0.8605519515
0.855068961
0.8499941001
0.8471795981
0.8441729953
0.8390576017
0.8377234545
0.8308886298
0.8280535927
0.8234151597
0.818837714
0.8131211115
0.8131844043
0.8087259289
0.8034691207
0.7987468342
0.7936657982
0.7902983893
0.7844402495
0.779328607
0.7710322658
0.761284811
0.7538078087
0.7422207386
0.7330601727
0.7221391203
0.7040199722
0.6839259829
0.6593936268
0.6325844054
0.5959725529
0.4194394042
0.4207996434
0.4217798413
0.4251036658
0.4278599472
0.4314817067
0.4354134061
0.4415116111
0.4486969703
0.4550343034
0.4646176529
0.4758603333
0.4875080446
0.5026591308
0.5184543468
0.5355282296
0.5552183952
0.5782162251
0.6010550733
0.625673913
0.6513533398
0.6799876702
0.7075012762
0.7339976745
0.7602030315
0.7866201714
0.8121600262
0.8354594976
0.8537429029
0.8708523367
0.8876931954
0.9015907611
0.9133737204
0.9236167738
0.9323581665
0.9371466365
0.940522606
0.9452522385
0.9480360987
0.9459936552
0.9444905219
0.9418974277
0.9380245085
0.9363566333
0.9348614931
0.9334103645
0.924093481
0.9217488986
0.9201114367
0.9148186971
0.9119822699
0.9089474958
0.9024221385
0.9004776167
0.8960815918
0.8920180678
0.889263434
0.8839054682
0.8790271045
0.8767823505
0.870184387
0.8677558802
0.8674215264
0.8618329533
0.8579724434
0.8513256212
0.8490732938
0.8451588247
0.8431197481
0.8383820307
0.8330247557
0.8301287905
0.8262703392
0.8207069071
0.8161057141
0.8115001544
0.8111274865
0.8086044473
0.8038098638
0.7995743596
0.7956430562
0.7902201739
0.7857043007
0.7788710269
0.7730446445
0.7654394854
0.7562240223
0.7458296262
0.7366428776
0.7224722202
0.7085817783
0.6937627802
0.6699137132
0.644767271
0.6103804096
0.4180508375
0.4184728141
0.4195799702
0.4212243665
0.4237377134
0.4251717965
0.4281451716
0.431760533
0.437054112
0.4427952897
0.4495363776
0.4572082803
0.4643686197
0.47663792
0.4888701952
0.5028206498
0.5177134068
0.5359268548
0.5548761091
0.5756638239
0.5979793363
0.6212653623
0.6466477453
0.6728913734
0.6994226494
0.7257582362
0.752923286
0.778460611
0.8027326828
0.8248852295
0.8445662388
0.8626838196
0.8778962665
0.8895073092
0.9037328285
0.9134706492
0.9204611922
0.9250449458
0.9301751552
0.9322792612
0.9345908594
0.9347338679
0.9337549945
0.9333675869
0.9307342442
0.9280702851
0.9270095256
0.9216407858
0.9182718448
0.9153648035
0.9106957048
0.9082145663
0.9018480629
0.8985275205
0.8959575928
0.8909003704
0.8858789271
0.8843753872
0.8791475349
0.8770630324
0.8738558989
0.8676300763
0.8649727605
0.8614133174
0.8562536608
0.8529776267
0.8485429794
0.8443476398
0.8403116025
0.837301681
0.8313879909
0.8297580337
0.8269540651
0.8220212872
0.8159104203
0.8128115046
0.8104381131
0.8076275908
0.8048601907
0.8001956983
0.7944086924
0.7901519527
0.7856165278
0.7792318882
0.7732526654
0.7643633642
0.7567914437
0.7479537017
0.7377913461
0.7282803156
0.7159006374
0.6971814558
0.6765380216
0.6565048419
0.6253882767
0.4166035003
0.4172356846
0.4174487982
0.4185474486
0.4197613224
0.4226357132
0.4251695253
0.4279453567
0.4315346798
0.435220997
0.4385816716
0.4452877307
0.4518015665
0.4602341725
0.4691147583
0.4785494314
0.4894657742
0.5022619125
0.5190437825
0.5359030421
0.5555605508
0.5751503949
0.5953583294
0.6192565209
0.6443487179
0.6680152555
0.6938463022
0.7211136612
0.7455310337
0.7686896576
0.7930576211
0.81361082
0.8357478905
0.8541277735
0.8682858202
0.8814746715
0.8906472207
0.9028690875
0.910730229
0.9187334961
0.9232312751
0.9255921755
0.9273417978
0.9264590885
0.924569465
0.9237304814
0.9229273959
0.9216872965
0.9185289767
0.9173881306
0.9133032558
0.9083517684
0.905128482
0.9005107613
0.8975624921
0.8919059016
0.8874111949
0.8849078806
0.8804977438
0.8780172603
0.8710702196
0.8687382928
0.8635515379
0.8607411666
0.8584389373
0.855097644
0.849389286
0.8448713627
0.8398709173
0.8372828507
0.8322743183
0.8309601158
0.8253677815
0.823221815
0.8176755164
0.8133666442
0.8094128776
0.8071907078
0.8039066399
0.7994861629
0.796533309
0.7869501081
0.7826877013
0.7788147348
0.7744098337
0.7645077202
0.759298967
0.7510155638
0.7425251199
0.7340946819
0.7204375296
0.7055548833
0.6878976706
0.6659558934
0.6405586208
0.4140962775
0.4148003998
0.4159286436
0.4169638028
0.4179890036
0.4201783974
0.4216525633
0.4233715593
0.4254299484
0.4286680923
0.431393745
0.4354222049
0.4392182165
0.445612208
0.4519481206
0.4602671609
0.4694049317
0.4795995319
0.490260691
0.5023669327
0.5174886055
0.5343642966
0.5528575617
0.5721275371
0.5929526303
0.6152450341
0.6385285856
0.6618425407
0.6890922169
0.7124845308
0.7367817794
0.7612998991
0.7821711677
0.8018578623
0.8236549467
0.8427209372
0.8591900788
0.872204629
0.8824403495
0.8936004878
0.9012843363
0.9099471576
0.9117203181
0.9173776812
0.9199748391
0.9195877498
0.9199879615
0.920496517
0.9167769741
0.9157112625
0.9118675573
0.9092737094
0.9045850227
0.9033830621
0.9000777795
0.8968629681
0.8907484342
0.8877556755
0.8820602536
0.8782097918
0.8750871622
0.8725204448
0.8670757318
0.8621451995
0.8585507771
0.8541668155
0.8514408374
0.8471066472
0.8426359963
0.8367461475
0.8338292414
0.8311782766
0.8265861794
0.8210086598
0.8168029839
0.8126961253
0.8106528519
0.8087247952
0.8042017225
0.7997248088
0.7955080793
0.7904168722
0.7852674011
0.7805781527
0.7744674091
0.768175404
0.7594935992
0.7544228131
0.7455614959
0.7357866156
0.7240640198
0.7103090231
0.6964475871
0.678915303
0.6527909308
0.4153612046
0.4161510587
0.4167644781
0.4162629411
0.416354723
0.4174057974
0.4194734096
0.420825167
0.421957106
0.4245407205
0.4274627238
0.4304714637
0.4327137492
0.4352334281
0.4407154619
0.4450675299
0.4522078555
0.4602557496
0.4689065153
0.4789890183
0.4907175559
0.5031254965
0.5178046836
0.531953023
0.5495649885
0.5695655486
0.5906500492
0.6110094734
0.6331868833
0.6581213135
0.6819515038
0.7054192495
0.7294319208
0.753185846
0.7749989132
0.7980064295
0.8158563634
0.8330413692
0.8484066963
0.8640435923
0.8755652514
0.8838214947
0.8950031861
0.9008692103
0.9072902129
0.9124722483
0.9122598971
0.9130765508
0.9137975799
0.9109688998
0.9103069036
0.9096806555
0.9069424546
0.9047343644
0.9002257463
0.8966082541
0.8921932662
0.8893406413
0.8850295702
0.8799002506
0.877024213
0.8727107075
0.8680818509
0.8618714491
0.861082571
0.8575772753
0.8535285528
0.8494556897
0.8450644648
0.8398862105
0.8365275588
0.8313546242
0.8272898216
0.823868849
0.8199315075
0.8174213635
0.8122142554
0.8085529969
0.8022443902
0.8004983196
0.7970346367
0.7936424314
0.786581493
0.7828420714
0.7778358398
0.7721784899
0.7650695263
0.7599425645
0.7505859848
0.7426665939
0.7315426302
0.7191127754
0.705042089
0.6903142104
0.6678549325
0.4148103843
0.4154748145
0.415401545
0.4159452051
0.4170615657
0.4169427716
0.4174634964
0.4182215674
0.4208168597
0.4216094238
0.4230317876
0.4246838084
0.426812123
0.4304266451
0.433166635
0.4373115071
0.4402225926
0.4459082836
0.4522454071
0.4584177902
0.4675138997
0.4775532012
0.4891802019
0.5010500909
0.5146459479
0.5294934532
0.546461101
0.5653006084
0.5835579764
0.6061953088
0.6288231058
0.6505588246
0.6744953705
0.6986463492
0.7217678801
0.744589891
0.7677511289
0.7887888526
0.8078205822
0.8244182162
0.8404628299
0.85539591
0.8665096226
0.879939094
0.8871135982
0.8946043383
0.9013619914
0.9037062076
0.9057367052
0.9089814816
0.9071728436
0.9066803791
0.9061126697
0.9024599032
0.899925068
0.897645543
0.8942755484
0.8912298436
0.8869504891
0.8817101906
0.8774187503
0.8751967588
0.8694724977
0.8680851909
0.8646302563
0.8610253936
0.8560941243
0.8508424892
0.8473673851
0.8429906221
0.8390302103
0.8351164514
0.8299369473
0.8268345736
0.8240197847
0.8208611048
0.8149601577
0.8106452901
0.8046014028
0.8005227608
0.7978033567
0.7940287601
0.7906610526
0.7859461832
0.7794604536
0.7749871234
0.7676781837
0.7607392713
0.7564385606
0.7463068595
0.7367333564
0.7269896144
0.713660528
0.6977790479
0.6784033478
0.4132848813
0.414009236
0.4144026527
0.4141819502
0.4147330202
0.4162751672
0.4174597541
0.4174307827
0.4176499379
0.4186758127
0.4202710134
0.4225025442
0.4250811099
0.4257215105
0.4273251145
0.4303827447
0.4345682242
0.4388635479
0.4422684891
0.4472939788
0.4526592943
0.4600747769
0.4681554222
0.47714935
0.4878307492
0.4991265557
0.5107444105
0.5261444271
0.5438815614
0.5589018192
0.5791337168
0.6007090784
0.6234114712
0.644756609
0.6689370247
0.692005086
0.7154986245
0.7378882005
0.7604288193
0.7807620343
0.7997237592
0.8177739992
0.8343182466
0.8482267501
0.8611682491
0.8707649909
0.8793794059
0.8870807372
0.8942406034
0.8970053755
0.8999669306
0.9019492156
0.9011262429
0.9017401852
0.9000048094
0.8957010021
0.8940395925
0.8917459295
0.8867111113
0.8853434427
0.8819306281
0.8795557737
0.8752547915
0.8712137668
0.8679553559
0.8616998944
0.8573517882
0.8529535548
0.8508409632
0.8471024468
0.8425528376
0.8380419859
0.8331988598
0.8297964222
0.8251381082
0.8210020537
0.818608602
0.814578589
0.8097309657
0.8025211314
0.8003472179
0.7963886448
0.7934928356
0.7871793185