/*--------------------------------*- C++ -*----------------------------------*\
| =========                 |                                                 |
| \\      /  F ield         | OpenFOAM: The Open Source CFD Toolbox           |
|  \\    /   O peration     | Version:  v1706                                 |
|   \\  /    A nd           | Web:      www.OpenFOAM.com                      |
|    \\/     M anipulation  |                                                 |
\*---------------------------------------------------------------------------*/
FoamFile
{
    version     2.0;
    format      ascii;
    class       volScalarField;
    location    "0.14";
    object      rhoM_N2cold;
}
// * * * * * * * * * * * * * * * * * * * * * * * * * * * * * * * * * * * * * //

dimensions      [1 -3 0 0 0 0 0];


internalField   nonuniform List<scalar> 
6000
(
4.651743863e-06
4.657960539e-06
4.675480637e-06
4.733568107e-06
5.03222623e-06
4.64743716e-06
4.657854383e-06
4.679821333e-06
4.761629717e-06
4.978948795e-06
4.657004148e-06
4.668975961e-06
4.697198491e-06
4.764962866e-06
4.904046869e-06
4.654894203e-06
4.665817482e-06
4.688968314e-06
4.734876629e-06
4.819550248e-06
4.655859369e-06
4.660513012e-06
4.67634302e-06
4.709928907e-06
4.76390033e-06
4.654139079e-06
4.653335479e-06
4.67303025e-06
4.689452165e-06
4.722585775e-06
4.649819643e-06
4.659205352e-06
4.664769001e-06
4.683507743e-06
4.711503881e-06
4.652742257e-06
4.656975527e-06
4.670947776e-06
4.675469647e-06
4.692806324e-06
4.652513779e-06
4.652726678e-06
4.656578313e-06
4.666639674e-06
4.686219724e-06
4.653559756e-06
4.662015594e-06
4.665692028e-06
4.671722232e-06
4.667972228e-06
4.649639944e-06
4.656699237e-06
4.652973704e-06
4.664399787e-06
4.665807462e-06
4.649989798e-06
4.642795283e-06
4.653634133e-06
4.654465926e-06
4.665172308e-06
4.651028653e-06
4.657893942e-06
4.655481145e-06
4.651413241e-06
4.652087807e-06
4.650577408e-06
4.651717805e-06
4.649461403e-06
4.654626142e-06
4.657649274e-06
4.65104213e-06
4.65105344e-06
4.656976341e-06
4.653774895e-06
4.665116416e-06
4.651581837e-06
4.651504899e-06
4.649998404e-06
4.655849482e-06
4.65380027e-06
4.645221627e-06
4.647718502e-06
4.645865654e-06
4.649573315e-06
4.649640446e-06
4.652714532e-06
4.650332031e-06
4.649273827e-06
4.646297437e-06
4.642062226e-06
4.648079235e-06
4.645301138e-06
4.645290502e-06
4.648015862e-06
4.654641083e-06
4.651115584e-06
4.648229138e-06
4.651852644e-06
4.649250134e-06
4.652996442e-06
4.649919995e-06
4.653287581e-06
4.656509665e-06
4.658266626e-06
4.654790295e-06
4.656105989e-06
4.652350339e-06
4.649556105e-06
4.645300247e-06
4.644727696e-06
4.646297336e-06
4.645422134e-06
4.647354377e-06
4.64882903e-06
4.647478765e-06
4.651986902e-06
4.648958895e-06
4.649439103e-06
4.652241312e-06
4.646742118e-06
4.650586461e-06
4.651987488e-06
4.646563911e-06
4.65172634e-06
4.65158911e-06
4.651891121e-06
4.652813043e-06
4.651384574e-06
4.644457035e-06
4.649752646e-06
4.649001566e-06
4.643810269e-06
4.644394907e-06
4.654266173e-06
4.656480795e-06
4.648277467e-06
4.652485237e-06
4.653492645e-06
4.648481235e-06
4.646195501e-06
4.647423463e-06
4.64338048e-06
4.648802716e-06
4.648427032e-06
4.651823031e-06
4.654473344e-06
4.655009367e-06
4.651493326e-06
4.650766371e-06
4.649665806e-06
4.6511358e-06
4.650467151e-06
4.650778509e-06
4.650170863e-06
4.645707847e-06
4.646679376e-06
4.646154977e-06
4.642841863e-06
4.650009824e-06
4.655051823e-06
4.652488014e-06
4.650906305e-06
4.652073386e-06
4.651397657e-06
4.644579292e-06
4.64725134e-06
4.65181354e-06
4.651881063e-06
4.652140169e-06
4.649821328e-06
4.653502097e-06
4.651325067e-06
4.648816627e-06
4.648433028e-06
4.647885972e-06
4.651178007e-06
4.651337813e-06
4.648010433e-06
4.651440195e-06
4.648748738e-06
4.65254332e-06
4.649570339e-06
4.648511761e-06
4.65040299e-06
4.648443931e-06
4.64988287e-06
4.651429041e-06
4.650959421e-06
4.651373774e-06
4.65082064e-06
4.650961076e-06
4.648587872e-06
4.646295576e-06
4.649993889e-06
4.651259982e-06
4.651280608e-06
4.652475932e-06
4.655316471e-06
4.653386811e-06
4.658727533e-06
4.65142861e-06
4.650647698e-06
4.649567764e-06
4.651001068e-06
4.654201326e-06
4.648542965e-06
4.650436063e-06
4.647905724e-06
4.646919035e-06
4.648304756e-06
4.651253407e-06
4.650614755e-06
4.653660519e-06
4.650235961e-06
4.647859858e-06
4.647430596e-06
4.646593765e-06
4.648815406e-06
4.646784111e-06
4.651493875e-06
4.653750963e-06
4.654240508e-06
4.65062444e-06
4.651771083e-06
4.651447655e-06
4.647114995e-06
4.649253084e-06
4.647160604e-06
4.652552105e-06
4.652859582e-06
4.652780439e-06
4.651621754e-06
4.651438489e-06
4.643942765e-06
4.649973644e-06
4.650684178e-06
4.649856101e-06
4.656154111e-06
4.657932019e-06
4.65097475e-06
4.648389223e-06
4.646803473e-06
4.645272018e-06
4.647072906e-06
4.649306062e-06
4.652808388e-06
4.650081032e-06
4.654779223e-06
4.653375054e-06
4.655066669e-06
4.651111726e-06
4.651000961e-06
4.644334638e-06
4.643849438e-06
4.646618285e-06
4.64858232e-06
4.64793944e-06
4.648417239e-06
4.64976418e-06
4.64785048e-06
4.645969443e-06
4.646618207e-06
4.65107785e-06
4.647099357e-06
4.650179832e-06
4.653532928e-06
4.654904855e-06
4.65243319e-06
4.648662791e-06
4.65042799e-06
4.647309888e-06
4.647300506e-06
4.647470954e-06
4.651339546e-06
4.651954448e-06
4.650569847e-06
4.650818718e-06
4.643623273e-06
4.64590905e-06
4.644855769e-06
4.648652911e-06
4.650492746e-06
4.658961418e-06
4.654307586e-06
4.658961977e-06
4.653210479e-06
4.652629596e-06
4.653404405e-06
4.653209999e-06
4.655611207e-06
4.646056971e-06
4.64768639e-06
4.642339865e-06
4.643615797e-06
4.643976104e-06
4.647789046e-06
4.650396079e-06
4.648369409e-06
4.648842939e-06
4.645843775e-06
6.07462103e-06
6.300609637e-06
6.232668002e-06
6.148423205e-06
6.072617822e-06
6.007615079e-06
5.959877519e-06
5.906606942e-06
5.854447205e-06
5.817991935e-06
5.787433304e-06
5.738809267e-06
5.675209674e-06
5.626557136e-06
5.591521968e-06
5.558215785e-06
5.555621173e-06
5.513627258e-06
5.473826758e-06
5.425065337e-06
5.3866823e-06
5.369913858e-06
5.343183612e-06
5.327942034e-06
5.31509724e-06
5.271611414e-06
5.234276593e-06
5.183489268e-06
5.187133872e-06
5.144506443e-06
5.10322606e-06
5.111059143e-06
5.103942376e-06
5.056462669e-06
5.033065461e-06
5.013966275e-06
4.989036761e-06
4.977909024e-06
4.958575216e-06
4.922420415e-06
4.90209041e-06
4.894201348e-06
4.885047236e-06
4.869145939e-06
4.847876018e-06
4.829272142e-06
4.8132327e-06
4.778108038e-06
4.798165008e-06
4.768440022e-06
4.719051217e-06
4.727073668e-06
4.712937317e-06
4.703026695e-06
4.694871663e-06
4.665107529e-06
4.636587675e-06
4.648178025e-06
4.618985591e-06
4.604265725e-06
4.600749535e-06
4.578843695e-06
4.571630146e-06
4.540670073e-06
4.563089513e-06
4.532311391e-06
4.519811796e-06
4.490615128e-06
4.477398885e-06
4.483084992e-06
4.474853555e-06
4.448968672e-06
4.411991515e-06
4.436796047e-06
4.418318449e-06
4.396089605e-06
4.372679305e-06
4.35528613e-06
4.321279555e-06
4.288491431e-06
4.304259435e-06
4.257451385e-06
4.236188219e-06
4.208979261e-06
4.161856206e-06
4.123906162e-06
4.052069544e-06
3.993622434e-06
3.929920808e-06
3.85577197e-06
3.721698848e-06
3.564912336e-06
3.389718195e-06
3.148459074e-06
2.688560207e-06
5.41832629e-06
5.918209845e-06
6.251653068e-06
6.381041528e-06
6.382442796e-06
6.322814892e-06
6.248543642e-06
6.177599114e-06
6.072581512e-06
5.985242329e-06
5.909692396e-06
5.843555474e-06
5.771750585e-06
5.702196785e-06
5.640650272e-06
5.596044066e-06
5.54068761e-06
5.482967061e-06
5.429595777e-06
5.403691092e-06
5.336898876e-06
5.308930917e-06
5.289410234e-06
5.24428138e-06
5.22916757e-06
5.170411962e-06
5.124221841e-06
5.096675902e-06
5.059256746e-06
5.034161609e-06
5.00008943e-06
4.997318157e-06
4.97194362e-06
4.928822762e-06
4.914701216e-06
4.890852154e-06
4.871381147e-06
4.832597044e-06
4.825094405e-06
4.807947156e-06
4.791065737e-06
4.768774041e-06
4.750104552e-06
4.746409879e-06
4.707363263e-06
4.705794411e-06
4.687920845e-06
4.651552502e-06
4.647353357e-06
4.62749082e-06
4.598859977e-06
4.575469868e-06
4.58070975e-06
4.576772352e-06
4.564446694e-06
4.536317978e-06
4.521508205e-06
4.512460959e-06
4.487813784e-06
4.487201969e-06
4.469316162e-06
4.462709764e-06
4.442428231e-06
4.409250616e-06
4.414557953e-06
4.416063784e-06
4.386634532e-06
4.367609126e-06
4.345793452e-06
4.364071066e-06
4.352850017e-06
4.334299968e-06
4.307864192e-06
4.303605267e-06
4.295384828e-06
4.285485218e-06
4.250821778e-06
4.246071082e-06
4.216388754e-06
4.195541969e-06
4.182216191e-06
4.145217498e-06
4.126429015e-06
4.10449084e-06
4.055453441e-06
4.012572608e-06
3.938054149e-06
3.896993329e-06
3.841370738e-06
3.751237127e-06
3.636726669e-06
3.482819936e-06
3.310993959e-06
3.055018505e-06
2.606990459e-06
5.119826764e-06
5.413932648e-06
5.725194069e-06
5.998223307e-06
6.191930292e-06
6.320348231e-06
6.347544679e-06
6.325258549e-06
6.282448371e-06
6.21569612e-06
6.142901929e-06
6.058691672e-06
5.983916503e-06
5.906925466e-06
5.827043944e-06
5.760471406e-06
5.680431565e-06
5.618886009e-06
5.557651121e-06
5.500224515e-06
5.430914187e-06
5.389382804e-06
5.337480711e-06
5.299788151e-06
5.250945688e-06
5.203291617e-06
5.154151142e-06
5.108191168e-06
5.069823509e-06
5.035976243e-06
5.012087785e-06
4.990513404e-06
4.960068478e-06
4.922486473e-06
4.898956305e-06
4.855990993e-06
4.826116339e-06
4.799060163e-06
4.798719777e-06
4.761152919e-06
4.735596247e-06
4.722237523e-06
4.705904167e-06
4.690249529e-06
4.661413744e-06
4.631986703e-06
4.618081782e-06
4.594414825e-06
4.588237147e-06
4.561118131e-06
4.540322221e-06
4.534567508e-06
4.525241264e-06
4.497100803e-06
4.490607485e-06
4.47088846e-06
4.458619226e-06
4.442180533e-06
4.430418255e-06
4.404567505e-06
4.367990825e-06
4.380192552e-06
4.348715034e-06
4.354336824e-06
4.330028725e-06
4.315733722e-06
4.300542478e-06
4.289909313e-06
4.298266458e-06
4.296304684e-06
4.270084607e-06
4.265790228e-06
4.255966424e-06
4.230010755e-06
4.220834391e-06
4.198953415e-06
4.174914562e-06
4.172674764e-06
4.153098179e-06
4.120370428e-06
4.100299556e-06
4.090096331e-06
4.060203028e-06
4.02697211e-06
3.989873018e-06
3.960757992e-06
3.886538102e-06
3.836549543e-06
3.779644447e-06
3.695543631e-06
3.594142119e-06
3.43570735e-06
3.276857624e-06
3.041390893e-06
2.648595659e-06
4.946829092e-06
5.122284531e-06
5.347139497e-06
5.590236281e-06
5.831731256e-06
6.032496036e-06
6.182241393e-06
6.283543195e-06
6.336713199e-06
6.340605491e-06
6.326532028e-06
6.277509132e-06
6.214206584e-06
6.139494012e-06
6.060498471e-06
5.977017838e-06
5.911370942e-06
5.833935981e-06
5.74441378e-06
5.685600426e-06
5.610350757e-06
5.536110527e-06
5.477727664e-06
5.433253473e-06
5.376553754e-06
5.324657233e-06
5.248706998e-06
5.21110888e-06
5.172858186e-06
5.137923752e-06
5.091920023e-06
5.044931474e-06
4.996667873e-06
4.975931592e-06
4.958515214e-06
4.91901512e-06
4.873137784e-06
4.845259221e-06
4.803641048e-06
4.78369892e-06
4.75868798e-06
4.726204112e-06
4.712130153e-06
4.695479595e-06
4.657701673e-06
4.643597489e-06
4.598595067e-06
4.580602903e-06
4.558380591e-06
4.548222973e-06
4.525955069e-06
4.511371937e-06
4.489987891e-06
4.468431223e-06
4.452638218e-06
4.437787326e-06
4.419379358e-06
4.407898212e-06
4.389705305e-06
4.360947639e-06
4.359301903e-06
4.351238943e-06
4.329872779e-06
4.305390573e-06
4.287916325e-06
4.28219475e-06
4.271096219e-06
4.266946388e-06
4.243075172e-06
4.231865447e-06
4.213889249e-06
4.21406044e-06
4.198057544e-06
4.197052776e-06
4.167948151e-06
4.15437092e-06
4.122928716e-06
4.113847072e-06
4.092286181e-06
4.073723195e-06
4.069338779e-06
4.035472919e-06
4.007109069e-06
3.979610654e-06
3.942434131e-06
3.907520809e-06
3.849919022e-06
3.803777011e-06
3.732306981e-06
3.658185645e-06
3.564554972e-06
3.428341246e-06
3.271580738e-06
3.040095537e-06
2.716127256e-06
4.839009441e-06
4.951713992e-06
5.114579496e-06
5.293036621e-06
5.49586152e-06
5.704381465e-06
5.896252023e-06
6.065585681e-06
6.20519801e-06
6.294271081e-06
6.342739292e-06
6.364512614e-06
6.351018963e-06
6.320732432e-06
6.265444857e-06
6.223021454e-06
6.146620859e-06
6.091729213e-06
6.005206587e-06
5.927003061e-06
5.848744865e-06
5.778833787e-06
5.699723662e-06
5.632607199e-06
5.574623992e-06
5.496904492e-06
5.426590992e-06
5.369872667e-06
5.321658088e-06
5.263627095e-06
5.212474007e-06
5.171109718e-06
5.122007794e-06
5.065487606e-06
5.032815048e-06
4.997053174e-06
4.952393054e-06
4.917190755e-06
4.877147301e-06
4.84570286e-06
4.816151543e-06
4.772289225e-06
4.72981574e-06
4.726829444e-06
4.678873812e-06
4.640421115e-06
4.622677477e-06
4.595679656e-06
4.589010345e-06
4.552034049e-06
4.527148872e-06
4.5129736e-06
4.49917411e-06
4.47638619e-06
4.462806952e-06
4.429280996e-06
4.423211362e-06
4.387694525e-06
4.375921218e-06
4.356283023e-06
4.348316544e-06
4.337034856e-06
4.334875123e-06
4.311328142e-06
4.278581792e-06
4.266621014e-06
4.253854723e-06
4.242188333e-06
4.228252821e-06
4.200163594e-06
4.191150811e-06
4.181812082e-06
4.167711353e-06
4.157794876e-06
4.151521358e-06
4.133056381e-06
4.100394315e-06
4.10007031e-06
4.063783588e-06
4.056653574e-06
4.032891521e-06
4.013463033e-06
3.977072444e-06
3.952066276e-06
3.910291965e-06
3.877545985e-06
3.83152098e-06
3.782088095e-06
3.713766381e-06
3.627934758e-06
3.544015193e-06
3.428436213e-06
3.285076955e-06
3.089145416e-06
2.787675479e-06
4.779013351e-06
4.853842592e-06
4.951748021e-06
5.072722568e-06
5.228459953e-06
5.4069341e-06
5.58966437e-06
5.769595853e-06
5.945129633e-06
6.08613402e-06
6.210709759e-06
6.29307272e-06
6.359609687e-06
6.379141401e-06
6.381372537e-06
6.359448005e-06
6.318441415e-06
6.268983313e-06
6.216838665e-06
6.167524993e-06
6.100907858e-06
6.0275426e-06
5.947063242e-06
5.863012334e-06
5.787990986e-06
5.719035208e-06
5.65714276e-06
5.571609917e-06
5.512992515e-06
5.446125409e-06
5.392599069e-06
5.342696655e-06
5.287181502e-06
5.225182479e-06
5.179360313e-06
5.126722162e-06
5.075799406e-06
5.025406225e-06
4.992742894e-06
4.941745898e-06
4.898231927e-06
4.850147394e-06
4.826480857e-06
4.790654905e-06
4.749755982e-06
4.730456937e-06
4.696387454e-06
4.674332552e-06
4.641997357e-06
4.60661223e-06
4.575117818e-06
4.549486819e-06
4.532427026e-06
4.491810477e-06
4.471253721e-06
4.447625583e-06
4.43420622e-06
4.406199053e-06
4.384840428e-06
4.370103987e-06
4.370108327e-06
4.347545074e-06
4.319794149e-06
4.313934018e-06
4.284512856e-06
4.25801819e-06
4.248982306e-06
4.240721347e-06
4.227343806e-06
4.20174055e-06
4.183632189e-06
4.173869152e-06
4.161351207e-06
4.141434767e-06
4.128472047e-06
4.112569083e-06
4.103204249e-06
4.083411968e-06
4.069975837e-06
4.054204273e-06
4.027039027e-06
3.993814605e-06
3.961276904e-06
3.935718322e-06
3.903777185e-06
3.865368254e-06
3.833615523e-06
3.771826323e-06
3.699575568e-06
3.636334538e-06
3.544791612e-06
3.457555988e-06
3.319478896e-06
3.125014972e-06
2.876326966e-06
4.741493146e-06
4.792733677e-06
4.855986283e-06
4.947994544e-06
5.054090843e-06
5.179665929e-06
5.336747676e-06
5.492225744e-06
5.665571459e-06
5.823859636e-06
5.976854644e-06
6.116580823e-06
6.228474565e-06
6.322564265e-06
6.371553578e-06
6.4126154e-06
6.423008109e-06
6.418533133e-06
6.38859576e-06
6.343547028e-06
6.304179317e-06
6.242098107e-06
6.183954915e-06
6.112132843e-06
6.026867412e-06
5.953134301e-06
5.882753858e-06
5.815505318e-06
5.745890561e-06
5.664444913e-06
5.598653273e-06
5.526679043e-06
5.471241043e-06
5.417199806e-06
5.351346124e-06
5.281539708e-06
5.236478797e-06
5.192482366e-06
5.12407724e-06
5.068579224e-06
5.027574842e-06
4.989461889e-06
4.952427463e-06
4.908143426e-06
4.860434976e-06
4.817349561e-06
4.788340123e-06
4.755518664e-06
4.721755092e-06
4.690251315e-06
4.652814622e-06
4.629356937e-06
4.59853331e-06
4.568805548e-06
4.536463896e-06
4.512021329e-06
4.482166337e-06
4.468181647e-06
4.43308675e-06
4.414236536e-06
4.381322637e-06
4.37378886e-06
4.340482993e-06
4.338835369e-06
4.316342946e-06
4.285943454e-06
4.277968862e-06
4.263000561e-06
4.237553208e-06
4.219515821e-06
4.200675306e-06
4.194626028e-06
4.163281439e-06
4.140749705e-06
4.127554513e-06
4.116986497e-06
4.108231404e-06
4.093999335e-06
4.070942593e-06
4.055228411e-06
4.02540023e-06
3.994507791e-06
3.969122781e-06
3.937288384e-06
3.912814103e-06
3.866182636e-06
3.823377557e-06
3.78416506e-06
3.716146279e-06
3.653090578e-06
3.573466673e-06
3.469766296e-06
3.348070792e-06
3.171427194e-06
2.949996027e-06
4.718533157e-06
4.750101392e-06
4.792698196e-06
4.846907219e-06
4.921683866e-06
5.0254739e-06
5.131889932e-06
5.267258573e-06
5.410057399e-06
5.559199616e-06
5.724244404e-06
5.87317114e-06
6.021998834e-06
6.152859734e-06
6.274858397e-06
6.351700972e-06
6.40839761e-06
6.442122217e-06
6.460056866e-06
6.458902014e-06
6.435997302e-06
6.421851411e-06
6.372458281e-06
6.316231171e-06
6.259709844e-06
6.195247829e-06
6.122870893e-06
6.053313855e-06
5.984783513e-06
5.900835366e-06
5.833603137e-06
5.769520912e-06
5.69398836e-06
5.633211515e-06
5.56343066e-06
5.494676065e-06
5.424867853e-06
5.379146924e-06
5.312373556e-06
5.265904292e-06
5.213408135e-06
5.159154016e-06
5.094348315e-06
5.047980692e-06
5.007358364e-06
4.95869015e-06
4.922011127e-06
4.880632036e-06
4.8342028e-06
4.80944063e-06
4.753497118e-06
4.720211982e-06
4.687346411e-06
4.647073561e-06
4.619878015e-06
4.589403072e-06
4.562230532e-06
4.532120812e-06
4.485598137e-06
4.46732746e-06
4.456437372e-06
4.432511154e-06
4.407714511e-06
4.382963886e-06
4.360280315e-06
4.348504349e-06
4.311380918e-06
4.289905103e-06
4.268758041e-06
4.249681551e-06
4.232249277e-06
4.211305735e-06
4.199309125e-06
4.167115253e-06
4.152345101e-06
4.143170664e-06
4.132495836e-06
4.120065048e-06
4.092557256e-06
4.057157968e-06
4.032637524e-06
4.018945958e-06
3.975570034e-06
3.952470103e-06
3.916180743e-06
3.879682461e-06
3.837798977e-06
3.785325426e-06
3.743748026e-06
3.672280026e-06
3.607672598e-06
3.506584709e-06
3.390084868e-06
3.238861875e-06
3.041756865e-06
4.695598393e-06
4.725714098e-06
4.762554384e-06
4.802646269e-06
4.847002653e-06
4.909100259e-06
4.985434198e-06
5.089789289e-06
5.209599928e-06
5.337549573e-06
5.476010593e-06
5.621141866e-06
5.77541114e-06
5.92336028e-06
6.059777856e-06
6.183464188e-06
6.283435848e-06
6.370422564e-06
6.437606819e-06
6.489915636e-06
6.504495041e-06
6.50325078e-06
6.497246264e-06
6.488235345e-06
6.432723711e-06
6.3914118e-06
6.345533568e-06
6.27448869e-06
6.206794357e-06
6.146320739e-06
6.073879609e-06
6.005598953e-06
5.925727306e-06
5.858686454e-06
5.796371915e-06
5.720378911e-06
5.640875667e-06
5.568842492e-06
5.511392108e-06
5.448446369e-06
5.382562641e-06
5.326667086e-06
5.264358669e-06
5.216916433e-06
5.168043813e-06
5.118617838e-06
5.064608898e-06
5.018061421e-06
4.964229849e-06
4.926553231e-06
4.881556782e-06
4.836439329e-06
4.793601556e-06
4.759982751e-06
4.729522626e-06
4.690193e-06
4.654553002e-06
4.618633846e-06
4.583083468e-06
4.554608652e-06
4.525356806e-06
4.496256524e-06
4.477332622e-06
4.447494093e-06
4.416780234e-06
4.408805683e-06
4.39237302e-06
4.360579304e-06
4.323047058e-06
4.313006961e-06
4.283479662e-06
4.269644245e-06
4.24741585e-06
4.228818209e-06
4.206867347e-06
4.180701841e-06
4.156914635e-06
4.135587344e-06
4.107087151e-06
4.092242873e-06
4.073470918e-06
4.034960013e-06
4.019803761e-06
3.981092348e-06
3.942209368e-06
3.925293895e-06
3.872868269e-06
3.828281869e-06
3.762512807e-06
3.710731548e-06
3.637395231e-06
3.564098117e-06
3.446287547e-06
3.320774593e-06
3.135477878e-06
4.67612066e-06
4.690659943e-06
4.711560521e-06
4.737967463e-06
4.774571841e-06
4.830529558e-06
4.894570181e-06
4.963628451e-06
5.0483905e-06
5.155127599e-06
5.268743819e-06
5.394746214e-06
5.533542107e-06
5.674657879e-06
5.82934188e-06
5.963707327e-06
6.09015766e-06
6.213284492e-06
6.312014255e-06
6.391724826e-06
6.463621576e-06
6.524721875e-06
6.543978598e-06
6.554460471e-06
6.560011179e-06
6.534925705e-06
6.499715616e-06
6.465063999e-06
6.424384628e-06
6.361886049e-06
6.301916315e-06
6.236189013e-06
6.170464995e-06
6.085328111e-06
6.015337666e-06
5.948555211e-06
5.87552193e-06
5.810620571e-06
5.735035959e-06
5.659673993e-06
5.602683464e-06
5.538931542e-06
5.473137002e-06
5.421837949e-06
5.352217694e-06
5.297654872e-06
5.230326389e-06
5.183132773e-06
5.139731219e-06
5.091711901e-06
5.04072381e-06
4.9923584e-06
4.948037748e-06
4.912207232e-06
4.867810632e-06
4.821599908e-06
4.77266638e-06
4.72789114e-06
4.692373067e-06
4.659761698e-06
4.631655429e-06
4.599170692e-06
4.572661489e-06
4.545847614e-06
4.503624756e-06
4.473651549e-06
4.454323627e-06
4.434281447e-06
4.40291527e-06
4.377186068e-06
4.354905307e-06
4.332212537e-06
4.313288535e-06
4.281381151e-06
4.256123972e-06
4.233343407e-06
4.206242692e-06
4.177807415e-06
4.16319405e-06
4.139660529e-06
4.108101197e-06
4.075696685e-06
4.046235686e-06
4.025165316e-06
3.991042722e-06
3.954938187e-06
3.911594492e-06
3.874572585e-06
3.827367751e-06
3.769069703e-06
3.698208207e-06
3.613160153e-06
3.510584834e-06
3.387661081e-06
3.229667969e-06
4.674305903e-06
4.680245559e-06
4.695074595e-06
4.725465122e-06
4.750153011e-06
4.785458962e-06
4.820946058e-06
4.866640933e-06
4.930801962e-06
5.007948591e-06
5.09742299e-06
5.20328778e-06
5.317386009e-06
5.429672386e-06
5.568357529e-06
5.706763521e-06
5.851944412e-06
5.99017765e-06
6.117262161e-06
6.230279875e-06
6.332614871e-06
6.414373664e-06
6.483583055e-06
6.538411398e-06
6.575270668e-06
6.594476574e-06
6.602327137e-06
6.599343091e-06
6.573850485e-06
6.536340658e-06
6.490395583e-06
6.433212328e-06
6.373448285e-06
6.322463237e-06
6.260433824e-06
6.196551423e-06
6.118350132e-06
6.053234411e-06
5.982419121e-06
5.904753751e-06
5.832894396e-06
5.767706844e-06
5.700431525e-06
5.625134084e-06
5.564676282e-06
5.498026595e-06
5.445092616e-06
5.37957367e-06
5.327957211e-06
5.274107525e-06
5.222915823e-06
5.164828627e-06
5.113647093e-06
5.061874129e-06
5.019033857e-06
4.978077575e-06
4.924688037e-06
4.868767227e-06
4.827650403e-06
4.794781171e-06
4.752806615e-06
4.718776314e-06
4.690820911e-06
4.65438033e-06
4.625032582e-06
4.581020395e-06
4.555378898e-06
4.519151936e-06
4.487509316e-06
4.457976951e-06
4.439163041e-06
4.406971502e-06
4.377449038e-06
4.350043755e-06
4.327736148e-06
4.295521914e-06
4.270600994e-06
4.258822675e-06
4.229519398e-06
4.191534391e-06
4.171265564e-06
4.144008674e-06
4.11013054e-06
4.070839906e-06
4.035543142e-06
4.008426549e-06
3.977770762e-06
3.923606466e-06
3.8801421e-06
3.81866312e-06
3.752045203e-06
3.667765986e-06
3.580114652e-06
3.469183171e-06
3.320346559e-06
4.671824717e-06
4.687817343e-06
4.693739152e-06
4.700324563e-06
4.715621693e-06
4.726147876e-06
4.763898259e-06
4.802704897e-06
4.846261582e-06
4.898133074e-06
4.960930635e-06
5.032369962e-06
5.126831103e-06
5.232059989e-06
5.348062932e-06
5.468455643e-06
5.601880853e-06
5.739545724e-06
5.884807561e-06
6.014564049e-06
6.139585973e-06
6.261955449e-06
6.366180618e-06
6.455205243e-06
6.526025058e-06
6.57155304e-06
6.61340135e-06
6.634426097e-06
6.648951201e-06
6.644601753e-06
6.624212572e-06
6.599990601e-06
6.569322375e-06
6.513754702e-06
6.454715514e-06
6.402293455e-06
6.338364677e-06
6.261792962e-06
6.206064191e-06
6.134731345e-06
6.070000201e-06
5.990507666e-06
5.924849492e-06
5.860583923e-06
5.798233087e-06
5.718770899e-06
5.651527634e-06
5.591891257e-06
5.527953189e-06
5.475083842e-06
5.413078376e-06
5.346712223e-06
5.281572036e-06
5.233697431e-06
5.183715876e-06
5.131730415e-06
5.084440096e-06
5.039668391e-06
4.987408418e-06
4.942599801e-06
4.899649628e-06
4.871846791e-06
4.835394417e-06
4.782068891e-06
4.73393033e-06
4.700350899e-06
4.66535544e-06
4.631303258e-06
4.598183788e-06
4.565442135e-06
4.525874788e-06
4.496737008e-06
4.46258352e-06
4.430199276e-06
4.403423374e-06
4.382860796e-06
4.354920844e-06
4.315362742e-06
4.301278416e-06
4.269653445e-06
4.238678575e-06
4.20710841e-06
4.174455536e-06
4.145825828e-06
4.113022977e-06
4.078886059e-06
4.039858649e-06
3.998486258e-06
3.942722467e-06
3.882046579e-06
3.813207024e-06
3.743515004e-06
3.665565456e-06
3.567077212e-06
3.423898764e-06
4.658250572e-06
4.658430493e-06
4.667232775e-06
4.67943202e-06
4.69675177e-06
4.71643946e-06
4.73548631e-06
4.761780323e-06
4.792100487e-06
4.831622102e-06
4.880060198e-06
4.937941171e-06
5.002435324e-06
5.087603682e-06
5.171542539e-06
5.282939836e-06
5.38820269e-06
5.512633713e-06
5.629121067e-06
5.774251481e-06
5.900207664e-06
6.036231592e-06
6.159783941e-06
6.280302867e-06
6.385418238e-06
6.472558571e-06
6.540541886e-06
6.591374066e-06
6.643116082e-06
6.671140306e-06
6.691947635e-06
6.681556492e-06
6.674019967e-06
6.645363174e-06
6.615700797e-06
6.577468768e-06
6.531296449e-06
6.471104844e-06
6.416030644e-06
6.360518024e-06
6.297570761e-06
6.228905923e-06
6.164994291e-06
6.099049487e-06
6.020454984e-06
5.953517095e-06
5.883349124e-06
5.81619082e-06
5.753287446e-06
5.674502253e-06
5.618785049e-06
5.547685206e-06
5.494347531e-06
5.422036683e-06
5.368636305e-06
5.315105849e-06
5.259305955e-06
5.202660722e-06
5.162995913e-06
5.113490944e-06
5.071771399e-06
5.019531785e-06
4.963380783e-06
4.922844742e-06
4.878975473e-06
4.839109097e-06
4.801677215e-06
4.763293433e-06
4.727197491e-06
4.699044767e-06
4.647221591e-06
4.608774977e-06
4.572171426e-06
4.552353572e-06
4.505330443e-06
4.4767173e-06
4.446365647e-06
4.412916493e-06
4.37653832e-06
4.348804218e-06
4.318890968e-06
4.291462276e-06
4.260564403e-06
4.223304745e-06
4.191937336e-06
4.150948722e-06
4.113097002e-06
4.072504534e-06
4.023882743e-06
3.967038615e-06
3.915612581e-06
3.836475503e-06
3.743823913e-06
3.654668749e-06
3.529843893e-06
4.655338467e-06
4.661091503e-06
4.667501582e-06
4.679458335e-06
4.685769825e-06
4.69894491e-06
4.715917083e-06
4.731596446e-06
4.752404597e-06
4.782200454e-06
4.821439118e-06
4.859818506e-06
4.90691363e-06
4.966258844e-06
5.030867068e-06
5.111693414e-06
5.197594278e-06
5.299494869e-06
5.415219709e-06
5.531572018e-06
5.658581989e-06
5.792870534e-06
5.922731791e-06
6.04455448e-06
6.185085745e-06
6.298565752e-06
6.402747397e-06
6.489527361e-06
6.565848601e-06
6.62947538e-06
6.677172992e-06
6.710730274e-06
6.72533674e-06
6.737744805e-06
6.742168297e-06
6.721658117e-06
6.689989809e-06
6.659592913e-06
6.602102017e-06
6.549554911e-06
6.491501308e-06
6.434215132e-06
6.370602926e-06
6.311165552e-06
6.249821915e-06
6.16968087e-06
6.101958935e-06
6.04338093e-06
5.970890173e-06
5.899465089e-06
5.834161777e-06
5.762171945e-06
5.701221587e-06
5.644653572e-06
5.578971442e-06
5.528495355e-06
5.465467452e-06
5.402174226e-06
5.346106624e-06
5.288794225e-06
5.237457372e-06
5.187106216e-06
5.132514181e-06
5.090283923e-06
5.052474364e-06
4.999235358e-06
4.950706906e-06
4.909797501e-06
4.867148907e-06
4.821897203e-06
4.78824074e-06
4.737533297e-06
4.697517175e-06
4.653149633e-06
4.617663424e-06
4.573343065e-06
4.55389502e-06
4.515972623e-06
4.478094699e-06
4.445415406e-06
4.413988341e-06
4.388750392e-06
4.351503993e-06
4.318164167e-06
4.27762706e-06
4.233119913e-06
4.200473421e-06
4.149042382e-06
4.115963516e-06
4.069520143e-06
4.000945136e-06
3.924265739e-06
3.849324844e-06
3.75858668e-06
3.647326707e-06
4.664699335e-06
4.666004741e-06
4.664879405e-06
4.672006816e-06
4.67354427e-06
4.682596916e-06
4.690573692e-06
4.707903046e-06
4.724540712e-06
4.738027269e-06
4.761867378e-06
4.797213488e-06
4.83373164e-06
4.880134742e-06
4.931406992e-06
4.988110774e-06
5.061143813e-06
5.144222497e-06
5.232783501e-06
5.336437371e-06
5.442977569e-06
5.564380716e-06
5.6873214e-06
5.815114977e-06
5.936839217e-06
6.07040855e-06
6.193178057e-06
6.315443816e-06
6.418014777e-06
6.508020446e-06
6.591669413e-06
6.661542779e-06
6.714894254e-06
6.756791743e-06
6.779139774e-06
6.782990882e-06
6.782500121e-06
6.770817398e-06
6.757538826e-06
6.715796722e-06
6.671400278e-06
6.619049584e-06
6.557065147e-06
6.505887213e-06
6.453008571e-06
6.394982569e-06
6.315924535e-06
6.252749672e-06
6.195669092e-06
6.125476933e-06
6.066969068e-06
5.999682678e-06
5.93011651e-06
5.859577013e-06
5.797672542e-06
5.734816005e-06
5.674658551e-06
5.609538042e-06
5.548929597e-06
5.487688033e-06
5.425645368e-06
5.374574505e-06
5.336879851e-06
5.267225647e-06
5.214129286e-06
5.156138918e-06
5.111997577e-06
5.062623169e-06
5.016902195e-06
4.96993575e-06
4.922108779e-06
4.883968144e-06
4.839534942e-06
4.787912424e-06
4.740478483e-06
4.704251048e-06
4.670026831e-06
4.643368066e-06
4.603097264e-06
4.574655382e-06
4.538943285e-06
4.497811466e-06
4.463845985e-06
4.426488331e-06
4.388823255e-06
4.34546214e-06
4.300511578e-06
4.255229617e-06
4.206627668e-06
4.148869497e-06
4.103435465e-06
4.04905597e-06
3.962694821e-06
3.876139382e-06
3.762105352e-06
4.657964495e-06
4.656339981e-06
4.65858772e-06
4.657882128e-06
4.664130209e-06
4.665237001e-06
4.667261508e-06
4.673905397e-06
4.684843642e-06
4.704905524e-06
4.728245928e-06
4.741174775e-06
4.762671756e-06
4.798056075e-06
4.838520123e-06
4.886321859e-06
4.935807323e-06
5.002052647e-06
5.073072819e-06
5.153231621e-06
5.242439637e-06
5.341013405e-06
5.45209037e-06
5.567883589e-06
5.697055467e-06
5.822881167e-06
5.956562589e-06
6.085656885e-06
6.214502634e-06
6.327818274e-06
6.439646913e-06
6.530614071e-06
6.609331047e-06
6.673005147e-06
6.739585303e-06
6.783538089e-06
6.812288988e-06
6.825652145e-06
6.825867643e-06
6.818622124e-06
6.799141856e-06
6.771889968e-06
6.733599804e-06
6.692408279e-06
6.642404827e-06
6.590532836e-06
6.538882667e-06
6.472575557e-06
6.407664808e-06
6.344094837e-06
6.272595379e-06
6.211853855e-06
6.142733611e-06
6.077481916e-06
6.017256588e-06
5.944484198e-06
5.883951353e-06
5.824756608e-06
5.760135019e-06
5.700604119e-06
5.644330231e-06
5.572056828e-06
5.514178795e-06
5.462115731e-06
5.399849234e-06
5.34053729e-06
5.285217452e-06
5.229964775e-06
5.181089135e-06
5.136246677e-06
5.086117965e-06
5.039147941e-06
4.994663662e-06
4.943678908e-06
4.893789347e-06
4.853010353e-06
4.814760626e-06
4.774972291e-06
4.741040064e-06
4.695000371e-06
4.653033163e-06
4.622023459e-06
4.582835246e-06
4.54004843e-06
4.499445266e-06
4.448412009e-06
4.400147792e-06
4.354658317e-06
4.306138017e-06
4.262974543e-06
4.211363405e-06
4.141692282e-06
4.069160481e-06
3.994798093e-06
3.898568055e-06
4.649937499e-06
4.654515132e-06
4.653485236e-06
4.658642587e-06
4.659015682e-06
4.667127797e-06
4.670240847e-06
4.682533441e-06
4.690856311e-06
4.694224165e-06
4.705459527e-06