# Probe 0 (5e-06 5e-06 5e-06)
#           Probe                 0
#            Time
            5e-09   9.355320888e-09
            1e-08   9.383550822e-09
          1.5e-08   9.403148427e-09
            2e-08   9.425797076e-09
          2.5e-08   9.447353362e-09
            3e-08    9.46163041e-09
          3.5e-08    9.47592175e-09
            4e-08   9.490159408e-09
          4.5e-08   9.504660024e-09
            5e-08   9.522146317e-09
          5.5e-08   9.535569528e-09
            6e-08   9.547963325e-09
          6.5e-08   9.558808131e-09
            7e-08   9.568753746e-09
          7.5e-08   9.580057379e-09
            8e-08   9.592601589e-09
          8.5e-08   9.601911743e-09
            9e-08   9.612597083e-09
          9.5e-08    9.61831663e-09
            1e-07   9.629197746e-09
         1.05e-07   9.635256773e-09
          1.1e-07   9.644630604e-09
         1.15e-07   9.652255198e-09
          1.2e-07   9.657191088e-09
         1.25e-07   9.663646222e-09
          1.3e-07   9.671252136e-09
         1.35e-07   9.677306632e-09
          1.4e-07   9.685459869e-09
         1.45e-07   9.695663607e-09
          1.5e-07   9.704629993e-09
         1.55e-07   9.709727104e-09
          1.6e-07   9.713551633e-09
         1.65e-07   9.717687643e-09
          1.7e-07   9.724872999e-09
         1.75e-07   9.733017635e-09
          1.8e-07    9.73751391e-09
         1.85e-07   9.742426922e-09
          1.9e-07   9.746973262e-09
         1.95e-07    9.75023591e-09
            2e-07   9.755309217e-09
         2.05e-07   9.757984633e-09
          2.1e-07   9.766275947e-09
         2.15e-07   9.770827336e-09
          2.2e-07   9.777194337e-09
         2.25e-07   9.782697532e-09
          2.3e-07   9.788635465e-09
         2.35e-07   9.794010663e-09
          2.4e-07   9.801704088e-09
         2.45e-07   9.807507837e-09
          2.5e-07   9.813345628e-09
         2.55e-07   9.812627973e-09
          2.6e-07   9.811061306e-09
         2.65e-07   9.813258618e-09
          2.7e-07   9.823363537e-09
         2.75e-07   9.824153674e-09
          2.8e-07   9.831127367e-09
         2.85e-07   9.832004723e-09
          2.9e-07   9.833940492e-09
         2.95e-07   9.837630577e-09
            3e-07   9.842344414e-09
         3.05e-07   9.847541547e-09
          3.1e-07   9.847555769e-09
         3.15e-07   9.853582278e-09
          3.2e-07    9.85491062e-09
         3.25e-07    9.86101184e-09
          3.3e-07   9.861715299e-09
         3.35e-07   9.863904421e-09
          3.4e-07   9.863551018e-09
         3.45e-07    9.86700963e-09
          3.5e-07   9.867984908e-09
         3.55e-07   9.870286338e-09
          3.6e-07   9.873663527e-09
         3.65e-07   9.875847452e-09
          3.7e-07   9.881784762e-09
         3.75e-07   9.885255118e-09
          3.8e-07   9.885564241e-09
         3.85e-07   9.890465383e-09
          3.9e-07   9.895350043e-09
         3.95e-07   9.892920872e-09
            4e-07   9.895561951e-09
         4.05e-07   9.898022041e-09
          4.1e-07   9.900312259e-09
         4.15e-07   9.901685274e-09
          4.2e-07   9.904392874e-09
         4.25e-07   9.904214824e-09
          4.3e-07   9.908349662e-09
         4.35e-07   9.912695805e-09
          4.4e-07    9.91307269e-09
         4.45e-07   9.913067914e-09
          4.5e-07   9.915941011e-09
         4.55e-07   9.917256846e-09
          4.6e-07   9.917047781e-09
         4.65e-07   9.916062382e-09
          4.7e-07    9.91686988e-09
         4.75e-07   9.917621502e-09
          4.8e-07   9.921000339e-09
         4.85e-07   9.923984776e-09
          4.9e-07   9.925840328e-09
         4.95e-07   9.932033232e-09
            5e-07   9.936440333e-09
         5.05e-07   9.939141981e-09
          5.1e-07   9.946106033e-09
         5.15e-07   9.948363414e-09
          5.2e-07   9.952075569e-09
         5.25e-07   9.954374723e-09
          5.3e-07   9.956312869e-09
         5.35e-07   9.958399492e-09
          5.4e-07   9.961784405e-09
         5.45e-07   9.959983974e-09
          5.5e-07   9.959438404e-09
         5.55e-07   9.959798881e-09
          5.6e-07   9.961864179e-09
         5.65e-07   9.965103402e-09
          5.7e-07   9.961166169e-09
         5.75e-07    9.96522922e-09
          5.8e-07   9.966375041e-09
         5.85e-07   9.967255558e-09
          5.9e-07   9.969215016e-09
         5.95e-07   9.969791277e-09
            6e-07   9.969747685e-09
         6.05e-07   9.973166595e-09
          6.1e-07   9.972403007e-09
         6.15e-07   9.976655615e-09
          6.2e-07   9.979177246e-09
         6.25e-07   9.976751231e-09
          6.3e-07   9.980098121e-09
         6.35e-07   9.982702476e-09
          6.4e-07   9.982883184e-09
         6.45e-07   9.975279371e-09
          6.5e-07   9.977200596e-09
         6.55e-07   9.979652814e-09
          6.6e-07   9.982193493e-09
         6.65e-07    9.98633022e-09
          6.7e-07   9.986099113e-09
         6.75e-07   9.988169753e-09
          6.8e-07    9.99123108e-09
         6.85e-07   9.993343707e-09
          6.9e-07   9.993699949e-09
         6.95e-07   9.994820148e-09
            7e-07   9.994138148e-09
         7.05e-07   9.992660407e-09
          7.1e-07   9.993538472e-09
         7.15e-07   9.991951876e-09
          7.2e-07   9.993826768e-09
         7.25e-07   9.997630494e-09
          7.3e-07   9.998376052e-09
         7.35e-07   1.000158793e-08
          7.4e-07   1.000531153e-08
         7.45e-07   1.000734916e-08
          7.5e-07   1.000583669e-08
         7.55e-07   1.000463722e-08
          7.6e-07   1.000397165e-08
         7.65e-07   1.000334656e-08
          7.7e-07   1.000806713e-08
         7.75e-07   1.000914582e-08
          7.8e-07   1.000979897e-08
         7.85e-07   1.001073966e-08
          7.9e-07   1.000586556e-08
         7.95e-07   1.000492074e-08
            8e-07   1.000680812e-08
         8.05e-07   1.000763416e-08
          8.1e-07   1.000479592e-08
         8.15e-07   1.000567047e-08
          8.2e-07   1.000463174e-08
         8.25e-07   1.000618927e-08
          8.3e-07   1.000873224e-08
         8.35e-07   1.001035138e-08
          8.4e-07   1.001315051e-08
         8.45e-07   1.001599892e-08
          8.5e-07   1.001671862e-08
         8.55e-07   1.001584396e-08
          8.6e-07   1.001832764e-08
         8.65e-07   1.002164277e-08
          8.7e-07   1.002511182e-08
         8.75e-07   1.002485712e-08
          8.8e-07   1.002347214e-08
         8.85e-07   1.002464088e-08
          8.9e-07   1.002399237e-08
         8.95e-07   1.002451542e-08
            9e-07   1.002642685e-08
         9.05e-07   1.002725121e-08
          9.1e-07   1.002327576e-08
         9.15e-07   1.002419042e-08
          9.2e-07   1.002675146e-08
         9.25e-07   1.002735721e-08
          9.3e-07   1.002743836e-08
         9.35e-07   1.002735279e-08
          9.4e-07   1.002774591e-08
         9.45e-07   1.002917234e-08
          9.5e-07   1.002493097e-08
         9.55e-07   1.002300902e-08
          9.6e-07   1.002361838e-08
         9.65e-07   1.002583647e-08
          9.7e-07   1.002590011e-08
         9.75e-07   1.002539604e-08
          9.8e-07   1.002736196e-08
         9.85e-07   1.002495048e-08
          9.9e-07   1.002681264e-08
         9.95e-07   1.002835507e-08
            1e-06   1.003319543e-08
        1.005e-06   1.003372673e-08
         1.01e-06   1.003395335e-08
        1.015e-06    1.00331595e-08
         1.02e-06   1.003621257e-08
        1.025e-06   1.003741007e-08
         1.03e-06   1.003729146e-08
        1.035e-06   1.003891955e-08
         1.04e-06   1.004119188e-08
        1.045e-06   1.004095947e-08
         1.05e-06   1.004520956e-08
        1.055e-06   1.004739557e-08
         1.06e-06   1.004625443e-08
        1.065e-06   1.004825818e-08
         1.07e-06   1.004651054e-08
        1.075e-06   1.005541123e-08
         1.08e-06   1.005852629e-08
        1.085e-06   1.005745652e-08
         1.09e-06   1.005719224e-08
        1.095e-06   1.006058889e-08
          1.1e-06   1.005968082e-08
        1.105e-06   1.005623275e-08
         1.11e-06   1.005718438e-08
        1.115e-06   1.005890082e-08
         1.12e-06   1.005981296e-08
        1.125e-06   1.005622201e-08
         1.13e-06   1.005712483e-08
        1.135e-06   1.005897529e-08
         1.14e-06   1.006047927e-08
        1.145e-06   1.005577554e-08
         1.15e-06   1.005607155e-08
        1.155e-06   1.005433213e-08
         1.16e-06   1.005231732e-08
        1.165e-06   1.005210162e-08
         1.17e-06   1.005561556e-08
        1.175e-06   1.005909904e-08
         1.18e-06   1.005929943e-08
        1.185e-06   1.005502149e-08
         1.19e-06   1.005495507e-08
        1.195e-06   1.005737368e-08
          1.2e-06   1.005874036e-08
        1.205e-06   1.006005492e-08
         1.21e-06   1.006190987e-08
        1.215e-06   1.006230178e-08
         1.22e-06   1.006110427e-08
        1.225e-06   1.006251877e-08
         1.23e-06   1.005950379e-08
        1.235e-06    1.00640233e-08
         1.24e-06   1.006629977e-08
        1.245e-06    1.00662662e-08
         1.25e-06   1.006967211e-08
        1.255e-06   1.006843308e-08
         1.26e-06   1.006727294e-08
        1.265e-06   1.006858327e-08
         1.27e-06   1.006694521e-08
        1.275e-06   1.006320118e-08
         1.28e-06   1.006651442e-08
        1.285e-06   1.006688258e-08
         1.29e-06   1.006569693e-08
        1.295e-06   1.007092535e-08
          1.3e-06    1.00709744e-08
        1.305e-06   1.007293473e-08
         1.31e-06   1.007223673e-08
        1.315e-06    1.00758189e-08
         1.32e-06   1.007305064e-08
        1.325e-06   1.007038375e-08
         1.33e-06   1.007196062e-08
        1.335e-06   1.007371319e-08
         1.34e-06   1.007737169e-08
        1.345e-06   1.007932927e-08
         1.35e-06   1.007973964e-08
        1.355e-06   1.007632564e-08
         1.36e-06   1.007584078e-08
        1.365e-06   1.007427808e-08
         1.37e-06   1.007222314e-08
        1.375e-06   1.006977044e-08
         1.38e-06   1.007338146e-08
        1.385e-06   1.007115049e-08
         1.39e-06   1.007063516e-08
        1.395e-06   1.007162657e-08
          1.4e-06   1.007733093e-08
        1.405e-06    1.00749469e-08
         1.41e-06   1.007321569e-08
        1.415e-06   1.007529485e-08
         1.42e-06    1.00709945e-08
        1.425e-06   1.007198651e-08
         1.43e-06    1.00766795e-08
        1.435e-06   1.007457015e-08
         1.44e-06    1.00760304e-08
        1.445e-06   1.007223492e-08
         1.45e-06   1.007613307e-08
        1.455e-06   1.006979153e-08
         1.46e-06   1.006638827e-08
        1.465e-06   1.006706486e-08
         1.47e-06   1.006830106e-08
        1.475e-06   1.006955031e-08
         1.48e-06   1.007184951e-08
        1.485e-06   1.007369944e-08
         1.49e-06   1.007612042e-08
        1.495e-06   1.007749773e-08
          1.5e-06   1.007524176e-08
        1.505e-06   1.007525403e-08
         1.51e-06   1.007560589e-08
        1.515e-06   1.007966511e-08
         1.52e-06   1.007978105e-08
        1.525e-06   1.007956088e-08
         1.53e-06   1.008033193e-08
        1.535e-06   1.008000592e-08
         1.54e-06   1.008417072e-08
        1.545e-06   1.008036086e-08
         1.55e-06   1.008262647e-08
        1.555e-06   1.008122446e-08
         1.56e-06   1.008148271e-08
        1.565e-06   1.008215865e-08
         1.57e-06   1.008463606e-08
        1.575e-06   1.008493954e-08
         1.58e-06   1.008570498e-08
        1.585e-06   1.008824233e-08
         1.59e-06   1.008866894e-08
        1.595e-06   1.008738996e-08
          1.6e-06   1.008923938e-08
        1.605e-06   1.008848115e-08
         1.61e-06   1.008673455e-08
        1.615e-06   1.008513136e-08
         1.62e-06   1.008471038e-08
        1.625e-06   1.008598149e-08
         1.63e-06   1.009033705e-08
        1.635e-06   1.008909992e-08
         1.64e-06   1.009158151e-08
        1.645e-06   1.009352604e-08
         1.65e-06   1.009147281e-08
        1.655e-06   1.009018354e-08
         1.66e-06   1.008857661e-08
        1.665e-06   1.009137264e-08
         1.67e-06    1.00900277e-08
        1.675e-06   1.009142268e-08
         1.68e-06   1.009223276e-08
        1.685e-06   1.009065222e-08
         1.69e-06   1.008787386e-08
        1.695e-06   1.009014521e-08
          1.7e-06   1.009063697e-08
        1.705e-06   1.009101894e-08
         1.71e-06    1.00920907e-08
        1.715e-06   1.008969957e-08
         1.72e-06   1.008980225e-08
        1.725e-06   1.009323041e-08
         1.73e-06   1.009323527e-08
        1.735e-06   1.009368038e-08
         1.74e-06   1.009289361e-08
        1.745e-06    1.00904751e-08
         1.75e-06   1.009178587e-08
        1.755e-06   1.009289588e-08
         1.76e-06   1.009454434e-08
        1.765e-06   1.009394766e-08
         1.77e-06   1.009477716e-08
        1.775e-06   1.009247687e-08
         1.78e-06   1.009099565e-08
        1.785e-06    1.00929933e-08
         1.79e-06    1.00961787e-08
        1.795e-06     1.0093649e-08
          1.8e-06   1.009083548e-08
        1.805e-06   1.009024356e-08
         1.81e-06    1.00867338e-08
        1.815e-06   1.008759411e-08
         1.82e-06   1.008667118e-08
        1.825e-06   1.008828792e-08
         1.83e-06   1.008828143e-08
        1.835e-06   1.008988088e-08
         1.84e-06   1.008491107e-08
        1.845e-06   1.008894165e-08
         1.85e-06   1.009095732e-08
        1.855e-06   1.009218261e-08
         1.86e-06   1.009431591e-08
        1.865e-06    1.00912163e-08
         1.87e-06   1.008959859e-08
        1.875e-06   1.008686285e-08
         1.88e-06    1.00880461e-08
        1.885e-06   1.008742843e-08
         1.89e-06   1.009073775e-08
        1.895e-06   1.008929397e-08
          1.9e-06   1.009162668e-08
        1.905e-06   1.009139945e-08
         1.91e-06   1.009071782e-08
        1.915e-06   1.009211595e-08
         1.92e-06   1.009179705e-08
        1.925e-06   1.009339648e-08
         1.93e-06   1.009067626e-08
        1.935e-06   1.009490298e-08
         1.94e-06   1.009658978e-08
        1.945e-06   1.009403162e-08
         1.95e-06   1.009630104e-08
        1.955e-06   1.009928292e-08
         1.96e-06   1.009777305e-08
        1.965e-06   1.009822132e-08
         1.97e-06   1.009881684e-08
        1.975e-06   1.010014055e-08
         1.98e-06   1.010348228e-08
        1.985e-06   1.010173768e-08
         1.99e-06   1.010181225e-08
        1.995e-06   1.010008899e-08
            2e-06   1.009899574e-08
        2.005e-06   1.010244405e-08
         2.01e-06   1.009925537e-08
        2.015e-06   1.009848441e-08
         2.02e-06   1.009670512e-08
        2.025e-06   1.009967335e-08
         2.03e-06   1.009945141e-08
        2.035e-06   1.010247327e-08
         2.04e-06   1.010320025e-08
        2.045e-06   1.010228429e-08
         2.05e-06   1.010176617e-08
        2.055e-06   1.009917784e-08
         2.06e-06   1.009707579e-08
        2.065e-06   1.009768808e-08
         2.07e-06   1.009639568e-08
        2.075e-06     1.0097687e-08
         2.08e-06   1.009542413e-08
        2.085e-06   1.009516923e-08
         2.09e-06   1.009709387e-08
        2.095e-06   1.009938302e-08
          2.1e-06   1.009925261e-08
        2.105e-06   1.009679762e-08
         2.11e-06    1.00973751e-08
        2.115e-06   1.009789357e-08
         2.12e-06    1.00963014e-08
        2.125e-06   1.009814057e-08
         2.13e-06   1.009591134e-08
        2.135e-06    1.00974566e-08
         2.14e-06    1.00967619e-08
        2.145e-06   1.009641345e-08
         2.15e-06   1.009789555e-08
        2.155e-06   1.009262423e-08
         2.16e-06   1.009112741e-08
        2.165e-06   1.009147649e-08
         2.17e-06   1.009149949e-08
        2.175e-06   1.009556628e-08
         2.18e-06   1.009469843e-08
        2.185e-06   1.009533207e-08
         2.19e-06   1.009729151e-08
        2.195e-06   1.009981108e-08
          2.2e-06   1.009996057e-08
        2.205e-06   1.009887905e-08
         2.21e-06   1.009986547e-08
        2.215e-06   1.009758868e-08
         2.22e-06   1.009763012e-08
        2.225e-06   1.010042572e-08
         2.23e-06    1.01016264e-08
        2.235e-06   1.010527329e-08
         2.24e-06   1.010602874e-08
        2.245e-06   1.010931267e-08
         2.25e-06   1.011112446e-08
        2.255e-06   1.010735892e-08
         2.26e-06   1.010545567e-08
        2.265e-06   1.010191179e-08
         2.27e-06   1.010007629e-08
        2.275e-06   1.009899791e-08
         2.28e-06   1.009538165e-08
        2.285e-06   1.009536471e-08
         2.29e-06    1.00925054e-08
        2.295e-06   1.009201243e-08
          2.3e-06   1.008928374e-08
        2.305e-06   1.009118736e-08
         2.31e-06   1.009259522e-08
        2.315e-06   1.009616265e-08
         2.32e-06   1.009583243e-08
        2.325e-06   1.009775426e-08
         2.33e-06   1.009849206e-08
        2.335e-06   1.009922371e-08
         2.34e-06   1.009848761e-08
        2.345e-06   1.009392443e-08
         2.35e-06   1.009643588e-08
        2.355e-06   1.009695106e-08
         2.36e-06   1.009872404e-08
        2.365e-06   1.009665076e-08
         2.37e-06   1.009141037e-08
        2.375e-06   1.009324065e-08
         2.38e-06   1.009330185e-08
        2.385e-06   1.009441264e-08
         2.39e-06   1.009317265e-08
        2.395e-06   1.009089738e-08
          2.4e-06   1.008983508e-08
        2.405e-06   1.009142714e-08
         2.41e-06   1.009607167e-08
        2.415e-06    1.00935643e-08
         2.42e-06   1.009453092e-08
        2.425e-06   1.009539579e-08
         2.43e-06   1.009741942e-08
        2.435e-06   1.009674579e-08
         2.44e-06   1.010079981e-08
        2.445e-06    1.01007316e-08
         2.45e-06    1.00988459e-08
        2.455e-06   1.010091059e-08
         2.46e-06   1.009884336e-08
        2.465e-06   1.009714805e-08
         2.47e-06   1.009671914e-08
        2.475e-06   1.009652725e-08
         2.48e-06   1.009665239e-08
        2.485e-06   1.009657437e-08
         2.49e-06   1.009978104e-08
        2.495e-06   1.009695137e-08
          2.5e-06   1.009866428e-08
        2.505e-06    1.00986201e-08
         2.51e-06   1.009956774e-08
        2.515e-06   1.010243128e-08
         2.52e-06   1.010210385e-08
        2.525e-06   1.010125796e-08
         2.53e-06   1.009920278e-08
        2.535e-06   1.010406482e-08
         2.54e-06   1.010517117e-08
        2.545e-06   1.010428429e-08
         2.55e-06   1.010411934e-08
        2.555e-06   1.010514969e-08
         2.56e-06   1.010167047e-08
        2.565e-06   1.009987035e-08
         2.57e-06   1.010293283e-08
        2.575e-06    1.01000271e-08
         2.58e-06   1.010232561e-08
        2.585e-06   1.010338814e-08
         2.59e-06   1.010530173e-08
        2.595e-06   1.010432817e-08
          2.6e-06   1.010702193e-08
        2.605e-06   1.010784316e-08
         2.61e-06   1.010821505e-08
        2.615e-06   1.010801901e-08
         2.62e-06    1.01050668e-08
        2.625e-06   1.010138563e-08
         2.63e-06   1.010326996e-08
        2.635e-06   1.010260815e-08
         2.64e-06   1.010278876e-08
        2.645e-06    1.01045106e-08
         2.65e-06   1.010329768e-08
        2.655e-06   1.010164537e-08
         2.66e-06   1.009724521e-08
        2.665e-06   1.009968386e-08
         2.67e-06   1.010084106e-08
        2.675e-06   1.010483924e-08
         2.68e-06   1.010949518e-08
        2.685e-06   1.011137355e-08
         2.69e-06   1.010920449e-08
        2.695e-06   1.010799295e-08
          2.7e-06   1.010785919e-08
        2.705e-06   1.010446891e-08
         2.71e-06   1.010394627e-08
        2.715e-06    1.01047248e-08
         2.72e-06   1.010348939e-08
        2.725e-06   1.010229032e-08
         2.73e-06   1.010071925e-08
        2.735e-06   1.009897144e-08
         2.74e-06   1.009780188e-08
        2.745e-06   1.009507819e-08
         2.75e-06   1.009538986e-08
        2.755e-06    1.00942659e-08
         2.76e-06   1.009338389e-08
        2.765e-06   1.009550679e-08
         2.77e-06   1.009656686e-08
        2.775e-06   1.010184127e-08
         2.78e-06   1.010034154e-08
        2.785e-06   1.009802801e-08
         2.79e-06   1.009876319e-08
        2.795e-06   1.009839038e-08
          2.8e-06   1.009888413e-08
        2.805e-06   1.010157148e-08
         2.81e-06   1.009932718e-08
        2.815e-06   1.009912306e-08
         2.82e-06   1.009842944e-08
        2.825e-06   1.009756492e-08
         2.83e-06   1.009782088e-08
        2.835e-06   1.009639056e-08
         2.84e-06   1.009911114e-08
        2.845e-06   1.009788184e-08
         2.85e-06   1.009872245e-08
        2.855e-06   1.009515637e-08
         2.86e-06   1.009753009e-08
        2.865e-06   1.009769597e-08
         2.87e-06   1.009782354e-08
        2.875e-06   1.010212551e-08
         2.88e-06   1.010137672e-08
        2.885e-06   1.010273357e-08
         2.89e-06   1.010287224e-08
        2.895e-06   1.010667511e-08
          2.9e-06   1.010470636e-08
        2.905e-06   1.010222977e-08
         2.91e-06    1.01028833e-08
        2.915e-06   1.010196257e-08
         2.92e-06   1.010232332e-08
        2.925e-06   1.010531563e-08
         2.93e-06   1.010458049e-08
        2.935e-06   1.010751781e-08
         2.94e-06   1.011126199e-08
        2.945e-06   1.011527909e-08
         2.95e-06   1.011255667e-08
        2.955e-06   1.010871992e-08
         2.96e-06   1.010684096e-08
        2.965e-06   1.010984458e-08
         2.97e-06   1.010614017e-08
        2.975e-06   1.010571946e-08
         2.98e-06   1.010273715e-08
        2.985e-06   1.010374505e-08
         2.99e-06   1.010420075e-08
        2.995e-06   1.010283486e-08
            3e-06   1.010311341e-08
        3.005e-06   1.010450946e-08
         3.01e-06   1.010040241e-08
        3.015e-06   1.010485078e-08
         3.02e-06   1.010562204e-08
        3.025e-06   1.010198131e-08
         3.03e-06     1.0101007e-08
        3.035e-06   1.009897547e-08
         3.04e-06   1.009747198e-08
        3.045e-06   1.009841228e-08
         3.05e-06   1.009914148e-08
        3.055e-06   1.009938494e-08
         3.06e-06   1.009808262e-08
        3.065e-06   1.009816841e-08
         3.07e-06   1.010134497e-08
        3.075e-06   1.010312881e-08
         3.08e-06   1.010501731e-08
        3.085e-06   1.010461367e-08
         3.09e-06   1.010272538e-08
        3.095e-06   1.010256392e-08
          3.1e-06   1.010306108e-08
        3.105e-06   1.010349602e-08
         3.11e-06   1.010612308e-08
        3.115e-06   1.010530108e-08
         3.12e-06   1.010472236e-08
        3.125e-06   1.010357413e-08
         3.13e-06   1.010674101e-08
        3.135e-06   1.010722966e-08
         3.14e-06   1.010659951e-08
        3.145e-06   1.010580583e-08
         3.15e-06   1.010551903e-08
        3.155e-06   1.010305989e-08
         3.16e-06   1.010385793e-08
        3.165e-06   1.010255616e-08
         3.17e-06   1.010445191e-08
        3.175e-06   1.010492484e-08
         3.18e-06   1.010612998e-08
        3.185e-06   1.010709629e-08
         3.19e-06   1.010355417e-08
        3.195e-06   1.009990691e-08
          3.2e-06    1.00989974e-08
        3.205e-06   1.010207574e-08
         3.21e-06   1.010427918e-08
        3.215e-06    1.01040475e-08
         3.22e-06   1.010163888e-08
        3.225e-06   1.010348864e-08
         3.23e-06   1.010415412e-08
        3.235e-06   1.010453831e-08
         3.24e-06   1.010485514e-08
        3.245e-06   1.010474735e-08
         3.25e-06   1.010068567e-08
        3.255e-06    1.01032103e-08
         3.26e-06   1.010336396e-08
        3.265e-06   1.009989447e-08
         3.27e-06   1.009961926e-08
        3.275e-06   1.009942837e-08
         3.28e-06    1.00988693e-08
        3.285e-06   1.009892598e-08
         3.29e-06   1.010052377e-08
        3.295e-06   1.009847825e-08
          3.3e-06   1.009616621e-08
        3.305e-06   1.009378253e-08
         3.31e-06   1.009642634e-08
        3.315e-06    1.00993774e-08
         3.32e-06   1.009946039e-08
        3.325e-06   1.009762594e-08
         3.33e-06   1.009590538e-08
        3.335e-06    1.00987025e-08
         3.34e-06   1.009898609e-08
        3.345e-06   1.009788005e-08
         3.35e-06   1.009697662e-08
        3.355e-06   1.009527508e-08
         3.36e-06   1.009745278e-08
        3.365e-06   1.009953438e-08
         3.37e-06   1.010139254e-08
        3.375e-06    1.01005578e-08
         3.38e-06   1.010042163e-08
        3.385e-06   1.009712961e-08
         3.39e-06   1.009881461e-08
        3.395e-06   1.010075058e-08
          3.4e-06   1.010338383e-08
        3.405e-06   1.010609306e-08
         3.41e-06   1.010403459e-08
        3.415e-06   1.010300527e-08
         3.42e-06   1.010005635e-08
        3.425e-06   1.010115798e-08
         3.43e-06   1.010203508e-08
        3.435e-06   1.009886511e-08
         3.44e-06   1.009754378e-08
        3.445e-06   1.009729744e-08
         3.45e-06   1.010223715e-08
        3.455e-06   1.010491231e-08
         3.46e-06   1.010215874e-08
        3.465e-06   1.010075462e-08
         3.47e-06   1.010064388e-08
        3.475e-06   1.010067492e-08
         3.48e-06   1.010052427e-08
        3.485e-06   1.009694258e-08
         3.49e-06   1.009656494e-08
        3.495e-06   1.009439358e-08
          3.5e-06   1.009478574e-08
        3.505e-06   1.009557985e-08
         3.51e-06   1.009784418e-08
        3.515e-06   1.009834945e-08
         3.52e-06   1.009774218e-08
        3.525e-06   1.009702012e-08
         3.53e-06   1.009685037e-08
        3.535e-06   1.009811956e-08
         3.54e-06   1.009651989e-08
        3.545e-06   1.009966571e-08
         3.55e-06    1.01030147e-08
        3.555e-06   1.010559755e-08
         3.56e-06    1.01070925e-08
        3.565e-06   1.010478314e-08
         3.57e-06   1.010349572e-08
        3.575e-06   1.010313001e-08
         3.58e-06   1.010183115e-08
        3.585e-06   1.010471075e-08
         3.59e-06    1.01029754e-08
        3.595e-06   1.010242861e-08
          3.6e-06   1.010212042e-08
        3.605e-06   1.010295524e-08
         3.61e-06   1.010292946e-08
        3.615e-06   1.010097714e-08
         3.62e-06   1.009714873e-08
        3.625e-06   1.009837114e-08
         3.63e-06   1.010070966e-08
        3.635e-06   1.010205764e-08
         3.64e-06   1.009993303e-08
        3.645e-06   1.009760373e-08
         3.65e-06   1.009856316e-08
        3.655e-06   1.009837194e-08
         3.66e-06   1.009854575e-08
        3.665e-06   1.009829818e-08
         3.67e-06   1.009591575e-08
        3.675e-06   1.009562516e-08
         3.68e-06   1.009326934e-08
        3.685e-06   1.009870093e-08
         3.69e-06   1.009904946e-08
        3.695e-06    1.00996245e-08
          3.7e-06   1.009716227e-08
        3.705e-06   1.009892752e-08
         3.71e-06   1.009702627e-08
        3.715e-06   1.009944524e-08
         3.72e-06   1.010075867e-08
        3.725e-06   1.009706442e-08
         3.73e-06   1.009816496e-08
        3.735e-06   1.009992365e-08
         3.74e-06   1.009569169e-08
        3.745e-06   1.009719766e-08
         3.75e-06   1.009712871e-08
        3.755e-06    1.00943371e-08
         3.76e-06   1.009438914e-08
        3.765e-06    1.00948903e-08
         3.77e-06   1.009152719e-08
        3.775e-06   1.009146446e-08
         3.78e-06   1.009338912e-08
        3.785e-06   1.009640102e-08
         3.79e-06   1.009942456e-08
        3.795e-06   1.009947636e-08
          3.8e-06   1.009902316e-08
        3.805e-06   1.010034037e-08
         3.81e-06   1.009950104e-08
        3.815e-06   1.010345471e-08
         3.82e-06   1.010165556e-08
        3.825e-06   1.009827099e-08
         3.83e-06   1.010043659e-08
        3.835e-06   1.009992411e-08
         3.84e-06   1.009915049e-08
        3.845e-06   1.010007941e-08
         3.85e-06   1.009881341e-08
        3.855e-06   1.009835956e-08
         3.86e-06   1.009763265e-08
        3.865e-06   1.009648424e-08
         3.87e-06   1.009496274e-08
        3.875e-06   1.009962495e-08
         3.88e-06   1.010060398e-08
        3.885e-06   1.009922141e-08
         3.89e-06   1.009782255e-08
        3.895e-06   1.009681357e-08
          3.9e-06   1.010002383e-08
        3.905e-06   1.009651372e-08
         3.91e-06   1.009361505e-08
        3.915e-06   1.009237319e-08
         3.92e-06   1.009362978e-08
        3.925e-06   1.009250481e-08
         3.93e-06   1.009295681e-08
        3.935e-06   1.009062773e-08
         3.94e-06   1.009155011e-08
        3.945e-06    1.00899555e-08
         3.95e-06   1.008904835e-08
        3.955e-06   1.009401867e-08
         3.96e-06   1.009719353e-08
        3.965e-06   1.009756717e-08
         3.97e-06    1.00980285e-08
        3.975e-06     1.0097437e-08
         3.98e-06   1.009408816e-08
        3.985e-06   1.009551714e-08
         3.99e-06   1.009466128e-08
        3.995e-06   1.009516088e-08
            4e-06   1.009261692e-08
