/*--------------------------------*- C++ -*----------------------------------*\
| =========                 |                                                 |
| \\      /  F ield         | OpenFOAM: The Open Source CFD Toolbox           |
|  \\    /   O peration     | Version:  v1706                                 |
|   \\  /    A nd           | Web:      www.OpenFOAM.com                      |
|    \\/     M anipulation  |                                                 |
\*---------------------------------------------------------------------------*/
FoamFile
{
    version     2.0;
    format      ascii;
    class       vectorField;
    location    "0.3/lagrangian/dsmc";
    object      U;
}
// * * * * * * * * * * * * * * * * * * * * * * * * * * * * * * * * * * * * * //


97197
(
(-235.7920556 41.26068821 -162.9956661)
(-154.5205712 298.6918275 177.9399204)
(142.9440707 132.6499133 26.10543519)
(109.1965346 75.14362725 70.81083748)
(-70.40904494 -154.8164401 74.86975191)
(528.5681671 -159.117333 245.7057322)
(-159.703494 146.2965678 81.48839257)
(130.6192515 -114.735976 24.64314968)
(42.31110758 -93.27112085 -443.3298954)
(-187.4656433 -153.1033769 -15.45819712)
(154.1755569 -85.28082084 -210.1032257)
(101.2477803 -304.9664023 -19.22940325)
(-357.3716724 158.249306 -35.05167869)
(-96.26925202 -309.0796109 -110.1447408)
(-333.3914849 234.8614231 114.1923308)
(-89.94373675 -180.4885939 282.0672736)
(26.70486958 80.22041658 142.468459)
(245.7627291 -307.0892 -163.1891336)
(202.8301884 245.8440355 -159.8478553)
(193.3958059 -33.41459408 -115.4269033)
(-112.2793198 -58.00931328 42.49736862)
(-827.2571543 282.9324077 65.43177356)
(-38.46114622 393.2393788 -233.1411069)
(180.1510948 300.4419022 -22.76404073)
(-213.9487355 115.2425737 78.99037557)
(357.389099 -174.4195634 111.6024689)
(-81.68840376 498.1197547 161.5481632)
(485.4570544 67.11925544 176.3561053)
(223.3894691 121.8250822 -69.42891074)
(113.6158235 -50.64199898 163.1208384)
(-370.0152548 -111.630712 -180.6632533)
(-107.7907922 277.7312491 -173.9433677)
(265.7823002 -32.94446802 -100.8176321)
(55.79529336 29.44542095 -121.0134249)
(120.4029743 -411.1267189 323.1044766)
(-344.2030734 285.8511823 -44.22519634)
(279.1270796 -7.227508517 89.80056379)
(-212.173024 408.2852189 164.4251493)
(235.4765027 -378.4785698 -243.8684899)
(23.07366682 -12.15988507 -37.84900566)
(18.07620342 168.3773102 -176.3355173)
(36.85658649 -101.7585585 343.2018787)
(248.4527465 -209.8626406 125.9056145)
(8.703027983 189.5559346 141.5447004)
(74.47811623 -368.3594139 151.0811254)
(217.1835342 233.6037474 536.4780049)
(353.3105731 127.1452366 47.10696501)
(360.1314133 -25.29703895 52.98815627)
(105.9300238 -144.6243996 195.984137)
(-83.33683615 -179.8777151 34.74214487)
(180.0212841 -24.71361056 -324.6715642)
(140.8270909 64.25711863 -212.2732204)
(444.1942492 42.14210226 49.65385045)
(-220.7495589 -245.5433492 -81.74766104)
(132.1268259 -143.9481852 279.0721027)
(165.3684924 294.5834808 128.63114)
(-227.7331655 197.1370344 418.8327108)
(-178.1061982 -139.8864058 353.8151169)
(70.61371553 101.1422485 -161.0796951)
(248.8153114 28.4593856 141.7868047)
(133.5379152 -347.8371126 315.2515381)
(227.9079724 -101.7592192 -197.1636934)
(68.5783966 521.4147323 -82.31750229)
(-86.0313304 170.3013374 -195.8667501)
(-280.9133941 356.8152784 -17.13633054)
(385.8480774 480.5740301 -89.4383944)
(-93.62954431 142.2820123 -154.8611707)
(141.7202387 222.3958717 -203.8954843)
(-206.6943643 -391.0232648 112.2221873)
(289.1135999 72.49289231 -227.0878232)
(273.093 206.8334727 -282.8502528)
(-139.4826563 290.6866667 15.44140444)
(145.7975133 -245.709676 112.1864239)
(-49.46720236 169.7262961 201.7884637)
(-106.735143 -14.49488865 322.4643765)
(-158.3160877 -134.6300876 84.07821046)
(-118.9589528 -49.38016143 254.8520488)
(334.7442024 270.8391521 59.45941191)
(-93.63859289 -107.3706562 -364.6654474)
(496.8790464 15.4738885 121.8219867)
(24.51734394 -6.964165042 -328.9221761)
(317.9262852 390.726216 -130.0713347)
(-117.4003323 127.7741508 -235.1547196)
(-95.49256939 354.951472 -285.4571284)
(75.61296794 161.9798752 -151.5279923)
(-778.4433154 154.8949609 -547.9764035)
(173.3177644 -173.667421 -209.4024159)
(-320.7830364 -97.4953012 168.1603834)
(165.406096 -44.87059303 -204.9246307)
(312.1795763 -52.20685187 130.0457188)
(120.3673039 -131.4308136 -206.8861914)
(91.20919853 46.08658031 -578.0857915)
(-17.45806099 106.603455 294.3037448)
(173.7055982 156.7060274 36.934311)
(-60.95166742 -115.6695982 261.3988396)
(303.74347 592.3680783 -95.77078062)
(-53.14502065 56.30887406 -28.06237283)
(-492.8258068 175.3999634 79.3751964)
(-111.8698208 365.555297 221.3202896)
(289.0538135 178.9936165 -47.15318221)
(174.2032878 -232.8744168 -217.4849852)
(-123.8670173 150.2567826 4.287681191)
(107.0838473 371.0980356 368.1602252)
(90.87400827 -59.46838076 9.503237289)
(-79.51704668 164.4641236 192.0153871)
(-287.981708 139.0034664 -212.2325723)
(302.5881431 232.9893468 -80.58488484)
(-81.24303356 59.19704733 -462.1116222)
(-209.3967344 -68.93439164 186.8519775)
(-39.6331082 -75.63594581 107.5430097)
(132.1368097 282.9171019 -190.5280421)
(157.4918317 189.0147529 -1.787898383)
(-16.9092348 -251.5155062 57.77757453)
(124.3285767 230.8191566 33.84644552)
(585.0358802 109.5566292 -161.8518768)
(-437.9450736 122.2806442 193.0767522)
(-375.8124538 297.3574561 385.781883)
(579.5351188 94.43720743 -186.9698177)
(-285.607742 465.315673 -29.11364381)
(27.89616145 525.2785424 322.7401335)
(72.00713286 -187.6037758 27.53134697)
(-29.63962989 16.06149623 169.5624345)
(179.1318007 153.9242057 73.27989223)
(144.9866424 166.0175932 294.7507533)
(28.49753889 59.38066107 -45.60088039)
(177.9358293 77.68956484 -13.2189562)
(-211.0130377 -96.3826062 274.1750764)
(-206.9364956 271.3363075 207.3259131)
(318.0107948 200.8604907 225.0923798)
(-383.0159072 -75.06835446 366.568452)
(404.8099172 32.44959282 31.27214575)
(-41.78083125 58.48936071 257.7526332)
(291.5469706 130.9300098 426.3425306)
(-154.8635248 -15.27650647 -69.33550804)
(143.9966438 -96.99653869 408.5600326)
(15.76159496 -298.0123978 151.5013149)
(44.36028583 -291.2500243 106.7646976)
(2.605036656 -76.60275933 113.5152436)
(-256.433294 50.1405451 370.6363466)
(-189.615706 -55.51971591 50.71833443)
(-45.19071394 -121.5043161 75.92690701)
(-199.4680786 323.2338053 90.00427938)
(118.347447 129.2157133 -106.7603847)
(-378.9386531 318.5435115 16.1823576)
(219.5208707 234.9975603 9.530338672)
(-583.0491322 37.34928261 -201.2141032)
(123.2874439 152.2401391 -101.0876838)
(-291.3365228 260.4622519 52.16222891)
(539.5574502 185.655923 -596.1538694)
(-99.11755438 341.8646541 -23.04022437)
(567.046388 31.24862732 -153.0253323)
(-23.95501734 -201.6366735 -40.64020863)
(365.9812435 -285.5498387 -390.2670113)
(-221.4590037 -55.05282225 -62.83139385)
(94.59382164 11.68713411 -32.17086588)
(92.60372111 455.7000104 -199.6400558)
(41.36373883 142.0351307 274.5809952)
(-315.1546117 -417.2651762 -420.6240997)
(105.8154571 289.7681445 83.82560897)
(70.56314042 -195.3702117 -281.4775012)
(-143.7477538 -115.9853514 345.4389167)
(115.7226092 286.0139319 -107.9154681)
(6.247402475 -420.6051272 252.8892159)
(-74.87119156 -284.63384 -27.24775553)
(-381.1484367 -205.0572833 258.9657583)
(-208.8476722 -225.2296513 55.62778622)
(53.84139735 197.9252887 -62.03309818)
(111.4084785 236.0900197 275.1316113)
(-55.5307061 42.7594959 113.8071513)
(-509.6931112 267.376835 94.73460688)
(64.83668909 62.67367012 249.2517281)
(-97.92401568 -1.887527883 22.16305295)
(148.5540065 350.3195332 -198.1663045)
(-139.6918812 -105.2440667 198.1310546)
(-218.7032601 88.51120767 -158.850234)
(-102.3129039 210.647787 195.448117)
(-33.3623716 66.30407023 83.21042079)
(-624.9018928 -79.45961214 -306.4278363)
(-212.9256021 -122.9903601 12.55011108)
(-415.0687837 61.25745619 75.03884193)
(82.64203728 -127.1306176 -154.5682185)
(25.73036982 -258.5802055 154.719871)
(247.435551 123.8304696 217.5646918)
(30.0699368 -97.08666261 -231.995994)
(-51.89717382 -439.6629912 -111.9066411)
(242.9280189 -176.2298928 160.1368832)
(-210.3572347 118.6162793 38.56078046)
(-236.2576458 -180.884625 -345.3457749)
(275.5498515 -180.5715155 2.947260281)
(151.9134713 -426.9152841 258.3488116)
(-254.6048132 432.9549707 407.261495)
(-347.5787593 -86.90115912 -439.2744126)
(-191.343034 -12.40735116 -486.2566414)
(133.3530451 323.5067864 -95.65077347)
(-215.3035419 -20.5004327 200.1484583)
(153.107778 17.12073188 -5.892228842)
(520.3161084 -206.4538076 -93.79943989)
(-84.08604463 -436.0236719 348.4325099)
(-258.8046637 61.61907002 126.3541135)
(169.3690425 108.0225425 -330.7146041)
(-47.81167387 63.70012547 -7.013932171)
(-82.93750921 -125.0323361 -165.907162)
(-95.75849362 -490.3255106 384.1605633)
(9.014370082 128.3381286 364.6201503)
(-78.37501621 -629.9296313 33.8540498)
(-245.7343496 -208.3641041 -254.6796324)
(217.251292 850.3806948 -101.335267)
(-72.29930241 -61.97638334 418.4322002)
(-122.2998962 80.13495886 -476.7752297)
(16.54612637 130.5473898 -223.9555271)
(346.8003665 -143.1428603 51.37109792)
(320.7533756 -275.9331871 -168.526135)
(-12.19633039 36.42639846 333.3762771)
(-12.66472472 71.59062683 -255.973422)
(62.33190924 43.11986728 -177.5381067)
(158.3242166 -50.04511318 -216.1735133)
(166.6274606 170.68158 168.6457581)
(7.242635823 362.3186044 104.8419426)
(169.1940346 73.1042855 -132.7097158)
(193.5669535 299.4931315 203.3559479)
(61.42658767 -247.7751858 -359.238871)
(87.03262916 219.9478886 -235.3497106)
(155.9178977 285.7603597 277.0026792)
(271.562219 -17.77746609 -26.05742559)
(-105.735649 663.2686098 13.38038402)
(460.904981 384.3386513 392.8245362)
(409.8242096 -161.3217479 393.6063443)
(236.0952443 438.7020375 -174.4835042)
(2.284780941 -286.8800517 -372.7323907)
(226.9436527 -45.31742235 -334.7076807)
(208.5108242 -80.63221274 118.659494)
(156.6877523 -34.05568016 -265.9416371)
(595.8237314 -259.8172764 286.9476763)
(-192.4347519 -260.231968 318.8194037)
(-393.441664 -446.7763481 -206.8551252)
(-43.51979048 -561.6525198 394.9110154)
(72.42454533 415.5842422 91.56719293)
(270.8851576 398.3648482 -44.79874949)
(389.0954987 -112.4041186 -4.889058878)
(-386.5882133 -414.1718094 -72.82814721)
(-82.51484564 462.2388132 -106.419733)
(140.3537629 -138.9877908 335.4118818)
(-204.5524437 -263.873763 282.7571414)
(-189.2674086 -64.96730961 -448.1071796)
(150.583899 83.35500482 -17.93018625)
(219.7961679 326.9937607 -165.2136809)
(292.7287571 -233.9923101 90.30319058)
(453.0820718 96.97187437 -315.5049684)
(-6.516550048 130.9126131 -380.6883742)
(162.6205161 -158.3928585 -7.230934969)
(7.06931252 -458.0694235 -121.2237319)
(-254.4463787 68.30082187 174.5136908)
(260.0882632 -164.5739972 197.3008668)
(-245.5475765 -135.8676978 -270.1985129)
(375.2764654 104.6718559 12.26199046)
(151.2083696 236.0576085 56.11221396)
(-89.92147448 -263.343748 -364.5118077)
(-632.5043792 -95.42103233 96.49247711)
(-135.5671107 6.727519142 403.3352941)
(263.4062572 391.2366339 -334.0541851)
(-219.5551108 179.5515042 458.0004161)
(-111.6162526 -111.3263791 -92.68753946)
(110.3661542 264.5457839 -370.792535)
(51.4085338 133.7893832 -211.1647516)
(446.9234257 -490.9146605 22.45297828)
(-310.5902336 -142.9182117 -405.4587281)
(-67.27346919 265.6564708 -161.9398066)
(-258.2320177 323.2087664 376.4411954)
(-118.6130577 69.08920119 3.012028661)
(-138.2637998 260.6106583 198.5837005)
(195.8246662 319.7050124 497.5266627)
(-215.9623554 -47.02351814 14.02534932)
(-12.46424617 275.2830994 8.503591978)
(122.1007341 572.9175281 361.1402218)
(63.36653378 290.6108667 491.0050847)
(-172.9456986 203.8362878 662.7337337)
(-39.20560803 -95.12334312 218.4243571)
(-222.0587628 -232.7259035 27.98553772)
(3.531337787 -143.0946551 391.296598)
(-337.5177338 -187.5002121 -105.3272762)
(49.57361982 38.73603359 36.57556904)
(-62.16712431 146.1377538 46.10651193)
(-123.9786147 34.39044277 -131.879293)
(400.1018388 -100.2879908 100.0984334)
(30.48043142 52.19319637 -125.6874699)
(-265.0607215 75.37989557 -52.10213077)
(-127.2144898 -47.42898811 70.48972201)
(77.94031079 -49.09092746 451.7105358)
(-69.64140638 451.4185866 253.3016468)
(-164.5001656 293.9611372 -311.5030081)
(311.6613266 362.4175656 131.0371486)
(-403.7812355 268.23875 160.9702366)
(-156.6671084 198.8385694 251.6852791)
(7.830854811 -161.0914265 176.2144688)
(311.7505354 119.2983652 2.293399428)
(363.4157389 194.3161201 55.20339757)
(317.6616803 -164.5257998 -302.7582402)
(120.5628318 306.239369 190.0399487)
(331.4729792 157.8422666 -39.22095758)
(31.87161476 205.6657088 -197.1844565)
(-554.3362354 -572.7644249 -307.6921925)
(95.11617118 143.0742799 -62.44365773)
(120.1835727 -431.1542076 113.8705621)
(-193.3061659 -136.5613399 172.8651907)
(319.455991 -67.29119009 -182.6889097)
(-341.1453285 -354.2719473 329.1876855)
(-97.05412427 228.8711068 -73.71454885)
(11.25307897 -80.67011209 112.9115202)
(226.8286589 -286.6641149 -7.750897208)
(-72.23535609 376.1997676 39.44829967)
(98.88979864 -129.9955057 -513.1778207)
(331.6386515 -257.6202513 -353.9511921)
(76.32411554 -417.5128906 309.1170869)
(198.8503696 91.34320734 150.3047972)
(-271.2120201 -81.15555418 -141.2456428)
(75.26183403 359.1763904 30.88527615)
(-281.9625347 64.71027979 -86.40231806)
(-476.7193088 237.0289886 306.6897017)
(31.25129333 175.3932048 35.22719396)
(218.723822 -25.64907284 386.2672666)
(-218.9813321 -141.0531946 -263.999294)
(-257.5210748 -113.3223625 -137.2466295)
(-42.93291035 -73.77145738 -36.55393777)
(-277.1129649 186.3158669 -76.03529105)
(-11.18678547 -282.0507612 -37.65732453)
(474.6841548 -308.3211336 -120.4620635)
(-272.0460678 150.3597387 -365.0889511)
(76.6676799 366.3464442 -201.3716208)
(-70.05396015 99.69721669 -162.9204097)
(-163.0157144 -291.7249866 -260.3629073)
(-11.86073315 176.9492866 101.5362418)
(-327.6039227 -200.989348 -238.8745942)
(231.2087445 -112.6560935 1.133630913)
(75.39265589 -112.8067945 -7.477201969)
(-140.6621589 256.1590181 300.3662989)
(119.5520976 -189.4900396 173.5972293)
(-467.9374538 -213.3380846 -304.1987699)
(-361.7068175 -77.13101926 -38.74914762)
(149.7702023 -389.4370298 -172.7876202)
(-319.1613351 -229.9761497 92.5459899)
(-52.30199107 -115.8679167 -207.4975378)
(53.19536016 -15.02745086 -231.2358436)
(-198.8624434 197.2314565 -96.41350206)
(-351.6502675 -146.3915033 -315.9109882)
(457.1002111 179.4083405 -202.3730896)
(191.1770925 436.4249387 178.4964473)
(-469.2661426 129.6026219 -25.27223431)
(162.414656 167.8334846 74.57155539)
(-11.51132866 120.9036419 -490.3482242)
(163.6948127 -140.6215023 129.8329703)
(-17.7473629 224.1264806 83.38798601)
(103.3570735 592.9575238 142.6394969)
(-69.08988088 -263.0116545 -9.269321238)
(189.5614516 -155.7226273 -192.611189)
(406.3404574 -59.02169956 47.73645584)
(211.2932851 316.7256905 241.0352748)
(463.2283295 -154.765237 -30.5710211)
(-20.14249746 -446.7517086 -393.8084726)
(102.4796615 301.6929924 -244.897204)
(-306.7619465 185.3994644 2.656247706)
(11.97867077 -34.2574338 -485.488109)
(-326.6510498 531.3821694 405.772563)
(30.4619323 418.1489608 -267.5295568)
(-501.3071435 60.71704341 59.64059403)
(112.0411008 336.0087419 -158.5064781)
(-270.5821204 295.4202268 -111.8215962)
(42.21080047 -112.9542182 25.94060703)
(301.6454274 4.094457637 -232.7864833)
(-9.430797045 389.3554073 118.5238612)
(184.213618 -106.2793434 -314.6133189)
(-236.9102436 77.78301562 333.5645294)
(480.5842443 327.1649288 -91.36313977)
(319.7873213 -342.5671391 408.1975293)
(539.7596382 -15.35953414 248.1604993)
(47.76092374 -85.58281255 7.700531066)
(68.76012934 52.43221326 139.4909917)
(-0.282117517 -164.5241383 -202.1568189)
(-334.4592771 -21.82351866 149.3166494)
(679.2574268 -30.35820658 77.0194828)
(5.200456456 -138.4028738 -148.9974445)
(169.8661712 -26.03984605 118.4977472)
(300.8010175 -363.0841596 -134.9174185)
(351.1525735 -20.10174516 212.4336742)
(-425.5976316 66.62483466 22.54992461)
(109.3517335 189.3095206 -661.933521)
(-216.7336404 -433.9814093 -74.2336097)
(-115.4959927 67.95278688 -110.1069203)
(-157.9867546 7.581201038 -413.2941381)
(95.98598737 173.1460071 -425.8958678)
(-203.6765122 -177.5381297 710.6287067)
(-23.19518187 -294.125934 -18.6544369)
(-65.43894817 -188.1666749 130.1635663)
(210.9556343 -370.7749334 -219.0604811)
(228.3866184 -144.1095948 -444.508668)
(-107.0163535 284.5451561 216.9674971)
(91.04773168 376.3133655 -199.8771453)
(-341.6003906 75.58887554 -285.2766675)
(9.266820669 -319.7171682 73.20344476)
(-120.7928735 339.3840226 134.4764931)
(244.8425865 -228.6075568 263.9338144)
(194.5258747 -436.2389489 231.1762669)
(20.33688105 -182.2920646 -46.00731522)
(-266.6549072 -195.7711583 -114.9848544)
(-229.6325324 -177.9500246 250.462895)
(149.3150557 48.23540823 -138.3827098)
(348.7663711 -306.3258283 205.177692)
(198.4334324 -3.005595718 571.8380587)
(80.57987864 -125.8988579 244.9852542)
(-162.9256371 -126.1671714 -119.163477)
(-239.3479107 16.59878567 -26.69861524)
(131.8803317 171.8502949 54.95730685)
(9.132338871 102.2207147 149.6978356)
(-97.90020012 26.60537843 -367.0592421)
(185.459588 137.2423308 147.9790072)
(442.787777 251.3723386 176.1435647)
(-32.5231704 -95.41029904 -318.234161)
(-23.0142998 -91.53082145 109.9195767)
(277.1405988 -55.74541018 -126.109175)
(501.5507672 4.276620172 336.3748779)
(200.1209337 -85.92874209 112.3796845)
(-452.0514934 -313.8130115 -302.1494148)
(-571.5433918 -78.51325696 -421.3560065)
(-67.36397984 18.91074064 -141.37244)
(-86.19384027 384.6607995 -46.35728085)
(-351.9020023 77.5983742 -155.9588083)
(-97.97901112 -159.7467956 202.2971719)
(87.49711951 -55.44726999 97.60065724)
(236.5510446 -135.683748 193.3895931)
(427.1929286 -175.4947497 -204.3598217)
(417.497683 -310.0019928 -375.9326456)
(147.9583661 193.7392896 -44.79422739)
(208.6734753 -78.51732401 -351.432688)
(-38.26960869 -75.13412498 39.91260546)
(237.1899844 55.7588687 138.5437496)
(-280.5526148 -37.30391361 83.08111066)
(30.65375987 218.2137626 -181.0922027)
(-458.0534313 -15.01404107 -64.67016642)
(205.6732836 108.1389101 69.20476124)
(56.532377 -168.2395673 -65.647384)
(-282.2252785 -263.8632889 -142.847239)
(97.36757327 281.8923122 -105.2034684)
(208.4748643 123.6654665 116.2623382)
(-415.02237 305.6673557 380.9914416)
(584.0965685 53.87133014 -72.80879472)
(284.3617063 45.58863933 -665.2917295)
(-167.5891453 344.1840383 -137.3800391)
(237.1650176 -89.43550969 -347.6493809)
(-116.5788653 -222.2480801 62.57864616)
(-319.7201877 169.0091606 352.1763691)
(334.6811901 -504.0604666 -47.35164548)
(122.1669574 -212.2093939 -14.91296043)
(81.08989132 446.7299498 -78.6978606)
(-84.17955009 -75.46037121 51.41936293)
(77.48492265 310.6636184 23.56538681)
(148.0745143 404.1988644 -63.50352319)
(125.8793027 -279.1298618 144.7542553)
(329.7935849 6.075388258 -204.1124883)
(-99.28136753 -96.63046657 10.74306109)
(445.8537807 82.34178766 -153.1860045)
(-485.20835 -264.0918618 -112.9643707)
(-151.4539378 -149.5800651 119.2643691)
(64.15997821 227.0791936 153.0174374)
(-314.809487 338.3573736 99.77306367)
(-129.3061931 102.6365752 -546.1479155)
(74.6072305 99.7305002 90.91848742)
(287.8746095 2.246509556 -330.3004524)
(320.4081973 115.1698547 73.07600925)
(274.0646194 306.748738 -252.1232121)
(302.1440051 -391.4829502 113.7485188)
(296.6645749 256.163404 -158.3136059)
(11.5957628 301.271145 100.5756568)
(-536.3276628 -470.4350482 -61.85593762)
(-244.6390424 -321.7380437 445.9063644)
(20.40187488 363.7067125 168.3678285)
(-118.4861277 22.56850868 30.73822102)
(443.450074 -50.1127881 -101.9536517)
(161.1440019 107.0837908 -246.0726183)
(2.664326628 -258.9346316 181.2535584)
(-155.6980278 -44.04344672 23.02559009)
(48.28534176 -6.340531922 63.916405)
(-48.76942131 51.66951263 656.8425344)
(307.0456624 18.75720861 266.2568548)
(-222.124426 136.293556 -324.8024083)
(117.342082 -79.30634494 375.4711389)
(13.17662628 -259.6090233 -62.75677932)
(-36.41813608 15.62504419 143.9333735)
(-57.97401065 42.1972158 -298.0570031)
(262.6974863 65.05005886 358.250889)
(-205.6892136 -25.93676177 443.1200504)
(80.06317361 -173.4213364 -173.4277981)
(362.9503115 -654.7213445 -526.9757086)
(207.491931 27.19311441 277.830473)
(172.9543196 -104.7685971 -259.2537117)
(-7.879121665 -49.36052623 65.10718731)
(-101.8157549 342.6998781 455.6278688)
(-311.4080246 -447.7790683 94.27919868)
(144.2268039 313.1390519 -149.7488318)
(223.0365265 15.17307789 -134.4795361)
(-599.7643399 472.4451156 215.6721882)
(124.2449993 214.220563 -593.163361)
(187.2272679 -193.037907 193.4605493)
(-206.5248005 81.93969121 -146.6259535)
(81.69542548 435.2248127 88.44395264)
(104.5232806 52.91040177 43.41496357)
(-50.16217106 168.5533149 -137.4148307)
(-41.52389009 -5.418660904 -139.4998487)
(450.0402677 188.2707154 118.9275746)
(-140.4344568 490.2830886 126.2236124)
(-167.1910077 -64.72525444 76.30988258)
(142.3176713 -430.3745378 -128.919909)
(9.596761122 -415.0415995 173.8363867)
(27.14471095 431.3683482 -117.6647796)
(-369.919038 102.0243714 -36.51424686)
(307.9338088 -64.50083643 644.4790425)
(246.8696653 33.96948503 -197.3841482)
(-122.5364925 -230.2362834 -60.12110823)
(-314.2019199 67.55228574 -233.1020177)
(157.6736091 123.5303603 -225.3885039)
(-187.599648 74.44840748 -43.98711293)
(236.7650593 -318.9851545 -76.34671395)
(316.2347806 -174.7275064 -163.2863513)
(114.1242843 113.2744959 19.93422565)
(57.90880051 92.83939891 165.5033364)
(-12.17138642 -2.981773201 261.7213759)
(-49.6399586 -222.3823997 -138.2471973)
(230.0526067 -559.3424265 -388.7569532)
(162.3454632 -16.63989839 78.00746681)
(89.48476425 -171.82578 224.2608251)
(-251.7200455 83.94539421 293.9255251)
(-29.11674606 81.12556903 100.7369947)
(-194.1709767 -301.7711289 -27.61245762)
(-210.3014085 -124.2975607 337.7725785)
(-60.09616573 -130.1733936 -122.0438081)
(96.59939797 242.3544038 498.942194)
(-277.5603462 -12.33496836 -371.2550504)
(-100.5898482 -64.06354902 525.7472341)
(104.5558421 -159.5253899 682.783823)
(-175.5461705 -365.2401612 329.1742524)
(214.240348 34.80365477 -83.12352994)
(-6.903161894 301.7869233 -37.0771123)
(-107.2217921 -260.4832084 622.000043)
(94.71560332 186.8239311 -95.38102484)
(99.40449183 69.90975882 103.7163295)
(113.7698958 -57.38942628 307.9582261)
(-278.9971036 -486.7786032 -160.0924311)
(-147.066001 -3.246595544 18.74256717)
(-197.1673064 -27.77780528 26.63197639)
(-200.5933791 282.3906851 -317.5752927)
(34.68901655 -146.3177299 -455.200097)
(-119.8186693 325.8436836 -489.5435402)
(162.2681373 -291.2342423 389.8090962)
(11.71864091 77.67539115 -295.2143558)
(738.4727003 -217.3328795 142.7139806)
(10.88445205 15.60435591 51.88930514)
(-247.5466272 -449.7773519 -78.12929959)
(26.29659006 34.78401122 -120.3245262)
(63.31204844 96.06625354 -160.9829707)
(-311.9162638 -83.95728442 216.335309)
(-322.8415515 89.33631023 -114.6305815)
(247.1471062 56.2788482 175.5901733)
(-340.5000604 378.2260661 716.3364905)
(89.42268286 23.231128 408.8873787)
(367.5084674 276.176537 -29.86712266)
(-219.9595528 -165.832767 -370.2698479)
(-135.2477725 198.8726627 -213.8598358)
(169.3729401 -31.36742162 13.0398042)
(204.2417588 274.9738217 -314.5140556)
(-140.9346142 237.148275 -93.30363166)
(-281.146131 -117.6061539 366.1004774)
(-59.89736757 299.645756 280.803696)
(-103.0461589 304.7286971 -259.3235322)
(-90.69370786 -24.43133943 449.4960481)
(-57.40256552 -25.44420465 -114.3646981)
(-225.2675332 -284.2906645 9.009026592)
(-198.6918868 179.5693485 -295.0410012)
(-39.63228438 -4.452305732 -413.3147641)
(-13.19721312 -505.6751733 -64.0371108)
(335.0797039 -155.3632793 -494.9957059)
(-94.22578186 -23.24669877 383.8042969)
(360.2273177 -299.7316505 374.1682415)
(-82.80582486 121.68765 288.5004382)
(-151.2369124 278.1888396 -230.6789689)
(-535.5302836 6.932105698 554.9354311)
(137.1853608 34.94500858 -87.48067368)
(-18.80066927 -229.5632941 172.6657806)
(40.121803 -309.0677975 194.0719592)
(-186.6162273 212.6515539 100.7318618)
(-380.7705131 418.8430813 99.1649751)
(-177.8287535 -180.8825556 -42.94803338)
(-15.21459492 186.7154568 141.9682779)
(76.0193869 268.4273586 -61.11704617)
(-96.27880056 -150.6371856 194.1632813)
(389.3602955 -188.7577599 378.0977481)
(249.6700284 418.4397694 4.138671286)
(-352.3620129 -36.44109009 99.93027036)
(256.2853936 117.0977332 -31.42915848)
(393.8361003 -5.431680087 -166.7244639)
(-52.35684526 -235.0825686 164.7838616)
(87.92907418 2.340728267 -340.5535121)
(-58.67097554 -311.2787514 309.4679845)
(255.0470419 -187.4053425 244.3029696)
(479.2350206 -275.0292126 -377.2129525)
(-310.2701595 -237.1234894 -73.49245025)
(386.5666954 282.3976977 -125.7154102)
(-198.4221838 -86.59543367 160.915359)
(231.3913635 165.0684388 79.60501914)
(-202.2256569 -45.79731149 -125.0054972)
(-198.5049109 -222.9024162 381.0391095)
(72.76718736 8.38073657 451.7104366)
(-194.4527205 50.31712914 104.2358455)
(123.377403 346.5869266 97.0215097)
(-180.0991394 -324.5694045 -23.18294021)
(-23.7254157 -85.2221792 220.6351292)
(-98.76591585 206.4199532 195.3528855)
(81.88206486 -115.6054035 208.8491817)
(-218.2095185 -24.75807977 240.4885921)
(-114.7870916 321.6170499 -231.2395283)
(157.6759392 -279.1968572 93.18375774)
(10.3456266 -16.7206339 9.073743556)
(258.5431452 -146.9227253 135.494058)
(109.7829493 295.6359569 -5.750535354)
(-53.02559792 -194.0174704 -232.2763248)
(-145.2174899 -11.36684614 -42.06467708)
(179.9552309 362.4232371 332.0174818)
(148.0353848 199.0460302 -49.3624513)
(303.1911522 108.4191739 -265.0149673)
(158.4104815 -319.1073403 -162.6077367)
(116.6663 196.7198416 -59.64428784)
(-562.2583615 -147.91957 -111.0465222)
(242.6868852 5.376171644 37.16884925)
(-184.0613313 7.574887485 -214.0662796)
(-194.0439694 -167.025814 -249.7441579)
(175.4698175 -433.1787276 -12.21925791)
(-196.4707055 458.8677993 299.4362909)
(-210.9966929 480.0239887 -137.0501559)
(488.6396436 37.41515222 -149.7997474)
(230.7258296 203.8831964 6.637972813)
(-145.0425237 35.60806095 263.5946106)
(215.9654858 0.520403801 -219.7318249)
(163.9812074 -53.07108533 -241.9711722)
(-30.70938904 -58.0502466 118.6651438)
(-256.3638045 -129.1830904 -74.87538146)
(433.0850195 28.94812177 110.891987)
(119.6564341 -269.6730175 174.4901352)
(-526.9629231 -57.81142393 -91.55524712)
(517.5734042 86.11012369 -81.74190177)
(-84.66498869 99.98705201 -102.5163862)
(-292.5208957 -143.5073867 -161.9034244)
(150.5334115 -20.08714462 -129.3063372)
(112.213475 -319.0144956 457.4267565)
(56.2782101 115.181125 -202.0436174)
(78.43543579 -183.0004761 73.55673712)
(296.4327904 -2.465976191 -139.0766992)
(32.31814987 92.9154433 -341.0026198)
(-438.850673 -337.4890167 68.99464307)
(-304.3207925 598.2748325 156.159267)
(-54.46998692 -179.2434361 189.4124859)
(-446.7921768 -114.4785384 89.07784977)
(346.928787 -203.6462542 500.2490207)
(114.5365697 329.015957 -328.266173)
(380.6779335 -359.2389139 -129.9865834)
(-388.2624394 -131.4194166 207.3927613)
(-229.2308232 -382.9035621 73.39328511)
(197.6759853 10.86366532 -51.18761832)
(106.4284061 182.738459 -8.764571905)
(-115.9017745 -91.39482018 -187.2957802)
(86.38185617 -400.6532648 -1.841476909)
(-492.9022088 67.75797957 277.8577917)
(-106.4813741 435.8585295 22.03001181)
(-99.72754354 -490.4535231 -342.62403)
(-85.57650776 259.5790636 -41.51080053)
(-245.93638 -83.57840883 307.0543648)
(-140.0225829 344.8805228 310.601103)
(302.737297 62.90180594 160.5034311)
(-532.0196555 -63.57526121 -62.06629068)
(478.3131976 -34.34002729 86.25992892)
(43.23295193 74.96525791 137.428263)
(158.1491815 132.146317 -148.9919417)
(232.0290912 -74.49855409 79.64552152)
(-71.69522537 106.994695 -69.08567436)
(-160.9254238 -225.9570047 -64.35716795)
(216.6113276 -46.37140548 32.19240491)
(-136.9769427 303.4355859 -300.0989726)
(-201.5050497 320.6699689 -339.2192652)
(64.06628441 -325.7313762 165.5899724)
(-186.4241983 123.3358234 -182.8286344)
(-92.11475545 -229.6343388 289.3882922)
(-16.83596501 -225.5855255 -152.4802133)
(119.4248039 487.851036 -151.9810894)
(417.1585017 201.0791615 -292.7519244)
(66.47036464 -246.6572232 -58.30033854)
(-249.8683609 -201.7028088 -139.8848083)
(-189.9910877 400.2196043 204.6065939)
(12.18476196 -96.72434719 187.133734)
(-96.91399422 -16.39607799 -349.6832923)
(-85.55171184 184.2734178 358.9104926)
(-343.2481071 -134.643024 -225.8459592)
(118.3881774 -164.1118602 114.6837532)
(17.19654674 -280.9766539 95.9235494)
(326.9530133 220.4424938 -326.7365934)
(-102.0873587 -332.2660887 495.7660647)
(1.892589189 -290.8470533 -212.6248474)
(-271.8035557 -135.5072969 216.7861938)
(45.74449788 64.00285628 322.7315371)
(-115.4444911 -80.77650305 -85.43456842)
(81.46072111 -98.98500055 471.4435748)
(-219.1017338 17.47069137 455.6002269)
(117.492465 412.5259133 47.257042)
(-352.3449161 -317.3892266 -246.9710293)
(39.44176703 -257.1954763 -245.6465036)
(-81.49668667 -351.0601804 289.5590607)
(-255.0153167 -119.7828069 -67.2316632)
(140.9123018 405.6422448 -65.52130806)
(313.6707006 282.9853481 92.32640024)
(-86.31364238 -233.549868 179.6798212)
(-8.051816673 -158.4614281 257.5977004)
(245.4499815 28.37048879 -173.6189732)
(721.1955398 -82.78183808 107.5148233)
(39.41500443 104.1809445 449.3468294)
(-6.431928352 -67.88745441 327.2625256)
(28.44936584 -194.8434197 -52.27116871)
(-314.7269977 93.41283907 105.3086156)
(445.8595188 -226.4451074 107.0211387)
(-262.1111027 378.4074814 -151.9495219)
(-377.740598 -319.6316056 -29.79265209)
(-81.57987342 -256.1583264 194.7496737)
(-110.2004308 216.0680048 193.0157462)
(-198.5877292 243.1427919 -333.8286832)
(29.55898707 -138.2688021 -200.9605771)
(-77.41670385 -253.5549107 -8.257416728)
(-66.9594565 1.150651901 -123.4412025)
(-59.98189007 325.3355245 -312.4407972)
(223.1737396 -181.2518994 -242.3167775)
(8.714258335 -73.5067343 131.6940173)
(-67.99254383 0.02738771964 153.8494963)
(301.2519507 275.9999146 -335.6656221)
(-52.20892934 221.8570711 -152.6790333)
(154.1957686 -178.7121265 96.74825381)
(-382.6039635 -157.7045374 -169.2806385)
(-110.3036149 -46.49351934 227.7777837)
(37.80352277 -44.97228376 36.06586905)
(81.61256686 -272.9080733 -154.5650786)
(3.768228966 58.59927346 374.2433514)
(-342.4347105 5.566751455 -228.3471614)
(210.1494121 -60.71904187 -61.67878971)
(-113.1755753 -2.41607532 14.82702596)