/*--------------------------------*- C++ -*----------------------------------*\
| =========                 |                                                 |
| \\      /  F ield         | OpenFOAM: The Open Source CFD Toolbox           |
|  \\    /   O peration     | Version:  v1706                                 |
|   \\  /    A nd           | Web:      www.OpenFOAM.com                      |
|    \\/     M anipulation  |                                                 |
\*---------------------------------------------------------------------------*/
FoamFile
{
    version     2.0;
    format      ascii;
    class       labelField;
    location    "0.004/lagrangian/dsmc";
    object      origId;
}
// * * * * * * * * * * * * * * * * * * * * * * * * * * * * * * * * * * * * * //


183330
(
888446
14996356
903941
15111011
14951166
15047000
14983652
9468953
894860
15113744
899575
898998
15134995
15222075
14954942
15182088
901618
15090706
15216278
15163007
901237
15154618
9503129
15131487
15191348
897317
15169106
15236044
908742
15216596
896067
15141601
15087363
15054967
899871
902788
902872
903613
15197260
15143685
15214594
15125493
14954809
15186318
14900536
14997202
909770
901764
15183278
15180817
15116517
15226248
15086840
15143543
15090004
15208496
15185124
15164720
15182982
910384
9535962
900141
15174299
910555
15127072
901648
15158333
14947482
15196320
14987866
899724
9544693
910708
9547453
15101087
15130039
9537103
15141920
903374
910840
14991509
15203743
15117073
897262
9548386
903916
15166989
15217298
15117329
15236013
15097648
14777770
15087847
15182583
15214139
15167358
9540002
903586
15272060
9525644
903885
15102020
15230001
15196531
15224355
15149825
9507589
9502560
15236310
15230587
911251
15168590
903375
905252
15168902
900610
9520090
15161134
15187827
911335
15187257
903106
9478253
911368
15253611
15134739
15224055
911484
15137318
15110247
904043
15184218
15202140
15111817
9533999
15230802
15164838
902701
15230507
9523916
15232468
904903
15169814
15060869
9574456
15177100
9547424
905421
905443
15122998
9499418
906132
911758
9531849
905272
15045337
15091883
9542324
9552316
911836
15284289
911861
15252646
15213294
15120796
15112440
901358
911932
15221898
9514185
15170446
15234360
15254912
14938279
9554829
15215961
912032
912047
15236737
15181759
912150
9544198
9560435
912164
15174948
15216400
912214
15206239
901989
912223
9546059
15252465
15215712
15213011
15188852
15236041
15219089
15214460
15203593
14993473
15081591
9552304
906761
14920779
15224059
15244719
15016781
9570963
15229025
15150321
15188495
15216995
15301412
15020983
15171684
15247745
905787
15266233
912477
9530475
15252488
912505
15258905
9554225
15122698
912521
9555797
15252126
912556
15134082
15112128
15239518
906129
912572
15154812
9550898
9545519
902033
15259036
9578346
9571080
15249293
906201
15238907
15165151
15188845
15111535
15254314
912748
15233441
15115865
15264630
14941138
15257970
15297757
912811
15147788
9557721
903822
904743
15236447
15216652
907419
14935775
15152930
15155831
15291725
15265892
15224329
14963818
9546621
15228733
15234665
15240756
15252719
15237376
9557329
9562195
15217002
15206244
15259661
912975
15177460
905478
15151508
15236337
15161013
15149226
9556379
904668
15137717
15148419
9561043
913031
15213305
9559707
905289
901163
15175847
903121
14907821
913077
15199687
15161724
15253284
9519638
15235842
903668
15115831
907146
15130881
15034647
9514182
9561255
15289232
15137725
15093764
15262349
15217555
907777
15221534
9590224
15230560
15229698
15237362
15150794
15183592
9558910
9572526
906159
15028777
15221601
15162263
902700
15246544
15210595
906991
15255935
15244692
15289871
913315
15245474
15232985
15102455
15216048
903028
15134046
907985
15212415
15271456
15176256
9578958
907327
15194778
15078469
15276087
9578982
15247030
15134435
9563387
9567873
15132946
15211150
15162928
15264201
15267789
15245852
913493
15176572
15263724
15259356
9569603
15181757
15261505
15310756
913539
15261213
14937298
9544088
15273192
15176803
907885
9541952
15203649
905085
15248654
15181083
15261503
15227787
15255247
15250161
913635
15247925
15312551
15293098
905519
9493590
15195887
15149245
9571955
904923
15136859
15057619
15005014
15170334
15213614
9566684
15250204
15222737
9564757
15276350
15174693
913736
15167343
15130620
9579540
905882
913780
9543881
9546438
15225849
15110695
15172688
15208494
15283408
15070391
9527770
9561248
15288713
15248637
15272111
913857
913859
913860
15220309
15291872
15267648
15225850
15147061
15212707
9571473
15291541
15272554
15315061
15191286
906844
15252475
15187014
15292959
15299344
15283475
908321
15188838
15234942
905396
15239423
9565152
904941
15289065
9573722
9574719
9570470
15307104
906591
907260
15208858
15300122
15285967
15167247
15248208
15305764
15282559
905124
9555014
15276969
15296812
913995
15190964
14854280
15132807
15156620
14872837
9556010
15263418
15278251
9580499
15212119
15305769
15153817
15302156
15255272
15282262
15270220
15166904
9584071
15224045
9572334
15259670
15287839
908718
914096
15220047
15308208
15334465
15286819
9584176
15323796
908575
914124
914125
15259292
15269463
15354182
908289
15134618
9558685
15329781
914155
15122371
9563013
9573621
15089436
908706
914175
15273617
15246508
15126568
15137173
15200314
14983220
914206
15258720
9572357
9565897
15253719
15261153
9585785
15274516
9576087
15245786
9585184
15255627
15270817
9560473
15316347
15215722
15248959
9579172
9576874
15309868
15308032
15246480
9573909
15333545
914265
9572605
9575655
15297089
9562405
9577968
908829
914293
15266504
15266854
15321821
9584009
15310205
9582454
9550715
15144370
15238881
912870
914338
15071656
15301175
9590896
909188
15235846
15258346
9570591
9576235
15204178
914364
914365
9551893
15242596
15263062
906078
907418
9544664
15176830
15111109
15303732
9579383
9592573
906993
15261537
15261563
9567700
9563172
15250216
9574734
908990
914403
914407
9543913
9560050
15266869
9566496
15252460
15098766
15280333
15325458
15180799
908631
914432
9542912
15254830
15282849
15124634
9585380
15206389
906758
914440
914441
9514807
15152425
15240703
9557755
15150765
15131607
14955914
15204974
15199684
15296123
15354487
908536
15133378
15280954
15264210
15288763
9594187
9522933
15294940
15309278
15234949
15260500
9495967
15277949
9587940
9592946
15245015
15257117
9575663
15309251
914532
9524300
15114272
15233049
15264531
15197520
15279766
15290602
15195930
15238872
905587
15288765
903434
15295251
15337275
15256541
9597837
9590882
9593196
15231103
9545270
15193847
15247436
15196553
15189733
15308939
15321012
15170941
15246967
9574118
15181108
15213286
9578980
15246756
15193869
15238005
15235802
905420
15197908
905717
914626
914627
914628
914629
9567266
15005252
15187278
15158692
15290887
15163000
15218981
15365799
15191530
9548205
9553863
9557178
15201457
15182701
15305549
15239725
908300
903516
15283751
15328209
9582453
15320100
904196
9569992
15297722
9593554
907532
15241555
15099498
15244669
15266886
15304028
15294318
15142835
15213121
15294319
914734
9529888
15304055
15296483
15086325
15052281
9588726
9588908
15209958
15297920
9579925
9580537
15175336
15326988
15293061
15321202
906508
908947
905159
15288766
15328839
15238656
15220976
9542700
15254346
9571730
15282238
15308944
907080
908371
15332627
9568270
15174387
15266410
15193111
15168545
15254191
9586547
15324871
909675
15203914
15206821
15211676
15110057
9581856
9587542
15121104
15250175
15314866
914847
914849
15250855
9564758
9599946
15298372
15289072
15179536
15305510
15252311
908412
15228294
15098560
9567673
15246066
15230263
906491
15142457
914886
9552087
15272416
15251342
15243207
9581091
9592997
909147
15145344
15255860
15289190
9577394
15280945
15293720
9573065
9586546
15271412
15107906
9564363
15160131
9589704
15317263
15356689
15333068
15317021
914929
914930
15198450
9572894
904937
9571042
9586916
9592970
914947
9548206
15241609
9560083
15280948
15282247
15189414
15306792
15278459
15229874
15196159
908719
909564
914958
914959
914960
9564746
15326072
15292338
15272951
9588941
15299588
15180112
9589115
914973
9568884
15256243
15246497
9592559
15275786
907948
908147
908522
914993
914995
15210140
15225050
9578558
15364552
15106243
907746
909944
915007
915011
915013
15242887
15225228
15282254
15289064
15320293
15222699
9575264
15296810
15308959
9575706
15288441
15328837
15236406
913438
915028
15265885
15161103
15320291
15280683
15301788
15354488
15276084
15321941
15245251
9592242
15260241
915043
915045
9545812
9561249
15283753
15210738
15321806
15287748
15174713
15318626
906663
9599617
9579541
9593253
9595074
9597675
15253356
915079
15187539
15235816
9543708
15268664
9566883
9579564
15306784
15319806
9585362
9595718
15320565
909722
15247712
15265820
15253785
15312243
9587153
15371738
906873
15240069
15292976
9586754
9586002
915127
15235260
905397
15308638
15157261
15106239
908150
909816
15264212
14966414
15242897
15223925
15291511
15227768
15240748
15287838
15291396
15121761
15243457
15304662
15353221
15319065
915168
15199977
9561658
15331995
906911
15316796
15339404
15316807
9600279
915186
915188
915189
15210576
15303125
15312379
9584194
15188987
9594158
15270198
909293
909673
899570
9568447
905183
15254956
15305889
15217547
906242
9584431
15304909
15326180
9597852
15213789
9563015
15291508
9587909
9591695
15239821
9588909
9599558
9613579
909061
909652
15161446
9562392
15284411
15246543
15194971
9590062
15300058
9587628
915240
915242
15152679
9569406
15173772
905967
15292154
15347200
15313614
9609663
9591718
9596664
908301
15192868
15199917
9563752
15195801
15223348
15333871
15258361
9583007
9589653
15249425
15308827
15324376
15324400
9595743
15232030
908008
910162
15123304
9557142
9584789
15236423
15315177
15323674
9586140
9588289
907381
15291041
15250860
15257764
15198841
15280383
15276363
15294658
15303733
9586427
15235429
9589883
15283631
15358845
9596280
15351658
908465
15277959
915301
15237379
15252599
15301527
15279164
15296452
15271098
15199850
9565547
15228383
15315818
9602543
915312
15273450
9569435
15234291
9581263
15289240
15225387
15296492
15285518
15313916
15265398
15300690
15322541
15310202
15221554
15306171
9598603
9595877
915331
915337
15229355
15270688
15162329
15282809
15252076
9583607
15215736
15319676
9588544
9586753
15294877
9607174
909601
15189136
15323983
15212680
15303115
15303404
9596681
9598617
15319474
910247
915365
9530694
15184688
15293097
15264289
9576297
9584961
15305431
9598680
15266482
9605449
910164
915376
15169698
15197039
15282221
15293734
9579135
15202736
15344356
15274217
15297729
15244667
15235524
15216045
908670
909367
915395
915396
9565927
15300537
15291535
15306499
15265522
15273468
9594178
9586166
15166289
9600799
9610498
908250
15122607
15157710
15258996
15274108
15300227
9583020
15210469
9587513
9587741
9592869
15326987
9595938
9595043
908047
908521
15160709
15283170
9584020
9581670
15308643
15305222
9598317
9602120
9604150
9601122
9592763
909794
915438
15255612
9549760
905737
15254203
9578776
15223270
9578221
9596628
15307972
9599390
9600628
915453
15229050
9582485
15240134
15310797
9587900
15283106
9589457
14967000
15100473
15272588
915471
15254015
15257568
15287243
9565542
15257045
15281514
9579929
15302311
15156335
15312367
15314860
15299918
9601585
9608186
910230
915479
15124172
9574504
15203678
15330400
15164746
906507
9594885
9598460
9598252
15298570
15339553
915502
15194313
15217921
9587738
907058
9591241
15333361
9602570
9596718
907986
9598801
15238601
910197
15258399
15296132
15299521
9592966
9593530
15372356
9600582
15261509
9598821
15326160
15385724
15089362
15261171
15189412
15270514
15299029
15297295
15363630
9594743
9602804
9603133
15337715
9610745
9614231
915549
915551
915556
15158927
15286911
15292160
15303117
905738
9584806
9591855
15355451
9593718
15317534
15271731
9594856
9603336
15352432
15172910
15196273
15262716
15192139
15365797
9593739
9581272
15275474
15271964
15285636
15301413
9599689
15235202
9596708
9599772
915580
15221865
15304228
15318182
15304041
15291387
15306175
9578946
9588323
15244685
15324381
9592420
9597553
15339515
9608012
9611448
909260
915598
915599
915602
15237688
9576251
15299938
15293696
9585757
15280927
9615683
15305230
9591036
15081976
9603913
915613
15199657
15316014
15331324
15273848
9582484
15079748
15117313
15250066
15344329
15217401
15189702
15271074
15283168
15251738
15306688
915625
915626
15287543
15229974
14893368
15288162
15351328
15319198
15321346
15248318
15152274
15330814
9607536
9598983
9599195
15316458
908173
910140
915641
915643
915649
15307610
15312663
15278153
15311408
15317036
15277390
9598420
15245918
9591639
15317985
15311664
15109146
9594758
909426
909494
915665
15257468
15199140
15271122
15291499
9593757
15323181
15349418
9598634
9601691
904629
15314226
9603667
907648
15113816
15314563
15289973
915685
15039081
15318486
9619187
15312016
9587525
9602726
9600609
9604894
9603495
909545
915697
915698
15246223
15251812
9572114
15285996
15296804
15232299
9588897
9584010
906640
15321026
9593615
9595173
15256826
9600440
15198406
15349894
15325158
15274651
915716
904576
15036857
15176979
15285016
15038061
15314567
9592394
15253363
9600737
15336135
9604285
9605648
910198
15177658
15225878
15241926
9556944
15268850
15264591
15181128
9577973
9575872
15305256
15306168
9595277
15322121
9625623
15046849
907458
9600390
15338624
905518
9602296
15221557
9603847
15338339
15343844
910499
915750
15246496
15280401
15292108
15294321
15295866
9596655
15308173
9598205
9603804
9600426
15317655
909274
9591403
915770
915772
15245905
15223361
15281589
15299630
9582672
15308316
9568821
15284708
9615296
9591595
9598428
15213207
909725
915788
915789
15218988
9559271
905589
15231802
15291191
15242841
9583213
9595747
15317406
15244579
9589290
9597078
9596064
9599978
15378316
15286166
9603287
908002
9607786
15302773
913555
915795
915796
915798
9564762
15289355
15297109
15215130
15349447
9578989
15237709
15248678
15267935
15321336
15318857
9590836
9590701
15102826
9594558
9598872
9601326
15297104
9595745
15323642
15286274
9618870
909346
15280933
15254945
15214046
15237672
9570186
15255231
15185309
9586749
9580378
15315829
9587128
15127770
15333316
9607306
9606572
15279177
15217755
15240138
15270201
15228401
15158933
15248625
15308624
15317685
15306150
9595706
9595711
15259835
9594254
15275995
15373635
9602503
15300192
15335809
915846
915848
9576245
9573305
15254021
9577982
15315054
9587320
15288735
15214180
9586939
15275039
15273890
9593989
9591863
15295193
15257777
907718
9604083
908268
9610877
15222018
15277329
9575089
15292780
15355446
9581851
9582469
9589919
9595669
9597450
9603538
15265873
9596470
9598411
9595358
9597684
15321892
15303282
15322245
9604893
9607805
910359
910373
908878
915888
15180185
15223897
15280950
904942
15299828
15327275
15306473
15314867
15325766
15327124
9594533
15254276
9592222
9606078
9595090
15332626
908589
910248
915903
15197559
15247103
15305249
9582643
15194135
15270203
15312381
15121279
9582455
15292792
9582246
15309898
15280508
9596286
15294915
9594249
9601372
15299920
15337587
9596279
9601434
9604711
15193352
9603484
910498
15268684
9574500
9610054
15304899
9590060
15325251
15172835
15316952
9584183
15337720
15282226
15294611
9606031
9609723
15345757
908519
915928
9540597
15342194
15188741
15208477
15346616
15261866
15249166
15303435
15311087
9589673
15226725
15321609
9593345
15097020
15313323
15272349
9609384
15290858
9608151
906282
915943
915946
905244
15202090
15305258
15271072
15280963
15325903
907473
15328514
15338930
9611113
15377064
15244188
15117514
9605245
15178666
910781
15276267
15236119
15337588
9586923
15267735
15320557
9591473
15317040
9598415
9595534
9592557
9602294
9608506
15340161
9609768
15133774
9639813
15360408
9610195
915968
9559480
9571578
15284284
15300242
15336957
15327685
15141442
907672
15340463
15297602
9597232
9628344
9636114
15287147
908237
9612817
15272029
909108
910358
915983
15290011
15293425
15230275
15233016
9578851
15314869
15307080
15157247
9590866
15244736
9596274
9605292
9604100
15259900
15386666
9627760
909045
910211
915997
916000
916001
9573516
15301185
15243112
15187922
9583206
15320104
15291195
9598811
9592578
15285037
15251466
907335
9591265
9604623
9598936
15328035
15261696
15297688
9606864
9606847
15222719
9611274
15338916
15354811
9605612
15349888
15314739
15042522
9613874
912447
910141
916014
9587299
15332297
15263390
9588117
15130095
9594303
15256212
15280403
9594172
9607815
15349877
9604181
9616953
908948
909187
916032
916033
916035
916036
916044
15218471
15301165
15283147
15350721
15317029
15311405
9591019
9563573
15305878
9598045
15324700
15296185
15261282
15236037
15286507
9588744
9600164
15208059
15329911
15325013
9608550
9607806
9608395
9607409
9609797
916054
916056
9572318
9576821
15305570
15311397
9581653
15364876
15329264
9597024
9590431
9594331
9602399
15325571
15298342
15165662
15319775
15324375
15333672
9603032
9608717
9609678
15309749
15386031
9644297
910103
916067
15264862
15290122
9575052
15287840
15308042
9595511
15324104
9618011
15325908
9595686
9601367
15311724
9583415
9603553
9603957
9609327
9609294
15341703
908298
9607437
9604897
9609759
909146
916083
9538837
15262442
14996540
9575305
15362043
15313625
9588129
9589469
9581477
9580115
15318612
9592767
15305179
15306811
15304504
9594554
9592534
908052
9596131
15345448
15301400
9611176
9611875
9609390
15389461
15272711
899485
908083
916099
916102
15319979
9580946
9585170
9580529
9583006
15156661
15116673
907045
15318598
9593394
9593579
9601536
9601929
9596642
9600979
9604447
15224322
9603846
9598843
9607991
15300547
9609860
908810
9620171
15282723
909333
15245898
916114
15078806
15255815
15278226
15220332
15303413
9582505
15316803
15263712
15326771
15368008
9593413
15298995
9597944
9604501
9604685
9605653
9602896
15320078
9613546
15331143
9607775
15062412
908591
9617885
15291805
910082
916123
15232175
15020682
9516123
15290569
15302162
15281308
15284965
15230569
15085941
9598974
9592761
15326453
9598641
15282128
9597446
907772
9606262
9603468
9594909
9599208
15259304
9612711
15318491
911101
916144
916145
916148
15275168
15304057
15209925
906107
15293704
906456
15261172
906936
15264031
9590864
15309231
15315501
9583220
9596512
9601440
15222693
9605887
9600168
9601549
15339539
9607065
15314861
9597222
9616908
911007
916155
916156
9584981
15283171
15292940
9586570
15321349
15311930
15157670
9593911
9589316
9587133
15344677
15291513
9601164
9601956
15326818
9602493
9599199
15297739
9603240
9599255
9606566
15238882
15290591
9610326
9612046
9605420
9614154
9607480
9615221
909007
9617977
909935
910929
916179
15216984
15193787
15282855
9572530
15303387
9585188
15302475
15322733
9589277
9605008
9600553
15296103
9605798
9595689
15334560
9599802
15331459
9607237
15357930
15332730
9607271
15344480
15279738
15304790
910121
15191336
9566710
9555455
15286301
14877033
15014882
15281616
906179
15186959
15314555
15324378
15322854
9598028
15317680
9596709
15336764
15323488
15290844
907741
15314789
15275427
9610500
15278246
9610313
9612829
9605035
908963
9624939
15244657
911299
15289366
15289945
15282509
15200277
15320103
9593377
9595504
15327389
9597224
9599973
9600213
15251807
15286233
15286253
15353339
9613857
9605490
9605647
9618143
9611841
9611436
9614626
9608771
15315766
909945
911188
15079346
15180805
15220601
15276082
905855
15271386
15306752
9595732
9590669
15299814
9593767
9595149
15323497
15307613
9591101
15219079
15293978
15332110
9608400
9609580
9609494
9602547
916243
15209555
15279354
15322729
15290864
15314268
9588748
9581279
15304221
9608690
15198478
14894569
9593779
15360755
907385
9596919
15311086
15284599
9597518
9602129
9588508
9610339
9618599
9604144
9614380
9614433
9619323
15372662
9615196
909111
910693
910874
910908
910968
15247716
15305231
15329154
15301184
15290539
15262713
15272665
15168474
15300244
15046421
15315152
9597457
9595891
15329577
9597319
15276047
15315121
9596649
15292339
15308632
15254008
15320655
15241305
15299583
9595476
15325550
9591222
9608500
9605673
908405
9611925
9615097
9605635
9613621
9622992
9609379
15089375
9620695
15355762
909930
916264
916265
916266
9572115
9570577
15252302
9586730
15335514
9598483
9594540
9605796
9607957
9608348
9605416
15332078
9613989
9613493
9613301
9616657
9611723
910517
916283
15299504
15346607
15160653
15317690
15296489
15235119
9589113
15315774
15297395
15285622
15326673
9601985
9600238
15185303
9607593
9609775
9608970
9598596
15361876
9613779
909305
910906
911452
916305
916306
916309
15180186
15306181
15290865
15114530
15314545
9594522
15295536
15288379
9600552
9596247
9595474
9598036
9594318
9601740
9600031
9601592
15350853
9607007
9609755
9608942
9608758
15374867
9612491
9597329
908841
909428
15271150
9575508
9580683
9543295
15338215
9582829
15308573
9588313
15323196
15180482
9589317
9591607
9601365
9596870
15236812
15317072
9597431
15274197
9602931
9603473
907944
15243083
15252312
9605199
9615110
9605081
9608377
9611153
9608381
9615397
15292767
905214
15294283
916333
15125188
15351011
15264342
15233986
15294919
906450
15296661
15352603
9598019
9598225
15210890
15294614
15298915
9604812
9599833
9601995
15183537
9609661
9604446
9608901
9608581
15342643
9603382
15112826
9611256
9617219
9625728
916350
916351
916353
15243801
15259015
15278233
15255885
15267745
15322560
15250515
15206122
15244339
907575
15334287
15310170
15329904
907800
9602687
15375199
15356652
15341357
9607221
9609877
15349577
9611117
9623467
15329789
9642934
9612344
9611744
9603961
9617554
908859
15376443
910233
910379
911179
916362
9568446
15292783
15270216
15301837
9586159
15241026
15283329
906904
15243757
9592592
15308007
9592560
15238091
15237903
9598982
9597034
15254491
9598201
9599021
9601952
9605430
9601120
9603104
9596498
9605024
9606298
9598110
9609501
9610738
9616706
15307405
15321614
9608519
15254551
9618012
9603081
15361875
909771
910779
916382
916384
15152612
15135963
15247130
15217831
15312546
15281952
9583452
9581690
9585192
15135463
15238502
9580322
9593534
15314579
15289530
15162534
15297746
15274158
15318315
15324118
9600407
9629117
9598124
15329242
907273
15343535
9601412
9600225
15255566
15333874
9611432
9598156
9608368
15347040
9610060
9611542
9616635
9617453
9604145
9629900
9615778
9621617
15343794
15221564
909692
14947198
15281941
916398
916399
916400
15266188
15261556
9568251
15220339
15291867
15283153
15332919
15307394
15257109
9590639
15181753
15324337
15324271
15317865
15323465
9599759
9601943
15249265
9599982
15291165
9599094
9600793
9611025
9603895
9603450
9609529
9603529
9622300
9607064
9603091
9604786
9612464
9613295
9605246
9609991
908951
9611826
9609119
909288
916406
916407
916410
15234853
15213516
9571161
15192555
15270147
15253387
15164728
9572301
9587141
9585189
9584588
15216262
15345311
15320687
15300810
15325896
15315175
907799
9604108
9592646
9594728
9607410
15346099
15316632
9608596
908168
9608398
15286862
9615449
9607167
908768
9616353
15372976
9618836
9612104
9615805
15390431
9574885
9616461
910339
910748
911177
911365
916426
15184421
15276948
15218154
15302675
15216955
15301061
9584241
15297072
15202487
15316459
9595125
15311715
15288772
9585940
15218756
9581911
15302763
15340483
15330823
9599586
9601337
9598632
9605440
9601837
9606010
9577207
15334262
15199842
15366099
9601232
15347319
9593738
9605436
9604466
15178239
15250806
9606293
15278144
9607666
9612683
9616260
9615950
15158160
9613795
15076147
15288267
9620254
9614264
9617123
15362800
9624529
910168
910722
911077
916439
15165971
15251463
15276874
15324095
9587948
15298395
15327287
15295541
9596674
9596654
9595271
907216
9592212
15328325
9592403
9596055
15313602
15324099
9595488
15334564
15268010
9602903
15324388
15261819
15337901
9629898
15300857
9603664
15336126
15382932
9584201
9606996
9604000
9607745
9605021
9610288
9613604
15202314
9600026
9610946
9605903
9612395
9616705
15265857
9614199
9622031
9617701
9617492
9620270
916449
15261323
9574061
15255570
15280247
15304024
15261178
15209356
9592775
15327706
15335207
15333985
15300695
9597664
9604497
15335211
9597618
15325156
9604427
9607820
9610512
9608338
9606790
9608367
9601903
9636898
9609218
15337068
9606478
9609599
9606280
909009
15100169
909287
909348
15397902
904873
15374986
909839
910927
9569231
15292473
9587113
9588123
15337900
9597417
9593183
9596051
15324108
15303688
907592
9591487
9601529
15336763
9606979
9602317
9606491
9598172
9606284
9610320
9608660
9609963
9614547
9615364
9611179
15314817
909344
910672
911296
911614
916478
916481
916482
15274529
15283154
9575283
15215099
9581300
15305250
15312018
15317065
15153097
15327070
15325572
9597467
9597638
15312688
15390439
9595083
9601739
15261829
15339227
9596065
9635725
9607591
9607988
908084
9601010
9611600
9604275
9602104
9607012
9608523
9612392
15344794
9608311
9603128
9606506
9604091
9609149
9614255
15356827
15353641
9616742
9612496
9616600
9640208
9611814
15304331
909637
911700
916500
15277948
15289987
15268997
15305885
15334156
9590067
15271131
15313329
15337894
15256820
9596698
15309239
9596834
9606792
15313907
15323767
15201694
15217559
9602156
9607000
9606263
9610670
15203681
9605017
9611132
9614716
9609542
9612488
9609004
9608142
9617576
9614168
9615020
9618730
15326788
9618311
9619681
9613106
9615936
910284
916515
15223721
15288009
15274511
15284728
15294653
905605
9583844
15228578
9592202
15333998
907511
9555598
9635144
15306636
15274500
15205156
15263958
15289661
9634954
15356375
9614378
9602689
9607982
9611430
9605865
9609221
9619029
9617652
9616549
9621857
9621034
916529
916533
9565117
15229351
15303736
9578231
15308963
15282219
9619186
15297740
9593342
15326207
9587970
15227737
15337592
9593341
9594009
15269841
15244627
15252581
15167194
9606205
9608510
9629122
15393506
15336471
15351461
9605225
14965425
15319454
15324432
9638831
9604301
15272864
9613196
9616654
15348273
9609787
9612806
908840
9618157
9613044
9618187
9606165
9615347
9616148
9611896
9647784
909331
9620616
15290228
907324
909886
911721
916546
916547
916549
916551
15277926
15162652
15297414
9593710
15298639
15291808
15313314
15272080
9591035
15303703
9592976
15333335
15339829
9604428
9596735
9608715
9601161
15346093
9606444
9599374
9605862
908750
9610531
9610386
9617277
9617326
9597882
9618555
9611535
9646230
15351136
9614825
9619830
9614110
15331135
9615395
9614401
909276
9625941
9623794
15336013
9622998
911472
916563
9575262
15242527
15055610
9586358
15249851
15321647
15311395
15372987
15291162
15315161
9587122
9605391
15316783
9599548
9599566
15215132
9598095
9605840
15346385
15107286
9592978
9600027
9597441
9604307
15334905
15286347
9598805
15310642
9600306
9601768
9608865
15307978
9616866
9614233
15338638
9613911
9612032
15231739
9607558
15256366
9616550
9638825
9618648
9606962
15338315
9647988
9614351
9641568
9614478
9611684
9614929
15308586
9614328
9621639
15176198
909783
909887
909923
916573
15292790
15306789
9579336
15314246
15175851
9584191
15249233
15304039
15325895
9631050
9598646
15283985
15336145
15340797
15361064
9606002
15351967
9598229
9608748
15394453
15186267
9600424
9609313
9607758
9639619
9601395
9606101
9623455
9609343
9603180
9601069
9609410
9612907
908984
15372983
9608414
9621739
9620092
9618933
15361532
909600
910070
910763
9541992
911545
9480183
15033836
15255896
15241828
14993394
15228071
9577992
15271459
15313326
9585238
15301166
9584253
9588499
15328968
15348772
15298243
9597544
15327116
15332093
9594805
9593378
15324702
15331791
9607561
9599990
9598414
9603526
9605020
15287514
15337685
9552896
15359162
9597276
9595310
9598048
9612075
15332341
9606272
15178851
9607234
9610673
9612479
9610649
9610960
9611425
9613483
9617692
9603953
9613492
15350233
9615163
9616051
9648181
15373629
9632812
15386038
15290572
910102
911242
15291188
15286914
15297726
15280600
15290248
15223324
15260807
9589667
15226490
9590231
9590309
15319792
15327118
15331444
15307732
15324566
9598059
9594905
9600736
9600371
15382320
9606383
9591547
9601822
9600206
9608321
9596083
9612107
9606637
9610664
15286943
9608951
9609605
9603317
9612801
15350536
9609701
9642744
15360733
9606480
15319066
15294307
15332632
9614442
9615729
9613205
9616951
9612250
9613613
9619560
15330506
9616526
9618907
9616198
15311264
15359574
916617
916619
916620
916622
916625
15198718
9575858
15360426
15327897
15109379
15226813
9585589
9587507
907036
15327123
9601710
15271724
9599183
15196277
9573300
9596842
15114273
9605221
15308967
15250120
9610925
9602374
15397905
9590663
15276069
15318603
9609898
908425
15220008
9613458
9617293
15247087
9610291
9614415
9644295
9609504
9617659
9612417
9613466
9616344
15351463
909027
9612449
15363136
9615910
9614056
9625899
15339403
15348743
910031
910541
916645
916646
916647
15273917
15290608
15278714
9577625
15309285
15273883
9588101
9585766
905604
15284283
15353506
9590840
9587502
15301536
9593590
15324113
15080568
15312662
9598988
15313163
9592257
9599647
9598418
15343250
15333350
9602545
15309254
15255144
9601191
9605621
15306114
15330197
9611031
15342311
9608197
9609141
15329214
9599836
9612484
9603346
9609177
9605760
9614260
9609992
9613632
9614444
9608998
9620688
15352261
9616360
9620871
9622609
15349235
9621611
9618928
910250
15259602
911102
916661
14989123
9568091
15273332
15031668
15260173
9591645
15335488
9592864
9597265
9601156
15289948
15327346
9605829
9607039
9614165
15268404
9610449
9605258
9609715
9611910
9612244
9615398
9610761
9616938
9618824
9605678
9617270
9617536
9618427
15330762
9624548
910081
15270489
903753
916672
15254828
15159724
15298389
15306200
906421
9591209
9595076
9589860
9577200
15324992
15291806
15326806
15140591
15198755
9597065
9596497
15337712
15344176
15265863
15120807
9603659
9606627
15331321
9604566
9609330
9606038
9608698
9612298
15345733
9609028
9604686
9613572
908586
15348568
9612516
9612060
9609799
9614033
9614404
15343827
15269768
15403492
9617062
9615758
9613049
15332370
9610678
9611659
15359917
9615929
9621833
9618290
9614005
9629124
9636511
9624439
9622922
909768
15389563
9573127
910942
910943
9583052
911190
911629
911685
911686
916685
916688
15170761
15092303
9569238
15291839
15181181
15242555
9580112
15245226
15281269
15322853
9595868
15308323
15288731
9595273
15366719
9588300
15328641
15320086
9596641
15374569
9598620
9607349
15080920
15233705
9601754