/*--------------------------------*- C++ -*----------------------------------*\
| =========                 |                                                 |
| \\      /  F ield         | OpenFOAM: The Open Source CFD Toolbox           |
|  \\    /   O peration     | Version:  v1706                                 |
|   \\  /    A nd           | Web:      www.OpenFOAM.com                      |
|    \\/     M anipulation  |                                                 |
\*---------------------------------------------------------------------------*/
FoamFile
{
    version     2.0;
    format      ascii;
    class       labelField;
    location    "0.55/lagrangian/dsmc";
    object      origId;
}
// * * * * * * * * * * * * * * * * * * * * * * * * * * * * * * * * * * * * * //


97375
(
557397
1261981
1305005
1731366
1971107
2010448
2249572
2356249
2585726
2696413
2710252
2740733
3140227
3172084
3197730
3337150
3344769
3349396
3407841
3420582
3472077
3565174
3577474
3579606
3585927
3599193
3599617
3621717
3625677
3626079
3653776
3682537
3710684
3712804
3835506
3843452
3865303
3876165
3918202
3927452
3929804
3966498
4002061
4019957
4084938
4087601
4109511
4113132
4134132
4138786
4144549
4154382
4162501
4231320
4246460
4260577
4270010
4271721
4297677
4332863
4337291
4394070
4395570
4418766
4426383
4457832
4465162
4477764
4486942
4495951
4506208
4532717
4539487
4545982
4547161
4569380
4585605
4593648
4595249
4604112
4617422
4621334
4624893
4627741
4641174
4644576
4650513
4652006
4658243
4671651
4676610
4687272
4690093
4697265
4705698
4706099
4719971
4725271
4731195
4735883
4737127
4756862
4764899
4771048
4777925
4787622
4789083
4819033
4824578
4830001
4851458
4854820
4855006
4873044
4899330
4902343
4902907
4903357
4925916
4931051
4931168
4934184
4937318
4945726
4947161
4952247
4970961
4973436
4976532
4977066
4982713
4983787
4984076
4992829
4996178
4998861
5002081
5011701
5012153
5022811
5030047
5033341
5041986
5045042
5051387
5058496
5060366
5076481
5080980
5081523
5081768
5083753
5089233
5090540
5094301
5101717
5106576
5107921
5111742
5113068
5121082
5122741
5123974
5125795
5128759
5133676
5138195
5138850
5153523
5173695
5179688
5184241
5187143
5188048
5189473
5192095
5204526
5204596
5208635
5209102
5214818
5236112
5238261
5242518
5242952
5243843
5265006
5265933
5271369
5272682
5279465
5279889
5281422
5284737
5288201
5289879
5298712
5299526
5304997
5308091
5309959
5310035
5310695
5314502
5318943
5319102
5335121
5336398
5340671
5342263
5344625
5345878
5353503
5359772
5375623
5379634
5382496
5385506
5386322
5387852
5390090
5410963
5414951
5416506
5421348
5421462
5425274
5427861
5428092
5428573
5429322
5430356
5435501
5436234
5439269
5442421
5455054
5455854
5457447
5458110
5458834
5460605
5461096
5466934
5477054
5483900
5484263
5486732
5490636
5501693
5502550
5503222
5508561
5515005
5518102
5520158
5524092
5526032
5527677
5529266
5533043
5535713
5536251
5541731
5541784
5542781
5543583
5545993
5547893
5556284
5556389
5560376
5567229
5574724
5574765
5574856
5577137
5577567
5577866
5579596
5580630
5584552
5585432
5585720
5597509
5598965
5601470
5605059
5610034
5612121
5614328
5614707
5620403
5626679
5628274
5631357
5631699
5635898
5639325
5639801
5642100
5642488
5642727
5643189
5646853
5654863
5655029
5656045
5659045
5659449
5664046
5677588
5677966
5680844
5681219
5681883
5685618
5687791
5688789
5690257
5691610
5692932
5693584
5693821
5694615
5697917
5702192
5714213
5714582
5717563
5730827
5732645
5732709
5739485
5740864
5742299
5751969
5752566
5757957
5761667
5763301
5767969
5777851
5790466
5790630
5794837
5796372
5797433
5806536
5809004
5818391
5818602
5818845
5819866
5822747
5828266
5831576
5831742
5832986
5833708
5839399
5840273
5841577
5843223
5844819
5847838
5854973
5855538
5857921
5858099
5861261
5863352
5865373
5867269
5872587
5875491
5877254
5878814
5881768
5885032
5886695
5891632
5901783
5904965
5911069
5913595
5914246
5921380
5922285
5925794
5926007
5928367
5931191
5933250
5938925
5940431
5943095
5944024
5946073
5956357
5957987
5958480
5959588
5961262
5961624
5965045
5968469
5968660
5971273
5971944
5978800
5984018
5985849
5986233
5992318
5996851
6000094
6000471
6001097
6002408
6004566
6006385
6008504
6009706
6012615
6013234
6026127
6028084
6029217
6030147
6030378
6031351
6031832
6033886
6034272
6034330
6035568
6038605
6038609
6045772
6046476
6047508
6048174
6052110
6052819
6052821
6052934
6053780
6054121
6056778
6061040
6062576
6066593
6069709
6070650
6071524
6072441
6076069
6077962
6082964
6085473
6089184
6091204
6091758
6096544
6098106
6098232
6099108
6099723
6101216
6106753
6108667
6108703
6108775
6110447
6112666
6113255
6114134
6118202
6123080
6123460
6129472
6129512
6129644
6131207
6132020
6132389
6133303
6134856
6135788
6137162
6143614
6143832
6144563
6145434
6146797
6147084
6148221
6148782
6149111
6149137
6149793
6149884
6150322
6152412
6156306
6156847
6157541
6160063
6162014
6164925
6165586
6166245
6168703
6169009
6171030
6174872
6175827
6176582
6177484
6178177
6179909
6180250
6180948
6183394
6184473
6186802
6186811
6188816
6190604
6191589
6191714
6191899
6192160
6193760
6193845
6194764
6194936
6202253
6206654
6206693
6207528
6207958
6207964
6209558
6209627
6210388
6213800
6215012
6216176
6217918
6218404
6218891
6221326
6221664
6224065
6227436
6228682
6228984
6230057
6232468
6233275
6233537
6235152
6238475
6238514
6240156
6242825
6245518
6250753
6250791
6250861
6251815
6252262
6252654
6253384
6254981
6254998
6259007
6259416
6260454
6261243
6261672
6261705
6263390
6266894
6267018
6267891
6268662
6271110
6271253
6273534
6279838
6280164
6281282
6282880
6283629
6283990
6286087
6287017
6288420
6289595
6290177
6294186
6295535
6297661
6298537
6299630
6301615
6305444
6305482
6306664
6307951
6308128
6309444
6309517
6309740
6311670
6311988
6316236
6316343
6317344
6317496
6320530
6321178
6322959
6325050
6330900
6331291
6338209
6339637
6340275
6340449
6341148
6343087
6344082
6346531
6346665
6346678
6346763
6347457
6349849
6350191
6351498
6352512
6353192
6356197
6357351
6358538
6359526
6361914
6362288
6362304
6362790
6365581
6367662
6371558
6372742
6373204
6374309
6374913
6375299
6375532
6375748
6377629
6380503
6381717
6381984
6389240
6390074
6390167
6391638
6396539
6398020
6399831
6400374
6402025
6402250
6402850
6403231
6404677
6406263
6406378
6408139
6409081
6410199
6410619
6411553
6411603
6414274
6414314
6414877
6416497
6420627
6424174
6425840
6426456
6426820
6428889
6429180
6429365
6429446
6429506
6430981
6432138
6432492
6432676
6433568
6434478
6435455
6436707
6437052
6438390
6439135
6444088
6444625
6446321
6449231
6450678
6450978
6456471
6457917
6458508
6459798
6460044
6463062
6463268
6466410
6466756
6467503
6470352
6471279
6472057
6472369
6474117
6475758
6476050
6478234
6478289
6478674
6478857
6479731
6481308
6481461
6482849
6483300
6483422
6483674
6483858
6484138
6484245
6484607
6484934
6485430
6486363
6487375
6487974
6489980
6491195
6492390
6492801
6493695
6493761
6494812
6497618
6498024
6498762
6498966
6499336
6502380
6504214
6504301
6504678
6506098
6506119
6506772
6507295
6507593
6508093
6508223
6508371
6513506
6514557
6515343
6516136
6516402
6516750
6516853
6517659
6518194
6519856
6523137
6523798
6524946
6525727
6526924
6529085
6529576
6530015
6530382
6531263
6531637
6532855
6532939
6533248
6533897
6533954
6534795
6536281
6538634
6539521
6543835
6544130
6547596
6548833
6549277
6549512
6550017
6550459
6550760
6551330
6551629
6552206
6553350
6554150
6554891
6555183
6556776
6558074
6558191
6561264
6561797
6562855
6563559
6563887
6567759
6569441
6569673
6570129
6571413
6571826
6574553
6578797
6578922
6581550
6583578
6584978
6585077
6586193
6590301
6590488
6591338
6591820
6592091
6592161
6593509
6593583
6593973
6595242
6597181
6597593
6598269
6598352
6599459
6599598
6599654
6599986
6601747
6601935
6602363
6603716
6604801
6605065
6605324
6605636
6607653
6607981
6608783
6609491
6610575
6611675
6612365
6612518
6613468
6613654
6614195
6614213
6614325
6616198
6616251
6616561
6617523
6617876
6618312
6619785
6620381
6623412
6624808
6627672
6628559
6628904
6629390
6629592
6632709
6633919
6635779
6635850
6636479
6638813
6639413
6639602
6640799
6641336
6644323
6644813
6645807
6648565
6648986
6650521
6650724
6650793
6651989
6652997
6653192
6653810
6654023
6654272
6654411
6656088
6656129
6656388
6656466
6657569
6658094
6658225
6658855
6659745
6660163
6661197
6661340
6661569
6661618
6662393
6662503
6662797
6662825
6662917
6665756
6666373
6666974
6668275
6669815
6670846
6671213
6673130
6673187
6674713
6675195
6675447
6676915
6677061
6677417
6677484
6678645
6685068
6686237
6686644
6688883
6689098
6691643
6692889
6692993
6693134
6693655
6695414
6698276
6698407
6699470
6699805
6700233
6702445
6703349
6703447
6703958
6706154
6708974
6709280
6709336
6709907
6709951
6710132
6710937
6714421
6714871
6715208
6715619
6715677
6717103
6718535
6718890
6719294
6720337
6721024
6722320
6723271
6723994
6725948
6726553
6727730
6728208
6730020
6731078
6731100
6731910
6733929
6734705
6734829
6734985
6736421
6739991
6742096
6743201
6743215
6743327
6747838
6748217
6748315
6749485
6751735
6752195
6752353
6752536
6755076
6755453
6756852
6757316
6758846
6760570
6760915
6763457
6763542
6764764
6765509
6765812
6767689
6768817
6768829
6769015
6769520
6769533
6769632
6770889
6771116
6771454
6772096
6774574
6774718
6775001
6776072
6776228
6776965
6777182
6777328
6778439
6779139
6779925
6780031
6780566
6781333
6782865
6783437
6783559
6783791
6785569
6785858
6785904
6786167
6786787
6787193
6787266
6788801
6789850
6791102
6792245
6792737
6793099
6793844
6796029
6796276
6796411
6796729
6796778
6797057
6797254
6797557
6797663
6799059
6799270
6802679
6802759
6804394
6804832
6805112
6805285
6805660
6806082
6806402
6806664
6808014
6809927
6810978
6811244
6811611
6811823
6813430
6813585
6814305
6816030
6816978
6817091
6818010
6819162
6819407
6819938
6820110
6822711
6824132
6824468
6824643
6824932
6825742
6827608
6828752
6830414
6830971
6831884
6832010
6832942
6833633
6833783
6833940
6834104
6834364
6835271
6835316
6837033
6837136
6838752
6839097
6839152
6839678
6839737
6840449
6841224
6841503
6841739
6842585
6843718
6843907
6843913
6844124
6844126
6844996
6846569
6847248
6847736
6848536
6850969
6852093
6853527
6854446
6855487
6858099
6858436
6859410
6859590
6860267
6860402
6860585
6860777
6861718
6861720
6862001
6865970
6866041
6866523
6867116
6868327
6868454
6868952
6869072
6870500
6870749
6871536
6873434
6874002
6874122
6874245
6875053
6875088
6875232
6876117
6876157
6877836
6878436
6879651
6881339
6881406
6882125
6883753
6883815
6884165
6885543
6885772
6886335
6886388
6886990
6887419
6887583
6887599
6890445
6890797
6891573
6891725
6891928
6892269
6892852
6893123
6893289
6894642
6895083
6895499
6895514
6895829
6896101
6896850
6898517
6899954
6900086
6900197
6900567
6901191
6901273
6902016
6903922
6904172
6904286
6905236
6905397
6905790
6906190
6906218
6907009
6907407
6907885
6908512
6908648
6909039
6909523
6910046
6910573
6912462
6912713
6912814
6913038
6913790
6914572
6914691
6915173
6915220
6916085
6916667
6917341
6918435
6918822
6919166
6920075
6920263
6920530
6920645
6922930
6923462
6923978
6925443
6927730
6928346
6928435
6928491
6928536
6929224
6929250
6929783
6931879
6932151
6932557
6933720
6933723
6934129
6934220
6934463
6934556
6934822
6935394
6936885
6937859
6938813
6939179
6939509
6941023
6942298
6942360
6942600
6944152
6945624
6947173
6947378
6947451
6949248
6949302
6950072
6951169
6951658
6951698
6952396
6952908
6954776
6954813
6954978
6956169
6956297
6957292
6957479
6958067
6959005
6959575
6960357
6960660
6960686
6960911
6962079
6962404
6962458
6963188
6963355
6963680
6964138
6964611
6965129
6965612
6965787
6966178
6966706
6966887
6967302
6967470
6968005
6968052
6969166
6969791
6970339
6971067
6971889
6972236
6972248
6972568
6973031
6973956
6974341
6975257
6975802
6976849
6977989
6979117
6980022
6980410
6983080
6983230
6983308
6983923
6983932
6985479
6985646
6986199
6986739
6987131
6987747
6987751
6988781
6989818
6990788
6991083
6991156
6992797
6993478
6994271
6994789
6995103
6995950
6996508
6996855
6997139
6997182
6998187
6998440
6998934
6999076
6999191
6999375
6999895
7000314
7000319
7001819
7002723
7003481
7004189
7004964
7005455
7006600
7007435
7007823
7008461
7008482
7008604
7008663
7009952
7010583
7011288
7011444
7011801
7014445
7015025
7015719
7016140
7016800
7017252
7017473
7018769
7018829
7018900
7019668
7019886
7019896
7020055
7022176
7023403
7024418
7024489
7024554
7024764
7026537
7026662
7027036
7027409
7027683
7027787
7028131
7028363
7028686
7028909
7029332
7029507
7029660
7029895
7030399
7030661
7030710
7030789
7030794
7031146
7031995
7032066
7032190
7032847
7033619
7034183
7034387
7034835
7035128
7035145
7035386
7035591
7036680
7037459
7037468
7038796
7039070
7039704
7040769
7041268
7042279
7043434
7044008
7044030
7045263
7045271
7045825
7047245
7048494
7049488
7050427
7051241
7051532
7052185
7052407
7052826
7053737
7054208
7055989
7056067
7056439
7056853
7057653
7058216
7058370
7058593
7059554
7059627
7059751
7059862
7060273
7060548
7060829
7061093
7062135
7064750
7065902
7066051
7066194
7067412
7068010
7068106
7068817
7069503
7071376
7071377
7071501
7071831
7072313
7073046
7073135
7073948
7074415
7074868
7075399
7075480
7075912
7077837
7078102
7078604
7079171
7079959
7081015
7081097
7081525
7081731
7081950
7082284
7082565
7083719
7084861
7086029
7086446
7086866
7086964
7089223
7089386
7090251
7090550
7091027
7091595
7091930
7092628
7092824
7093554
7093657
7093984
7094000
7094997
7095287
7096056
7096372
7096881
7097762
7098454
7098560
7098628
7098638
7098658
7099335
7101355
7101457
7102139
7102149
7102316
7102650
7103933
7104285
7104458
7104512
7104826
7105431
7106558
7106765
7106779
7106860
7107679
7107701
7108831
7109761
7110417
7111318
7111560
7111993
7112101
7113481
7115876
7116744
7117058
7117717
7118652
7118797
7118979
7119355
7119456
7119591
7119660
7119870
7120029
7122024
7122446
7122572
7124062
7124110
7124914
7124977
7126407
7126666
7126720
7127016
7128427
7128633
7128688
7128864
7129203
7129880
7131499
7131980
7132085
7132809
7133404
7134255
7134308
7134378
7134448
7135086
7135302
7135611
7135908
7137006
7137953
7138334
7138737
7138891
7139644
7139833
7139873
7139930
7140012
7140084
7140443
7140626
7141482
7141528
7141934
7142297
7143518
7143895
7144625
7144667
7144989
7145018
7145175
7145487
7145900
7145908
7146291
7146321
7146684
7147257
7147456
7147779
7147951
7148506
7148686
7149205
7149477
7149544
7150370
7150790
7151477
7151637
7152307
7152400
7152522
7152531
7153540
7154197
7154364
7154657
7154685
7155583
7155648
7155863
7155945
7155969
7156479
7156722
7158349
7158671
7159405
7159811
7160031
7160704
7160761
7161793
7161892
7162294
7162746
7164306
7164607
7164661
7164805
7166361
7166977
7167199
7167299
7167666
7168455
7168489
7169634
7171050
7171136
7171306
7171412
7171830
7172242
7172313
7172417
7172594
7172862
7173070
7173656
7173974
7175111
7175224
7176988
7177263
7177400
7178788
7179043
7180642
7181431
7181962
7182400
7182503
7182998
7183166
7183299
7183446
7183757
7183791
7183839
7183853
7185045
7185071
7185217
7185551
7185617
7185919
7186736
7186786
7188447
7188548
7188624
7188781
7189108
7189230
7189374
7190014
7190320
7190792
7190966
7191389
7191469
7191643
7192389
7192548
7192597
7193075
7193299
7193614
7193865
7194717
7195610
7196102
7196175
7196406
7196428
7196865
7197008
7197140
7197490
7197546
7197618
7198631
7199422
7199929
7200148
7200733
7200944
7201164
7201263
7203221
7203344
7203473
7204806
7205128
7206375
7207038
7207290
7207343
7207712
7207898
7208907
7209247
7209984
7210150
7210460
7210797
7211860
7212495
7212824
7213633
7213999
7215030
7215632
7215719
7215887
7216234
7216262
7216654
7217190
7217260
7217602
7218137
7218324
7219492
7219823
7220296
7220335
7221225
7221795
7222861
7222941
7222947
7223583
7224502
7224865
7225114
7225680
7225733
7226452
7226931
7226987
7228020
7228416
7228621
7228851
7229435
7229565
7229570
7230369
7230514
7230697
7230988
7231361
7231756
7231840
7232063
7233256
7233547
7233944
7233984
7234058
7234938
7235416
7235546
7236040
7236284
7236827
7236958
7237166
7237850
7238330
7239347
7239736
7239947
7240047
7240072
7240182
7240262
7241211
7241351
7241391
7241409
7241757
7242569
7244565
7245565
7245709
7246053
7247145
7247171
7248126
7248264
7248299
7248907
7249212
7249413
7249695
7250377
7250517
7250596
7250653
7251168
7251453
7252087
7252308
7253046
7253893
7254372
7254700
7254962
7255279
7255724
7255907
7256368
7256848
7257753
7258302
7258510
7259049
7259487
7260194
7260978
7261305
7262432
7263084
7263695
7263862
7264566
7264897
7265037
7265180
7265675
7266625
7267434
7268155
7268918
7269445
7269597
7270041
7271165
7271364
7271455
7272050
7272081
7272534
7273112
7273332
7273524
7273580
7273948
7276318
7276351
7276711
7276788
7277012
7277598
7277797
7278066
7279137
7279583
7279691
7280179
7280426
7280682
7284096
7285171
7285292
7285589
7285643
7286174
7286382
7286448
7286814
7286888
7287087
7287614
7287753
7287946
7289124
7289411
7289461
7289901
7290207
7290513
7290864
7292408
7292989
7293970
7294536
7295192
7295816
7296083
7296661
7297220
7297670
7298198
7298664
7298737
7299736
7300154
7300777
7301066
7301325
7301375
7301439
7301669
7301796
7301918
7302211
7302765
7303119
7303592
7303938
7304427
7304564
7304798
7305084
7305299
7305321
7305597
7305779
7307066
7307502
7308250
7308251
7308409
7308501
7309097
7309150
7309220
7309385
7309473
7309534
7309861
7310053
7311295
7311344
7311456
7311682
7312669
7313033
7313479
7314087
7314112
7314222
7314433
7315321
7315612
7315748
7316393
7317296
7317499
7318045
7318433
7319317
7319355
7319993
7321303
7321352
7321469
7321470
7322304
7322451
7322467
7322542
7322706
7323606
7323916
7324353
7324370
7324593
7324666
7324871
7324972
7325402
7325506
7326110
7327083
7327193
7327349
7327647
7328333
7328380
7328487
7328774
7328934
7329018
7329218
7329782
7329916
7330452
7331095
7332110
7332371
7332833
7332989
7333039
7333390
7333869
7333997
7334239
7335594
7336034
7336180
7336278
7336376
7336579
7336843
7337961
7337976
7338022
7338062
7338333
7339021
7339141
7339832
7339959
7340147
7340766
7341517
7341983
7342236
7343134
7344391
7344674
7346304
7346353
7347153
7347281
7347296
7347674
7348973
7350223
7350434
7350724
7350965
7352819
7354055
7354318
7354394
7355188
7355393
7355660
7355988
7356727
7356965
7357804
7358908
7359178
7359415
7359582
7359913
7359934
7360080
7360386
7360904
7361578
7361951
7361957
7362345
7362660
7363024
7363339
7363362
7363609
7363869
7364261
7364642
7365054
7365321
7365396
7365596
7366072
7366370
7367468
7367722
7368138
7368580
7368626
7369020
7369667
7369819
7369917
7370264
7371259
7371988
7372289
7374362
7375160
7375168
7375363
7375456
7375780
7375964
7376119
7376132
7377153
7377355
7378735
7378753
7378870
7379337
7379380
7379543
7380026
7380214
7380790
7381245
7381432
7382093
7382314
7382453
7382493
7382839
7383117
7383607
7383666
7384286
7384968
7385164
7385740
7386490
7386703
7387561
7387664
7388556
7388712
7389107
7389252
7389278
7389327
7390455
7390561
7391649
7391960
7392011
7393420
7393686
7393896
7394376
7394550
7394687
7395190
7395423
7395427
7395506
7395831
7395971
7396252
7396505
7396924
7397423
7397541
7398029
7398208
7398274
7398920
7399001
7399260
7399368
7400346
7401141
7401605
7401701
7401905
7402011
7402408
7402550
7402766
7403054
7403936
7404021
7404131
7404137
7404334
7404544
7404864
7404929
7405005
7405038
7405117
7405774
7406352
7406650
7406738
7406849
7407148
7407979
7408187
7409284
7409942
7409997
7410560
7410638
7410966
7411107
7411182
7411476
7411740
7412212
7412452
7413654
7413756
7413934
7415196
7415371
7415575
7415710
7415859
7416766
7417273
7417922
7418564
7418778
7419453
7419710
7420061
7420814
7421028
7421749
7421765
7422066
7422092
7423254
7423384
7424168
7424964
7425473
7425857
7425945
7426329
7426555
7426561
7426702
7427029
7427320
7427404
7427478
7427857
7427952
7428033
7428190
7428594
7428772
7429933
7430381
7430403
7431119
7431268
7431479
7432194
7432213
7432355
7432639
7432883
7433098
7433420
7433739
7434193
7434844
7435485
7435661
7435748
7436231
7436473
7436571
7437039
7438329
7438359
7438642
7439018
7439074
7439949
7440259
7440929
7441186
7441204
7441342
7441467
7441677
7441985
7442213
7442299
7442564
7442885
7443032
7443050
7443609
7444068
7444113
7444318
7444738
7445001
7445601
7445973
7446924
7447449
7447795
7448533
7448814
7449247
7449567
7449978
7450186
7450359
7450433
7450491
7451407
7453614
7453763
7453999
7454519
7455324
7455720
7455796
7456407
7457499
7457681
7458180
7458359
7459647
7459826
7460054
7460271
7460468
7460508
7460531
7460846
7461348
7461811
7462419
7463850
7463858
7464045
7464408
7464712
7465035
7465303
7465893
7466053
7466094
7466642
7466853
7467281
7467724
7467795
7468531
7468662
7468919
7469353
7469630
7469743
7469764
7470575
7470808
7471540
7471651
7471774
7471887
7472106
7472537
7472735
7473091
7473416
7474669
7474914
7475627
7475896
7476908
7476943
7476965
7477775
7477784
7478675
7478854
7478866
7479614
7479718
7479779
7479985
7480431
7480510
7480848
7481005
7482108
7482141
7482239
7482401
7482527
7482864
7482884
7482993
7483647
7483768
7483968
7484526
7484577
7484915
7485015
7485287
7485522
7485775
7486413
7486422
7486514
7486705
7486914
7487168
7487369
7487598
7487702
7487875
7488732
7489106
7489142
7489368
7489423
7489526
7489599
7489617
7490231
7490238
7490244
7490382
7490695
7491258
7491363
7492758
7493536
7494002
7494255
7494285
7494427
7495376
7495698
7495721
7496145
7496156
7496241
7496605
7496867
7496891
7497661
7497944
7498315
7498586
7499020
7499274
7499870
7500120
7500156
7500354
7500519
7500657
7500738
7500916
7501048
7501060
7501162
7501341
7502096
7502303
7502731
7503017
7503030
7503189
7503225
7503567
7503636
7503641
7503778
7503919
7503999
7504816
7505314
7505871
7507486
7507523
7507542
7507747
7508227
7508333
7508485
7509426
7509760
7510191
7510469
7510871
7512261
7513110
7513479
7513841
7516736
7518145
7518435
7518647
7518657
7519258
7519283
7519564
7520179
7520269
7520886
7521190
7521205
7521268
7521376
7521490
7521728
7522017
7523279
7523306
7523660
7524304
7524345
7525091
7525543
7525629
7525684
7526350
7526618
7526797
7527298
7527754
7528221
7528643
7529423
7529464
7529479
7529739
7530931
7530965
7530999
7531371
7531477
7532525
7533076
7534213
7534234
7534257
7534797
7535364
7535875
7536240
7536648
7536738
7537573
7537872
7537975
7538050
7538477
7538673
7538712
7539263
7539604
7539629
7540793
7540980
7541008
7541120
7541419
7541953
7542003
7542040
7542284
7542342
7542398
7542507
7542646
7542756
7542785
7542804
7543144
7543147
7543214
7544229
7545297
7546280
7546505
7546542
7546565
7546633
7546709
7546803
7546829
7546964
7547187
7547269
7547375
7547536
7547838
7548112
7548140
7548527
7548667
7549333
7550252
7550928
7551398
7551843
7551853
7552044
7552267
7553142
7553841
7553902
7554509
7554579
7554747
7554756
7555345
7555406
7555416
7555483
7556307
7556461
7556515
7556921
7557533
7557740
7557794
7558207
7558438
7558481
7558973
7558992
7559244
7559547
7559761
7561462
7561785
7562160
7562566
7562663
7563059
7563634
7563786
7563989
7564039
7564161
7564716
7564794
7564840
7564864
7564908
7565122
7565133
7565150
7565165
7565608
7565826
7565915
7565980
7566280
7566394
7566417
7566530
7567088
7567248
7567292
7567798
7568102
7568256
7568274
7568693
7568763
7569253
7569522
7570069
7570637
7571962
7572091
7572232
7573797
7573868
7574130
7574170
7575407
7575780
7576097
7576191
7576253
7577064
7577269
7578102
7578112
7578445
7578504
7578686
7579033
7579235
7579417
7580060
7580209
7580225
7580320
7580351
7581185
7581303
7581814
7582451
7582472
7582538
7582760
7583192
7583297
7583346
7583428
7583440
7584360
7584397
7584859
7585461
7585479
7585853
7586021
7586465
7586716
7587173
7587193
7587333
7587412
7587953
7588172
7588756
7588820
7589055
7589399
7589696
7590276
7591251
7591771
7592428
7593229
7593264
7593804
7594407
7595078
7597029
7597064
7597277
7597332
7597781
7598089
7598327
7598756
7598817
7599117
7599250
7599400
7599424
7599706
7599708
7600204
7600561
7600744
7601213
7601606
7602984
7604472
7604951
7605825
7606292
7606775
7607021
7607372
7607700
7607804
7608004
7608176
7608564
7608593
7608927
7609663
7609672
7609807
7610042
7610072
7610186
7610492
7610566
7611184
7611273
7611307
7611517
7612126
7612289
7612476
7612555
7612727
7613136
7613319
7613576
7614193
7614278
7614289
7615336
7615913
7616796
7617172
7617224
7617409
7617415
7617463
7617670
7617693
7617804
7618687
7618800
7618855
7619101
7620259
7620337
7620388
7620760
7621259
7622137
7622152
7622402
7622479
7622582
7623082
7623809
7623999
7624273
7624380
7624844
7625712
7626080
7626368
7626453
7627413
7627580
7627612
7627645
7627768
7628129
7628534
7628576
7628678
7629293
7629505
7629541
7630026
7630044
7630505
7630777
7631251
7631448
7631593
7631618
7631668
7631757
7631918
7632267
7632399
7633561
7633615
7633643
7634358
7635125
7635549
7636146
7636571
7636820
7637418
7637493
7638005
7638009
7638900
7639116
7640081
7640205
7640430
7641148
7641201
7642034
7642310
7642401
7642496
7642787
7643000
7643725
7645051
7645260
7645404
7645596
7645602
7645663
7645797
7645923
7646339
7646413
7646431
7646607
7647170
7647598
7647858
7648339
7648825
7648866
7649671
7649741
7649779
7651641
7652641
7652964
7653304
7654262
7654917
7655239
7655452
7655482
7655774
7655850
7656114
7656290
7656421
7656578
7656911
7656952
7657111
7657187
7657264
7657332
7657371
7657979
7658647
7658948
7660560
7660931
7661028
7661364
7661869
7661952
7661966
7662146
7662179
7662341
7662519
7662566
7662761
7663019
7663447
7663492
7663566
7663765
7663958
7663972
7664041
7664227
7664247
7665222
7665236
7665587
7666155
7666356
7666744
7667600
7667872
7668139
7669028
7669121
7669178
7669244
7669297
7669594
7669849
7669994
7670318
7670349
7670435
7671357
7671496
7671919
7672038
7672268
7672328
7672357
7672607
7672656
7672659
7672733
7673370
7673444
7673520
7673602
7674037
7674042
7674076
7674400
7674460
7674845
7675068
7675303
7675472
7675731
7675781
7675970
7676002
7676103
7676659
7676900
7677373
7677382
7677617
7677638
7677743
7677787
7677849
7677868
7678028
7678076
7678145
7678211
7678231
7678563
7678992
7680090
7680349
7680596
7680730
7680844
7681084
7681160
7681503
7682069
7682213
7682512
7682580
7682830
7682963
7683003
7683099
7683147
7683412
7683766
7683931
7684342
7684764
7684768
7684844
7684940
7685168
7685306
7685355
7685446
7685538
7685691
7685752
7685789
7685867
7686232
7686392
7686396
7686409
7686488
7687020
7687064
7687145
7687322
7687389
7687436
7687539
7687597
7687852
7687878
7687892
7687964
7688322
7688489
7688590
7688619
7688758
7688865
7689054
7689077
7689098
7689115
7689744
7690048
7690270
7690394
7690673
7691472
7691783
7692168
7692264
7692519
7692864
7693430
7693765
7693835
7694361
7694556
7694602
7694787
7695185
7695645
7695821
7695833
7697230
7697300
7697726
7698059
7698100
7698310
7698655
7698808
7698897
7698995
7699228
7699248
7699621
7699877
7700240
7700881
7700939
7700972
7701181
7701455
7701634
7701702
7702253
7702273
7702316
7702429
7702556
7702772
7703032
7703233
7704091
7704291
7704360
7704375
7705207
7705284
7706101
7706190
7706508
7706795
7706848
7707043
7707181
7707450
7707515
7707611
7707676
7707780
7707808
7707858
7708049
7708675
7709317
7709739
7709797
7710676
7710775
7711610
7711695
7711718
7711799
7711849
7711961
7712057
7712250
7712251
7712473
7712628
7712661
7712744
7712827
7713190
7713230
7714250
7714481
7714592
7714774
7715102
7715306
7715528
7716086
7716201
7716484
7717046
7717193
7718219
7718397
7718407
7718700
7719519
7719923
7720192
7720589
7721083
7721282
7721546
7721633
7722135
7722296
7722500
7722546
7722926
7722975
7723181
7723617
7723662
7723670
7723737
7724383
7724680
7724700
7724833
7725057
7725082
7725232
7725814
7726025
7726032
7726261
7726564
7726956
7727004
7727316
7727339
7727740
7727788
7727824
7727949
7728112
7728186
7728194
7728690
7728969
7729748
7729750
7729799
7729897
7729976
7730223
7730310
7730496
7730677
7730726
7731496
7731796
7732108
7732342
7732563
7732644
7732965
7733253
7733672
7733673
7733896
7733908
7733999
7734028
7734256
7734324
7734466
7734468
7734583
7734791
7735237
7735297
7735433
7735885
7736236
7736562
7736799
7736905
7737099
7737211
7737470
7737873
7737995
7738035
7738384
7738777
7738988
7739224
7739421
7739599
7740121
7740230
7740373
7740686
7740868
7741068
7742056
7742082
7742108
7742156
7742839
7742956
7743267
7743411
7743508
7743553
7743724
7744324
7744503
7744682
7744933
7745234
7745582
7745784
7746537
7746843
7747125
7747420
7747475
7747488
7747578
7747697
7748580
7748638
7748761
7748962
7749280
7749684
7749730
7749837
7749854
7749984
7750158
7750879
7750900
7750913
7751037
7751145
7751262
7752092
7752149
7752188
7752282
7752482
7752519
7752720
7752819
7752835
7752867
7753396
7753710
7754484
7754560
7755020
7755244
7755311
7755352
7755666
7755883
7755988
7756608
7756685
7756713
7756868
7756905
7756960
7757054
7757203
7757618
7758285
7758363
7758407
7758475
7758691
7758700
7759153
7759314
7759619
7759636
7759760
7759961
7760087
7760265
7760374
7760508
7761065
7761385
7761386
7761561
7761567
7761630
7761982
7762043
7762049
7762102
7762199
7762229
7762491
7762711
7762874
7762984
7763042
7763224
7763521
7763733
7763995
7764015
7765132
7765243
7765289
7765856
7765975
7766031
7766571
7766855
7766899
7767354
7767559
7767813
7767835
7767918
7768095
7768403
7768415
7768720
7769314
7769520
7769920
7770016
7770307
7770432
7770664
7770687
7770787
7771355
7771454
7771511
7771808
7772024
7772212
7772536
7772575
7772639
7773345
7773445
7773604
7773770
7773811
7773847
7774021
7774066
7774177
7774398
7774515
7774696
7775352
7775370
7775661
7775725
7776235
7776406
7776845
7777237
7777521
7777731
7777768
7777959
7778295
7778435
7778840
7778904
7778972
7779261
7779677
7779836
7779963
7780120
7780332
7780380
7780467
7780639
7781055
7781145
7781343
7781510
7781657
7781818
7782257
7782641
7782693
7783161
7784006
7784088
7784407
7784922
7785200
7785662
7785676
7785902
7786110
7786139
7786420
7786930
7787025
7787071
7787261
7787582
7787611
7787633
7788026
7788347
7788615
7788625
7788872
7788956
7789647
7789828
7790195
7790211
7790742
7790867
7791340
7791649