/*--------------------------------*- C++ -*----------------------------------*\
| =========                 |                                                 |
| \\      /  F ield         | OpenFOAM: The Open Source CFD Toolbox           |
|  \\    /   O peration     | Version:  v1706                                 |
|   \\  /    A nd           | Web:      www.OpenFOAM.com                      |
|    \\/     M anipulation  |                                                 |
\*---------------------------------------------------------------------------*/
FoamFile
{
    version     2.0;
    format      ascii;
    class       volScalarField;
    location    "0.14";
    object      dsmcRhoNMean_N2cold;
}
// * * * * * * * * * * * * * * * * * * * * * * * * * * * * * * * * * * * * * //

dimensions      [0 -3 0 0 0 0 0];


internalField   nonuniform List<scalar> 
6000
(
47.55801282
40.04480769
33.80019231
28.77557692
25.72397436
48.07548077
40.51711538
34.23137821
29.28823718
25.75240385
48.74375
41.0938141
34.76451923
29.65509615
25.66474359
49.2974359
41.5513141
35.11371795
29.81608974
25.52060897
49.89035256
41.99455128
35.43301282
30.00948718
25.52403846
50.46128205
42.42538462
35.82634615
30.23211538
25.60169872
51.01022436
42.98089744
36.18564103
30.55060897
25.84346154
51.64548077
43.46801282
36.66176282
30.85858974
26.04509615
52.25323718
43.94157051
36.98089744
31.16429487
26.31589744
52.88262821
44.54961538
37.49115385
31.56692308
26.52320513
53.4625
45.02467949
37.83080128
31.88990385
26.82419872
54.09836538
45.42073718
38.28330128
32.19804487
27.1375
54.74990385
46.10695513
38.75108974
32.55717949
27.3811859
55.39153846
46.58996795
39.15833333
32.96467949
27.73788462
56.05173077
47.1338141
39.68512821
33.34814103
28.11067308
56.72070513
47.69544872
40.09394231
33.75727564
28.37387821
57.31253205
48.21980769
40.53169872
34.11016026
28.68352564
58.08336538
48.81708333
41.04076923
34.48894231
28.97519231
58.71121795
49.34054487
41.49019231
34.90942308
29.39705128
59.44384615
49.95509615
42.03980769
35.33134615
29.73394231
60.13086538
50.60044872
42.57919872
35.81820513
30.09692308
60.92240385
51.18810897
43.01804487
36.14060897
30.38676282
61.5125
51.71589744
43.50580128
36.59548077
30.76407051
62.31564103
52.36689103
44.03967949
37.05512821
31.12269231
63.03307692
53.02025641
44.5325641
37.48887821
31.52333333
63.79586538
53.65634615
45.10557692
37.87262821
31.88326923
64.50967949
54.18538462
45.57003205
38.40112179
32.30673077
65.26185897
54.92814103
46.19887821
38.80663462
32.6163141
66.02096154
55.46849359
46.69772436
39.26477564
33.04173077
66.9025
56.26455128
47.27692308
39.74878205
33.41669872
67.64458333
56.87391026
47.82826923
40.21336538
33.78282051
68.37839744
57.49266026
48.31089744
40.68717949
34.25080128
69.27294872
58.23157051
48.97900641
41.18028846
34.57759615
70.01269231
58.93121795
49.55576923
41.67358974
35.02570513
70.93535256
59.62137821
50.10836538
42.13246795
35.42487179
71.73778846
60.32612179
50.69173077
42.65794872
35.85016026
72.60685897
61.01583333
51.2963141
43.1524359
36.27144231
73.42288462
61.76157051
51.92983974
43.67150641
36.71884615
74.30778846
62.45326923
52.49083333
44.17448718
37.15628205
75.19108974
63.24416667
53.21426282
44.72913462
37.65573718
76.08208333
63.96641026
53.77663462
45.23451923
38.06371795
76.93342949
64.71939103
54.39269231
45.72891026
38.46474359
77.88798077
65.48673077
55.10362179
46.30233974
38.91557692
78.74365385
66.20333333
55.69676282
46.81474359
39.40625
79.7825641
67.09592949
56.37689103
47.4188141
39.87153846
80.61028846
67.81608974
57.00064103
47.98724359
40.35496795
81.66233974
68.65246795
57.72733974
48.46448718
40.80653846
82.59016026
69.43740385
58.46875
49.1849359
41.29766026
83.5249359
70.21185897
59.02144231
49.65016026
41.77070513
84.59233974
71.09169872
59.84115385
50.30503205
42.31669872
85.56080128
71.94605769
60.41246795
50.79532051
42.73907051
86.52483974
72.74836538
61.18012821
51.46105769
43.25560897
87.49814103
73.58714744
61.93855769
52.03935897
43.78871795
88.67628205
74.58955128
62.68878205
52.67205128
44.30855769
89.60423077
75.34772436
63.36195513
53.32519231
44.84689103
90.72673077
76.29586538
64.05766026
53.89237179
45.30762821
91.76105769
77.19208333
65.02875
54.62782051
45.98227564
92.93647436
78.14019231
65.71875
55.26035256
46.49221154
93.89019231
78.97961538
66.33727564
55.79810897
46.92407051
95.03516026
79.95955128
67.20839744
56.52105769
47.49769231
31.34810897
32.75496795
32.64157051
32.4386859
32.27586538
32.16669872
32.14727564
32.09573718
32.04775641
32.08391026
32.15160256
32.1174359
31.99657051
31.95705128
31.99310897
32.03791667
32.25996795
32.25307692
32.25724359
32.20650641
32.21532051
32.35272436
32.4299359
32.57676282
32.73875
32.71121795
32.7199359
32.64227564
32.90698718
32.87810897
32.85567308
33.14964744
33.34849359
33.28278846
33.37397436
33.49339744
33.57352564
33.74657051
33.86429487
33.8661859
33.97592949
34.17230769
34.36083333
34.50246795
34.60599359
34.72833333
34.86916667
34.87089744
35.27644231
35.31737179
35.21025641
35.53115385
35.68708333
35.87560897
36.07846154
36.1150641
36.1599359
36.51862179
36.55785256
36.71105769
36.95451923
37.05076923
37.2661859
37.28775641
37.74919872
37.77208333
37.94669872
37.98060897
38.14910256
38.48025641
38.69387821
38.75477564
38.71711538
39.22294872
39.3486859
39.44048077
39.52080128
39.6549359
39.63650641
39.62689103
40.06695513
39.92455128
40.01916667
40.05641026
39.90108974
39.82987179
39.42570513
39.14461538
38.80532051
38.3549359
37.29525641
35.98849359
34.47314103
32.25653846
27.74865385
28.29173077
31.13057692
33.12791667
34.0638141
34.32346154
34.25445513
34.10262821
33.96496795
33.63467949
33.39628205
33.21878205
33.09012821
32.92541667
32.76939103
32.65560897
32.63714744
32.55346154
32.45275641
32.37471154
32.45871795
32.29477564
32.36330128
32.48294872
32.44416667
32.59009615
32.46240385
32.41051282
32.47487179
32.47503205
32.55310897
32.57208333
32.79496795
32.8699359
32.82602564
32.97423077
33.05708333
33.16916667
33.14862179
33.34211538
33.46951923
33.59884615
33.69003205
33.80650641
34.03022436
34.0000641
34.24028846
34.36269231
34.34846154
34.57144231
34.67846154
34.71897436
34.79804487
35.09573718
35.32509615
35.49070513
35.53304487
35.67916667
35.8713141
35.93942308
36.20048077
36.32304487
36.53778846
36.64092949
36.63644231
36.95201923
37.23820513
37.2638141
37.37679487
37.46535256
37.90137821
38.08371795
38.20208333
38.25009615
38.49509615
38.70592949
38.90253205
38.87346154
39.11740385
39.13144231
39.22615385
39.39096154
39.33144231
39.44294872
39.52362179
39.34044872
39.2125641
38.76916667
38.64887821
38.37919872
37.75605769
36.87442308
35.57525641
34.07044872
31.66910256
27.22474359
27.04903846
28.81455128
30.69669872
32.39862179
33.6924359
34.64573718
35.05233974
35.18778846
35.20830128
35.09201923
34.93772436
34.7138141
34.53913462
34.34708333
34.13336538
33.99314103
33.76891026
33.65025641
33.52987179
33.42900641
33.25205128
33.24198718
33.16551282
33.17503205
33.1125641
33.05490385
32.9850641
32.93288462
32.9274359
32.94967949
33.03608974
33.13733974
33.17894231
33.17125
33.25701923
33.20932692
33.24929487
33.30759615
33.55173077
33.53544872
33.60230769
33.75551282
33.88772436
34.02496795
34.06605769
34.10153846
34.25080128
34.32746795
34.53503205
34.585
34.68211538
34.89451923
35.08048077
35.12035256
35.32919872
35.43439103
35.5986859
35.7299359
35.89907051
35.95375
35.91907051
36.28599359
36.29185897
36.60772436
36.67278846
36.82224359
36.96419872
37.14570513
37.49352564
37.75378205
37.80108974
38.0425641
38.23586538
38.28394231
38.48362179
38.56746795
38.63048077
38.89551282
38.99955128
38.97858974
39.07580128
39.26705128
39.26855769
39.23541667
39.16166667
39.16362179
38.71416667
38.49907051
38.20875
37.6350641
36.87330128
35.50875
34.11766026
31.90041667
27.98608974
26.44391026
27.58448718
29.00849359
30.55176282
32.10746795
33.45862179
34.54294872
35.3688141
35.93208333
36.22025641
36.40733974
36.39259615
36.29224359
36.12128205
35.92041667
35.68782051
35.55708333
35.35102564
35.0661859
34.96403846
34.75663462
34.55054487
34.43919872
34.41240385
34.30532051
34.22564103
33.98714744
33.99342949
33.99365385
34.01397436
33.95891026
33.89455128
33.81875
33.92766026
34.05913462
34.03788462
33.97
34.02564103
33.98304487
34.0924359
34.16519231
34.18310897
34.33355769
34.46544872
34.4411859
34.59102564
34.50932692
34.62871795
34.71576923
34.89477564
34.98092949
35.12628205
35.21852564
35.30884615
35.44445513
35.58769231
35.70237179
35.87317308
35.98951923
36.01836538
36.27125
36.47211538
36.56163462
36.62397436
36.74528846
36.96785256
37.1449359
37.38349359
37.44948718
37.62698718
37.74445513
38.02535256
38.1613141
38.43455128
38.45051282
38.60891026
38.60028846
38.80032051
38.88262821
38.99272436
39.23903846
39.20048077
39.21304487
39.23217949
39.15333333
39.0938141
38.80259615
38.62128205
38.17608974
37.69487179
37.00192308
35.85134615
34.46525641
32.26365385
29.0388141
26.17323718
26.98105769
28.07474359
29.26935897
30.61586538
32.01266026
33.33432692
34.54544872
35.60214744
36.38048077
36.93195513
37.33301282
37.52958333
37.62705128
37.57397436
37.59576923
37.40903846
37.34935897
37.09137821
36.87929487
36.66169872
36.49157051
36.25839744
36.09663462
35.98945513
35.75035256
35.55426282
35.44304487
35.38477564
35.25794872
35.17371795
35.15285256
35.07676282
34.94644231
34.97801282
34.98650641
34.93044872
34.93884615
34.91080128
34.9424359
34.98637821
34.92432692
34.86967949
35.10557692
35.00660256
34.97586538
35.1
35.15326923
35.36205128
35.33673077
35.40365385
35.55400641
35.70762821
35.78971154
35.94522436
35.93923077
36.15560897
36.13073718
36.30048077
36.40503205
36.60740385
36.78266026
37.03644231
37.10788462
37.09858974
37.2686859
37.43217949
37.60580128
37.75967949
37.78644231
37.98442308
38.18028846
38.33317308
38.525
38.75157051
38.86474359
38.84298077
39.12737179
39.06810897
39.28820513
39.34714744
39.44740385
39.37903846
39.42105769
39.29304487
39.25237179
39.07352564
38.85487179
38.43535256
37.8249359
37.22346154
36.27602564
35.01641026
33.17163462
30.15596154
26.15419872
26.76032051
27.50214744
28.3825641
29.47044872
30.70198718
31.97448718
33.24801282
34.51310897
35.59317308
36.59054487
37.35019231
38.02445513
38.42352564
38.72144231
38.87400641
38.90919872
38.89035256
38.85230769
38.82939103
38.69426282
38.51189103
38.27891026
38.01721154
37.80852564
37.63458333
37.50282051
37.20916667
37.09019231
36.91150641
36.81923077
36.74849359
36.63580128
36.47416667
36.42189103
36.31855769
36.22394231
36.12974359
36.16057692
36.05612179
36.00314103
35.91355769
36.00282051
36.0000641
35.95689103
36.07583333
36.08108974
36.1774359
36.19307692
36.18301282
36.20160256
36.26522436
36.39663462
36.3374359
36.43884615
36.51455128
36.6738141
36.71189103
36.80432692
36.95211538
37.22564103
37.30753205
37.34375
37.56910256
37.58903846
37.63307692
37.83115385
38.03705128
38.19769231
38.24733974
38.36435897
38.55810897
38.72698718
38.82689103
38.99182692
39.12910256
39.32894231
39.42891026
39.59003205
39.72849359
39.75435897
39.71817308
39.68615385
39.72192308
39.69115385
39.59150641
39.55689103
39.20737179
38.74096154
38.36054487
37.67160256
37.01647436
35.80125
33.95336538
31.48266026
26.25551282
26.73567308
27.28900641
28.01185897
28.82426282
29.75907051
30.88849359
32.02365385
33.27887821
34.46182692
35.62891026
36.73169872
37.68048077
38.53278846
39.11875
39.66224359
40.02054487
40.28865385
40.39753205
40.40955128
40.45599359
40.35407051
40.27407051
40.10092949
39.83416667
39.63804487
39.45932692
39.29695513
39.11391026
38.84487179
38.67785256
38.46320513
38.35919872
38.26141026
38.07602564
37.85746795
37.81227564
37.77208333
37.55035256
37.41855769
37.39054487
37.38173077
37.37887821
37.3188141
37.22958333
37.17266026
37.22227564
37.24073718
37.25
37.27532051
37.25147436
37.33798077
37.36387821
37.39708333
37.40717949
37.48099359
37.50855769
37.66826923
37.64900641
37.76637821
37.76221154
37.97628205
37.96602564
38.2325
38.31580128
38.32753205
38.53935897
38.68875
38.7424359
38.86304487
38.97586538
39.20778846
39.20282051
39.27923077
39.44384615
39.63403846
39.84246795
39.99830128
40.06740385
40.20814103
40.20778846
40.19451923
40.23467949
40.20737179
40.25317308
40.06782051
39.91746795
39.80048077
39.37435897
38.99272436
38.42512821
37.5861859
36.53634615
34.86483974
32.67057692
26.43714744
26.81099359
27.25163462
27.76384615
28.40083333
29.21439103
30.0538141
31.07487179
32.15355769
33.28448718
34.5263141
35.68676282
36.86189103
37.94166667
38.98035256
39.74974359
40.40137821
40.91458333
41.33214744
41.63060897
41.79
42.00676282
41.99217949
41.92971154
41.86205128
41.73759615
41.55528846
41.38727564
41.22157051
40.94416667
40.77724359
40.62778846
40.39266026
40.25727564
40.05285256
39.85064103
39.63554487
39.59237179
39.39028846
39.33471154
39.23080128
39.10987179
38.90442308
38.83564103
38.80823718
38.71548077
38.71352564
38.67217949
38.58778846
38.67426282
38.50730769
38.52067308
38.53557692
38.48724359
38.54519231
38.57432692
38.62974359
38.6588141
38.54516026
38.67227564
38.86352564
38.94096154
39.00971154
39.07775641
39.16323718
39.34653846
39.29935897
39.39301282
39.48894231
39.60342949
39.73288462
39.82887821
40.00935897
39.99647436
40.14967949
40.35746795
40.55141026
40.72865385
40.75615385
40.70266026
40.75608974
40.91833333
40.77628205
40.83939103
40.76391026
40.68288462
40.54153846
40.28317308
40.13557692
39.66076923
39.25137821
38.43391026
37.43201923
36.02695513
34.08490385
26.61955128
26.98855769
27.40025641
27.83541667
28.30041667
28.87512821
29.54115385
30.38272436
31.32807692
32.3350641
33.41939103
34.55900641
35.77025641
36.95810897
38.08910256
39.15419872
40.08169872
40.93733974
41.67525641
42.32483974
42.73387821
43.04192308
43.32044872
43.58054487
43.52746795
43.56801282
43.57541667
43.40644231
43.25592949
43.15150641
42.95852564
42.78996795
42.53336538
42.36339744
42.22301282
41.97785256
41.70080128
41.47298077
41.34891026
41.17919872
40.98233974
40.85692308
40.67785256
40.60961538
40.52692308
40.43641026
40.30586538
40.23099359
40.09397436
40.08416667
40.01201923
39.93560897
39.87483974
39.88823718
39.9263141
39.88733974
39.87721154
39.86233974
39.84826923
39.89378205
39.93092949
39.96778846
40.09413462
40.12169872
40.13951923
40.36358974
40.51076923
40.51519231
40.46375
40.66855769
40.68907051
40.85782051
40.94592949
41.06836538
41.1575641
41.20429487
41.27307692
41.36522436
41.38419872
41.53980769
41.65528846
41.56685897
41.71721154
41.62125
41.51977564
41.64759615
41.39548077
41.22176282
40.81342949
40.54964744
40.0424359
39.52592949
38.50227564
37.37461538
35.55032051
26.82240385
27.1049359
27.42721154
27.7850641
28.20695513
28.74875
29.34548077
29.97977564
30.71740385
31.59900641
32.53445513
33.55907051
34.67724359
35.82477564
37.0736859
38.20894231
39.30788462
40.39939103
41.34509615
42.17708333
42.96717949
43.69435897
44.14766026
44.54564103
44.91333333
45.07272436
45.16166667
45.25336538
45.30144231
45.19275641
45.09807692
44.95801282
44.81342949
44.52221154
44.33586538
44.16814103
43.94875
43.78496795
43.53525641
43.28115385
43.1624359
42.98711538
42.79086538
42.70352564
42.46717949
42.34535256
42.11660256
42.04548077
42.00198718
41.91753205
41.80490385
41.71022436
41.64589744
41.65032051
41.57935897
41.48945513
41.37233974
41.28753205
41.28064103
41.29714744
41.35185897
41.36573718
41.43169872
41.49358974
41.4124359
41.44128205
41.56762821
41.68685897
41.69833333
41.76147436
41.85641026
41.94647436
42.07233974
42.07019231
42.13153846
42.2161859
42.25637821
42.28134615
42.44528846
42.51772436
42.50586538
42.48269231
42.48775641
42.57932692
42.53083333
42.45801282
42.30349359
42.21323718
42.0075641
41.67387821
41.19301282
40.54355769
39.68410256
38.57798077
37.05099359
27.12884615
27.36435897
27.65423077
28.03923077
28.39432692
28.81708333
29.24564103
29.74134615
30.35647436
31.05961538
31.84852564
32.75057692
33.71644231
34.68323718
35.83237179
36.99480769
38.21673077
39.40900641
40.54294872
41.59759615
42.59378205
43.46301282
44.25711538
44.96169872
45.54980769
46.02096154
46.41676282
46.73916667
46.90320513
46.98073718
46.99576923
46.92647436
46.83461538
46.8038141
46.68762821
46.55323718
46.30592949
46.15217949
45.94983974
45.68897436
45.46698718
45.29160256
45.09461538
44.82830128
44.67471154
44.4663141
44.36413462
44.15471154
44.05471154
43.93221154
43.82778846
43.66112179
43.54839744
43.42653846
43.37769231
43.34214744
43.19464744
43.02022436
42.97262821
42.99592949
42.93496795
42.94304487
43.00458333
42.9863141
43.03141026
42.93737179
43.01304487
42.98679487
43.00173077
43.03490385
43.17044872
43.17458333
43.20275641
43.25003205
43.34669872
43.34246795
43.4099359
43.61060897
43.63108974
43.55926282
43.66945513
43.70519231
43.66871795
43.57137821
43.51326923
43.54076923
43.5275641
43.25262821
43.0900641
42.7211859
42.28657051
41.64266026
40.94833333
39.97320513
38.54141026
27.43487179
27.73253205
27.97307692
28.21964744
28.52102564
28.79625
29.24108974
29.69746795
30.18858974
30.73753205
31.36201923
32.04910256
32.89233974
33.81589744
34.82147436
35.86887821
37.01599359
38.20634615
39.46323718
40.63189103
41.78346154
42.93166667
43.96926282
44.91410256
45.74291667
46.40294872
47.04407051
47.54291667
47.99964744
48.32326923
48.53153846
48.71195513
48.84445513
48.78974359
48.70535256
48.66733974
48.53798077
48.30650641
48.23092949
48.02942308
47.87435897
47.59708333
47.4238141
47.25660256
47.09987179
46.79820513
46.59022436
46.43977564
46.24855769
46.14525641
45.96032051
45.73282051
45.51
45.43125
45.33041667
45.20794872
45.12285256
45.05653846
44.91932692
44.84522436
44.78455128
44.86
44.85387821
44.68753205
44.56509615
44.57647436
44.57205128
44.57419872
44.58298077
44.59314103
44.53384615
44.57461538
44.56346154
44.5675
44.62599359
44.74634615
44.79016026
44.71179487
44.89570513
44.89544872
44.89961538
44.89503205
44.87628205
44.89836538
44.87278846
44.82971154
44.72939103
44.59897436
44.30246795
43.94352564
43.48375
43.00496795
42.42115385
41.58689103
40.21307692
27.67842949
27.88435897
28.1438141
28.42621795
28.74259615
29.07669872
29.41019231
29.79237179
30.20397436
30.67846154
31.21535256
31.81935897
32.47352564
33.27083333
34.0700641
35.06153846
36.02480769
37.12951923
38.19471154
39.46942308
40.62887821
41.87317308
43.04650641
44.21355769
45.28628205
46.24403846
47.07560897
47.79259615
48.52426282
49.08961538
49.60717949
49.89673077
50.20932692
50.36375
50.51003205
50.58980769
50.60647436
50.5111859
50.45195513
50.38560897
50.2561859
50.07612179
49.92913462
49.76064103
49.48294872
49.2949359
49.07448718
48.87336538
48.70259615
48.3911859
48.27067308
48.01259615
47.90291667
47.62233974
47.50230769
47.37673077
47.2263141
47.06342949
47.05028846
46.94403846
46.90564103
46.76608974
46.58519231
46.54669872
46.47333333
46.43474359
46.41657051
46.3863141
46.37551282
46.44051282
46.26826923
46.22509615
46.19737179
46.3375641
46.19833333
46.24467949
46.27108974
46.26288462
46.22108974
46.26810897
46.2899359
46.33637821
46.34323718
46.27794872
46.27419872
46.16086538
46.07846154
45.96137821
45.74875
45.43628205
45.17919872
44.59371795
43.83884615
43.11160256
41.94730769
27.98801282
28.23
28.47804487
28.76230769
29.01426282
29.3111859
29.63477564
29.95336538
30.30775641
30.72349359
31.20483974
31.68602564
32.22987179
32.86108974
33.53496795
34.32592949
35.16108974
36.11576923
37.1775641
38.2574359
39.42551282
40.65987179
41.87903846
43.05676282
44.38387821
45.53272436
46.62842949
47.61019231
48.52663462
49.35951923
50.08259615
50.70682692
51.19330128
51.66733974
52.08391026
52.30977564
52.44865385
52.59676282
52.52862179
52.49621795
52.41599359
52.33794872
52.20403846
52.09974359
51.97519231
51.68846154
51.49945513
51.3825641
51.14195513
50.90416667
50.71326923
50.45820513
50.29397436
50.16349359
49.94673077
49.86115385
49.65753205
49.44573718
49.29471154
49.12717949
49.01038462
48.89846154
48.74192308
48.69865385
48.69467949
48.53817308
48.42275641
48.37804487
48.31275641
48.21782051
48.23564103
48.07804487
48.02477564
47.92326923
47.90977564
47.80112179
47.95012821
47.90275641
47.85253205
47.85490385
47.86826923
47.94682692
47.89176282
47.87657051
47.77814103
47.63096154
47.61342949
47.37852564
47.34865385
47.16086538
46.70932692
46.15320513
45.60689103
44.86141026
43.85564103
28.37570513
28.59371795
28.79839744
29.05586538
29.28054487
29.55439103
29.82384615
30.15557692
30.48612179
30.79942308
31.18349359
31.64746795
32.12439103
32.67282051
33.26044872
33.89189103
34.64262821
35.47189103
36.34961538
37.34400641
38.37147436
39.51766026
40.68971154
41.91192308
43.10592949
44.40195513
45.63522436
46.88057692
47.99458333
49.02785256
50.02554487
50.93
51.71785256
52.42570513
52.98839744
53.41089744
53.80230769
54.10714744
54.40070513
54.46480769
54.50519231
54.47772436
54.36698718
54.34189103
54.29913462
54.20913462
53.93522436
53.79092949
53.69435897
53.47894231
53.36016026
53.15891026
52.93141026
52.68887821
52.51807692
52.33317308
52.16746795
51.95048077
51.76951923
51.57708333
51.37137821
51.26445513
51.28166667
50.98695513
50.84653846
50.65317308
50.59121795
50.47339744
50.38775641
50.28548077
50.17016026
50.14983974
50.06137821
49.89394231
49.76525641
49.75044872
49.75403846
49.83615385
49.76958333
49.82814103
49.8050641
49.71900641
49.70875
49.6575641
49.59942308
49.47285256
49.32346154
49.16532051
48.96349359
48.64862179
48.47198718
48.18362179
47.5049359
46.81121795
45.77032051
28.66958333
28.87169872
29.09942308
29.31035256
29.56689103
29.79278846
30.0263141
30.29160256
30.58721154
30.94554487
31.32923077
31.64740385
32.0261859
32.50291667
33.01961538
33.59262821
34.18397436
34.89916667
35.65663462
36.48810897
37.39448718
38.37958333
39.46772436
40.60426282
41.85375
43.09474359
44.41038462
45.7086859
47.02189103
48.23365385
49.44935897
50.51903846
51.50637821
52.38746795
53.30176282
54.04644231
54.67721154
55.1899359
55.60016026
55.95221154
56.20528846
56.39432692
56.49048077
56.56044872
56.55333333
56.52698718
56.49907051
56.3400641
56.18785256
56.04214744
55.82064103
55.68923077
55.47714744
55.29407051
55.1513141
54.8875641
54.73073718
54.58112179
54.3750641
54.21137821
54.07349359
53.7761859
53.61147436
53.49833333
53.27990385
53.08467949
52.92362179
52.75794872
52.65173077
52.58233974
52.45451923
52.35474359
52.27663462
52.12596154
51.98182692
51.93019231
51.90221154
51.85426282
51.86682692
51.74330128
51.66032051
51.69583333
51.63689103
51.53339744
51.45051282
51.24342949
51.06259615
50.90871795
50.71407051
50.57730769
50.33477564
49.86842949
49.35772436
48.81435897
47.99105769
28.95839744
29.20144231
29.41105769
29.66157051
29.88349359
30.15708333
30.40054487
30.70615385
30.98839744
31.24016026
31.54669872
31.88317308
32.29051282
32.7100641
33.11602564
33.55733974
34.0600641
34.60189103
35.28746795
36.00932692
36.79541667
37.65580128
38.53926282
39.61682692
40.74019231
41.87737179
43.13586538
44.42054487
45.72576923
46.98669872
48.32471154
49.58211538
50.88891026
52.06608974
53.07439103
54.05038462
54.88567308
55.725
56.39528846
57.06711538
57.55541667
57.88355769
58.20551282
58.35125
58.48900641
58.60378205
58.66522436
58.67996795
58.64557692
58.60814103
58.4738141
58.325
58.2188141
57.99727564
57.83195513
57.61057692
57.40221154
57.20801282
57.01125
56.82198718
56.56378205
56.40935897
56.20160256
56.05932692
55.92980769
55.79461538
55.54647436
55.30464744
55.10884615
54.98108974
54.79269231
54.72012821
54.60804487
54.61044872
54.44801282
54.27974359
54.19519231
54.15996795
54.06153846
54.00282051
53.89807692
53.6175641
53.57753205
53.56679487
53.47115385
53.26891026
53.2199359
52.99096154
52.90724359
52.72775641
52.38666667
52.04355769
51.59817308
50.91801282
50.19041667
29.27195513
29.49009615
29.71282051
29.96375
30.22522436
30.49
30.7049359
30.94980769
31.2275641
31.50948718
31.77852564
32.08458333
32.40394231
32.77076923
33.13275641
33.58445513
34.02666667
34.53278846
35.03201923
35.58233974
36.28205128
37.00387821
37.84439103
38.71849359
39.67044872
40.72410256
41.82804487
43.01910256
44.34342949
45.58057692
46.96871795
48.33580128
49.61733974
50.84157051
52.21586538
53.44
54.57285256
55.60855769
56.52512821
57.42798077
58.10445513
58.86233974
59.29211538
59.81080128
60.12724359
60.3186859
60.53753205
60.74740385
60.7961859
60.87185897
60.81919872
60.76557692
60.65003205
60.63528846
60.52826923
60.41516026
60.18009615
60.03182692
59.81105769
59.61298077
59.45714744
59.32028846
59.09637821
58.88717949
58.62163462
58.39817308
58.27480769
58.06455128
57.85458333
57.57185897
57.45714744
57.33865385
57.2199359
56.97070513
56.83810897
56.7325
56.61474359
56.55891026
56.45342949
56.31714744
56.20166667
56.08538462
55.90333333
55.79669872
55.67464744
55.52554487
55.30176282
55.23612179
54.96612179
54.75429487
54.45814103
54.12974359
53.7574359
53.32717949
52.59532051
29.69557692
29.92339744
30.15278846
30.33054487
30.53653846
30.77586538
31.04099359
31.27416667
31.53099359
31.81942308
32.12599359
32.40641026
32.65673077
32.93871795
33.30923077
33.65189103
34.0661859
34.53541667
34.97983974
35.52615385
36.1125
36.72455128
37.43615385
38.12375
38.94342949
39.87762821
40.90378205
41.94282051
43.05326923
44.32570513
45.54945513
46.8788141
48.22221154
49.66698718
50.98612179
52.4175641
53.65612179
54.88038462
56.04435897
57.23048077
58.20439103
59.09070513
59.99887821
60.65442308
61.31141026
61.92426282
62.21480769
62.46852564
62.69967949
62.85541667
63.02830128
63.09544872
63.09137821
63.09785256
63.01974359
62.96362179
62.86070513
62.78285256
62.58878205
62.42554487
62.30544872
62.06461538
61.89987179
61.60317308
61.51269231
61.34753205
61.15746795
60.96605769
60.73576923
60.51788462
60.32291667
60.07272436
59.84144231
59.73141026
59.57362179
59.42096154
59.28474359
59.11266026
58.88349359
58.82089744
58.70599359
58.63041667
58.3861859
58.25926282
58.1613141
58.08397436
57.89442308
57.76538462
57.44400641
57.28387821
57.02964744
56.66221154
56.31179487
55.86961538
55.21387821
30.02823718
30.25060897
30.48451923
30.73570513
30.9811859
31.17179487
31.40987179
31.67096154
31.92650641
32.20092949
32.44314103
32.69112179
32.97009615
33.31698718
33.60628205
33.95830128
34.21951923
34.61230769
35.03846154
35.43983974
35.94246795
36.48153846
37.05894231
37.7061859
38.39272436
39.16025641
40.00682692
40.9361859
41.93150641
43.06416667
44.25230769
45.45791667
46.76804487
48.13544872
49.51650641
50.90951923
52.38669872
53.83227564
55.17121795
56.42189103
57.67073718
58.84314103
59.84772436
60.92451923
61.76698718
62.53810897
63.29833333
63.83032051
64.23112179
64.67362179
64.86871795
65.10842949
65.3000641
65.32211538
65.35416667
65.40012821
65.31964744
65.22907051
65.16032051
65.00676282
64.8400641
64.77647436
64.60823718
64.55772436
64.37266026
64.19717949
64.01237179
63.76705128
63.6363141
63.42657051
63.17830128
63.06
62.80708333
62.63759615
62.50333333
62.31580128
62.03041667
61.86458333
61.62064103
61.48362179
61.35464744
61.18269231
61.11855769
60.94794872
60.79089744
60.61592949
60.40259615
60.23599359
60.20080128
59.86108974
59.61198718
59.30522436
58.895
58.41673077
57.77150641
30.30689103
30.56685897
30.78224359
31.01875
31.25041667
31.53496795
31.78967949
32.01791667
32.2563141
32.48727564
32.76951923
33.05548077
33.37025641
33.63195513
33.88708333
34.21121795
34.63108974
34.95653846
35.29160256
35.68217949
36.04660256
36.52660256
36.99134615
37.50653846
38.09262821
38.69548077
39.39355769
40.17535256
41.09471154
41.96753205
43.04025641
44.16955128
45.41807692
46.66429487
48.02660256
49.44112179
50.87355769
52.32996795
53.81407051
55.25195513
56.65291667
58.00785256
59.32435897
60.4824359
61.63445513
62.62897436
63.50814103
64.39285256
65.18791667
65.66246795
66.26467949
66.68403846
67.00455128
67.25916667
67.46746795
67.49903846
67.59275641
67.66996795
67.63823718
67.68641026
67.6336859
67.55788462
67.44852564
67.33487179
67.25285256
67.03804487
66.85317308
66.67615385
66.57253205
66.35346154
66.15788462
65.91641026
65.75567308
65.6025
65.39871795
65.21955128
65.0424359
64.86371795
64.69740385
64.38602564
64.28080128
64.11935897
64.03480769
63.77435897
63.58291667
63.49961538
63.31480769
63.04801282
62.76035256
62.54948718
62.19115385
61.92416667
61.54990385
61.15269231
60.64990385
30.72599359
30.96330128
31.20740385
31.44080128
31.64727564
31.84830128
32.0961859
32.34342949
32.61852564
32.88785256
33.14054487
33.3788141
33.69012821
33.94759615
34.24605769
34.51730769
34.79817308
35.09397436
35.46298077
35.81185897
36.21660256
36.63394231
37.04935897
37.52400641
38.00477564
38.60349359
39.21926282
39.87099359
40.53214744
41.34105769
42.23961538
43.22429487
44.26115385
45.42189103
46.65849359
47.92939103
49.31916667
50.74657051
52.22442308
53.69423077
55.22733974
56.71913462
58.18439103
59.54416667
60.89192308
62.09544872
63.28490385
64.38451923
65.44951923
66.3425641
67.15794872
67.81846154
68.40554487
68.85858974
69.20217949
69.59076923
69.84647436
69.99865385
70.07608974
70.18721154
70.21798077
70.18051282
70.13240385
70.03865385
69.93275641
69.93919872
69.80650641
69.67961538
69.48092949
69.335
69.18791667
68.99487179
68.76679487
68.65086538
68.49423077
68.34003205
68.17714744
67.89823718
67.66192308
67.50714744
67.33019231
67.09304487
66.81375
66.79791667
66.52483974
66.30471154
66.11955128
65.89099359
65.71022436
65.45314103
65.02307692
64.79458333
64.46589744
64.02028846
63.57974359
31.03599359
31.27298077
31.48358974
31.72432692
31.99147436
32.27125
32.52173077
32.78628205
32.99846154
33.24080128
33.53224359
33.77275641
34.04596154
34.32544872
34.62224359
34.87448718
35.16442308
35.47028846
35.80163462
36.13817308
36.45157051
36.75307692
37.16951923
37.55679487
38.02346154
38.53596154
39.05926282
39.68435897
40.33673077
41.00410256
41.70342949
42.55939103
43.44878205
44.3725
45.44442308
46.61669872
47.88346154
49.20099359
50.59259615
52.0425641
53.52070513
55.1224359
56.65083333
58.14865385
59.75099359
61.21951923
62.56939103
63.85644231
65.04448718
66.22317308
67.25439103
68.26067308
69.09298077
69.81762821
70.42240385
70.85397436
71.35461538
71.76653846
72.10333333
72.3224359
72.46057692
72.55785256
72.59426282
72.61035256
72.5863141
72.52955128
72.55166667
72.58983974