/*--------------------------------*- C++ -*----------------------------------*\
| =========                 |                                                 |
| \\      /  F ield         | OpenFOAM: The Open Source CFD Toolbox           |
|  \\    /   O peration     | Version:  v1706                                 |
|   \\  /    A nd           | Web:      www.OpenFOAM.com                      |
|    \\/     M anipulation  |                                                 |
\*---------------------------------------------------------------------------*/
FoamFile
{
    version     2.0;
    format      ascii;
    class       volScalarField;
    location    "0.14";
    object      dsmcSigmaTcRMax;
}
// * * * * * * * * * * * * * * * * * * * * * * * * * * * * * * * * * * * * * //

dimensions      [0 3 -1 0 0 0 0];


internalField   nonuniform List<scalar> 
6000
(
8.992756837e-16
8.603416196e-16
8.259421117e-16
9.15203274e-16
8.958163877e-16
7.953091271e-16
8.347797806e-16
8.240914153e-16
8.564816329e-16
8.578303269e-16
8.455381419e-16
8.387533712e-16
8.513790445e-16
8.490508049e-16
8.613884592e-16
8.466639256e-16
8.49412965e-16
8.38245257e-16
8.542474321e-16
8.466148986e-16
8.395552726e-16
8.625320059e-16
8.287739107e-16
8.331324071e-16
8.449885406e-16
8.333409442e-16
8.078566513e-16
8.250649734e-16
8.861739109e-16
8.395113319e-16
7.86026644e-16
8.750522913e-16
8.315557875e-16
8.102349491e-16
8.077454219e-16
8.220939462e-16
8.448212415e-16
7.999028266e-16
8.211036643e-16
8.049964431e-16
8.013157087e-16
7.723611177e-16
8.499171484e-16
8.0912658e-16
8.489326624e-16
7.995108735e-16
8.178404998e-16
8.303681627e-16
8.127506874e-16
8.127120382e-16
7.852705683e-16
8.156757222e-16
8.382258803e-16
7.827193715e-16
8.152031238e-16
8.749275726e-16
7.929300286e-16
7.663245514e-16
8.410228285e-16
7.704682935e-16
8.135072951e-16
8.091300019e-16
8.07425747e-16
7.860144786e-16
7.691190803e-16
8.002661533e-16
7.974174446e-16
8.38401987e-16
7.873270536e-16
7.38370339e-16
7.874655249e-16
7.428185508e-16
7.506955804e-16
7.761908561e-16
7.736274183e-16
7.322412722e-16
8.216363583e-16
7.948029384e-16
7.948093537e-16
7.575069236e-16
7.936848638e-16
7.622106539e-16
7.729274269e-16
7.538307189e-16
7.813109231e-16
7.454591493e-16
7.636141605e-16
7.708257884e-16
7.723232062e-16
8.321065566e-16
7.360704851e-16
7.222098091e-16
7.979551494e-16
7.615830159e-16
8.027794363e-16
7.226562387e-16
7.918002614e-16
7.678829613e-16
7.655237717e-16
7.651403281e-16
7.797129418e-16
7.407166724e-16
7.511271429e-16
7.524568805e-16
7.595736727e-16
7.182210061e-16
7.415574458e-16
7.767470454e-16
7.259757679e-16
7.900851628e-16
7.237882631e-16
7.522007491e-16
7.223697615e-16
7.624950019e-16
7.914670608e-16
7.791137458e-16
7.967828921e-16
7.495103539e-16
7.173944204e-16
7.505598345e-16
7.375846283e-16
7.76777713e-16
7.756865899e-16
7.012316404e-16
7.689194899e-16
7.474127697e-16
7.951668027e-16
7.398467733e-16
7.277172162e-16
7.520283526e-16
7.728638088e-16
7.488934209e-16
7.532984872e-16
7.223709307e-16
7.539657346e-16
7.197830361e-16
7.560869806e-16
7.467322482e-16
7.567395119e-16
7.73703124e-16
7.514292562e-16
7.216123824e-16
7.560645057e-16
7.634782988e-16
8.088388307e-16
7.624120681e-16
7.365202598e-16
7.427515575e-16
7.869426177e-16
7.057318448e-16
7.18692309e-16
7.605585215e-16
7.438121027e-16
7.575752822e-16
7.54356527e-16
7.689848205e-16
7.492252503e-16
7.267589556e-16
7.458422606e-16
7.373933222e-16
7.319390978e-16
7.630959665e-16
7.354430159e-16
7.549688543e-16
7.814779252e-16
7.887898273e-16
7.49459767e-16
8.035214007e-16
7.348491517e-16
7.379178146e-16
7.444712611e-16
7.627484461e-16
7.350546941e-16
7.498861654e-16
7.554094007e-16
7.633082008e-16
7.653871761e-16
7.990284621e-16
7.783590078e-16
8.215009817e-16
7.774065585e-16
7.80849447e-16
7.755894034e-16
7.601762859e-16
7.264390288e-16
7.511540961e-16
8.086759182e-16
7.739401779e-16
7.829389599e-16
7.237428277e-16
7.878939254e-16
7.425552268e-16
7.736776741e-16
7.664286674e-16
7.363244506e-16
7.450194321e-16
7.577433418e-16
7.453697234e-16
7.394420021e-16
7.87674785e-16
7.57745907e-16
7.715499265e-16
7.509486603e-16
7.350886886e-16
7.466307582e-16
7.304107276e-16
7.571195204e-16
7.538118953e-16
7.479587191e-16
8.109396882e-16
7.258303646e-16
7.591183808e-16
7.69891818e-16
8.048974145e-16
7.67534148e-16
7.278622728e-16
7.420915971e-16
7.926956281e-16
7.478326815e-16
7.682977402e-16
7.781196718e-16
7.728007739e-16
7.586703229e-16
7.791215046e-16
7.697873464e-16
7.333881665e-16
8.002706166e-16
7.238129832e-16
7.451389847e-16
7.863133147e-16
7.530453147e-16
7.446323837e-16
7.72534542e-16
7.606180091e-16
7.689476412e-16
7.316672438e-16
7.302474779e-16
7.734682006e-16
7.770535675e-16
7.901066861e-16
7.861072268e-16
7.506489486e-16
8.247389447e-16
7.530328259e-16
7.490357099e-16
7.453458216e-16
7.581645876e-16
7.620305058e-16
7.768286968e-16
8.002974833e-16
7.403964608e-16
7.82401093e-16
7.792918502e-16
7.324998968e-16
7.870616773e-16
7.70032225e-16
7.848409374e-16
7.510868597e-16
7.649765559e-16
7.481376263e-16
7.740627263e-16
7.42684903e-16
7.454868734e-16
7.540322827e-16
7.511472333e-16
7.879620437e-16
7.728579947e-16
7.611646445e-16
7.293591497e-16
7.820396833e-16
7.497361425e-16
7.832567849e-16
7.924043468e-16
7.249789998e-16
7.473490548e-16
7.70008971e-16
7.188348438e-16
7.667409884e-16
7.435959659e-16
7.918941383e-16
7.788466625e-16
7.3089037e-16
8.253440367e-16
7.853045314e-16
7.46491823e-16
7.551293393e-16
7.90262834e-16
7.29199595e-16
7.437557396e-16
7.410866065e-16
8.078193014e-16
7.583597015e-16
7.236201244e-16
7.329534794e-16
7.369004064e-16
7.9243334e-16
7.259407359e-16
7.204980181e-16
7.45091742e-16
8.000648392e-16
8.762605196e-16
8.939158651e-16
8.687439469e-16
8.810328144e-16
8.928535203e-16
8.896759523e-16
8.744787381e-16
8.908742028e-16
9.031998792e-16
8.816139772e-16
8.926777154e-16
8.912154078e-16
8.654875818e-16
8.786611146e-16
8.682642975e-16
8.979363151e-16
8.774644803e-16
8.532293829e-16
8.873701319e-16
8.835897521e-16
9.087248225e-16
8.444117237e-16
8.699264649e-16
8.762958601e-16
8.745364617e-16
8.712976873e-16
8.794790416e-16
8.629836564e-16
8.63222561e-16
8.66954871e-16
8.77874756e-16
8.607173086e-16
8.825010805e-16
8.562445704e-16
8.676384647e-16
8.742072934e-16
8.811715161e-16
8.662130549e-16
8.788369202e-16
8.604144304e-16
8.492504265e-16
8.775419365e-16
8.369246217e-16
8.379961804e-16
9.291284943e-16
8.821350424e-16
8.494679129e-16
8.460593598e-16
8.740306099e-16
8.320597083e-16
8.682796315e-16
8.153903385e-16
8.341635165e-16
8.794019038e-16
8.388688223e-16
8.690581335e-16
8.506621476e-16
8.814023884e-16
8.871451103e-16
8.47860725e-16
8.654305406e-16
8.548931982e-16
8.692065648e-16
8.409072181e-16
8.331485629e-16
8.345983494e-16
8.626814063e-16
8.525529898e-16
8.322491339e-16
8.658321723e-16
8.235597731e-16
8.357020516e-16
8.610271427e-16
8.167548884e-16
8.472967052e-16
8.659742598e-16
8.234850835e-16
8.305900364e-16
8.408042589e-16
8.460099903e-16
8.66954293e-16
8.331949164e-16
8.699641795e-16
8.380627752e-16
8.762346229e-16
8.109158807e-16
8.170069082e-16
8.853477152e-16
8.419373424e-16
8.441777354e-16
8.251204659e-16
8.376614038e-16
8.471967037e-16
8.222269096e-16
8.115437019e-16
8.700706676e-16
8.744479136e-16
8.511722589e-16
8.721373458e-16
8.826051132e-16
8.697824566e-16
8.601794291e-16
9.041616311e-16
8.739876139e-16
9.065145776e-16
8.929635874e-16
9.056790819e-16
9.141334791e-16
8.555443726e-16
8.692172534e-16
8.863962003e-16
8.695111754e-16
8.829657274e-16
8.796501117e-16
8.650567457e-16
8.728141224e-16
8.88697048e-16
8.928321193e-16
8.733238356e-16
8.586519739e-16
8.463045187e-16
8.610818812e-16
8.970443792e-16
8.694999931e-16
8.637967869e-16
8.625916476e-16
8.563277548e-16
8.840880859e-16
8.878142351e-16
9.156567558e-16
8.516820834e-16
8.605771955e-16
8.756721894e-16
8.432898743e-16
8.895622287e-16
8.6190496e-16
8.738351622e-16
8.614623327e-16
8.556386983e-16
8.620241514e-16
8.872496146e-16
8.731817325e-16
8.496020242e-16
8.484935063e-16
8.64666078e-16
9.033387532e-16
8.725006178e-16
8.483379424e-16
8.512721992e-16
8.523140177e-16
8.652162223e-16
8.431715041e-16
8.474344002e-16
8.567897845e-16
8.766763888e-16
8.453953484e-16
8.326109531e-16
8.521102286e-16
8.513321561e-16
8.439244992e-16
8.375283904e-16
8.626533743e-16
8.523420389e-16
8.797485929e-16
8.476839796e-16
8.499976256e-16
8.607922246e-16
8.36753277e-16
8.54735101e-16
8.529407841e-16
8.24327727e-16
8.19586449e-16
8.375763153e-16
8.358991438e-16
8.222808713e-16
8.116491248e-16
8.800598911e-16
9.014712354e-16
8.300528772e-16
8.453505456e-16
8.598052088e-16
8.270157027e-16
8.609804589e-16
8.507994873e-16
8.90350289e-16
8.439109754e-16
8.173051598e-16
8.291944518e-16
8.4027775e-16
8.179128487e-16
8.391264659e-16
8.797435131e-16
8.848758617e-16
8.569026195e-16
8.613031908e-16
8.7543359e-16
8.785740712e-16
9.07438621e-16
8.806785096e-16
8.75510897e-16
8.685876116e-16
8.788999155e-16
8.699965334e-16
8.864923797e-16
8.573820093e-16
8.687618276e-16
8.496538453e-16
8.725503775e-16
8.72262053e-16
8.827760941e-16
8.747374985e-16
8.670545678e-16
8.736295083e-16
8.850650335e-16
9.117134821e-16
8.853199631e-16
8.705856843e-16
8.821694354e-16
8.575602868e-16
8.766798835e-16
9.003500602e-16
8.687713584e-16
8.771744042e-16
8.724913259e-16
8.775906689e-16
8.854804323e-16
8.668385113e-16
8.641014893e-16
8.62244285e-16
8.541728049e-16
8.485823445e-16
8.817303014e-16
8.6905567e-16
8.423530058e-16
8.727664762e-16
8.445973932e-16
9.684274129e-16
8.881349644e-16
8.676438487e-16
8.963550275e-16
8.633566084e-16
8.76174555e-16
8.483486791e-16
8.492206765e-16
8.427084017e-16
8.499990884e-16
8.689623314e-16
8.502367394e-16
8.66447173e-16
8.477794828e-16
8.946895179e-16
8.448819985e-16
8.572472848e-16
8.673300344e-16
9.110450984e-16
8.209113443e-16
8.544216525e-16
8.324919213e-16
8.450216489e-16
8.282542258e-16
8.347371764e-16
8.716240823e-16
8.40069637e-16
8.400809322e-16
8.440979536e-16
8.716938317e-16
8.616142283e-16
8.525589659e-16
8.59742117e-16
8.466003565e-16
8.34594447e-16
8.356773543e-16
8.305608638e-16
8.328485972e-16
8.500035354e-16
8.43532274e-16
8.294720277e-16
8.645278387e-16
8.319300951e-16
8.671924685e-16
8.222662848e-16
8.238911064e-16
8.451446735e-16
7.933059645e-16
8.097582647e-16
8.912200204e-16
8.517409961e-16
8.681086007e-16
9.015860247e-16
8.867870996e-16
8.744612112e-16
8.374359059e-16
8.596453814e-16
8.610934436e-16
8.621306479e-16
8.584300506e-16
8.936782051e-16
8.721093707e-16
8.396660846e-16
9.065310484e-16
8.814036822e-16
8.634633192e-16
8.546268041e-16
8.814708738e-16
8.700798434e-16
8.451321868e-16
8.580071915e-16
8.941440078e-16
8.952221231e-16
8.847267861e-16
8.683025561e-16
8.456390703e-16
8.572644501e-16
8.495914826e-16
9.1145674e-16
8.538934325e-16
9.081964474e-16
8.646956706e-16
8.752414902e-16
8.842104907e-16
8.605317499e-16
8.493573974e-16
8.525905206e-16
8.603183392e-16
8.800835181e-16
8.740630171e-16
8.778776094e-16
9.163453649e-16
8.624169948e-16
8.528251501e-16
8.97172832e-16
8.441540757e-16
8.988621578e-16
8.464015421e-16
8.554891231e-16
8.304881036e-16
8.644564377e-16
8.478952453e-16
8.50607732e-16
8.561787918e-16
8.498548881e-16
8.280472858e-16
8.405973056e-16
8.579904547e-16
8.654617411e-16
8.426603743e-16
8.574085952e-16
8.834761856e-16
8.228200965e-16
8.714157974e-16
8.673932669e-16
8.483284415e-16
8.704203458e-16
8.282964671e-16
8.663298131e-16
8.346200227e-16
8.611233898e-16
8.909493053e-16
8.302793816e-16
8.526000198e-16
9.125982619e-16
8.305012786e-16
8.385725892e-16
8.529518099e-16
9.027101379e-16
8.666786561e-16
8.262367539e-16
8.250103706e-16
8.514433918e-16
8.154757794e-16
8.400530878e-16
8.778375197e-16
8.328969877e-16
8.327727598e-16
8.352373863e-16
9.075817257e-16
8.510552314e-16
8.600654239e-16
8.184684671e-16
7.878812425e-16
8.321160746e-16
8.27211936e-16
8.634820703e-16
8.356596917e-16
8.425055864e-16
9.227569769e-16
8.710482152e-16
8.579235958e-16
8.813961393e-16
8.556304412e-16
8.350809576e-16
8.744360852e-16
8.39084246e-16
8.847239267e-16
8.760319149e-16
8.459433093e-16
8.50393242e-16
8.546635721e-16
8.55039934e-16
8.939351413e-16
8.318406666e-16
8.932650505e-16
8.23929041e-16
8.571897249e-16
9.020074727e-16
8.576584025e-16
8.659928091e-16
8.510035312e-16
8.419719343e-16
8.688477475e-16
8.806095482e-16
8.965441206e-16
8.538745096e-16
8.542261269e-16
8.594721167e-16
8.640543309e-16
8.572659137e-16
8.821255194e-16
8.838797061e-16
8.839155477e-16
8.483213305e-16
8.611322817e-16
8.526399081e-16
9.07903857e-16
8.582926698e-16
8.945142735e-16
8.331361855e-16
8.422469614e-16
8.53730574e-16
8.801248926e-16
8.296112504e-16
8.520129666e-16
8.651783182e-16
8.501650962e-16
8.553496082e-16
8.626012604e-16
8.516069788e-16
8.536410522e-16
8.416341994e-16
8.99614657e-16
8.402073975e-16
8.902502552e-16
8.736423778e-16
8.506511026e-16
8.437578103e-16
8.953856469e-16
8.775455371e-16
8.656132561e-16
8.456172173e-16
8.597838254e-16
8.744249851e-16
8.495222135e-16
8.472902636e-16
8.436445329e-16
8.568087499e-16
8.888972216e-16
8.382512877e-16
8.363510529e-16
8.288513823e-16
8.620794755e-16
8.594232625e-16
8.390280654e-16
8.37156324e-16
8.47365947e-16
8.51935328e-16
8.296035763e-16
8.23603185e-16
8.445081318e-16
8.574924003e-16
8.383283757e-16
8.748959246e-16
8.057643691e-16
8.459536975e-16
7.900072566e-16
7.891161467e-16
8.375394458e-16
8.139787168e-16
8.466386213e-16
8.278029448e-16
8.106940296e-16
8.287598499e-16
8.726907078e-16
8.542392006e-16
8.221990241e-16
8.381280961e-16
8.225012459e-16
8.502255997e-16
8.71464291e-16
8.476696218e-16
8.553178759e-16
8.453917835e-16
8.666727979e-16
8.778065114e-16
8.777270674e-16
8.417899864e-16
8.712788008e-16
8.55406755e-16
8.387954688e-16
9.185280363e-16
9.543374892e-16
9.040372145e-16
8.367435827e-16
8.378594424e-16
8.788862498e-16
8.459403738e-16
8.536772024e-16
8.682190511e-16
8.645578e-16
8.66762617e-16
8.582566072e-16
8.552474978e-16
8.532993317e-16
8.464486825e-16
8.780339699e-16
8.605196548e-16
8.432113094e-16
8.709147101e-16
8.359198148e-16
8.492390122e-16
8.341116224e-16
8.672961358e-16
8.429521247e-16
8.407220608e-16
8.646934571e-16
8.977795865e-16
8.915317278e-16
8.485599063e-16
8.456341594e-16
8.668411166e-16
8.277009454e-16
8.538452646e-16
9.167872484e-16
8.71793438e-16
8.394935889e-16
8.666027231e-16
8.408219698e-16
8.723292224e-16
8.638728031e-16
8.718706112e-16
8.912618896e-16
8.671182478e-16
9.357678157e-16
8.541744166e-16
9.041339917e-16
8.687210303e-16
8.450650346e-16
8.468854408e-16
8.547089669e-16
8.432519525e-16
8.459291958e-16
8.487274458e-16
8.640993608e-16
8.821662816e-16
8.45632644e-16
8.520612703e-16
8.499591468e-16
8.686920973e-16
8.833938108e-16
8.883299384e-16
8.801387523e-16
8.156172017e-16
8.223893249e-16
8.538432303e-16
8.782001864e-16
8.371410302e-16
8.120628561e-16
8.966463998e-16
8.420981502e-16
8.247172841e-16
7.655893964e-16
8.426717997e-16
8.099349084e-16
8.371654743e-16
8.391247298e-16
8.169683938e-16
8.428801271e-16
8.117014217e-16
8.336221972e-16
8.107422998e-16
8.267698238e-16
8.655790592e-16
8.518399843e-16
8.643283387e-16
8.374862945e-16
8.573405406e-16
8.383158708e-16
8.438354202e-16
8.390277757e-16
8.546521169e-16
8.422623369e-16
8.648141174e-16
8.457453242e-16
8.751450762e-16
9.272748215e-16
8.741073468e-16
8.540330175e-16
8.545333053e-16
8.33160648e-16
8.724845084e-16
8.701273105e-16
8.884566199e-16
8.822514257e-16
8.560180899e-16
8.429329588e-16
8.444454366e-16
8.590947508e-16
8.287457619e-16
8.498989622e-16
9.144009051e-16
8.594321238e-16
8.347436187e-16
8.346559433e-16
8.565202042e-16
8.419517496e-16
8.499509296e-16
8.456680714e-16
9.13142905e-16
8.394248644e-16
8.643817214e-16
8.722623998e-16
8.593457713e-16
8.898765933e-16
8.657056971e-16
8.542938718e-16
8.360731126e-16
8.647313842e-16
8.612491667e-16
8.570543102e-16
8.744818396e-16
8.551148406e-16
8.378282043e-16
8.842872259e-16
8.352144841e-16
8.763675617e-16
8.60075887e-16
8.702942852e-16
8.607595987e-16
8.503610339e-16
8.384376389e-16
8.722535849e-16
8.396941798e-16
8.838678211e-16
8.281575861e-16
8.506108921e-16
8.750221362e-16
8.331998613e-16
8.536797115e-16
9.046214106e-16
8.389650305e-16
8.521103109e-16
8.481638933e-16
8.4358461e-16
8.919936155e-16
8.866787129e-16
8.267038445e-16
8.432975863e-16
8.530790328e-16
8.563317853e-16
8.257831083e-16
8.839112882e-16
8.125342266e-16
8.461822696e-16
8.484907865e-16
8.128455013e-16
8.291024024e-16
8.069061821e-16
8.104980344e-16
8.224252903e-16
8.265555451e-16
8.12777023e-16
8.132169779e-16
8.443287158e-16
8.610022128e-16
8.575136519e-16
8.624971312e-16
8.556765755e-16
8.321414686e-16
8.4452743e-16
8.337339391e-16
8.279899906e-16
8.144962383e-16
8.245359024e-16
8.839058392e-16
8.879187919e-16
8.487747861e-16
8.77089571e-16
8.284809667e-16
8.384366998e-16
8.148684408e-16
8.643252021e-16
8.481840668e-16
8.257235249e-16
8.232127078e-16
8.648369354e-16
8.675777451e-16
8.547332093e-16
8.748226946e-16
8.77584654e-16
8.758741599e-16
8.402795982e-16
8.296426917e-16
8.359525995e-16
8.398321594e-16
8.431398575e-16
8.770667839e-16
8.432754645e-16
8.606364478e-16
8.38568892e-16
8.213986183e-16
8.579780617e-16
8.618818081e-16
8.642803363e-16
8.577523584e-16
8.729288394e-16
9.085339386e-16
8.328853762e-16
8.671343575e-16
8.890948628e-16
8.480588401e-16
8.251558173e-16
8.36341335e-16
8.703606342e-16
8.545286443e-16
8.758657449e-16
8.585121627e-16
8.690195133e-16
8.373254384e-16
8.440899538e-16
8.854308094e-16
8.722617582e-16
8.679436745e-16
8.735549518e-16
8.566680477e-16
8.519993533e-16
8.445907323e-16
8.296431708e-16
9.122596336e-16
8.396188105e-16
8.389749688e-16
8.415144197e-16
8.276237379e-16
8.45675922e-16
8.424044224e-16
8.501186403e-16
8.215546441e-16
8.336146374e-16
8.470403288e-16
8.304768913e-16
8.235732472e-16
8.367347766e-16
8.573399818e-16
8.417224809e-16
8.830703343e-16
8.476342432e-16
8.257526873e-16
8.759096251e-16
8.206521998e-16
8.218722666e-16
8.205782735e-16
7.887814994e-16
8.053461801e-16
8.173134541e-16
8.216638334e-16
8.268653008e-16
8.713032009e-16
8.614905545e-16
8.141823818e-16
8.224101382e-16
8.332221849e-16
8.180927191e-16
8.699837602e-16
8.028587816e-16
8.616868149e-16
8.473114515e-16
8.408727006e-16
8.137235433e-16
8.496018537e-16
8.284193038e-16
8.285736074e-16
8.17446906e-16
8.65977943e-16
8.473952748e-16
8.592334325e-16
8.712596107e-16
8.290611491e-16
8.66400768e-16
8.41559727e-16
8.367176151e-16
8.470745824e-16
8.477798165e-16
8.391425162e-16
8.451148181e-16
8.949327208e-16
8.15119561e-16
8.448026407e-16
8.636454242e-16
8.395998805e-16
8.357841194e-16
8.239150629e-16
8.848101982e-16
8.53439341e-16
8.352891588e-16
8.531929124e-16
8.922054636e-16
8.3719352e-16
8.632943113e-16
8.593074488e-16
8.346284784e-16
9.076793306e-16
8.510105721e-16
8.56211458e-16
8.447505862e-16
8.636763356e-16
8.481525388e-16
8.448714027e-16
8.278438591e-16
8.607362651e-16
8.487278033e-16
8.28598166e-16
8.221964315e-16
8.951503625e-16
8.556062096e-16
8.469443199e-16
8.280003967e-16
8.497796862e-16
8.470010839e-16
8.445680491e-16
8.907044766e-16
8.529820961e-16
8.551503941e-16
8.558804522e-16
8.471346386e-16
8.718347793e-16
8.313159147e-16
8.419186405e-16
8.340977609e-16
8.256403476e-16
8.342479069e-16
8.445029048e-16
8.527291352e-16
8.302611103e-16
8.412114131e-16
8.607064816e-16
8.333441406e-16
8.531653181e-16
8.353112072e-16
8.360999756e-16
8.557327035e-16
8.754488776e-16
8.172871585e-16
8.740714055e-16
8.085037515e-16
8.311348289e-16
8.10552932e-16
8.128301401e-16
8.050674378e-16
8.250812843e-16
8.368617243e-16
8.297620091e-16
8.349376656e-16
8.31833656e-16
8.165928359e-16
8.048639623e-16
8.006354964e-16
8.205344782e-16
8.011693307e-16
8.498286985e-16
8.567244947e-16
7.955874789e-16
8.291220722e-16
8.273306776e-16
8.182504048e-16
8.745801303e-16
8.021919284e-16
8.298359332e-16
9.200818507e-16
8.283933723e-16
8.709576557e-16
8.283455289e-16
8.306657977e-16
8.445431146e-16
8.674919785e-16
8.219171346e-16
8.764156252e-16
8.486371946e-16
8.462743235e-16
8.248695359e-16
8.551131153e-16
8.438675581e-16
8.307070537e-16
8.647726213e-16
8.588363886e-16
8.486266292e-16
8.461915098e-16
8.754805704e-16
8.549779288e-16
8.529145035e-16
8.812891727e-16
8.560114559e-16
8.47120346e-16
8.316947775e-16
8.557176569e-16
8.381859083e-16
8.313690414e-16
8.341320244e-16
8.722906952e-16
8.379778487e-16
8.613780052e-16
8.469379184e-16
8.157623405e-16
8.478207109e-16
8.393982211e-16
8.809349213e-16
8.338228947e-16
8.33981602e-16
8.66318042e-16
8.489817981e-16
8.29183676e-16
8.478019975e-16
8.563281469e-16
8.643987934e-16
8.228490394e-16
8.395032496e-16
8.7193301e-16
8.459667023e-16
8.544542568e-16
9.075053154e-16
8.605397535e-16
8.487869127e-16
8.395074413e-16
8.531345735e-16
8.635282564e-16
8.443323037e-16
8.538125858e-16
8.654110945e-16
8.439404171e-16
9.301060692e-16
8.361301539e-16
8.759005528e-16
8.318035207e-16
8.212633156e-16
8.478533415e-16
8.926510322e-16
8.201098546e-16
8.303467473e-16
8.546245177e-16
8.258995189e-16
8.450847513e-16
8.037900003e-16
8.251569591e-16
8.1526413e-16
8.079771707e-16
8.148695552e-16
7.950528466e-16
8.144020087e-16
8.16438615e-16
8.644483628e-16
8.391083969e-16
8.374016957e-16
8.340960836e-16
8.31283698e-16
8.284176033e-16
8.33414892e-16
8.266992117e-16
8.07576447e-16
8.382839582e-16
8.267915606e-16
8.410476822e-16
8.22427359e-16
8.606948147e-16
8.886605616e-16
8.312923246e-16
8.306654825e-16
8.568664707e-16
8.258065448e-16
8.423849317e-16
8.440441904e-16
8.273569165e-16
8.313824134e-16
8.258281316e-16
8.214333763e-16
8.595666402e-16
8.319092021e-16
8.321396144e-16
8.612533648e-16
8.415794338e-16
8.327152255e-16
8.171103408e-16
8.284496941e-16
8.364668403e-16
8.439269353e-16
8.786287543e-16
8.417437267e-16
8.960944412e-16
8.42942693e-16
8.424796117e-16
8.279151962e-16
8.514965656e-16
8.200055561e-16
8.248447425e-16
8.411258901e-16
8.279512353e-16
8.39211233e-16
8.360321598e-16
8.401966128e-16
8.544369586e-16
8.454954295e-16
8.54246351e-16
8.309477127e-16
8.340678044e-16
8.545029846e-16
8.50926735e-16
8.327149708e-16
8.763095502e-16
8.498064716e-16
8.4214755e-16
8.825194996e-16
8.444241102e-16
8.699306542e-16
8.475477854e-16
8.908614772e-16
8.324745956e-16
8.639827667e-16
8.871735027e-16
8.735012457e-16
8.399537875e-16
8.645546207e-16
8.500590739e-16
8.537154624e-16
8.464575821e-16
8.349996597e-16
8.284169302e-16
8.266596166e-16
8.434889498e-16
8.111837835e-16
8.663459773e-16
8.371031524e-16
8.421613234e-16
8.458257167e-16
8.320812357e-16
8.401664377e-16
8.203682325e-16
8.258006941e-16
8.064013273e-16
7.875272011e-16
7.895217849e-16
8.036242429e-16
8.143752961e-16
7.905952558e-16
7.588056384e-16
8.481258139e-16
8.268359049e-16
7.915381734e-16
8.12023366e-16
7.863086455e-16
8.349915379e-16
7.972056388e-16
8.733719796e-16
8.585207704e-16
8.009375249e-16
8.111446473e-16
8.649253458e-16
8.699359505e-16
8.234447711e-16
8.237960133e-16
7.995811655e-16
8.168542238e-16
8.090114466e-16
8.492669623e-16
8.140065907e-16
8.281795818e-16
8.373130152e-16
7.975231426e-16
8.088305245e-16
8.54448941e-16
8.385480269e-16
8.02478763e-16
8.405089252e-16
8.550656256e-16
8.259387167e-16
8.253334249e-16
8.048803141e-16
8.421752471e-16
8.542007118e-16
8.402787733e-16
8.126955491e-16
8.567564312e-16
8.235000751e-16
8.368931634e-16
8.500926639e-16
8.1832252e-16
8.484483619e-16
8.649290128e-16
8.533536756e-16
8.565268394e-16
8.393107655e-16
8.234526563e-16
8.485493326e-16
8.550686132e-16
8.376906895e-16
8.960048234e-16
8.509843854e-16
8.224088354e-16
8.614047388e-16
9.177620074e-16
8.918595351e-16
8.662981361e-16
8.975552922e-16
8.354536011e-16
8.247707049e-16
8.599504912e-16
8.472500534e-16
8.315837869e-16
8.740638076e-16
8.449685563e-16
8.493314157e-16
8.450758144e-16
8.550890181e-16
8.337045795e-16
8.687900331e-16
8.461743271e-16
8.467994312e-16
8.26460729e-16
8.658886152e-16
8.467622185e-16
8.285912977e-16
8.347694088e-16
8.820597238e-16
8.675318861e-16
8.093169876e-16
8.414463719e-16
8.667545559e-16
8.279868939e-16
8.305721983e-16
8.339777269e-16
8.5501095e-16
8.359913122e-16
8.783524157e-16
8.086199236e-16
7.940284372e-16
7.842600228e-16
7.875015364e-16
7.816873859e-16
8.076718729e-16
7.947786279e-16
7.786731683e-16
8.42913353e-16
8.150511327e-16
8.40344352e-16
7.899001003e-16
8.293568292e-16
8.071712118e-16
8.103040019e-16
7.91441577e-16
7.9353742e-16
7.888499856e-16
8.150140929e-16
8.108806495e-16
8.388882215e-16
8.171326638e-16
8.143421161e-16
8.631298723e-16
8.168866829e-16
7.997933494e-16
8.677353175e-16
8.060480186e-16
8.321155644e-16
8.325410455e-16
8.096871001e-16
8.298451428e-16
8.085725245e-16
8.10907074e-16
8.248388837e-16
8.177258197e-16
8.103614759e-16
8.065369385e-16
8.498006277e-16
8.094833961e-16
8.193120525e-16
8.474238485e-16
8.521148149e-16
8.198892487e-16
8.263870819e-16
8.361336729e-16
8.182100171e-16
8.347268751e-16
8.230266606e-16
8.40304285e-16
8.457321692e-16
8.71568038e-16
8.7277011e-16
8.728957937e-16
8.215014463e-16
8.224757352e-16
8.646999046e-16
8.423291482e-16
8.381306654e-16
8.321579851e-16
8.312222684e-16
8.525154508e-16
8.619245168e-16
8.384224083e-16
8.328368885e-16
8.647923601e-16
8.368954084e-16
8.387902656e-16
8.328228806e-16
8.303498137e-16
8.333723171e-16
8.707717018e-16
8.186879631e-16
8.433306749e-16
8.512674508e-16
8.376355846e-16
8.734440579e-16
8.271905044e-16
8.487339947e-16
8.610695364e-16
8.547056616e-16
8.850875347e-16
8.687389898e-16
8.352351936e-16
8.285586326e-16
8.320168543e-16
8.310580351e-16
8.356447223e-16
8.443789354e-16
8.261774564e-16
8.398960435e-16
8.156627155e-16
8.239269412e-16
8.501504919e-16
7.842984701e-16
8.215417841e-16
8.021866765e-16
7.742759779e-16
7.664968868e-16
8.068719545e-16
7.95204471e-16
7.881198904e-16
7.861144008e-16
7.824968345e-16
7.899391541e-16
8.363757196e-16
8.052042473e-16
7.853013483e-16
8.183232017e-16
8.208355191e-16
8.27644752e-16
8.303687542e-16
8.01374188e-16
7.905321345e-16
7.692931678e-16
8.216049264e-16
8.275315626e-16
8.43287524e-16
8.005831507e-16
8.495381399e-16
8.524227764e-16
8.101938666e-16
8.452848654e-16
8.089303175e-16
8.183731508e-16
8.026664579e-16
8.580957072e-16
8.177607666e-16
8.129971602e-16
8.210602623e-16
8.142628078e-16
8.028265919e-16
8.21130038e-16
8.521250358e-16
8.600515421e-16
8.381396621e-16
8.322806421e-16
8.105352972e-16
8.346865981e-16
8.422979804e-16
8.589032417e-16
8.434407132e-16
8.586455681e-16
8.370279411e-16
8.123225852e-16
8.330411499e-16
8.317594722e-16
8.263845031e-16
8.33636808e-16
8.294475873e-16
8.139720978e-16
8.480733511e-16
8.226758099e-16
8.56660815e-16
8.749290331e-16
8.394914327e-16
8.434226506e-16
8.649563098e-16
8.526463397e-16
8.2772555e-16
8.090444567e-16
8.096351453e-16
8.516938006e-16
8.240747516e-16
8.785377992e-16
8.19344985e-16
8.542307998e-16
8.239653326e-16
8.446666381e-16
8.21390772e-16
8.463879688e-16
8.914428864e-16
8.585079579e-16
8.363929282e-16
8.195085103e-16
8.69378326e-16
8.425692008e-16
8.614902974e-16
8.454556102e-16
8.264497281e-16
8.22824442e-16
8.313234618e-16
8.411966197e-16
8.176065206e-16
8.355236995e-16
8.520308666e-16
8.14588653e-16
8.777866287e-16
8.237029275e-16
7.967705644e-16
8.233358853e-16
7.886579698e-16
7.686943245e-16
8.056738774e-16
8.141423311e-16
8.029693298e-16
7.924482861e-16
7.768166571e-16
8.009824178e-16
7.96299884e-16
7.907761806e-16
7.882763287e-16
8.350542636e-16
8.006549867e-16
7.908664879e-16
8.078688168e-16
8.28428985e-16
8.079934762e-16
8.079696895e-16
7.82581198e-16
8.155631839e-16
7.902047233e-16
7.897157528e-16
8.171170305e-16
8.342335128e-16
7.762597774e-16
8.03611564e-16
8.700037309e-16
8.268640051e-16
8.175484125e-16
8.493027589e-16
7.89510652e-16
8.254552149e-16
7.993482543e-16
8.274133908e-16
7.95439059e-16
8.61378081e-16
8.063823107e-16
8.225177749e-16
8.309196941e-16
8.671402075e-16
8.096647312e-16
8.569095128e-16
8.762983766e-16
8.170272423e-16
8.030141285e-16
8.279445095e-16
8.35259781e-16
8.405260733e-16
8.134556308e-16
8.40781495e-16
8.188588643e-16
8.207706103e-16
8.112461636e-16
8.62926422e-16
8.483903387e-16
8.328126533e-16
8.058729437e-16
8.371242488e-16
8.446264849e-16
8.423756611e-16
8.361289759e-16
8.693208502e-16
8.591690314e-16
8.649993505e-16
8.139326342e-16
8.232208762e-16
8.351605964e-16
8.434591062e-16
8.240929339e-16
8.468971986e-16
9.249155769e-16
8.449540066e-16
8.243757617e-16
8.365449708e-16
8.299959246e-16
8.350298704e-16
8.333220079e-16
8.218089008e-16
8.639008362e-16
8.183606718e-16
8.451865435e-16
8.223585456e-16
8.412180028e-16
8.369028755e-16
8.4178707e-16
8.336204118e-16
8.048761336e-16
8.150291176e-16
8.488330838e-16
8.346657325e-16
8.357910227e-16
8.173805721e-16
8.653865711e-16
8.16724445e-16
8.409949274e-16
8.143455913e-16
7.423691639e-16
7.459880993e-16
7.52591765e-16
8.181635641e-16
7.681950045e-16
7.980064398e-16
8.383019622e-16
7.652939318e-16
8.097336096e-16
7.908411314e-16
8.128953036e-16
7.644489785e-16
8.046595712e-16
8.152758092e-16
8.056045714e-16
8.369704871e-16
7.93422139e-16
7.719604127e-16
8.134983373e-16
7.806039733e-16
8.450845602e-16
7.884714878e-16
8.625133764e-16
7.750843494e-16
8.146307459e-16
8.07768679e-16
8.002206054e-16
8.08064886e-16
8.151086765e-16
8.331678885e-16
8.791968629e-16
8.137679749e-16
8.436048273e-16
8.008501688e-16
8.017633689e-16
8.113775845e-16
8.529868986e-16
8.816401324e-16
8.174145469e-16
8.292583265e-16
8.126723352e-16
7.85328408e-16
7.991706403e-16
8.228814592e-16
8.309009944e-16
7.970131301e-16
8.427321719e-16
8.102086015e-16
8.576361928e-16
8.514756324e-16
8.314644918e-16
8.487208725e-16
8.504823512e-16
9.339679461e-16
8.12467454e-16
8.415425297e-16
8.23542726e-16
8.144987504e-16
8.820898167e-16
8.551269571e-16
8.042109096e-16
8.33422469e-16
8.60550924e-16
8.737354142e-16
8.204481673e-16
8.292661379e-16
8.184443633e-16
8.443085229e-16
8.344279634e-16
8.272243023e-16
8.335043186e-16
8.14873072e-16
8.462369241e-16
8.343954434e-16
8.121654284e-16
8.595834487e-16
8.50223891e-16
8.275511681e-16
8.458930006e-16
8.469123334e-16
8.756506718e-16
8.356637034e-16
8.464593067e-16
8.680958404e-16
8.306729464e-16
8.64012643e-16
8.372172181e-16
8.635529388e-16
8.201537011e-16
8.221888358e-16
8.292224971e-16
8.196287293e-16
8.241048279e-16
8.007710813e-16
7.898475273e-16
7.806151594e-16
7.474927109e-16
7.758999755e-16
7.794172945e-16
7.736253285e-16
8.272254526e-16
8.193941596e-16
7.832367408e-16
7.985900614e-16
7.770546877e-16
7.919415197e-16
7.929644775e-16