/*--------------------------------*- C++ -*----------------------------------*\
| =========                 |                                                 |
| \\      /  F ield         | OpenFOAM: The Open Source CFD Toolbox           |
|  \\    /   O peration     | Version:  v1706                                 |
|   \\  /    A nd           | Web:      www.OpenFOAM.com                      |
|    \\/     M anipulation  |                                                 |
\*---------------------------------------------------------------------------*/
FoamFile
{
    version     2.0;
    format      ascii;
    class       volVectorField;
    location    "0.14";
    object      fD_N2cold;
}
// * * * * * * * * * * * * * * * * * * * * * * * * * * * * * * * * * * * * * //

dimensions      [1 -1 -2 0 0 0 0];


internalField   uniform (0 0 0);

boundaryField
{
    plate
    {
        type            calculated;
        value           nonuniform List<vector> 
95
(
(0.8305277082 -0.6612661273 0.001009911349)
(0.8466994173 -0.7471835159 -0.001305966009)
(0.8398809526 -0.7937218511 0.001454480672)
(0.8274201803 -0.8274572714 0.002200305023)
(0.8132484848 -0.8562634147 0.0006408625789)
(0.797064077 -0.8741550674 0.00144201171)
(0.776753861 -0.8951032439 0.002687187714)
(0.7577901509 -0.9004541483 -0.004900760449)
(0.7380417385 -0.9071610745 -0.003321113574)
(0.7182514851 -0.9123690395 0.000913314102)
(0.7012789168 -0.9178648482 0.0008723984163)
(0.6815766016 -0.9211343811 0.000597702446)
(0.660213235 -0.9112845964 0.001828469424)
(0.6441012079 -0.91812596 0.002402507362)
(0.6242805608 -0.9121466064 0.00117735018)
(0.6143425024 -0.9128419931 -0.0003575421413)
(0.6029598215 -0.920168182 0.002890639174)
(0.5809546935 -0.908500178 0.001972237102)
(0.5725958553 -0.9105054883 0.0009391359435)
(0.5545070322 -0.9007707039 0.002443072674)
(0.5432671277 -0.902539765 0.004388622289)
(0.5299226824 -0.8981713961 0.000907259282)
(0.5184038714 -0.8944333717 0.0004604712098)
(0.5086232996 -0.8944576789 -0.001276461363)
(0.502857571 -0.895097573 0.001388604067)
(0.4891871843 -0.8829063383 -0.0001459789992)
(0.4766000677 -0.8825457922 -0.00147521519)
(0.4667483294 -0.8741434846 -0.001246709644)
(0.4582488659 -0.8774419323 0.0008379481209)
(0.4500972839 -0.8681226116 -0.0006046050316)
(0.4381055817 -0.863826515 0.001653274257)
(0.4320447834 -0.8639564206 0.0009249437066)
(0.4279176936 -0.863539436 0.001123139231)
(0.4180295634 -0.8555578157 -0.0004079299366)
(0.4129585072 -0.8565544246 0.00143110224)
(0.4061488834 -0.8474869364 0.0007776117564)
(0.3999142111 -0.8504904545 -0.0005331050644)
(0.3906046284 -0.840071601 -0.0004085686252)
(0.383872788 -0.8414835872 -0.001148073069)
(0.3774916109 -0.8346076438 0.0002172985294)
(0.3725895514 -0.8317411034 -0.000128437531)
(0.3654273483 -0.8291448189 -0.0001585589032)
(0.3616738281 -0.8308163858 -0.001478401228)
(0.3558610391 -0.8268901978 0.001136199092)
(0.3500348676 -0.8198313985 -0.0002828605453)
(0.3482805945 -0.8176068212 -0.0006146456291)
(0.3408823581 -0.81736914 0.0004051518259)
(0.33348917 -0.8083870278 -0.0001235062085)
(0.3322104723 -0.8104979827 0.00209642587)
(0.3298069358 -0.8048174441 -0.001906120061)
(0.3212329815 -0.8002085662 -0.0002095992368)
(0.3203496865 -0.8018477395 0.0008483469777)
(0.3149718866 -0.797659097 0.0005355428169)
(0.3131005091 -0.7985475501 -5.005162278e-05)
(0.3062434849 -0.7911505024 -0.0009596916274)
(0.3041089155 -0.7918109451 0.00036538018)
(0.2981853663 -0.7826647621 -0.002447551242)
(0.2948564026 -0.7881151774 0.0009885396653)
(0.2928446629 -0.7819870409 -0.002169307349)
(0.2848460857 -0.7778181509 -0.0002314045835)
(0.2849067791 -0.7758641217 0.001838253097)
(0.2816944647 -0.7719440785 -0.0005007716445)
(0.2794015934 -0.7703589739 -0.0004319320365)
(0.2761672813 -0.7689433983 0.0004595340877)
(0.2716242029 -0.7689318783 0.00256532417)
(0.2671942521 -0.7657841358 -0.001750849599)
(0.2683405858 -0.7611793738 -0.0002393840895)
(0.2616009848 -0.7584325425 0.0009642894269)
(0.261015107 -0.7544582135 0.001332542342)
(0.2569588779 -0.7555655985 0.001192294918)
(0.2549574418 -0.7529106613 -0.002067068981)
(0.2539826176 -0.750389864 -0.0008180365806)
(0.2493792774 -0.7415437544 1.373083199e-05)
(0.2511928791 -0.7498575447 -0.002154578913)
(0.2480921925 -0.7446520157 0.001116681331)
(0.2426620978 -0.7385471408 0.0004628413306)
(0.2431039492 -0.7345679797 0.00138037731)
(0.2406701914 -0.7312165345 -0.001886018319)
(0.2362413883 -0.7286067554 -0.0007118470171)
(0.23490316 -0.7206421721 0.0008834914884)
(0.2333745667 -0.7231653793 0.002646288141)
(0.231845528 -0.7135854726 0.0005965295734)
(0.2326365782 -0.7081731809 -0.0003933376836)
(0.2323703635 -0.7033070367 -0.000456723997)
(0.2305874126 -0.6969538672 0.001021085601)
(0.2290658688 -0.6881823343 -1.522183294e-05)
(0.2324113297 -0.6807936154 0.002829487839)
(0.2259656054 -0.6667929264 0.002178740412)
(0.2303348048 -0.6574654723 0.0003879565262)
(0.231312842 -0.6412277389 0.0004381219411)
(0.2354230721 -0.6192025607 -0.0003697918146)
(0.2360043847 -0.5961531469 -0.001003407988)
(0.2407478879 -0.5676253554 -0.001429194534)
(0.2492767939 -0.5338922076 0.000297686164)
(0.2583962832 -0.4812664964 -8.491522654e-05)
)
;
    }
    inlet
    {
        type            calculated;
        value           uniform (0 0 0);
    }
    defaultFaces
    {
        type            calculated;
        value           nonuniform List<vector> 
12000
(
(0 0 -0.4152056915)
(0 0 -0.4150785931)
(0 0 -0.4151725873)
(0 0 -0.4160040683)
(0 0 -0.4172531381)
(0 0 -0.414910707)
(0 0 -0.4152554444)
(0 0 -0.4147133474)
(0 0 -0.4142486927)
(0 0 -0.4139638249)
(0 0 -0.4148349889)
(0 0 -0.4148673285)
(0 0 -0.4152439214)
(0 0 -0.4155777306)
(0 0 -0.4138332286)
(0 0 -0.4144176019)
(0 0 -0.4143286117)
(0 0 -0.4147751075)
(0 0 -0.4129924463)
(0 0 -0.4139604157)
(0 0 -0.4133287219)
(0 0 -0.4140045144)
(0 0 -0.4137755627)
(0 0 -0.4136497516)
(0 0 -0.4147764103)
(0 0 -0.4148876227)
(0 0 -0.4140526332)
(0 0 -0.4141637502)
(0 0 -0.4133783639)
(0 0 -0.4141913467)
(0 0 -0.4144082851)
(0 0 -0.4129405875)
(0 0 -0.4135743258)
(0 0 -0.4135079055)
(0 0 -0.4146064292)
(0 0 -0.4136470837)
(0 0 -0.4141698354)
(0 0 -0.4142624718)
(0 0 -0.4136900125)
(0 0 -0.411983802)
(0 0 -0.4143405795)
(0 0 -0.4140536215)
(0 0 -0.414303049)
(0 0 -0.4136100852)
(0 0 -0.4141121131)
(0 0 -0.4134948727)
(0 0 -0.414935364)
(0 0 -0.4144371867)
(0 0 -0.4137104696)
(0 0 -0.4135740185)
(0 0 -0.4145677433)
(0 0 -0.4146299281)
(0 0 -0.4148288368)
(0 0 -0.4143863852)
(0 0 -0.4140533297)
(0 0 -0.4155693471)
(0 0 -0.4147503584)
(0 0 -0.4138607896)
(0 0 -0.4147884253)
(0 0 -0.4144599062)
(0 0 -0.4181315028)
(0 0 -0.419199932)
(0 0 -0.4204763253)
(0 0 -0.4208792803)
(0 0 -0.4201061103)
(0 0 -0.4180825571)
(0 0 -0.4180341214)
(0 0 -0.4163068958)
(0 0 -0.41582152)
(0 0 -0.4155759202)
(0 0 -0.4164287346)
(0 0 -0.4144896709)
(0 0 -0.4158295162)
(0 0 -0.4158234678)
(0 0 -0.4141852414)
(0 0 -0.4152606562)
(0 0 -0.4150533864)
(0 0 -0.4144032902)
(0 0 -0.4124502641)
(0 0 -0.4143961271)
(0 0 -0.4136492252)
(0 0 -0.414342948)
(0 0 -0.4142403727)
(0 0 -0.4140965113)
(0 0 -0.4147303458)
(0 0 -0.4152281784)
(0 0 -0.4134743831)
(0 0 -0.4154413358)
(0 0 -0.4134840438)
(0 0 -0.4150951447)
(0 0 -0.4142041397)
(0 0 -0.4129799853)
(0 0 -0.4136388009)
(0 0 -0.4140351544)
(0 0 -0.4157195222)
(0 0 -0.4139685631)
(0 0 -0.4143962493)
(0 0 -0.4141660718)
(0 0 -0.4135272757)
(0 0 -0.4124889399)
(0 0 -0.4148635843)
(0 0 -0.4142576928)
(0 0 -0.4139115322)
(0 0 -0.4143002611)
(0 0 -0.4140594709)
(0 0 -0.413861538)
(0 0 -0.4146773826)
(0 0 -0.4155536606)
(0 0 -0.4128854733)
(0 0 -0.4134678454)
(0 0 -0.414194676)
(0 0 -0.4143996457)
(0 0 -0.4144112324)
(0 0 -0.414919372)
(0 0 -0.4139935527)
(0 0 -0.415467933)
(0 0 -0.4150384864)
(0 0 -0.4140018496)
(0 0 -0.4149783496)
(0 0 -0.414742634)
(0 0 -0.4255096327)
(0 0 -0.4290249178)
(0 0 -0.4330013252)
(0 0 -0.4301370013)
(0 0 -0.4273199996)
(0 0 -0.4245235308)
(0 0 -0.4216015031)
(0 0 -0.4203649618)
(0 0 -0.4180749029)
(0 0 -0.418629242)
(0 0 -0.4164549977)
(0 0 -0.4157618225)
(0 0 -0.4161565744)
(0 0 -0.4165642585)
(0 0 -0.4146479033)
(0 0 -0.4152983306)
(0 0 -0.4155376417)
(0 0 -0.4143240213)
(0 0 -0.4126055417)
(0 0 -0.4137265091)
(0 0 -0.413993788)
(0 0 -0.413803645)
(0 0 -0.4148201223)
(0 0 -0.4150743056)
(0 0 -0.4148497982)
(0 0 -0.4150741589)
(0 0 -0.414076414)
(0 0 -0.4144004762)
(0 0 -0.4138495328)
(0 0 -0.4154917544)
(0 0 -0.4137650405)
(0 0 -0.413751822)
(0 0 -0.4140518277)
(0 0 -0.4140989891)
(0 0 -0.4143301062)
(0 0 -0.4146339515)
(0 0 -0.4145515714)
(0 0 -0.4143479895)
(0 0 -0.4137914788)
(0 0 -0.4142283695)
(0 0 -0.4141696242)
(0 0 -0.4144741555)
(0 0 -0.4144370956)
(0 0 -0.4139543092)
(0 0 -0.4142697835)
(0 0 -0.4134155998)
(0 0 -0.414712446)
(0 0 -0.4156958668)
(0 0 -0.4135587053)
(0 0 -0.4144450304)
(0 0 -0.4139312114)
(0 0 -0.4135562738)
(0 0 -0.4143096822)
(0 0 -0.41466076)
(0 0 -0.4145713709)
(0 0 -0.4151485506)
(0 0 -0.4146627669)
(0 0 -0.4146050207)
(0 0 -0.4139015365)
(0 0 -0.414252772)
(0 0 -0.4455784884)
(0 0 -0.4576161501)
(0 0 -0.4565020387)
(0 0 -0.4494150346)
(0 0 -0.4412545894)
(0 0 -0.4322748861)
(0 0 -0.4281483484)
(0 0 -0.424436158)
(0 0 -0.4226115938)
(0 0 -0.4201151024)
(0 0 -0.4190070784)
(0 0 -0.4173511136)
(0 0 -0.4175158539)
(0 0 -0.4161792882)
(0 0 -0.4153728793)
(0 0 -0.415453859)
(0 0 -0.4158157078)
(0 0 -0.4143725935)
(0 0 -0.4134800989)
(0 0 -0.4134159691)
(0 0 -0.4144870114)
(0 0 -0.4133287202)
(0 0 -0.4142897601)
(0 0 -0.4146908254)
(0 0 -0.4143876109)
(0 0 -0.4147029813)
(0 0 -0.4145715906)
(0 0 -0.4142855673)
(0 0 -0.415011161)
(0 0 -0.4142179379)
(0 0 -0.4130166076)
(0 0 -0.4144637456)
(0 0 -0.4140467519)
(0 0 -0.4140506689)
(0 0 -0.4142955232)
(0 0 -0.4151034578)
(0 0 -0.4144417172)
(0 0 -0.4143118311)
(0 0 -0.4137670812)
(0 0 -0.4143098695)
(0 0 -0.4145370204)
(0 0 -0.4133886657)
(0 0 -0.4147465308)
(0 0 -0.4146794354)
(0 0 -0.4130416462)
(0 0 -0.4143901089)
(0 0 -0.4145882573)
(0 0 -0.4158698941)
(0 0 -0.4132904966)
(0 0 -0.4150727896)
(0 0 -0.4139510304)
(0 0 -0.4141400755)
(0 0 -0.4149937237)
(0 0 -0.414848257)
(0 0 -0.4146525504)
(0 0 -0.4147266979)
(0 0 -0.4151915305)
(0 0 -0.4149543373)
(0 0 -0.4141080606)
(0 0 -0.4140432005)
(0 0 -0.530805909)
(0 0 -0.5324504857)
(0 0 -0.5040642954)
(0 0 -0.479172158)
(0 0 -0.4614321354)
(0 0 -0.4462163054)
(0 0 -0.4369472297)
(0 0 -0.431253411)
(0 0 -0.4267136155)
(0 0 -0.4226117735)
(0 0 -0.4212938776)
(0 0 -0.4204445694)
(0 0 -0.4175060534)
(0 0 -0.416711298)
(0 0 -0.4175245442)
(0 0 -0.4155488789)
(0 0 -0.4154339373)
(0 0 -0.4129910713)
(0 0 -0.4144239018)
(0 0 -0.4148679824)
(0 0 -0.4145585881)
(0 0 -0.4126284974)
(0 0 -0.414872575)
(0 0 -0.4139584936)
(0 0 -0.4147610714)
(0 0 -0.414867899)
(0 0 -0.4154041147)
(0 0 -0.4134469585)
(0 0 -0.4141019717)
(0 0 -0.4136028789)
(0 0 -0.4128155225)
(0 0 -0.4141611648)
(0 0 -0.4142413752)
(0 0 -0.4142210907)
(0 0 -0.413658204)
(0 0 -0.4153035105)
(0 0 -0.4140756202)
(0 0 -0.4141710176)
(0 0 -0.4135167033)
(0 0 -0.4147494041)
(0 0 -0.41473039)
(0 0 -0.4129877245)
(0 0 -0.4149046947)
(0 0 -0.4153310974)
(0 0 -0.4135615666)
(0 0 -0.4141652872)
(0 0 -0.4150139959)
(0 0 -0.4155174201)
(0 0 -0.4134369795)
(0 0 -0.4150441293)
(0 0 -0.414517178)
(0 0 -0.4139645149)
(0 0 -0.4141997717)
(0 0 -0.4147196278)
(0 0 -0.41464228)
(0 0 -0.4143122106)
(0 0 -0.4147402358)
(0 0 -0.4146971106)
(0 0 -0.4139871782)
(0 0 -0.4141418102)
(0 0 0.4150758156)
(0 0 0.4150235024)
(0 0 0.415260899)
(0 0 0.4162496256)
(0 0 0.41744981)
(0 0 0.4149124552)
(0 0 0.4151970533)
(0 0 0.4148368861)
(0 0 0.4142410611)
(0 0 0.4136728967)
(0 0 0.41511277)
(0 0 0.4148781401)
(0 0 0.4152733128)
(0 0 0.4155887981)
(0 0 0.4137886003)
(0 0 0.4149287539)
(0 0 0.414505859)
(0 0 0.4144765599)
(0 0 0.4131249291)
(0 0 0.4140454498)
(0 0 0.4132021407)
(0 0 0.4141090327)
(0 0 0.4133535814)
(0 0 0.4134573958)
(0 0 0.4147322499)
(0 0 0.4146288482)
(0 0 0.4140675523)
(0 0 0.4144311192)
(0 0 0.4134489888)
(0 0 0.4140815798)
(0 0 0.4143758293)
(0 0 0.4126244555)
(0 0 0.413765343)
(0 0 0.41361897)
(0 0 0.4146796523)
(0 0 0.4133679974)
(0 0 0.4140700016)
(0 0 0.4143124897)
(0 0 0.4137094269)
(0 0 0.4122640574)
(0 0 0.4139956956)
(0 0 0.4144789408)
(0 0 0.4142527013)
(0 0 0.4139200608)
(0 0 0.4140936209)
(0 0 0.413309945)
(0 0 0.4150640149)
(0 0 0.4143929984)
(0 0 0.4138008338)
(0 0 0.4133347094)
(0 0 0.4149348991)
(0 0 0.4144646091)
(0 0 0.4147560916)
(0 0 0.4146872034)
(0 0 0.4140020232)
(0 0 0.4152189512)
(0 0 0.4152458542)
(0 0 0.4136076947)
(0 0 0.4146124215)
(0 0 0.4145762337)
(0 0 0.4183793196)
(0 0 0.4191797288)
(0 0 0.4200483845)
(0 0 0.4210040896)
(0 0 0.4200558148)
(0 0 0.4182959771)
(0 0 0.4177297724)
(0 0 0.4162871674)
(0 0 0.4154840349)
(0 0 0.4161700935)
(0 0 0.4163006606)
(0 0 0.4146806303)
(0 0 0.4156490329)
(0 0 0.4160366755)
(0 0 0.4136826328)
(0 0 0.4147294439)
(0 0 0.4149683104)
(0 0 0.4147708615)
(0 0 0.4123031569)
(0 0 0.4146045889)
(0 0 0.4135364217)
(0 0 0.4144706332)
(0 0 0.4146706343)
(0 0 0.4140028989)
(0 0 0.4147028128)
(0 0 0.4154366262)
(0 0 0.413304578)
(0 0 0.4152127429)
(0 0 0.4132680995)
(0 0 0.4152307317)
(0 0 0.4140436184)
(0 0 0.4132123055)
(0 0 0.413393641)
(0 0 0.4140426836)
(0 0 0.4154376493)
(0 0 0.4142210337)
(0 0 0.4146750512)
(0 0 0.4139707692)
(0 0 0.4132671245)
(0 0 0.4128991547)
(0 0 0.414763825)
(0 0 0.4140405173)
(0 0 0.4138554115)
(0 0 0.4141291105)
(0 0 0.413965379)
(0 0 0.4134102688)
(0 0 0.4146263913)
(0 0 0.4153834583)
(0 0 0.4130042174)
(0 0 0.413540557)
(0 0 0.4143648877)
(0 0 0.4140777285)
(0 0 0.4147226819)
(0 0 0.4148186291)
(0 0 0.4139057191)
(0 0 0.4157021842)
(0 0 0.4147760792)
(0 0 0.4139863522)
(0 0 0.4150187285)
(0 0 0.4146599656)
(0 0 0.4248725572)
(0 0 0.4292736676)
(0 0 0.4326061857)
(0 0 0.4297350916)
(0 0 0.4275282704)
(0 0 0.4245112601)
(0 0 0.4214689319)
(0 0 0.4201917769)
(0 0 0.4182307319)
(0 0 0.4184239691)
(0 0 0.4164101812)
(0 0 0.4157091895)
(0 0 0.4163386871)
(0 0 0.4163502064)
(0 0 0.415201602)
(0 0 0.4158530951)
(0 0 0.415525923)
(0 0 0.4145046221)
(0 0 0.4128791883)
(0 0 0.4135629256)
(0 0 0.4141572926)
(0 0 0.4139911844)
(0 0 0.4142169555)
(0 0 0.4147738658)
(0 0 0.4148287014)
(0 0 0.4150355149)
(0 0 0.4141933143)
(0 0 0.4145670335)
(0 0 0.4140763491)
(0 0 0.4157237246)
(0 0 0.4134355831)
(0 0 0.4139837508)
(0 0 0.4141295115)
(0 0 0.4139721656)
(0 0 0.4146294511)
(0 0 0.4145627255)
(0 0 0.4145754652)
(0 0 0.414458466)
(0 0 0.4139345624)
(0 0 0.4134456223)
(0 0 0.414183656)
(0 0 0.4141757624)
(0 0 0.4143113448)
(0 0 0.4142766525)
(0 0 0.4141154458)
(0 0 0.4139252626)
(0 0 0.4144731864)
(0 0 0.4156160169)
(0 0 0.4133404283)
(0 0 0.4139823542)
(0 0 0.4142151511)
(0 0 0.413689231)
(0 0 0.4144516078)
(0 0 0.4145689748)
(0 0 0.4144836243)
(0 0 0.4150588399)
(0 0 0.4147239775)
(0 0 0.4147959764)
(0 0 0.4141214447)
(0 0 0.4143673923)
(0 0 0.4462487543)
(0 0 0.4570545019)
(0 0 0.4567943426)
(0 0 0.4496342992)
(0 0 0.4408650502)
(0 0 0.4332305742)
(0 0 0.4279504786)
(0 0 0.424600681)
(0 0 0.4218957665)
(0 0 0.4200308729)
(0 0 0.4190436378)
(0 0 0.4176357749)
(0 0 0.4172803636)
(0 0 0.4160627379)
(0 0 0.4153244454)
(0 0 0.4153666066)
(0 0 0.4159955704)
(0 0 0.4140753425)
(0 0 0.4133623322)
(0 0 0.4137267021)
(0 0 0.4146505975)
(0 0 0.4129092594)
(0 0 0.414554481)
(0 0 0.4149985046)
(0 0 0.4143080101)
(0 0 0.4144238815)
(0 0 0.4149336813)
(0 0 0.4140164868)
(0 0 0.4141115308)
(0 0 0.4141082821)
(0 0 0.4133098359)
(0 0 0.4139242762)
(0 0 0.4141921224)
(0 0 0.4139783813)
(0 0 0.4141895007)
(0 0 0.415294714)
(0 0 0.4145653512)
(0 0 0.4141243068)
(0 0 0.4137680863)
(0 0 0.4143152836)
(0 0 0.4147249131)
(0 0 0.4134527523)
(0 0 0.4147783985)
(0 0 0.415049097)
(0 0 0.4133901085)
(0 0 0.4139926266)
(0 0 0.4144673707)
(0 0 0.4162582393)
(0 0 0.4133557801)
(0 0 0.4147498409)
(0 0 0.4142344763)
(0 0 0.4136816799)
(0 0 0.4144679999)
(0 0 0.4147812018)
(0 0 0.4142713602)
(0 0 0.4146253218)
(0 0 0.4147915117)
(0 0 0.414706509)
(0 0 0.413880688)
(0 0 0.4141836067)
(0 0 0.5306919662)
(0 0 0.5326612089)
(0 0 0.5045723345)
(0 0 0.4789777517)
(0 0 0.4604936023)
(0 0 0.4452449582)
(0 0 0.4378565582)
(0 0 0.4315439393)
(0 0 0.4275639255)
(0 0 0.422958818)
(0 0 0.4216883901)
(0 0 0.4198551329)
(0 0 0.417737705)
(0 0 0.4169211693)
(0 0 0.4172098118)
(0 0 0.4151953652)
(0 0 0.4160468153)
(0 0 0.4137576656)
(0 0 0.4146121411)
(0 0 0.4144324961)
(0 0 0.4151187929)
(0 0 0.4129819709)
(0 0 0.4144919844)
(0 0 0.4142731717)
(0 0 0.4148530338)
(0 0 0.4153906893)
(0 0 0.4149445946)
(0 0 0.4135976432)
(0 0 0.4144797013)
(0 0 0.4137759411)
(0 0 0.4126977108)
(0 0 0.4151598272)
(0 0 0.413695406)
(0 0 0.4137458597)
(0 0 0.4136539051)
(0 0 0.4155913165)
(0 0 0.4139092656)
(0 0 0.4143158977)
(0 0 0.4137497051)
(0 0 0.4147723228)
(0 0 0.4145959589)
(0 0 0.4129362073)
(0 0 0.4145327027)
(0 0 0.4146997772)
(0 0 0.4139068839)
(0 0 0.4142185245)
(0 0 0.4149314468)
(0 0 0.4154079846)
(0 0 0.4137224188)
(0 0 0.4153851739)
(0 0 0.4142148344)
(0 0 0.4143192009)
(0 0 0.414932012)
(0 0 0.4143497228)
(0 0 0.4152724728)
(0 0 0.4150212388)
(0 0 0.4151822435)
(0 0 0.4152804314)
(0 0 0.4141794125)
(0 0 0.4140206724)
(0 0 -0.8029983684)
(0 0 -0.6663763792)
(0 0 -0.5820290473)
(0 0 -0.5252762478)
(0 0 -0.4890626149)
(0 0 -0.4653058506)
(0 0 -0.4492767316)
(0 0 -0.43932119)
(0 0 -0.4327097875)
(0 0 -0.4270343083)
(0 0 -0.4239869467)
(0 0 -0.4228291172)
(0 0 -0.4191326292)
(0 0 -0.4176341423)
(0 0 -0.4173127946)
(0 0 -0.4161217932)
(0 0 -0.4159767672)
(0 0 -0.4143381198)
(0 0 -0.414776182)
(0 0 -0.4147573655)
(0 0 -0.414613767)
(0 0 -0.4136274918)
(0 0 -0.4137050888)
(0 0 -0.4139105495)
(0 0 -0.4151375661)
(0 0 -0.4142393114)
(0 0 -0.414520752)
(0 0 -0.4136408532)
(0 0 -0.4146039485)
(0 0 -0.4144588988)
(0 0 -0.4130482807)
(0 0 -0.4140773736)
(0 0 -0.4146623652)
(0 0 -0.4137193522)
(0 0 -0.4134697654)
(0 0 -0.4152703505)
(0 0 -0.4135962294)
(0 0 -0.4151708327)
(0 0 -0.41372839)
(0 0 -0.4154802104)
(0 0 -0.4145968008)
(0 0 -0.4125861089)
(0 0 -0.4142328148)
(0 0 -0.4143706714)
(0 0 -0.4142346761)
(0 0 -0.4146692625)
(0 0 -0.4146594426)
(0 0 -0.4148498103)
(0 0 -0.4134922853)
(0 0 -0.4157854889)
(0 0 -0.4134844641)
(0 0 -0.4142753507)
(0 0 -0.4149927047)
(0 0 -0.4138662402)
(0 0 -0.4153531635)
(0 0 -0.4145917025)
(0 0 -0.4145639809)
(0 0 -0.4151259014)
(0 0 -0.4140350433)
(0 0 -0.4142523652)
(0 0 -0.9553879502)
(0 0 -0.8268817177)
(0 0 -0.6779004309)
(0 0 -0.5860685418)
(0 0 -0.5305590111)
(0 0 -0.4933669144)
(0 0 -0.4665099852)
(0 0 -0.4517807024)
(0 0 -0.4403003083)
(0 0 -0.4327122314)
(0 0 -0.4272557926)
(0 0 -0.4245548018)
(0 0 -0.4206968378)
(0 0 -0.4193708856)
(0 0 -0.4198815989)
(0 0 -0.4171108054)
(0 0 -0.4160308262)
(0 0 -0.413576411)
(0 0 -0.4156313905)
(0 0 -0.4153328846)
(0 0 -0.4147350803)
(0 0 -0.4133408594)
(0 0 -0.4135125045)
(0 0 -0.4133479171)
(0 0 -0.4158338875)
(0 0 -0.4139309874)
(0 0 -0.4142856336)
(0 0 -0.4141374468)
(0 0 -0.414349788)
(0 0 -0.4137361908)
(0 0 -0.4134186663)
(0 0 -0.4148813516)
(0 0 -0.4146936031)
(0 0 -0.4132206114)
(0 0 -0.4136450248)
(0 0 -0.414572281)
(0 0 -0.4143740971)
(0 0 -0.4150094322)
(0 0 -0.4136165882)
(0 0 -0.4154791282)
(0 0 -0.4143097764)
(0 0 -0.413286784)
(0 0 -0.4142691972)
(0 0 -0.4137834601)
(0 0 -0.4143162642)
(0 0 -0.413982925)
(0 0 -0.4142962397)
(0 0 -0.4149008832)
(0 0 -0.4145782486)
(0 0 -0.4151455019)
(0 0 -0.4140802708)
(0 0 -0.4139048301)
(0 0 -0.4142561437)
(0 0 -0.4145053286)
(0 0 -0.4153537076)
(0 0 -0.4141548774)
(0 0 -0.4146418488)
(0 0 -0.4146931252)
(0 0 -0.4138086846)
(0 0 -0.4138543683)
(0 0 -1.019367)
(0 0 -0.9538419955)
(0 0 -0.7859296016)
(0 0 -0.6627315596)
(0 0 -0.5807501738)
(0 0 -0.5270173928)
(0 0 -0.4917786998)
(0 0 -0.4661410184)
(0 0 -0.4523157203)
(0 0 -0.4389517867)
(0 0 -0.4329403652)
(0 0 -0.4275064525)
(0 0 -0.4228405254)
(0 0 -0.421327608)
(0 0 -0.4189618546)
(0 0 -0.4175200054)
(0 0 -0.4164665184)
(0 0 -0.4144589476)
(0 0 -0.4157572404)
(0 0 -0.4144611344)
(0 0 -0.4144608494)
(0 0 -0.4143419264)
(0 0 -0.4126551173)
(0 0 -0.4139872491)
(0 0 -0.4146204133)
(0 0 -0.4143054747)
(0 0 -0.4141767293)
(0 0 -0.4147077972)
(0 0 -0.4151385939)
(0 0 -0.4125313381)
(0 0 -0.4134389174)
(0 0 -0.4144656751)
(0 0 -0.4148451285)
(0 0 -0.4132882779)
(0 0 -0.4142152047)
(0 0 -0.4150477475)
(0 0 -0.414167171)
(0 0 -0.4147979517)
(0 0 -0.414191742)
(0 0 -0.4153438538)
(0 0 -0.4154190657)
(0 0 -0.413220745)
(0 0 -0.4141212057)
(0 0 -0.4137006217)
(0 0 -0.4155792962)
(0 0 -0.4137152556)
(0 0 -0.4138773385)
(0 0 -0.4147990361)
(0 0 -0.4157582532)
(0 0 -0.4144817905)
(0 0 -0.4136014832)
(0 0 -0.4134553858)
(0 0 -0.4142648481)
(0 0 -0.4149091882)
(0 0 -0.4152840178)
(0 0 -0.4141981037)
(0 0 -0.4142235528)
(0 0 -0.4150211656)
(0 0 -0.4135365295)
(0 0 -0.4148330272)
(0 0 -1.058492524)
(0 0 -1.031046587)
(0 0 -0.8800991738)
(0 0 -0.7433383637)
(0 0 -0.6415507667)
(0 0 -0.5661741356)
(0 0 -0.5195911901)
(0 0 -0.4868834962)
(0 0 -0.4651106729)
(0 0 -0.4495336179)
(0 0 -0.439495384)
(0 0 -0.4318589852)
(0 0 -0.4267679862)
(0 0 -0.4233447077)
(0 0 -0.4202942014)
(0 0 -0.4184000064)
(0 0 -0.4167928586)
(0 0 -0.4156613416)
(0 0 -0.4155386273)
(0 0 -0.4153002845)
(0 0 -0.4141962609)
(0 0 -0.4145962723)
(0 0 -0.4129962644)
(0 0 -0.4142344113)
(0 0 -0.4148907112)
(0 0 -0.4149043417)
(0 0 -0.4137333813)
(0 0 -0.4149035987)
(0 0 -0.4141829463)
(0 0 -0.4129736842)
(0 0 -0.4140734666)
(0 0 -0.413990965)
(0 0 -0.4145652201)
(0 0 -0.4138395966)
(0 0 -0.4139196156)
(0 0 -0.4140672116)
(0 0 -0.4145839717)
(0 0 -0.4149680619)
(0 0 -0.4142841916)
(0 0 -0.414320486)
(0 0 -0.4143867194)
(0 0 -0.4138914251)
(0 0 -0.4132977337)
(0 0 -0.4140565737)
(0 0 -0.4145673528)
(0 0 -0.4146317631)
(0 0 -0.4139035851)
(0 0 -0.4144880893)
(0 0 -0.4151031086)
(0 0 -0.4149794798)
(0 0 -0.4145650565)
(0 0 -0.4130777299)
(0 0 -0.4141013662)
(0 0 -0.414934169)
(0 0 -0.4149258897)
(0 0 -0.4144916866)
(0 0 -0.4146203674)
(0 0 -0.4150951101)
(0 0 -0.4142564839)
(0 0 -0.4149052442)
(0 0 -1.086921525)
(0 0 -1.092018665)
(0 0 -0.9662572619)
(0 0 -0.8227856538)
(0 0 -0.7059855053)
(0 0 -0.615028503)
(0 0 -0.5538772274)
(0 0 -0.5103627977)
(0 0 -0.4809522935)
(0 0 -0.4599684391)
(0 0 -0.4473618936)
(0 0 -0.4376141532)
(0 0 -0.4301133785)
(0 0 -0.4255373122)
(0 0 -0.4233091751)
(0 0 -0.4197733794)
(0 0 -0.4183828505)
(0 0 -0.4162050779)
(0 0 -0.4158135236)
(0 0 -0.4157897526)
(0 0 -0.4142329522)
(0 0 -0.4139873767)
(0 0 -0.4133730169)
(0 0 -0.4143284994)
(0 0 -0.4141921713)
(0 0 -0.4148069215)
(0 0 -0.4140422113)
(0 0 -0.4139643892)
(0 0 -0.4144572584)
(0 0 -0.4131360814)
(0 0 -0.414353659)
(0 0 -0.4143310187)
(0 0 -0.4144001585)
(0 0 -0.4143136156)
(0 0 -0.4136345373)
(0 0 -0.4142227285)
(0 0 -0.4146766036)
(0 0 -0.4149814489)
(0 0 -0.4149956522)
(0 0 -0.4151192553)
(0 0 -0.4147927607)
(0 0 -0.41444448)
(0 0 -0.4147075454)
(0 0 -0.4135801562)
(0 0 -0.414679273)
(0 0 -0.4145777312)
(0 0 -0.4143286577)
(0 0 -0.4148302668)
(0 0 -0.414969328)
(0 0 -0.4144078167)
(0 0 -0.4142362892)
(0 0 -0.4137694392)
(0 0 -0.4144056375)
(0 0 -0.4151749899)
(0 0 -0.4148941192)
(0 0 -0.4136924195)
(0 0 -0.4143984605)
(0 0 -0.4145407932)
(0 0 -0.4147769692)
(0 0 -0.4148920703)
(0 0 -1.099423399)
(0 0 -1.121926822)
(0 0 -1.029576371)
(0 0 -0.8950625397)
(0 0 -0.7697412224)
(0 0 -0.6681840559)
(0 0 -0.5926138179)
(0 0 -0.5397537619)
(0 0 -0.5023633416)
(0 0 -0.475009817)
(0 0 -0.4571412418)
(0 0 -0.4435139629)
(0 0 -0.4355503161)
(0 0 -0.4298591689)
(0 0 -0.4243466645)
(0 0 -0.4199882552)
(0 0 -0.420016691)
(0 0 -0.4174398751)
(0 0 -0.4162350083)
(0 0 -0.4164323291)
(0 0 -0.4154781073)
(0 0 -0.41444826)
(0 0 -0.4137712926)
(0 0 -0.41406887)
(0 0 -0.4149869632)
(0 0 -0.4148197794)
(0 0 -0.4144025756)
(0 0 -0.413536318)
(0 0 -0.4149655484)
(0 0 -0.4139412016)
(0 0 -0.4135112698)
(0 0 -0.4147233801)
(0 0 -0.4145615907)
(0 0 -0.4147488336)
(0 0 -0.4135161426)
(0 0 -0.4126060679)
(0 0 -0.4152090432)
(0 0 -0.4141131141)
(0 0 -0.4145956104)
(0 0 -0.4145792494)
(0 0 -0.414258204)
(0 0 -0.4143112155)
(0 0 -0.4141996565)
(0 0 -0.4141513143)
(0 0 -0.4142440324)
(0 0 -0.4145916004)
(0 0 -0.4139779992)
(0 0 -0.4146605183)
(0 0 -0.4150762021)
(0 0 -0.4147758443)
(0 0 -0.4143600839)
(0 0 -0.4131996881)
(0 0 -0.4133294804)
(0 0 -0.4154083004)
(0 0 -0.4149021877)
(0 0 -0.4133052323)
(0 0 -0.4143069267)
(0 0 -0.4149687903)
(0 0 -0.4138103437)
(0 0 -0.4142571805)
(0 0 -1.11202514)
(0 0 -1.143159435)
(0 0 -1.070683915)
(0 0 -0.95421728)
(0 0 -0.8333605961)
(0 0 -0.7253927428)
(0 0 -0.638160975)
(0 0 -0.5728351102)
(0 0 -0.5254652243)
(0 0 -0.4934369953)
(0 0 -0.4694570392)
(0 0 -0.4519263539)
(0 0 -0.4414395613)
(0 0 -0.4345155823)
(0 0 -0.4271774061)
(0 0 -0.4227899296)
(0 0 -0.4215939514)
(0 0 -0.4190653393)
(0 0 -0.4165541894)
(0 0 -0.4171966517)
(0 0 -0.4159603565)
(0 0 -0.4144091196)
(0 0 -0.4148618076)
(0 0 -0.4145780832)
(0 0 -0.4149402074)
(0 0 -0.4137871284)
(0 0 -0.4153440424)
(0 0 -0.4131948738)
(0 0 -0.4153717574)
(0 0 -0.4132311741)
(0 0 -0.4144797469)
(0 0 -0.4144653075)
(0 0 -0.4151652716)
(0 0 -0.4140561056)
(0 0 -0.4141058504)
(0 0 -0.4135801608)
(0 0 -0.4148927006)
(0 0 -0.414355185)
(0 0 -0.4142789751)
(0 0 -0.4146219725)
(0 0 -0.4146899924)
(0 0 -0.4146447293)
(0 0 -0.4145533739)
(0 0 -0.4145233594)
(0 0 -0.4136463695)
(0 0 -0.4144055465)
(0 0 -0.4136175691)
(0 0 -0.4144395485)
(0 0 -0.4154240354)
(0 0 -0.414654964)
(0 0 -0.4141918451)
(0 0 -0.4139499024)
(0 0 -0.4141485046)
(0 0 -0.4153891951)
(0 0 -0.4147361553)
(0 0 -0.4129717269)
(0 0 -0.4139779612)
(0 0 -0.4145997921)
(0 0 -0.4138255917)
(0 0 -0.4137949157)
(0 0 -1.122008838)
(0 0 -1.161860648)
(0 0 -1.099506464)
(0 0 -1.004456112)
(0 0 -0.8873183029)
(0 0 -0.7816995713)
(0 0 -0.6833401773)
(0 0 -0.6102076171)
(0 0 -0.5545780597)
(0 0 -0.5135183403)
(0 0 -0.4845092785)
(0 0 -0.4633115003)
(0 0 -0.4482022508)
(0 0 -0.4399506447)
(0 0 -0.4322976659)
(0 0 -0.4248321587)
(0 0 -0.423613653)
(0 0 -0.4198134927)
(0 0 -0.4181178571)
(0 0 -0.418217577)
(0 0 -0.4157304033)
(0 0 -0.4149460133)
(0 0 -0.4143313628)
(0 0 -0.4141137039)
(0 0 -0.4148761121)
(0 0 -0.4140350488)
(0 0 -0.4153823084)
(0 0 -0.4133623178)
(0 0 -0.4149154162)
(0 0 -0.414214805)
(0 0 -0.4144621969)
(0 0 -0.4147076049)
(0 0 -0.4146844011)
(0 0 -0.4142855183)
(0 0 -0.414088714)
(0 0 -0.4130361178)
(0 0 -0.4147078567)
(0 0 -0.4145102289)
(0 0 -0.4151164994)
(0 0 -0.4146162008)
(0 0 -0.4138989495)
(0 0 -0.4143251223)
(0 0 -0.4152196404)
(0 0 -0.4146160805)
(0 0 -0.4129832584)
(0 0 -0.4131007474)
(0 0 -0.4138592657)
(0 0 -0.4141532504)
(0 0 -0.4158881282)
(0 0 -0.4140885836)
(0 0 -0.4139551225)
(0 0 -0.4130550573)
(0 0 -0.4144749962)
(0 0 -0.4153511459)
(0 0 -0.4142155499)
(0 0 -0.4133760014)
(0 0 -0.4144648352)
(0 0 -0.4143276126)
(0 0 -0.4139742953)
(0 0 -0.4141172429)
(0 0 -1.117434916)
(0 0 -1.164455347)
(0 0 -1.124031138)
(0 0 -1.044399233)
(0 0 -0.9419193675)
(0 0 -0.8309246547)
(0 0 -0.7329454091)
(0 0 -0.6510575553)
(0 0 -0.587849304)
(0 0 -0.5390812596)
(0 0 -0.5022646071)
(0 0 -0.4759574967)
(0 0 -0.4577984271)
(0 0 -0.4456429849)
(0 0 -0.4361132057)
(0 0 -0.4282890897)
(0 0 -0.4262344356)
(0 0 -0.4215031823)
(0 0 -0.4195681355)
(0 0 -0.4197826825)
(0 0 -0.4163345877)
(0 0 -0.4154701458)
(0 0 -0.4147066308)
(0 0 -0.4147993977)
(0 0 -0.4144189962)
(0 0 -0.4155208231)
(0 0 -0.4151609584)
(0 0 -0.4132666414)
(0 0 -0.415293527)
(0 0 -0.4143372554)
(0 0 -0.4146652981)
(0 0 -0.4146125464)
(0 0 -0.414280494)
(0 0 -0.4141270076)
(0 0 -0.4134179175)
(0 0 -0.4137845826)
(0 0 -0.4151939951)
(0 0 -0.4138841237)
(0 0 -0.4142735227)
(0 0 -0.4142293412)
(0 0 -0.4140802524)
(0 0 -0.4145397844)
(0 0 -0.4152608558)
(0 0 -0.4142036112)
(0 0 -0.4139956214)
(0 0 -0.4129664696)
(0 0 -0.4138313729)
(0 0 -0.4148931352)
(0 0 -0.4159314086)
(0 0 -0.4149398623)
(0 0 -0.4137756016)
(0 0 -0.4137953793)
(0 0 -0.4144524988)
(0 0 -0.4149817716)
(0 0 -0.4143372002)
(0 0 -0.4129589999)
(0 0 -0.4141518653)
(0 0 -0.4145940418)
(0 0 -0.413341352)
(0 0 -0.4136478067)
(0 0 -1.122362606)
(0 0 -1.164503842)
(0 0 -1.140831793)
(0 0 -1.074906222)
(0 0 -0.9829176421)
(0 0 -0.8782788639)
(0 0 -0.777869741)
(0 0 -0.6914708561)
(0 0 -0.6222806873)
(0 0 -0.5667594793)
(0 0 -0.5219183409)
(0 0 -0.4900919103)
(0 0 -0.4692197714)
(0 0 -0.4528669504)
(0 0 -0.4403886833)
(0 0 -0.4337725847)
(0 0 -0.4290353456)
(0 0 -0.422941592)
(0 0 -0.4206551236)
(0 0 -0.4204501144)
(0 0 -0.4173945441)
(0 0 -0.4158515398)
(0 0 -0.4155219181)
(0 0 -0.4154174538)
(0 0 -0.4140238028)
(0 0 -0.4160127913)
(0 0 -0.4151125593)
(0 0 -0.4128268837)
(0 0 -0.4149665684)
(0 0 -0.4143495129)
(0 0 -0.4144861591)
(0 0 -0.4149743862)
(0 0 -0.414229971)
(0 0 -0.4138809781)
(0 0 -0.4130058018)
(0 0 -0.414381198)
(0 0 -0.4142631804)
(0 0 -0.41395496)
(0 0 -0.4146896683)
(0 0 -0.4144773511)
(0 0 -0.4139795288)
(0 0 -0.4139713435)
(0 0 -0.4153783383)
(0 0 -0.4140354744)
(0 0 -0.4143008781)
(0 0 -0.4130688305)
(0 0 -0.4136583)
(0 0 -0.4150099353)
(0 0 -0.4148794648)
(0 0 -0.4156609452)
(0 0 -0.4143391436)
(0 0 -0.4142770699)
(0 0 -0.4146021296)
(0 0 -0.4149177988)
(0 0 -0.4141069106)
(0 0 -0.4135459669)
(0 0 -0.414672346)
(0 0 -0.4147046484)
(0 0 -0.4128843537)
(0 0 -0.4144708886)
(0 0 -1.119205963)
(0 0 -1.162871198)
(0 0 -1.148189371)
(0 0 -1.09906303)
(0 0 -1.019086071)
(0 0 -0.9210095595)
(0 0 -0.8250573402)
(0 0 -0.735145356)
(0 0 -0.659013264)
(0 0 -0.595621118)
(0 0 -0.5459727757)
(0 0 -0.5055998216)
(0 0 -0.4822505398)
(0 0 -0.4618019859)
(0 0 -0.4480611121)
(0 0 -0.4377010072)
(0 0 -0.4305549431)
(0 0 -0.4258635439)
(0 0 -0.423228546)
(0 0 -0.4196900829)
(0 0 -0.4190639695)
(0 0 -0.4166442021)
(0 0 -0.4158998836)
(0 0 -0.4157599259)
(0 0 -0.4137169044)
(0 0 -0.4156722736)
(0 0 -0.4154402005)
(0 0 -0.4129831915)
(0 0 -0.41512767)
(0 0 -0.4138859947)
(0 0 -0.4137474983)
(0 0 -0.4150509173)
(0 0 -0.4147474459)
(0 0 -0.4133075047)
(0 0 -0.4132378123)
(0 0 -0.4140928411)
(0 0 -0.4141264177)
(0 0 -0.4138064651)
(0 0 -0.4139634381)
(0 0 -0.4151053461)
(0 0 -0.4133308186)
(0 0 -0.4143806502)
(0 0 -0.4153531765)
(0 0 -0.4146626293)
(0 0 -0.4146284445)
(0 0 -0.4126702952)
(0 0 -0.4136993866)
(0 0 -0.4146486261)
(0 0 -0.4150503972)
(0 0 -0.415488551)
(0 0 -0.4142557586)