/*--------------------------------*- C++ -*----------------------------------*\
| =========                 |                                                 |
| \\      /  F ield         | OpenFOAM: The Open Source CFD Toolbox           |
|  \\    /   O peration     | Version:  v1706                                 |
|   \\  /    A nd           | Web:      www.OpenFOAM.com                      |
|    \\/     M anipulation  |                                                 |
\*---------------------------------------------------------------------------*/
FoamFile
{
    version     2.0;
    format      ascii;
    class       volScalarField;
    location    "0.14";
    object      rhoN_N2cold;
}
// * * * * * * * * * * * * * * * * * * * * * * * * * * * * * * * * * * * * * //

dimensions      [0 -3 0 0 0 0 0];


internalField   nonuniform List<scalar> 
6000
(
1.000375024e+20
1.001711944e+20
1.005479707e+20
1.017971636e+20
1.082199189e+20
9.994488517e+19
1.001689115e+20
1.00641319e+20
1.024006391e+20
1.070741676e+20
1.001506269e+20
1.004080852e+20
1.010150213e+20
1.024723197e+20
1.054633735e+20
1.001052517e+20
1.003401609e+20
1.008380283e+20
1.018253039e+20
1.036462419e+20
1.001260079e+20
1.002260863e+20
1.005665166e+20
1.012887937e+20
1.024494695e+20
1.000890125e+20
1.000717307e+20
1.004952742e+20
1.008484337e+20
1.015609844e+20
9.999612135e+19
1.001979646e+20
1.003176129e+20
1.007205966e+20
1.013226641e+20
1.000589733e+20
1.001500113e+20
1.004504898e+20
1.005477343e+20
1.009205661e+20
1.000540598e+20
1.000586382e+20
1.001414691e+20
1.003578424e+20
1.007789188e+20
1.000765539e+20
1.002583999e+20
1.00337463e+20
1.004671448e+20
1.003864995e+20
9.999225685e+19
1.001440696e+20
1.000639506e+20
1.003096728e+20
1.003399454e+20
9.99997806e+19
9.984505986e+19
1.000781534e+20
1.000960414e+20
1.003262862e+20
1.000221216e+20
1.001697622e+20
1.001178741e+20
1.000303923e+20
1.000448991e+20
1.000124174e+20
1.00036942e+20
9.998841726e+19
1.000994869e+20
1.001645005e+20
1.000224114e+20
1.000226546e+20
1.001500288e+20
1.000811805e+20
1.003250842e+20
1.00034018e+20
1.000323634e+20
9.999996568e+19
1.001257953e+20
1.000817262e+20
9.989723929e+19
9.995093553e+19
9.991108934e+19
9.999082399e+19
9.999226766e+19
1.00058377e+20
1.000071405e+20
9.998438338e+19
9.992037499e+19
9.982929519e+19
9.995869323e+19
9.98989492e+19
9.989872048e+19
9.995733036e+19
1.000998082e+20
1.000239911e+20
9.996191694e+19
1.000398418e+20
9.998387386e+19
1.000644396e+20
9.999827947e+19
1.000707007e+20
1.001399928e+20
1.001777769e+20
1.001030171e+20
1.001313116e+20
1.000505449e+20
9.999045388e+19
9.989893004e+19
9.988661713e+19
9.992037281e+19
9.990155127e+19
9.994310489e+19
9.997481786e+19
9.994577988e+19
1.000427291e+20
9.997761064e+19
9.99879377e+19
1.000482003e+20
9.992993802e+19
1.000126121e+20
1.000427417e+20
9.992610561e+19
1.000371256e+20
1.000341744e+20
1.000406693e+20
1.000604956e+20
1.000297758e+20
9.988079646e+19
9.999468056e+19
9.99785283e+19
9.98668875e+19
9.987946037e+19
1.000917457e+20
1.001393719e+20
9.996295627e+19
1.00053446e+20
1.000751106e+20
9.99673384e+19
9.991818282e+19
9.994459059e+19
9.985764473e+19
9.997425197e+19
9.996617274e+19
1.00039205e+20
1.000962009e+20
1.001077283e+20
1.000321145e+20
1.000164811e+20
9.999281304e+19
1.000244258e+20
1.000100463e+20
1.000167421e+20
1.000036745e+20
9.990769564e+19
9.992858874e+19
9.991731134e+19
9.984606158e+19
1.000002113e+20
1.001086414e+20
1.000535057e+20
1.000194904e+20
1.000445889e+20
1.000300571e+20
9.988342563e+19
9.994088903e+19
1.000390009e+20
1.00040453e+20
1.000460251e+20
9.99961576e+19
1.000753139e+20
1.000284961e+20
9.997455112e+19
9.996630168e+19
9.995453704e+19
1.000253335e+20
1.000287702e+20
9.995721361e+19
1.000309719e+20
9.997309115e+19
1.00054695e+20
9.999075998e+19
9.996799485e+19
1.000086665e+20
9.996653615e+19
9.999748107e+19
1.000307321e+20
1.000206327e+20
1.000295435e+20
1.000176482e+20
1.000206683e+20
9.996963167e+19
9.992033498e+19
9.999986858e+19
1.000270964e+20
1.0002754e+20
1.000532459e+20
1.001143327e+20
1.000728346e+20
1.001876889e+20
1.000307228e+20
1.00013929e+20
9.999070461e+19
1.000215284e+20
1.000903511e+20
9.996866591e+19
1.000093777e+20
9.995496182e+19
9.993374269e+19
9.996354314e+19
1.00026955e+20
1.000132205e+20
1.000787208e+20
1.000050744e+20
9.995397545e+19
9.994474399e+19
9.992674763e+19
9.997452486e+19
9.99308411e+19
1.000321263e+20
1.000806659e+20
1.000911937e+20
1.000134288e+20
1.000380878e+20
1.000311324e+20
9.993795689e+19
9.99839373e+19
9.993893771e+19
1.00054884e+20
1.000614964e+20
1.000597944e+20
1.000348764e+20
1.000309352e+20
9.986973688e+19
9.999943322e+19
1.000147135e+20
9.99969054e+19
1.001323465e+20
1.001705811e+20
1.000209624e+20
9.996535963e+19
9.993125748e+19
9.989832298e+19
9.993705175e+19
9.99850766e+19
1.000603954e+20
1.000017426e+20
1.00102779e+20
1.000725818e+20
1.001089606e+20
1.000239081e+20
1.000215261e+20
9.987816426e+19
9.986772986e+19
9.992727495e+19
9.996951226e+19
9.995568687e+19
9.996596212e+19
9.99949286e+19
9.995377377e+19
9.991332135e+19
9.992727327e+19
1.000231796e+20
9.993762058e+19
1.000038674e+20
1.000759769e+20
1.001054808e+20
1.000523267e+20
9.997124282e+19
1.000092041e+20
9.994214812e+19
9.994194637e+19
9.994561192e+19
1.000288074e+20
1.000420311e+20
1.000122548e+20
1.000176068e+20
9.986286608e+19
9.991202258e+19
9.988937137e+19
9.997103035e+19
1.000105967e+20
1.001927187e+20
1.000926363e+20
1.001927307e+20
1.000690426e+20
1.000565504e+20
1.00073213e+20
1.000690322e+20
1.001206711e+20
9.991520368e+19
9.995024493e+19
9.983526592e+19
9.98627053e+19
9.987045386e+19
9.99524526e+19
1.000085178e+20
9.996493352e+19
9.997511697e+19
9.991061882e+19
1.306370114e+20
1.354969815e+20
1.34035871e+20
1.32224155e+20
1.305939317e+20
1.291960232e+20
1.28169409e+20
1.270238052e+20
1.259020904e+20
1.251181061e+20
1.244609313e+20
1.234152531e+20
1.220475199e+20
1.210012287e+20
1.202477843e+20
1.195315223e+20
1.194757241e+20
1.185726292e+20
1.177167045e+20
1.166680718e+20
1.158426301e+20
1.154820184e+20
1.149071745e+20
1.145793986e+20
1.143031665e+20
1.133679874e+20
1.12565088e+20
1.114728875e+20
1.115512661e+20
1.106345472e+20
1.09746797e+20
1.099152504e+20
1.097622016e+20
1.087411327e+20
1.082379669e+20
1.078272317e+20
1.072911131e+20
1.07051807e+20
1.066360262e+20
1.058585035e+20
1.054212991e+20
1.052516419e+20
1.050547793e+20
1.047128159e+20
1.042553982e+20
1.038553149e+20
1.035103807e+20
1.027550116e+20
1.031863443e+20
1.025470972e+20
1.014849724e+20
1.016574982e+20
1.013534907e+20
1.01140359e+20
1.00964982e+20
1.003248931e+20
9.97115629e+19
9.996081775e+19
9.933302346e+19
9.90164672e+19
9.894085022e+19
9.846975688e+19
9.83146268e+19
9.764881878e+19
9.813095727e+19
9.746906218e+19
9.720025367e+19
9.657236835e+19
9.628814807e+19
9.641042995e+19
9.623340978e+19
9.567674564e+19
9.488153796e+19
9.541496875e+19
9.501760105e+19
9.453956141e+19
9.403611409e+19
9.366206732e+19
9.293074312e+19
9.222562217e+19
9.256471902e+19
9.15580943e+19
9.110082191e+19
9.051568304e+19
8.9502284e+19
8.868615401e+19
8.714128051e+19
8.588435341e+19
8.451442597e+19
8.291982731e+19
8.003653436e+19
7.666478142e+19
7.28971655e+19
6.77087973e+19
5.781849907e+19
1.16523146e+20
1.2727333e+20
1.34444152e+20
1.372266995e+20
1.372568343e+20
1.359745138e+20
1.343772826e+20
1.328515939e+20
1.305931508e+20
1.287148888e+20
1.270901591e+20
1.256678597e+20
1.241236685e+20
1.226278879e+20
1.213043069e+20
1.203450337e+20
1.191545723e+20
1.179132701e+20
1.167655006e+20
1.162084106e+20
1.147720188e+20
1.141705573e+20
1.137507577e+20
1.127802447e+20
1.124552166e+20
1.111916551e+20
1.101983192e+20
1.096059334e+20
1.088012203e+20
1.0826154e+20
1.07528805e+20
1.074692077e+20
1.069235187e+20
1.059961884e+20
1.056924993e+20
1.051796162e+20
1.047608849e+20
1.039268182e+20
1.037654711e+20
1.03396713e+20
1.030336718e+20
1.025542805e+20
1.021527861e+20
1.020733307e+20
1.012336186e+20
1.011998798e+20
1.00815502e+20
1.000333872e+20
9.994308295e+19
9.951593162e+19
9.890021457e+19
9.839720147e+19
9.85098871e+19
9.842521186e+19
9.816014395e+19
9.755522533e+19
9.72367356e+19
9.704217116e+19
9.651212439e+19
9.649896707e+19
9.611432607e+19
9.597225299e+19
9.5536091e+19
9.482259389e+19
9.493673017e+19
9.496911363e+19
9.433622651e+19
9.392707799e+19
9.34579237e+19
9.385099067e+19
9.36096778e+19
9.321075201e+19
9.26422407e+19
9.255065091e+19
9.237386727e+19
9.216097244e+19
9.141552211e+19
9.13133566e+19
9.067502697e+19
9.022670902e+19
8.994013314e+19
8.914446233e+19
8.874040893e+19
8.826862021e+19
8.721405249e+19
8.629188405e+19
8.468933654e+19
8.380630816e+19
8.261012341e+19
8.067176618e+19
7.820917568e+19
7.489935347e+19
7.120417117e+19
6.569932269e+19
5.606431094e+19
1.101038014e+20
1.164286591e+20
1.231224531e+20
1.289940496e+20
1.331597912e+20
1.359214673e+20
1.365063372e+20
1.360270656e+20
1.351064166e+20
1.336708843e+20
1.321054178e+20
1.302944446e+20
1.286863764e+20
1.270306552e+20
1.25312773e+20
1.238811055e+20
1.221598186e+20
1.208362583e+20
1.195193789e+20
1.182843982e+20
1.167938535e+20
1.159007055e+20
1.147845314e+20
1.139739387e+20
1.129235632e+20
1.118987445e+20
1.1084196e+20
1.098535735e+20
1.090284626e+20
1.083005644e+20
1.077868341e+20
1.073228689e+20
1.066681393e+20
1.058599241e+20
1.05353899e+20
1.044299138e+20
1.037874481e+20
1.032055949e+20
1.031982748e+20
1.023903854e+20
1.018407795e+20
1.015534951e+20
1.012022402e+20
1.008655813e+20
1.002454569e+20
9.961261726e+19
9.931358672e+19
9.880461989e+19
9.86717666e+19
9.808856197e+19
9.764133808e+19
9.751758083e+19
9.731701643e+19
9.671184523e+19
9.657220399e+19
9.614813893e+19
9.588428444e+19
9.553076416e+19
9.527781194e+19
9.472188182e+19
9.393528657e+19
9.419768929e+19
9.352075342e+19
9.364165214e+19
9.311889732e+19
9.28114779e+19
9.248478448e+19
9.225611426e+19
9.243583781e+19
9.239364912e+19
9.182977649e+19
9.173742427e+19
9.152615966e+19
9.096797323e+19
9.077063207e+19
9.030007345e+19
8.978310887e+19
8.973494116e+19
8.931393934e+19
8.861011673e+19
8.817848507e+19
8.795906088e+19
8.731619415e+19
8.660155076e+19
8.580372082e+19
8.517759124e+19
8.358146456e+19
8.250644178e+19
8.128267627e+19
7.947405657e+19
7.729337891e+19
7.388617958e+19
7.047005643e+19
6.540625577e+19
5.695904643e+19
1.063834213e+20
1.101566566e+20
1.149922472e+20
1.202201351e+20
1.254135754e+20
1.297310976e+20
1.329514278e+20
1.351299612e+20
1.362734021e+20
1.363571073e+20
1.360544522e+20
1.350001964e+20
1.336388513e+20
1.320321293e+20
1.303333005e+20
1.28538018e+20
1.271262568e+20
1.254609888e+20
1.235357802e+20
1.222709769e+20
1.206527045e+20
1.190561404e+20
1.178005949e+20
1.168441607e+20
1.156248119e+20
1.145087577e+20
1.128754193e+20
1.120668576e+20
1.112442621e+20
1.104929839e+20
1.095036564e+20
1.0849315e+20
1.074552231e+20
1.070092816e+20
1.066347358e+20
1.057852714e+20
1.04798662e+20
1.04199123e+20
1.033041086e+20
1.028752456e+20
1.023373759e+20
1.016387981e+20
1.013361323e+20
1.009780558e+20
1.001656274e+20
9.986231159e+19
9.889451756e+19
9.850758932e+19
9.802969014e+19
9.781124673e+19
9.733236708e+19
9.701875134e+19
9.655887938e+19
9.609529512e+19
9.57556606e+19
9.543628659e+19
9.504041631e+19
9.479350993e+19
9.440226462e+19
9.37838202e+19
9.374842803e+19
9.357503104e+19
9.311554364e+19
9.258904458e+19
9.221325431e+19
9.209020967e+19
9.18515316e+19
9.176228793e+19
9.124892843e+19
9.100785907e+19
9.062127418e+19
9.062495569e+19
9.02808074e+19
9.025919949e+19
8.963329357e+19
8.934131012e+19
8.866513367e+19
8.846982952e+19
8.800615444e+19
8.760695043e+19
8.751266192e+19
8.678436386e+19
8.617438858e+19
8.558302483e+19
8.47835297e+19
8.403270558e+19
8.279395746e+19
8.180165615e+19
8.026466625e+19
7.867065904e+19
7.665709616e+19
7.372776874e+19
7.0356575e+19
6.537839864e+19
5.841133884e+19
1.040647192e+20
1.064884729e+20
1.099909569e+20
1.138287446e+20
1.181905703e+20
1.226748702e+20
1.268011188e+20
1.304427028e+20
1.334451185e+20
1.353606684e+20
1.364029955e+20
1.36871239e+20
1.36581053e+20
1.359297297e+20
1.347407496e+20
1.338284184e+20
1.321853948e+20
1.310049293e+20
1.291442277e+20
1.274624314e+20
1.257794595e+20
1.242759954e+20
1.225747024e+20
1.211313376e+20
1.198843869e+20
1.182129998e+20
1.167008816e+20
1.154811326e+20
1.1444426e+20
1.131962816e+20
1.120962152e+20
1.112066606e+20
1.101507053e+20
1.089352173e+20
1.082325817e+20
1.074635091e+20
1.065030764e+20
1.057460377e+20
1.048848882e+20
1.042086637e+20
1.035731515e+20
1.026298758e+20
1.017164675e+20
1.016522461e+20
1.006209422e+20
9.979400247e+19
9.941241885e+19
9.883182057e+19
9.868839451e+19
9.789320535e+19
9.735804025e+19
9.705319569e+19
9.675643248e+19
9.626636968e+19
9.597434305e+19
9.525335475e+19
9.512282499e+19
9.435902204e+19
9.410583264e+19
9.368350588e+19
9.351218373e+19
9.326956679e+19
9.322312092e+19
9.271673423e+19
9.201251167e+19
9.175529062e+19
9.148074673e+19
9.122985662e+19
9.093016821e+19
9.03260988e+19
9.013227552e+19
8.993144263e+19
8.962820114e+19
8.941494358e+19
8.928002921e+19
8.888293293e+19
8.818052292e+19
8.817355507e+19
8.739319544e+19
8.723986181e+19
8.672884991e+19
8.631103298e+19
8.552843965e+19
8.499067261e+19
8.409230032e+19
8.33880857e+19
8.239830064e+19
8.133522784e+19
7.986594368e+19
7.802010233e+19
7.62153805e+19
7.372981104e+19
7.064681624e+19
6.643323475e+19
5.995001031e+19
1.027744807e+20
1.043837116e+20
1.064892047e+20
1.090908079e+20
1.12439999e+20
1.162781527e+20
1.202078359e+20
1.240773302e+20
1.278522502e+20
1.308846026e+20
1.335636507e+20
1.353348972e+20
1.367657997e+20
1.371858366e+20
1.37233818e+20
1.367623227e+20
1.358804605e+20
1.348168454e+20
1.336954552e+20
1.326349461e+20
1.312023195e+20
1.29624572e+20
1.278938332e+20
1.260862867e+20
1.244729244e+20
1.229900045e+20
1.216589841e+20
1.198195681e+20
1.185589788e+20
1.171209765e+20
1.159698725e+20
1.148967023e+20
1.13702828e+20
1.123695157e+20
1.113840928e+20
1.102520895e+20
1.091569765e+20
1.080732521e+20
1.073708149e+20
1.062741053e+20
1.05338321e+20
1.04304245e+20
1.037952872e+20
1.030248367e+20
1.021452899e+20
1.017302567e+20
1.009975797e+20
1.005232807e+20
9.982790015e+19
9.906692967e+19
9.838963049e+19
9.783842622e+19
9.747154896e+19
9.659807478e+19
9.6155994e+19
9.5647862e+19
9.535927356e+19
9.475696889e+19
9.429764362e+19
9.398073091e+19
9.398082424e+19
9.3495593e+19
9.28987989e+19
9.277277458e+19
9.214006143e+19
9.157028366e+19
9.137596357e+19
9.119830854e+19
9.091061949e+19
9.036001182e+19
8.997058472e+19
8.976062694e+19
8.949142381e+19
8.906311327e+19
8.87843451e+19
8.844234586e+19
8.824095159e+19
8.781531114e+19
8.752636208e+19
8.718718868e+19
8.660298984e+19
8.588848613e+19
8.518875064e+19
8.46391037e+19
8.395219752e+19
8.312619902e+19
8.244334458e+19
8.111454459e+19
7.956076491e+19
7.820074276e+19
7.623207768e+19
7.435604276e+19
7.138664293e+19
6.720462305e+19
6.18564939e+19
1.019675945e+20
1.030695414e+20
1.044298125e+20
1.064084848e+20
1.086901257e+20
1.113906651e+20
1.147687672e+20
1.181123816e+20
1.218402464e+20
1.252442933e+20
1.285345085e+20
1.315393725e+20
1.339456896e+20
1.35969124e+20
1.370226576e+20
1.379057075e+20
1.381292066e+20
1.380329706e+20
1.373891561e+20
1.364203662e+20
1.355737487e+20
1.34238669e+20
1.329882778e+20
1.314437171e+20
1.296100519e+20
1.280243936e+20
1.265108357e+20
1.250646305e+20
1.235675389e+20
1.218160196e+20
1.204011457e+20
1.188533127e+20
1.176610977e+20
1.164989206e+20
1.150827123e+20
1.135814991e+20
1.126124473e+20
1.116662874e+20
1.101952095e+20
1.090017037e+20
1.081198891e+20
1.073002557e+20
1.065038164e+20
1.055514715e+20
1.045254834e+20
1.035989153e+20
1.029750564e+20
1.022692186e+20
1.015431203e+20
1.008656197e+20
1.000605295e+20
9.955606315e+19
9.889318946e+19
9.825388275e+19
9.755836336e+19
9.703271675e+19
9.639067391e+19
9.608992789e+19
9.533519894e+19
9.492981799e+19
9.422199219e+19
9.405997548e+19
9.334372028e+19
9.330828751e+19
9.282457948e+19
9.217082698e+19
9.199933036e+19
9.167743143e+19
9.113017652e+19
9.074227572e+19
9.033710335e+19
9.020701135e+19
8.953293418e+19
8.904838076e+19
8.876461319e+19
8.853734403e+19
8.834906245e+19
8.804299644e+19
8.754715253e+19
8.720921313e+19
8.656774689e+19
8.590339335e+19
8.535747915e+19
8.467286848e+19
8.414653984e+19
8.31437126e+19
8.222317327e+19
8.137989377e+19
7.991712428e+19
7.85610877e+19
7.684874567e+19
7.461863002e+19
7.20015224e+19
6.820273536e+19
6.344077478e+19
1.014738313e+20
1.021527181e+20
1.030687784e+20
1.042345638e+20
1.058426638e+20
1.080747075e+20
1.103632243e+20
1.132743779e+20
1.163453204e+20
1.195526799e+20
1.231020302e+20
1.263047557e+20
1.295053513e+20
1.323195642e+20
1.349431913e+20
1.365957198e+20
1.378150024e+20
1.385402627e+20
1.389259541e+20
1.389011186e+20
1.384085441e+20
1.381043314e+20
1.370421136e+20
1.358329284e+20
1.34617416e+20
1.332311361e+20
1.316746429e+20
1.301787926e+20
1.287050218e+20
1.268996853e+20
1.254538309e+20
1.240757185e+20
1.224513626e+20
1.211443337e+20
1.196436701e+20
1.181650767e+20
1.166638248e+20
1.15680579e+20
1.142445926e+20
1.132452536e+20
1.12116304e+20
1.109495487e+20
1.095558777e+20
1.085587246e+20
1.076851261e+20
1.066384978e+20
1.058497017e+20
1.049598287e+20
1.039613505e+20
1.034288308e+20
1.022257445e+20
1.015099351e+20
1.008031486e+20
9.993706584e+19
9.935221538e+19
9.869684025e+19
9.811248456e+19
9.746496371e+19
9.646447606e+19
9.607155829e+19
9.583736283e+19
9.532282052e+19
9.478955937e+19
9.425728788e+19
9.376946914e+19
9.351622257e+19
9.27178692e+19
9.225602372e+19
9.180124819e+19
9.139100109e+19
9.101611348e+19
9.056571474e+19
9.030772312e+19
8.961538179e+19
8.929774411e+19
8.910044439e+19
8.887087821e+19
8.860354943e+19
8.8011984e+19
8.725070899e+19
8.672338761e+19
8.642894533e+19
8.549612976e+19
8.499935706e+19
8.421894072e+19
8.343403143e+19
8.253331133e+19
8.140484787e+19
8.051071025e+19
7.897376399e+19
7.758435694e+19
7.541042386e+19
7.290505092e+19
6.965294356e+19
6.541412613e+19
1.009806106e+20
1.016282602e+20
1.024205244e+20
1.032827155e+20
1.042366162e+20
1.055720486e+20
1.072136387e+20
1.094578342e+20
1.120344071e+20
1.147860123e+20
1.177636687e+20
1.208847713e+20
1.242023901e+20
1.273840921e+20
1.303178034e+20
1.329777245e+20
1.351276526e+20
1.369983347e+20
1.384431574e+20
1.395680782e+20
1.398816138e+20
1.398548555e+20
1.397257261e+20
1.395319429e+20
1.383381443e+20
1.374497161e+20
1.364630875e+20
1.349352406e+20
1.334794485e+20
1.321789406e+20
1.306210669e+20
1.291526657e+20
1.274349958e+20
1.259932571e+20
1.246531595e+20
1.230189013e+20
1.213091541e+20
1.197600536e+20
1.185245615e+20
1.171708896e+20
1.157540353e+20
1.145519803e+20
1.132120144e+20
1.121917513e+20
1.111407272e+20
1.10077803e+20
1.089163204e+20
1.079152994e+20
1.067576312e+20
1.059473813e+20
1.049797157e+20
1.040094479e+20
1.030882055e+20
1.023652205e+20
1.01710164e+20
1.008643656e+20
1.00097914e+20
9.932545906e+19
9.85609348e+19
9.794857316e+19
9.731950121e+19
9.669368869e+19
9.628672305e+19
9.564503427e+19
9.498452116e+19
9.481302545e+19
9.445963483e+19
9.377589902e+19
9.296875395e+19
9.275283787e+19
9.21178422e+19
9.182030634e+19
9.134227635e+19
9.094232707e+19
9.047026553e+19
8.990756647e+19
8.939601365e+19
8.893736225e+19
8.832445487e+19
8.800522309e+19
8.760152512e+19
8.677333361e+19
8.64473927e+19
8.561488922e+19
8.477869608e+19
8.441492248e+19
8.328748965e+19
8.232864234e+19
8.091425391e+19
7.980067844e+19
7.822355335e+19
7.664727132e+19
7.41137107e+19
7.141450739e+19
6.742963179e+19
1.005617346e+20
1.008744074e+20
1.013238822e+20
1.018917734e+20
1.026789643e+20
1.038823561e+20
1.052595738e+20
1.067446979e+20
1.085675376e+20
1.108629591e+20
1.133063187e+20
1.160160476e+20
1.190009055e+20
1.220356533e+20
1.25362191e+20
1.282517705e+20
1.309711325e+20
1.336190213e+20
1.357422421e+20
1.374564479e+20
1.390026145e+20
1.403165995e+20
1.407307225e+20
1.409561392e+20
1.410755092e+20
1.405360367e+20
1.397788305e+20
1.390336344e+20
1.381588092e+20
1.368147538e+20
1.35525082e+20
1.341115917e+20
1.326981719e+20
1.308672712e+20
1.293621003e+20
1.279259185e+20
1.263553103e+20
1.249595822e+20
1.233341067e+20
1.217134192e+20
1.204878164e+20
1.191168074e+20
1.17701871e+20
1.165986656e+20
1.151014558e+20
1.139280618e+20
1.124801374e+20
1.114652209e+20
1.105318542e+20
1.094991807e+20
1.084026626e+20
1.073625462e+20
1.064094139e+20
1.056388652e+20
1.046840996e+20
1.036903206e+20
1.026379867e+20
1.016750783e+20
1.009112487e+20
1.00209929e+20
9.960549311e+19
9.890689661e+19
9.833680623e+19
9.776016375e+19
9.685214529e+19
9.620756019e+19
9.579190596e+19
9.536089134e+19
9.46863499e+19
9.413303373e+19
9.365387757e+19
9.316586101e+19
9.275889322e+19
9.207271292e+19
9.152954778e+19
9.103964317e+19
9.045683209e+19
8.984532074e+19
8.953105484e+19
8.902495762e+19
8.83462623e+19
8.764939107e+19
8.70158212e+19
8.656269496e+19
8.582887574e+19
8.505243413e+19
8.412031165e+19
8.332414161e+19
8.230898389e+19
8.105526242e+19
7.953135929e+19
7.770236888e+19
7.549644804e+19
7.285292648e+19
6.945522514e+19
1.005227076e+20
1.006504421e+20
1.009693461e+20
1.016229058e+20
1.021538282e+20
1.029130959e+20
1.036762593e+20
1.046589448e+20
1.060387519e+20
1.076978192e+20
1.096219998e+20
1.118986619e+20
1.143523873e+20
1.167671481e+20
1.197496243e+20
1.227260972e+20
1.258482669e+20
1.288210247e+20
1.31554025e+20
1.339845134e+20
1.36185266e+20
1.379435197e+20
1.394318937e+20
1.406109978e+20
1.414036703e+20
1.418167005e+20
1.419855298e+20
1.419213568e+20
1.413731287e+20
1.405664658e+20
1.395783996e+20
1.383486522e+20
1.37063404e+20
1.359669513e+20
1.346329855e+20
1.332591704e+20
1.315774222e+20
1.301770841e+20
1.286541746e+20
1.269839516e+20
1.254385892e+20
1.240367063e+20
1.225899253e+20
1.209706255e+20
1.196704577e+20
1.182371311e+20
1.170987659e+20
1.156897563e+20
1.14579725e+20
1.134216672e+20
1.123207704e+20
1.110715834e+20
1.099709052e+20
1.088575082e+20
1.07936212e+20
1.070554317e+20
1.059072696e+20
1.047046715e+20
1.038204388e+20
1.031135736e+20
1.02210895e+20
1.014790605e+20
1.008778691e+20
1.000942006e+20
9.946306629e+19
9.851656764e+19
9.79651376e+19
9.718606314e+19
9.650557669e+19
9.587047206e+19
9.546587185e+19
9.477358069e+19
9.413868899e+19
9.354932806e+19
9.306959458e+19
9.237681536e+19
9.184088159e+19
9.158758442e+19
9.095740641e+19
9.014052454e+19
8.970463578e+19
8.911846611e+19
8.838990408e+19
8.754494422e+19
8.678587402e+19
8.620272148e+19
8.554345725e+19
8.437863368e+19
8.344391612e+19
8.212178752e+19
8.068914416e+19
7.887668787e+19
7.699171295e+19
7.460608969e+19
7.140530236e+19
1.004693487e+20
1.008132762e+20
1.009406269e+20
1.010822487e+20
1.014112192e+20
1.016375887e+20
1.024494249e+20
1.032839763e+20
1.042206792e+20
1.053361952e+20
1.066866803e+20
1.082230099e+20
1.102544323e+20
1.125174191e+20
1.150121061e+20
1.176011966e+20
1.20470556e+20
1.234310908e+20
1.265550013e+20
1.293454634e+20
1.32034107e+20
1.346657086e+20
1.369071101e+20
1.388216181e+20
1.403446249e+20
1.413237213e+20
1.422236849e+20
1.4267583e+20
1.429881979e+20
1.428946614e+20
1.424561844e+20
1.419352817e+20
1.4127575e+20
1.400807463e+20
1.388110863e+20
1.376837302e+20
1.363089178e+20
1.346622142e+20
1.334637461e+20
1.319297064e+20
1.305376387e+20
1.288281219e+20
1.274161181e+20
1.260340629e+20
1.246931847e+20
1.229843204e+20
1.215382287e+20
1.20255726e+20
1.188807137e+20
1.177437385e+20
1.164102876e+20
1.149830586e+20
1.135821943e+20
1.125526329e+20
1.114777608e+20
1.103597939e+20
1.093427978e+20
1.083799654e+20
1.07256095e+20
1.062924688e+20
1.053688092e+20
1.047708987e+20
1.039869767e+20
1.028401912e+20
1.018049533e+20
1.01082815e+20
1.003302245e+20
9.959791953e+19
9.888567287e+19
9.81815513e+19
9.73306406e+19
9.670402169e+19
9.596953806e+19
9.527310271e+19
9.469727686e+19
9.425507088e+19
9.36542117e+19
9.280349984e+19
9.250061111e+19
9.182050419e+19
9.115437796e+19
9.047544968e+19
8.977323733e+19
8.915754469e+19
8.845210704e+19
8.771797977e+19
8.687868063e+19
8.59889518e+19
8.478973047e+19
8.348487267e+19
8.200445212e+19
8.050569902e+19
7.882936464e+19
7.671133789e+19
7.363223148e+19
1.001774317e+20
1.001813009e+20
1.003705973e+20
1.006329467e+20
1.010054144e+20
1.014288056e+20
1.018384153e+20
1.024038779e+20
1.030559245e+20
1.039058517e+20
1.049475311e+20
1.061922833e+20
1.075792543e+20
1.094108319e+20
1.112159686e+20
1.136116094e+20
1.158753267e+20
1.185512626e+20
1.21056367e+20
1.241774512e+20
1.268861863e+20
1.298114321e+20
1.324684718e+20
1.350602767e+20
1.373208223e+20
1.39194808e+20
1.406568147e+20
1.417499799e+20
1.428627114e+20
1.434653829e+20
1.439128524e+20
1.436893869e+20
1.435273111e+20
1.42911036e+20
1.422731354e+20
1.414509413e+20
1.404579882e+20
1.39163545e+20
1.379791536e+20
1.367853339e+20
1.354316293e+20
1.339549661e+20
1.325805224e+20
1.311623546e+20
1.294721502e+20
1.280326257e+20
1.265236371e+20
1.250793725e+20
1.237266117e+20
1.220323065e+20
1.208340871e+20
1.193050582e+20
1.181580114e+20
1.166029394e+20
1.154545442e+20
1.143033516e+20
1.131033539e+20
1.118851768e+20
1.110321702e+20
1.099675472e+20
1.090703527e+20
1.079469201e+20
1.067393717e+20
1.058676289e+20
1.049242037e+20
1.040668623e+20
1.032618756e+20
1.024364179e+20
1.016601611e+20
1.010547262e+20
9.994024928e+19
9.911344038e+19
9.832626722e+19
9.790007681e+19
9.688882673e+19
9.627349033e+19
9.56207666e+19
9.490142995e+19
9.411910365e+19
9.352267136e+19
9.287937565e+19
9.228951131e+19
9.162504094e+19
9.082375796e+19
9.014919002e+19
8.926771445e+19
8.845369896e+19
8.758074266e+19
8.653511276e+19
8.531265838e+19
8.420672217e+19
8.250484953e+19
8.051234222e+19
7.859502686e+19
7.591062137e+19
1.001148057e+20
1.002385269e+20
1.003763781e+20
1.006335126e+20
1.007692435e+20
1.010525787e+20
1.014175717e+20
1.017547623e+20
1.022022494e+20
1.028430205e+20
1.036868628e+20
1.045122259e+20
1.055250243e+20
1.068012655e+20
1.081906896e+20
1.099288906e+20
1.11776221e+20
1.139676316e+20
1.164563378e+20
1.18958538e+20
1.216899352e+20
1.245778609e+20
1.273705762e+20
1.299904189e+20
1.330125967e+20
1.354530269e+20
1.376934924e+20
1.395597282e+20
1.412010452e+20
1.42569363e+20
1.435951181e+20
1.443167801e+20
1.446308976e+20
1.448977377e+20
1.449928666e+20
1.445517875e+20
1.438707486e+20
1.432170519e+20
1.419806885e+20
1.408506433e+20
1.396021787e+20
1.383702179e+20
1.370022135e+20
1.357239904e+20
1.344047724e+20
1.32681309e+20
1.312249233e+20
1.299651813e+20
1.284062403e+20
1.26870217e+20
1.254658447e+20
1.239176762e+20
1.226069159e+20
1.213903994e+20
1.199778805e+20
1.188923732e+20
1.175369345e+20
1.161757898e+20
1.149700349e+20
1.137375102e+20
1.126334919e+20
1.115506713e+20
1.103766491e+20
1.094684715e+20
1.086553627e+20
1.075104378e+20
1.064668152e+20
1.05587043e+20
1.04669869e+20
1.03696714e+20
1.029729191e+20
1.018824365e+20
1.010218747e+20
1.00067734e+20
9.930458977e+19
9.835146376e+19
9.793322624e+19
9.711769083e+19
9.630311181e+19
9.560033131e+19
9.492448045e+19
9.438172886e+19
9.358073104e+19
9.286374552e+19
9.199197978e+19
9.103483683e+19
9.033276175e+19
8.92267179e+19
8.851534444e+19
8.751656222e+19
8.604183089e+19
8.439281159e+19
8.278117943e+19
8.082982107e+19
7.843713348e+19
1.003161147e+20
1.00344188e+20
1.003199872e+20
1.004732649e+20
1.005063284e+20
1.007010089e+20
1.008725525e+20
1.012452268e+20
1.016030261e+20
1.018930596e+20
1.024057501e+20
1.031658815e+20
1.039512181e+20
1.049491342e+20
1.060517633e+20
1.072711994e+20
1.088418024e+20
1.106284408e+20
1.125329785e+20
1.14762094e+20
1.170532811e+20
1.196641014e+20
1.223079871e+20
1.250562361e+20
1.276739617e+20
1.305464204e+20
1.331866249e+20
1.35815996e+20
1.380218232e+20
1.39957429e+20
1.417563315e+20
1.432589845e+20
1.44406328e+20
1.453073493e+20
1.457879521e+20
1.458707717e+20
1.458602177e+20
1.456089763e+20
1.453234156e+20
1.44425736e+20
1.434709737e+20
1.423451524e+20
1.410121537e+20
1.39911553e+20
1.387743779e+20
1.375265069e+20
1.358263341e+20
1.344677349e+20
1.332401955e+20
1.317306867e+20
1.304724531e+20
1.290254339e+20
1.275293873e+20
1.260124089e+20
1.246811299e+20
1.233293765e+20
1.220356678e+20
1.206352267e+20
1.193318193e+20
1.180147964e+20
1.166805456e+20
1.155822474e+20
1.147716097e+20
1.132736698e+20
1.121318126e+20
1.108847079e+20
1.099354318e+20
1.088736165e+20
1.078903698e+20
1.068803387e+20
1.058518017e+20
1.05031573e+20
1.040760203e+20
1.029658586e+20
1.019457738e+20
1.011666892e+20
1.004306845e+20
9.985737777e+19
9.899133901e+19
9.837968564e+19
9.761168356e+19
9.67271283e+19
9.599668785e+19
9.519329745e+19
9.438329582e+19
9.345079872e+19
9.248411997e+19
9.151031435e+19
9.046511115e+19
8.922299994e+19
8.824592398e+19
8.707647247e+19
8.521924347e+19
8.335783618e+19
8.090549144e+19
1.001712795e+20
1.001363437e+20
1.001846821e+20
1.001695081e+20
1.003038755e+20
1.003276774e+20
1.003712152e+20
1.005140946e+20
1.007493256e+20
1.011807639e+20
1.016827081e+20
1.019607479e+20
1.024230485e+20
1.031840016e+20
1.040541962e+20
1.050821905e+20
1.06146394e+20
1.075710247e+20
1.090983402e+20
1.108221854e+20
1.127406373e+20
1.148605033e+20
1.172492553e+20
1.19739432e+20
1.225173219e+20
1.252232509e+20
1.280981202e+20
1.308743416e+20
1.336452179e+20
1.360821134e+20
1.384870304e+20
1.404433134e+20
1.421361516e+20
1.43505487e+20
1.449373184e+20
1.458825396e+20
1.465008385e+20
1.467882182e+20
1.467928525e+20
1.466370349e+20
1.462181044e+20
1.456320423e+20
1.448085979e+20
1.439227587e+20
1.428474156e+20
1.41731889e+20
1.406211326e+20
1.391951733e+20
1.377992432e+20
1.36432147e+20
1.348945243e+20
1.335882549e+20
1.321017981e+20
1.306985358e+20
1.294033675e+20
1.278383699e+20
1.265365882e+20
1.25263583e+20
1.238738714e+20
1.22593637e+20
1.213834458e+20
1.198291791e+20
1.185844902e+20
1.174648544e+20
1.1612579e+20
1.148502643e+20
1.136605904e+20
1.124723607e+20
1.114212717e+20
1.104569178e+20
1.09378881e+20
1.083687729e+20
1.074121218e+20
1.063156754e+20
1.052427817e+20
1.04365814e+20
1.035432393e+20
1.026875762e+20
1.019578508e+20
1.009677499e+20
1.000652293e+20
9.939835397e+19
9.855559668e+19
9.763545012e+19
9.676226378e+19
9.566477438e+19
9.462683423e+19
9.364856597e+19
9.260511864e+19
9.167687189e+19
9.056695494e+19
8.906865122e+19
8.750882754e+19
8.590963642e+19
8.384017323e+19
9.999865589e+19
1.000970996e+20
1.000749513e+20
1.001858621e+20
1.001938856e+20
1.003683397e+20
1.00435287e+20
1.006996439e+20
1.008786304e+20
1.009510573e+20
1.01192678e+20
1.015206193e+20