/*--------------------------------*- C++ -*----------------------------------*\
| =========                 |                                                 |
| \\      /  F ield         | OpenFOAM: The Open Source CFD Toolbox           |
|  \\    /   O peration     | Version:  v1706                                 |
|   \\  /    A nd           | Web:      www.OpenFOAM.com                      |
|    \\/     M anipulation  |                                                 |
\*---------------------------------------------------------------------------*/
FoamFile
{
    version     2.0;
    format      ascii;
    class       volScalarField;
    location    "0.14";
    object      translationalT_N2cold;
}
// * * * * * * * * * * * * * * * * * * * * * * * * * * * * * * * * * * * * * //

dimensions      [0 0 0 1 0 0 0];


internalField   nonuniform List<scalar> 
6000
(
301.6576052
305.4034424
318.1461295
358.9504692
530.9800695
302.1403942
308.3988209
325.6836104
379.4293006
497.3556647
301.872204
308.573826
327.1208906
367.9139625
435.719795
302.4534217
309.8356928
322.9052463
352.2535311
393.1070784
302.8450598
307.967767
318.8253099
337.9370036
364.3277663
302.4838244
306.2546286
314.0836697
327.2677803
343.316221
301.8951014
305.1028998
310.7656283
319.1419237
330.4201992
301.0080214
303.4784422
308.0738287
313.1904165
321.5636027
300.875222
303.3585009
305.6613009
309.7846169
315.5177303
300.1869647
302.0132338
304.0916618
306.884894
310.6546206
300.5217639
301.88842
303.2487581
305.4552802
307.5661411
300.9969021
301.3101709
301.9497577
303.1495348
305.7941233
300.5816346
301.118391
301.6865714
303.048366
303.4300963
300.5009664
301.0356397
301.3558447
302.0288137
302.5624284
299.8342255
300.2966659
300.55202
301.3263511
301.9860239
300.2308253
300.1398884
300.7372794
301.0519848
301.7628988
300.0438261
300.1192515
300.8523976
300.8226298
300.9692451
299.953217
300.233683
299.9454589
300.1565369
300.6378456
299.398458
299.1324302
299.3471443
299.6854112
300.232112
299.9069966
299.8355893
299.9668656
299.8184018
299.930178
299.5080093
299.6093222
299.9933256
300.1419008
300.1168329
299.8033249
299.9108495
299.6609168
299.3228926
299.6200671
300.0404022
300.2374261
300.098208
300.1176168
300.4113049
300.1592161
299.9713675
300.2403013
300.0796986
300.0108843
300.2450641
299.938083
299.9979536
300.0607492
300.5725424
300.0291917
300.1020838
300.5372144
300.2348084
300.2942987
299.701466
299.5888314
299.7412211
299.8607037
300.0800899
300.1280204
300.0391191
299.6725037
299.6845745
299.5798017
300.0330817
299.550759
299.9698774
299.8978693
299.9771505
300.0392162
300.2753565
300.2804514
300.0946405
300.1487671
300.1591602
299.9845785
299.7879235
299.4449107
299.5039629
299.4283914
299.3621054
299.3785776
299.8240533
299.9291424
299.7171674
299.9404076
299.6580904
299.4446881
299.2963639
299.8247829
299.6780396
299.687465
299.6877143
300.1223449
299.9123231
299.9860142
300.147339
300.0262248
299.8603529
300.1430391
300.0761365
299.9372167
300.1653355
300.4126045
300.4068084
300.2936446
300.0745064
299.8290841
299.9086035
300.0221954
299.9479639
300.1484613
299.6500059
299.636594
299.7646838
299.7863281
299.8445662
299.9901064
300.1118033
299.295776
299.2740728
299.6009904
299.761711
299.8512287
299.7700262
299.893946
300.0411069
300.0845819
300.0100145
299.8021872
299.7014023
299.4995353
299.2353187
299.3747284
300.1812556
299.7499267
299.9135376
300.125912
300.1154242
299.9181361
300.0310153
299.8128228
299.7225188
299.7421748
299.330326
299.457933
299.4634586
299.4424255
299.2568744
299.441558
299.4846546
299.3727469
299.8386903
299.8304951
300.1625515
300.1052622
300.0896259
299.8869194
300.0640002
299.8256653
300.1609755
300.4246247
300.1829893
300.0849866
299.8859701
299.443881
299.4432687
299.7957509
299.7484049
299.6960656
299.7767765
299.9546788
299.8831193
299.9483453
299.9407496
300.218934
299.9342313
299.9065209
299.90925
299.9148339
299.512012
299.5798127
299.4400511
299.7254457
299.7869675
299.9260566
299.7974101
299.9019343
299.6814758
299.8235543
299.9364744
299.7685829
299.6441321
299.834071
299.6348197
299.5732188
299.8838178
299.9978118
300.2138348
300.6842726
300.7057713
300.522669
300.3584449
300.2274683
300.0881724
300.2034364
300.5085907
300.4133191
300.303724
300.011681
299.8280001
299.8970333
299.9903945
299.8561647
300.411515
300.2567091
299.9747974
299.890941
300.1766581
300.0724771
300.1603296
300.2167341
300.1151577
299.9738567
817.1961085
864.368071
883.6638286
890.7015151
891.0332986
885.2420702
877.8859478
869.5401472
858.7496583
849.0383384
838.332577
826.4877575
818.3986952
808.9782628
799.7314841
792.7061186
780.7852045
773.9727972
766.722019
760.3565216
754.2812309
747.6649886
742.6119744
736.0384502
729.287484
723.7225708
719.8186826
714.5279166
710.929018
706.5702523
702.9314824
698.0190772
693.904507
691.8541031
689.3165358
684.6929312
682.0508446
678.9682615
675.9422454
675.6406928
672.2290314
669.4034503
667.8984067
664.610147
662.6076437
657.4535636
655.5766978
654.7798508
651.4340722
649.7586939
650.7659257
647.5226198
645.5441821
643.4252637
641.1086594
639.5626833
638.8649866
637.6921598
635.9143622
634.3612652
633.2460634
631.7555756
629.1476722
629.9880725
626.0976533
625.8354037
623.6737677
624.1162915
622.4592921
620.0190589
618.5735365
619.3312021
619.9106764
617.6218233
615.2353584
614.1364782
613.2811383
611.9644963
611.6383782
611.9952437
607.9014544
608.3349451
606.8851439
605.6148313
607.158296
606.2658912
606.5798146
604.1639998
603.4122066
601.6737902
600.8111737
602.4291523
602.2075298
601.7054392
585.4715814
629.4933897
697.2185115
725.0138741
744.5362245
763.283183
778.7231486
790.5078996
800.4047975
805.4284792
808.7238232
810.1669661
811.0736474
808.1186799
804.6834658
802.6804955
798.5629852
795.0617603
791.0241381
786.0254313
782.1342201
777.6932014
773.9419943
769.0878927
764.2020673
759.0594845
755.367335
750.1292029
748.8556644
742.8136302
738.5127875
735.5350048
731.6333004
727.5809903
725.1891023
721.5766265
719.761697
715.0176727
712.4265268
708.845941
707.1320413
704.2569081
701.442802
697.8536382
694.5853311
693.364471
690.6446011
687.0724751
686.2313191
684.7561231
683.6671141
679.5686874
678.4648353
676.1095945
673.2863706
671.1779592
669.6059656
668.2358838
666.364126
664.0880966
662.3809338
659.6974118
659.0590668
658.17878
657.0674225
654.0629443
653.1404066
651.7415552
650.1342002
649.0397091
646.5103515
646.7551406
646.1906944
643.7991457
642.7545476
639.7973467
638.1994551
638.0639224
635.6463831
636.2930408
633.7816614
632.03956
633.1900295
630.169378
628.804373
627.7700246
625.5519009
626.456498
622.7122753
620.9838413
619.21895
616.9755165
615.4241147
610.574038
600.8863731
561.5593643
513.5153131
577.5315597
619.8612873
643.9674271
664.7066644
679.1650732
691.0413804
702.4770816
714.8506156
723.8611497
733.5217966
740.1731477
746.7580219
751.3177271
754.8185877
758.9908529
760.6369489
761.3499167
760.6969358
761.3057388
759.1663758
759.0212173
755.965638
756.3121912
754.3924133
752.1499941
750.7769927
747.4329242
745.4097279
741.4713776
740.5572401
738.5792952
734.8792794
733.2931947
731.2259701
728.0349591
727.1271761
724.7494316
721.5660103
719.9586276
717.0364029
712.668082
711.1540846
708.0779469
706.9171041
704.5300628
703.9363164
700.4653457
700.113229
697.6267561
696.0595332
693.6426791
691.4552859
690.6709536
688.8864548
686.4625418
683.1600229
681.7820596
679.6098235
679.5290653
679.7210535
677.1207696
677.0980535
673.908403
671.8252242
670.3980126
669.5042416
667.9141057
666.1509062
662.6389257
662.3594341
661.9639626
659.8095742
658.5664304
656.2885699
655.798327
654.6169606
650.7505743
650.4554123
649.6178183
648.2238717
647.2343031
645.7115998
642.5651848
639.890129
638.0738073
638.3043281
636.3166714
632.0026931
628.9787802
625.679078
621.4093186
611.2928221
593.9453968
553.1711377
441.4181288
490.5462624
534.619565
566.374676
589.8689997
606.3430745
618.0057458
628.4171427
639.444601
649.8050311
660.766474
669.390683
678.3477284
685.7078401
692.4953271
700.6023337
704.980229
710.2301642
713.9422258
717.3276252
720.8271582
723.7907033
725.7352214
727.9348835
728.2703024
729.5619873
728.1272215
728.5780437
728.1056968
727.9279424
727.1851319
726.4362749
726.0929827
725.3387387
724.0669169
723.433268
721.7313603
719.2031875
719.3333852
717.6898702
716.2338703
714.4951058
712.645842
711.7407947
710.4365402
708.7287116
707.7781039
706.0812312
704.9013665
703.1281846
700.3743156
698.2008197
699.0825867
698.2676238
695.6817223
693.4326806
692.1984434
689.5622443
688.2715315
687.0827709
686.7834386
684.5214668
684.5836052
682.504528
680.9302716
679.5336493
678.1575221
677.1377263
675.8862092
674.9396619
675.4412827
672.1259919
669.6982002
667.9925872
666.3626652
666.1894804
665.0562997
663.0242712
661.9155615
660.5724574
657.5311227
658.422304
655.2425135
652.974865
651.714527
648.3478606
645.904209
643.2341662
641.3264376
637.4758782
630.7407788
623.6338423
611.6262915
590.3695882
550.0424711
393.5089289
431.3210322
467.6149722
499.6481349
527.3805273
547.1913363
562.6545871
574.4932888
585.4090389
593.4088774
601.6843071
610.944185
617.8122339
625.7182433
633.6823783
641.1739726
647.5572784
655.122704
661.7374529
668.6396075
673.6432558
678.3676276
682.5278453
686.9957519
690.6950431
693.1510218
696.0466635
699.1565602
701.3003063
702.5891442
703.0953895
705.3995548
705.9162237
704.9987583
707.2505481
707.5010203
706.1162186
705.4311261
707.2664723
707.5781736
707.6919572
706.5632111
707.6992589
708.743203
706.1652286
705.0286576
703.0084685
702.0812413
701.1380494
700.4308415
699.5023502
698.7336346
698.958065
695.5094845
695.9868749
693.5112399
692.8542142
691.1259158
691.3884753
689.7836437
690.0277492
687.8386113
687.7595021
686.6270717
684.8914644
683.9178048
682.9703445
682.5693423
681.1236653
680.484259
679.9297909
678.6196238
676.7731777
675.062769
672.4056338
672.5941952
670.1102626
668.7381713
667.5968184
665.4041978
663.2890809
663.8556303
661.0654662
659.4369159
656.4814478
652.8931768
651.7569063
647.9464806
642.9137017
638.9283146
632.7736804
623.5908191
610.0880461
587.7225899
550.9984829
363.6909713
390.4905475
417.8802321
444.474507
471.6552719
494.8393489
514.2971294
529.0602592
540.732926
549.8069462
559.3671552
565.8147134
573.2636223
580.2557637
586.9722946
593.2411517
599.70125
606.3415795
612.6309389
619.4648821
625.63707
632.1334926
637.3061405
641.9420714
647.0889355
651.0042141
655.7770502
659.658887
665.006267
668.0874467
671.3058096
674.5921208
675.7305366
678.2877645
681.6755174
682.67979
683.9710888
685.9484925
687.7298305
690.6568328
690.6308694
691.488941
693.538356
694.2266306
691.7658952
692.0401797
692.8667023
692.87932
693.1886495
692.9601662
691.7725783
692.016013
693.0145436
691.9384375
690.8508527
690.3484965
689.4227621
688.111829
687.2664622
688.6510764
686.6863491
687.5055003
686.7280909
684.9017758
683.015486
683.7235857
683.6058611
682.8908526
681.4412018
680.1138496
680.7569634
678.7864721
677.848073
675.9758465
677.4121789
674.5026135
672.2703933
672.835169
669.550138
667.5629418
665.9200122
666.0542809
664.7997944
661.2495649
660.1951606
658.6962542
653.4921786
649.6673299
646.3560931
639.7123748
631.2449919
620.3579297
606.2134687
585.4594347
551.9831728
343.8070737
361.7370654
382.4882667
404.2194192
426.954881
447.293406
468.2852142
485.8507647
501.7947303
511.6937822
521.7104469
530.6463616
536.9788755
545.1529482
550.0928168
556.5625177
561.3551746
567.1643183
572.5771466
578.0256612
583.4658134
591.0436927
596.6008168
601.5696005
606.8951706
612.5666859
617.1874849
623.4588559
627.940172
631.6534695
636.6894902
640.463236
643.8356893
648.7007045
651.7280912
654.2385554
657.6885557
660.3653829
661.2556077
664.5697126
666.9785694
668.629749
671.6109952
672.1619134
672.8932691
674.8062662
677.3968979
678.9204439
678.6895922
678.8940485
679.4972939
680.7995102
679.3249521
680.3012062
681.8083011
682.528725
681.0550482
681.0406941
680.8088026
680.9269733
680.7458181
680.6727578
681.2339125
680.8646285
678.951584
680.0047647
679.9899064
679.0945062
677.9392964
676.7902249
677.5409132
675.0251122
676.8733852
675.7303232
675.2093748
675.3159823
674.104008
670.8072336
671.0259529
669.2497008
669.6161619
668.0770929
664.7523193
662.7766705
661.0052507
658.7965713
655.3279722
650.575504
644.8766973
638.7046979
629.7016008
622.3105939
606.0897626
584.5044976
552.9011391
330.6259819
342.6600826
356.9007389
374.3995166
391.5576103
410.0461616
427.6900123
446.3254584
463.1042184
475.1592235
488.1688663
497.7481442
506.6297322
514.5872746
521.5940619
524.8913155
529.1777271
535.368697
540.1842135
546.0492629
550.5384717
556.9000334
560.9587529
565.5410006
570.2099519
576.1717724
581.5735811
587.1827842
592.3279396
595.986659
601.7561157
606.7483704
610.8815034
614.8599497
620.4610347
624.3431958
627.0906751
633.0116051
633.3564356
637.1433017
639.789407
644.2013955
647.1339641
648.5660634
651.4662331
653.4199631
655.7548335
657.182933
658.468423
662.3137936
661.7009926
662.486132
664.4197652
665.7973389
667.5334568
668.3052299
668.0083923
669.1271136
669.8480079
670.0282227
670.5795088
671.351834
671.9006965
672.3644969
672.6206031
671.5700729
673.0737947
671.1135001
672.3063374
672.718615
672.4279895
671.0216088
671.0803204
671.7069409
670.98449
671.2011117
668.900972
667.7389594
667.7585367
666.5309138
666.9031679
664.7915701
662.4677029
661.2402282
657.4016707
655.4720101
653.0418852
648.5695694
643.1676294
636.3419361
629.1511178
618.1925225
604.6138581
584.7368791
555.5211962
320.6629287
328.9214222
340.5102956
351.8182151
365.3750282
381.0092422
395.8133135
411.2180071
428.9613029
442.2437522
455.5148626
467.2386423
476.9137691
486.3216604
494.538359
499.8006413
505.4178266
509.863421
514.8655187
519.1163069
522.9284167
527.0322042
530.7978305
536.5182442
540.1970261
545.0599657
550.1734701
554.9296311
561.1169234
564.581925
568.267307
574.1641848
579.4370802
583.4297248
588.8227521
593.7132794
597.7411163
600.948637
605.2625335
609.1321706
612.7652867
616.5078754
619.7676381
623.8034007
626.2067244
628.7009337
630.9573633
633.6602972
636.6171344
640.125218
642.1828771
643.1694272
645.311485
648.483261
649.9090229
650.5641865
651.4356331
653.0731514
654.253072
655.276601
657.0686383
658.2805559
659.5377967
662.0244376
660.839056
660.6069935
661.657103
662.3564628
662.3202849
662.7817977
664.2703459
662.8921845
662.061835
663.1972222
662.6625372
663.0629149
663.1664032
663.2285478
662.3803704
661.2645463
660.9668169
660.4469068
657.7793126
657.0293346
654.4598016
651.7291087
648.8058931
644.0319471
639.4369439
633.6285783
625.8188304
615.4574234
601.7352286
583.0125508
557.176508
314.3405382
320.5424719
328.0155453
336.1298451
345.9110692
357.7855445
370.4043006
382.0482624
397.6179404
411.5823914
424.1690143
437.0079365
448.8487553
458.9441985
468.5635411
475.6314815
481.0890267
487.2090453
492.3495873
495.3712865
499.8130181
504.7391319
507.6544693
511.315315
515.7453312
519.1551392
522.9658411
528.3896381
532.9401089
536.8704244
540.9730683
545.7141334
550.6972073
554.0498541
559.5028282
564.3334103
567.6516535
572.2928626
577.7505965
580.4182465
584.1308228
588.1834677
592.4757495
596.5336379
599.826929
603.9227131
606.0546807
610.728862
613.6134258
616.9572679
619.3782503
621.5359951
623.9190697
627.4021531
629.5151659
631.3266245
633.0231281
633.329783
636.2415241
638.9772779
640.0751772
642.4261036
644.5807073
645.5797576
646.7310516
648.0496933
649.6884084
650.7388682
649.8491408
650.9030277
651.5140524
653.6962048
653.5064802
653.283593
654.1350943
653.5327788
654.7985785
655.6325783
655.8015036
652.9631729
654.1382048
653.3788232
652.12131
651.7120623
649.2300025
646.0931915
643.5979955
638.5816799
634.9309439
627.9401547
622.1729747
613.1475034
599.3797198
582.5654448
557.4982949
310.4382861
313.8001498
319.4003598
325.9820411
332.9749097
341.4958102
350.440431
360.2353045
373.0868716
384.4108214
396.2814438
408.8481732
421.2721677
431.6546664
442.4530002
451.5629581
458.8613014
466.6829302
471.5207966
476.2802752
480.9290576
485.1862688
488.8380348
492.301649
495.5894789
498.1014151
501.9628341
506.3305594
510.1762554
513.53912
518.2154453
520.5625728
524.9632465
528.9211909
532.5535374
538.0582844
541.060798
544.6659155
548.9227727
552.5713825
557.4069026
561.5852284
566.4763686
569.9940215
573.3421894
576.4361566
580.6830541
584.9441655
589.8432354
592.576047
595.0895588
598.0220784
601.7173322
605.3279693
608.2061788
609.2454799
612.0286956
614.4700623
616.7902622
620.4510727
621.8699638
625.0208799
627.9378132
628.7058804
630.454341
631.7182517
633.8659143
634.3105841
636.883478
637.1927302
638.5118442
639.2659829
640.2863671
641.168371
641.818948
643.0542952
643.4948894
643.6565116
643.5087906
644.4587661
644.4396582
643.9767136
642.657005
642.6082595
641.3212439
638.2449704
636.2083292
632.1856561
628.9694478
623.4869151
616.4796167
608.1791737
595.2543031
579.8419441
558.020202
307.4747644
310.1720692
313.4400357
318.272504
323.0564259
329.3781239
336.1715972
344.383932
353.6201881
363.3473603
372.9686856
384.2973459
395.0829786
405.7049845
417.4266743
426.8663548
435.8579922
444.1435747
452.2003323
457.1805781
462.1455814
468.1763191
472.1525598
475.7867008
478.1640091
481.0336394
483.6377302
486.5108093
490.0467404
492.9789172
496.4508231
499.9501871
503.9328704
507.2501334
511.0808622
515.354507
518.0757709
520.9197746
525.1239123
529.5634856
532.8369577
536.281434
541.0721258
544.5177733
549.3433268
551.7427308
556.0318089
560.5391985
564.5233823
567.7905361
571.1230847
575.068827
577.8385172
581.4708706
584.8256615
587.4054145
590.4135169
592.7959878
594.3324822
598.5635982
602.8733961
605.6353814
607.6139048
609.9450191
611.4321038
614.5464041
616.6026751
617.5016686
619.4603969
621.2297632
623.0140769
624.6526518
627.1976858
628.6745943
627.7424259
629.0802487
631.8047482
632.6506698
632.7613465
632.707318
633.4314
633.6437655
632.3543142
631.542812
630.8974074
629.1733432
626.3316673
622.6826205
620.7997853
615.8163769
609.2103323
602.1319998
591.2398076
576.5104388
556.8837923
305.163946
306.9756994
309.1683809
312.3042479
316.1747763
321.0342771
326.1313603
331.596671
337.9762437
346.2550279
353.9853272
363.2439558
372.6809269
382.2279441
392.8992548
402.7949505
412.6107443
421.6975412
429.5691616
437.8434635
444.2363958
449.9598034
455.0185242
458.8093314
463.5861365
466.2072848
469.4099908
471.3981438
474.9046482
477.5525063
480.8492412
482.5971235
485.1170103
488.1460725
490.8957916
495.2196589
498.1352453
500.6522702
503.5601885
507.6274271
511.3697
513.4020307
518.0126244
522.5971217
525.609025
528.3859779
532.8832352
537.5503859
541.232018
545.2756543
549.6866596
551.3651992
555.2741293
558.5917895
562.4581717
567.4758817
568.9904886
571.6479391
575.0779291
578.2059546
581.1038869
585.190822
587.3318371
590.5366223
592.2174479
595.3855524
597.8627943
599.2614085
601.052123
605.3259258
607.1083593
608.5486685
610.9551388
612.1214831
613.1026604
613.7803301
616.8860629
617.4760443
619.3675629
620.1517993
620.8215441
621.6650323
620.9659758
619.7556992
619.2851574
617.1119681
615.7280359
612.9317874
610.061382
606.7289449
601.2027957
592.8996418
583.6855572
572.9566142
553.7628412
303.8169007
304.6166765
306.034661
308.913439
311.3647166
314.4555846
318.5452641
322.1240365
326.5907134
332.8627397
339.7067066
347.0208318
354.4106989
362.5107275
371.3727283
380.5250916
389.4184963
398.8144514
408.3741083
416.8818115
424.0345871
431.0225895
437.5122373
442.2909074
447.3857516
451.2343629
455.2167371
457.3698625
460.5588722
463.7915624
466.5327091
467.9688836
470.4381512
473.5587357
475.6044044
478.5345283
481.2686069
484.0196947
486.346675
489.7645778
492.5088749
495.3757971
497.9073426
502.0498541
506.0027527
508.9942651
511.7046594
516.1963883
519.5230505
522.750508
527.5796606
529.9599128
534.1428449
537.1957354
540.1639407
544.1222887
547.6830452
551.3927185
554.6570443
557.6043653
561.1433331
564.1607643
567.5009712
569.8429553
573.6438354
576.058931
578.2532084
581.1406618
584.1524163
586.0614895
589.2424861
590.6903777
593.6895776
595.9930503
597.2345425
598.8124371
601.4165595
603.1417928
604.2898124
605.1543442
605.586018
606.4843117
607.1413869
607.8421673
607.0703051
605.6977349
604.4101468
602.496557
599.8428188
597.6501402
592.6410625
586.9756023
576.9385229
566.843625
550.3271615
302.8411782
303.7382896
304.5192516
306.4507849
308.3362797
310.3451544
312.6404655
315.8522497
319.8621831
323.4565407
328.6152898
334.0871826
339.6789283
346.9054465
354.0862228
361.5893537
369.4745459
378.5644999
386.8573532
394.8807715
403.0412113
411.5793309
418.9756772
425.1143191
431.2644555
436.4319269
441.6694896
445.544288
448.0182954
450.6765577
453.5621738
455.8311364
458.1194069
460.3844366
463.2095945
465.3242362
467.0343072
470.1927937
472.5042078
474.4167751
476.8150567
479.2667853
481.8080399
484.7347079
487.9264768
491.589513
492.774618
496.4904976
500.1745272
502.9959393
506.2720713
510.2463091
512.5259633
517.5782419
520.5509327
523.8699871
527.788661
530.6987671
533.5343773
538.1108392
540.1684799
543.7795028
547.4092423
551.0747695
554.1928259
556.0840646
559.4018489
562.2533916
566.0085387
568.146771
570.0015756
572.4558652
575.0265388
577.3128789
579.8205381
580.9884144
584.9774142
586.5058807
588.1289197
588.6671907
590.3816852
591.7199627
592.8151366
592.619013
593.2337352
593.258879
592.2426825
590.317946
589.7830347
586.4901654
581.5830329
577.0674419
569.3739537
560.2385049
546.435604
302.2750346
302.6857131
303.3401002
304.5750662
305.9819501
306.9446671
308.9571648
311.1231872
314.2023765
316.9723947
320.2094466
324.7861324
328.3836826
334.5743377
340.2909229
346.5775205
353.2649657
360.849923
368.3785088
376.234512
384.1688026
391.7624694
399.4607172
407.0278909
413.4838961
419.781603
425.7203152
430.8226578
435.0447425
439.0448472
441.7138499
444.9046947
447.3578396
448.9494222
451.6231957
453.5317391
455.07374
456.4445634
458.9614704
460.4884648
462.9528719
464.8870423
467.0409832
469.7206389
471.9214398
474.274413
477.474308
479.5721034
482.6594782
485.9525871
488.9848122
492.4210264
494.4712558
497.940056
501.4853828
504.759287
507.0778651
511.3617273
514.0418227
518.1783688
521.4308989
524.431074
528.3125687
531.1534902
534.0601368
537.9253905
540.729844
543.7407546
546.2464804
549.0418452
550.5372052
554.5793736
557.6278985
560.0182297
561.5217257
564.0894533
566.9105147
569.6520271
571.7631707
574.0238498
575.0123803
575.7684029
577.358711
578.0635514
578.8043791
578.7143006
579.2663559
578.4821827
577.052022
575.3805647
572.5314997
566.9403322
559.9596671
553.493411
540.2738799
301.7485242
301.9092046
302.1302641
302.5900632
303.4433349
304.9901793
306.6141589
307.8057912
309.8367501
312.2592918
313.9191371
317.6895088
320.6261325
324.8074927
329.4366413
334.0971338
339.1663685
345.1189191
352.3094626
359.099226
367.0146287
374.0224524
381.0883115
388.4578847
395.9618814
402.3137667
408.6816563
415.5111399
420.4070375
424.9558638
429.4431109
432.5778494
436.1412887
438.8795923
440.9178122
442.78556
443.845248
446.4388717
448.2668952
450.1899761
451.8756524
453.7969161
455.4862188
457.275631
458.6376748
460.7087895
463.2294024
465.9137192
468.0279663
471.207104
473.666517
475.796086
478.4878052
481.4018528
484.7588113
487.1336725
490.0383397
493.943679
496.8283388
500.7578416
502.7571986
506.5050934
509.082334
512.4784491
516.0828621
519.1337049
521.8053575
525.1576018
527.7817514
531.281194
533.8409594
537.6548382
539.0931511
541.6472048
543.5966662
546.4228359
548.6458116
551.5475007
554.3765185
556.0125167
559.1433669
559.4162425
560.9229425
562.3909775
564.3565828
563.3947595
564.2163238
564.6206663
563.258944
562.8948962
560.134778
556.2669331
551.0758526
544.6259547
535.3833221
300.2261853
300.7214435
301.4940992
301.9315548
302.2762897
303.450252
304.621255
305.6890082
306.6962752
308.5324268
310.1441108
312.3489555
314.2757187
317.6151609
320.9698512
324.8683191
329.4324398
334.1086086
339.1602307
344.692633
350.7978049
357.8001703
364.6401938
371.5605936
378.6261279
385.5287174
392.4418996
398.4358155
405.4296869
410.8332175
415.3388412
420.1086958
423.5899032
426.9314493
430.1550184
433.2134611
435.7121376
437.2866908
438.4658234
440.2650893
442.1292365
443.8926372
444.8016839
446.9641934
449.1705639
450.8690057
452.7609434
454.7873752
455.9358866
458.2060906
460.0577819
462.552213
464.4559848
467.3854059
469.9513305
472.621752
474.7207113
477.8046115
480.0181445
483.0596566
486.1754479
489.4638053
491.8660392
494.4390697
498.2687205
501.3043197
504.4685417
507.446099
510.3493789
513.0400477
516.063695
519.3012701
521.3338336
523.9305614
526.329519
528.5410772
532.2189065
535.4107656
537.3589523
539.6251567
541.863769
543.5051453
545.7320645
547.5325497
548.4665817
549.5086289
549.5339598
550.5585038
550.8110764
549.731251
547.9404198
544.7948447
541.8436245
536.40585
526.8123809
300.3553264
300.8456422
301.209929
301.2978634
301.5467503
302.177144
303.3085674
304.252572
304.8255753
306.1612666
307.5865369
309.3438831
310.8554786
312.2831383
315.0134595
317.2154401
320.7413213
324.3973429
328.7105732
333.0619537
338.1614924
343.4570088
349.3250735
355.0055309
361.6968765
368.7879598
375.6051784
381.7311075
388.2356895
394.8411737
401.0928159
406.1137684
411.2606101
415.3519461
419.4048804
423.1714565
425.7784617
428.1945431
430.195962
432.2200017
433.8422203
434.5571293
436.6016652
437.9309646
439.5555373
440.9304561
442.0165666
443.8764551
445.8649151
446.6649867
448.4104729
450.9380508
452.93734
455.1319898
456.7810717
458.7211654
460.5935847
463.0924892
465.6979937
467.645364
470.4717356
473.4527713
475.6897588
478.0735692
481.8788095
484.7707229
487.5635404
490.3630324
493.3019805
495.6860686
498.9653307
501.6304422
504.815835
507.3820571
510.0418432
513.5597625
515.246194
518.2240489
520.0021531
523.2668819
525.8860712
528.2034834
529.5846974
532.1247135
533.5319622
534.2819778
535.0270858
536.5709351
536.8738132
536.636752
534.8849009
533.1228698
529.8365956
526.7443139
519.4754814
300.1395033
300.6189856
300.4671712
300.6101632
301.241843
301.5298077
301.8355577
302.110402
303.7838549
303.9956006
304.9846295
306.1020044
307.2905975
308.9360655
310.5075452
312.5251922
314.5147007
317.2926068
320.2407249
323.3103271
327.5208455
332.049915
337.312987
342.0804023
347.633583
353.2479187
359.4944087
366.1352302
371.7195723
378.7658865
385.1849839
390.8015434
396.7449756
402.2318787
406.9435067
411.3458811
415.2320785
418.2268715
421.0160895
423.251733
425.26952
427.3414476
428.7774011
430.8926544
431.6520974
433.11152
434.3330666
435.0294098
436.4929964
438.2794668
439.3194608
440.7021378
442.3837905
443.7115475
445.5214023
447.3672927
449.5395624
451.9510246
453.5878929
455.3182484
457.6291284
460.3000512
461.8734887
464.9129663
467.8309391
470.6113855
472.7401231
475.1384123
477.6793697
480.3123097
483.4864484
485.702312
488.2205055
491.3212399
494.3321966
497.5747998
499.9435984
502.3200927
504.2533566
506.5366977
509.6212311
512.4001097
514.5425101
516.7020386
517.5644469
519.8991056
520.6398321
521.189915
522.3842596
522.1484014
521.4351722
521.0282674
518.8498923
515.2424099
510.2789603
299.7876324
299.9626937
300.3535238
300.1095381
300.4887179
301.0966514
301.7510055
301.7964374
301.9415232
302.7555964
303.5214693
304.7322009
305.9477091
306.2745205
307.3718278
308.9076063
310.4105974
312.8587183
314.6040046
317.0251713
319.9349026
323.2779672
327.2271549
331.3669648
336.0412068
340.9707916
345.2610739
351.3313666
357.6782135
362.5756468
369.0481092
375.7704617
382.0585552
387.4337205
393.4523474
398.3017252
403.1905665
407.2266662
411.1130651
414.1637117
416.7937309
419.326596
421.4121287
423.3440723
424.8911543
425.9330546
427.3316138
428.2980195
429.6455387
431.0258526
431.6903789
433.1023651
433.8245737
435.677571
436.7049621
437.6285314
439.4396025
441.0524243
442.0153615
444.2835499
446.1940325
448.7889702
450.6291868
452.6311311
454.8297352
456.3513311
458.6739798
460.9187285
463.9009663
466.8171036
469.1291199
471.7930419
473.6932394
476.3600869
478.678644
481.1223412
484.5862014
487.1078571
489.0466886
490.6408854
493.7401906
496.1804587
498.6928207
500.4218186
501.9547838
505.6381133
506.741268
506.9317621
508.262236
509.2555792
508.2001177
508.4055799
506.7022355
504.1251449
499.9118982
299.5457586
299.9074567
299.7043857
300.0885518
300.0311108
300.0135703
300.4868747
300.8875594
301.5962526
302.0463258
302.178662
302.9358937
303.6597181
304.4149189
305.5105358
306.4660108
307.3124423
308.9322952
310.2914186
312.2775883
314.5257624
316.5927702
319.0408483
322.0137395
325.8729744
330.1112013
334.5893685
338.9913942
344.3158135
350.052284
355.89206
361.6660583
367.0563197
373.172616
378.4394259
384.2310329
389.5832363
395.1082266
399.8461461
403.82354
407.6322497
410.8888263
413.0949867
415.2557846
417.6124041
419.2900157
420.5164657
421.8703993
423.1035586
424.2843966
425.2882085
425.8842591
427.0925746
428.0246207
429.0930499
429.6161853
430.4078102
432.0799503
433.2408785
434.9155648
436.5528744
437.5265269
439.5668213
441.510982
442.9842362
445.7453258
447.394929
449.1103129
451.6184882
454.5249652
456.7533282
458.5894891
460.6523368
462.6722297
464.6400946
467.4544914
470.2159763
472.2310818
474.8203804
477.1928569
479.5412741
481.0800657
483.4397981
485.6022353
488.1672157
490.5273175
492.3001807
493.2716048
494.0407374
495.8781178
494.154424
495.4666304
494.9919381
493.5818978
491.0466704
300.1231094
299.8089897
299.5379329
299.6180232
300.0934195
300.1690349
300.2935341
300.2286719
300.3089486
300.7834019
300.9663752
301.7195524
302.3525114
303.4193285
303.4583241
304.2507464
304.9395548
306.0318248
307.3840855
308.9155044
310.3621796
311.7042072
313.2018827
315.9324762
318.5381041
321.0347593
324.9633238
329.040802
332.7451142
337.8589647
342.3265662
347.3120818
352.8082119
358.951096
365.1458483
370.9200952
375.8343638
381.1335676
386.7615063
391.4727506
395.8287063
400.069188
403.91051
406.3593784
409.3761671
412.0802838
413.4214163
415.0101542
417.0394454
418.1240572
419.344336
420.1235468
420.9886208
421.9213832
422.3142244
422.8959921
424.231585
424.7844697
426.1991862
427.401901
428.1253814