/*--------------------------------*- C++ -*----------------------------------*\
| =========                 |                                                 |
| \\      /  F ield         | OpenFOAM: The Open Source CFD Toolbox           |
|  \\    /   O peration     | Version:  v1706                                 |
|   \\  /    A nd           | Web:      www.OpenFOAM.com                      |
|    \\/     M anipulation  |                                                 |
\*---------------------------------------------------------------------------*/
FoamFile
{
    version     2.0;
    format      ascii;
    class       volScalarField;
    location    "0.14";
    object      variableHardSphereMeanFreePath_N2cold;
}
// * * * * * * * * * * * * * * * * * * * * * * * * * * * * * * * * * * * * * //

dimensions      [0 1 0 0 0 0 0];


internalField   nonuniform List<scalar> 
6000
(
0.01325270622
0.01327427696
0.01335491318
0.01357864996
0.01403122383
0.01327007938
0.01330571081
0.01341771865
0.01367957878
0.01396044859
0.01323999626
0.0132758238
0.01338221526
0.01356927116
0.01373068091
0.01325211399
0.01329782883
0.01336403682
0.01351367764
0.01363053907
0.01325348228
0.0132936572
0.01335928598
0.01345064669
0.01354042873
0.01325458386
0.01329634919
0.01332076695
0.01340576516
0.01346553832
0.01326069497
0.01326759498
0.01331038782
0.01334202717
0.01337375507
0.01324300914
0.01325695141
0.01326505573
0.01330471962
0.01333977053
0.01324225696
0.0132677988
0.013280907
0.0132949599
0.01329780604
0.01323200576
0.01322724656
0.01323859668
0.01325055432
0.01330011358
0.01324670414
0.01324103389
0.01326594237
0.01325649166
0.01327441434
0.01325073056
0.01327457766
0.01325040111
0.01326064776
0.01325782373
0.01324338206
0.01322952615
0.0132423725
0.01326828769
0.01327037242
0.01324381389
0.01324621733
0.01325602758
0.01324840949
0.01324542061
0.01323543297
0.01324029709
0.01322615542
0.01324342974
0.0132181688
0.01323809637
0.01323735288
0.01324796211
0.01323463487
0.01324795972
0.01325423982
0.01324791845
0.01326096487
0.01325007565
0.01325143392
0.01323193552
0.01324168444
0.01324164564
0.01325236542
0.01326955795
0.01323924773
0.01324433948
0.01324665078
0.01324247251
0.01322940929
0.01323599481
0.01324345718
0.01323453163
0.0132403667
0.01323088992
0.01323516873
0.01322666399
0.01322157554
0.01321815942
0.01322776595
0.01322071144
0.01323252272
0.01323782603
0.01324636542
0.01325115379
0.01325113492
0.01325571967
0.01324873347
0.01324473642
0.0132516949
0.01323618589
0.01324281718
0.01324429758
0.01323462046
0.01324955367
0.01324108046
0.01323384324
0.01324992476
0.013235885
0.01324169027
0.01323508207
0.01323323112
0.01324189898
0.01325844641
0.01324397608
0.013239835
0.01325344006
0.01325338916
0.013226545
0.01322257517
0.01324641824
0.01323349705
0.01322675047
0.0132411379
0.01324654027
0.01324784643
0.0132542625
0.01324324629
0.0132435535
0.01323472479
0.01322784554
0.0132288199
0.01323887341
0.01323897588
0.0132426827
0.01323860736
0.01323866215
0.01323569261
0.0132337855
0.01324712577
0.01324355394
0.01324434493
0.01325397107
0.01323826346
0.01322503703
0.01323007977
0.01323694429
0.01323063297
0.01323029277
0.01324813977
0.01324612907
0.01323158342
0.01323149124
0.01323075694
0.01324195999
0.01322926322
0.01323623554
0.01324508656
0.01324489656
0.0132446975
0.01323831658
0.01323715351
0.01324515755
0.01323780637
0.01324808847
0.01323722213
0.01324448845
0.01324518374
0.01323719754
0.01324361912
0.0132407241
0.01323553673
0.01323899615
0.0132325373
0.01323396892
0.01323492681
0.01324191298
0.01324906366
0.01324006809
0.0132377526
0.01322904632
0.01322541731
0.01322081128
0.01322799618
0.0132137786
0.01323365312
0.01323718819
0.01324182175
0.01323820133
0.01322830964
0.01324220903
0.0132357503
0.01324081456
0.01324082104
0.01323835357
0.01323850649
0.01323575601
0.01322882572
0.01324081705
0.01324747499
0.01324660783
0.01325019007
0.01324154572
0.01324637639
0.01323317235
0.01322239024
0.01322235195
0.01323269152
0.0132292067
0.01322815855
0.01324245224
0.01323681951
0.01324159188
0.01323118473
0.01323022358
0.01323396373
0.01323665382
0.01323700981
0.01325622553
0.01324090838
0.01323636097
0.01324227001
0.01322714509
0.01321954325
0.01323828052
0.01324353511
0.01324336468
0.01324772425
0.01324632983
0.01323946549
0.01322894526
0.01323755973
0.01322608178
0.01322931521
0.01322519806
0.01323636329
0.01323962385
0.01325560887
0.01325669989
0.01324882936
0.01324329088
0.0132408509
0.01324020913
0.01323489142
0.01324336827
0.0132493828
0.01324900777
0.01323494128
0.01324738027
0.01323626838
0.01322823573
0.01322553217
0.01323078035
0.0132401919
0.01323717922
0.01324394754
0.01324332075
0.01324612901
0.01323631927
0.01323685624
0.01324577388
0.01324529235
0.01326387728
0.01325561241
0.01325723046
0.01324492633
0.01324090666
0.01322006155
0.01323227324
0.01321789639
0.01323114409
0.01323085114
0.01322937908
0.01323092014
0.01322267574
0.01325575243
0.01324946598
0.01326173513
0.0132572016
0.01325920304
0.01324722181
0.01324072555
0.01324709582
0.01324467075
0.01325172311
0.01289068682
0.01259685284
0.0128018237
0.01300196253
0.01316544465
0.01328708549
0.01336671677
0.01345638421
0.01353564706
0.01358333384
0.01361353337
0.01368207252
0.01380278135
0.01388350268
0.01393200136
0.01398583706
0.01394157665
0.01401824679
0.01408831305
0.01418652769
0.01426013271
0.01427444754
0.01432252886
0.01433288335
0.01433578322
0.01442749245
0.01451155046
0.01462781105
0.01459982931
0.01469909191
0.01479964333
0.01475211132
0.01475173508
0.01487968087
0.01493567468
0.01496837074
0.01502921348
0.01504644339
0.01508892616
0.01519812547
0.01524262495
0.01525176876
0.01527209678
0.015303833
0.01535985015
0.01539015088
0.01543084542
0.01553974347
0.01545577087
0.01554250861
0.01571101342
0.01566555383
0.01570100698
0.01572168315
0.01573536446
0.01582658543
0.0159197646
0.01587306675
0.01596268714
0.01600432473
0.01600979408
0.01607729196
0.01608668181
0.01620155683
0.0160980046
0.01620569375
0.01623702205
0.01634537266
0.01638316403
0.01634696656
0.01636786486
0.01646793333
0.01660967965
0.01650216419
0.01655578705
0.0166323638
0.01671581731
0.01677391892
0.01690375965
0.01703538377
0.01694565892
0.0171348972
0.01721104541
0.01731359729
0.01752033194
0.01767532122
0.01799091102
0.01823673537
0.01852680456
0.01887001553
0.01954307188
0.0204157584
0.02146903016
0.02310952557
0.02688552784
0.01357468199
0.01273664708
0.01217096978
0.012000462
0.01206964711
0.01224217011
0.0124324185
0.01261280087
0.01285020511
0.01305050313
0.0132229985
0.01337624565
0.01353079818
0.0136818478
0.01382286332
0.01391585881
0.01404007669
0.01417055425
0.01428809148
0.01433949748
0.0144991304
0.01455860899
0.01459028986
0.01469335331
0.01471196126
0.01486174336
0.01497068497
0.01504545992
0.01512729879
0.01518153581
0.01527017338
0.01525915093
0.01531659625
0.01543839116
0.01546420529
0.01553022322
0.0155675709
0.01567884161
0.0156842432
0.01573103782
0.01577103789
0.01582954149
0.01587220309
0.01586667199
0.0159915295
0.01598177811
0.01602275822
0.0161432859
0.01614952913
0.01621265334
0.01629006273
0.01636695166
0.01633459107
0.01633223362
0.016364014
0.01645621994
0.01650200689
0.01652396497
0.01660107746
0.01659308726
0.01664326799
0.01666403371
0.016734743
0.01685382722
0.01681505939
0.0168036324
0.016907663
0.01697125251
0.01704955155
0.01696224137
0.01700751283
0.01707672326
0.01716623402
0.01717652654
0.01719036281
0.01721973559
0.0173592695
0.0173628661
0.01748936383
0.01755959067
0.01760390763
0.01776878738
0.01782921859
0.01791518838
0.0181246511
0.01830278746
0.01865559367
0.01882505515
0.01908490424
0.0195301256
0.02012753447
0.02100427993
0.02205239428
0.02380856702
0.02745063891
0.01368089427
0.01330767732
0.01279962977
0.0123293915
0.01203488893
0.01185140972
0.01184983065
0.01193851675
0.0120703449
0.01223670323
0.01242116929
0.01262112545
0.01280603214
0.01299191345
0.01318471858
0.01335474752
0.01354996537
0.0137014632
0.01384957532
0.01399686277
0.01416592271
0.01427443228
0.01439929111
0.01450329536
0.01462927372
0.01475271118
0.01488683643
0.01500469352
0.01510841514
0.01519063464
0.01525851749
0.01531464808
0.01539008808
0.01549954834
0.01556344578
0.01568467777
0.01577704414
0.01585352474
0.01583790754
0.01595433168
0.01602478305
0.0160465644
0.01609404267
0.01613096857
0.01622436553
0.01631419016
0.01636000103
0.0164247788
0.01644490877
0.01652856567
0.01659531096
0.0166025065
0.01662411685
0.01672358573
0.01673737228
0.01679697766
0.01682371642
0.0168777935
0.01690964635
0.01700840528
0.01715199308
0.0170884868
0.01721204065
0.01717034913
0.01725391575
0.01730223269
0.01735779261
0.01739088861
0.01734606749
0.01733198605
0.01743664603
0.01745169785
0.01747830088
0.01757759148
0.01760116387
0.01768971165
0.01778387044
0.01776813709
0.01784994765
0.01798616522
0.01806489143
0.01810331744
0.0182262972
0.01835517127
0.01850730413
0.01863063468
0.01898806356
0.01922107701
0.01947863558
0.01989899952
0.02043459728
0.02134181918
0.02228841554
0.02384865335
0.02692201471
0.01365444557
0.01352497376
0.01322653808
0.01282778555
0.01241711698
0.01208348794
0.01184483953
0.01170070036
0.011651064
0.01168891341
0.01176204255
0.01189084459
0.01205035442
0.0122286283
0.01241734176
0.01262599358
0.01278530785
0.01297809848
0.01319685237
0.01334851075
0.0135433592
0.01373849959
0.0138938712
0.01401777802
0.01416717208
0.014311337
0.01451156835
0.01461844065
0.01472424475
0.01482349106
0.01495375156
0.01508929923
0.01523332093
0.01529298792
0.01534024077
0.0154601753
0.01559690348
0.01567343926
0.01580991889
0.01586711375
0.01594273666
0.01604295205
0.01608086333
0.01613296627
0.01625666059
0.01629662139
0.01645080209
0.01650590774
0.01657971874
0.01660670501
0.01667270053
0.01671412279
0.01679881331
0.0168751296
0.01691991083
0.01696334461
0.01702672033
0.01705544338
0.01711842976
0.01722416745
0.01722886807
0.01724713258
0.01733261777
0.01741845819
0.0174797521
0.01749448469
0.01753141304
0.0175421263
0.01763298636
0.01767374865
0.01775230882
0.01773063717
0.01778277532
0.01777614979
0.01788978771
0.01794713512
0.01807661589
0.01810322113
0.01819129271
0.01826527991
0.01826471943
0.01842398571
0.01853285252
0.01864539137
0.01881248937
0.01895699857
0.01922320024
0.01943705541
0.01979513986
0.02016705568
0.02064409452
0.02140602436
0.02232728776
0.02382426219
0.026216935
0.0135790557
0.01356542916
0.01339060569
0.01314653988
0.01282658187
0.01246756922
0.01214280291
0.01186294688
0.01164854158
0.01152116678
0.01147119231
0.01147392889
0.01152919776
0.011619848
0.01175802059
0.01187161629
0.0120477869
0.01219028287
0.01239577134
0.0125906424
0.01278195994
0.01295830988
0.01315745903
0.01333510512
0.01349118442
0.01369359358
0.01388490949
0.01404658703
0.01418426825
0.01434696926
0.01449026923
0.01461765232
0.01476037738
0.01492041437
0.0150287741
0.01513761527
0.01526694413
0.01537265884
0.01550854311
0.01561083093
0.01570722322
0.01584551745
0.015993975
0.01600974235
0.01615969366
0.0162873027
0.01633856375
0.01642934152
0.01644791107
0.01657750234
0.01666332112
0.01671125014
0.0167637975
0.01682914776
0.0168831348
0.01699638441
0.01701583602
0.01714329411
0.01719098476
0.01725885355
0.01729194155
0.01732370569
0.01733185831
0.01741962813
0.01754229134
0.01758546302
0.01763237146
0.01767836997
0.01772761138
0.01784214526
0.01787701586
0.01790864648
0.01795749099
0.01798939157
0.01799953075
0.01808116273
0.01820901354
0.01820149665
0.01835649613
0.01837424674
0.01846839184
0.01856159721
0.0187125127
0.01881976947
0.01900032989
0.01913560032
0.01935736697
0.01958279552
0.01990577085
0.02034632517
0.02077978165
0.021405077
0.02222212536
0.02342070462
0.02555470188
0.01349194301
0.01351256435
0.0134626588
0.01333764248
0.01312602048
0.01283977091
0.0125355268
0.01222736222
0.01192865516
0.0116989229
0.01151179306
0.01139242042
0.01130866989
0.01130689552
0.01133420499
0.01140231464
0.01150618528
0.01162765098
0.0117542543
0.0118798245
0.01203815317
0.01221492377
0.01240446177
0.0126041955
0.01279205873
0.01296505248
0.01312989612
0.01335035747
0.01351847529
0.01369964439
0.01385159236
0.01399736617
0.01415006284
0.01433094506
0.01447502957
0.01462881832
0.01478228412
0.01494086443
0.01504797364
0.01521876748
0.01535382651
0.01551066641
0.01559779706
0.01571818348
0.01584002395
0.01590616042
0.01602614042
0.01610182693
0.01621572589
0.01633899221
0.01644469628
0.01653873927
0.01660673595
0.01675065149
0.01682131153
0.01690772321
0.01695343083
0.01705340044
0.01713141281
0.01719748666
0.01718568131
0.0172798165
0.01738610268
0.01739859701
0.01750647947
0.01761979128
0.01765653181
0.01768648425
0.01773340694
0.01783311843
0.01791437015
0.01794378553
0.01799178838
0.01806631569
0.01813227549
0.01818359725
0.01821060431
0.01830255936
0.01834142402
0.01839964495
0.01851281216
0.01866772291
0.01881254473
0.01891039604
0.01905782244
0.01923669716
0.01935914072
0.01964857671
0.02000775118
0.0203053017
0.02076317358
0.02119834114
0.02195822165
0.0231304493
0.02477769401
0.0134164422
0.01343593713
0.01343964614
0.01336582734
0.01325823063
0.01308209763
0.01283756851
0.012584885
0.01229474367
0.01201678999
0.01176379184
0.01154201048
0.01136697671
0.01123849334
0.01117625318
0.01113589411
0.01114077805
0.01117612591
0.01125412386
0.01135983653
0.01145650315
0.01160633356
0.01174180179
0.01190344758
0.01209741511
0.0122746203
0.01244389582
0.01261837272
0.01279322304
0.01299554544
0.01317334325
0.01336384108
0.0135162775
0.01367579971
0.0138595727
0.0140557188
0.01419457703
0.01432881048
0.01452479186
0.01470145872
0.01483423805
0.01495642489
0.01508436683
0.01522346202
0.01537690332
0.01552500546
0.01563343148
0.01574981944
0.01586114609
0.01596883758
0.01610075506
0.01618977772
0.01628981741
0.01640146194
0.01652716742
0.01662091074
0.01672294262
0.01677519788
0.01690661823
0.0169795222
0.01710598542
0.0171350088
0.01726990627
0.0172742162
0.01735251015
0.01748209072
0.01751458736
0.01757052747
0.01766882083
0.01773712784
0.01782142181
0.01783119596
0.01797723733
0.01806772932
0.01812213455
0.01816934123
0.01820021412
0.01824200735
0.01834676065
0.01840614253
0.01854496818
0.01867807195
0.01877503565
0.01891332314
0.01901940385
0.01923334804
0.01942405236
0.01959107717
0.01990758324
0.02020451933
0.0205844635
0.02113968149
0.02176963626
0.02278301925
0.02416856707
0.01335582749
0.01338139224
0.01339270315
0.0133959247
0.01333503572
0.01320504165
0.01306262893
0.01285786012
0.01262984327
0.01236704861
0.01208858832
0.0118371349
0.01159369929
0.0113896425
0.01120450928
0.01108571083
0.01100910112
0.01098208223
0.01097515467
0.01100560392
0.01106649584
0.01112149633
0.01122724912
0.01134933208
0.01147442904
0.01162279901
0.01178655687
0.01194948918
0.01211165312
0.01230212706
0.01247271445
0.01263628038
0.01282478332
0.01298336205
0.01317485186
0.01335969228
0.01354587476
0.01369185628
0.01386576693
0.01400815327
0.01416328853
0.01433585642
0.01453405864
0.01467534314
0.01481024769
0.0149663584
0.01509080148
0.01522669249
0.01538014608
0.01548095261
0.01565966729
0.01577458215
0.01589630171
0.01604203587
0.01614655803
0.01625828385
0.01635337407
0.01646863217
0.01664373833
0.0167128876
0.01675703576
0.01685214329
0.01695027317
0.0170488147
0.01713907451
0.01717904228
0.01733626694
0.01741086251
0.01750457324
0.01758573711
0.01765634009
0.01773523415
0.01778627375
0.01792770039
0.01798682429
0.01802805002
0.01805973407
0.0181066654
0.01822849615
0.01837942375
0.01849365781
0.01854254287
0.0187291065
0.01883018417
0.01897813809
0.01914316541
0.01933483914
0.01957056174
0.01974822784
0.02008107127
0.02038501394
0.02088441439
0.02148726351
0.02231079399
0.02346608246
0.01332286702
0.01331899978
0.01332625897
0.01331903419
0.0133174479
0.01328188017
0.01319871479
0.01304711359
0.01287694711
0.01266058651
0.01242834413
0.01218152587
0.01191460359
0.01167160162
0.01145481895
0.01125424386
0.01110493153
0.01097634178
0.01088727023
0.01082085075
0.01081557189
0.01083795522
0.01086652297
0.01090964506
0.01102185172
0.01111697849
0.01122247653
0.0113730172
0.01152769265
0.01165832587
0.01181580728
0.01197979189
0.01216793226
0.01232746941
0.01248754291
0.01267857848
0.01287815242
0.01306149738
0.01322032516
0.0133935291
0.01357683192
0.01373936476
0.01391958865
0.01406806979
0.01421421908
0.01436517154
0.01453085023
0.01468069187
0.01485647762
0.01498985191
0.01513967962
0.01528654317
0.01543546293
0.01556278304
0.01567127189
0.01580650523
0.01593265381
0.01606623971
0.01619787918
0.01630526227
0.01642141918
0.01653501155
0.01661250418
0.01673906987
0.0168482235
0.01687727548
0.01694687542
0.01707476655
0.01722278212
0.01726576063
0.01739414137
0.01744180965
0.01752781604
0.01761214162
0.01770061271
0.01781397665
0.01791658503
0.01800938615
0.01812878955
0.01818718956
0.01826902772
0.01843991015
0.01849146567
0.01866616187
0.01883255159
0.01889473767
0.01912985863
0.01931838466
0.01962232227
0.019852616
0.02019268705
0.02052555028
0.02111264919
0.02174504128
0.02278093093
0.01331457543
0.01333569111
0.0133501709
0.01335385208
0.01334301503
0.01329571395
0.01323136415
0.01314455981
0.01304835697
0.01288448744
0.01269811337
0.01249060159
0.01225568878
0.01201488521
0.01175443744
0.01153096243
0.0113225047
0.01113185088
0.01098536838
0.01086431294
0.01076650708
0.01069081975
0.0106741042
0.01067542812
0.01068850171
0.01074651379
0.01082371079
0.01090870353
0.01100039349
0.01112806686
0.0112545066
0.01139696765
0.01154351666
0.01172207944
0.01188637629
0.01204464553
0.01221153176
0.01237208283
0.01256372693
0.01274510374
0.01289446358
0.01306453675
0.01324468265
0.01339191824
0.01358405396
0.01374639448
0.01393512858
0.01408796389
0.01422300274
0.01437587656
0.01453494735
0.01468801441
0.01483319531
0.01496136775
0.01511000992
0.01526534951
0.01543179902
0.01557975585
0.0157149747
0.01584126027
0.0159439576
0.01607070659
0.01617686785
0.01627833722
0.01643797935
0.01655620432
0.01663812559
0.01671980861
0.01683339138
0.01693892475
0.01702942287
0.01713236876
0.01720633609
0.01733314877
0.01744146077
0.01753144072
0.01765259124
0.01777816968
0.01784167651
0.01792443577
0.01806993072
0.01820852195
0.01833262164
0.01842581038
0.01856633661
0.01871406254
0.01890386622
0.01904868873
0.01925710961
0.01950307763
0.01983281009
0.02022857623
0.02070646466
0.02131177956
0.02211961233
0.01327987151
0.01329734854
0.01331174337
0.01329103669
0.01328948344
0.01327167787
0.01325598715
0.01321868757
0.01315690592
0.01304752147
0.01291240563
0.0127448282
0.01256127758
0.01237359955
0.0121371841
0.01190089038
0.01165038531
0.01142779641
0.01121811916
0.01104120323
0.01088813019
0.01077210856
0.0106763169
0.01060474436
0.01056215656
0.01054418151
0.01055118099
0.01057792354
0.01063824463
0.0107161777
0.01081554116
0.01092351872
0.0110482478
0.01115743734
0.01128651059
0.01143104453
0.01159262179
0.01173601599
0.01189714626
0.01207280983
0.01224712599
0.0124077639
0.01258035323
0.01276770766
0.0129245779
0.01309816304
0.01324881581
0.01343372758
0.01359104948
0.01374505682
0.01389388404
0.01406673007
0.01422854165
0.01439472503
0.014534129
0.01465971181
0.01483485962
0.01501959078
0.01516121918
0.01528684829
0.01543031147
0.01556045287
0.01567068848
0.01579801326
0.01590885831
0.01606942488
0.01617304545
0.01630543781
0.01643637229
0.01654718466
0.01662556415
0.01675175365
0.01687118779
0.01698308618
0.01707478211
0.01721077522
0.01731405389
0.01736298458
0.01748231705
0.01764699391
0.01773261721
0.0178461739
0.01798441604
0.01815766614
0.01830767073
0.01841026261
0.01853792113
0.01876524369
0.0189522335
0.0192169364
0.01950515332
0.01988853936
0.02027069376
0.02078758399
0.02152035856
0.01325637166
0.01323886948
0.01325546779
0.013285591
0.01328999423
0.01332221295
0.01328156046
0.01325077642
0.01321535936
0.01316084091
0.01307600721
0.01298328373
0.0128290094
0.0126512869
0.01246176839
0.01225299639
0.01202114603
0.0117859618
0.01154473802
0.01132540779
0.01112358468
0.0109401992
0.01078295381
0.01065383174
0.01055083065
0.01049279111
0.01043991347
0.01042163299
0.01041695511
0.01043870883
0.01048849011
0.0105447439
0.01061416434
0.01072158167
0.01083920275
0.01094981595
0.01107424436
0.0112244026
0.01134706401
0.01150222122
0.01164208788
0.01181483257
0.01197128729
0.0121210137
0.01227732612
0.01246094639
0.01263266544
0.01279215335
0.01296212618
0.01310543132
0.01327418156
0.01346117238
0.01364291856
0.01378843692
0.01394061998
0.01409672444
0.01424529057
0.01438574102
0.01454551408
0.01470239079
0.01485683092
0.01495801665
0.01508258152
0.01526479141
0.01542903102
0.0155582154
0.01568749127
0.01580836192
0.01593433202
0.01605959673
0.01621115241
0.0163264856
0.01646749906
0.01659724076
0.01669221805
0.01677910191
0.01690427558
0.01706471277
0.01712130912
0.01724777177
0.01737858265
0.01751040027
0.01763874225
0.01775507681
0.01789228881
0.01803018732
0.01818460266
0.01834701212
0.01859298434
0.01884709811
0.01913774199
0.01943942295
0.01976602035
0.02018915532
0.02085928994
0.01327095157
0.01328930524
0.01328691916
0.01328441666
0.0132746128
0.01326768066
0.01326436813
0.01324384288
0.01322037282
0.0131886104
0.01312708267
0.01305385068
0.01296511504
0.01282569915
0.01270118743
0.01250781464
0.01233453383
0.01211931453
0.01192131849
0.01167502372
0.0114656065
0.01124171926
0.01104583207
0.01085545639
0.01070332948
0.01057352804
0.01048083213
0.0104105594
0.0103478622
0.01031815228
0.01030306756
0.01032808081
0.01035267538
0.01041286334
0.01047366107
0.01055673532
0.01064635358
0.01075838759
0.01086582836
0.01098184396
0.01111118245
0.01124436631
0.01138533833
0.01153280272
0.01169948376
0.0118459976
0.01201168709
0.0121758389
0.01232914328
0.01252267271
0.01267132897
0.01284312092
0.01298980395
0.01318187464
0.01333504878
0.01349809242
0.01365003304
0.01381409078
0.01394021795
0.014093513
0.01422650347
0.01439876123
0.01457442375
0.01471363704
0.01485606496
0.01499764653
0.0151296312
0.01526010478
0.01538764304
0.01550617856
0.0156901627
0.01583005081
0.01597190319
0.01604877842
0.01622251766
0.01633053373
0.01646193767
0.01659052217
0.01674070839
0.01685258797
0.01697370789
0.01708776188
0.01720703633
0.0173507177
0.0174773634
0.01763505917
0.01778776275
0.01794544679
0.01814183733
0.01837761887
0.01857814122
0.0188981805
0.01929320907
0.01967605983
0.02020594434
0.01326516139
0.01325715062
0.0132537084
0.01324958223
0.01325685912
0.01325106605
0.01324438672
0.01323594007
0.01322161325
0.0131993579
0.01315604163
0.01311904488
0.01305900719
0.0129731247
0.01288096787
0.01275158384
0.01261056484
0.01243905746
0.01224263279
0.01204457481
0.01182239953
0.0115937284
0.0113802688
0.01118001956
0.01095607327
0.01078081986
0.01062778945
0.01049755309
0.01039284642
0.0103103939
0.01025123082
0.01020749623
0.01019819967
0.01019558392
0.01019944068
0.01024565446
0.01030823923
0.01036946578
0.01047180954
0.01057358154
0.01068245723
0.01079259071
0.01091370091
0.0110384122
0.01116775777
0.01132883705
0.01146917834
0.01160466367
0.01176367483
0.01192380796
0.01208391329
0.01224810916
0.01240243032
0.01254386749
0.01270834336
0.01284686475
0.01301537411
0.01318921649
0.01334643295
0.01350823312
0.01366136672
0.01381174294
0.01397844189
0.01410834835
0.01423662278
0.0144027497
0.01455720686
0.01469605809
0.01484323579
0.01499427093
0.01511929471
0.01529012504
0.01543912994
0.01560083363
0.01572857737
0.01589106307
0.01597555718
0.01612078916
0.01626456787
0.0163897551
0.0165092733
0.01661011935
0.01675664666
0.01689069757
0.01704556403
0.0172154268
0.01734036822
0.01754196187
0.01766421784
0.0178501151
0.01811942278
0.01843093385
0.01871214024
0.01908286381
0.01952591066
0.01322832521
0.01323401589
0.01324536886
0.01324524654
0.01326039579
0.01325540358
0.01325628459
0.01323992669
0.01323330849
0.01323107728
0.01321492508
0.0131696504
0.01312232734
0.01306338698
0.0129912894
0.01290840551
0.01278817424
0.01265525106
0.01250594101
0.01232359329
0.01214183318
0.01193682849
0.01172882429
0.0115111843
0.01131410303
0.01109683119
0.01090804062
0.01071931103
0.01056202532
0.01043075202
0.01031417172
0.01021821586
0.01014921949
0.01009823227
0.01007973141
0.010085027
0.01009463999
0.01012842854
0.01016028174
0.01023334943
0.01031392405
0.01040830146
0.01052003558
0.01061821208
0.01072209739
0.01083882485
0.01098084102
0.01111180268
0.01123409002
0.01137817223
0.01150581294
0.01165670552
0.01180607451
0.01197636196
0.01212088776
0.01227244495
0.01242474876
0.01258558417
0.0127393333
0.01290793413
0.01306750125
0.01321278382
0.01332736898
0.01352525743
0.01368150135
0.01384669211
0.01398620963
0.01413985757
0.01429153307
0.01443965088
0.01459136708
0.01472048764
0.01487162414
0.01504629035
0.01521266214
0.01533721975
0.01547501024
0.01557360645
0.01572027699
0.01582148753
0.01595710384
0.01611178222
0.01624158328
0.01637735461
0.01652201634
0.01668705072
0.01685453381
0.01702058856
0.01721349308
0.01742969305
0.0175871774
0.01779006498
0.01811931323
0.01845215358
0.0188979781
0.01324150383
0.01325044049
0.01325091346
0.01326585012
0.01326274028
0.01326959438
0.01328465826
0.01328803583
0.01328838212
0.01325962299
0.01322638236
0.01323531758
0.01321045764
0.01317194317
0.01311500538
0.01304388498
0.012972476
0.01286610427
0.01274901022
0.0126144217
0.01246203025
0.0122896283
0.01209560706
0.01189752404
0.01167176549
0.01146105578
0.01124167635
0.01103471505
0.01083125306
0.01066068402
0.01049080285
0.01036255848
0.0102526621
0.01016348984
0.01007743626
0.01002227958
0.009988114218
0.009975758222
0.009988617186
0.01000720543
0.01004874123
0.0100992804
0.01016798352
0.010244624
0.01033333066
0.01042709993
0.01052643698
0.01064546772
0.01076988221
0.01089556626
0.01103622516
0.01116288598
0.01129975708
0.01144025638
0.01157445079
0.01173445696
0.01186822525
0.01201306778
0.01216308951
0.01231377126
0.01245522982
0.0126341672
0.01278939261
0.01292792574
0.01309413885
0.0132624963
0.01341804853
0.01357788812
0.01372110695
0.01385786642
0.01400358752
0.01415895233
0.01430386383
0.01446622451
0.01462310644
0.0147621371
0.01489723675
0.01503877275
0.01515986013
0.01532302433
0.01546761366
0.01557629883
0.01571989591
0.01587269212
0.01602085161
0.0162040414
0.01638552899
0.01655131293
0.01672786766
0.01688548126
0.0170720656
0.01731841225
0.01757477357
0.01785209102
0.01818692059
0.01325881341
0.01324746606
0.01325272579
0.0132428867
0.01325077835
0.01324389867
0.01325195
0.01322947099
0.01322685858
0.01324209811
0.01322729882
0.01322240378
0.01318130792
0.01314937188
0.01312881847
0.01309613028
0.01304539102
0.01299028284
0.01289584279
0.01278931549
0.01267487154
0.01253369939
0.01239255705
0.01220066436
0.01200706337
0.01181249586
0.01159636517
0.01138954491
0.01117770458
0.01098658925
0.01078861841
0.0106113483
0.01043590275
0.01029089192
0.01018141995
0.01008178939
0.01000757876
0.009943692367
0.009907938377
0.009873902823
0.009871441157
0.009898199815
0.009925149243
0.00998302427
0.01004038802
0.01010581082
0.01018326931
0.01027029216
0.01036362661
0.01046398559
0.01057885602
0.01069585208
0.01080929162
0.01094682798
0.01107783184
0.01121585151
0.01135606716
0.01150083929
0.01164220441
0.01178970529
0.01194259499
0.01208544231
0.01223478868
0.01237635505
0.01251786535
0.01265896247
0.01282541376
0.01299679191
0.01315523036
0.01330447357
0.01346454972
0.01360541566
0.0137430523
0.0138598707
0.01401618433
0.01418133074
0.01432252656
0.01445620339
0.01460763642
0.0147421727
0.01490020967
0.01509078637
0.01522365889
0.01534903121
0.01550326535
0.0156708871
0.01580692434
0.01599547124
0.01613000384
0.01630216818
0.01651026335
0.01671429267
0.01694516708
0.01724979941
0.01755711284
0.01325569429
0.01326026697
0.01326644266
0.01325732096
0.01324353085
0.01323799962
0.01325487048
0.01325845386
0.01324823626
0.01324583784
0.01324745723
0.01324069192
0.01322673536
0.01320894159
0.01319455219
0.01315148275
0.01312049509
0.01306801236
0.01302394674
0.012967678
0.01286581508
0.0127686335
0.01263474134
0.01249716471
0.01234322657
0.01216549582
0.01198308651
0.01178032527
0.0115612692
0.01136677923
0.01114160769
0.01093654845
0.01075420528
0.01059288586
0.01040919784
0.01026346975
0.01013878478
0.01003227333
0.009949071466
0.009874835139
0.009842078138
0.009796615345
0.009802397557
0.009800711388
0.009832900127
0.009883183916
0.009930313119
0.009979938116
0.01005181687
0.01012568678
0.01021934756
0.01031744812
0.01042388106
0.01051944484
0.01062999638
0.01074331933
0.01087666761
0.01100131353
0.01113598967
0.01127275995
0.01140353808
0.01153308496
0.01167617591
0.01181917097
0.01198274977
0.01213530457
0.01226951443
0.01242261399
0.01257718318
0.01274856878
0.01288672502
0.01302847052
0.0131644637
0.01333580607
0.01348061944
0.01361937057
0.0137716075
0.013907172
0.01404851916
0.01420107842
0.01434982905
0.01449652529
0.01466575944
0.01481424484
0.01496272337
0.01512082839
0.01529454945
0.01543295457
0.01562526585
0.01579436706
0.01598526917
0.01617890618
0.01639014755
0.01660442842
0.01688678118
0.01322237501
0.01322399866
0.01322436409
0.01324509073
0.01325573627
0.01325664126
0.01325257119
0.01326100251
0.0132563211
0.01324727445
0.01323271054
0.01323337791
0.01324461866
0.01324297384
0.01322018068
0.01320447153
0.01317533215
0.01312817014
0.01309876256
0.01303386013
0.01296432572
0.01289059638
0.01279105919
0.01270240186
0.01258334271
0.01243732603
0.01226886776
0.01210037982
0.01192378229
0.01171454552
0.01152756939
0.01131731593
0.01111701112
0.01089937465
0.01072091871
0.01052789355
0.01037627922
0.01023377847
0.01010670856
0.009981733141
0.009896246708
0.0098238371
0.009757731889
0.009730806759
0.009706405085
0.009688729651
0.009720593811
0.009762598014
0.009809111451
0.009861468677
0.009916483001
0.009992716288
0.01007801789
0.01016334864
0.01026016145
0.01035584007
0.01045978644
0.01056397674
0.01068954488
0.0108076374
0.01092439977
0.01106471773
0.01118892645
0.01133962146
0.01146213951
0.01159469777
0.01173297763
0.01187322854
0.01202368768
0.01217036084
0.01231954273
0.01247835341
0.01263847816
0.01277100366
0.01291579687
0.01306635413
0.01320368991
0.01335859762
0.01352095192
0.013656015
0.0138005392
0.01393529819
0.01410599701