/*--------------------------------*- C++ -*----------------------------------*\
| =========                 |                                                 |
| \\      /  F ield         | OpenFOAM: The Open Source CFD Toolbox           |
|  \\    /   O peration     | Version:  v1706                                 |
|   \\  /    A nd           | Web:      www.OpenFOAM.com                      |
|    \\/     M anipulation  |                                                 |
\*---------------------------------------------------------------------------*/
FoamFile
{
    version     2.0;
    format      ascii;
    class       labelField;
    location    "1e-06/lagrangian/dsmc";
    object      origId;
}
// * * * * * * * * * * * * * * * * * * * * * * * * * * * * * * * * * * * * * //


3999
(
0
4
6
7
9
11
12
13
15
18
19
20
24
29
30
36
37
38
43
44
47
49
52
55
56
59
62
70
71
73
79
82
83
84
85
87
92
93
94
96
97
100
101
105
108
112
115
116
118
119
123
125
126
130
131
132
133
137
138
139
140
141
142
143
144
146
150
151
154
156
158
163
165
166
167
168
172
178
179
180
181
185
188
192
196
197
200
201
207
209
212
218
223
224
226
227
232
234
236
243
244
248
251
252
253
255
256
257
258
262
267
270
271
273
274
278
288
289
292
294
295
303
304
313
318
319
321
322
327
330
332
333
334
335
342
347
349
350
353
354
355
360
361
368
371
372
373
374
375
377
383
384
386
389
392
394
395
397
402
404
410
411
412
414
419
425
426
438
440
441
447
451
453
457
460
462
463
464
465
471
472
476
478
479
481
483
486
487
488
492
494
496
498
500
502
506
509
510
511
512
517
520
527
530
536
537
538
539
541
542
543
544
546
549
550
551
554
555
556
557
565
567
570
572
573
575
576
577
581
582
584
591
596
597
598
599
607
616
618
620
628
633
634
638
641
643
644
646
649
650
653
654
662
663
664
666
668
669
670
671
673
674
675
680
682
683
687
689
692
696
698
700
701
704
706
712
716
718
720
723
724
725
727
734
735
739
741
744
745
750
758
759
760
761
765
774
777
778
779
780
781
782
785
789
790
792
795
797
802
805
808
811
813
814
816
818
819
821
822
823
824
825
826
831
832
845
847
855
857
858
859
861
862
863
876
879
882
885
887
888
891
892
893
895
904
905
906
909
910
911
912
916
918
919
920
924
926
928
932
939
941
942
943
945
950
953
956
959
961
964
965
967
970
972
973
976
983
984
990
992
993
994
997
998
1001
1004
1005
1007
1009
1011
1014
1015
1016
1018
1019
1024
1029
1032
1034
1035
1036
1039
1040
1048
1049
1050
1051
1058
1061
1062
1065
1068
1071
1072
1076
1079
1083
1086
1091
1094
1095
1097
1098
1100
1103
1104
1108
1111
1119
1120
1123
1128
1130
1140
1144
1145
1146
1147
1148
1150
1151
1155
1157
1158
1160
1161
1166
1167
1170
1171
1177
1178
1179
1185
1187
1194
1198
1200
1201
1204
1206
1210
1218
1220
1227
1229
1232
1234
1235
1238
1239
1240
1242
1248
1251
1253
1254
1255
1260
1264
1265
1271
1274
1277
1279
1284
1285
1286
1288
1289
1294
1295
1296
1298
1299
1301
1308
1309
1310
1311
1312
1314
1317
1332
1333
1335
1342
1343
1346
1348
1350
1351
1353
1354
1355
1356
1361
1364
1370
1371
1374
1379
1381
1383
1384
1385
1387
1389
1394
1395
1397
1399
1402
1406
1407
1408
1409
1412
1414
1419
1420
1421
1425
1426
1430
1432
1434
1435
1436
1438
1444
1445
1447
1451
1452
1454
1455
1459
1460
1462
1464
1465
1474
1479
1481
1485
1488
1490
1495
1500
1507
1508
1511
1513
1515
1516
1517
1518
1521
1522
1526
1533
1534
1537
1540
1541
1544
1545
1547
1548
1552
1554
1555
1558
1559
1562
1565
1566
1571
1574
1576
1578
1581
1583
1590
1591
1599
1600
1602
1605
1606
1609
1610
1613
1615
1619
1621
1622
1624
1628
1630
1634
1635
1636
1637
1638
1640
1641
1643
1652
1653
1654
1657
1658
1660
1662
1663
1665
1670
1677
1678
1679
1680
1684
1687
1688
1694
1696
1707
1712
1713
1715
1719
1720
1721
1724
1725
1729
1730
1731
1732
1733
1734
1735
1737
1738
1739
1742
1744
1745
1746
1749
1750
1752
1754
1755
1756
1757
1759
1761
1763
1764
1766
1771
1776
1780
1786
1788
1793
1795
1796
1798
1800
1803
1806
1808
1810
1811
1817
1818
1819
1825
1832
1833
1835
1836
1842
1845
1846
1848
1850
1854
1855
1857
1859
1863
1870
1871
1879
1880
1882
1885
1886
1888
1892
1893
1894
1895
1896
1897
1902
1903
1904
1905
1906
1907
1908
1909
1910
1911
1915
1918
1921
1923
1928
1930
1931
1933
1935
1937
1940
1945
1948
1951
1952
1955
1959
1961
1963
1965
1966
1967
1968
1970
1973
1975
1977
1979
1985
1987
1988
1989
1994
1995
1996
1999
2000
2001
2002
2007
2011
2016
2022
2027
2030
2033
2039
2041
2043
2047
2048
2050
2053
2054
2057
2058
2060
2063
2067
2068
2069
2070
2071
2075
2076
2078
2079
2081
2084
2087
2096
2097
2100
2102
2103
2104
2109
2115
2116
2118
2119
2120
2125
2126
2127
2129
2131
2132
2133
2134
2136
2138
2142
2149
2152
2155
2158
2159
2160
2163
2165
2167
2168
2169
2171
2180
2181
2183
2190
2191
2197
2205
2208
2209
2213
2214
2225
2227
2232
2235
2236
2239
2242
2243
2245
2249
2250
2252
2254
2265
2276
2277
2282
2283
2284
2285
2286
2289
2292
2294
2295
2296
2301
2302
2304
2307
2309
2314
2316
2320
2321
2324
2331
2332
2335
2338
2340
2341
2343
2349
2352
2354
2359
2366
2369
2371
2375
2376
2380
2382
2386
2387
2389
2390
2400
2401
2402
2403
2406
2408
2411
2417
2418
2419
2422
2425
2426
2427
2428
2432
2433
2435
2437
2438
2440
2441
2442
2443
2444
2446
2449
2450
2451
2453
2454
2456
2457
2458
2466
2467
2469
2470
2471
2472
2474
2477
2478
2481
2482
2485
2501
2504
2510
2511
2516
2517
2518
2521
2523
2528
2529
2531
2537
2538
2540
2541
2542
2543
2545
2547
2552
2554
2555
2558
2562
2563
2564
2566
2567
2569
2572
2575
2577
2579
2583
2585
2586
2588
2593
2594
2598
2600
2603
2604
2605
2606
2607
2610
2611
2613
2615
2622
2624
2627
2629
2630
2633
2634
2635
2637
2640
2643
2644
2646
2648
2650
2651
2652
2653
2655
2657
2658
2659
2663
2666
2667
2668
2669
2673
2675
2676
2677
2680
2682
2683
2685
2687
2688
2690
2691
2694
2695
2698
2703
2707
2708
2711
2715
2722
2723
2726
2728
2729
2730
2732
2733
2735
2736
2739
2742
2747
2750
2753
2754
2756
2758
2763
2765
2766
2769
2771
2774
2775
2778
2779
2782
2785
2786
2791
2799
2800
2804
2807
2810
2811
2815
2817
2819
2820
2824
2825
2826
2829
2835
2837
2840
2844
2847
2848
2856
2858
2860
2862
2865
2866
2867
2870
2871
2872
2874
2875
2876
2877
2878
2880
2882
2885
2886
2888
2890
2894
2895
2896
2897
2898
2899
2901
2902
2904
2905
2907
2908
2909
2911
2912
2916
2917
2918
2922
2923
2925
2928
2933
2934
2936
2937
2938
2943
2951
2952
2957
2960
2966
2970
2971
2972
2979
2980
2982
2986
2989
2993
2995
2997
2999
3001
3004
3005
3007
3008
3010
3011
3012
3015
3016
3018
3019
3022
3024
3026
3031
3035
3036
3037
3038
3044
3046
3048
3049
3056
3057
3061
3066
3068
3070
3071
3072
3077
3080
3084
3085
3086
3088
3091
3094
3095
3097
3100
3101
3104
3108
3109
3110
3111
3112
3116
3119
3120
3122
3123
3124
3126
3127
3128
3129
3133
3134
3135
3141
3144
3145
3146
3150
3151
3153
3154
3156
3162
3163
3165
3166
3167
3169
3178
3180
3181
3182
3184
3185
3186
3187
3191
3192
3193
3196
3197
3198
3199
3201
3202
3207
3211
3218
3219
3223
3226
3232
3234
3235
3237
3238
3240
3244
3246
3250
3252
3257
3260
3262
3266
3271
3272
3276
3278
3279
3280
3281
3282
3284
3288
3290
3292
3297
3298
3303
3304
3306
3310
3313
3316
3318
3321
3322
3323
3325
3326
3329
3331
3338
3344
3345
3346
3347
3350
3353
3356
3357
3361
3364
3367
3369
3370
3373
3377
3378
3386
3391
3392
3394
3398
3402
3403
3409
3412
3420
3422
3428
3429
3436
3443
3451
3452
3453
3454
3456
3457
3459
3460
3462
3465
3473
3474
3475
3476
3480
3483
3484
3486
3488
3489
3493
3494
3497
3502
3504
3507
3512
3516
3520
3521
3522
3523
3527
3529
3530
3532
3534
3535
3536
3537
3538
3547
3550
3553
3554
3555
3556
3562
3564
3568
3569
3571
3573
3576
3578
3579
3582
3585
3588
3592
3595
3608
3609
3610
3614
3615
3618
3621
3625
3632
3636
3638
3642
3645
3647
3651
3654
3655
3662
3664
3665
3667
3669
3671
3674
3675
3678
3680
3682
3686
3687
3689
3690
3692
3695
3697
3698
3699
3701
3703
3704
3706
3707
3708
3713
3715
3717
3719
3720
3724
3725
3727
3731
3733
3734
3735
3737
3744
3748
3750
3752
3754
3759
3760
3763
3764
3768
3772
3774
3775
3776
3779
3784
3790
3793
3796
3802
3803
3804
3808
3811
3814
3815
3817
3818
3821
3824
3827
3829
3832
3833
3834
3837
3839
3841
3855
3857
3858
3859
3863
3864
3865
3866
3867
3868
3869
3870
3873
3874
3877
3878
3879
3881
3885
3888
3890
3891
3894
3898
3900
3902
3904
3906
3908
3909
3913
3915
3920
3921
3925
3927
3928
3930
3936
3940
3942
3945
3947
3950
3951
3953
3954
3957
3958
3961
3967
3970
3973
3978
3979
3980
3982
3983
3985
3986
3988
3994
3995
3996
3997
4000
4001
4002
4003
4005
4009
4011
4012
4018
4022
4023
4025
4026
4027
4032
4033
4035
4036
4038
4044
4046
4048
4052
4053
4054
4055
4056
4057
4058
4059
4060
4061
4062
4065
4067
4068
4069
4071
4075
4077
4081
4082
4083
4086
4087
4088
4090
4093
4098
4102
4105
4108
4111
4113
4117
4118
4125
4126
4127
4129
4130
4131
4133
4135
4140
4141
4142
4145
4147
4148
4151
4152
4153
4154
4167
4169
4171
4177
4178
4179
4180
4181
4184
4185
4186
4188
4189
4191
4195
4197
4199
4205
4207
4208
4210
4211
4213
4216
4217
4220
4222
4224
4225
4227
4235
4236
4238
4240
4242
4245
4247
4248
4249
4250
4253
4254
4255
4265
4266
4267
4268
4272
4273
4274
4277
4280
4281
4283
4285
4287
4288
4295
4296
4301
4303
4309
4310
4312
4314
4315
4318
4320
4322
4329
4330
4331
4334
4336
4342
4344
4349
4350
4354
4357
4359
4362
4364
4365
4366
4371
4377
4378
4381
4382
4386
4388
4390
4393
4394
4395
4396
4398
4400
4403
4404
4415
4418
4420
4423
4425
4429
4430
4434
4435
4438
4440
4444
4446
4448
4449
4450
4455
4457
4458
4459
4461
4462
4464
4468
4471
4472
4476
4481
4483
4485
4488
4489
4493
4496
4498
4499
4505
4506
4507
4508
4513
4514
4517
4518
4519
4521
4524
4529
4530
4533
4535
4536
4538
4545
4547
4555
4556
4557
4559
4560
4563
4566
4568
4571
4572
4573
4574
4580
4586
4588
4593
4594
4603
4604
4605
4609
4610
4611
4613
4616
4617
4622
4623
4624
4625
4627
4629
4630
4631
4632
4633
4634
4636
4641
4648
4649
4651
4658
4659
4660
4661
4662
4663
4664
4672
4674
4675
4677
4678
4679
4681
4684
4685
4688
4689
4690
4692
4695
4698
4702
4703
4705
4706
4707
4708
4710
4712
4713
4715
4716
4721
4722
4723
4727
4728
4731
4734
4735
4738
4739
4741
4742
4744
4748
4749
4751
4754
4755
4756
4758
4762
4763
4764
4765
4766
4767
4768
4773
4776
4778
4780
4782
4786
4788
4790
4793
4796
4803
4804
4805
4807
4809
4810
4812
4814
4816
4819
4820
4821
4822
4823
4827
4828
4831
4835
4839
4842
4843
4844
4847
4848
4851
4856
4861
4862
4866
4868
4872
4873
4874
4875
4882
4884
4886
4893
4894
4895
4896
4898
4901
4904
4906
4908
4909
4910
4911
4913
4915
4916
4918
4924
4928
4932
4934
4935
4936
4940
4942
4943
4944
4945
4946
4947
4949
4951
4952
4953
4954
4955
4956
4963
4964
4966
4967
4968
4969
4970
4971
4973
4974
4975
4976
4978
4982
4983
4986
4988
4989
4995
4998
4999
5001
5005
5006
5007
5008
5012
5016
5018
5025
5030
5031
5036
5037
5041
5043
5044
5046
5047
5048
5049
5050
5052
5055
5056
5057
5060
5062
5063
5064
5065
5066
5068
5072
5077
5078
5079
5081
5082
5083
5084
5086
5089
5095
5096
5098
5100
5103
5106
5108
5112
5113
5114
5115
5116
5118
5119
5121
5126
5128
5129
5132
5139
5140
5141
5143
5147
5148
5150
5152
5155
5160
5161
5162
5165
5167
5168
5172
5173
5174
5180
5182
5184
5186
5189
5192
5194
5195
5196
5199
5202
5203
5204
5205
5209
5211
5213
5216
5217
5218
5223
5227
5228
5230
5231
5232
5235
5241
5243
5249
5251
5253
5258
5260
5264
5267
5268
5273
5274
5277
5279
5285
5286
5288
5290
5291
5295
5299
5300
5301
5302
5303
5305
5306
5311
5312
5314
5316
5318
5322
5323
5325
5326
5331
5338
5340
5344
5353
5354
5358
5360
5361
5364
5365
5369
5370
5372
5373
5377
5380
5381
5382
5384
5385
5386
5387
5391
5393
5396
5398
5400
5401
5403
5407
5408
5411
5413
5415
5416
5419
5422
5423
5426
5432
5433
5434
5436
5439
5440
5442
5444
5445
5447
5451
5453
5454
5455
5456
5458
5461
5463
5465
5466
5473
5475
5476
5479
5482
5483
5486
5488
5490
5493
5496
5497
5498
5499
5501
5503
5504
5505
5506
5510
5511
5513
5516
5517
5520
5523
5526
5530
5531
5533
5536
5539
5542
5543
5546
5553
5555
5556
5559
5560
5561
5562
5563
5565
5566
5567
5569
5572
5575
5577
5583
5584
5588
5593
5596
5600
5605
5615
5617
5618
5623
5624
5628
5631
5632
5633
5634
5635
5638
5640
5641
5644
5647
5650
5651
5652
5657
5659
5661
5666
5667
5669
5671
5673
5674
5682
5683
5684
5686
5690
5695
5696
5700
5702
5704
5707
5709
5711
5717
5718
5724
5726
5727
5732
5735
5737
5740
5742
5744
5748
5751
5755
5760
5762
5763
5765
5766
5767
5768
5774
5779
5783
5784
5788
5789
5790
5791
5796
5797
5798
5800
5801
5802
5804
5806
5808
5810
5815
5817
5819
5820
5822
5825
5826
5827
5830
5836
5837
5838
5846
5847
5850
5855
5857
5860
5864
5869
5870
5874
5876
5880
5881
5883
5885
5888
5896
5897
5901
5903
5908
5909
5912
5916
5919
5920
5922
5924
5925
5926
5939
5940
5941
5943
5950
5951
5957
5958
5959
5960
5964
5965
5968
5969
5972
5977
5980
5983
5984
5988
5992
5994
5995
5997
5998
6003
6008
6009
6013
6014
6015
6017
6025
6026
6028
6030
6034
6035
6037
6038
6039
6041
6043
6044
6045
6046
6048
6050
6053
6056
6057
6058
6060
6061
6062
6063
6064
6066
6069
6070
6071
6072
6074
6078
6080
6082
6083
6085
6086
6088
6090
6093
6094
6096
6098
6101
6102
6106
6108
6110
6112
6114
6116
6118
6125
6126
6130
6131
6140
6141
6143
6144
6145
6146
6147
6154
6155
6156
6157
6160
6161
6162
6164
6174
6176
6177
6178
6179
6182
6184
6187
6188
6190
6193
6197
6199
6204
6207
6209
6210
6215
6221
6223
6227
6229
6232
6233
6237
6238
6239
6240
6243
6247
6248
6251
6253
6255
6256
6259
6260
6264
6272
6275
6276
6278
6282
6285
6289
6290
6291
6294
6296
6299
6302
6304
6306
6309
6312
6314
6315
6316
6319
6320
6325
6327
6329
6331
6332
6334
6335
6337
6340
6343
6345
6346
6347
6356
6365
6372
6375
6380
6381
6383
6384
6386
6387
6388
6390
6391
6393
6398
6401
6403
6405
6407
6409
6410
6412
6415
6417
6418
6422
6423
6424
6427
6429
6432
6433
6434
6436
6438
6440
6442
6443
6447
6448
6449
6452
6454
6456
6461
6462
6465
6467
6468
6469
6475
6479
6483
6487
6488
6489
6493
6494
6496
6498
6499
6501
6502
6506
6510
6512
6514
6516
6518
6519
6520
6521
6522
6523
6525
6526
6527
6529
6531
6535
6537
6538
6545
6548
6549
6554
6559
6560
6566
6568
6569
6573
6576
6578
6579
6586
6590
6591
6595
6598
6601
6605
6608
6610
6614
6615
6616
6620
6621
6624
6625
6627
6628
6629
6630
6631
6633
6643
6644
6649
6653
6654
6656
6658
6661
6664
6665
6667
6669
6675
6678
6681
6684
6686
6691
6694
6695
6701
6702
6706
6708
6709
6711
6712
6713
6714
6716
6717
6720
6721
6722
6725
6727
6731
6735
6736
6737
6740
6745
6746
6748
6751
6754
6755
6756
6757
6758
6762
6767
6768
6771
6773
6774
6779
6781
6784
6785
6787
6790
6793
6794
6797
6798
6807
6808
6809
6810
6812
6819
6822
6824
6825
6831
6835
6840
6841
6842
6847
6849
6855
6858
6865
6871
6873
6876
6879
6880
6881
6885
6890
6891
6893
6896
6898
6899
6901
6902
6906
6907
6908
6910
6911
6912
6914
6915
6916
6919
6921
6922
6924
6927
6929
6931
6932
6933
6935
6939
6941
6942
6943
6944
6945
6946
6947
6949
6953
6957
6960
6965
6966
6967
6969
6971
6972
6974
6977
6979
6981
6982
6984
6987
6991
6994
6996
6997
6998
7002
7009
7010
7013
7014
7015
7017
7018
7021
7022
7024
7025
7028
7030
7035
7036
7037
7038
7039
7040
7042
7043
7047
7054
7057
7058
7059
7060
7061
7064
7066
7068
7071
7073
7077
7079
7080
7082
7083
7085
7086
7087
7090
7091
7092
7095
7099
7100
7101
7102
7103
7104
7105
7106
7108
7109
7113
7120
7121
7125
7130
7134
7138
7140
7147
7153
7154
7155
7157
7159
7162
7166
7167
7171
7175
7177
7179
7180
7181
7183
7185
7190
7191
7193
7194
7198
7199
7201
7205
7207
7212
7214
7216
7218
7219
7223
7226
7229
7232
7234
7236
7237
7238
7239
7241
7242
7244
7246
7249
7250
7256
7257
7258
7264
7266
7269
7270
7272
7274
7277
7282
7284
7287
7288
7289
7293
7299
7303
7304
7305
7310
7312
7315
7318
7320
7324
7325
7331
7336
7337
7338
7341
7344
7345
7346
7348
7349
7350
7351
7355
7359
7363
7366
7367
7368
7369
7370
7371
7375
7376
7380
7381
7382
7384
7385
7387
7389
7390
7392
7394
7398
7400
7403
7405
7407
7410
7413
7414
7415
7430
7433
7440
7442
7443
7447
7448
7450
7451
7452
7453
7458
7460
7461
7463
7465
7466
7470
7472
7475
7476
7478
7480
7481
7484
7487
7491
7493
7494
7496
7499
7500
7501
7502
7505
7506
7512
7513
7518
7519
7521
7525
7528
7531
7535
7537
7541
7543
7547
7549
7550
7551
7556
7557
7563
7564
7565
7566
7569
7570
7571
7573
7574
7576
7579
7580
7583
7585
7586
7594
7597
7598
7600
7601
7603
7604
7605
7610
7612
7613
7615
7619
7623
7625
7626
7627
7630
7631
7632
7633
7634
7636
7638
7639
7641
7642
7644
7646
7648
7649
7658
7660
7673
7674
7676
7679
7682
7684
7688
7690
7694
7695
7697
7698
7701
7702
7705
7713
7720
7721
7725
7726
7727
7731
7732
7733
7734
7735
7737
7739
7740
7743
7744
7747
7752
7755
7756
7763
7771
7772
7777
7778
7779
7780
7782
7783
7786
7792
7796
7801
7805
7806
7810
7812
7814
7816
7817
7820
7821
7822
7823
7830
7835
7836
7838
7840
7841
7843
7847
7848
7852
7860
7862
7863
7867
7869
7870
7877
7880
7883
7887
7888
7889
7890
7892
7894
7897
7903
7904
7907
7911
7915
7917
7920
7922
7923
7924
7925
7929
7935
7936
7938
7942
7950
7951
7957
7958
7962
7967
7968
7972
7973
7974
7976
7979
7983
7984
7986
7989
7990
7996
7997
7998
7999
8002
8004
8006
8008
8009
8018
8019
8021
8022
8028
8030
8031
8033
8036
8039
8041
8044
8045
8047
8048
8049
8050
8052
8053
8054
8055
8059
8063
8067
8068
8069
8071
8072
8074
8079
8080
8089
8090
8091
8093
8095
8098
8099
8105
8107
8108
8109
8110
8112
8115
8117
8119
8121
8127
8128
8131
8134
8136
8140
8147
8150
8151
8153
8155
8156
8157
8159
8161
8163
8168
8171
8174
8180
8183
8184
8186
8194
8197
8201
8204
8209
8213
8215
8217
8220
8222
8223
8228
8229
8232
8233
8235
8237
8239
8240
8242
8243
8246
8252
8255
8257
8260
8261
8263
8266
8268
8269
8270
8272
8274
8276
8277
8279
8282
8285
8288
8293
8296
8300
8301
8308
8315
8316
8322
8323
8324
8326
8327
8328
8329
8330
8331
8333
8335
8337
8339
8341
8343
8344
8345
8349
8351
8352
8355
8356
8360
8361
8364
8367
8371
8373
8374
8378
8381
8382
8386
8394
8396
8397
8400
8401
8402
8405
8406
8409
8410
8413
8414
8415
8416
8417
8418
8419
8423
8424
8431
8435
8439
8440
8441
8443
8450
8453
8455
8460
8463
8465
8466
8468
8469
8471
8472
8479
8480
8481
8483
8486
8487
8488
8489
8491
8493
8494
8499
8504
8509
8510
8514
8515
8519
8520
8521
8524
8527
8531
8535
8536
8537
8538
8539
8540
8547
8548
8550
8552
8554
8555
8567
8570
8573
8575
8577
8579
8596
8597
8598
8602
8605
8606
8610
8611
8612
8616
8619
8623
8626
8636
8637
8640
8641
8642
8645
8647
8654
8655
8657
8658
8659
8663
8669
8670
8671
8672
8676
8693
8696
8699
8701
8703
8704
8705
8712
8716
8717
8724
8726
8727
8729
8730
8732
8734
8737
8738
8742
8746
8747
8748
8754
8757
8758
8767
8770
8773
8774
8779
8781
8782
8784
8786
8791
8793
8797
8799
8803
8807
8817
8822
8823
8824
8825
8826
8829
8831
8832
8835
8838
8841
8843
8845
8848
8849
8852
8853
8855
8858
8866
8869
8870
8874
8876
8878
8880
8881
8882
8884
8886
8890
8893
8894
8896
8897
8900
8902
8903
8904
8913
8920
8923
8924
8926
8932
8936
8937
8938
8943
8945
8953
8955
8957
8958
8961
8962
8964
8965
8967
8970
8972
8978
8982
8985
8988
8989
8991
8992
8994
8995
9001
9002
9003
9004
9005
9006
9007
9015
9021
9022
9023
9026
9028
9032
9033
9035
9038
9040
9042
9052
9062
9065
9069
9070
9074
9082
9084
9085
9089
9092
9093
9094
9096
9101
9102
9104
9106
9107
9108
9111
9114
9115
9117
9130
9131
9136
9144
9145
9150
9153
9156
9159
9168
9172
9175
9177
9178
9179
9181
9183
9186
9187
9188
9191
9195
9196
9197
9198
9204
9210
9211
9212
9214
9218
9219
9220
9222
9223
9224
9225
9226
9230
9231
9234
9235
9236
9238
9240
9241
9242
9244
9245
9247
9251
9254
9256
9257
9259
9260
9266
9267
9268
9270
9272
9277
9279
9281
9282
9283
9285
9290
9291
9292
9293
9296
9298
9301
9302
9304
9305
9306
9312
9315
9321
9322
9324
9325
9327
9328
9329
9330
9335
9336
9339
9340
9341
9343
9345
9354
9357
9359
9362
9368
9369
9372
9373
9374
9375
9377
9378
9379
9383
9384
9386
9388
9391
9395
9396
9397
9398
9401
9402
9404
9406
9407
9408
9409
9411
9415
9420
9421
9427
9428
9431
9432
9433
9434
9435
9436
9437
9441
9443
9448
9450
9453
9456
9457
9459
9460
9462
9464
9466
9467
9468
9473
9476
9477
9480
9481
9483
9485
9486
9487
9490
9495
9497
9501
9506
9508
9510
9511
9512
9517
9518
9519
9520
9523
9527
9528
9529
9530
9534
9537
9539
9540
9541
9542
9544
9547
9549
9556
9558
9561
9566
9572
9575
9576
9577
9584
9589
9593
9595
9598
9600
9602
9604
9605
9609
9610
9612
9614
9615
9621
9623
9624
9626
9628
9630
9634
9637
9640
9641
9645
9648
9651
9655
9657
9658
9660
9664
9665
9666
9668
9673
9678
9679
9680
9683
9684
9687
9688
9689
9693
9697
9700
9702
9703
9705
9715
9717
9718
9720
9722
9725
9727
9729
9730
9731
9732
9734
9739
9743
9744
9745
9748
9751
9753
9754
9755
9757
9758
9760
9763
9765
9766
9770
9772
9773
9774
9775
9780
9783
9784
9787
9793
9795
9800
9804
9808
9810
9813
9814
9822
9828
9832
9835
9841
9842
9846
9847
9862
9863
9867
9870
9877
9879
9880
9882
9883
9885
9892
9893
9894
9898
9900
9901
9902
9906
9907
9916
9917
9918
9921
9922
9927
9929
9932
9934
9937
9938
9939
9941
9944
9946
9948
9949
9950
9951
9955
9961
9973
9975
9976
9977
9984
9985
9986
9987
9988
9996
9998
)


// ************************************************************************* //
