/*--------------------------------*- C++ -*----------------------------------*\
| =========                 |                                                 |
| \\      /  F ield         | OpenFOAM: The Open Source CFD Toolbox           |
|  \\    /   O peration     | Version:  v1706                                 |
|   \\  /    A nd           | Web:      www.OpenFOAM.com                      |
|    \\/     M anipulation  |                                                 |
\*---------------------------------------------------------------------------*/
FoamFile
{
    version     2.0;
    format      ascii;
    class       Cloud<dsmcParcel>;
    location    "1e-06/lagrangian/dsmc";
    object      positions;
}
// * * * * * * * * * * * * * * * * * * * * * * * * * * * * * * * * * * * * * //

3999
(
(0 8.861431525e-06 2.502938222e-06) 0
(0 5.798741015e-06 7.329504508e-06) 0
(7.309857001e-06 2.246008547e-06 9.510512694e-06) 0
(-1.32348898e-23 1.344402812e-06 2.179973197e-06) 0
(0 5.449151518e-06 3.108679518e-06) 0
(5.908166813e-06 3.733044477e-06 4.413452951e-06) 0
(0 7.840988917e-06 9.092041305e-06) 0
(0 8.402882876e-06 4.402415993e-06) 0
(0 4.316094778e-06 2.326973914e-06) 0
(4.119922098e-06 4.118224621e-06 5.598985149e-06) 0
(0 9.609605036e-06 5.048606356e-06) 0
(3.702130149e-06 9.0024393e-06 1.183584894e-06) 0
(3.758380348e-06 7.728679967e-06 5.706804297e-06) 0
(9.789155545e-06 2.495196788e-06 8.39384813e-06) 0
(0 8.802642669e-07 1.047547236e-06) 0
(4.102620467e-06 4.135538398e-06 1.038930317e-06) 0
(0 4.337611129e-06 4.061823147e-06) 0
(2.530403287e-06 3.639077166e-06 6.612015483e-06) 0
(0 2.516637195e-06 2.946179227e-06) 0
(0 5.371492189e-06 4.948410919e-06) 0
(7.622574732e-06 9.468163705e-06 7.236916356e-06) 0
(8.101397062e-06 8.023802458e-06 8.892098263e-06) 0
(0 3.511771732e-06 8.546783809e-06) 0
(5.136414772e-06 2.439009086e-06 1.118064605e-06) 0
(0 4.482733857e-06 2.091236109e-06) 0
(5.488461442e-08 6.030458349e-06 9.356589474e-06) 0
(2.250880606e-06 7.347958815e-06 7.707417994e-06) 0
(0 3.373357929e-06 5.89231747e-07) 0
(4.472998169e-06 9.529279341e-07 7.508358832e-06) 0
(0 3.171662302e-06 6.641008546e-06) 0
(8.685180459e-07 4.967232357e-06 6.177616818e-06) 0
(5.929450435e-06 7.929087055e-06 7.066327927e-06) 0
(0 2.189803771e-07 3.860974139e-06) 0
(0 9.918450597e-06 2.545355901e-06) 0
(8.380828107e-06 7.768529857e-06 9.106505302e-06) 0
(0 8.076016933e-06 3.39574721e-06) 0
(9.069209347e-07 6.666153365e-06 4.344471064e-06) 0
(0 4.845075357e-06 1.031337838e-06) 0
(5.981913991e-06 4.478441699e-09 9.250961942e-06) 0
(4.220867328e-06 9.960949449e-06 8.6155545e-06) 0
(0 9.44706039e-06 6.36045414e-06) 0
(0 5.761838582e-06 3.134465435e-06) 0
(0 4.283790458e-06 4.129998526e-06) 0
(4.812824504e-06 4.371623115e-06 4.481120395e-06) 0
(2.597947862e-06 2.256816137e-06 3.931231918e-06) 0
(0 2.256526685e-06 4.388084611e-06) 0
(1.865700949e-06 8.488940361e-06 7.397637742e-06) 0
(0 7.087965401e-06 1.401707187e-06) 0
(0 9.862415249e-06 3.356196323e-06) 0
(0 2.239264303e-06 2.838695226e-06) 0
(7.477762425e-06 4.844180334e-06 9.66725454e-06) 0
(2.068131915e-06 4.725859455e-06 6.412067126e-06) 0
(6.908110705e-06 1.251912668e-08 6.157919216e-06) 0
(0 5.916444211e-06 3.053631856e-07) 0
(0 9.500897754e-06 6.770676157e-06) 0
(9.399809529e-06 3.998682031e-06 3.899554849e-07) 0
(9.767433813e-06 1.055866822e-06 1.620969683e-06) 0
(0 8.103992516e-06 2.738215778e-06) 0
(4.041026005e-07 9.110751429e-06 7.234469567e-06) 0
(0 1.911975434e-07 1.367252613e-06) 0
(0 2.690379879e-06 3.122917434e-06) 0
(6.18243925e-06 6.178011957e-06 5.433256321e-06) 0
(0 3.006472002e-06 1.376419838e-06) 0
(7.776660936e-06 5.427100021e-06 4.468479141e-06) 0
(9.700110718e-06 7.416966824e-06 7.751271559e-06) 0
(2.923109344e-06 6.380206706e-06 1.102317751e-07) 0
(6.067590157e-06 2.150018382e-06 5.552959171e-06) 0
(3.642297641e-06 8.888391518e-06 4.067692587e-06) 0
(3.44721831e-06 1.16575114e-06 3.474802077e-06) 0
(0 1.952549354e-06 2.035303582e-06) 0
(2.533975677e-06 2.553482853e-06 2.456980093e-08) 0
(0 9.412364611e-06 7.523927999e-06) 0
(7.076376801e-06 4.727276485e-06 4.22104202e-06) 0
(0 6.574806996e-06 5.680645222e-06) 0
(7.964893384e-06 6.179060513e-06 8.993893109e-06) 0
(4.922711893e-06 5.909173834e-06 1.737662303e-06) 0
(4.288146365e-06 6.067279892e-06 9.483486571e-06) 0
(0 4.038783166e-06 5.305056701e-06) 0
(0 4.022985964e-06 2.96389988e-06) 0
(1.215946226e-06 6.408544376e-06 7.975804608e-06) 0
(0 7.492854295e-06 6.852991256e-06) 0
(0 6.978378385e-06 2.279622687e-06) 0
(7.463642614e-06 2.353810492e-06 7.133948891e-06) 0
(0 5.937813795e-06 8.197217298e-06) 0
(3.760087218e-06 8.66193502e-06 5.879269056e-07) 0
(0 2.506228374e-06 9.073092944e-06) 0
(1.520463783e-06 8.587506252e-06 7.108376986e-06) 0
(0 9.904111292e-06 7.487535547e-06) 0
(0 9.290376164e-06 9.656813738e-06) 0
(9.591620728e-06 4.890636873e-06 2.344929233e-06) 0
(8.183655299e-06 7.736451247e-06 5.332225398e-06) 0
(-4.135903063e-25 3.295071061e-06 1.964500885e-06) 0
(2.602183834e-06 7.91576011e-06 7.58635897e-07) 0
(1.987789218e-06 5.970702544e-06 7.766561814e-06) 0
(3.822649674e-06 1.964845146e-06 4.165032589e-06) 0
(0 6.427838825e-06 3.131714934e-06) 0
(1.605716175e-06 6.458353787e-06 9.660819108e-06) 0
(0 5.639754178e-06 6.072638463e-06) 0
(9.71585244e-07 1.901683822e-06 8.057259516e-06) 0
(7.705875984e-06 8.125071696e-06 9.687045203e-06) 0
(0 6.396855817e-06 6.820736411e-06) 0
(9.355929505e-06 6.37952003e-06 7.977521746e-06) 0
(6.213402022e-06 2.919249678e-06 6.553488274e-06) 0
(0 7.68353521e-06 4.505760082e-06) 0
(4.167839227e-06 4.325405277e-06 7.288842889e-07) 0
(0 4.175849581e-06 2.589459559e-06) 0
(5.86918083e-08 7.138689803e-06 2.909824187e-06) 0
(3.896274312e-06 4.7284122e-06 4.982301314e-06) 0
(5.288522067e-06 5.079935817e-06 3.493872638e-06) 0
(6.596817435e-07 5.001203195e-06 6.078794664e-06) 0
(8.295966011e-06 3.36784129e-06 9.345270574e-06) 0
(0 3.471842003e-06 9.817279071e-06) 0
(8.324989862e-06 6.075337192e-06 5.008513987e-06) 0
(0 1.616923395e-07 4.434253682e-06) 0
(2.917562692e-07 1.832050405e-06 6.505784166e-06) 0
(0 8.146396082e-06 9.063227479e-07) 0
(2.64697796e-23 5.261611163e-07 6.798723275e-06) 0
(7.866622382e-06 3.403633322e-06 2.567045654e-06) 0
(6.523990587e-06 2.242920893e-07 4.561177785e-06) 0
(0 2.985312298e-06 9.964658193e-06) 0
(0 1.239582991e-06 1.90812317e-06) 0
(7.7094813e-06 9.403385158e-06 2.224318765e-07) 0
(6.796760204e-06 2.611082478e-06 8.167450233e-06) 0
(7.185469442e-07 9.197040796e-07 9.066130738e-06) 0
(0 9.34736803e-06 5.243896002e-07) 0
(1.432251387e-06 7.47675833e-06 1.801198461e-06) 0
(1.020764985e-06 8.28103677e-06 2.489674419e-06) 0
(1.811636228e-06 6.980332392e-06 8.798643862e-06) 0
(3.906973776e-06 5.87376715e-06 2.424707461e-06) 0
(2.365701119e-06 4.022949815e-06 1.241638552e-06) 0
(7.184154272e-06 5.846338237e-06 6.134371654e-06) 0
(8.527620172e-07 8.821443906e-06 3.11671963e-06) 0
(1.874707023e-06 7.762070965e-06 2.339425547e-06) 0
(3.754094346e-06 3.557706423e-07 5.32710087e-07) 0
(5.427888729e-06 5.18831218e-06 6.970158253e-06) 0
(6.44819543e-06 9.392238637e-07 5.029789047e-06) 0
(7.331897099e-06 8.104205509e-06 4.24719647e-06) 0
(0 4.068281181e-06 9.060943302e-06) 0
(3.553307427e-06 8.623651375e-06 2.479414897e-06) 0
(7.310484285e-06 2.265557538e-06 9.980036662e-06) 0
(7.031485575e-06 6.641008305e-06 8.02019502e-07) 0
(6.762359512e-06 7.200141417e-06 2.801993814e-06) 0
(1.927209346e-06 6.053402636e-07 2.258582726e-06) 0
(8.566334403e-06 1.058411131e-06 9.653359964e-06) 0
(7.032104123e-06 7.237501785e-06 7.13964986e-08) 0
(3.540563716e-06 7.239746616e-06 9.601703524e-07) 0
(3.528888223e-06 9.301159573e-06 5.975419511e-06) 0
(0 2.655767957e-06 3.383747974e-06) 0
(0 9.317020494e-06 9.862377559e-06) 0
(0 1.668729994e-06 9.112071099e-06) 0
(6.319797587e-06 8.191237985e-06 6.630567912e-06) 0
(8.154459552e-06 2.886857966e-06 3.557617178e-06) 0
(0 5.163687962e-06 5.218977647e-06) 0
(7.161717314e-06 7.793461444e-06 1.944304425e-06) 0
(3.470131096e-06 7.514154535e-06 4.794315471e-06) 0
(0 1.273142067e-06 8.152168269e-06) 0
(0 3.298281064e-06 4.98854932e-06) 0
(0 7.919673107e-06 6.031923063e-06) 0
(5.286751376e-06 4.355925571e-06 7.872656102e-06) 0
(7.345063388e-06 9.899228063e-06 1.349561682e-06) 0
(1.245220334e-07 6.076554766e-06 4.00135741e-06) 0
(1.058791184e-22 8.842695449e-06 4.75191256e-06) 0
(5.98158842e-06 7.330503452e-06 2.589572044e-06) 0
(5.730393245e-07 2.770118512e-06 9.777609639e-06) 0
(6.946365497e-06 5.811521421e-06 5.720855603e-06) 0
(5.25559274e-06 7.163481342e-06 1.102320844e-06) 0
(0 5.488450225e-06 9.115938219e-06) 0
(8.93256607e-07 9.342149535e-06 4.856279266e-06) 0
(1.829648698e-06 9.496337795e-06 9.877128611e-06) 0
(1.649439257e-06 5.962781658e-06 2.598087029e-06) 0
(4.740187446e-06 5.52562916e-06 2.881787955e-06) 0
(9.500411833e-06 7.947896458e-06 2.647927303e-06) 0
(7.643434563e-06 5.062917917e-06 3.840682557e-06) 0
(5.106290325e-06 8.125205367e-06 9.213729701e-06) 0
(3.529560629e-07 2.720105744e-06 9.949690597e-06) 0
(0 9.282990302e-06 4.457469467e-06) 0
(7.689780119e-06 3.633544864e-07 7.113477729e-06) 0
(0 6.506054963e-06 9.546519261e-06) 0
(0 2.150990287e-06 3.217008218e-06) 0
(0 9.768801704e-06 4.95836751e-06) 0
(0 8.265618775e-06 7.623036098e-06) 0
(8.787497192e-06 6.983929845e-06 2.612924966e-06) 0
(0 1.332500608e-06 2.043941813e-06) 0
(8.459247061e-06 6.477640585e-06 5.477822103e-06) 0
(4.689540861e-06 8.674183309e-06 5.107662687e-06) 0
(2.646761781e-06 2.607451732e-06 1.410391203e-06) 0
(8.398905193e-07 7.726176612e-06 7.5302947e-06) 0
(9.97704078e-06 9.753598722e-07 6.823851496e-06) 0
(3.161842646e-06 9.70251152e-08 1.445316772e-06) 0
(0 1.012647302e-06 6.643265569e-06) 0
(6.137132591e-06 7.825863968e-06 3.928885254e-06) 0
(5.4928585e-06 4.212928747e-06 8.043722226e-06) 0
(9.245986648e-06 2.128356255e-07 5.08341435e-06) 0
(9.829896669e-07 1.440997475e-06 6.808444259e-07) 0
(4.22062253e-06 4.669253365e-06 4.992259525e-06) 0
(9.578209878e-06 7.146910222e-06 7.414957298e-06) 0
(0 9.954072235e-06 4.033579202e-06) 0
(1.836726248e-06 7.792630288e-06 8.057224481e-06) 0
(1.752852858e-06 9.293080834e-07 5.324566914e-06) 0
(4.620541308e-06 8.650341998e-07 4.988650979e-06) 0
(8.987278861e-06 7.282434495e-06 2.139174105e-06) 0
(1.753822216e-06 3.816468527e-06 5.94198427e-06) 0
(0 2.68271433e-06 4.103769786e-06) 0
(0 7.484445387e-06 3.815621161e-06) 0
(4.656622437e-06 8.852658215e-07 1.8887806e-06) 0
(7.139646726e-06 7.873278666e-06 9.794248749e-06) 0
(1.350916798e-06 3.590646914e-06 4.733956563e-06) 0
(2.45481851e-07 8.924157743e-06 5.146108705e-06) 0
(6.749681097e-06 9.084343873e-06 7.335984655e-06) 0
(1.45709117e-06 5.703978398e-06 9.522910181e-06) 0
(7.31184023e-06 2.30325999e-06 5.055854298e-06) 0
(2.64697796e-23 4.798539497e-06 8.793422578e-07) 0
(7.721791002e-06 9.816040348e-06 5.831156498e-06) 0
(7.987599844e-06 7.931200095e-06 6.041065309e-06) 0
(0 3.577799254e-06 6.175975729e-06) 0
(1.648848486e-06 7.340027626e-07 4.409722628e-06) 0
(3.344689086e-07 9.589773646e-06 2.413946576e-06) 0
(4.55410858e-06 7.236582138e-06 2.209589949e-06) 0
(0 2.096002671e-06 6.761065411e-06) 0
(0 2.94512224e-06 4.959025582e-06) 0
(5.388914767e-06 2.903870295e-06 4.130818268e-06) 0
(6.6174449e-24 2.965210586e-06 2.822798353e-06) 0
(0 5.399975763e-07 1.344666604e-06) 0
(6.399057475e-06 7.948076692e-06 9.876379448e-06) 0
(0 8.326700136e-06 5.227877698e-06) 0
(0 7.369927502e-06 4.392212259e-06) 0
(0 7.015555136e-06 5.981201178e-06) 0
(4.401980411e-06 2.402916041e-06 1.729231776e-06) 0
(0 2.266020935e-06 1.041135857e-07) 0
(2.76471858e-06 4.685296001e-06 3.889265654e-06) 0
(0 2.740187659e-07 5.033462953e-07) 0
(0 4.783544982e-06 5.755451717e-06) 0
(0 8.589367347e-06 9.075409291e-06) 0
(3.993866411e-06 6.43466191e-06 8.155793655e-06) 0
(0 1.098322449e-06 7.132632007e-06) 0
(0 6.611653873e-06 3.980769311e-06) 0
(9.300858316e-06 8.115068051e-06 8.632402319e-06) 0
(0 9.556879045e-07 9.99310456e-06) 0
(9.682169083e-06 6.289059858e-06 3.856616515e-06) 0
(5.011996446e-06 8.902895209e-06 9.657479337e-06) 0
(1.755395971e-06 9.119222753e-06 6.51533298e-06) 0
(0 4.54294644e-06 5.533933648e-06) 0
(4.002337597e-06 6.086340162e-06 9.669315742e-06) 0
(0 7.480446384e-06 2.390940431e-06) 0
(0 8.146851387e-06 4.195834285e-06) 0
(0 6.130993917e-06 4.701677193e-06) 0
(2.937197195e-06 2.988302155e-06 5.01246323e-06) 0
(6.844972217e-06 5.934282784e-06 9.207161084e-06) 0
(0 9.644240926e-07 4.136462719e-06) 0
(1.5263738e-07 9.343851765e-06 5.753827477e-06) 0
(3.56024335e-06 4.438421695e-06 6.441581449e-06) 0
(1.894234382e-06 4.265925619e-06 4.33146289e-06) 0
(8.463018181e-06 5.408196857e-06 7.091784644e-06) 0
(0 3.013192015e-06 4.993467691e-06) 0
(3.188180698e-06 1.669453297e-06 1.446523557e-06) 0
(1.084644544e-06 9.174362142e-06 8.50178168e-06) 0
(0 4.420257371e-06 5.829514633e-06) 0
(5.353826466e-06 5.314283771e-06 9.23143713e-06) 0
(-1.654361225e-24 9.98666124e-06 6.165234536e-06) 0
(5.29395592e-23 5.57914622e-06 3.610544058e-06) 0
(2.957608889e-06 3.219279552e-06 4.132485642e-06) 0
(0 5.641685573e-07 4.688427493e-06) 0
(3.30872245e-24 9.955120494e-06 2.831746208e-06) 0
(0 4.213228487e-06 4.566219999e-06) 0
(0 8.629937066e-06 4.512793048e-06) 0
(9.751411114e-06 6.72388391e-06 8.002970503e-06) 0
(9.939154761e-06 1.999277753e-06 7.922061194e-06) 0
(0 4.992935023e-06 7.605004497e-06) 0
(0 7.636949918e-06 6.61319283e-06) 0
(0 1.315729022e-06 8.210281843e-06) 0
(4.991269285e-06 4.477842547e-06 8.590306401e-06) 0
(1.666193863e-06 9.248961721e-06 3.166869066e-06) 0
(6.974990131e-06 1.68137929e-07 6.458911505e-06) 0
(6.950025658e-06 2.909901486e-06 5.281968028e-06) 0
(8.033047935e-06 5.712115622e-06 4.443408383e-06) 0
(1.272810804e-06 6.269406661e-06 8.928110656e-06) 0
(0 7.374706963e-06 9.733770865e-06) 0
(7.584402884e-06 3.899205873e-06 9.845916322e-06) 0
(5.118240424e-06 6.106886996e-06 1.617297974e-06) 0
(6.6174449e-24 1.366162543e-06 9.740822687e-06) 0
(0 1.171957183e-06 9.500317353e-06) 0
(0 1.16312352e-07 4.824686577e-06) 0
(3.851401768e-07 7.911537284e-07 2.925691319e-06) 0
(9.23556345e-06 8.080995939e-06 1.751350821e-06) 0
(5.15471557e-06 3.792265152e-06 7.414052546e-06) 0
(0 1.93367704e-06 4.249152579e-06) 0
(0 8.285541003e-06 6.27547599e-06) 0
(0 1.396677209e-06 3.885294968e-06) 0
(5.33026735e-06 2.159624281e-06 9.56481138e-06) 0
(2.197258553e-06 2.080645199e-06 1.426693902e-06) 0
(0 4.19889598e-06 1.305097945e-06) 0
(0 9.546682266e-06 8.981956765e-06) 0
(0 7.156327876e-07 5.429384441e-06) 0
(0 4.846815265e-06 8.793831182e-06) 0
(0 8.70311863e-06 6.108729516e-06) 0
(1.137451926e-06 5.119845209e-06 9.783901286e-06) 0
(6.6174449e-24 9.920504368e-06 9.064477142e-06) 0
(9.021195051e-06 8.636749962e-06 3.363754563e-06) 0
(1.067074182e-06 5.347876522e-07 4.763850269e-06) 0
(5.527197792e-06 2.724074951e-06 4.214391825e-06) 0
(0 5.495972857e-06 4.872783617e-06) 0
(4.044834099e-06 2.073656664e-06 4.114632996e-06) 0
(7.819255256e-06 3.750637967e-06 8.880799104e-06) 0
(6.659880324e-06 8.051489934e-06 4.430614835e-06) 0
(0 5.521723918e-07 3.495082624e-06) 0
(0 9.633933636e-06 9.016167099e-06) 0
(0 5.288792187e-06 5.853380493e-06) 0
(0 2.726175348e-06 5.074191486e-06) 0
(4.333804992e-06 7.075327244e-06 5.340982657e-06) 0
(0 6.420607345e-06 5.236668173e-06) 0
(3.779628488e-06 7.864679451e-07 7.150643164e-06) 0
(6.729904831e-06 9.926877301e-06 8.375495415e-06) 0
(7.070823822e-06 2.943538598e-06 2.57302387e-06) 0
(0 3.378323062e-06 8.497040322e-06) 0
(7.269444005e-06 7.301324222e-06 9.880015106e-06) 0
(1.813690002e-06 8.67068719e-06 9.341353417e-06) 0
(3.402421833e-07 6.656269659e-06 6.265217088e-07) 0
(3.401242641e-07 6.226382289e-06 8.808650525e-06) 0
(0 7.670124112e-06 1.070331678e-06) 0
(0 5.14666302e-06 5.237125394e-06) 0
(2.823962828e-06 8.575458042e-06 6.149214998e-06) 0
(3.755334851e-06 9.576931221e-06 4.817267111e-06) 0
(8.867461042e-06 6.673419549e-07 3.263172096e-06) 0
(9.308424739e-07 5.401638302e-06 9.561235683e-07) 0
(0 7.179708077e-06 3.848243139e-07) 0
(9.037521314e-06 2.635864279e-06 2.416433485e-06) 0
(0 2.51731546e-06 9.905810849e-06) 0
(2.425918778e-06 7.272934678e-06 2.242532587e-06) 0
(5.734598324e-06 3.09621694e-06 2.714087145e-06) 0
(0 1.702063594e-06 5.281223134e-06) 0
(9.083888029e-06 6.662841073e-06 5.002404443e-06) 0
(2.751729818e-06 8.646084789e-06 5.010357976e-06) 0
(9.966815581e-06 6.680032857e-07 9.994110173e-06) 0
(9.101856383e-06 3.860350509e-06 2.113008211e-06) 0
(7.902255123e-06 1.840771462e-06 2.384641085e-06) 0
(3.067016049e-06 1.731158608e-06 8.919135406e-06) 0
(4.449167742e-06 8.528978201e-07 4.050682473e-06) 0
(8.746848546e-06 4.058270715e-06 1.295712872e-06) 0
(0 2.311746147e-06 2.730928329e-06) 0
(2.566155033e-06 6.609982157e-06 1.891912608e-07) 0
(7.805887869e-06 4.485593048e-06 4.066619161e-06) 0
(0 4.930310757e-06 4.124878155e-06) 0
(0 1.156468813e-06 4.475779493e-06) 0
(0 5.253178922e-06 2.648723924e-06) 0
(0 7.373657458e-06 8.661165717e-06) 0
(5.986616028e-06 8.009745392e-06 5.74992868e-06) 0
(2.037710365e-06 8.859611424e-06 5.971811504e-06) 0
(9.002302552e-07 7.449462212e-06 1.094077142e-06) 0
(0 7.703986803e-06 9.700299071e-06) 0
(6.858415976e-06 6.29199139e-06 5.772979999e-06) 0
(9.029172932e-06 3.075401292e-06 8.074938588e-06) 0
(0 2.74861872e-06 9.68070188e-06) 0
(3.036617298e-06 2.006891976e-06 1.310966391e-06) 0
(7.748355216e-06 7.726905227e-06 2.659962475e-06) 0
(4.839620203e-06 8.014484321e-06 5.053283559e-06) 0
(1.057279825e-06 9.8373436e-07 2.845929758e-06) 0
(8.020337701e-06 9.034415807e-06 6.179435355e-06) 0
(5.29395592e-23 2.05117803e-06 7.464855191e-06) 0
(0 5.676523191e-06 7.086931593e-07) 0
(2.302046537e-06 3.261183022e-06 3.652423375e-06) 0
(3.628744108e-06 1.50895244e-06 7.534777735e-06) 0
(4.014526331e-06 2.310523888e-06 4.57292208e-06) 0
(8.971983542e-06 2.944692191e-06 7.134420253e-06) 0
(6.287037907e-06 3.32268244e-06 5.30056393e-06) 0
(6.690654983e-06 6.428830673e-06 6.854351636e-06) 0
(0 8.708112532e-07 3.702925018e-07) 0
(3.563002569e-06 6.303789947e-06 6.141271308e-06) 0
(8.666905682e-06 4.578117022e-06 5.646185512e-06) 0
(0 6.282557306e-06 1.16645144e-06) 0
(4.265085285e-06 2.223208938e-06 7.690858318e-07) 0
(4.036320822e-06 5.033277307e-06 2.719395301e-06) 0
(0 2.829039767e-06 9.293132053e-07) 0
(0 5.60783172e-06 7.75890125e-06) 0
(3.177414705e-06 9.090197347e-06 2.980439204e-06) 0
(5.29395592e-23 4.178885563e-06 6.576595159e-06) 0
(0 7.370489461e-06 6.080218853e-06) 0
(1.115252377e-06 5.192067167e-06 2.99102607e-06) 0
(-2.64697796e-23 3.452805006e-07 9.027141062e-06) 0
(0 7.799957052e-06 1.289058133e-07) 0
(1.784441996e-06 8.829616199e-06 1.996689693e-06) 0
(6.427950227e-06 8.37465194e-06 3.111249164e-06) 0
(4.276348054e-06 1.241335246e-06 8.123991559e-06) 0
(4.807142811e-07 1.623137502e-06 8.076112654e-06) 0
(5.817905105e-06 7.542497322e-06 6.805876503e-06) 0
(1.441309016e-06 7.014805248e-06 1.806765453e-06) 0
(7.871350332e-06 7.169552249e-06 5.463056059e-06) 0
(2.64697796e-23 7.266361609e-06 7.640338529e-06) 0
(0 2.645804445e-06 8.798738905e-06) 0
(8.503225201e-06 3.800353945e-06 6.554760135e-06) 0
(6.172933334e-06 2.140827324e-06 2.458258247e-06) 0
(0 2.190700939e-06 5.234747889e-06) 0
(3.902494497e-06 2.057382206e-06 9.257685841e-06) 0
(0 6.005906124e-06 1.840986523e-06) 0
(4.995049163e-06 3.568543707e-06 1.252654166e-06) 0
(0 7.98395848e-06 9.622128263e-06) 0
(9.101315966e-06 5.273202389e-06 8.10821842e-08) 0
(0 4.607939897e-06 4.611643279e-06) 0
(0 5.977223278e-06 1.706957652e-06) 0
(9.710931434e-06 4.986312874e-06 6.136681215e-06) 0
(5.487604069e-06 2.434290957e-06 2.477072655e-06) 0
(2.644708766e-06 3.00272491e-06 7.270113193e-06) 0
(3.958454462e-06 1.084752041e-06 8.976231749e-06) 0
(2.496794267e-06 1.940804464e-06 1.204350817e-06) 0
(3.608818128e-06 6.940320408e-06 4.929484865e-06) 0
(0 1.033764537e-06 6.853906279e-06) 0
(0 5.738396521e-06 8.602819552e-06) 0
(0 1.537327443e-06 7.881733291e-06) 0
(3.194921739e-06 2.435436484e-06 2.965964494e-07) 0
(0 7.883754244e-06 3.070007126e-06) 0
(7.065014827e-06 7.475165378e-06 2.484514297e-06) 0
(6.627261323e-06 2.716175282e-06 9.028733293e-06) 0
(-1.32348898e-23 5.594546346e-06 5.469808424e-06) 0
(0 3.727432659e-06 4.064220555e-06) 0
(6.825494824e-06 3.704603275e-06 3.394749277e-06) 0
(7.864596068e-06 1.929762798e-06 8.055234389e-06) 0
(0 3.492047328e-07 9.042003886e-06) 0
(0 5.034805017e-06 3.977211214e-06) 0
(0 3.220599182e-06 9.355591522e-06) 0
(5.29395592e-23 6.307488059e-06 1.839216836e-07) 0
(8.199298096e-06 5.689073667e-06 5.13188484e-06) 0
(2.002297689e-06 7.335467801e-06 3.167144252e-06) 0
(0 9.823160276e-06 7.830313541e-06) 0
(4.237446189e-06 4.797578757e-06 1.149576406e-06) 0
(2.966721594e-06 9.567416957e-06 4.963181712e-06) 0
(6.106152538e-06 9.42682868e-06 3.572963397e-06) 0
(2.721405398e-06 6.20998661e-06 5.843259978e-06) 0
(0 5.209919517e-06 3.475208392e-06) 0
(0 5.678980693e-06 2.766939998e-06) 0
(4.278237223e-06 4.839573253e-06 5.77998545e-06) 0
(0 9.631700939e-06 9.856024014e-06) 0
(4.126750996e-06 3.224986807e-06 2.067239051e-06) 0
(6.674782049e-06 1.12703837e-06 2.227904244e-06) 0
(0 3.812047054e-06 5.58472824e-06) 0
(0 8.568039817e-06 2.290803483e-06) 0
(5.745976314e-06 8.654757176e-06 6.184456193e-06) 0
(8.126188651e-06 9.555064028e-06 8.384456489e-06) 0
(0 8.0850843e-06 8.789315783e-06) 0
(2.25298517e-06 4.119352977e-06 3.244069438e-06) 0
(9.130794851e-06 7.838446433e-06 8.154166682e-06) 0
(0 9.313301864e-06 3.417161619e-06) 0
(0 3.946206441e-06 4.22974889e-06) 0
(6.532270307e-06 8.362603189e-06 7.196164939e-06) 0
(8.071414952e-06 9.552706955e-06 8.330302753e-06) 0
(6.708894737e-06 3.5586929e-06 6.075185612e-06) 0
(1.610582795e-06 9.798610086e-06 1.025051361e-06) 0
(5.149723573e-06 2.869620694e-06 4.98624123e-06) 0
(9.126067205e-06 2.71612393e-06 4.488943934e-06) 0
(0 1.616871609e-06 6.774098643e-06) 0
(7.385157899e-06 6.115043347e-06 5.179020512e-06) 0
(2.350811132e-06 2.8881015e-06 6.693753818e-06) 0
(2.878099574e-06 1.304323266e-06 7.969637019e-06) 0
(-2.64697796e-23 6.488923477e-08 2.19781846e-06) 0
(7.025626125e-07 4.004389028e-06 5.614004504e-06) 0
(8.260306392e-06 9.292574866e-06 2.454593744e-06) 0
(2.663445526e-06 1.205139819e-07 4.739704377e-07) 0
(4.342492215e-06 8.276164747e-06 9.324126397e-07) 0
(8.882674551e-06 1.375802559e-06 5.576378508e-07) 0
(1.398723846e-06 9.444565527e-06 4.724780957e-06) 0
(2.751964933e-06 5.264539606e-06 5.09650466e-06) 0
(9.400799043e-06 7.900994233e-06 2.536902589e-07) 0
(1.259857705e-06 5.372982297e-07 9.921691498e-06) 0
(0 2.887997808e-06 3.870122728e-07) 0
(2.796218939e-07 2.407997378e-06 9.647917427e-06) 0
(0 3.204313143e-06 6.343596797e-06) 0
(6.194228139e-06 5.161308828e-06 8.696950436e-06) 0
(6.150866165e-06 3.553423422e-06 3.581559958e-06) 0
(4.574854204e-06 9.510044408e-06 4.75863351e-06) 0
(0 6.96229366e-07 3.617667573e-07) 0
(0 2.868801358e-06 4.392394072e-06) 0
(2.672502992e-06 6.017021497e-06 5.888118387e-06) 0
(5.29395592e-23 6.821161823e-06 7.145832753e-06) 0
(6.218834822e-07 5.114322467e-06 4.226325706e-06) 0
(-5.29395592e-23 6.100469195e-06 3.434431049e-06) 0
(3.497479539e-07 3.691745881e-06 6.93140783e-06) 0
(2.318310803e-06 8.756451842e-06 8.04188186e-06) 0
(0 2.787181574e-06 8.509484779e-06) 0
(4.244157363e-07 3.288478179e-06 7.274845965e-06) 0
(3.536392562e-06 1.077118769e-06 7.378562451e-06) 0
(5.442074072e-06 1.834975439e-06 4.567888386e-06) 0
(0 6.951349353e-06 4.330489929e-06) 0
(4.272517988e-06 9.77839629e-07 4.048749606e-06) 0
(4.308761453e-06 7.214020737e-06 7.763141636e-06) 0
(0 5.348541232e-06 3.020120189e-06) 0
(0 6.254302601e-06 4.2079602e-06) 0
(7.614989288e-06 2.452737025e-06 5.011299801e-06) 0
(0 4.239369388e-06 5.784384901e-07) 0
(7.561210296e-06 2.596664974e-06 3.155583902e-06) 0
(8.781706683e-06 8.861394524e-07 6.140172922e-06) 0
(1.154782879e-06 9.304786971e-06 6.093477517e-06) 0
(0 7.880708812e-06 1.50302262e-06) 0
(4.427026557e-06 6.632942916e-06 6.918410228e-06) 0
(0 8.377729982e-06 7.624687377e-06) 0
(2.067247236e-06 9.435137704e-06 6.409126439e-06) 0
(0 8.806196882e-06 6.072113717e-06) 0
(9.001430639e-06 7.543114523e-07 7.388122788e-06) 0
(3.555083744e-06 5.258403702e-06 9.31541671e-06) 0
(6.530775267e-06 9.743698952e-07 9.216220871e-06) 0
(0 2.175502761e-06 8.541004091e-06) 0
(0 4.065008267e-06 1.759795824e-07) 0
(9.443387356e-06 6.703890922e-06 5.780978822e-06) 0
(1.323358765e-06 6.345225418e-07 1.556074637e-06) 0
(0 2.683783892e-06 6.066402781e-06) 0
(0 5.949654416e-06 4.253227921e-06) 0
(7.153261601e-06 4.487258004e-07 1.982792416e-06) 0
(4.245118065e-06 6.038337204e-06 5.717691827e-06) 0
(7.716477739e-06 3.658878469e-06 5.426251414e-06) 0
(3.505397428e-06 6.5933303e-06 9.871600222e-06) 0
(4.942734238e-06 3.985756074e-06 7.920689663e-06) 0
(5.895115832e-06 7.719568099e-06 7.441713911e-06) 0
(5.934146858e-06 6.297839081e-06 2.664665385e-06) 0
(0 4.789154177e-06 2.317475358e-06) 0
(1.567825818e-06 5.800734791e-07 9.486298661e-06) 0
(-1.058791184e-22 4.449653489e-06 5.002994265e-06) 0
(8.22707368e-06 5.015557334e-06 6.105050321e-06) 0
(3.880433051e-06 3.062931863e-06 6.712013433e-06) 0
(0 8.130115755e-07 7.517955864e-06) 0
(8.190453569e-06 7.197246822e-06 4.955717166e-06) 0
(0 7.716853229e-06 3.337644915e-06) 0
(9.442939124e-06 9.09860306e-06 6.593339551e-06) 0
(6.35588718e-06 4.525012054e-06 4.29681424e-07) 0
(0 8.319209645e-07 4.646139462e-06) 0
(0 1.573636016e-06 1.81303824e-06) 0
(0 8.245855589e-06 5.293912366e-06) 0
(5.560626128e-06 3.212722422e-06 7.41781677e-06) 0
(9.463252737e-06 1.188481717e-06 6.586333189e-06) 0
(8.072332384e-06 7.397532728e-06 7.525139289e-06) 0
(0 6.972548496e-06 5.533419235e-06) 0
(0 6.283234926e-06 3.772397138e-06) 0
(0 8.838584572e-06 5.51618647e-06) 0
(5.575226638e-06 6.642220983e-06 2.647051371e-06) 0
(6.205241563e-06 7.486364142e-06 2.099743661e-06) 0
(5.415481925e-06 8.027289807e-06 8.859299078e-06) 0
(0 8.741950458e-06 7.566413992e-06) 0
(9.768521476e-07 9.007765012e-06 4.165462278e-06) 0
(0 2.759499414e-06 1.447984411e-06) 0
(1.071037737e-06 5.179443108e-06 6.964550242e-06) 0
(6.418740364e-06 2.319564203e-06 4.925490476e-06) 0
(0 5.534039653e-06 3.367284606e-06) 0
(0 7.760036214e-06 6.812754602e-06) 0
(3.887711332e-06 5.08621143e-06 4.718134831e-06) 0
(7.062517127e-07 6.197813508e-06 6.955511781e-06) 0
(5.814758032e-06 3.93453427e-06 4.130045368e-06) 0
(0 7.085522563e-06 7.754622708e-06) 0
(4.617668321e-06 7.38312919e-06 9.293264514e-06) 0
(5.814102988e-06 8.071541876e-06 8.494654363e-06) 0
(8.609587402e-06 4.069188602e-07 6.191245479e-07) 0
(0 8.429534378e-06 8.327678497e-06) 0
(3.746153851e-06 2.979595044e-06 2.861187607e-06) 0
(5.968946368e-06 4.904232647e-06 9.877855877e-06) 0
(0 7.171321118e-06 3.375891853e-07) 0
(7.822054355e-06 7.497186536e-06 2.147019214e-06) 0
(3.608337952e-06 9.216781571e-07 8.431072821e-06) 0
(0 8.372588516e-06 9.807626021e-06) 0
(3.268602218e-06 7.309865747e-06 7.53120802e-06) 0
(0 8.357097287e-06 5.698521145e-06) 0
(4.071427532e-06 7.024572023e-06 1.323878443e-06) 0
(0 6.428730346e-06 5.402967729e-06) 0
(0 8.788058932e-06 8.64509135e-06) 0
(4.698723913e-06 7.422413694e-06 9.563908948e-06) 0
(7.862242893e-06 6.098279702e-07 5.369287838e-06) 0
(3.895331485e-06 6.480480183e-06 4.700111661e-06) 0
(0 2.910144182e-06 8.076800348e-06) 0
(0 6.373161389e-06 9.037866049e-06) 0
(0 9.184817745e-06 6.158247283e-06) 0
(0 6.312039383e-06 3.67916566e-06) 0
(3.092575217e-06 4.986658301e-06 6.663051712e-06) 0
(6.796217215e-06 5.198204735e-06 4.182202903e-06) 0
(0 2.457300148e-06 5.265800836e-06) 0
(9.604737823e-06 7.532142812e-06 1.508696666e-06) 0
(0 8.303921773e-06 1.572399971e-06) 0
(6.558126492e-06 4.412777498e-06 5.726366509e-06) 0
(0 3.017158484e-06 8.890102984e-06) 0
(2.527818952e-07 1.260363122e-06 9.522769186e-06) 0
(4.847530018e-06 9.11791559e-06 7.199020123e-06) 0
(0 4.784436832e-06 8.76558673e-06) 0
(3.057016794e-06 5.379356022e-07 8.403331651e-06) 0
(3.552508877e-06 1.917182999e-06 8.948535946e-06) 0
(9.177163382e-06 8.479459437e-06 6.220753737e-06) 0
(6.041951182e-07 4.713266992e-06 3.829385154e-06) 0
(5.041062997e-06 2.721934031e-06 2.61800935e-06) 0
(9.798611595e-06 1.950559965e-06 8.095447922e-06) 0
(0 2.286069923e-06 3.504525028e-06) 0
(0 2.084280906e-06 3.692485261e-06) 0
(0 4.423825592e-06 1.202300045e-07) 0
(0 1.231459478e-06 9.238970696e-07) 0
(0 4.52782255e-06 6.517722339e-06) 0
(8.226256466e-06 7.821001344e-06 1.171702728e-06) 0
(2.601349688e-06 8.869909854e-06 7.285252893e-07) 0
(0 6.822724238e-06 2.952825306e-06) 0
(9.231815954e-06 2.073748108e-08 7.753478046e-06) 0
(0 8.75480908e-07 7.282115978e-07) 0
(-2.64697796e-23 6.312738275e-06 8.281948818e-06) 0
(2.64697796e-23 4.824982712e-07 6.167095213e-06) 0
(3.246080771e-06 9.030929998e-06 3.635106177e-06) 0
(4.094927098e-06 6.264625922e-06 8.400502213e-06) 0
(4.200767177e-06 9.779519959e-07 5.041764427e-06) 0
(0 8.61811527e-06 2.177427105e-06) 0
(-1.058791184e-22 1.660542221e-06 8.087277917e-06) 0
(0 7.794464609e-06 9.606277871e-06) 0
(0 5.255000085e-06 3.333354432e-06) 0
(0 2.062654085e-06 9.505486672e-06) 0
(7.827615814e-06 8.514341345e-06 5.718181335e-06) 0
(6.6174449e-24 6.505850449e-06 8.96715625e-06) 0
(5.124131157e-06 9.384789297e-07 7.232593208e-06) 0
(3.669216954e-06 6.269583572e-07 1.035549383e-06) 0
(5.416385675e-06 6.414208516e-06 2.497526826e-06) 0
(1.206286273e-06 7.26261839e-06 8.19516206e-06) 0
(9.422422859e-06 8.442650461e-06 9.806800556e-06) 0
(0 5.982994513e-07 8.126640903e-06) 0
(5.29395592e-23 7.928426492e-06 5.598086279e-06) 0
(1.517985062e-06 9.921168384e-06 8.793683471e-06) 0
(3.523527527e-06 3.154404208e-06 3.01606973e-06) 0
(1.189062141e-06 8.360061717e-06 4.550942767e-06) 0
(0 3.244217692e-07 6.771495342e-06) 0
(4.134709473e-07 8.431912306e-06 5.10391608e-06) 0
(2.174426344e-06 4.913722406e-06 4.692570737e-06) 0
(8.356728588e-07 4.785775845e-06 6.35912104e-06) 0
(3.011136818e-06 1.613734286e-06 9.437105712e-06) 0
(4.518836041e-06 7.939363796e-06 5.017843209e-06) 0
(7.257378658e-06 1.18339305e-06 7.756318206e-06) 0
(0 8.454785553e-06 9.692940418e-06) 0
(9.371578439e-06 9.286882954e-06 7.257865524e-06) 0
(5.451417921e-06 5.636828806e-06 5.953160841e-06) 0