/*--------------------------------*- C++ -*----------------------------------*\
| =========                 |                                                 |
| \\      /  F ield         | OpenFOAM: The Open Source CFD Toolbox           |
|  \\    /   O peration     | Version:  v1706                                 |
|   \\  /    A nd           | Web:      www.OpenFOAM.com                      |
|    \\/     M anipulation  |                                                 |
\*---------------------------------------------------------------------------*/
FoamFile
{
    version     2.0;
    format      ascii;
    class       volScalarField;
    location    "8";
    object      mctTimeStepRatio_mixture;
}
// * * * * * * * * * * * * * * * * * * * * * * * * * * * * * * * * * * * * * //

dimensions      [0 0 0 0 0 0 0];


internalField   nonuniform List<scalar> 
500
(
3.557699681
3.559526926
3.557405548
3.558035449
3.558152586
3.575807466
3.574461655
3.575830716
3.574124928
3.575272232
3.589009127
3.589354221
3.589043794
3.589788273
3.589918119
3.602303058
3.603514765
3.600985536
3.602231974
3.602371857
3.614752485
3.615844012
3.615368789
3.613716523
3.615351546
3.626428483
3.627958028
3.62723976
3.627310222
3.627565594
3.639281758
3.638257822
3.63943632
3.638250069
3.63946551
3.65061026
3.65004809
3.64999013
3.650243998
3.650281724
3.662569494
3.662972251
3.662923728
3.662658333
3.662219495
3.673615937
3.674547887
3.674616575
3.674908459
3.673633001
3.68660157
3.685891346
3.685534137
3.686340528
3.6861584
3.696174414
3.697713511
3.696809841
3.698562603
3.697839673
3.708305499
3.708911029
3.709287255
3.707808901
3.709264482
3.720437337
3.71986845
3.720029878
3.719557126
3.720247463
3.731249492
3.731288902
3.730812913
3.731953779
3.731002714
3.742069144
3.74258857
3.742920432
3.742866125
3.742410647
3.753816051
3.753750794
3.753544044
3.753696648
3.753578912
3.764628192
3.764044824
3.765306376
3.765000963
3.763674509
3.774682812
3.7759194
3.776342463
3.775000886
3.775926214
3.785771892
3.785791053
3.786514779
3.787027869
3.787454918
3.798064374
3.798265683
3.796746328
3.798556654
3.798525764
3.808887821
3.808893728
3.807326119
3.808671298
3.809166926
3.819998822
3.82018196
3.81919931
3.820132086
3.819723362
3.82956336
3.830764273
3.829564764
3.829568142
3.830836462
3.840888096
3.841272578
3.840261186
3.841508012
3.841117506
3.850759819
3.850683774
3.850673134
3.852018594
3.851969658
3.861604486
3.861371987
3.861457558
3.862778191
3.862175921
3.872721347
3.87204106
3.872915892
3.87309496
3.872338364
3.883123431
3.884434516
3.884223673
3.883022742
3.882217564
3.89340135
3.893853868
3.894684993
3.89208878
3.894762969
3.904750381
3.905047049
3.902914082
3.903935278
3.90328011
3.914179452
3.914083625
3.913207436
3.914720746
3.913967758
3.925272425
3.925340583
3.924568263
3.92496184
3.923225664
3.934818559
3.934272881
3.934466336
3.935271864
3.93390915
3.945754285
3.945928953
3.944864139
3.945263193
3.944443743
3.956227702
3.95624098
3.956466817
3.955555792
3.954949767
3.964979256
3.965565345
3.966721389
3.965966893
3.966259159
3.976742608
3.976808014
3.976240952
3.97620544
3.976095903
3.985399625
3.9868988
3.986427005
3.986691536
3.986079844
3.996332414
3.996131799
3.996437323
3.997573749
3.996367146
4.006485793
4.00604832
4.007077976
4.007286573
4.006280657
4.017051207
4.017534776
4.016119385
4.015692753
4.016390204
4.027021206
4.025997334
4.026504842
4.026544952
4.026439898
4.035886233
4.035957944
4.036304208
4.037080466
4.037236927
4.045911501
4.045095175
4.046706577
4.045455212
4.045943621
4.055485751
4.055802286
4.056840166
4.056486152
4.054534852
4.066148589
4.06477078
4.066291277
4.065440712
4.065029325
4.076257052
4.076025836
4.076495087
4.075458179
4.076695683
4.086280977
4.084990988
4.08438044
4.085694325
4.085022151
4.094446026
4.095651068
4.09557311
4.09472623
4.095196341
4.104733128
4.104572332
4.106072975
4.104728712
4.104881057
4.11463784
4.113879869
4.114503739
4.114377634
4.115192087
4.125194201
4.124188671
4.12462827
4.123622622
4.123830036
4.133512226
4.131591758
4.133138559
4.133857136
4.133118687
4.143209639
4.142914894
4.142417219
4.142876683
4.143075091
4.152462324
4.152220322
4.152712062
4.152871271
4.152963284
4.16270568
4.161914919
4.162487666
4.16138323
4.160580724
4.172084763
4.172073817
4.171291016
4.171639298
4.172258011
4.181090284
4.180503023
4.181287415
4.182214323
4.182262657
4.190666527
4.189583206
4.191933777
4.19144179
4.19025453
4.200389582
4.199015956
4.200087514
4.199984849
4.2001355
4.20984606
4.208898598
4.20787618
4.207938839
4.208914531
4.218433132
4.218237119
4.218256998
4.218355967
4.218739951
4.228111663
4.228882276
4.228420951
4.22804979
4.22791937
4.23583539
4.236522826
4.237780977
4.23662252
4.236992312
4.245356444
4.245661365
4.248092009
4.246518251
4.245912932
4.255884349
4.254492878
4.255349473
4.255441461
4.255533575
4.264633577
4.26400515
4.262383527
4.263601441
4.264220889
4.273572892
4.273497424
4.27262229
4.271529633
4.271472439
4.281674716
4.28254784
4.281116787
4.281799682
4.281902486
4.291499385
4.29117826
4.290769976
4.290328102
4.290765587
4.300599031
4.298759862
4.300645791
4.29875248
4.298031484
4.308986459
4.309208194
4.307808176
4.307257286
4.308469802
4.31848629
4.316659871
4.318192939
4.316631832
4.316530089
4.326690872
4.32746182
4.327328375
4.324647722
4.326535373
4.335174312
4.334765876
4.336218411
4.336193924
4.3337843
4.343776415
4.34291666
4.344476661
4.343627391
4.343737974
4.353320031
4.35182252
4.353472602
4.353138397
4.352939349
4.360576913
4.361474918
4.361171144
4.361910576
4.360794127
4.37009811
4.369744339
4.37028913
4.36995619
4.370569079
4.379013995
4.37946303
4.380068725
4.379825638
4.379179589
4.388432228
4.388575506
4.386973827
4.38753521
4.388651152
4.397854191
4.396931507
4.397226724
4.396900049
4.397204915
4.407022007
4.405763066
4.406685453
4.405644914
4.406536521
4.413837619
4.414344007
4.41369746
4.41600491
4.415034205
4.422631586
4.422556245
4.422401597
4.423587779
4.422347998
4.431029697
4.432214064
4.432323103
4.432471557
4.432112492
4.441667261
4.439149229
4.440850194
4.440073131
4.442837604
4.448761543
4.447979673
4.449008743
4.447847226
4.451197765
4.457602816
4.458088097
4.457985322
4.458454388
4.458583109
4.465592112
4.467659758
4.467234471
4.466727808
4.466423574
4.475761792
4.476190743
4.476280401
4.474438311
4.475987143
4.485063389
4.484032134
4.484778555
4.485117035
4.484585684
4.493982225
4.492681479
4.493603229
4.494396882
4.493631321
4.502450051
4.502039778
4.501574103
4.501503097
4.502032878
4.511014437
4.511751107
4.510580637
4.511023744
4.510286649
4.522303911
4.521459159
4.521565037
4.522564822
4.520604318
4.531780314
4.532075227
4.532647555
4.531093956
4.531002542
4.543953897
4.542380095
4.542067931
4.542543299
4.540339087
4.556433868
4.55515007
4.555383572
4.554879024
4.556095711
)
;

boundaryField
{
    upperWall
    {
        type            calculated;
        value           nonuniform List<scalar> 5(4.556433868 4.55515007 4.555383572 4.554879024 4.556095711);
    }
    lowerWall
    {
        type            calculated;
        value           nonuniform List<scalar> 5(3.557699681 3.559526926 3.557405548 3.558035449 3.558152586);
    }
    periodicX_half0
    {
        type            cyclic;
    }
    periodicX_half1
    {
        type            cyclic;
    }
    frontAndBack
    {
        type            empty;
    }
}


// ************************************************************************* //
