/*--------------------------------*- C++ -*----------------------------------*\
| =========                 |                                                 |
| \\      /  F ield         | OpenFOAM: The Open Source CFD Toolbox           |
|  \\    /   O peration     | Version:  v1706                                 |
|   \\  /    A nd           | Web:      www.OpenFOAM.com                      |
|    \\/     M anipulation  |                                                 |
\*---------------------------------------------------------------------------*/
FoamFile
{
    version     2.0;
    format      ascii;
    class       volScalarField;
    location    "8";
    object      meanCollisionTime_O2;
}
// * * * * * * * * * * * * * * * * * * * * * * * * * * * * * * * * * * * * * //

dimensions      [0 0 1 0 0 0 0];


internalField   nonuniform List<scalar> 
500
(
0.0001944413612
0.0001945607371
0.0001945053229
0.0001944970468
0.0001944288392
0.0001954497904
0.0001953212318
0.0001955767337
0.0001953672907
0.0001955005311
0.0001962805678
0.0001962448698
0.0001962181245
0.000196155094
0.0001963862281
0.0001969889215
0.0001971747892
0.0001970890595
0.0001970321919
0.0001970352585
0.0001977507351
0.0001978205516
0.0001978567526
0.00019770653
0.0001977634576
0.0001984919144
0.0001985908928
0.0001984711477
0.0001985262277
0.0001984652079
0.0001990775087
0.0001990814352
0.0001992452421
0.0001991298886
0.0001992635384
0.0001998940962
0.000199822842
0.0001998681751
0.0001998480131
0.0001998264835
0.0002005591831
0.0002005496163
0.0002006298478
0.0002004989848
0.0002005155698
0.0002012432409
0.0002012707453
0.0002013329339
0.0002012003342
0.0002011454936
0.0002018646836
0.0002019229044
0.0002019243366
0.0002019276201
0.0002018821792
0.0002024712256
0.0002026153183
0.0002025140235
0.0002025481014
0.0002026112321
0.0002030597237
0.0002032098734
0.0002032045764
0.0002031321229
0.0002031946685
0.0002039160206
0.0002037342682
0.0002038326376
0.0002038168346
0.0002039001539
0.000204494783
0.0002044407265
0.0002044877136
0.0002045748025
0.0002044752036
0.0002051321615
0.0002052515097
0.000205113806
0.0002052543908
0.0002052291001
0.0002058305803
0.0002056949811
0.0002057763425
0.0002057897531
0.000205742451
0.0002064212694
0.0002063120962
0.0002063647894
0.0002064686232
0.0002063609472
0.0002070690504
0.0002070246869
0.0002070438919
0.0002070595148
0.0002070561215
0.0002076299778
0.0002076099295
0.0002076969186
0.0002076447377
0.0002077066382
0.0002083482683
0.0002083611855
0.000208244594
0.0002082844571
0.0002082311639
0.0002089686315
0.0002089967777
0.0002089879313
0.0002090873677
0.0002090365519
0.0002096121934
0.0002096031556
0.0002096101842
0.0002096572239
0.0002097617777
0.0002102191296
0.0002101505272
0.0002101870991
0.0002102087293
0.0002103057268
0.0002107872867
0.0002109040964
0.0002107515226
0.0002108610563
0.0002108113438
0.0002115896811
0.000211596717
0.0002115349413
0.0002116514994
0.0002115172995
0.0002120909112
0.0002121936302
0.0002121885794
0.0002121433638
0.0002121756939
0.0002127186265
0.00021279987
0.0002127949833
0.0002128339907
0.0002127714652
0.0002133241798
0.0002133552038
0.0002135749833
0.0002133367557
0.0002132403783
0.0002139415447
0.0002139758138
0.0002140768442
0.0002138465651
0.0002139024983
0.000214584066
0.0002145911874
0.000214570574
0.000214623539
0.0002143988615
0.0002150959111
0.000215090112
0.0002150014984
0.0002152376287
0.0002151792026
0.0002158210044
0.0002158260131
0.0002157617337
0.0002158577041
0.0002156227998
0.000216363007
0.0002164471198
0.0002163668821
0.0002164434631
0.000216279284
0.0002171394938
0.0002170482269
0.0002169265227
0.0002169505306
0.0002169398818
0.0002175791273
0.0002174718382
0.0002176747342
0.0002175422214
0.0002174802955
0.0002181045864
0.0002180393723
0.0002181639644
0.0002180818641
0.0002179563642
0.000218820129
0.0002187828873
0.0002185911942
0.0002187210119
0.0002187640335
0.0002193163012
0.0002192928271
0.0002193266485
0.0002192194122
0.0002192866465
0.0002198089072
0.0002197935455
0.0002197905507
0.0002198394104
0.000219786942
0.0002204238579
0.0002205863778
0.0002205088385
0.0002205398069
0.0002204321267
0.0002212129704
0.0002211481561
0.000221038389
0.0002211787653
0.0002212244066
0.0002216145468
0.000221706746
0.0002216722206
0.0002217463909
0.000221712559
0.0002221492513
0.000222264687
0.0002223316692
0.0002224045219
0.0002223542878
0.0002228465954
0.0002228277542
0.0002228042036
0.0002228147966
0.0002228842382
0.0002234662634
0.0002234809834
0.0002234386047
0.0002234619523
0.0002233908078
0.0002240531996
0.0002239293056
0.0002240321338
0.0002239591771
0.0002239992413
0.0002245362961
0.0002245960246
0.0002245937478
0.0002245206617
0.0002246702801
0.0002250737417
0.0002249933326
0.0002250376809
0.0002252336811
0.0002249653074
0.0002255835594
0.0002256947138
0.0002256787031
0.000225611125
0.0002255909333
0.0002262251931
0.0002260537669
0.0002262140906
0.000226134353
0.0002262760917
0.0002267061868
0.0002268153661
0.000226620603
0.0002266821826
0.0002266472569
0.000227221375
0.0002272282144
0.0002272293355
0.0002273346058
0.0002272565762
0.000227770108
0.0002276835408
0.0002278683484
0.0002279690725
0.0002278178656
0.0002284899688
0.0002284855485
0.0002284553141
0.0002283304236
0.000228429867
0.0002288952919
0.0002291061562
0.0002290827033
0.0002289296357
0.0002289031436
0.0002295054772
0.0002294763141
0.0002294794125
0.0002295773437
0.00022935715
0.0002300508773
0.000230080884
0.0002300105033
0.0002300207417
0.0002299974831
0.0002305823945
0.0002305401655
0.0002305915557
0.0002305588052
0.0002306530386
0.0002311721798
0.000231103756
0.0002313236518
0.0002313770081
0.0002311337919
0.0002317296987
0.0002316497448
0.0002316040067
0.0002316214582
0.0002317403208
0.0002321987082
0.0002322547663
0.000232081389
0.0002321284209
0.0002321009162
0.0002327182053
0.0002326980467
0.0002327477181
0.000232828357
0.000232775844
0.0002333872839
0.0002333472279
0.0002333671302
0.0002333704813
0.0002332674732
0.0002337866085
0.0002336934709
0.0002339610334
0.0002338492434
0.0002338386962
0.0002343076375
0.000234415062
0.0002344554115
0.0002343048829
0.0002344270013
0.000235006205
0.0002348942046
0.0002348921561
0.0002348571613
0.0002348546248
0.0002355186116
0.0002354767747
0.0002353057785
0.0002355213611
0.0002354184354
0.0002360478356
0.0002359638813
0.0002359511111
0.0002358639467
0.0002358706702
0.0002363774121
0.0002364090333
0.0002365273484
0.0002363601087
0.0002364770344
0.0002368699669
0.0002369478693
0.0002369936145
0.0002369882125
0.0002368655355
0.000237484601
0.0002373991078
0.0002375912657
0.000237304079
0.0002373937094
0.0002379201056
0.0002379997375
0.0002378695261
0.0002378629542
0.0002378042359
0.0002385003002
0.000238411324
0.0002383716896
0.0002383645412
0.0002383092957
0.0002391488106
0.0002390335097
0.0002389706531
0.0002387963298
0.000238997712
0.0002396334784
0.0002396588455
0.0002395396404
0.0002394752677
0.0002393816235
0.0002399925658
0.000240083637
0.0002401940403
0.0002402330121
0.0002400063772
0.0002405367317
0.0002406498507
0.0002406403865
0.0002405368347
0.000240497467
0.000241190165
0.0002410767258
0.0002410522548
0.0002411241355
0.0002410028779
0.0002416162817
0.000241539551
0.0002414325014
0.0002414108399
0.0002414544972
0.0002421583233
0.0002421914857
0.0002419669675
0.0002420462525
0.0002419437569
0.0002425461285
0.0002427156036
0.0002424286165
0.0002426518099
0.0002427197475
0.0002431627912
0.0002430985807
0.0002432304152
0.0002432213726
0.0002431114672
0.0002437658725
0.0002436548926
0.0002437635857
0.000243630149
0.0002436511437
0.0002439162454
0.0002440976612
0.0002439801568
0.0002440967814
0.0002441762231
0.0002446322046
0.0002446811269
0.0002447741922
0.0002445850739
0.0002447026593
0.0002452119162
0.0002452883716
0.0002450897127
0.0002451854574
0.0002452031994
0.0002456301803
0.0002455886456
0.0002455384044
0.0002456851851
0.0002458226367
0.0002461021414
0.0002459514593
0.0002459347237
0.0002461099152
0.0002461251552
0.0002465553251
0.0002466095436
0.0002465591452
0.0002465923105
0.0002467739548
0.000246971805
0.0002470638346
0.0002471076923
0.0002471552994
0.0002471465333
0.000247688758
0.0002475056976
0.0002475954534
0.0002476627853
0.0002477027645
0.0002479552146
0.0002480850468
0.0002482637974
0.0002482333913
0.0002481485135
0.0002487048963
0.0002486649111
0.0002487383945
0.0002487485031
0.0002487500301
0.0002493305337
0.0002492719669
0.0002493553954
0.0002491849487
0.0002492744164
0.0002497615387
0.0002498070197
0.0002498179922
0.0002498177051
0.0002498326898
0.0002504522152
0.000250423012
0.0002503197471
0.0002504208332
0.000250423354
0.0002509299013
0.0002510215859
0.0002509295344
0.0002510463599
0.0002509290646
0.0002513484569
0.0002515523207
0.0002514322287
0.0002515409443
0.0002514067423
0.0002521741067
0.0002522712378
0.000252366981
0.0002521194489
0.0002522713291
)
;

boundaryField
{
    upperWall
    {
        type            calculated;
        value           nonuniform List<scalar> 5(0.0002521741067 0.0002522712378 0.000252366981 0.0002521194489 0.0002522713291);
    }
    lowerWall
    {
        type            calculated;
        value           nonuniform List<scalar> 5(0.0001944413612 0.0001945607371 0.0001945053229 0.0001944970468 0.0001944288392);
    }
    periodicX_half0
    {
        type            cyclic;
    }
    periodicX_half1
    {
        type            cyclic;
    }
    frontAndBack
    {
        type            empty;
    }
}


// ************************************************************************* //
