/*--------------------------------*- C++ -*----------------------------------*\
| =========                 |                                                 |
| \\      /  F ield         | OpenFOAM: The Open Source CFD Toolbox           |
|  \\    /   O peration     | Version:  v1706                                 |
|   \\  /    A nd           | Web:      www.OpenFOAM.com                      |
|    \\/     M anipulation  |                                                 |
\*---------------------------------------------------------------------------*/
FoamFile
{
    version     2.0;
    format      ascii;
    class       volScalarField;
    location    "8";
    object      p_N2;
}
// * * * * * * * * * * * * * * * * * * * * * * * * * * * * * * * * * * * * * //

dimensions      [1 -1 -2 0 0 0 0];


internalField   nonuniform List<scalar> 
500
(
1.107393469
1.107035074
1.107698507
1.107654241
1.107274219
1.107479245
1.107801849
1.108087527
1.108314663
1.10792794
1.108876347
1.108602437
1.108723203
1.108496923
1.108470199
1.109229251
1.108818093
1.109629076
1.109065708
1.109103872
1.109330713
1.109340528
1.109590496
1.109653093
1.109201529
1.110222849
1.109507427
1.109873931
1.109781997
1.109563091
1.10984193
1.110172092
1.109965418
1.110197884
1.109957682
1.110624606
1.110737355
1.110702766
1.11053922
1.110455862
1.110542435
1.110568026
1.11058861
1.110869312
1.110327241
1.111219948
1.110700239
1.110901502
1.110439873
1.110699676
1.110583313
1.110922705
1.111276097
1.110818288
1.11088704
1.111416241
1.110998413
1.111442719
1.110729479
1.111107547
1.111145827
1.111275483
1.111046544
1.111543737
1.111129383
1.11127292
1.111298848
1.111434484
1.111732122
1.111550242
1.111612718
1.111326934
1.111565232
1.111403183
1.111501087
1.111648885
1.111574468
1.111416991
1.111517245
1.111365771
1.11155876
1.111357385
1.111617221
1.111436855
1.111558173
1.11162176
1.111698753
1.111461626
1.111577344
1.112016761
1.11195323
1.111616167
1.11137572
1.11192113
1.111635256
1.111999927
1.111954074
1.111695909
1.111437823
1.111425863
1.111652828
1.111666158
1.111791004
1.11141146
1.111358979
1.111729857
1.111613907
1.112238215
1.111809958
1.111615434
1.111600779
1.111749262
1.111675994
1.111497624
1.111937278
1.112237492
1.111554945
1.111772242
1.112035628
1.111713133
1.111755834
1.11185913
1.111972244
1.111495683
1.11162045
1.112208466
1.112467268
1.112187507
1.112084489
1.111952197
1.11214244
1.11210999
1.112431615
1.112027425
1.11217154
1.112034875
1.112452319
1.112136559
1.111845653
1.112085871
1.112045711
1.111688818
1.11208559
1.112164919
1.111951488
1.111977419
1.11208839
1.1116608
1.112608163
1.111489382
1.111972645
1.111604917
1.112337765
1.112200009
1.112177612
1.112108627
1.112444588
1.112448118
1.112133148
1.112488488
1.111743564
1.112214788
1.112229151
1.112160761
1.112691833
1.112212989
1.112801787
1.112615027
1.112279784
1.112430075
1.112215799
1.112159154
1.112436578
1.112059024
1.112668521
1.112058271
1.112001124
1.111894033
1.112181731
1.112386903
1.112673452
1.111907344
1.111990209
1.11216881
1.111777772
1.112178313
1.112233667
1.112031672
1.112401869
1.112145825
1.112728107
1.112067355
1.112168182
1.112422069
1.112392136
1.112307383
1.112381371
1.112254528
1.111867768
1.112251182
1.112201733
1.112796683
1.112125586
1.112158146
1.112467338
1.112109927
1.112067324
1.112459886
1.112891635
1.112901182
1.112049426
1.11271305
1.112382676
1.112639668
1.112754149
1.11265538
1.112819519
1.1126506
1.112345224
1.112380965
1.112443965
1.112923249
1.112385369
1.112570859
1.112510741
1.112976958
1.112681108
1.112316395
1.112437393
1.1129922
1.112446179
1.112709468
1.11242775
1.112652741
1.112622561
1.112446213
1.1124301
1.112114438
1.112358257
1.112401063
1.11211094
1.112437247
1.112751835
1.112504751
1.112553176
1.112529629
1.1124017
1.112836626
1.112587308
1.112455134
1.11238632
1.112704132
1.112381847
1.112320982
1.112713282
1.112484974
1.113010846
1.112527509
1.112531494
1.112321168
1.1122511
1.112666401
1.112477909
1.1126956
1.11263735
1.112598662
1.11318284
1.112708751
1.112419391
1.112807276
1.11274938
1.112621292
1.113062275
1.112617697
1.112773273
1.112817249
1.113118924
1.112870944
1.112581891
1.112523152
1.112473221
1.112719885
1.112384982
1.112912244
1.112987466
1.112571865
1.112602563
1.112770483
1.112496413
1.112305352
1.112636939
1.112900633
1.112513123
1.112047245
1.112553359
1.11275902
1.112832985
1.112200998
1.112558007
1.11258026
1.112608781
1.112884978
1.112551491
1.112499869
1.112543236
1.112331503
1.112794398
1.112825917
1.113036087
1.112449347
1.11259605
1.112627489
1.112524538
1.112901261
1.112578303
1.112577236
1.112591588
1.112477556
1.112614876
1.112561685
1.112884915
1.112624207
1.112566236
1.11276226
1.112680112
1.112572071
1.112605159
1.112083566
1.112367042
1.112687943
1.112556929
1.112791655
1.11268775
1.112551068
1.11274653
1.11280655
1.112900548
1.113320985
1.11309383
1.112689926
1.112648864
1.113020629
1.113131785
1.113055592
1.113340215
1.112840287
1.112609264
1.113330945
1.112903481
1.112751877
1.112549423
1.11267728
1.113131202
1.113251721
1.112923228
1.112777834
1.113150375
1.112815364
1.11323414
1.11359043
1.113027984
1.112906196
1.113088146
1.113400028
1.113089191
1.11284365
1.113286944
1.112882309
1.113193809
1.113321313
1.113093967
1.112820347
1.112807931
1.11334547
1.113105307
1.113332041
1.1134094
1.112681995
1.112762595
1.113634768
1.11329615
1.113468536
1.113065202
1.11349651
1.113367679
1.113151036
1.113665627
1.113309089
1.1131162
1.113204118
1.113516918
1.113090386
1.113300196
1.112970673
1.113379451
1.113437485
1.113522305
1.113305884
1.113311931
1.113173931
1.113627944
1.113623025
1.113158987
1.112955758
1.112961414
1.1132565
1.113518086
1.113704466
1.113643497
1.113298665
1.113280895
1.113546982
1.11349145
1.113799184
1.113375567
1.113093878
1.113330189
1.113260915
1.113414256
1.113478418
1.113472032
1.113646542
1.113507865
1.113031098
1.113393968
1.113751714
1.11385795
1.11411067
1.113340597
1.113962159
1.114229441
1.113802798
1.113611683
1.113707869
1.113579241
1.113364078
1.114256115
1.113727443
1.113946544
1.113464986
1.113917743
1.114209528
1.1134937
1.114251603
1.11328264
1.11398006
1.113918223
1.11424643
1.113666229
1.113940338
1.11444109
1.113698179
1.114211597
1.114023775
1.114099258
1.114393033
1.114176424
1.113897923
1.114743331
1.114090419
1.114229072
1.114658912
1.114526135
1.114321207
1.1143682
1.114394308
1.114900484
1.114554084
1.114207825
1.114551616
1.115008613
1.115117221
1.115276085
1.115014919
1.114722244
1.115082559
1.115044226
1.115506844
1.115130166
1.115679872
1.115082829
1.115126931
1.115366417
1.114743984
1.115545735
1.115458432
1.115309958
1.114980099
1.115893824
1.115677454
1.114923464
1.115952702
1.115893221
1.115968614
1.11641825
1.116116462
1.116284053
1.116415847
1.116415861
1.115945859
)
;

boundaryField
{
    upperWall
    {
        type            calculated;
        value           nonuniform List<scalar> 5(1.112473438 1.113290556 1.112481032 1.112596816 1.112600871);
    }
    lowerWall
    {
        type            calculated;
        value           nonuniform List<scalar> 5(1.11071271 1.110673516 1.110926692 1.11130233 1.111448967);
    }
    periodicX_half0
    {
        type            cyclic;
    }
    periodicX_half1
    {
        type            cyclic;
    }
    frontAndBack
    {
        type            empty;
    }
}


// ************************************************************************* //
