/*--------------------------------*- C++ -*----------------------------------*\
| =========                 |                                                 |
| \\      /  F ield         | OpenFOAM: The Open Source CFD Toolbox           |
|  \\    /   O peration     | Version:  v1706                                 |
|   \\  /    A nd           | Web:      www.OpenFOAM.com                      |
|    \\/     M anipulation  |                                                 |
\*---------------------------------------------------------------------------*/
FoamFile
{
    version     2.0;
    format      ascii;
    class       volScalarField;
    location    "8";
    object      rhoM_O2;
}
// * * * * * * * * * * * * * * * * * * * * * * * * * * * * * * * * * * * * * //

dimensions      [1 -3 0 0 0 0 0];


internalField   nonuniform List<scalar> 
500
(
5.476178472e-07
5.473367161e-07
5.474587526e-07
5.475230111e-07
5.477051531e-07
5.439557944e-07
5.442963009e-07
5.436284318e-07
5.441253403e-07
5.43800579e-07
5.409093093e-07
5.409575033e-07
5.410343579e-07
5.412253537e-07
5.406653277e-07
5.382990339e-07
5.377825467e-07
5.380244747e-07
5.380940272e-07
5.381572818e-07
5.355985318e-07
5.354110958e-07
5.352794297e-07
5.356642964e-07
5.35536829e-07
5.33036998e-07
5.326932056e-07
5.329643876e-07
5.328760321e-07
5.330575808e-07
5.308100376e-07
5.308107678e-07
5.30336861e-07
5.306458314e-07
5.302747474e-07
5.281335412e-07
5.282885741e-07
5.281559039e-07
5.281931446e-07
5.282474541e-07
5.258529103e-07
5.258053553e-07
5.256248107e-07
5.259720716e-07
5.259722998e-07
5.234424845e-07
5.233618874e-07
5.232243796e-07
5.235453073e-07
5.237599892e-07
5.212674147e-07
5.211744041e-07
5.211770967e-07
5.211683798e-07
5.213158368e-07
5.192319064e-07
5.18898337e-07
5.191255695e-07
5.190700278e-07
5.189051827e-07
5.172363772e-07
5.169012561e-07
5.169231624e-07
5.170645495e-07
5.169095623e-07
5.146403866e-07
5.151732122e-07
5.147887106e-07
5.148385019e-07
5.146183433e-07
5.126450855e-07
5.127755194e-07
5.126275148e-07
5.124255659e-07
5.127040501e-07
5.105894965e-07
5.10299329e-07
5.106172445e-07
5.102989182e-07
5.103226501e-07
5.08348799e-07
5.08708656e-07
5.085010936e-07
5.085205811e-07
5.085658542e-07
5.064806003e-07
5.066838271e-07
5.065841533e-07
5.063032047e-07
5.066178343e-07
5.043241966e-07
5.044781798e-07
5.044228663e-07
5.04361985e-07
5.044036983e-07
5.025435319e-07
5.026315223e-07
5.023910091e-07
5.025612851e-07
5.024156081e-07
5.004320817e-07
5.003739843e-07
5.006382294e-07
5.005673533e-07
5.006456684e-07
4.984693664e-07
4.984001333e-07
4.984369633e-07
4.981729921e-07
4.983128274e-07
4.964947394e-07
4.965363615e-07
4.965383695e-07
4.963959328e-07
4.961679245e-07
4.9463042e-07
4.948164412e-07
4.947173607e-07
4.946499988e-07
4.943982586e-07
4.928173066e-07
4.925970111e-07
4.929681407e-07
4.926738202e-07
4.92843868e-07
4.905402355e-07
4.905485873e-07
4.906400918e-07
4.904257749e-07
4.907926146e-07
4.889233662e-07
4.887299516e-07
4.887082735e-07
4.88902327e-07
4.888099097e-07
4.870993909e-07
4.86959373e-07
4.869113616e-07
4.868638979e-07
4.870159643e-07
4.853459266e-07
4.852979609e-07
4.847608452e-07
4.852944467e-07
4.855353707e-07
4.835863924e-07
4.834896851e-07
4.832316012e-07
4.837202492e-07
4.835999926e-07
4.816772106e-07
4.816861101e-07
4.817462612e-07
4.816234945e-07
4.821008242e-07
4.801724743e-07
4.801950652e-07
4.803598191e-07
4.798805726e-07
4.799848102e-07
4.781380158e-07
4.781245525e-07
4.783110301e-07
4.780438642e-07
4.785566548e-07
4.766053033e-07
4.763295118e-07
4.765591631e-07
4.764123451e-07
4.766984508e-07
4.744344322e-07
4.746267059e-07
4.749221218e-07
4.749056008e-07
4.74960184e-07
4.731531861e-07
4.733887247e-07
4.729727328e-07
4.732919262e-07
4.733724319e-07
4.716486324e-07
4.718090049e-07
4.715055111e-07
4.716513251e-07
4.719238762e-07
4.697335633e-07
4.6975693e-07
4.701805892e-07
4.699691476e-07
4.698571515e-07
4.683469843e-07
4.683043126e-07
4.682519199e-07
4.684943043e-07
4.683927137e-07
4.66848044e-07
4.66873145e-07
4.669434735e-07
4.66849687e-07
4.669701718e-07
4.652284365e-07
4.649349374e-07
4.650569282e-07
4.649471228e-07
4.652120067e-07
4.632212696e-07
4.63286806e-07
4.635013054e-07
4.63245047e-07
4.632210414e-07
4.62090675e-07
4.618497968e-07
4.618778186e-07
4.616995102e-07
4.61814701e-07
4.60556274e-07
4.603484834e-07
4.602221112e-07
4.600359988e-07
4.6013549e-07
4.587608225e-07
4.588172769e-07
4.588517338e-07
4.587848738e-07
4.58741335e-07
4.571767215e-07
4.571311289e-07
4.572658528e-07
4.571597441e-07
4.57292186e-07
4.555949023e-07
4.558446344e-07
4.556545058e-07
4.557866283e-07
4.556979533e-07
4.542931647e-07
4.541493131e-07
4.542303665e-07
4.543027487e-07
4.540656584e-07
4.528924834e-07
4.530468317e-07
4.529616709e-07
4.525609677e-07
4.531089909e-07
4.516032506e-07
4.513336659e-07
4.513440258e-07
4.514820813e-07
4.514837699e-07
4.499188369e-07
4.502346987e-07
4.499772994e-07
4.500929009e-07
4.498056998e-07
4.486204308e-07
4.484150134e-07
4.487776999e-07
4.486533359e-07
4.487260832e-07
4.472663918e-07
4.473072379e-07
4.47217422e-07
4.470966634e-07
4.47161926e-07
4.45836137e-07
4.460393638e-07
4.456393452e-07
4.454673349e-07
4.457898599e-07
4.441535488e-07
4.441626308e-07
4.442271175e-07
4.443855276e-07
4.442808336e-07
4.430804583e-07
4.425843714e-07
4.426927621e-07
4.429141528e-07
4.430407075e-07
4.415413565e-07
4.415652709e-07
4.415924257e-07
4.413878754e-07
4.418358597e-07
4.402167541e-07
4.400846773e-07
4.402487009e-07
4.40225471e-07
4.403239126e-07
4.388537244e-07
4.389996297e-07
4.389001384e-07
4.389181199e-07
4.387864537e-07
4.37483712e-07
4.376241863e-07
4.372128038e-07
4.371344431e-07
4.375715199e-07
4.360915195e-07
4.363300702e-07
4.36400992e-07
4.363137774e-07
4.360813878e-07
4.349156519e-07
4.348732084e-07
4.351569866e-07
4.35070411e-07
4.351542483e-07
4.33634132e-07
4.337042322e-07
4.335954308e-07
4.334932013e-07
4.335414865e-07
4.321544967e-07
4.322656713e-07
4.321575088e-07
4.321664995e-07
4.323577235e-07
4.31065798e-07
4.313309102e-07
4.308174807e-07
4.310144095e-07
4.310061489e-07
4.298831304e-07
4.296316184e-07
4.296435299e-07
4.299322827e-07
4.295878514e-07
4.282883956e-07
4.284763336e-07
4.285514541e-07
4.285873713e-07
4.28569116e-07
4.271107025e-07
4.271773342e-07
4.274813758e-07
4.27067757e-07
4.273249737e-07
4.258964989e-07
4.260337329e-07
4.261085338e-07
4.261860274e-07
4.262285166e-07
4.24994506e-07
4.249230822e-07
4.247586935e-07
4.249614639e-07
4.248190272e-07
4.238741344e-07
4.236922207e-07
4.236580833e-07
4.236568967e-07
4.238330144e-07
4.224384943e-07
4.226101852e-07
4.222942777e-07
4.227581441e-07
4.226441856e-07
4.214120462e-07
4.213065307e-07
4.214811423e-07
4.215043265e-07
4.2164188e-07
4.201413424e-07
4.202998895e-07
4.2042293e-07
4.20355705e-07
4.204837657e-07
4.187363712e-07
4.189333456e-07
4.190579378e-07
4.193434959e-07
4.19024987e-07
4.175902597e-07
4.175157782e-07
4.177700741e-07
4.179056652e-07
4.180234117e-07
4.166851178e-07
4.165382998e-07
4.164216943e-07
4.162837301e-07
4.167449951e-07
4.154861117e-07
4.153063885e-07
4.153059322e-07
4.154930943e-07
4.15584964e-07
4.141715953e-07
4.143264913e-07
4.143332457e-07
4.142338458e-07
4.144336041e-07
4.131082715e-07
4.13270287e-07
4.13402729e-07
4.135150902e-07
4.134259588e-07
4.119455933e-07
4.11899727e-07
4.122351219e-07
4.121274158e-07
4.123453838e-07
4.110425508e-07
4.107589095e-07
4.112811471e-07
4.108459872e-07
4.107134995e-07
4.09722284e-07
4.098445943e-07
4.096107443e-07
4.096180008e-07
4.098147469e-07
4.084358808e-07
4.086406136e-07
4.084415399e-07
4.086932801e-07
4.085895445e-07
4.079330394e-07
4.075698964e-07
4.078375187e-07
4.076663299e-07
4.075121185e-07
4.065156546e-07
4.064472886e-07
4.062573425e-07
4.065559531e-07
4.064201339e-07
4.053185652e-07
4.051427213e-07
4.055063207e-07
4.053046912e-07
4.052413911e-07
4.043511728e-07
4.044212731e-07
4.04507803e-07
4.042427822e-07
4.040210719e-07
4.033331677e-07
4.035514551e-07
4.035995121e-07
4.033019055e-07
4.03215695e-07
4.02350304e-07
4.022540987e-07
4.023201828e-07
4.022326031e-07
4.019755689e-07
4.013776632e-07
4.011742538e-07
4.011772203e-07
4.010317258e-07
4.010939306e-07
3.9997041e-07
4.00284492e-07
4.000934049e-07
4.000310632e-07
3.999565817e-07
3.992361831e-07
3.991221789e-07
3.987598575e-07
3.987983761e-07
3.989393524e-07
3.978168815e-07
3.978470483e-07
3.977324509e-07
3.976992719e-07
3.977816032e-07
3.965985248e-07
3.966861044e-07
3.965122686e-07
3.968022992e-07
3.966767942e-07
3.955666913e-07
3.955376197e-07
3.955090502e-07
3.955614885e-07
3.955374828e-07
3.941914305e-07
3.942974023e-07
3.944485103e-07
3.942912412e-07
3.943010534e-07
3.931971116e-07
3.930265617e-07
3.931694548e-07
3.929666388e-07
3.931782174e-07
3.922051202e-07
3.918942786e-07
3.920546968e-07
3.919115755e-07
3.921186359e-07
3.905140889e-07
3.904115399e-07
3.902505284e-07
3.906466678e-07
3.903636198e-07
)
;

boundaryField
{
    upperWall
    {
        type            calculated;
        value           nonuniform List<scalar> 5(3.894311166e-07 3.892856087e-07 3.89363608e-07 3.892867593e-07 3.887272914e-07);
    }
    lowerWall
    {
        type            calculated;
        value           nonuniform List<scalar> 5(5.509050804e-07 5.583164526e-07 5.498467654e-07 5.499107415e-07 5.507141676e-07);
    }
    periodicX_half0
    {
        type            cyclic;
    }
    periodicX_half1
    {
        type            cyclic;
    }
    frontAndBack
    {
        type            empty;
    }
}


// ************************************************************************* //
