/*--------------------------------*- C++ -*----------------------------------*\
| =========                 |                                                 |
| \\      /  F ield         | OpenFOAM: The Open Source CFD Toolbox           |
|  \\    /   O peration     | Version:  v1706                                 |
|   \\  /    A nd           | Web:      www.OpenFOAM.com                      |
|    \\/     M anipulation  |                                                 |
\*---------------------------------------------------------------------------*/
FoamFile
{
    version     2.0;
    format      ascii;
    class       volScalarField;
    location    "0.26";
    object      dsmcRhoNMean_Ar;
}
// * * * * * * * * * * * * * * * * * * * * * * * * * * * * * * * * * * * * * //

dimensions      [0 -3 0 0 0 0 0];


internalField   nonuniform List<scalar> 
1000
(
97.26364078
97.15932039
97.29582524
97.18485437
97.39820388
97.32218447
97.29495146
97.41451456
97.3192233
97.42631068
97.615
97.53796117
97.46898058
97.37941748
97.37339806
97.74325243
97.46679612
97.42825243
97.38199029
97.43601942
97.53980583
97.465
97.33038835
97.34383495
97.33004854
97.29101942
97.23300971
97.44747573
97.54572816
97.43427184
97.24368932
97.39713592
97.44529126
97.51262136
97.40509709
97.33126214
97.50781553
97.20669903
97.30441748
97.1965534
97.32728155
97.32456311
97.19417476
97.33058252
97.21635922
97.20898058
97.25533981
97.25451456
97.30106796
97.39276699
97.21305825
97.22970874
97.12524272
97.31597087
97.35825243
97.40446602
97.23213592
97.16281553
97.10043689
97.04665049
97.1673301
97.23839806
97.12019417
97.39339806
97.1034466
97.17708738
97.41917476
97.35247573
97.12203883
97.17218447
97.0861165
96.97995146
97.07752427
96.97660194
96.86742718
96.93893204
97.12805825
97.34247573
97.04213592
97.00936893
97.13669903
97.08393204
97.19849515
97.00601942
96.8707767
97.02029126
97.10174757
97.1626699
96.92203883
96.97014563
97.03946602
97.08029126
97.14218447
97.20529126
96.79694175
96.87728155
97.04262136
96.90834951
96.85771845
97.10475728
97.02446602
97.10131068
96.97694175
96.94281553
97.17864078
97.08135922
97.03330097
97.06383495
96.93121359
97.04893204
97.21776699
97.22456311
97.17140777
97.17873786
97.03718447
96.95393204
96.89786408
97.15174757
97.06621359
96.96208738
96.94490291
96.97728155
97.09058252
97.25101942
97.12859223
97.09485437
96.9973301
96.95820388
96.96281553
97.11781553
97.07941748
97.10635922
97.00436893
97.04131068
97.04951456
96.97762136
96.89485437
97.35796117
97.13019417
97.04907767
97.24053398
97.26228155
97.18970874
97.19126214
97.13029126
97.17004854
97.19825243
97.23529126
97.14121359
97.19592233
97.12805825
97.12330097
97.10121359
97.2468932
97.2326699
97.34373786
97.04053398
97.03383495
96.9526699
97.25135922
97.30907767
97.48033981
97.03553398
97.08616505
97.28427184
97.25237864
97.2588835
97.28470874
97.2538835
97.00898058
97.23854369
97.07461165
97.1923301
97.23995146
96.86024272
97.3376699
97.44412621
97.2342233
97.16092233
97.00296117
97.15451456
97.33558252
97.20165049
97.36679612
97.32490291
97.36359223
97.38441748
97.32067961
97.18796117
97.245
97.42694175
97.51757282
97.27407767
97.39252427
97.04762136
97.39946602
97.48451456
97.4611165
97.47645631
97.26912621
97.44868932
97.3342233
97.21718447
97.34980583
97.48237864
97.36665049
97.2292233
97.40742718
97.41757282
97.4042233
97.49223301
97.53359223
97.60820388
97.28684466
97.47839806
97.43941748
97.37276699
97.42101942
97.54334951
97.63684466
97.32995146
97.0976699
97.34936893
97.26135922
97.30237864
97.1065534
97.54019417
97.62165049
97.59985437
97.60626214
97.45898058
97.67805825
97.43417476
97.53635922
97.24796117
97.32985437
97.3692233
97.24067961
97.12398058
97.27878641
97.2431068
97.35514563
97.24247573
97.29519417
97.15257282
97.15271845
97.16359223
97.22606796
97.34796117
97.1218932
97.26533981
97.30723301
97.30752427
97.32815534
97.3042233
97.37213592
97.31907767
97.12529126
97.00616505
96.99349515
96.87092233
96.99834951
97.05567961
97.17592233
97.22407767
97.09519417
97.23684466
97.2081068
97.11364078
97.03834951
96.92597087
96.97485437
97.04723301
97.07480583
97.03854369
97.12941748
97.12296117
97.1868932
97.10538835
97.12786408
97.08917476
97.06980583
97.15587379
97.05737864
96.84742718
96.90359223
97.04194175
96.99087379
97.13024272
97.09830097
97.04116505
97.10145631
97.13009709
96.79776699
96.97533981
97.05291262
96.96849515
96.96941748
96.99504854
96.99451456
97.06713592
96.88718447
96.84456311
97.01276699
96.93533981
96.9868932
96.89533981
96.94378641
97.17300971
97.20495146
97.01975728
97.12184466
97.05456311
97.04334951
96.89864078
96.92228155
96.90665049
97.15558252
96.99461165
97.07762136
97.01635922
97.00975728
96.99203883
96.97495146
97.09975728
96.92097087
97.03325243
97.10854369
96.9742233
97.14951456
97.13601942
97.19067961
97.05067961
97.03956311
97.10538835
96.96519417
97.14315534
97.17864078
97.09946602
97.09063107
97.24101942
97.28281553
97.08966019
96.94242718
97.04776699
97.11121359
97.29679612
97.17514563
97.14990291
97.1065534
97.25053398
97.27145631
97.33713592
97.21509709
97.28631068
97.26126214
97.08208738
96.94951456
97.26660194
97.17276699
97.3181068
97.18839806
97.15213592
97.0442233
97.16898058
97.12097087
97.15737864
97.30854369
97.17184466
97.38165049
97.20776699
97.30276699
97.33436893
97.17368932
97.2373301
97.31053398
97.27956311
97.38257282
97.29665049
97.16412621
97.24126214
97.26883495
97.17281553
97.40364078
97.48145631
97.28169903
97.31048544
97.20373786
97.29490291
97.10951456
97.39378641
97.26572816
97.35796117
97.27990291
97.18567961
97.15650485
97.22524272
97.24184466
97.36878641
97.38262136
97.36849515
97.35553398
97.33514563
97.31179612
97.27665049
97.10912621
97.13956311
97.22791262
97.30990291
97.45087379
97.68597087
97.60679612
97.65786408
97.51247573
97.45
97.45601942
97.43558252
97.51038835
97.52694175
97.41461165
97.26606796
97.23757282
97.455
97.3484466
97.43199029
97.47951456
97.38699029
97.51834951
97.1688835
97.3534466
97.55339806
97.41291262
97.43543689
97.32665049
97.40252427
97.49975728
97.27194175
97.23004854
97.3157767
97.55242718
97.22718447
97.16951456
97.19820388
97.34956311
97.27461165
97.23407767
97.16373786
97.29514563
97.40990291
97.20834951
97.26878641
97.31417476
97.23538835
97.44927184
97.41665049
97.28359223
97.42140777
97.14199029
97.05383495
97.02330097
97.2088835
97.11650485
97.05529126
97.14961165
97.07883495
97.15834951
97.14854369
97.31364078
97.06179612
97.25456311
97.00417476
96.93548544
96.89762136
96.98087379
97.04509709
97.1534466
97.06558252
96.9531068
97.25199029
96.99004854
97.16475728
97.17009709
97.09728155
97.03669903
97.03849515
97.04970874
96.8484466
96.85228155
97.10009709
97.00456311
97.05247573
96.95407767
97.02480583
96.92160194
96.91058252
97.18684466
96.96121359
97.09854369
96.87645631
96.93606796
97.01145631
97.00558252
97.00262136
96.84024272
96.8268932
97.14713592
97.27398058
97.035
97.11150485
97.13854369
97.02650485
97.0657767
97.06839806
97.10359223
96.99684466
96.94169903
97.00398058
97.11951456
96.94242718
97.08854369
96.90859223
96.93966019
97.07990291
97.1034466
97.16975728
97.1926699
97.23873786
97.09572816
96.9715534
97.20315534
97.11587379
97.18839806
97.21179612
97.14495146
97.22378641
97.06917476
97.22208738
97.30393204
97.15014563
97.11582524
97.12747573
97.21645631
97.23398058
97.3138835
97.23349515
97.43825243
97.17029126
97.05592233
97.11699029
96.93072816
97.20902913
97.24762136
97.29868932
97.2665534
97.17281553
97.12757282
97.15966019
97.15092233
97.24893204
97.20378641
97.23791262
97.24150485
97.05728155
97.23631068
97.12582524
97.10868932
97.08417476
97.06072816
97.27572816
97.35373786
97.28087379
97.2115534
97.29538835
97.27451456
97.04087379
97.17635922
96.9588835
97.13174757
97.18223301
97.35067961
97.34951456
97.22145631
97.25218447
97.18694175
97.18665049
97.36184466
97.01975728
97.1411165
97.27684466
97.23961165
97.35878641
97.26548544
97.22616505
97.15723301
97.43033981
97.40839806
97.37300971
97.09378641
97.31665049
97.55378641
97.19902913
97.23097087
97.34009709
97.28427184
97.28135922
97.2823301
97.18213592
97.31145631
97.35946602
97.51878641
97.51247573
97.53101942
97.56868932
97.49373786
97.39524272
97.34067961
97.39024272
97.21160194
97.50417476
97.45703883
97.21747573
97.4515534
97.28320388
97.26762136
97.52354369
97.46
97.46980583
97.40082524
97.40941748
97.51412621
97.30097087
97.41606796
97.33932039
97.46592233
97.52572816
97.38038835
97.25480583
97.2165534
97.41300971
97.3161165
97.35495146
97.24364078
97.13747573
97.09776699
97.22684466
97.23606796
97.16
97.25334951
97.43354369
97.45665049
97.10048544
97.13048544
97.31859223
97.63703883
97.23373786
96.93121359
97.23140777
97.27339806
97.03237864
97.04635922
97.22723301
97.23776699
96.99334951
97.02902913
97.19412621
97.18072816
97.12378641
97.33126214
97.18621359
97.19378641
96.93849515
97.15228155
96.98053398
97.03839806
97.05762136
97.22296117
97.09718447
97.10067961
97.31985437
97.21529126
97.14912621
96.96398058
97.01247573
96.97470874
97.04514563
96.83631068
96.95747573
96.92699029
97.0607767
97.00713592
96.88446602
96.95160194
96.9557767
96.89650485
96.85291262
96.87859223
96.94029126
96.98616505
96.95019417
97.04407767
96.8884466
96.98446602
97.04417476
96.84912621
97.13815534
96.99072816
97.12961165
96.90961165
96.98932039
97.0373301
97.08106796
97.17582524
97.00466019
97.09383495
97.27106796
97.13436893
97.14621359
97.03737864
97.13067961
97.20291262
97.02349515
96.95601942
96.91072816
97.13849515
97.12179612
97.0673301
97.20509709
97.02199029
96.97203883
97.20004854
97.06752427
97.35257282
97.16150485
97.14135922
97.25796117
97.30907767
97.24354369
97.26616505
97.32058252
97.16407767
97.07533981
97.23582524
97.36019417
97.24126214
97.34490291
97.30669903
97.06771845
97.15601942
97.17674757
97.12291262
97.18427184
97.27572816
97.255
97.22752427
97.11864078
96.82859223
97.08024272
97.15179612
97.23592233
97.32262136
97.38082524
97.08106796
97.12669903
97.04427184
97.09669903
97.09174757
97.18718447
97.175
97.25393204
97.41286408
97.54606796
97.31956311
97.25140777
97.21883495
97.36728155
97.10864078
97.17296117
97.14009709
97.21694175
97.10995146
97.36514563
97.34169903
97.21757282
97.30359223
97.08660194
97.33601942
97.43179612
97.40660194
97.30276699
97.35640777
97.415
97.24043689
97.28383495
97.3384466
97.40072816
97.53839806
97.50072816
97.3992233
97.27825243
97.30446602
97.32970874
97.27961165
97.14665049
97.37529126
97.34296117
97.48140777
97.27252427
97.21101942
97.15296117
97.35665049
97.37524272
97.47694175
97.50024272
97.57203883
97.27004854
97.44626214
97.515
97.27296117
97.46393204
97.3834466
97.28582524
97.31393204
97.15645631
97.30150485
97.41262136
97.48927184
97.47907767
97.40315534
97.43966019
97.61868932
97.44092233
97.49286408
97.42898058
97.27684466
97.50237864
97.3226699
97.32961165
97.25757282
97.25868932
97.11252427
97.22762136
97.21543689
97.15150485
97.38286408
97.18800971
97.29480583
97.07640777
97.18703883
97.41121359
97.17834951
97.16582524
97.07242718
97.2776699
97.2892233
97.35009709
97.04912621
97.2311165
97.28441748
97.31490291
97.19820388
97.07208738
97.00650485
97.03669903
96.96140777
97.23771845
96.9761165
96.99553398
97.14883495
97.18878641
97.17300971
97.16364078
96.9965534
97.0811165
97.06805825
97.09941748
97.05058252
97.16252427
97.08097087
97.12165049
97.33606796
97.21033981
97.1038835
97.08121359
97.27033981
97.075
96.85912621
96.79703883
97.00116505
97.02985437
96.80490291
97.07378641
97.04912621
96.95509709
96.98679612
96.99728155
97.07495146
97.03771845
97.04907767
96.85063107
96.93975728
96.76849515
96.91334951
96.91834951
96.97150485
97.17563107
97.00475728
97.08228155
97.00703883
96.93446602
97.15635922
97.10995146
97.12354369
96.99407767
97.06354369
96.9231068
97.00097087
97.05543689
97.30373786
97.17757282
97.21966019
97.16402913
96.98121359
96.90951456
97.07718447
96.92092233
96.94815534
96.93927184
96.91364078
96.93417476
96.99165049
97.28898058
97.23466019
97.24747573
97.09354369
97.15466019
97.13917476
97.22839806
97.31364078
97.17665049
97.3057767
97.15800971
97.17626214
97.17990291
97.15572816
97.23286408
97.26228155
97.13106796
97.08985437
97.02558252
97.18703883
96.97665049
96.87830097
97.24941748
97.15140777
97.20679612
97.27645631
97.07893204
97.12398058
97.21796117
97.43184466
97.19169903
97.21902913
97.15825243
97.14830097
97.05053398
97.19592233
97.28242718
97.0988835
97.30325243
97.06097087
97.13509709
97.22
97.38621359
97.27854369
97.28160194
97.22126214
97.22097087
97.37708738
97.24975728
97.25854369
97.27315534
97.34475728
97.23368932
97.29878641
97.46553398
97.42932039
97.52587379
97.35980583
97.28203883
97.22587379
97.42509709
97.23830097
97.22830097
97.28126214
97.38621359
97.31101942
97.32878641
97.44402913
97.44179612
97.34645631
)
;

boundaryField
{
    bottom
    {
        type            calculated;
        value           nonuniform List<scalar> 
200
(
97.26364078
97.15932039
97.29582524
97.18485437
97.39820388
97.32218447
97.29495146
97.41451456
97.3192233
97.42631068
97.615
97.53796117
97.46898058
97.37941748
97.37339806
97.74325243
97.46679612
97.42825243
97.38199029
97.43601942
97.53980583
97.465
97.33038835
97.34383495
97.33004854
97.29101942
97.23300971
97.44747573
97.54572816
97.43427184
97.24368932
97.39713592
97.44529126
97.51262136
97.40509709
97.33126214
97.50781553
97.20669903
97.30441748
97.1965534
97.32728155
97.32456311
97.19417476
97.33058252
97.21635922
97.20898058
97.25533981
97.25451456
97.30106796
97.39276699
97.21305825
97.22970874
97.12524272
97.31597087
97.35825243
97.40446602
97.23213592
97.16281553
97.10043689
97.04665049
97.1673301
97.23839806
97.12019417
97.39339806
97.1034466
97.17708738
97.41917476
97.35247573
97.12203883
97.17218447
97.0861165
96.97995146
97.07752427
96.97660194
96.86742718
96.93893204
97.12805825
97.34247573
97.04213592
97.00936893
97.13669903
97.08393204
97.19849515
97.00601942
96.8707767
97.02029126
97.10174757
97.1626699
96.92203883
96.97014563
97.03946602
97.08029126
97.14218447
97.20529126
96.79694175
96.87728155
97.04262136
96.90834951
96.85771845
97.10475728
97.02446602
97.10131068
96.97694175
96.94281553
97.17864078
97.08135922
97.03330097
97.06383495
96.93121359
97.04893204
97.21776699
97.22456311
97.17140777
97.17873786
97.03718447
96.95393204
96.89786408
97.15174757
97.06621359
96.96208738
96.94490291
96.97728155
97.09058252
97.25101942
97.12859223
97.09485437
96.9973301
96.95820388
96.96281553
97.11781553
97.07941748
97.10635922
97.00436893
97.04131068
97.04951456
96.97762136
96.89485437
97.35796117
97.13019417
97.04907767
97.24053398
97.26228155
97.18970874
97.19126214
97.13029126
97.17004854
97.19825243
97.23529126
97.14121359
97.19592233
97.12805825
97.12330097
97.10121359
97.2468932
97.2326699
97.34373786
97.04053398
97.03383495
96.9526699
97.25135922
97.30907767
97.48033981
97.03553398
97.08616505
97.28427184
97.25237864
97.2588835
97.28470874
97.2538835
97.00898058
97.23854369
97.07461165
97.1923301
97.23995146
96.86024272
97.3376699
97.44412621
97.2342233
97.16092233
97.00296117
97.15451456
97.33558252
97.20165049
97.36679612
97.32490291
97.36359223
97.38441748
97.32067961
97.18796117
97.245
97.42694175
97.51757282
97.27407767
97.39252427
97.04762136
97.39946602
97.48451456
97.4611165
97.47645631
97.26912621
)
;
    }
    top
    {
        type            calculated;
        value           nonuniform List<scalar> 
200
(
97.32970874
97.27961165
97.14665049
97.37529126
97.34296117
97.48140777
97.27252427
97.21101942
97.15296117
97.35665049
97.37524272
97.47694175
97.50024272
97.57203883
97.27004854
97.44626214
97.515
97.27296117
97.46393204
97.3834466
97.28582524
97.31393204
97.15645631
97.30150485
97.41262136
97.48927184
97.47907767
97.40315534
97.43966019
97.61868932
97.44092233
97.49286408
97.42898058
97.27684466
97.50237864
97.3226699
97.32961165
97.25757282
97.25868932
97.11252427
97.22762136
97.21543689
97.15150485
97.38286408
97.18800971
97.29480583
97.07640777
97.18703883
97.41121359
97.17834951
97.16582524
97.07242718
97.2776699
97.2892233
97.35009709
97.04912621
97.2311165
97.28441748
97.31490291
97.19820388
97.07208738
97.00650485
97.03669903
96.96140777
97.23771845
96.9761165
96.99553398
97.14883495
97.18878641
97.17300971
97.16364078
96.9965534
97.0811165
97.06805825
97.09941748
97.05058252
97.16252427
97.08097087
97.12165049
97.33606796
97.21033981
97.1038835
97.08121359
97.27033981
97.075
96.85912621
96.79703883
97.00116505
97.02985437
96.80490291
97.07378641
97.04912621
96.95509709
96.98679612
96.99728155
97.07495146
97.03771845
97.04907767
96.85063107
96.93975728
96.76849515
96.91334951
96.91834951
96.97150485
97.17563107
97.00475728
97.08228155
97.00703883
96.93446602
97.15635922
97.10995146
97.12354369
96.99407767
97.06354369
96.9231068
97.00097087
97.05543689
97.30373786
97.17757282
97.21966019
97.16402913
96.98121359
96.90951456
97.07718447
96.92092233
96.94815534
96.93927184
96.91364078
96.93417476
96.99165049
97.28898058
97.23466019
97.24747573
97.09354369
97.15466019
97.13917476
97.22839806
97.31364078
97.17665049
97.3057767
97.15800971
97.17626214
97.17990291
97.15572816
97.23286408
97.26228155
97.13106796
97.08985437
97.02558252
97.18703883
96.97665049
96.87830097
97.24941748
97.15140777
97.20679612
97.27645631
97.07893204
97.12398058
97.21796117
97.43184466
97.19169903
97.21902913
97.15825243
97.14830097
97.05053398
97.19592233
97.28242718
97.0988835
97.30325243
97.06097087
97.13509709
97.22
97.38621359
97.27854369
97.28160194
97.22126214
97.22097087
97.37708738
97.24975728
97.25854369
97.27315534
97.34475728
97.23368932
97.29878641
97.46553398
97.42932039
97.52587379
97.35980583
97.28203883
97.22587379
97.42509709
97.23830097
97.22830097
97.28126214
97.38621359
97.31101942
97.32878641
97.44402913
97.44179612
97.34645631
)
;
    }
    inlet
    {
        type            cyclic;
    }
    outlet
    {
        type            cyclic;
    }
    back
    {
        type            symmetry;
    }
    front
    {
        type            symmetry;
    }
}


// ************************************************************************* //
