/*--------------------------------*- C++ -*----------------------------------*\
| =========                 |                                                 |
| \\      /  F ield         | OpenFOAM: The Open Source CFD Toolbox           |
|  \\    /   O peration     | Version:  v1706                                 |
|   \\  /    A nd           | Web:      www.OpenFOAM.com                      |
|    \\/     M anipulation  |                                                 |
\*---------------------------------------------------------------------------*/
FoamFile
{
    version     2.0;
    format      ascii;
    class       volScalarField;
    location    "0.26";
    object      mctTimeStepRatio_Ar;
}
// * * * * * * * * * * * * * * * * * * * * * * * * * * * * * * * * * * * * * //

dimensions      [0 0 0 0 0 0 0];


internalField   nonuniform List<scalar> 
1000
(
2.501370071
2.503719872
2.500214466
2.502801379
2.497391464
2.498910357
2.500396818
2.497124364
2.49987851
2.497537373
2.492772767
2.49425755
2.495451494
2.497941873
2.498786098
2.489959011
2.495404413
2.496826139
2.498413229
2.496947728
2.494114051
2.495992115
2.499569252
2.499416639
2.499537727
2.501084124
2.502127548
2.49620513
2.493916146
2.497311517
2.501476895
2.497686839
2.496793531
2.494968194
2.498186547
2.499569419
2.494810867
2.502584366
2.499901273
2.502488343
2.499355647
2.498678653
2.502163195
2.499072609
2.502002061
2.501352548
2.5002874
2.500607328
2.49972568
2.497899074
2.502526072
2.501978085
2.503752689
2.499749049
2.498462587
2.49780258
2.50132025
2.50297504
2.504624158
2.505621692
2.502852516
2.501476334
2.504388066
2.497498222
2.503878908
2.501937094
2.496599422
2.498531599
2.504151837
2.50292758
2.504506216
2.506758382
2.504616363
2.506825933
2.509864859
2.508254326
2.503245387
2.498369577
2.505150619
2.505889834
2.502980208
2.504056155
2.501425037
2.506107679
2.509483095
2.505817499
2.503474148
2.501570478
2.507908634
2.506960212
2.505522563
2.504588373
2.501934789
2.500352844
2.510696185
2.508985502
2.504275237
2.507979844
2.51012258
2.504048775
2.505673133
2.503046901
2.506561557
2.508167173
2.502037392
2.504350177
2.505866182
2.504957229
2.507933844
2.50540393
2.501020575
2.50072338
2.502252126
2.501272738
2.505373555
2.507500223
2.508373537
2.502449722
2.504073968
2.506547418
2.507330894
2.506029774
2.503600883
2.499901174
2.502936452
2.503677893
2.50637151
2.506994488
2.506975298
2.503316564
2.504936107
2.504576669
2.506559217
2.505563626
2.505327144
2.507107941
2.50936219
2.497946758
2.503497873
2.505458303
2.500054138
2.50011577
2.501854443
2.5006794
2.503629274
2.502471612
2.501389001
2.499955903
2.502494067
2.502108728
2.504088383
2.503489919
2.504229526
2.500577022
2.500461571
2.498531538
2.505606768
2.505389967
2.507325555
2.500189107
2.499495343
2.494939031
2.505357959
2.504388995
2.499798971
2.50006445
2.500377349
2.499322428
2.501010957
2.506607929
2.50171988
2.504762644
2.503027724
2.50155794
2.510430428
2.499340245
2.496736947
2.501290842
2.50214655
2.506872685
2.503442842
2.499140998
2.501906742
2.498150094
2.499613079
2.49840296
2.498285715
2.499061332
2.501712524
2.500981603
2.49658829
2.493580174
2.499364003
2.497356973
2.506273642
2.497909564
2.496269764
2.496559254
2.495393926
2.500752695
2.49611989
2.498907505
2.501770247
2.498714995
2.496020323
2.49795605
2.5015596
2.497771237
2.497268689
2.497917899
2.496376088
2.49474187
2.492830418
2.500766086
2.496244987
2.497826719
2.498545887
2.497397421
2.493936797
2.491812408
2.500071375
2.504863638
2.498779441
2.501337839
2.499877087
2.504642011
2.494080766
2.492277177
2.492839188
2.493228741
2.496909234
2.491185519
2.497430595
2.494434467
2.501487359
2.499789135
2.498044358
2.501354328
2.504167969
2.500619152
2.500743204
2.498465624
2.500770495
2.500072414
2.502886183
2.50329809
2.502983971
2.501660645
2.499259943
2.504503121
2.501130474
2.500031983
2.499280029
2.499321436
2.500438642
2.498014817
2.498856812
2.504060589
2.5068194
2.507032023
2.509536889
2.506687219
2.505203162
2.502112126
2.500574808
2.504638963
2.501017918
2.501696153
2.504154156
2.505364494
2.508287385
2.506611496
2.50505974
2.505024748
2.505390208
2.502765405
2.502684739
2.50131653
2.503350715
2.50338216
2.503911406
2.504649883
2.502208253
2.504967168
2.510295524
2.50889575
2.50550929
2.506174749
2.50274391
2.50376308
2.50496525
2.504363672
2.503201115
2.510756663
2.506857716
2.504788157
2.506677877
2.506223997
2.50688463
2.506105368
2.504186268
2.508385451
2.509479232
2.505920932
2.507522125
2.506231357
2.509487526
2.50803873
2.502394637
2.501696985
2.505918226
2.503202821
2.505092009
2.505049149
2.50907192
2.507865009
2.508377445
2.501684172
2.506157441
2.503509995
2.505821049
2.506321064
2.506258823
2.50659163
2.5036503
2.507919142
2.505499504
2.502945907
2.506855457
2.502814633
2.503191799
2.501770631
2.505595549
2.505504736
2.503672824
2.506345174
2.503118013
2.501701794
2.503848538
2.504032707
2.500229969
2.500222165
2.504432122
2.507499902
2.504848622
2.503896919
2.498992355
2.502016613
2.502695732
2.504112934
2.500454571
2.500315309
2.498798106
2.501364949
2.499729087
2.500120444
2.505188293
2.507783366
2.499534096
2.502108655
2.498426965
2.502414634
2.502800759
2.5054247
2.50215928
2.503745245
2.502599954
2.498824337
2.5026472
2.498050656
2.502321806
2.499867434
2.498831439
2.502663877
2.500852283
2.499376886
2.499746532
2.497745495
2.499658049
2.503156173
2.500812368
2.500295283
2.503370162
2.496772371
2.495418202
2.500810636
2.499399358
2.50217433
2.499064173
2.503513802
2.497345937
2.500311913
2.497836083
2.499748077
2.502157176
2.503765878
2.502167658
2.500715845
2.498204704
2.498068009
2.498673249
2.498163498
2.499015074
2.499988844
2.499880778
2.504377635
2.503331243
2.50112814
2.499608159
2.497332678
2.491498398
2.492468684
2.491874828
2.495193602
2.497188122
2.495901458
2.497229416
2.49463737
2.494664063
2.498062862
2.500430146
2.501274973
2.496323157
2.499123083
2.497264154
2.495622055
2.497762777
2.494541686
2.50356266
2.499430116
2.49483362
2.497555477
2.497025547
2.499324334
2.498153111
2.494586972
2.500290204
2.501628771
2.49984365
2.493447046
2.501337444
2.503094929
2.502182428
2.497776907
2.500253075
2.500777572
2.502831649
2.499803522
2.49719203
2.50218759
2.500514125
2.499330895
2.501493763
2.496391665
2.496982342
2.499846194
2.496516605
2.503590845
2.505615815
2.506014696
2.500615098
2.503571698
2.504794675
2.502942709
2.504059438
2.502470538
2.503271732
2.500014837
2.5056153
2.500647955
2.506970396
2.508521841
2.509071261
2.507183457
2.505164365
2.502255731
2.504492957
2.507289471
2.500190203
2.506608882
2.502085624
2.502447787
2.504275284
2.506211201
2.505923431
2.504825501
2.510082205
2.509011436
2.503572453
2.506283388
2.50502697
2.507626923
2.505708904
2.507690635
2.508108234
2.501603661
2.507130975
2.503447772
2.508928354
2.507679312
2.505417524
2.505686215
2.506402308
2.510041271
2.510211007
2.502116723
2.499616529
2.504858466
2.503461616
2.502737728
2.506098349
2.50390075
2.505063867
2.503626555
2.506358712
2.507093427
2.505839206
2.503501613
2.507401155
2.50397234
2.508590605
2.507804363
2.504427069
2.503785702
2.502284003
2.50134785
2.500004514
2.503661954
2.506632944
2.500932088
2.50347197
2.501783275
2.501426972
2.502615378
2.50102265
2.504797334
2.501303545
2.499229747
2.502924319
2.503114494
2.502735188
2.501098517
2.500852082
2.498552781
2.500748376
2.496395818
2.502598894
2.505069598
2.503870616
2.508295658
2.501268265
2.500996893
2.499023822
2.500426178
2.502035296
2.503569234
2.503047758
2.503197654
2.500752823
2.501634152
2.501082569
2.500319167
2.505150809
2.500300354
2.503136106
2.503559738
2.504630617
2.505295528
2.500218199
2.498272699
2.500876771
2.502281169
2.499144111
2.500175507
2.505970066
2.502434475
2.507784343
2.503179972
2.502660097
2.498871937
2.498934655
2.500919957
2.500747535
2.50220694
2.502679224
2.497759634
2.506659402
2.503143093
2.49973795
2.501169142
2.498655145
2.500583666
2.501288644
2.502981616
2.496902097
2.496995961
2.497937003
2.504006289
2.499090495
2.493801855
2.50292479
2.501917714
2.498998607
2.500015252
2.499619471
2.499827781
2.502762223
2.49907432
2.498676476
2.494566202
2.494549148
2.494970477
2.494650988
2.495732829
2.497924873
2.49939364
2.497511749
2.502616883
2.494688304
2.495794938
2.50151155
2.495330367
2.500307132
2.500699627
2.494694471
2.496284357
2.496195762
2.497501656
2.497251283
2.49516396
2.50044796
2.497590631
2.499698442
2.496585759
2.495029723
2.498589957
2.500723381
2.501517027
2.497101904
2.499690958
2.498339823
2.500960916
2.50341901
2.504632602
2.501115723
2.500881926
2.503319101
2.500443774
2.496908987
2.495575699
2.504406831
2.503417656
2.499218593
2.491155924
2.501875406
2.508665724
2.501163364
2.50025272
2.505900158
2.506000049
2.501413562
2.500537046
2.506203231
2.505495866
2.500962461
2.502417101
2.503398146
2.498881622
2.502806975
2.501876274
2.508748326
2.503016592
2.506884575
2.505116482
2.504428354
2.501264808
2.504849669
2.503802064
2.49857642
2.501017036
2.503010614
2.507863265
2.506609525
2.507280258
2.504733176
2.510390592
2.507256982
2.508220823
2.504778263
2.506259301
2.508472136
2.50746702
2.506951894
2.508723882
2.509469956
2.50903278
2.507435601
2.506427453
2.507731552
2.50536927
2.509043266
2.506643514
2.504900008
2.509490602
2.502676882
2.505628147
2.502960879
2.507917272
2.506099869
2.505239174
2.504003053
2.502464301
2.506316046
2.504118366
2.499258412
2.502882633
2.502124745
2.505497877
2.503450906
2.50182571
2.506358651
2.50772898
2.507892519
2.502580782
2.503117636
2.504857655
2.501067378
2.50529163
2.506772755
2.50147374
2.504883931
2.498031906
2.501733025
2.502692011
2.500757433
2.498789083
2.500350624
2.499804321
2.499325189
2.50250625
2.504903744
2.500870937
2.498323988
2.500774717
2.498356244
2.499150061
2.504631716
2.503233163
2.501897933
2.504145642
2.501760268
2.499849626
2.500134282
2.501326137
2.503099608
2.509996582
2.503965112
2.502894566
2.500752585
2.499013308
2.497459063
2.504678377
2.503089043
2.504592459
2.503720864
2.505280441
2.502044715
2.50266941
2.501245508
2.497266955
2.493613952
2.499545489
2.501329094
2.501917104
2.49831616
2.504581887
2.502527744
2.503331213
2.502576657
2.504635547
2.498935564
2.498865981
2.501608799
2.499901237
2.505635329
2.49819169
2.496705651
2.497224182
2.499886768
2.49814354
2.49707666
2.501920038
2.500675676
2.498988703
2.497666177
2.494299629
2.495052863
2.49721788
2.500448053
2.499356717
2.498882673
2.500894026
2.503317237
2.497701215
2.49916768
2.495900369
2.500741438
2.502505164
2.502876354
2.497898675
2.498506557
2.496324383
2.496127666
2.493659437
2.500961979
2.49704494
2.494987687
2.500261917
2.496437911
2.498530279
2.499833062
2.499441845
2.503564931
2.500520358
2.496790586
2.495579597
2.495832214
2.497441931
2.496246282
2.492544058
2.49669599
2.495032571
2.497489118
2.501171631
2.49582697
2.499496526
2.499383296
2.501317309
2.501469953
2.504612191
2.502334204
2.502215087
2.503397521
2.497083503
2.501850458
2.499776599
2.504923395
2.50275265
2.496640648
2.502861508
2.502844736
2.505520753
2.500377805
2.499997787
2.498520026
2.505681133
2.501816428
2.499976713
2.499634176
2.502305292
2.505241762
2.506072588
2.504924723
2.507344752
2.501215334
2.506987016
2.507113382
2.503176589
2.502030441
2.5022744
2.502256273
2.50591563
2.504249915
2.505172673
2.504005509
2.505261602
2.502247819
2.504821561
2.503555553
2.498590229
2.502148163
2.504685025
2.505020465
2.500165512
2.504490208
2.509356894
2.51111491
2.506264262
2.505099911
2.510778455
2.504068134
2.505237324
2.50692474
2.506012923
2.506347651
2.504638859
2.504998835
2.504977593
2.509991031
2.507904455
2.511995502
2.508596692
2.507837141
2.506693204
2.501243665
2.506198459
2.504268999
2.505492935
2.507522205
2.501809708
2.503663503
2.503030833
2.506609479
2.505013383
2.508063255
2.505640055
2.504558528
2.498585546
2.501330361
2.50003368
2.501850608
2.506429977
2.508466485
2.504620908
2.507938024
2.507450611
2.507274445
2.508867967
2.507587844
2.506126562
2.499308111
2.500117582
2.501271819
2.504893093
2.503020974
2.502994825
2.500505385
2.4989418
2.502660047
2.499511194
2.503031821
2.501789927
2.502558509
2.502833421
2.500935187
2.500391084
2.504165122
2.504543807
2.506443815
2.502934358
2.506879704
2.50884646
2.49975126
2.502349277
2.501231303
2.499123495
2.504092165
2.503657406
2.501225381
2.495639975
2.50216792
2.501446959
2.503167913
2.502637221
2.50473977
2.501862977
2.500410913
2.504864803
2.50037506
2.50605873
2.503935825
2.50213389
2.498181765
2.501112155
2.500310101
2.501679181
2.500659553
2.497617647
2.501091248
2.500855072
2.500490782
2.498436802
2.501737135
2.500212195
2.495711297
2.497327296
2.494585375
2.498197176
2.499554278
2.501517359
2.49727444
2.502271298
2.501873718
2.500276307
2.497594046
2.499561338
2.499021638
2.496739657
2.496856814
2.498876221
)
;

boundaryField
{
    bottom
    {
        type            calculated;
        value           nonuniform List<scalar> 
200
(
2.501370071
2.503719872
2.500214466
2.502801379
2.497391464
2.498910357
2.500396818
2.497124364
2.49987851
2.497537373
2.492772767
2.49425755
2.495451494
2.497941873
2.498786098
2.489959011
2.495404413
2.496826139
2.498413229
2.496947728
2.494114051
2.495992115
2.499569252
2.499416639
2.499537727
2.501084124
2.502127548
2.49620513
2.493916146
2.497311517
2.501476895
2.497686839
2.496793531
2.494968194
2.498186547
2.499569419
2.494810867
2.502584366
2.499901273
2.502488343
2.499355647
2.498678653
2.502163195
2.499072609
2.502002061
2.501352548
2.5002874
2.500607328
2.49972568
2.497899074
2.502526072
2.501978085
2.503752689
2.499749049
2.498462587
2.49780258
2.50132025
2.50297504
2.504624158
2.505621692
2.502852516
2.501476334
2.504388066
2.497498222
2.503878908
2.501937094
2.496599422
2.498531599
2.504151837
2.50292758
2.504506216
2.506758382
2.504616363
2.506825933
2.509864859
2.508254326
2.503245387
2.498369577
2.505150619
2.505889834
2.502980208
2.504056155
2.501425037
2.506107679
2.509483095
2.505817499
2.503474148
2.501570478
2.507908634
2.506960212
2.505522563
2.504588373
2.501934789
2.500352844
2.510696185
2.508985502
2.504275237
2.507979844
2.51012258
2.504048775
2.505673133
2.503046901
2.506561557
2.508167173
2.502037392
2.504350177
2.505866182
2.504957229
2.507933844
2.50540393
2.501020575
2.50072338
2.502252126
2.501272738
2.505373555
2.507500223
2.508373537
2.502449722
2.504073968
2.506547418
2.507330894
2.506029774
2.503600883
2.499901174
2.502936452
2.503677893
2.50637151
2.506994488
2.506975298
2.503316564
2.504936107
2.504576669
2.506559217
2.505563626
2.505327144
2.507107941
2.50936219
2.497946758
2.503497873
2.505458303
2.500054138
2.50011577
2.501854443
2.5006794
2.503629274
2.502471612
2.501389001
2.499955903
2.502494067
2.502108728
2.504088383
2.503489919
2.504229526
2.500577022
2.500461571
2.498531538
2.505606768
2.505389967
2.507325555
2.500189107
2.499495343
2.494939031
2.505357959
2.504388995
2.499798971
2.50006445
2.500377349
2.499322428
2.501010957
2.506607929
2.50171988
2.504762644
2.503027724
2.50155794
2.510430428
2.499340245
2.496736947
2.501290842
2.50214655
2.506872685
2.503442842
2.499140998
2.501906742
2.498150094
2.499613079
2.49840296
2.498285715
2.499061332
2.501712524
2.500981603
2.49658829
2.493580174
2.499364003
2.497356973
2.506273642
2.497909564
2.496269764
2.496559254
2.495393926
2.500752695
)
;
    }
    top
    {
        type            calculated;
        value           nonuniform List<scalar> 
200
(
2.498882673
2.500894026
2.503317237
2.497701215
2.49916768
2.495900369
2.500741438
2.502505164
2.502876354
2.497898675
2.498506557
2.496324383
2.496127666
2.493659437
2.500961979
2.49704494
2.494987687
2.500261917
2.496437911
2.498530279
2.499833062
2.499441845
2.503564931
2.500520358
2.496790586
2.495579597
2.495832214
2.497441931
2.496246282
2.492544058
2.49669599
2.495032571
2.497489118
2.501171631
2.49582697
2.499496526
2.499383296
2.501317309
2.501469953
2.504612191
2.502334204
2.502215087
2.503397521
2.497083503
2.501850458
2.499776599
2.504923395
2.50275265
2.496640648
2.502861508
2.502844736
2.505520753
2.500377805
2.499997787
2.498520026
2.505681133
2.501816428
2.499976713
2.499634176
2.502305292
2.505241762
2.506072588
2.504924723
2.507344752
2.501215334
2.506987016
2.507113382
2.503176589
2.502030441
2.5022744
2.502256273
2.50591563
2.504249915
2.505172673
2.504005509
2.505261602
2.502247819
2.504821561
2.503555553
2.498590229
2.502148163
2.504685025
2.505020465
2.500165512
2.504490208
2.509356894
2.51111491
2.506264262
2.505099911
2.510778455
2.504068134
2.505237324
2.50692474
2.506012923
2.506347651
2.504638859
2.504998835
2.504977593
2.509991031
2.507904455
2.511995502
2.508596692
2.507837141
2.506693204
2.501243665
2.506198459
2.504268999
2.505492935
2.507522205
2.501809708
2.503663503
2.503030833
2.506609479
2.505013383
2.508063255
2.505640055
2.504558528
2.498585546
2.501330361
2.50003368
2.501850608
2.506429977
2.508466485
2.504620908
2.507938024
2.507450611
2.507274445
2.508867967
2.507587844
2.506126562
2.499308111
2.500117582
2.501271819
2.504893093
2.503020974
2.502994825
2.500505385
2.4989418
2.502660047
2.499511194
2.503031821
2.501789927
2.502558509
2.502833421
2.500935187
2.500391084
2.504165122
2.504543807
2.506443815
2.502934358
2.506879704
2.50884646
2.49975126
2.502349277
2.501231303
2.499123495
2.504092165
2.503657406
2.501225381
2.495639975
2.50216792
2.501446959
2.503167913
2.502637221
2.50473977
2.501862977
2.500410913
2.504864803
2.50037506
2.50605873
2.503935825
2.50213389
2.498181765
2.501112155
2.500310101
2.501679181
2.500659553
2.497617647
2.501091248
2.500855072
2.500490782
2.498436802
2.501737135
2.500212195
2.495711297
2.497327296
2.494585375
2.498197176
2.499554278
2.501517359
2.49727444
2.502271298
2.501873718
2.500276307
2.497594046
2.499561338
2.499021638
2.496739657
2.496856814
2.498876221
)
;
    }
    inlet
    {
        type            cyclic;
    }
    outlet
    {
        type            cyclic;
    }
    back
    {
        type            symmetry;
    }
    front
    {
        type            symmetry;
    }
}


// ************************************************************************* //
