/*--------------------------------*- C++ -*----------------------------------*\
| =========                 |                                                 |
| \\      /  F ield         | OpenFOAM: The Open Source CFD Toolbox           |
|  \\    /   O peration     | Version:  v1706                                 |
|   \\  /    A nd           | Web:      www.OpenFOAM.com                      |
|    \\/     M anipulation  |                                                 |
\*---------------------------------------------------------------------------*/
FoamFile
{
    version     2.0;
    format      ascii;
    class       volScalarField;
    location    "0.26";
    object      overallT_Ar;
}
// * * * * * * * * * * * * * * * * * * * * * * * * * * * * * * * * * * * * * //

dimensions      [0 0 0 1 0 0 0];


internalField   nonuniform List<scalar> 
1000
(
272.4186875
272.611117
272.6069377
272.7605891
272.7189508
272.967093
272.5151977
272.6321361
272.4547868
272.2213956
272.1851177
272.4632681
272.7917203
272.6795267
272.2835753
271.9222363
272.8509927
272.6011722
272.3709994
272.4169941
272.5186577
272.5394633
272.4676891
272.3571659
272.4907834
272.1791694
272.4361784
272.6750172
272.5453898
272.2338954
272.6516954
272.5649776
272.3691139
272.4273577
272.1610432
272.4547197
272.5884892
272.5624971
272.6599833
272.7673507
272.6360703
273.065215
272.9891164
272.7499345
272.7538394
273.235938
273.1627934
272.9910954
272.8102259
272.5074425
272.5020754
272.5705451
273.0960702
272.5770017
272.6923497
272.3905987
272.9121862
272.9866627
272.9630453
273.1870836
272.9902401
272.7301127
272.8062296
272.7284195
273.3463219
273.3718398
272.8652687
272.737871
272.9144219
272.8753948
273.2427338
273.5237011
273.3067755
273.5346302
273.4121322
273.2740037
273.3457783
272.9785233
273.5245261
273.585975
273.3702091
273.5337012
273.3494138
273.5105321
273.5813248
273.4654545
273.6042
273.796496
273.7232796
273.5533671
273.3504657
273.2818527
273.89052
273.8661106
273.9836491
273.7702432
274.0209075
273.8859147
273.4086128
273.2293307
273.4864475
273.8565729
273.6814632
273.2663613
273.2911743
273.4028537
273.2445959
273.3138796
273.572472
273.2782622
273.2968385
273.3672327
273.2747959
273.7297415
273.4698816
273.4840292
273.8156379
273.4523115
273.7863459
273.9103373
273.7153845
273.9822095
273.6969057
273.4489138
273.5154832
273.5892393
273.4879459
273.7110425
273.6535587
273.4566178
273.0951806
272.9026703
273.2757815
273.2995433
273.313713
273.3576074
273.2930023
272.9931538
273.169097
273.2448915
273.5160435
273.1588719
273.2325471
273.8859158
273.0922109
273.1687808
273.3737334
273.6502584
273.5828992
272.9945592
272.8618033
273.2757237
273.1780159
273.1211391
273.3979094
272.8667825
273.2862893
273.510139
273.6030617
273.2781839
272.8243459
272.9193084
273.5033249
273.309334
273.0160824
273.334827
273.0587078
273.283712
272.7686117
273.1794718
272.5882525
273.2659273
272.5204465
272.6603634
273.1947232
272.4918008
272.4187454
272.8982379
273.4907765
273.1168406
272.8409505
272.636931
273.0258794
272.7459324
272.5233742
272.6478904
272.4084393
272.90252
273.3400037
272.9166423
272.7571991
273.1534198
273.4170054
272.8224976
272.7989085
272.4027899
272.0931041
272.2708598
272.7147373
272.6918874
272.7061541
272.7910832
272.8746917
272.6718862
272.2676451
272.8596105
272.8177905
272.3650072
272.5041889
272.3279918
271.9187836
272.2491644
272.2517356
272.4229202
272.1971941
271.8629201
272.4306719
272.3795439
272.5684921
272.4166781
272.186225
272.8666429
272.6413151
272.4708012
272.7039401
272.8623297
272.5320885
272.3724213
272.3692974
272.0513732
272.1014469
272.172457
272.1670132
272.385121
272.582664
272.3494379
272.7709097
272.7664482
272.8764537
272.6260092
273.0815844
272.7364086
273.0752266
272.6977794
273.1892149
272.9505541
272.9700517
272.8063911
272.3862778
272.7151646
272.5310085
272.543454
272.9710076
272.6428291
272.354578
272.7449444
273.0437512
272.9186618
273.0999192
273.1657633
273.5482961
273.2915884
273.293526
273.2884492
273.4599148
273.0321323
273.0162712
273.0513944
273.0373282
273.4578067
273.4474199
273.6837699
273.5011404
273.1126008
273.4401553
273.6016464
273.7438184
273.5836591
273.6212103
273.2700611
273.539182
273.4019145
273.530079
273.4038733
273.4623795
273.4307226
273.3213843
273.6968429
273.6017789
273.4891516
273.6454835
273.0974175
273.3410236
273.9366242
273.5351146
273.5729754
273.7400915
273.987395
273.2272732
273.6826508
273.7080428
273.9676788
273.9735177
273.5176774
273.7476326
273.7234282
273.2139656
273.3256181
273.1691929
273.0975693
273.4155262
273.4623054
273.3739058
273.564838
273.4032113
273.744733
273.6827535
273.8361245
273.6512815
273.9416254
273.5217541
273.3325576
273.631224
273.6937442
273.532405
273.7331174
273.4558508
273.8073735
273.552988
273.2755946
273.2586746
273.2663599
273.1423955
273.3592627
273.435984
273.9804797
273.1954245
273.4841849
273.4227593
273.4478595
273.4076369
272.7944448
273.2327892
273.6550795
273.6145631
273.2209328
273.2949802
273.3548614
273.3381831
273.1658934
273.1377169
272.9086378
272.8109781
273.1383432
273.0261397
273.1712532
272.9110152
273.3871056
273.4296736
273.337154
273.3054362
272.9301467
273.2447612
273.3361316
273.3641058
273.1635721
273.2825475
273.2180428
273.0413597
272.584136
272.6972831
272.7037539
272.8326427
273.0045056
273.1042782
272.8709138
273.1157959
272.7458635
272.9142824
272.8633386
273.0690988
272.9588557
272.6122625
272.9948336
272.6271654
272.4732204
272.8587178
272.8414013
273.2816317
273.4662455
272.8102349
272.9951897
273.0568223
273.1098864
273.1181892
272.6263321
272.5277511
273.1159659
272.6852162
272.5598683
272.4204901
272.9043268
272.7156866
272.5009445
273.0816419
272.9759004
273.1261243
273.0849547
272.7473701
271.9777578
271.87668
272.4804414
272.0723488
272.2999957
272.0734709
272.7238018
272.2617283
272.650417
272.3915995
272.0920602
272.9222382
272.8578767
272.4964135
272.457645
272.2946281
272.5385497
272.6708256
272.5883106
272.5600017
272.2079459
271.9057414
272.4081185
272.380885
272.663353
272.2180574
272.8359305
272.9158918
272.7659046
272.5255784
272.7167769
272.9754677
272.8188398
272.9185214
273.2148878
272.8977974
273.1953143
273.0553455
272.8529144
272.6611862
272.7656747
272.8338637
272.8436107
272.7645434
272.541359
272.6822907
272.9989772
272.8799913
272.9412036
273.0840356
273.3075902
273.6617453
273.3293931
273.5339428
273.2005683
273.60741
273.3425627
273.027424
272.4588487
272.9664629
272.9670362
273.04284
273.1717706
273.4187289
273.2660369
273.4727042
273.538729
273.5547239
273.6172972
273.2682205
273.4596909
273.469014
273.1817508
273.2099694
272.9963528
273.1347824
273.5990433
273.5695621
274.1274659
273.572134
273.4312295
273.4422151
273.4091494
273.460859
273.8550385
273.7789276
273.4191467
273.5879266
273.6668933
273.8153414
273.6465149
273.8265205
273.7592412
273.3917568
273.7150538
273.8162604
273.7122833
273.2730919
273.7984251
273.4667494
273.4823008
273.2120907
273.8925353
273.1850492
273.4892048
273.5024998
273.8995025
273.6950715
273.3250833
273.7118061
273.513506
273.531531
273.5213528
273.3802604
273.3998822
273.2809033
273.480064
273.5712137
273.5854475
273.7204797
273.564067
273.3960548
273.2928555
273.1515123
273.4577241
273.2066015
273.3265697
273.070276
273.0529628
273.2032298
273.602334
273.6478238
273.2714062
273.1539127
273.2954259
273.2207167
272.7012314
273.0920755
273.3666276
273.1505102
273.3720472
273.2836813
272.8691456
273.2488836
272.917349
273.3786173
273.1669179
272.9915813
273.0347654
272.989976
273.1509033
272.9633504
273.3491235
273.2998442
273.4368118
273.4416779
273.4520679
273.2000695
273.1657053
272.9013468
272.8680435
272.4474632
272.664689
273.2284536
272.9437954
273.0727991
273.0967566
273.2475383
273.328729
272.880378
272.5688892
272.5500527
273.3001228
272.9449659
273.0709363
272.8041297
273.0434834
272.9902981
273.2111965
273.1609043
272.8885307
272.5738941
272.8426621
273.0185649
273.0654521
272.5267965
272.7960687
272.7767818
273.4162736
272.9452281
272.4926391
272.4805774
272.5865394
272.6521376
272.8917943
273.1623266
273.0282035
272.8232123
273.0312159
272.5516338
272.5677843
272.6704488
272.1556815
271.7862316
272.2657367
272.4561758
272.416828
272.7671526
272.4715194
272.7125698
272.770052
273.0189438
273.1183372
272.7399271
272.7445543
272.4240787
272.4451295
272.3517725
272.6170083
272.6342886
272.2927641
272.397154
272.341507
272.2620543
272.1849998
272.1993843
272.2931939
272.9201217
273.029431
272.6672106
272.6081956
272.8115605
272.9486026
273.1066171
272.997707
273.1078786
273.105898
272.8308557
273.102308
272.4756773
272.9019211
273.0870187
273.2108575
272.8429512
272.791871
272.5699739
273.1526693
273.013056
272.9159214
273.2387668
272.9743815
272.9310346
273.2790732
273.6437077
273.5205917
273.680355
273.0421215
273.3212642
272.8496408
272.7373024
273.1596745
272.9973842
273.1186199
273.4425972
273.5996053
273.7099983
273.0796171
272.8818322
273.4314846
273.1935838
273.3355071
273.168745
273.1267053
273.1267599
273.3019425
273.7198548
273.5731108
273.5710696
273.4704764
273.4620202
273.4068928
273.9583077
273.5376873
273.7715884
273.634644
273.8545588
273.7236019
273.7237568
273.6215461
273.4067496
273.3701209
273.5710898
273.5226561
273.6383274
273.8990539
273.5230528
274.0134012
273.4863266
273.9031058
273.7629628
273.5449343
273.6067128
273.0875236
273.411038
273.3511536
273.5223475
273.4608283
273.7213418
273.3955916
273.1888851
273.0537638
273.1073672
273.3217801
273.9007259
273.5733011
273.5120095
273.3192645
273.4574407
273.7424704
273.6329308
273.2984153
273.3012976
273.0237025
273.7201535
273.4668752
272.8539677
273.2304397
273.3008632
273.2806046
272.7523508
273.2372369
273.1741372
273.1158026
272.7433495
273.0907379
272.9503684
273.0579189
273.4432985
272.9390048
273.3993925
272.9050526
273.3671621
273.1131823
273.2558802
272.9769409
273.5691521
273.9140992
273.640776
273.1958944
273.1824034
272.9014643
272.9363189
273.2186661
273.4557898
273.8137801
273.5371736
272.7153326
273.1605431
272.9819493
272.6332988
272.5745198
272.7142715
272.6408826
272.6225924
272.7660279
272.643372
272.8659336
273.0934478
273.1182395
272.4158053
272.8157864
272.3193186
272.7046873
272.9616536
272.6721751
272.5881234
273.1761905
272.6182259
272.6913428
272.6926538
272.9029101
272.6523986
272.4455767
272.5191319
272.6821587
272.5239399
272.4326546
272.5536181
272.8037111
272.7320874
272.9720792
272.8719567
272.4561738
273.0293064
272.8786852
272.512867
272.3507977
272.6482137
272.5441417
273.1891136
273.0401582
272.4167872
272.1730329
271.9436353
272.3062989
272.5582048
272.2105395
272.3811843
272.9170891
272.2991156
272.2824173
272.9735457
272.7834528
272.7422385
272.3477804
272.851921
272.4194081
272.424214
272.6169967
272.7664796
272.2624285
272.4894174
272.6810206
272.2098152
272.3378216
272.0847473
272.6231844
272.5858484
272.5384088
272.4344287
272.7911359
272.3972227
272.6452599
272.9114424
273.1223402
273.2599793
272.8733973
273.1470419
272.7562715
272.9589372
272.8221978
273.0169599
272.8633469
272.7810155
272.8287356
272.7795967
273.1163042
272.6424778
272.9117861
272.6586851
272.8480006
273.028346
273.5234856
273.7350835
273.4622969
272.8899694
273.449344
273.088897
273.0777379
273.1450487
273.2382843
273.3874036
273.7614447
273.4640683
273.1276393
273.3332784
273.3355176
273.4088003
273.1379132
273.2624587
272.94622
272.7589032
272.8771526
273.0201942
273.0112004
273.4166576
273.8270341
273.7418343
273.4926316
273.735954
273.8178525
273.6773085
273.3710488
273.7972965
273.8504671
273.502369
273.3319804
273.6773293
273.5209847
273.5893874
273.4624617
273.6616097
273.4573771
273.8192046
273.6865706
273.7925535
273.4771197
273.4358288
273.8487706
273.7605745
273.7522951
273.3737237
273.5360292
273.3995668
273.2859511
273.6186074
273.8543004
273.6675492
273.4265656
273.7138246
273.8370627
273.6150372
273.6936295
273.5890678
273.3092008
273.7229925
273.5982967
273.8315232
273.2974693
273.7271899
273.7130054
273.2287995
273.5664757
272.7134777
272.9107896
273.080912
273.3251406
273.4359185
273.0751648
272.9629227
272.8639536
273.025139
273.4687096
272.9731294
273.1728281
273.1226493
273.0006085
272.7733077
273.165792
273.0276133
272.6520692
273.5030314
273.8349424
273.558952
273.5151225
273.337982
273.5203186
273.5871499
273.1694592
273.1762076
273.2307627
273.0230036
273.0330876
272.9434338
273.3955456
273.6360876
273.1357229
272.6918104
272.8480261
272.4053358
272.7245546
272.8452283
272.6244734
272.4416549
272.3468717
272.7618611
272.8667328
273.4571308
272.9002486
272.7834351
272.7893056
272.7827771
272.9062002
272.6499885
272.5645784
272.6930398
272.2976647
272.4525265
272.8219524
273.189781
272.8915131
272.3901376
272.2758235
272.6511716
272.7862803
272.7792418
272.7577894
272.8057105
272.4186176
272.3841992
272.6286726
)
;

boundaryField
{
    bottom
    {
        type            calculated;
        value           nonuniform List<scalar> 
200
(
272.4186875
272.611117
272.6069377
272.7605891
272.7189508
272.967093
272.5151977
272.6321361
272.4547868
272.2213956
272.1851177
272.4632681
272.7917203
272.6795267
272.2835753
271.9222363
272.8509927
272.6011722
272.3709994
272.4169941
272.5186577
272.5394633
272.4676891
272.3571659
272.4907834
272.1791694
272.4361784
272.6750172
272.5453898
272.2338954
272.6516954
272.5649776
272.3691139
272.4273577
272.1610432
272.4547197
272.5884892
272.5624971
272.6599833
272.7673507
272.6360703
273.065215
272.9891164
272.7499345
272.7538394
273.235938
273.1627934
272.9910954
272.8102259
272.5074425
272.5020754
272.5705451
273.0960702
272.5770017
272.6923497
272.3905987
272.9121862
272.9866627
272.9630453
273.1870836
272.9902401
272.7301127
272.8062296
272.7284195
273.3463219
273.3718398
272.8652687
272.737871
272.9144219
272.8753948
273.2427338
273.5237011
273.3067755
273.5346302
273.4121322
273.2740037
273.3457783
272.9785233
273.5245261
273.585975
273.3702091
273.5337012
273.3494138
273.5105321
273.5813248
273.4654545
273.6042
273.796496
273.7232796
273.5533671
273.3504657
273.2818527
273.89052
273.8661106
273.9836491
273.7702432
274.0209075
273.8859147
273.4086128
273.2293307
273.4864475
273.8565729
273.6814632
273.2663613
273.2911743
273.4028537
273.2445959
273.3138796
273.572472
273.2782622
273.2968385
273.3672327
273.2747959
273.7297415
273.4698816
273.4840292
273.8156379
273.4523115
273.7863459
273.9103373
273.7153845
273.9822095
273.6969057
273.4489138
273.5154832
273.5892393
273.4879459
273.7110425
273.6535587
273.4566178
273.0951806
272.9026703
273.2757815
273.2995433
273.313713
273.3576074
273.2930023
272.9931538
273.169097
273.2448915
273.5160435
273.1588719
273.2325471
273.8859158
273.0922109
273.1687808
273.3737334
273.6502584
273.5828992
272.9945592
272.8618033
273.2757237
273.1780159
273.1211391
273.3979094
272.8667825
273.2862893
273.510139
273.6030617
273.2781839
272.8243459
272.9193084
273.5033249
273.309334
273.0160824
273.334827
273.0587078
273.283712
272.7686117
273.1794718
272.5882525
273.2659273
272.5204465
272.6603634
273.1947232
272.4918008
272.4187454
272.8982379
273.4907765
273.1168406
272.8409505
272.636931
273.0258794
272.7459324
272.5233742
272.6478904
272.4084393
272.90252
273.3400037
272.9166423
272.7571991
273.1534198
273.4170054
272.8224976
272.7989085
272.4027899
272.0931041
272.2708598
272.7147373
272.6918874
)
;
    }
    top
    {
        type            calculated;
        value           nonuniform List<scalar> 
200
(
272.8719567
272.4561738
273.0293064
272.8786852
272.512867
272.3507977
272.6482137
272.5441417
273.1891136
273.0401582
272.4167872
272.1730329
271.9436353
272.3062989
272.5582048
272.2105395
272.3811843
272.9170891
272.2991156
272.2824173
272.9735457
272.7834528
272.7422385
272.3477804
272.851921
272.4194081
272.424214
272.6169967
272.7664796
272.2624285
272.4894174
272.6810206
272.2098152
272.3378216
272.0847473
272.6231844
272.5858484
272.5384088
272.4344287
272.7911359
272.3972227
272.6452599
272.9114424
273.1223402
273.2599793
272.8733973
273.1470419
272.7562715
272.9589372
272.8221978
273.0169599
272.8633469
272.7810155
272.8287356
272.7795967
273.1163042
272.6424778
272.9117861
272.6586851
272.8480006
273.028346
273.5234856
273.7350835
273.4622969
272.8899694
273.449344
273.088897
273.0777379
273.1450487
273.2382843
273.3874036
273.7614447
273.4640683
273.1276393
273.3332784
273.3355176
273.4088003
273.1379132
273.2624587
272.94622
272.7589032
272.8771526
273.0201942
273.0112004
273.4166576
273.8270341
273.7418343
273.4926316
273.735954
273.8178525
273.6773085
273.3710488
273.7972965
273.8504671
273.502369
273.3319804
273.6773293
273.5209847
273.5893874
273.4624617
273.6616097
273.4573771
273.8192046
273.6865706
273.7925535
273.4771197
273.4358288
273.8487706
273.7605745
273.7522951
273.3737237
273.5360292
273.3995668
273.2859511
273.6186074
273.8543004
273.6675492
273.4265656
273.7138246
273.8370627
273.6150372
273.6936295
273.5890678
273.3092008
273.7229925
273.5982967
273.8315232
273.2974693
273.7271899
273.7130054
273.2287995
273.5664757
272.7134777
272.9107896
273.080912
273.3251406
273.4359185
273.0751648
272.9629227
272.8639536
273.025139
273.4687096
272.9731294
273.1728281
273.1226493
273.0006085
272.7733077
273.165792
273.0276133
272.6520692
273.5030314
273.8349424
273.558952
273.5151225
273.337982
273.5203186
273.5871499
273.1694592
273.1762076
273.2307627
273.0230036
273.0330876
272.9434338
273.3955456
273.6360876
273.1357229
272.6918104
272.8480261
272.4053358
272.7245546
272.8452283
272.6244734
272.4416549
272.3468717
272.7618611
272.8667328
273.4571308
272.9002486
272.7834351
272.7893056
272.7827771
272.9062002
272.6499885
272.5645784
272.6930398
272.2976647
272.4525265
272.8219524
273.189781
272.8915131
272.3901376
272.2758235
272.6511716
272.7862803
272.7792418
272.7577894
272.8057105
272.4186176
272.3841992
272.6286726
)
;
    }
    inlet
    {
        type            cyclic;
    }
    outlet
    {
        type            cyclic;
    }
    back
    {
        type            symmetry;
    }
    front
    {
        type            symmetry;
    }
}


// ************************************************************************* //
