/*--------------------------------*- C++ -*----------------------------------*\
| =========                 |                                                 |
| \\      /  F ield         | OpenFOAM: The Open Source CFD Toolbox           |
|  \\    /   O peration     | Version:  v1706                                 |
|   \\  /    A nd           | Web:      www.OpenFOAM.com                      |
|    \\/     M anipulation  |                                                 |
\*---------------------------------------------------------------------------*/
FoamFile
{
    version     2.0;
    format      ascii;
    class       volScalarField;
    location    "0.26";
    object      p_Ar;
}
// * * * * * * * * * * * * * * * * * * * * * * * * * * * * * * * * * * * * * //

dimensions      [1 -1 -2 0 0 0 0];


internalField   nonuniform List<scalar> 
1000
(
0.5267851304
0.5265918338
0.5273235894
0.52701903
0.5280953639
0.5281633146
0.5271413957
0.5280156639
0.5271560147
0.5272840113
0.5282348176
0.5283573145
0.5286201308
0.5279171772
0.5271180159
0.5284179949
0.5287231398
0.52803015
0.5273337895
0.527715462
0.5284747198
0.5281097345
0.5272414598
0.5271004019
0.5272843079
0.52647012
0.526653043
0.5282774006
0.5285586499
0.5273513119
0.527127555
0.5277914217
0.527672918
0.5281504314
0.5270523254
0.5272210964
0.5284367697
0.5267546575
0.5274727765
0.5270955382
0.5275504476
0.528366084
0.5275111683
0.5277886748
0.5271768303
0.5280685443
0.5281789515
0.5278424827
0.5277452602
0.5276563413
0.5266723389
0.5268949023
0.5273435728
0.5273748553
0.5278272567
0.5274934526
0.5275684841
0.5273362295
0.526952086
0.5270924575
0.5273676424
0.5272504715
0.5267565138
0.5280876411
0.5277083533
0.5281578548
0.5284924607
0.5278840447
0.5269754292
0.5271721179
0.5274142268
0.527379223
0.5274911527
0.52738208
0.5265524478
0.5266749223
0.5278410555
0.5282955554
0.5277189753
0.5276593023
0.5279351947
0.5279639738
0.5282308693
0.5274955833
0.5268965071
0.5274862402
0.5281969575
0.5288998151
0.527448869
0.5273830918
0.5273686456
0.5274580844
0.5289698941
0.5292663577
0.5272691611
0.5272957548
0.5286793032
0.5276877161
0.5264928959
0.527489616
0.5275494329
0.5286817883
0.5276670268
0.5266812918
0.5280104482
0.5276974322
0.527130902
0.527430478
0.5272081731
0.5272807754
0.5282339845
0.5284069803
0.527939507
0.5288583075
0.5275866272
0.5271612583
0.527495235
0.5281755647
0.5283551728
0.5280274111
0.5275580781
0.5282487268
0.5283151729
0.528708697
0.528171666
0.5281305812
0.5274047767
0.5276220899
0.5275363709
0.5279994044
0.5270930466
0.5268676654
0.5270338735
0.5272804254
0.5273523418
0.5270463156
0.5264720445
0.5284079166
0.5275114774
0.527217179
0.5287814726
0.5282090681
0.5279573018
0.5292282408
0.5273635314
0.5277273145
0.5282765461
0.5290124236
0.5283704996
0.5275311706
0.5269064815
0.5276799308
0.5273713026
0.5280525448
0.5285103417
0.5280861503
0.5272506341
0.5276460792
0.5273838369
0.5283804398
0.5278160207
0.5289290083
0.5276421724
0.5275430426
0.528052317
0.5284954986
0.5279969328
0.5285723248
0.5274088768
0.5268731793
0.5269770122
0.5273964903
0.5265955384
0.5271240508
0.5260947271
0.5273275653
0.5277627613
0.527552846
0.5282997468
0.5267196992
0.5270097249
0.5275971078
0.5276227865
0.5279773009
0.5273194932
0.5277701456
0.5274194216
0.5280302076
0.5281554392
0.5276468983
0.5283252674
0.5295849257
0.528772345
0.5282650662
0.5263487707
0.5274899826
0.5273503736
0.5275682297
0.5285114848
0.5273431654
0.5283443046
0.5278880457
0.5274148898
0.5277418575
0.5276770939
0.5281965671
0.5273702092
0.5274599284
0.5277844333
0.5273708981
0.5270542455
0.5279184797
0.5283273187
0.5269189907
0.5275190125
0.5266604983
0.5273993645
0.5275616859
0.5285905632
0.5288025222
0.5266944455
0.5267509714
0.5276803206
0.5268735451
0.527546759
0.5267908369
0.5285028693
0.5286343346
0.528510244
0.5279279961
0.5272284106
0.5285514648
0.5272212274
0.5281970975
0.5270172445
0.5270097453
0.5280388143
0.5273330892
0.5269126499
0.5272681273
0.5279555126
0.5278956916
0.5279397948
0.5274958898
0.5276718735
0.5272116843
0.5273083568
0.5273310597
0.527179088
0.52658989
0.5270115351
0.5272626016
0.5280913275
0.5275682624
0.5268809051
0.5280043437
0.5282947751
0.5270012637
0.5267044613
0.52676264
0.5268336883
0.5270316523
0.5273468889
0.5279904131
0.5285834916
0.5270569988
0.5277952504
0.5277071432
0.5271671635
0.5275696659
0.52693868
0.5276601163
0.5277015724
0.5271016284
0.5275366675
0.5283425403
0.5285819458
0.5286204284
0.5282496017
0.5276937878
0.5280030642
0.5276328198
0.5283482123
0.5275690502
0.5265404808
0.5267848499
0.5273259927
0.5277724901
0.5283472851
0.5279561145
0.5279470601
0.5272170249
0.5278429539
0.5271831583
0.52737615
0.5278710646
0.527734095
0.528215887
0.5268896917
0.5277649335
0.5282090818
0.5277299656
0.5275090558
0.5275460564
0.527568186
0.5278020925
0.526322425
0.5268007766
0.5277441927
0.5277792502
0.5273870311
0.5280322917
0.5274959214
0.5278033507
0.526704933
0.5274915296
0.5272870467
0.5289377813
0.5277049697
0.5287169628
0.5275734539
0.5271726521
0.5276522945
0.527679875
0.5280475326
0.527462014
0.5275381815
0.5286261826
0.5274045377
0.5278221023
0.527716106
0.5280279117
0.5270281154
0.5273861451
0.5278920063
0.5281795504
0.5276327165
0.5283833531
0.5278342809
0.5278347048
0.5285745316
0.5276157395
0.5274142818
0.5274283769
0.5279233185
0.527508474
0.5286597955
0.5281144996
0.5279451001
0.5273769002
0.5281043671
0.5277749691
0.5279423428
0.5279131428
0.5280828363
0.5282274735
0.5267520808
0.5269504204
0.5287562053
0.5280673631
0.5287958171
0.5273658724
0.5277767892
0.5273668436
0.5280988533
0.5274507179
0.5278782589
0.5285747807
0.5274909033
0.5277445988
0.5270209352
0.5275485043
0.5279692591
0.5274297169
0.5279680213
0.5279140133
0.5282196091
0.5280627176
0.5279225865
0.527105111
0.5279213592
0.5278578593
0.5266671889
0.5286590945
0.5283688746
0.5269884066
0.5278901547
0.5272776053
0.5286236882
0.5279728626
0.5282481677
0.5279112613
0.5285311539
0.5282100248
0.5277144541
0.5266059635
0.5267879812
0.5280151298
0.5278705574
0.5277028756
0.5273565168
0.5282228131
0.5277471438
0.5272050841
0.5281377403
0.5270240606
0.527479368
0.5278795348
0.5276715754
0.5269449126
0.5280198441
0.5287635152
0.5282478239
0.5279027285
0.5271256261
0.5284182402
0.5274123223
0.5285707685
0.5281586598
0.5269702064
0.5277720334
0.5274929922
0.5279721394
0.5273198424
0.5274566073
0.5281866104
0.5279413841
0.5284935116
0.5265449176
0.5268636293
0.5273596156
0.5275731258
0.5276423583
0.5275998187
0.5271488118
0.5288727456
0.5277916316
0.5272743864
0.5272743106
0.5289273501
0.5276639419
0.5270483768
0.5273966159
0.5287914896
0.5277711245
0.5281263478
0.5274739132
0.5277957135
0.5280469269
0.5271562693
0.5276158819
0.5278809403
0.5273007126
0.5280281851
0.5281243794
0.5280155443
0.5285330905
0.5271354079
0.5269326414
0.5271980905
0.5288909512
0.5277466321
0.5278086849
0.5276777189
0.5280785169
0.5279994617
0.5273374995
0.5271336341
0.5267489823
0.5277962266
0.5265835733
0.5264591721
0.5267292856
0.5268874334
0.5276350938
0.5283517208
0.5279047544
0.5274136532
0.5283646043
0.5273107009
0.5282785587
0.5277526347
0.5274116311
0.5266704459
0.5269472607
0.527903936
0.5267524011
0.5278475335
0.5281260767
0.5273347227
0.5276163817
0.5270177133
0.5275019207
0.5277003822
0.5274937417
0.5283022923
0.527401135
0.5283005558
0.5273781236
0.5273772729
0.5281346009
0.5279728687
0.5272480422
0.5269878981
0.5271100801
0.5286526069
0.5284934974
0.5282085725
0.5279846564
0.5281616972
0.5270312792
0.5285577189
0.5272066498
0.5279849876
0.5274302034
0.5278954998
0.527840394
0.5277546658
0.5275377089
0.5279500709
0.5270062557
0.5271555923
0.5276459093
0.5278117542
0.5279423385
0.52845167
0.5288783627
0.5281280144
0.5277129288
0.5286710193
0.5278719129
0.528066712
0.5279206693
0.5281490707
0.5280922683
0.527483984
0.5278195351
0.5282303775
0.52768576
0.5282699319
0.5284211476
0.5281777076
0.5280457852
0.5287535017
0.52817229
0.528278182
0.5275804476
0.5274892648
0.5274038797
0.5268192911
0.5281610791
0.5275692908
0.5285809117
0.5277652127
0.528147731
0.527493033
0.5273286055
0.527364591
0.5278100196
0.5278759947
0.5276987396
0.5284640468
0.5273677847
0.5286053369
0.5280141019
0.5279410037
0.5273213293
0.5271276644
0.5277840466
0.5281428407
0.5269341197
0.5269784689
0.5285234599
0.5278595557
0.5268405929
0.527622437
0.5267323031
0.527828181
0.5272362606
0.5275472473
0.527504477
0.5282603788
0.5277406447
0.527630005
0.5271128993
0.5285264165
0.5265668151
0.5276521029
0.5282920876
0.5275633145
0.5276008661
0.5276149906
0.5277417159
0.5274581223
0.5278973936
0.5282999843
0.5280707161
0.5277908868
0.5280909779
0.528500004
0.5265547894
0.5269326603
0.527651007
0.5278119259
0.5283193561
0.5280652207
0.5271252834
0.5282291508
0.527561461
0.5284560827
0.5286209186
0.5277232859
0.5272104529
0.5277348828
0.527570484
0.5271987783
0.5281455291
0.5266053934
0.5286575708
0.528513381
0.5276952828
0.5291584252
0.5275124019
0.5274368547
0.5282032316
0.5278998575
0.5277720614
0.5279121694
0.5279922047
0.5278976436
0.5269456561
0.5274612038
0.5268918928
0.5274278687
0.5277793931
0.527174479
0.5277068319
0.5277105459
0.5280754361
0.5274359976
0.5280400988
0.5277013131
0.5274303606
0.5270045089
0.5279180483
0.5279642998
0.5270199806
0.5280511922
0.5278157293
0.5287667807
0.5271916787
0.5275937025
0.5279036269
0.5295318822
0.5269156322
0.526399161
0.527759524
0.5277995905
0.5271146464
0.5266804854
0.5275783158
0.5283083106
0.5276834979
0.5276401103
0.5288466207
0.5275405987
0.5277705047
0.5279852996
0.5269814064
0.5278386375
0.5261394283
0.527533936
0.5272260141
0.5278434956
0.5281610799
0.5278423346
0.5267776596
0.5278577222
0.5285888952
0.5282952702
0.5276136169
0.5265270542
0.5267904945
0.5269231649
0.5281122074
0.5266932266
0.5273483092
0.5269886529
0.5276997269
0.5273017723
0.5276971081
0.5272520166
0.5277255909
0.5271391627
0.5273254718
0.5272130538
0.5275491184
0.5276016791
0.526991978
0.5274316302
0.5269729012
0.5274017583
0.5279496273
0.5273905314
0.5282382875
0.5283821194
0.528120906
0.5277277106
0.5278915349
0.5277322133
0.5280893181
0.5276016997
0.5272963094
0.5276654457
0.5289597036
0.5280975313
0.5286650834
0.5274443601
0.5275523265
0.5276835249
0.5268129235
0.5268598537
0.5277292052
0.5283371771
0.5281280021
0.5274598621
0.5284755174
0.5280298218
0.5275467818
0.5281407583
0.5274262442
0.5284377986
0.5287460023
0.5281472143
0.5275960361
0.5286016647
0.5283818237
0.5284655632
0.5277391236
0.5278271274
0.5272232924
0.5279821292
0.5279365018
0.5279631938
0.5282542387
0.5282549866
0.5277013379
0.5272072889
0.52820924
0.5269620788
0.5281878644
0.528193731
0.5283570952
0.5276686338
0.5282211779
0.5273076773
0.5281505741
0.5276805565
0.5281114079
0.5280387002
0.5284219749
0.5273403478
0.5280461022
0.5282886692
0.5280401067
0.5264267664
0.5278044623
0.5273932527
0.527147507
0.5278951323
0.5288880117
0.5275179219
0.5271131238
0.5272138139
0.5277813972
0.5268091184
0.5275975948
0.5274670399
0.5265266351
0.5267194109
0.5271425327
0.5277613893
0.5275850782
0.5274918885
0.526153326
0.5286430359
0.52808239
0.5280874335
0.5275270309
0.5282248119
0.5280575383
0.5267114411
0.5270887761
0.5277001577
0.52773142
0.5283003155
0.5283307642
0.5282650236
0.5274703908
0.5280768033
0.5280200551
0.5269441298
0.5273308585
0.5282803695
0.5273970006
0.5278329934
0.5272771269
0.5267425939
0.5276737871
0.5284917839
0.5273858935
0.5274643077
0.5271457203
0.5282374122
0.5270896423
0.527370959
0.5280737969
0.5277994784
0.5276382224
0.5271701703
0.5279784753
0.5277632342
0.5268295854
0.5268530355
0.5284310587
0.528008557
0.5279626587
0.5279247759
0.5284122155
0.5284048262
0.527882319
0.5285350939
0.5272760298
0.526700249
0.5274308111
0.5275005177
0.527465896
0.5269837606
0.5267887507
0.5266857722
0.5265485554
0.5269619691
0.5271295543
0.5287931948
0.5280010774
0.5278334912
0.5271767984
0.5270225336
0.5286306768
0.5271027855
0.527411092
0.5266076696
0.5275618597
0.5277168191
0.527951905
0.5269693374
0.5270415833
0.527851383
0.5275271049
0.5272603393
0.526924262
0.5275232055
0.5280956212
0.5271600117
0.5275558243
0.5272150068
0.5266254836
0.5274362593
0.527783223
0.5278776725
0.5281148378
0.527927975
0.5278142634
0.5270940119
0.527661277
0.5274002168
0.5281501017
0.5271839591
0.5276453499
0.5281982667
0.5271539753
0.5268049694
0.526958067
0.5279672535
0.5276895071
0.5273062983
0.5268043279
0.527434665
0.5280600501
0.5269934327
0.5281859558
0.5274608591
0.5277714466
0.5280465242
0.5274323269
0.5275258177
0.5279897473
0.5277498917
0.5268024561
0.5270426198
0.5264946395
0.526889249
0.5276136266
0.5276472904
0.5289627518
0.5274242815
0.5277660917
0.5281534642
0.5275883719
0.5287800849
0.527796608
0.5281838859
0.5272166644
0.5273750002
0.5272529814
0.5281310916
0.528067283
0.5289520694
0.5288212155
0.5292884485
0.5285566805
0.5277137286
0.5271221271
0.5274939872
0.5274422398
0.5273500952
0.5277512671
0.5265827263
0.5275224484
0.527807883
0.5284893209
0.528847025
0.5272675306
0.5268138055
0.5274740165
0.5278616112
0.5285605947
0.5283260378
0.5273654509
0.5278747398
0.5273844687
0.5283405218
0.5274028214
0.5276573587
0.5279792858
0.5279030332
0.526751915
0.5272860135
0.5266704123
0.5268211926
0.5273214205
0.5274259186
0.5289127414
0.5282950368
0.5282538882
0.5289850817
0.5280399418
0.527478431
0.5280018811
0.5292691843
0.5275632118
0.5277310524
0.5272279613
0.5280471869
0.5279799018
0.5278039535
0.5274151274
0.5267216161
0.5269738401
0.5262776922
0.5269126569
0.5269465261
0.5274934602
0.5267269514
0.5275461379
0.527421628
0.5285612196
0.5283318603
0.5274151607
0.5274741634
0.5275407829
0.5281679676
0.5270700484
0.5272576971
0.5284102204
0.5274480357
0.5282710106
0.5280865433
0.5283761467
0.527494546
0.5276042869
0.5263716997
0.527043127
0.5275915239
0.5281470858
0.5276977878
0.5278868632
0.5277619881
0.527683216
0.5276400647
)
;

boundaryField
{
    bottom
    {
        type            calculated;
        value           nonuniform List<scalar> 
200
(
0.5267851304
0.5265918338
0.5273235894
0.52701903
0.5280953639
0.5281633146
0.5271413957
0.5280156639
0.5271560147
0.5272840113
0.5282348176
0.5283573145
0.5286201308
0.5279171772
0.5271180159
0.5284179949
0.5287231398
0.52803015
0.5273337895
0.527715462
0.5284747198
0.5281097345
0.5272414598
0.5271004019
0.5272843079
0.52647012
0.526653043
0.5282774006
0.5285586499
0.5273513119
0.527127555
0.5277914217
0.527672918
0.5281504314
0.5270523254
0.5272210964
0.5284367697
0.5267546575
0.5274727765
0.5270955382
0.5275504476
0.528366084
0.5275111683
0.5277886748
0.5271768303
0.5280685443
0.5281789515
0.5278424827
0.5277452602
0.5276563413
0.5266723389
0.5268949023
0.5273435728
0.5273748553
0.5278272567
0.5274934526
0.5275684841
0.5273362295
0.526952086
0.5270924575
0.5273676424
0.5272504715
0.5267565138
0.5280876411
0.5277083533
0.5281578548
0.5284924607
0.5278840447
0.5269754292
0.5271721179
0.5274142268
0.527379223
0.5274911527
0.52738208
0.5265524478
0.5266749223
0.5278410555
0.5282955554
0.5277189753
0.5276593023
0.5279351947
0.5279639738
0.5282308693
0.5274955833
0.5268965071
0.5274862402
0.5281969575
0.5288998151
0.527448869
0.5273830918
0.5273686456
0.5274580844
0.5289698941
0.5292663577
0.5272691611
0.5272957548
0.5286793032
0.5276877161
0.5264928959
0.527489616
0.5275494329
0.5286817883
0.5276670268
0.5266812918
0.5280104482
0.5276974322
0.527130902
0.527430478
0.5272081731
0.5272807754
0.5282339845
0.5284069803
0.527939507
0.5288583075
0.5275866272
0.5271612583
0.527495235
0.5281755647
0.5283551728
0.5280274111
0.5275580781
0.5282487268
0.5283151729
0.528708697
0.528171666
0.5281305812
0.5274047767
0.5276220899
0.5275363709
0.5279994044
0.5270930466
0.5268676654
0.5270338735
0.5272804254
0.5273523418
0.5270463156
0.5264720445
0.5284079166
0.5275114774
0.527217179
0.5287814726
0.5282090681
0.5279573018
0.5292282408
0.5273635314
0.5277273145
0.5282765461
0.5290124236
0.5283704996
0.5275311706
0.5269064815
0.5276799308
0.5273713026
0.5280525448
0.5285103417
0.5280861503
0.5272506341
0.5276460792
0.5273838369
0.5283804398
0.5278160207
0.5289290083
0.5276421724
0.5275430426
0.528052317
0.5284954986
0.5279969328
0.5285723248
0.5274088768
0.5268731793
0.5269770122
0.5273964903
0.5265955384
0.5271240508
0.5260947271
0.5273275653
0.5277627613
0.527552846
0.5282997468
0.5267196992
0.5270097249
0.5275971078
0.5276227865
0.5279773009
0.5273194932
0.5277701456
0.5274194216
0.5280302076
0.5281554392
0.5276468983
0.5283252674
0.5295849257
0.528772345
0.5282650662
0.5263487707
0.5274899826
0.5273503736
0.5275682297
0.5285114848
0.5273431654
)
;
    }
    top
    {
        type            calculated;
        value           nonuniform List<scalar> 
200
(
0.5280200551
0.5269441298
0.5273308585
0.5282803695
0.5273970006
0.5278329934
0.5272771269
0.5267425939
0.5276737871
0.5284917839
0.5273858935
0.5274643077
0.5271457203
0.5282374122
0.5270896423
0.527370959
0.5280737969
0.5277994784
0.5276382224
0.5271701703
0.5279784753
0.5277632342
0.5268295854
0.5268530355
0.5284310587
0.528008557
0.5279626587
0.5279247759
0.5284122155
0.5284048262
0.527882319
0.5285350939
0.5272760298
0.526700249
0.5274308111
0.5275005177
0.527465896
0.5269837606
0.5267887507
0.5266857722
0.5265485554
0.5269619691
0.5271295543
0.5287931948
0.5280010774
0.5278334912
0.5271767984
0.5270225336
0.5286306768
0.5271027855
0.527411092
0.5266076696
0.5275618597
0.5277168191
0.527951905
0.5269693374
0.5270415833
0.527851383
0.5275271049
0.5272603393
0.526924262
0.5275232055
0.5280956212
0.5271600117
0.5275558243
0.5272150068
0.5266254836
0.5274362593
0.527783223
0.5278776725
0.5281148378
0.527927975
0.5278142634
0.5270940119
0.527661277
0.5274002168
0.5281501017
0.5271839591
0.5276453499
0.5281982667
0.5271539753
0.5268049694
0.526958067
0.5279672535
0.5276895071
0.5273062983
0.5268043279
0.527434665
0.5280600501
0.5269934327
0.5281859558
0.5274608591
0.5277714466
0.5280465242
0.5274323269
0.5275258177
0.5279897473
0.5277498917
0.5268024561
0.5270426198
0.5264946395
0.526889249
0.5276136266
0.5276472904
0.5289627518
0.5274242815
0.5277660917
0.5281534642
0.5275883719
0.5287800849
0.527796608
0.5281838859
0.5272166644
0.5273750002
0.5272529814
0.5281310916
0.528067283
0.5289520694
0.5288212155
0.5292884485
0.5285566805
0.5277137286
0.5271221271
0.5274939872
0.5274422398
0.5273500952
0.5277512671
0.5265827263
0.5275224484
0.527807883
0.5284893209
0.528847025
0.5272675306
0.5268138055
0.5274740165
0.5278616112
0.5285605947
0.5283260378
0.5273654509
0.5278747398
0.5273844687
0.5283405218
0.5274028214
0.5276573587
0.5279792858
0.5279030332
0.526751915
0.5272860135
0.5266704123
0.5268211926
0.5273214205
0.5274259186
0.5289127414
0.5282950368
0.5282538882
0.5289850817
0.5280399418
0.527478431
0.5280018811
0.5292691843
0.5275632118
0.5277310524
0.5272279613
0.5280471869
0.5279799018
0.5278039535
0.5274151274
0.5267216161
0.5269738401
0.5262776922
0.5269126569
0.5269465261
0.5274934602
0.5267269514
0.5275461379
0.527421628
0.5285612196
0.5283318603
0.5274151607
0.5274741634
0.5275407829
0.5281679676
0.5270700484
0.5272576971
0.5284102204
0.5274480357
0.5282710106
0.5280865433
0.5283761467
0.527494546
0.5276042869
0.5263716997
0.527043127
0.5275915239
0.5281470858
0.5276977878
0.5278868632
0.5277619881
0.527683216
0.5276400647
)
;
    }
    inlet
    {
        type            cyclic;
    }
    outlet
    {
        type            cyclic;
    }
    back
    {
        type            symmetry;
    }
    front
    {
        type            symmetry;
    }
}


// ************************************************************************* //
