/*--------------------------------*- C++ -*----------------------------------*\
| =========                 |                                                 |
| \\      /  F ield         | OpenFOAM: The Open Source CFD Toolbox           |
|  \\    /   O peration     | Version:  v1706                                 |
|   \\  /    A nd           | Web:      www.OpenFOAM.com                      |
|    \\/     M anipulation  |                                                 |
\*---------------------------------------------------------------------------*/
FoamFile
{
    version     2.0;
    format      ascii;
    class       volScalarField;
    location    "0.26";
    object      rhoM_Ar;
}
// * * * * * * * * * * * * * * * * * * * * * * * * * * * * * * * * * * * * * //

dimensions      [1 -3 0 0 0 0 0];


internalField   nonuniform List<scalar> 
1000
(
9.285954313e-06
9.275994636e-06
9.289027028e-06
9.278432417e-06
9.298801321e-06
9.291543596e-06
9.288943606e-06
9.300358535e-06
9.291260887e-06
9.301484734e-06
9.31949928e-06
9.312144229e-06
9.305558514e-06
9.297007746e-06
9.29643306e-06
9.331743796e-06
9.305349959e-06
9.301670116e-06
9.297253377e-06
9.302411646e-06
9.312320342e-06
9.30517848e-06
9.292326837e-06
9.293610611e-06
9.292294395e-06
9.288568206e-06
9.283029903e-06
9.303505403e-06
9.312885759e-06
9.302244802e-06
9.284049507e-06
9.298699361e-06
9.303296848e-06
9.309724987e-06
9.299459429e-06
9.292410259e-06
9.309266165e-06
9.28051797e-06
9.289847346e-06
9.279549346e-06
9.292030225e-06
9.291770689e-06
9.279322253e-06
9.292345375e-06
9.281440248e-06
9.280735794e-06
9.285161802e-06
9.285083015e-06
9.289527561e-06
9.29828225e-06
9.281125098e-06
9.282714753e-06
9.272741173e-06
9.290950372e-06
9.294987076e-06
9.29939918e-06
9.282946481e-06
9.276328325e-06
9.270372911e-06
9.265237815e-06
9.276759339e-06
9.28354434e-06
9.272259179e-06
9.2983425e-06
9.270660254e-06
9.277690887e-06
9.300803453e-06
9.294435563e-06
9.272435292e-06
9.277222796e-06
9.269005715e-06
9.258869926e-06
9.268185398e-06
9.258550141e-06
9.248127008e-06
9.25495372e-06
9.273009978e-06
9.293480843e-06
9.264806801e-06
9.261678471e-06
9.27383493e-06
9.26879716e-06
9.279734729e-06
9.261358686e-06
9.248446793e-06
9.262721248e-06
9.270498045e-06
9.276314421e-06
9.253340892e-06
9.257933744e-06
9.2645519e-06
9.268449568e-06
9.274358636e-06
9.280383568e-06
9.241397623e-06
9.249067825e-06
9.264853147e-06
9.252033945e-06
9.247200096e-06
9.270785387e-06
9.26311982e-06
9.270456334e-06
9.258582583e-06
9.255324485e-06
9.277839193e-06
9.268551528e-06
9.263963311e-06
9.266878451e-06
9.254216824e-06
9.26545564e-06
9.28157465e-06
9.282223489e-06
9.277148643e-06
9.277848462e-06
9.264334076e-06
9.2563858e-06
9.25103288e-06
9.275271645e-06
9.267105544e-06
9.257164407e-06
9.255523771e-06
9.258615025e-06
9.269432095e-06
9.284749326e-06
9.273060958e-06
9.269839937e-06
9.260529099e-06
9.256793641e-06
9.257233925e-06
9.272032085e-06
9.268366146e-06
9.270938328e-06
9.261201111e-06
9.264728014e-06
9.265511255e-06
9.258647467e-06
9.250745537e-06
9.294959269e-06
9.273213899e-06
9.265469544e-06
9.28374826e-06
9.285824545e-06
9.278895873e-06
9.279044179e-06
9.273223168e-06
9.277018875e-06
9.279711556e-06
9.283247728e-06
9.274265944e-06
9.279489097e-06
9.273009978e-06
9.272555791e-06
9.270447064e-06
9.284355388e-06
9.282997461e-06
9.293601342e-06
9.26465386e-06
9.264014291e-06
9.256265301e-06
9.284781768e-06
9.290292264e-06
9.306643002e-06
9.2641765e-06
9.26901035e-06
9.287924002e-06
9.284879094e-06
9.285500125e-06
9.287965713e-06
9.285022765e-06
9.261641394e-06
9.283558243e-06
9.267907324e-06
9.279146139e-06
9.283692646e-06
9.247441093e-06
9.293022021e-06
9.303185618e-06
9.283145767e-06
9.276147577e-06
9.261066709e-06
9.275535815e-06
9.292822735e-06
9.280035975e-06
9.295802759e-06
9.291803131e-06
9.295496878e-06
9.297485106e-06
9.291399924e-06
9.278729029e-06
9.28417464e-06
9.301544983e-06
9.310197712e-06
9.286950744e-06
9.298259078e-06
9.265330507e-06
9.29892182e-06
9.307041575e-06
9.304807715e-06
9.306272237e-06
9.286478018e-06
9.303621267e-06
9.292692967e-06
9.281519036e-06
9.294180662e-06
9.306837654e-06
9.295788855e-06
9.282668407e-06
9.299681888e-06
9.300650512e-06
9.299376007e-06
9.30777847e-06
9.311727118e-06
9.318850441e-06
9.288169634e-06
9.30645762e-06
9.302736066e-06
9.29637281e-06
9.300979566e-06
9.312658665e-06
9.321584834e-06
9.292285126e-06
9.270108741e-06
9.294138951e-06
9.285736488e-06
9.289652694e-06
9.270956866e-06
9.312357419e-06
9.320134215e-06
9.318053297e-06
9.318665059e-06
9.304603794e-06
9.325519578e-06
9.302235533e-06
9.311991288e-06
9.284457349e-06
9.292275857e-06
9.296034487e-06
9.283762164e-06
9.272620674e-06
9.287400296e-06
9.283993892e-06
9.294690464e-06
9.283933643e-06
9.288966779e-06
9.275350432e-06
9.275364336e-06
9.276402478e-06
9.282367161e-06
9.294004549e-06
9.272421388e-06
9.286116522e-06
9.29011615e-06
9.290143958e-06
9.292113647e-06
9.289828807e-06
9.296312561e-06
9.291246984e-06
9.272745808e-06
9.26137259e-06
9.260162969e-06
9.248460697e-06
9.260626425e-06
9.266099844e-06
9.277579657e-06
9.282177144e-06
9.269872379e-06
9.283396034e-06
9.280652372e-06
9.271633513e-06
9.264445305e-06
9.253716292e-06
9.258383297e-06
9.26529343e-06
9.267925862e-06
9.264463843e-06
9.273139746e-06
9.272523349e-06
9.278627068e-06
9.270845637e-06
9.27299144e-06
9.269297693e-06
9.267448502e-06
9.275665582e-06
9.266262054e-06
9.246217568e-06
9.251579758e-06
9.264788263e-06
9.259912702e-06
9.273218533e-06
9.270168991e-06
9.26471411e-06
9.270470237e-06
9.273204629e-06
9.24147641e-06
9.258429642e-06
9.265835674e-06
9.257776169e-06
9.257864226e-06
9.260311275e-06
9.260260295e-06
9.267193601e-06
9.250013276e-06
9.245944129e-06
9.26200289e-06
9.254610762e-06
9.259532668e-06
9.250791882e-06
9.255417176e-06
9.277301583e-06
9.280351126e-06
9.262670267e-06
9.272416754e-06
9.265993249e-06
9.264922665e-06
9.251107033e-06
9.253364065e-06
9.251871735e-06
9.275637775e-06
9.260269564e-06
9.268194667e-06
9.262345848e-06
9.261715547e-06
9.260023932e-06
9.258392566e-06
9.270308027e-06
9.253238932e-06
9.263958676e-06
9.271146883e-06
9.258323047e-06
9.275058455e-06
9.273770046e-06
9.278988564e-06
9.265622484e-06
9.264561169e-06
9.270845637e-06
9.257461019e-06
9.274451327e-06
9.277839193e-06
9.27028022e-06
9.26943673e-06
9.283794606e-06
9.287784965e-06
9.269344038e-06
9.255287408e-06
9.26534441e-06
9.271401784e-06
9.289119719e-06
9.277505504e-06
9.275095531e-06
9.270956866e-06
9.28470298e-06
9.286700477e-06
9.292971041e-06
9.281319749e-06
9.288118654e-06
9.285727219e-06
9.268621047e-06
9.255964055e-06
9.286237021e-06
9.27727841e-06
9.291154292e-06
9.27877074e-06
9.275308721e-06
9.265006087e-06
9.276916914e-06
9.272333332e-06
9.275809254e-06
9.290241283e-06
9.277190354e-06
9.297220935e-06
9.28061993e-06
9.28968977e-06
9.292706871e-06
9.277366467e-06
9.283442379e-06
9.2904313e-06
9.287474449e-06
9.297308992e-06
9.289105815e-06
9.276453458e-06
9.283817779e-06
9.286450211e-06
9.277283045e-06
9.299320393e-06
9.306749597e-06
9.28767837e-06
9.290426666e-06
9.280235262e-06
9.288938971e-06
9.271239575e-06
9.298379576e-06
9.286153599e-06
9.294959269e-06
9.287506891e-06
9.278511204e-06
9.275725832e-06
9.282288373e-06
9.283873394e-06
9.295992776e-06
9.297313627e-06
9.295964969e-06
9.29472754e-06
9.292781024e-06
9.290551799e-06
9.287196375e-06
9.271202498e-06
9.274108369e-06
9.282543274e-06
9.290371051e-06
9.303829822e-06
9.326275012e-06
9.318716039e-06
9.3235916e-06
9.309711083e-06
9.3037464e-06
9.304321086e-06
9.302369935e-06
9.309511797e-06
9.311092183e-06
9.300367804e-06
9.286186041e-06
9.283465552e-06
9.30422376e-06
9.294050894e-06
9.302026977e-06
9.306564215e-06
9.297730737e-06
9.310271865e-06
9.276907645e-06
9.294528254e-06
9.31361802e-06
9.300205594e-06
9.302356031e-06
9.291969975e-06
9.299213798e-06
9.308496827e-06
9.286746823e-06
9.282747195e-06
9.290931833e-06
9.313525328e-06
9.282473756e-06
9.276967895e-06
9.279706921e-06
9.294157489e-06
9.287001724e-06
9.283131864e-06
9.276416382e-06
9.288962144e-06
9.299918251e-06
9.280675545e-06
9.286445576e-06
9.290778893e-06
9.283256997e-06
9.303676882e-06
9.300562455e-06
9.287859118e-06
9.301016643e-06
9.274340097e-06
9.265923731e-06
9.263008591e-06
9.280726525e-06
9.271906952e-06
9.266062768e-06
9.275067724e-06
9.268310531e-06
9.275901945e-06
9.274965763e-06
9.290727913e-06
9.266683799e-06
9.285087649e-06
9.261182573e-06
9.254624666e-06
9.251009707e-06
9.258957982e-06
9.265089509e-06
9.275433854e-06
9.267045295e-06
9.256307012e-06
9.284842017e-06
9.259833915e-06
9.276513707e-06
9.277023509e-06
9.270071665e-06
9.26428773e-06
9.264459209e-06
9.265529793e-06
9.246314894e-06
9.246681025e-06
9.270340469e-06
9.261219649e-06
9.265793963e-06
9.256399704e-06
9.263152262e-06
9.253299181e-06
9.252247135e-06
9.278622434e-06
9.257080984e-06
9.270192163e-06
9.248989037e-06
9.254680281e-06
9.261877757e-06
9.261316975e-06
9.261034267e-06
9.245531653e-06
9.244257148e-06
9.274831361e-06
9.286941474e-06
9.26412552e-06
9.271429592e-06
9.274011043e-06
9.263314472e-06
9.267063833e-06
9.2673141e-06
9.270674158e-06
9.260482754e-06
9.25521789e-06
9.261164034e-06
9.272194295e-06
9.255287408e-06
9.269237443e-06
9.252057118e-06
9.255023238e-06
9.268412491e-06
9.270660254e-06
9.276991067e-06
9.279178581e-06
9.283576782e-06
9.269923359e-06
9.258068146e-06
9.280179647e-06
9.271846702e-06
9.27877074e-06
9.281004599e-06
9.274622806e-06
9.282149336e-06
9.267388253e-06
9.281987127e-06
9.289801e-06
9.275118704e-06
9.271842068e-06
9.272954363e-06
9.281449517e-06
9.283122594e-06
9.290751085e-06
9.283076249e-06
9.302624836e-06
9.277042048e-06
9.266123017e-06
9.271953297e-06
9.254170479e-06
9.280740429e-06
9.284424907e-06
9.289300467e-06
9.286232386e-06
9.277283045e-06
9.272963632e-06
9.276027078e-06
9.275192857e-06
9.28455004e-06
9.280239896e-06
9.283497994e-06
9.283840952e-06
9.266252785e-06
9.283345054e-06
9.272796788e-06
9.271160787e-06
9.268820333e-06
9.266581839e-06
9.287108319e-06
9.294556062e-06
9.287599582e-06
9.280981426e-06
9.288985317e-06
9.286992455e-06
9.264686302e-06
9.277621368e-06
9.256858525e-06
9.273362205e-06
9.27818215e-06
9.294264084e-06
9.294152855e-06
9.281926877e-06
9.284860556e-06
9.278631703e-06
9.278603895e-06
9.295330034e-06
9.262670267e-06
9.274256675e-06
9.287214914e-06
9.283660204e-06
9.295038056e-06
9.286130426e-06
9.28237643e-06
9.27579535e-06
9.301869402e-06
9.29977458e-06
9.296395983e-06
9.269737976e-06
9.291015255e-06
9.313655096e-06
9.279785709e-06
9.282835252e-06
9.293253749e-06
9.287924002e-06
9.287645928e-06
9.287738619e-06
9.278172881e-06
9.290519357e-06
9.29510294e-06
9.310313576e-06
9.309711083e-06
9.311481486e-06
9.315077907e-06
9.307922142e-06
9.298518613e-06
9.293309364e-06
9.298041253e-06
9.280986061e-06
9.308918573e-06
9.304418412e-06
9.281546843e-06
9.303894706e-06
9.287822041e-06
9.286334347e-06
9.310767763e-06
9.30470112e-06
9.305637302e-06
9.299051588e-06
9.299871906e-06
9.309868658e-06
9.289518292e-06
9.300506841e-06
9.293179596e-06
9.305266537e-06
9.310976319e-06
9.297100437e-06
9.285110822e-06
9.281458786e-06
9.300214863e-06
9.290964275e-06
9.294671926e-06
9.284044873e-06
9.273909083e-06
9.27011801e-06
9.282441314e-06
9.283321881e-06
9.27605952e-06
9.284971785e-06
9.302175283e-06
9.304381335e-06
9.270377546e-06
9.273241706e-06
9.291200638e-06
9.321603372e-06
9.283099422e-06
9.254216824e-06
9.282876963e-06
9.28688586e-06
9.263875254e-06
9.265210008e-06
9.28247839e-06
9.28348409e-06
9.260149065e-06
9.263555469e-06
9.279317618e-06
9.278038479e-06
9.272602136e-06
9.292410259e-06
9.278562184e-06
9.279285176e-06
9.254912009e-06
9.275322625e-06
9.25892554e-06
9.26444994e-06
9.266285227e-06
9.282070549e-06
9.270062396e-06
9.270396084e-06
9.291321137e-06
9.281338288e-06
9.275021378e-06
9.257345154e-06
9.261975083e-06
9.258369393e-06
9.265094144e-06
9.245156254e-06
9.256724123e-06
9.253813617e-06
9.266586473e-06
9.261465281e-06
9.24975374e-06
9.256163341e-06
9.256561913e-06
9.250903112e-06
9.246741274e-06
9.249192958e-06
9.255083488e-06
9.25946315e-06
9.256028939e-06
9.264992184e-06
9.250133774e-06
9.25930094e-06
9.265001453e-06
9.246379778e-06
9.273973967e-06
9.259898799e-06
9.273158284e-06
9.252154444e-06
9.259764396e-06
9.264347979e-06
9.268523721e-06
9.277570388e-06
9.261228918e-06
9.269742611e-06
9.286663401e-06
9.273612471e-06
9.274743304e-06
9.264352614e-06
9.273260244e-06
9.280156474e-06
9.263027129e-06
9.256585086e-06
9.252261039e-06
9.274006409e-06
9.272412119e-06
9.267212139e-06
9.280365029e-06
9.262883457e-06
9.258114492e-06
9.279883035e-06
9.267230678e-06
9.294444832e-06
9.276203192e-06
9.274279848e-06
9.285412069e-06
9.290292264e-06
9.284035603e-06
9.28619531e-06
9.291390655e-06
9.276448824e-06
9.267976842e-06
9.283298708e-06
9.295172459e-06
9.283817779e-06
9.293712571e-06
9.29006517e-06
9.267249216e-06
9.275679486e-06
9.277658445e-06
9.272518714e-06
9.278376802e-06
9.287108319e-06
9.28512936e-06
9.282506198e-06
9.272110873e-06
9.244419358e-06
9.268444933e-06
9.275276279e-06
9.283307977e-06
9.291585307e-06
9.297142148e-06
9.268523721e-06
9.27288021e-06
9.265010722e-06
9.27001605e-06
9.269543325e-06
9.278654876e-06
9.2774916e-06
9.2850274e-06
9.30020096e-06
9.312918201e-06
9.291293329e-06
9.284786403e-06
9.281676611e-06
9.295849105e-06
9.271156153e-06
9.277296949e-06
9.274159349e-06
9.281495863e-06
9.271281286e-06
9.295645184e-06
9.29340669e-06
9.281556112e-06
9.289768558e-06
9.269052061e-06
9.292864446e-06
9.302008439e-06
9.299603101e-06
9.28968977e-06
9.294810963e-06
9.30040488e-06
9.283738991e-06
9.287882291e-06
9.293096174e-06
9.299042319e-06
9.31218594e-06
9.308589519e-06
9.298898647e-06
9.287349316e-06
9.28985198e-06
9.292261953e-06
9.287479084e-06
9.274785015e-06
9.296613808e-06
9.293527189e-06
9.306744963e-06
9.286802438e-06
9.280930446e-06
9.275387509e-06
9.294834135e-06
9.296609173e-06
9.306318583e-06
9.308543173e-06
9.315397692e-06
9.286566075e-06
9.303389539e-06
9.30995208e-06
9.286844149e-06
9.30507652e-06
9.297392414e-06
9.288072308e-06
9.29075572e-06
9.275721197e-06
9.289569272e-06
9.300177787e-06
9.307495762e-06
9.306522504e-06
9.299274047e-06
9.302759238e-06
9.319851507e-06
9.302879737e-06
9.30783872e-06
9.301739634e-06
9.287214914e-06
9.308747094e-06
9.291589941e-06
9.292252684e-06
9.285374992e-06
9.285481587e-06
9.271526918e-06
9.282515467e-06
9.281352191e-06
9.275248472e-06
9.2973368e-06
9.278733663e-06
9.288929702e-06
9.268078803e-06
9.278640972e-06
9.300043384e-06
9.277811385e-06
9.276615668e-06
9.267698768e-06
9.287293701e-06
9.288396727e-06
9.294208469e-06
9.265474178e-06
9.282849155e-06
9.287937906e-06
9.290848411e-06
9.279706921e-06
9.267666327e-06
9.261405032e-06
9.26428773e-06
9.257099523e-06
9.283479456e-06
9.258503795e-06
9.26035762e-06
9.274993571e-06
9.278807816e-06
9.277301583e-06
9.276407113e-06
9.260454946e-06
9.268528355e-06
9.267281658e-06
9.270275586e-06
9.265613215e-06
9.276300518e-06
9.268514452e-06
9.272398215e-06
9.292869081e-06
9.280865562e-06
9.270701965e-06
9.268537624e-06
9.286593882e-06
9.2679444e-06
9.247334498e-06
9.241406892e-06
9.26089523e-06
9.263634257e-06
9.242157691e-06
9.267828536e-06
9.265474178e-06
9.256497029e-06
9.259523399e-06
9.260524465e-06
9.267939766e-06
9.264385056e-06
9.265469544e-06
9.24652345e-06
9.255032507e-06
9.238681769e-06
9.252511305e-06
9.252988665e-06
9.258063512e-06
9.27755185e-06
9.261238187e-06
9.268639585e-06
9.261456012e-06
9.25452734e-06
9.275711928e-06
9.271281286e-06
9.272578963e-06
9.260218584e-06
9.266850643e-06
9.253442852e-06
9.260876692e-06
9.266076671e-06
9.289782462e-06
9.277737232e-06
9.281755398e-06
9.276444189e-06
9.258990424e-06
9.252145175e-06
9.268152956e-06
9.253234297e-06
9.255834287e-06
9.254986162e-06
9.252539113e-06
9.254499533e-06
9.259986855e-06
9.288373554e-06
9.283187478e-06
9.284411003e-06
9.269714803e-06
9.275549718e-06
9.274071293e-06
9.28258962e-06
9.290727913e-06
9.277649175e-06
9.289977113e-06
9.275869503e-06
9.277612099e-06
9.277959691e-06
9.275651679e-06
9.283016e-06
9.285824545e-06
9.273297321e-06
9.269362577e-06
9.263226415e-06
9.278640972e-06
9.258554775e-06
9.249165151e-06
9.284596386e-06
9.275239203e-06
9.280527239e-06
9.287177837e-06
9.2683198e-06
9.272620674e-06
9.281593189e-06
9.302013074e-06
9.27908589e-06
9.281695149e-06
9.275892676e-06
9.274942591e-06
9.26560858e-06
9.279489097e-06
9.287747888e-06
9.270224605e-06
9.289736116e-06
9.266605012e-06
9.273681989e-06
9.28178784e-06
9.297656584e-06
9.287377123e-06
9.287669101e-06
9.281908339e-06
9.281880532e-06
9.296785287e-06
9.284628827e-06
9.285467683e-06
9.286862687e-06
9.293698667e-06
9.283094787e-06
9.289309736e-06
9.30522946e-06
9.301772076e-06
9.310990222e-06
9.295135382e-06
9.287710812e-06
9.282348622e-06
9.301368869e-06
9.283535071e-06
9.282580351e-06
9.287636659e-06
9.297656584e-06
9.290477646e-06
9.292173896e-06
9.303176349e-06
9.302963159e-06
9.293860877e-06
)
;

boundaryField
{
    bottom
    {
        type            calculated;
        value           nonuniform List<scalar> 
200
(
9.285954313e-06
9.275994636e-06
9.289027028e-06
9.278432417e-06
9.298801321e-06
9.291543596e-06
9.288943606e-06
9.300358535e-06
9.291260887e-06
9.301484734e-06
9.31949928e-06
9.312144229e-06
9.305558514e-06
9.297007746e-06
9.29643306e-06
9.331743796e-06
9.305349959e-06
9.301670116e-06
9.297253377e-06
9.302411646e-06
9.312320342e-06
9.30517848e-06
9.292326837e-06
9.293610611e-06
9.292294395e-06
9.288568206e-06
9.283029903e-06
9.303505403e-06
9.312885759e-06
9.302244802e-06
9.284049507e-06
9.298699361e-06
9.303296848e-06
9.309724987e-06
9.299459429e-06
9.292410259e-06
9.309266165e-06
9.28051797e-06
9.289847346e-06
9.279549346e-06
9.292030225e-06
9.291770689e-06
9.279322253e-06
9.292345375e-06
9.281440248e-06
9.280735794e-06
9.285161802e-06
9.285083015e-06
9.289527561e-06
9.29828225e-06
9.281125098e-06
9.282714753e-06
9.272741173e-06
9.290950372e-06
9.294987076e-06
9.29939918e-06
9.282946481e-06
9.276328325e-06
9.270372911e-06
9.265237815e-06
9.276759339e-06
9.28354434e-06
9.272259179e-06
9.2983425e-06
9.270660254e-06
9.277690887e-06
9.300803453e-06
9.294435563e-06
9.272435292e-06
9.277222796e-06
9.269005715e-06
9.258869926e-06
9.268185398e-06
9.258550141e-06
9.248127008e-06
9.25495372e-06
9.273009978e-06
9.293480843e-06
9.264806801e-06
9.261678471e-06
9.27383493e-06
9.26879716e-06
9.279734729e-06
9.261358686e-06
9.248446793e-06
9.262721248e-06
9.270498045e-06
9.276314421e-06
9.253340892e-06
9.257933744e-06
9.2645519e-06
9.268449568e-06
9.274358636e-06
9.280383568e-06
9.241397623e-06
9.249067825e-06
9.264853147e-06
9.252033945e-06
9.247200096e-06
9.270785387e-06
9.26311982e-06
9.270456334e-06
9.258582583e-06
9.255324485e-06
9.277839193e-06
9.268551528e-06
9.263963311e-06
9.266878451e-06
9.254216824e-06
9.26545564e-06
9.28157465e-06
9.282223489e-06
9.277148643e-06
9.277848462e-06
9.264334076e-06
9.2563858e-06
9.25103288e-06
9.275271645e-06
9.267105544e-06
9.257164407e-06
9.255523771e-06
9.258615025e-06
9.269432095e-06
9.284749326e-06
9.273060958e-06
9.269839937e-06
9.260529099e-06
9.256793641e-06
9.257233925e-06
9.272032085e-06
9.268366146e-06
9.270938328e-06
9.261201111e-06
9.264728014e-06
9.265511255e-06
9.258647467e-06
9.250745537e-06
9.294959269e-06
9.273213899e-06
9.265469544e-06
9.28374826e-06
9.285824545e-06
9.278895873e-06
9.279044179e-06
9.273223168e-06
9.277018875e-06
9.279711556e-06
9.283247728e-06
9.274265944e-06
9.279489097e-06
9.273009978e-06
9.272555791e-06
9.270447064e-06
9.284355388e-06
9.282997461e-06
9.293601342e-06
9.26465386e-06
9.264014291e-06
9.256265301e-06
9.284781768e-06
9.290292264e-06
9.306643002e-06
9.2641765e-06
9.26901035e-06
9.287924002e-06
9.284879094e-06
9.285500125e-06
9.287965713e-06
9.285022765e-06
9.261641394e-06
9.283558243e-06
9.267907324e-06
9.279146139e-06
9.283692646e-06
9.247441093e-06
9.293022021e-06
9.303185618e-06
9.283145767e-06
9.276147577e-06
9.261066709e-06
9.275535815e-06
9.292822735e-06
9.280035975e-06
9.295802759e-06
9.291803131e-06
9.295496878e-06
9.297485106e-06
9.291399924e-06
9.278729029e-06
9.28417464e-06
9.301544983e-06
9.310197712e-06
9.286950744e-06
9.298259078e-06
9.265330507e-06
9.29892182e-06
9.307041575e-06
9.304807715e-06
9.306272237e-06
9.286478018e-06
)
;
    }
    top
    {
        type            calculated;
        value           nonuniform List<scalar> 
200
(
9.292261953e-06
9.287479084e-06
9.274785015e-06
9.296613808e-06
9.293527189e-06
9.306744963e-06
9.286802438e-06
9.280930446e-06
9.275387509e-06
9.294834135e-06
9.296609173e-06
9.306318583e-06
9.308543173e-06
9.315397692e-06
9.286566075e-06
9.303389539e-06
9.30995208e-06
9.286844149e-06
9.30507652e-06
9.297392414e-06
9.288072308e-06
9.29075572e-06
9.275721197e-06
9.289569272e-06
9.300177787e-06
9.307495762e-06
9.306522504e-06
9.299274047e-06
9.302759238e-06
9.319851507e-06
9.302879737e-06
9.30783872e-06
9.301739634e-06
9.287214914e-06
9.308747094e-06
9.291589941e-06
9.292252684e-06
9.285374992e-06
9.285481587e-06
9.271526918e-06
9.282515467e-06
9.281352191e-06
9.275248472e-06
9.2973368e-06
9.278733663e-06
9.288929702e-06
9.268078803e-06
9.278640972e-06
9.300043384e-06
9.277811385e-06
9.276615668e-06
9.267698768e-06
9.287293701e-06
9.288396727e-06
9.294208469e-06
9.265474178e-06
9.282849155e-06
9.287937906e-06
9.290848411e-06
9.279706921e-06
9.267666327e-06
9.261405032e-06
9.26428773e-06
9.257099523e-06
9.283479456e-06
9.258503795e-06
9.26035762e-06
9.274993571e-06
9.278807816e-06
9.277301583e-06
9.276407113e-06
9.260454946e-06
9.268528355e-06
9.267281658e-06
9.270275586e-06
9.265613215e-06
9.276300518e-06
9.268514452e-06
9.272398215e-06
9.292869081e-06
9.280865562e-06
9.270701965e-06
9.268537624e-06
9.286593882e-06
9.2679444e-06
9.247334498e-06
9.241406892e-06
9.26089523e-06
9.263634257e-06
9.242157691e-06
9.267828536e-06
9.265474178e-06
9.256497029e-06
9.259523399e-06
9.260524465e-06
9.267939766e-06
9.264385056e-06
9.265469544e-06
9.24652345e-06
9.255032507e-06
9.238681769e-06
9.252511305e-06
9.252988665e-06
9.258063512e-06
9.27755185e-06
9.261238187e-06
9.268639585e-06
9.261456012e-06
9.25452734e-06
9.275711928e-06
9.271281286e-06
9.272578963e-06
9.260218584e-06
9.266850643e-06
9.253442852e-06
9.260876692e-06
9.266076671e-06
9.289782462e-06
9.277737232e-06
9.281755398e-06
9.276444189e-06
9.258990424e-06
9.252145175e-06
9.268152956e-06
9.253234297e-06
9.255834287e-06
9.254986162e-06
9.252539113e-06
9.254499533e-06
9.259986855e-06
9.288373554e-06
9.283187478e-06
9.284411003e-06
9.269714803e-06
9.275549718e-06
9.274071293e-06
9.28258962e-06
9.290727913e-06
9.277649175e-06
9.289977113e-06
9.275869503e-06
9.277612099e-06
9.277959691e-06
9.275651679e-06
9.283016e-06
9.285824545e-06
9.273297321e-06
9.269362577e-06
9.263226415e-06
9.278640972e-06
9.258554775e-06
9.249165151e-06
9.284596386e-06
9.275239203e-06
9.280527239e-06
9.287177837e-06
9.2683198e-06
9.272620674e-06
9.281593189e-06
9.302013074e-06
9.27908589e-06
9.281695149e-06
9.275892676e-06
9.274942591e-06
9.26560858e-06
9.279489097e-06
9.287747888e-06
9.270224605e-06
9.289736116e-06
9.266605012e-06
9.273681989e-06
9.28178784e-06
9.297656584e-06
9.287377123e-06
9.287669101e-06
9.281908339e-06
9.281880532e-06
9.296785287e-06
9.284628827e-06
9.285467683e-06
9.286862687e-06
9.293698667e-06
9.283094787e-06
9.289309736e-06
9.30522946e-06
9.301772076e-06
9.310990222e-06
9.295135382e-06
9.287710812e-06
9.282348622e-06
9.301368869e-06
9.283535071e-06
9.282580351e-06
9.287636659e-06
9.297656584e-06
9.290477646e-06
9.292173896e-06
9.303176349e-06
9.302963159e-06
9.293860877e-06
)
;
    }
    inlet
    {
        type            cyclic;
    }
    outlet
    {
        type            cyclic;
    }
    back
    {
        type            symmetry;
    }
    front
    {
        type            symmetry;
    }
}


// ************************************************************************* //
