/*--------------------------------*- C++ -*----------------------------------*\
| =========                 |                                                 |
| \\      /  F ield         | OpenFOAM: The Open Source CFD Toolbox           |
|  \\    /   O peration     | Version:  v1706                                 |
|   \\  /    A nd           | Web:      www.OpenFOAM.com                      |
|    \\/     M anipulation  |                                                 |
\*---------------------------------------------------------------------------*/
FoamFile
{
    version     2.0;
    format      ascii;
    class       volScalarField;
    location    "0.26";
    object      rhoN_Ar;
}
// * * * * * * * * * * * * * * * * * * * * * * * * * * * * * * * * * * * * * //

dimensions      [0 -3 0 0 0 0 0];


internalField   nonuniform List<scalar> 
1000
(
1.400596427e+20
1.399094214e+20
1.401059883e+20
1.399461903e+20
1.402534136e+20
1.401439456e+20
1.401047301e+20
1.40276901e+20
1.401396816e+20
1.402938874e+20
1.405656e+20
1.404546641e+20
1.40355332e+20
1.402263612e+20
1.402176932e+20
1.407502835e+20
1.403521864e+20
1.402966835e+20
1.40230066e+20
1.40307868e+20
1.404573204e+20
1.403496e+20
1.401557592e+20
1.401751223e+20
1.401552699e+20
1.40099068e+20
1.40015534e+20
1.40324365e+20
1.404658485e+20
1.403053515e+20
1.400309126e+20
1.402518757e+20
1.403212194e+20
1.404181748e+20
1.402633398e+20
1.401570175e+20
1.404112544e+20
1.399776466e+20
1.401183612e+20
1.399630369e+20
1.401512854e+20
1.401473709e+20
1.399596117e+20
1.401560388e+20
1.399915573e+20
1.39980932e+20
1.400476893e+20
1.40046501e+20
1.401135379e+20
1.402455845e+20
1.399868039e+20
1.400107806e+20
1.398603495e+20
1.401349981e+20
1.401958835e+20
1.402624311e+20
1.400142757e+20
1.399144544e+20
1.398246291e+20
1.397471767e+20
1.399209553e+20
1.400232932e+20
1.398530796e+20
1.402464932e+20
1.398289631e+20
1.399350058e+20
1.402836117e+20
1.40187565e+20
1.398557359e+20
1.399279456e+20
1.398040078e+20
1.396511301e+20
1.39791635e+20
1.396463068e+20
1.394890951e+20
1.395920621e+20
1.398644039e+20
1.40173165e+20
1.397406757e+20
1.396934913e+20
1.398768466e+20
1.398008621e+20
1.39965833e+20
1.39688668e+20
1.394939184e+20
1.397092194e+20
1.398265165e+20
1.399142447e+20
1.395677359e+20
1.396370097e+20
1.397368311e+20
1.397956194e+20
1.398847456e+20
1.399756194e+20
1.393875961e+20
1.395032854e+20
1.397413748e+20
1.395480233e+20
1.394751146e+20
1.398308505e+20
1.397152311e+20
1.398258874e+20
1.396467961e+20
1.395976544e+20
1.399372427e+20
1.397971573e+20
1.397279534e+20
1.397719223e+20
1.395809476e+20
1.397504621e+20
1.399935845e+20
1.400033709e+20
1.399268272e+20
1.399373825e+20
1.397335456e+20
1.396136621e+20
1.395329243e+20
1.398985165e+20
1.397753476e+20
1.396254058e+20
1.396006602e+20
1.396472854e+20
1.398104388e+20
1.40041468e+20
1.398651728e+20
1.398165903e+20
1.396761553e+20
1.396198136e+20
1.396264544e+20
1.398496544e+20
1.397943612e+20
1.398331573e+20
1.396862913e+20
1.397394874e+20
1.39751301e+20
1.396477748e+20
1.395285903e+20
1.401954641e+20
1.398674796e+20
1.397506718e+20
1.400263689e+20
1.400576854e+20
1.399531806e+20
1.399554175e+20
1.398676194e+20
1.399248699e+20
1.399654835e+20
1.400188194e+20
1.398833476e+20
1.399621282e+20
1.398644039e+20
1.398575534e+20
1.398257476e+20
1.400355262e+20
1.400150447e+20
1.401749825e+20
1.397383689e+20
1.397287223e+20
1.396118447e+20
1.400419573e+20
1.401250718e+20
1.403716893e+20
1.397311689e+20
1.398040777e+20
1.400893515e+20
1.400434252e+20
1.400527922e+20
1.400899806e+20
1.400455922e+20
1.39692932e+20
1.400235029e+20
1.397874408e+20
1.399569553e+20
1.400255301e+20
1.394787495e+20
1.401662447e+20
1.403195417e+20
1.400172816e+20
1.399117282e+20
1.396842641e+20
1.39902501e+20
1.401632388e+20
1.399703767e+20
1.402081864e+20
1.401478602e+20
1.402035728e+20
1.402335612e+20
1.401417786e+20
1.399506641e+20
1.400328e+20
1.402947961e+20
1.404253049e+20
1.400746718e+20
1.40245235e+20
1.397485748e+20
1.402552311e+20
1.40377701e+20
1.403440078e+20
1.403660971e+20
1.400675417e+20
1.403261126e+20
1.401612816e+20
1.399927456e+20
1.401837204e+20
1.403746252e+20
1.402079767e+20
1.400100816e+20
1.402666951e+20
1.402813049e+20
1.402620816e+20
1.403888155e+20
1.404483728e+20
1.405558136e+20
1.400930563e+20
1.403688932e+20
1.403127612e+20
1.402167845e+20
1.40286268e+20
1.404624233e+20
1.405970563e+20
1.401551301e+20
1.398206447e+20
1.401830913e+20
1.400563573e+20
1.401154252e+20
1.398334369e+20
1.404578796e+20
1.405751767e+20
1.405437903e+20
1.405530175e+20
1.40340932e+20
1.406564039e+20
1.403052117e+20
1.404523573e+20
1.400370641e+20
1.401549903e+20
1.402116816e+20
1.400265786e+20
1.39858532e+20
1.400814524e+20
1.400300738e+20
1.401914097e+20
1.40029165e+20
1.401050796e+20
1.398997049e+20
1.398999146e+20
1.399155728e+20
1.400055379e+20
1.401810641e+20
1.398555262e+20
1.400620893e+20
1.401224155e+20
1.40122835e+20
1.401525437e+20
1.401180816e+20
1.402158757e+20
1.401394718e+20
1.398604194e+20
1.396888777e+20
1.39670633e+20
1.394941282e+20
1.396776233e+20
1.397601786e+20
1.399333282e+20
1.400026718e+20
1.398170796e+20
1.400210563e+20
1.399796738e+20
1.398436427e+20
1.397352233e+20
1.395733981e+20
1.396437903e+20
1.397480155e+20
1.397877204e+20
1.397355029e+20
1.398663612e+20
1.398570641e+20
1.399491262e+20
1.398317592e+20
1.398641243e+20
1.398084117e+20
1.397805204e+20
1.399044583e+20
1.397626252e+20
1.394602951e+20
1.395411728e+20
1.397403961e+20
1.396668583e+20
1.398675495e+20
1.398215534e+20
1.397392777e+20
1.398260971e+20
1.398673398e+20
1.393887845e+20
1.396444893e+20
1.397561942e+20
1.39634633e+20
1.396359612e+20
1.396728699e+20
1.39672101e+20
1.397766757e+20
1.395175456e+20
1.394561709e+20
1.396983845e+20
1.395868893e+20
1.396611262e+20
1.395292893e+20
1.395990524e+20
1.39929134e+20
1.399751301e+20
1.397084505e+20
1.398554563e+20
1.397585709e+20
1.397424233e+20
1.395340427e+20
1.395680854e+20
1.395455767e+20
1.399040388e+20
1.396722408e+20
1.397917748e+20
1.397035573e+20
1.396940505e+20
1.396685359e+20
1.396439301e+20
1.398236505e+20
1.395661981e+20
1.397278835e+20
1.398363029e+20
1.396428816e+20
1.39895301e+20
1.39875868e+20
1.399545786e+20
1.397529786e+20
1.397369709e+20
1.398317592e+20
1.396298796e+20
1.398861437e+20
1.399372427e+20
1.398232311e+20
1.398105087e+20
1.40027068e+20
1.400872544e+20
1.398091107e+20
1.395970951e+20
1.397487845e+20
1.398401476e+20
1.401073864e+20
1.399322097e+20
1.398958602e+20
1.398334369e+20
1.400407689e+20
1.400708971e+20
1.401654757e+20
1.399897398e+20
1.400922874e+20
1.400562175e+20
1.397982058e+20
1.39607301e+20
1.400639068e+20
1.399287845e+20
1.401380738e+20
1.399512932e+20
1.398990757e+20
1.397436816e+20
1.39923332e+20
1.398541981e+20
1.399066252e+20
1.401243029e+20
1.399274563e+20
1.402295767e+20
1.399791845e+20
1.401159845e+20
1.401614913e+20
1.399301126e+20
1.400217553e+20
1.401271689e+20
1.400825709e+20
1.402309049e+20
1.401071767e+20
1.399163417e+20
1.400274175e+20
1.400671223e+20
1.399288544e+20
1.402612427e+20
1.403732971e+20
1.400856466e+20
1.40127099e+20
1.399733825e+20
1.401046602e+20
1.39837701e+20
1.402470524e+20
1.400626485e+20
1.401954641e+20
1.400830602e+20
1.399473786e+20
1.39905367e+20
1.400043495e+20
1.400282563e+20
1.402110524e+20
1.402309748e+20
1.40210633e+20
1.401919689e+20
1.401626097e+20
1.401289864e+20
1.400783767e+20
1.398371417e+20
1.398809709e+20
1.400081942e+20
1.401262602e+20
1.403292583e+20
1.406677981e+20
1.405537864e+20
1.406273243e+20
1.40417965e+20
1.40328e+20
1.40336668e+20
1.403072388e+20
1.404149592e+20
1.404387961e+20
1.402770408e+20
1.400631379e+20
1.400221049e+20
1.403352e+20
1.401817631e+20
1.40302066e+20
1.40370501e+20
1.40237266e+20
1.404264233e+20
1.399231922e+20
1.401889631e+20
1.404768932e+20
1.402745942e+20
1.403070291e+20
1.401503767e+20
1.40259635e+20
1.403996505e+20
1.400715961e+20
1.400112699e+20
1.401347184e+20
1.404754951e+20
1.400071456e+20
1.39924101e+20
1.399654136e+20
1.401833709e+20
1.400754408e+20
1.400170718e+20
1.399157825e+20
1.401050097e+20
1.402702602e+20
1.399800233e+20
1.400670524e+20
1.401324117e+20
1.400189592e+20
1.403269515e+20
1.402799767e+20
1.400883728e+20
1.402868272e+20
1.39884466e+20
1.397575223e+20
1.397135534e+20
1.399807922e+20
1.39847767e+20
1.397596194e+20
1.398954408e+20
1.397935223e+20
1.399080233e+20
1.398939029e+20
1.401316427e+20
1.397689864e+20
1.400465709e+20
1.396860117e+20
1.39587099e+20
1.395325748e+20
1.396524583e+20
1.397449398e+20
1.399009631e+20
1.397744388e+20
1.396124738e+20
1.40042866e+20
1.396656699e+20
1.399172505e+20
1.399249398e+20
1.398200854e+20
1.397328466e+20
1.39735433e+20
1.397515806e+20
1.394617631e+20
1.394672854e+20
1.398241398e+20
1.396865709e+20
1.39755565e+20
1.396138718e+20
1.397157204e+20
1.395671068e+20
1.395512388e+20
1.399490563e+20
1.396241476e+20
1.398219029e+20
1.395020971e+20
1.395879379e+20
1.396964971e+20
1.396880388e+20
1.396837748e+20
1.394499495e+20
1.394307262e+20
1.398918757e+20
1.40074532e+20
1.397304e+20
1.39840567e+20
1.398795029e+20
1.39718167e+20
1.397747184e+20
1.397784932e+20
1.398291728e+20
1.396754563e+20
1.395960466e+20
1.39685732e+20
1.39852101e+20
1.395970951e+20
1.398075029e+20
1.395483728e+20
1.395931107e+20
1.397950602e+20
1.398289631e+20
1.399244505e+20
1.399574447e+20
1.400237825e+20
1.398178485e+20
1.396390369e+20
1.399725437e+20
1.398468583e+20
1.399512932e+20
1.399849864e+20
1.398887301e+20
1.400022524e+20
1.397796117e+20
1.399998058e+20
1.401176621e+20
1.398962097e+20
1.398467883e+20
1.39863565e+20
1.399916971e+20
1.40016932e+20
1.401319922e+20
1.40016233e+20
1.403110835e+20
1.399252194e+20
1.397605282e+20
1.39848466e+20
1.395802485e+20
1.399810019e+20
1.400365748e+20
1.401101126e+20
1.400638369e+20
1.399288544e+20
1.398637049e+20
1.399099107e+20
1.398973282e+20
1.400384621e+20
1.399734524e+20
1.400225942e+20
1.40027767e+20
1.397624854e+20
1.400202874e+20
1.398611883e+20
1.398365126e+20
1.398012117e+20
1.397674485e+20
1.400770485e+20
1.401893825e+20
1.400844583e+20
1.399846369e+20
1.401053592e+20
1.40075301e+20
1.397388583e+20
1.399339573e+20
1.396207922e+20
1.398697165e+20
1.399424155e+20
1.401849786e+20
1.40183301e+20
1.399988971e+20
1.400431456e+20
1.399491961e+20
1.399487767e+20
1.402010563e+20
1.397084505e+20
1.398832078e+20
1.400786563e+20
1.400250408e+20
1.401966524e+20
1.40062299e+20
1.400056777e+20
1.399064155e+20
1.402996893e+20
1.402680932e+20
1.40217134e+20
1.398150524e+20
1.401359767e+20
1.404774524e+20
1.399666019e+20
1.400125981e+20
1.401697398e+20
1.400893515e+20
1.400851573e+20
1.400865553e+20
1.399422757e+20
1.401284971e+20
1.401976311e+20
1.404270524e+20
1.40417965e+20
1.40444668e+20
1.404989126e+20
1.403909825e+20
1.402491495e+20
1.401705786e+20
1.402419495e+20
1.399847068e+20
1.404060117e+20
1.403381359e+20
1.39993165e+20
1.403302369e+20
1.400878136e+20
1.400653748e+20
1.404339029e+20
1.403424e+20
1.403565204e+20
1.402571883e+20
1.402695612e+20
1.404203417e+20
1.401133981e+20
1.402791379e+20
1.401686214e+20
1.403509282e+20
1.404370485e+20
1.402277592e+20
1.400469204e+20
1.399918369e+20
1.40274734e+20
1.401352078e+20
1.401911301e+20
1.400308427e+20
1.39877965e+20
1.398207845e+20
1.400066563e+20
1.400199379e+20
1.399104e+20
1.400448233e+20
1.403043029e+20
1.403375767e+20
1.39824699e+20
1.39867899e+20
1.401387728e+20
1.405973359e+20
1.400165825e+20
1.395809476e+20
1.400132272e+20
1.400736932e+20
1.397266252e+20
1.397467573e+20
1.400072155e+20
1.400223845e+20
1.396704233e+20
1.397218019e+20
1.399595417e+20
1.399402485e+20
1.398582524e+20
1.401570175e+20
1.399481476e+20
1.399590524e+20
1.39591433e+20
1.398992854e+20
1.396519689e+20
1.397352932e+20
1.397629748e+20
1.400010641e+20
1.398199456e+20
1.398249786e+20
1.401405903e+20
1.399900194e+20
1.398947417e+20
1.39628132e+20
1.39697965e+20
1.396435806e+20
1.397450097e+20
1.394442874e+20
1.39618765e+20
1.39574866e+20
1.397675184e+20
1.396902757e+20
1.395136311e+20
1.396103068e+20
1.396163184e+20
1.39530967e+20
1.394681942e+20
1.395051728e+20
1.395940194e+20
1.396600777e+20
1.396082796e+20
1.397434718e+20
1.395193631e+20
1.396576311e+20
1.397436117e+20
1.394627417e+20
1.398789437e+20
1.396666485e+20
1.398666408e+20
1.395498408e+20
1.396646214e+20
1.397337553e+20
1.397967379e+20
1.399331883e+20
1.396867107e+20
1.398151223e+20
1.400703379e+20
1.398734913e+20
1.398905476e+20
1.397338252e+20
1.398681786e+20
1.399721942e+20
1.39713833e+20
1.39616668e+20
1.395514485e+20
1.39879433e+20
1.398553864e+20
1.397769553e+20
1.399753398e+20
1.39711666e+20
1.396397359e+20
1.399680699e+20
1.39777235e+20
1.401877049e+20
1.39912567e+20
1.398835573e+20
1.400514641e+20
1.401250718e+20
1.400307029e+20
1.400632777e+20
1.401416388e+20
1.399162718e+20
1.397884893e+20
1.400195883e+20
1.401986796e+20
1.400274175e+20
1.401766602e+20
1.401216466e+20
1.397775146e+20
1.39904668e+20
1.399345165e+20
1.398569942e+20
1.399453515e+20
1.400770485e+20
1.400472e+20
1.40007635e+20
1.398508427e+20
1.394331728e+20
1.397955495e+20
1.398985864e+20
1.400197282e+20
1.401445748e+20
1.402283883e+20
1.397967379e+20
1.398624466e+20
1.397437515e+20
1.398192466e+20
1.398121165e+20
1.399495456e+20
1.39932e+20
1.400456621e+20
1.402745243e+20
1.404663379e+20
1.401401709e+20
1.400420272e+20
1.399951223e+20
1.402088854e+20
1.398364427e+20
1.399290641e+20
1.398817398e+20
1.399923961e+20
1.398383301e+20
1.402058097e+20
1.401720466e+20
1.399933049e+20
1.401171728e+20
1.398047068e+20
1.40163868e+20
1.403017864e+20
1.402655068e+20
1.401159845e+20
1.401932272e+20
1.402776e+20
1.400262291e+20
1.400887223e+20
1.401673631e+20
1.402570485e+20
1.404552932e+20
1.404010485e+20
1.402548816e+20
1.400806835e+20
1.401184311e+20
1.401547806e+20
1.400826408e+20
1.398911767e+20
1.402204194e+20
1.401738641e+20
1.403732272e+20
1.40072435e+20
1.39983868e+20
1.399002641e+20
1.401935767e+20
1.402203495e+20
1.403667961e+20
1.404003495e+20
1.405037359e+20
1.400688699e+20
1.403226175e+20
1.404216e+20
1.400730641e+20
1.403480621e+20
1.402321631e+20
1.400915883e+20
1.401320621e+20
1.399052971e+20
1.40114167e+20
1.402741748e+20
1.403845515e+20
1.403698718e+20
1.402605437e+20
1.403131107e+20
1.405709126e+20
1.403149282e+20
1.403897243e+20
1.40297732e+20
1.400786563e+20
1.404034252e+20
1.401446447e+20
1.401546408e+20
1.400509049e+20
1.400525126e+20
1.39842035e+20
1.400077748e+20
1.399902291e+20
1.39898167e+20
1.402313243e+20
1.39950734e+20
1.401045204e+20
1.397900272e+20
1.399493359e+20
1.402721476e+20
1.399368233e+20
1.399187883e+20
1.397842951e+20
1.400798447e+20
1.400964816e+20
1.401841398e+20
1.397507417e+20
1.400128078e+20
1.400895612e+20
1.401334602e+20
1.399654136e+20
1.397838058e+20
1.39689367e+20
1.397328466e+20
1.396244272e+20
1.400223146e+20
1.396456078e+20
1.396735689e+20
1.398943223e+20
1.399518524e+20
1.39929134e+20
1.399156427e+20
1.396750369e+20
1.397968078e+20
1.397780039e+20
1.398231612e+20
1.397528388e+20
1.39914035e+20
1.397965981e+20
1.398551767e+20
1.401639379e+20
1.399828893e+20
1.398295922e+20
1.397969476e+20
1.400692893e+20
1.39788e+20
1.394771417e+20
1.393877359e+20
1.396816777e+20
1.397229903e+20
1.393990602e+20
1.397862524e+20
1.397507417e+20
1.396153398e+20
1.396609864e+20
1.396760854e+20
1.397879301e+20
1.397343146e+20
1.397506718e+20
1.394649087e+20
1.395932505e+20
1.39346633e+20
1.395552233e+20
1.395624233e+20
1.39638967e+20
1.399329087e+20
1.396868505e+20
1.397984854e+20
1.396901359e+20
1.395856311e+20
1.399051573e+20
1.398383301e+20
1.398579029e+20
1.396714718e+20
1.397715029e+20
1.395692738e+20
1.396813981e+20
1.397598291e+20
1.401173825e+20
1.399357049e+20
1.399963107e+20
1.399162019e+20
1.396529476e+20
1.39549701e+20
1.397911456e+20
1.395661282e+20
1.396053437e+20
1.395925515e+20
1.395556427e+20
1.395852117e+20
1.396679767e+20
1.40096132e+20
1.400179107e+20
1.40036365e+20
1.398147029e+20
1.399027107e+20
1.398804117e+20
1.400088932e+20
1.401316427e+20
1.399343767e+20
1.401203184e+20
1.39907534e+20
1.399338175e+20
1.399390602e+20
1.399042485e+20
1.400153243e+20
1.400576854e+20
1.398687379e+20
1.398093903e+20
1.397168388e+20
1.399493359e+20
1.396463767e+20
1.395047534e+20
1.400391612e+20
1.398980272e+20
1.399777864e+20
1.400780971e+20
1.397936621e+20
1.39858532e+20
1.399938641e+20
1.403018563e+20
1.399560466e+20
1.399954019e+20
1.399078835e+20
1.398935534e+20
1.397527689e+20
1.399621282e+20
1.400866951e+20
1.398223922e+20
1.401166835e+20
1.397677981e+20
1.398745398e+20
1.399968e+20
1.402361476e+20
1.400811029e+20
1.400855068e+20
1.399986175e+20
1.399981981e+20
1.402230058e+20
1.400396505e+20
1.400523029e+20
1.400733437e+20
1.401764505e+20
1.400165126e+20
1.401102524e+20
1.403503689e+20
1.402982214e+20
1.404372583e+20
1.401981204e+20
1.400861359e+20
1.400052583e+20
1.402921398e+20
1.400231534e+20
1.400087534e+20
1.400850175e+20
1.402361476e+20
1.40127868e+20
1.401534524e+20
1.403194019e+20
1.403161864e+20
1.401788971e+20
)
;

boundaryField
{
    bottom
    {
        type            calculated;
        value           nonuniform List<scalar> 
200
(
1.400596427e+20
1.399094214e+20
1.401059883e+20
1.399461903e+20
1.402534136e+20
1.401439456e+20
1.401047301e+20
1.40276901e+20
1.401396816e+20
1.402938874e+20
1.405656e+20
1.404546641e+20
1.40355332e+20
1.402263612e+20
1.402176932e+20
1.407502835e+20
1.403521864e+20
1.402966835e+20
1.40230066e+20
1.40307868e+20
1.404573204e+20
1.403496e+20
1.401557592e+20
1.401751223e+20
1.401552699e+20
1.40099068e+20
1.40015534e+20
1.40324365e+20
1.404658485e+20
1.403053515e+20
1.400309126e+20
1.402518757e+20
1.403212194e+20
1.404181748e+20
1.402633398e+20
1.401570175e+20
1.404112544e+20
1.399776466e+20
1.401183612e+20
1.399630369e+20
1.401512854e+20
1.401473709e+20
1.399596117e+20
1.401560388e+20
1.399915573e+20
1.39980932e+20
1.400476893e+20
1.40046501e+20
1.401135379e+20
1.402455845e+20
1.399868039e+20
1.400107806e+20
1.398603495e+20
1.401349981e+20
1.401958835e+20
1.402624311e+20
1.400142757e+20
1.399144544e+20
1.398246291e+20
1.397471767e+20
1.399209553e+20
1.400232932e+20
1.398530796e+20
1.402464932e+20
1.398289631e+20
1.399350058e+20
1.402836117e+20
1.40187565e+20
1.398557359e+20
1.399279456e+20
1.398040078e+20
1.396511301e+20
1.39791635e+20
1.396463068e+20
1.394890951e+20
1.395920621e+20
1.398644039e+20
1.40173165e+20
1.397406757e+20
1.396934913e+20
1.398768466e+20
1.398008621e+20
1.39965833e+20
1.39688668e+20
1.394939184e+20
1.397092194e+20
1.398265165e+20
1.399142447e+20
1.395677359e+20
1.396370097e+20
1.397368311e+20
1.397956194e+20
1.398847456e+20
1.399756194e+20
1.393875961e+20
1.395032854e+20
1.397413748e+20
1.395480233e+20
1.394751146e+20
1.398308505e+20
1.397152311e+20
1.398258874e+20
1.396467961e+20
1.395976544e+20
1.399372427e+20
1.397971573e+20
1.397279534e+20
1.397719223e+20
1.395809476e+20
1.397504621e+20
1.399935845e+20
1.400033709e+20
1.399268272e+20
1.399373825e+20
1.397335456e+20
1.396136621e+20
1.395329243e+20
1.398985165e+20
1.397753476e+20
1.396254058e+20
1.396006602e+20
1.396472854e+20
1.398104388e+20
1.40041468e+20
1.398651728e+20
1.398165903e+20
1.396761553e+20
1.396198136e+20
1.396264544e+20
1.398496544e+20
1.397943612e+20
1.398331573e+20
1.396862913e+20
1.397394874e+20
1.39751301e+20
1.396477748e+20
1.395285903e+20
1.401954641e+20
1.398674796e+20
1.397506718e+20
1.400263689e+20
1.400576854e+20
1.399531806e+20
1.399554175e+20
1.398676194e+20
1.399248699e+20
1.399654835e+20
1.400188194e+20
1.398833476e+20
1.399621282e+20
1.398644039e+20
1.398575534e+20
1.398257476e+20
1.400355262e+20
1.400150447e+20
1.401749825e+20
1.397383689e+20
1.397287223e+20
1.396118447e+20
1.400419573e+20
1.401250718e+20
1.403716893e+20
1.397311689e+20
1.398040777e+20
1.400893515e+20
1.400434252e+20
1.400527922e+20
1.400899806e+20
1.400455922e+20
1.39692932e+20
1.400235029e+20
1.397874408e+20
1.399569553e+20
1.400255301e+20
1.394787495e+20
1.401662447e+20
1.403195417e+20
1.400172816e+20
1.399117282e+20
1.396842641e+20
1.39902501e+20
1.401632388e+20
1.399703767e+20
1.402081864e+20
1.401478602e+20
1.402035728e+20
1.402335612e+20
1.401417786e+20
1.399506641e+20
1.400328e+20
1.402947961e+20
1.404253049e+20
1.400746718e+20
1.40245235e+20
1.397485748e+20
1.402552311e+20
1.40377701e+20
1.403440078e+20
1.403660971e+20
1.400675417e+20
)
;
    }
    top
    {
        type            calculated;
        value           nonuniform List<scalar> 
200
(
1.401547806e+20
1.400826408e+20
1.398911767e+20
1.402204194e+20
1.401738641e+20
1.403732272e+20
1.40072435e+20
1.39983868e+20
1.399002641e+20
1.401935767e+20
1.402203495e+20
1.403667961e+20
1.404003495e+20
1.405037359e+20
1.400688699e+20
1.403226175e+20
1.404216e+20
1.400730641e+20
1.403480621e+20
1.402321631e+20
1.400915883e+20
1.401320621e+20
1.399052971e+20
1.40114167e+20
1.402741748e+20
1.403845515e+20
1.403698718e+20
1.402605437e+20
1.403131107e+20
1.405709126e+20
1.403149282e+20
1.403897243e+20
1.40297732e+20
1.400786563e+20
1.404034252e+20
1.401446447e+20
1.401546408e+20
1.400509049e+20
1.400525126e+20
1.39842035e+20
1.400077748e+20
1.399902291e+20
1.39898167e+20
1.402313243e+20
1.39950734e+20
1.401045204e+20
1.397900272e+20
1.399493359e+20
1.402721476e+20
1.399368233e+20
1.399187883e+20
1.397842951e+20
1.400798447e+20
1.400964816e+20
1.401841398e+20
1.397507417e+20
1.400128078e+20
1.400895612e+20
1.401334602e+20
1.399654136e+20
1.397838058e+20
1.39689367e+20
1.397328466e+20
1.396244272e+20
1.400223146e+20
1.396456078e+20
1.396735689e+20
1.398943223e+20
1.399518524e+20
1.39929134e+20
1.399156427e+20
1.396750369e+20
1.397968078e+20
1.397780039e+20
1.398231612e+20
1.397528388e+20
1.39914035e+20
1.397965981e+20
1.398551767e+20
1.401639379e+20
1.399828893e+20
1.398295922e+20
1.397969476e+20
1.400692893e+20
1.39788e+20
1.394771417e+20
1.393877359e+20
1.396816777e+20
1.397229903e+20
1.393990602e+20
1.397862524e+20
1.397507417e+20
1.396153398e+20
1.396609864e+20
1.396760854e+20
1.397879301e+20
1.397343146e+20
1.397506718e+20
1.394649087e+20
1.395932505e+20
1.39346633e+20
1.395552233e+20
1.395624233e+20
1.39638967e+20
1.399329087e+20
1.396868505e+20
1.397984854e+20
1.396901359e+20
1.395856311e+20
1.399051573e+20
1.398383301e+20
1.398579029e+20
1.396714718e+20
1.397715029e+20
1.395692738e+20
1.396813981e+20
1.397598291e+20
1.401173825e+20
1.399357049e+20
1.399963107e+20
1.399162019e+20
1.396529476e+20
1.39549701e+20
1.397911456e+20
1.395661282e+20
1.396053437e+20
1.395925515e+20
1.395556427e+20
1.395852117e+20
1.396679767e+20
1.40096132e+20
1.400179107e+20
1.40036365e+20
1.398147029e+20
1.399027107e+20
1.398804117e+20
1.400088932e+20
1.401316427e+20
1.399343767e+20
1.401203184e+20
1.39907534e+20
1.399338175e+20
1.399390602e+20
1.399042485e+20
1.400153243e+20
1.400576854e+20
1.398687379e+20
1.398093903e+20
1.397168388e+20
1.399493359e+20
1.396463767e+20
1.395047534e+20
1.400391612e+20
1.398980272e+20
1.399777864e+20
1.400780971e+20
1.397936621e+20
1.39858532e+20
1.399938641e+20
1.403018563e+20
1.399560466e+20
1.399954019e+20
1.399078835e+20
1.398935534e+20
1.397527689e+20
1.399621282e+20
1.400866951e+20
1.398223922e+20
1.401166835e+20
1.397677981e+20
1.398745398e+20
1.399968e+20
1.402361476e+20
1.400811029e+20
1.400855068e+20
1.399986175e+20
1.399981981e+20
1.402230058e+20
1.400396505e+20
1.400523029e+20
1.400733437e+20
1.401764505e+20
1.400165126e+20
1.401102524e+20
1.403503689e+20
1.402982214e+20
1.404372583e+20
1.401981204e+20
1.400861359e+20
1.400052583e+20
1.402921398e+20
1.400231534e+20
1.400087534e+20
1.400850175e+20
1.402361476e+20
1.40127868e+20
1.401534524e+20
1.403194019e+20
1.403161864e+20
1.401788971e+20
)
;
    }
    inlet
    {
        type            cyclic;
    }
    outlet
    {
        type            cyclic;
    }
    back
    {
        type            symmetry;
    }
    front
    {
        type            symmetry;
    }
}


// ************************************************************************* //
