/*--------------------------------*- C++ -*----------------------------------*\
| =========                 |                                                 |
| \\      /  F ield         | OpenFOAM: The Open Source CFD Toolbox           |
|  \\    /   O peration     | Version:  v1706                                 |
|   \\  /    A nd           | Web:      www.OpenFOAM.com                      |
|    \\/     M anipulation  |                                                 |
\*---------------------------------------------------------------------------*/
FoamFile
{
    version     2.0;
    format      ascii;
    class       volVectorField;
    location    "0.26";
    object      UMean_Ar;
}
// * * * * * * * * * * * * * * * * * * * * * * * * * * * * * * * * * * * * * //

dimensions      [0 1 -1 0 0 0 0];


internalField   nonuniform List<vector> 
1000
(
(0.1651604956 0.08463701433 0.05330693123)
(0.0110434889 0.01811375031 -0.03435359093)
(-0.06535466849 -0.03575624294 0.1589083581)
(0.09527454184 -0.04387719966 -0.1779209644)
(-0.009065549499 -0.1877320777 0.1937001312)
(0.2252518982 -0.07047302466 0.08198343791)
(0.08357020101 0.1484033646 0.07928933853)
(-0.1532364105 0.05965147404 0.2801456991)
(-0.01121611988 -0.1099635818 -0.1821050338)
(-0.3136997678 0.03406524413 0.1080739868)
(-0.3583185464 0.08587233412 -0.0730591497)
(-0.3051264653 -0.09195749174 0.09127513994)
(-0.3365620033 -0.179178812 -0.1013962865)
(-0.029982486 -0.05595849338 0.03352257874)
(-0.05001305205 -0.03587377388 -0.06120259546)
(-0.04385818508 0.1535755253 -0.1367742576)
(-0.01160362021 -0.00114255941 0.1524938314)
(0.138256133 -0.1585793968 -0.1590405956)
(0.0007098773304 0.1473799569 0.09058717857)
(0.008222979202 -0.09948878567 0.0632398057)
(0.1336280202 0.2431205509 0.06088361501)
(-0.167974007 0.04794984276 -0.04752504059)
(-0.1523688898 -0.2971920266 -0.06741279789)
(-0.04351787785 0.0517817109 0.2455628459)
(0.09628919398 -0.1245833369 0.007119744072)
(0.04766768268 -0.09286465931 -0.05069766618)
(0.03243164029 -0.06508787283 -0.1587114878)
(0.1237684604 -0.0660487513 0.122083862)
(0.09223761796 0.09907692854 -0.08688775563)
(0.01036462384 0.02783456729 0.1720236676)
(-0.3398787189 0.03883661666 -0.06518291469)
(-0.1021704877 -0.007413833123 0.2153445562)
(-0.5476063956 0.1382922894 -0.01100985961)
(-0.4480828923 -0.336280177 0.08809967725)
(-0.2316970289 -0.08736384928 -0.0183133073)
(-0.1329817891 -0.03777443079 0.3031546441)
(-0.2552807253 0.02846637575 -0.1735240041)
(0.006779033041 0.02112348615 -0.1942592399)
(-0.06658424239 0.01623218092 0.06436071545)
(-0.1147724243 0.02777526697 -0.02169427244)
(-0.08662229491 0.02196770787 -0.1588259984)
(-0.1027784199 0.1275969894 0.0217707514)
(-0.3862334529 0.1129658394 -0.1587015679)
(-0.3055262896 -0.02088416586 0.008444531909)
(-0.3182968707 -0.04463407874 -0.05996976568)
(-0.3304972326 0.02567353531 0.04817517125)
(-0.1331740015 0.07688606521 -0.08374837237)
(-0.03475422574 -0.1041544064 0.07939106428)
(0.146189192 0.0503269408 -0.03292697291)
(0.09440148388 -0.06397134432 -0.08920315667)
(0.0162646714 0.1689586478 0.2281528267)
(-0.04321395685 -0.0872411038 -0.1641469145)
(0.08458010502 0.1544828229 0.1094539594)
(-0.4252981302 -0.06114007663 -0.001451813893)
(-0.3271033341 0.02879632169 0.1218963892)
(-0.1513850056 -0.06933915634 0.130571279)
(0.2182072346 0.07883845578 -0.03335098822)
(0.05530344469 0.001141459673 -0.08541794078)
(0.07573073712 0.04088490823 -0.004908949146)
(-0.1995259236 0.1036277637 -0.1216716054)
(-0.3907233283 -0.2210578567 0.003435497701)
(-0.4588699216 0.04082923318 -0.1009881326)
(-0.1498913679 0.1863509441 0.002116524345)
(-0.05330893297 -0.2195159944 0.157400719)
(0.1563653097 0.1154375391 -0.04777652249)
(-0.08214202861 -0.005386810038 0.2073969196)
(-0.2419098682 0.224930837 0.09267136673)
(-0.2417349095 -0.306523217 -0.1807278898)
(-0.01179186686 0.006210782915 0.02390924094)
(-0.06429515436 0.1412732966 0.1677132945)
(-0.1683570984 0.06435145891 -0.03434668872)
(-0.00111914663 -0.1275672395 -0.06149107264)
(-0.1599972386 -0.06882044972 -0.03272819038)
(-0.1765847962 -0.117336143 0.1399632663)
(-0.4196631713 0.4684711544 0.01031388234)
(-0.5472407056 -0.1718470553 0.1683688494)
(-0.2818150417 0.03408083767 0.2009457826)
(-0.188117531 -0.2503893188 -0.0406575357)
(-0.1553937995 0.001685462359 0.06590205188)
(-0.1834685476 -0.02142355879 0.06370462285)
(-0.1887399472 -0.09382675098 0.08462440742)
(-0.03778196575 -0.02238137481 -0.08298909111)
(-0.121440583 0.172924483 0.05013777512)
(-0.03606853244 -0.1423091389 -0.07400365777)
(-0.03679313662 0.04484785596 -0.1506208218)
(0.1115915284 -0.2279910514 -0.03466719033)
(0.3574045124 -0.03102709016 -0.2907470113)
(0.1144894705 0.2435945277 0.09612281372)
(-0.1224258882 -0.005676915246 -0.1122977628)
(-0.06424419114 0.05131675762 -0.1317655222)
(0.05581607556 0.1917678589 0.1015598671)
(-0.265864569 -0.126656473 -0.1380031505)
(0.07047289009 -0.08639540536 0.1597838758)
(-0.09896146608 0.1451421697 0.1489557688)
(-0.1792059532 0.08128995867 0.01061118346)
(-0.5025924453 0.1923740848 -0.04867172997)
(-0.290035521 -0.3402174649 -0.3246848405)
(-0.0263822852 0.1088375963 -0.1628390211)
(-0.3986811898 -0.01637897765 -0.03561034575)
(-0.1313082023 0.07637547707 0.1295018578)
(-0.08311297585 -0.2377851686 0.2508520167)
(0.07976011501 -0.03825621522 0.1217000349)
(0.1204174529 -0.06781293048 -0.07530427829)
(0.02640826652 0.1164375547 0.1693957619)
(0.05594016996 -0.0708037995 0.1100797482)
(0.1929320523 -0.1971641693 -0.2060400071)
(0.4109535834 0.07533272485 -0.2805650216)
(0.1885700971 0.3571755961 0.1257428618)
(0.1115814305 -0.02865484071 -0.05863058454)
(-0.1239861245 0.09888739934 0.01361965611)
(-0.3192323583 -0.008911500015 -0.08175840786)
(-0.0005927783189 0.1345369579 0.05969257083)
(-0.2430123387 0.2389668256 0.1429037153)
(-0.1054011509 -0.029503053 -0.1626445578)
(-0.4013030619 -0.03586978209 0.1072693422)
(-0.05495275272 -0.05184106702 0.1519051732)
(0.07316135345 0.01923540885 -0.1170418804)
(0.1915981408 -0.01021491998 -0.1945691633)
(0.05821376863 -0.1242189387 -0.03071084203)
(0.006122317066 0.1211803748 0.1378393291)
(0.1798337482 -0.1024461719 0.09488028849)
(0.005183816863 0.2785576487 -0.1302933127)
(-0.2804081662 0.1664293684 0.3002412288)
(-0.3453920694 -0.07820267536 -0.2117060359)
(-0.166969806 -0.1372308879 0.2111876592)
(-0.08085775722 -0.1604028291 -0.09035295768)
(-0.1547646719 0.2111549731 0.07339858667)
(-0.4606455177 0.1043063377 -0.05178719562)
(-0.241681404 0.01314063973 0.2227932075)
(-0.1193203416 -0.2295390718 0.1152595819)
(0.01202180577 -0.04859925593 -0.1805553943)
(0.001573353238 -0.1287045069 0.183213955)
(0.04337832923 0.2254177934 0.07808473594)
(-0.154885014 0.0466139922 -0.2226212058)
(0.009228176859 0.08433058794 0.0860517459)
(-0.1774131492 -0.1019195955 0.07423589808)
(-0.1694403649 -0.01950850531 -0.09759466231)
(0.04310837463 -0.1947876511 -0.005500128518)
(0.1163519615 -0.1078314941 -0.1046726743)
(-0.03235019852 0.06963449941 0.3645388614)
(-0.02123745786 0.03711193177 -0.1885641829)
(-0.1092386994 -0.08023498843 0.1115859357)
(-0.1241140398 -0.3486755242 0.07802709631)
(0.2323961407 0.1171987189 -0.2115704234)
(0.2792503349 -0.00371496255 -0.07358053063)
(0.2033919823 0.2026797315 -0.1538551163)
(-0.04163229962 0.001371884415 0.05687938631)
(-0.03472171865 0.08318177402 0.004930483578)
(-0.0463651263 -0.2107380672 -0.332413566)
(0.02150136729 0.1807561274 -0.02261749919)
(0.2178510182 -0.1682264867 0.2137617821)
(0.1400843858 -0.1208176687 0.00615448183)
(0.2202384206 0.1918840721 0.02358871364)
(0.06643936385 0.1475576767 0.2376428671)
(0.0999605931 -0.06845526943 -0.1968962825)
(0.06633456071 -0.007798117302 0.1145302675)
(-0.08047523956 -0.05391397439 0.002008529214)
(0.000993428819 -0.04558747281 0.01709447619)
(0.1316229702 0.1029549493 -0.2571378121)
(-0.06047186545 0.02938494006 0.3536547315)
(-0.2140901979 -0.08511839066 -0.09076966922)
(-0.1845666898 0.05323688224 -0.08166198693)
(-0.3548812864 -0.04638155808 -0.2323291461)
(-0.2547717127 -0.02241256034 -0.06691024918)
(-0.2543295875 -0.1458537329 0.2235943321)
(0.109634445 -0.08448761568 0.06939810693)
(-0.01204281569 0.2755187726 0.05027008804)
(-0.2702249595 -0.0463315953 -0.03933115918)
(-0.02311920917 -0.1325375045 0.03896886491)
(0.09355110191 0.1528125313 0.1129548783)
(-0.09562328312 -0.1268520803 0.1184489946)
(-0.0538473137 -0.001564473642 -0.04272803134)
(-0.1440372748 -0.008657870764 -0.02738830414)
(-0.2494939326 0.05819340241 0.1154006267)
(-0.2870500945 -0.1275181608 -0.05076314848)
(-0.1890907928 0.0344109652 0.08926442327)
(-0.1602354349 -0.1453232356 0.02869344867)
(0.1729847902 -0.1098508209 0.01200631764)
(-0.05105350194 0.1815226854 -0.05983088964)
(-0.3243003365 -0.003292051293 -0.03859957951)
(-0.414275828 0.04309520535 0.1703653232)
(-0.4454470836 -0.2817168259 -0.04906480375)
(-0.4113514567 0.09975123224 -0.06723622932)
(-0.08422711156 -0.2431019325 -0.07067852434)
(-0.3173590388 -0.04197408783 -0.008969546872)
(-0.2177123142 -0.137552158 0.103690812)
(-0.05512051978 -0.1557973 -0.08369489333)
(0.1171692981 0.0137790073 0.0401947731)
(0.0004647788292 0.1503741568 -0.02690973063)
(0.08675591255 -0.1748543378 0.1380389664)
(0.2609444034 0.1055867521 -0.1383490253)
(-0.1922643133 0.1332683026 -0.01642979498)
(-0.1129143896 -0.03286936665 0.3227103509)
(-0.1262154576 -0.01036538151 -0.09728902431)
(-0.1041868919 0.0225539401 -0.02024929863)
(-0.1401261849 0.1372489052 -0.05505945949)
(-0.3387640516 0.1726824958 -0.1216757908)
(-0.1106221502 -0.2474518306 -0.1142855704)
(-0.02341921531 -0.110687642 0.1005552383)
(0.07934784149 -0.1321956423 -0.1541124995)
(-0.08939457137 0.1251135885 0.07875355798)
(-0.1228846501 0.1975898688 0.111239744)
(0.02044460127 0.08509208794 -0.07106812077)
(-0.01448340119 -0.2723965345 0.1321985529)
(-0.1111173578 0.07249810151 -0.1198836137)
(0.01851323297 -0.2475228504 -0.03195226502)
(-0.07510494117 0.1130138506 0.06878163939)
(0.1659223127 0.1444914141 0.08192330611)
(-0.0420805897 0.1535532819 0.04379449032)
(0.001677248984 0.2720122401 0.03782927302)
(-0.05336579434 -0.01866572032 -0.02470022825)
(-0.3382790093 0.04693706784 -0.01440584445)
(-0.2388866051 -0.2536332131 -0.07472274426)
(-0.0271263202 -0.3978502214 -0.06999745093)
(0.07252991231 0.2813815229 -0.05827444371)
(-0.1848251982 0.1011469316 0.1908433815)
(-0.1068374928 -0.2198297017 -0.01832918913)
(-0.1442962619 -0.02800156296 0.3278865453)
(0.01705341718 -0.06028760998 0.2592096657)
(0.07185040222 -0.1022612181 -0.1991407026)
(0.09172782193 0.1164964834 0.1181898086)
(0.3147081297 0.0177144427 -0.03793233871)
(0.08408594276 0.2587575644 -0.3024767809)
(-0.1572816614 -0.1202106358 0.09394353195)
(-0.2868738013 -0.1671354304 0.05786960404)
(-0.3180482163 0.2518684855 -0.1752208083)
(-0.354666023 -0.2899303311 0.2980063751)
(-0.2333298127 0.07440586354 -0.0993750999)
(-0.5432103428 0.1294742113 -0.06576306)
(-0.297447486 -0.0659559632 -0.05044649174)
(-0.1536620769 0.09138867308 0.06196710178)
(-0.1974195765 0.2060138486 -0.04118497116)
(0.01560120974 0.2309674864 -0.05065299646)
(0.001780955168 -0.4378838404 -0.1861153626)
(0.1070483123 0.133144289 -0.02555372503)
(-0.3162197917 -0.03568313618 0.1588131799)
(-0.2082654692 0.1020629424 -0.1051955273)
(-0.1617700075 -0.3912626228 0.2106699248)
(-0.1583650368 0.4275550826 0.1379149473)
(-0.3245882918 -0.006464319322 -0.03160943358)
(-0.4019333498 -0.191336972 0.002262426986)
(-0.2317780808 0.08605386892 0.04936314673)
(-0.2777995502 0.08423598323 -0.05316588764)
(-0.2376790845 0.05882759535 0.006287237545)
(-0.07618742573 -0.2114435668 0.0389152432)
(-0.03954496559 -0.0184282039 -0.06377135579)
(0.1339191836 -0.1794954885 0.1941104236)
(0.3196432868 -0.03518567635 -0.03552445539)
(-0.1920877513 0.01921105745 -0.2887281811)
(0.01675317493 -0.04737009676 0.02421156096)
(-0.09946858003 0.1300831555 -0.1177565578)
(-0.1533162894 0.1337933995 -0.189046533)
(-0.315786843 -0.07424239188 0.0101962818)
(-0.08114847056 0.5347757102 0.02271904592)
(-0.2280566144 -0.2539914273 0.03623404146)
(-0.1592861458 -0.3579033692 0.04025895453)
(-0.09236170132 -0.3107972243 -0.09903254304)
(-0.1679280869 0.2798054367 0.1470504977)
(-0.05587725318 0.01991286957 -0.08410642184)
(0.08286932168 0.2780845273 0.2375800002)
(0.02046361722 0.07201789204 0.1678723222)
(-0.1534053431 -0.0645576702 0.07378783872)
(0.1234203609 -0.2106874916 0.1767563943)
(-0.2417661859 -0.1999240429 -0.1335092028)
(-0.261351691 -0.08010604681 -0.1342658946)
(-0.01081986733 0.1093800639 -0.09836127039)
(0.1356341143 0.06439882898 0.08789373292)
(-0.0381539347 0.1421108408 -0.03996583716)
(0.104910109 -0.2951095682 -0.08137728439)
(0.02452648349 0.1771455111 0.2491858779)
(0.04934451069 -0.03048595168 0.3277929999)
(-0.1180973498 0.1538533904 -0.3757838815)
(0.1493875043 -0.021918263 0.09903952233)
(0.07644690561 0.1975180617 -0.141851129)
(0.2410063902 0.4456665265 -0.0722921152)
(0.02623432712 0.02729119034 -0.1273022515)
(-0.2573809355 -0.4090002785 -0.2829592397)
(-0.09878747661 0.1748288693 0.07796506946)
(-0.3170667684 0.07585617834 -0.08444132417)
(0.02463172364 -0.3389038434 -0.02983692786)
(-0.1997194772 0.08118603771 -0.02020989123)
(-0.1234255473 0.02444050318 -0.3748228309)
(-0.3134020405 -0.1501606851 0.2210950439)
(-0.1458389973 -0.04393158614 -0.1011694862)
(-0.1973474436 -0.09391264524 0.1283706825)
(-0.04892008179 -0.4689211295 0.4117944687)
(-0.02710643912 -0.06468316124 0.0925699315)
(-0.1479845204 0.4868130023 -0.07750091287)
(-0.05486112098 0.1624761054 0.1998809362)
(-0.1779248294 -0.1492903554 -0.160386763)
(-0.05399769593 -0.04036968776 0.2772148656)
(0.1289395132 -0.005194673486 -0.04474107043)
(-0.01215555881 0.001388571077 -0.1153830854)
(-0.03555986456 0.1173891977 0.3326355633)
(-0.303962764 0.2578842904 -0.09843949167)
(0.109330436 -0.1619146045 0.01442791799)
(0.2416280551 -0.3687861846 -0.1576316492)
(0.08270841052 0.3821761567 0.06370470655)
(0.3576786602 -0.03974265463 0.2230654322)
(0.1619500791 -0.2127687981 -0.07192112266)
(0.0629025936 0.01039450794 0.1865238716)
(-0.3959757244 0.1108370191 -0.01712239932)
(-0.463889845 0.01898296296 0.07661444748)
(-0.1614870427 -0.1522769661 0.1135777399)
(0.164842603 -0.2277820199 -0.2998382134)
(0.1971130083 -0.07454933944 0.1182372584)
(-0.2760939249 -0.02163297581 0.07414909471)
(-0.04265124095 0.1702661536 -0.152829869)
(-0.09648484816 0.1939588817 -0.1919367323)
(-0.04596093635 0.394123767 0.1579268597)
(6.351363626e-05 0.002110327882 -0.07431544191)
(-0.3719541083 -0.2174408519 -0.2185000031)
(-0.1427028354 0.1096744098 0.2430846198)
(-0.003076213137 -0.02499626727 0.03936852716)
(0.1180300548 -0.1876015882 -0.1348329057)
(0.04413997482 -0.007910624107 0.02406353824)
(0.318894601 -0.2625101477 -0.04382212714)
(0.2023663922 0.2758553571 0.03339206191)
(-0.07048032655 0.08676151241 0.08086627466)
(-0.2532877124 -0.1116797239 -0.2379684586)
(-0.1850808123 -0.01032311464 -0.2419407533)
(-0.1821902047 0.1881366965 0.1522164837)
(0.01113342636 0.2279420883 0.1461967462)
(-0.1097741205 -0.09486370927 -0.01040536445)
(-0.1947340583 -0.04792321481 0.07613542011)
(-0.1476465881 0.1080371395 -0.06303125017)
(-0.0274313154 0.1519448476 -0.1312226801)
(-0.05170579485 0.0543668976 0.03798091747)
(-0.2920180866 -0.1908768614 -0.2780160673)
(0.0009464727342 -0.05107288922 0.1951543412)
(-0.03644249576 0.05531909017 0.04904555047)
(-0.1342060766 -0.1458019063 -0.1116100471)
(-0.2407817062 0.2818220767 0.03660521532)
(-0.02592107098 -0.277542975 0.1019485368)
(0.09484012692 0.08104184713 0.1309376987)
(-0.03413983673 0.1791134231 -0.1471649997)
(-0.2559540114 0.03457291413 0.1454530133)
(-0.3980194423 -0.1550072931 0.1273402444)
(-0.5315155249 0.04073628682 0.1216209356)
(-0.4242054774 0.1530754713 -0.09057660808)
(-0.2379465851 -0.05961009062 0.1313156727)
(-0.447754402 0.175341158 0.01769044128)
(-0.1403344467 -0.5424603948 0.1210193328)
(-0.009378788523 -0.1856795653 0.07346137222)
(-0.0003586157456 -0.1458396747 0.1753255137)
(-0.1529424514 0.4579494473 -0.1569934846)
(-0.3069314947 -0.09447208151 -0.04742657854)
(-0.06206708687 0.1514994378 0.1590753443)
(-0.09642435948 -0.1259187903 0.2526319917)
(0.07626212565 -0.1449011517 0.1608922055)
(0.03888534802 -0.09225035797 -0.2331618453)
(0.13995567 0.1438682068 -0.2835852507)
(-0.1393507479 0.06800360219 0.1252009601)
(-0.00761293256 -0.03533290174 0.0632763158)
(0.1642799111 -0.1347245105 -0.1361214633)
(0.1977382816 0.3388573884 -0.2033593907)
(0.1543861295 0.02366620494 -0.100642783)
(0.06541244994 -0.143209264 0.1944973868)
(0.1777506822 0.09609292508 0.00921257567)
(-0.02711479501 0.1001770711 -0.1522346864)
(0.1805285989 -0.01129260251 -0.1267255058)
(0.01660520375 0.3976722124 0.1641069905)
(-0.106924862 0.03443631809 0.1692681739)
(0.102653724 0.005870487508 0.0136231693)
(-0.1043462023 -0.03716381087 -0.07900198948)
(-0.4899779312 -0.1073103358 0.07862957242)
(-0.3544225471 0.2055683127 -0.01301313927)
(-0.2073093522 0.07821596914 0.005167385495)
(-0.5471564762 -0.2333133625 -0.1504441686)
(-0.4853705593 -0.06960190616 -0.01087373479)
(-0.3022188744 -0.08337604066 -0.1283821901)
(0.1592945079 0.08314434636 -0.1951863302)
(-0.1917103809 0.4530006329 0.1070681659)
(-0.1248659374 0.09920542362 0.05992698631)
(0.1146839206 -0.3885771983 0.03189826527)
(0.01586212435 0.03513985821 0.0165882539)
(0.03602085082 -0.1270251712 -0.05778021269)
(-0.03450431218 0.003607028902 -0.08974577884)
(-0.3008431513 0.1528935852 0.06014221136)
(-0.09458039064 0.3898318777 -0.0615925803)
(-0.2270309053 -0.02411484604 -0.1409486753)
(0.1688550885 -0.2564352031 0.1063996403)
(-0.1244751598 -0.07600522419 0.02652293161)
(0.03900284185 0.0426900771 -0.03523192538)
(0.009939941207 -0.1166809583 0.05547898802)
(-0.03824416047 0.2510233192 -0.1407408389)
(-0.05361288625 -0.177698137 0.1352713328)
(-0.3695535456 -0.06755795391 0.1595462366)
(-0.1931569326 -0.2652331232 -0.05240015937)
(-0.3280510143 0.1183941378 -0.1925355883)
(-0.2400749807 -0.08484369686 0.205082481)
(0.03886712491 0.0768395811 0.2048036845)
(-0.006672698364 0.02987944071 0.01046820748)
(0.2111698079 -0.1890199028 -0.1838349628)
(0.03032571581 0.0594658899 0.1199852665)
(0.1413216572 0.1899501164 -0.1541120543)
(0.04275148905 -0.1697315236 0.006761682169)
(0.03909731322 0.08640310516 0.04066428243)
(-0.1371255296 -0.5127633532 -0.06849901402)
(0.1631007649 0.05246639564 0.07904096282)
(-0.2111967734 -0.03134040302 0.06051963525)
(0.1927100268 -0.03556719929 0.06869576439)
(0.1062490715 0.2874641688 0.1023641953)
(-0.145295858 -0.1123068401 -0.2880104647)
(-0.1960203567 0.1226292013 0.04364823788)
(-0.3817964984 0.08466800523 -0.02856797063)
(-0.2894460736 0.03999797612 -0.1967659463)
(-0.368318327 0.01829116912 -0.07148272679)
(-0.3116506789 0.2339778056 0.1875577767)
(-0.003859455222 0.09654882554 -0.0504277522)
(0.06056231677 0.332052126 -0.1686361842)
(0.007448895207 -0.08019656787 0.01655206985)
(0.2926566223 -0.03562869644 0.2168905602)
(0.1131609444 -0.1068714286 0.2780246175)
(-0.1000089874 -0.0610374686 -0.02242748305)
(0.2142172328 0.0149406753 0.1398575002)
(0.01389815202 -0.1236780617 -0.09220392844)
(0.09550639093 -0.1829488792 -0.08330129386)
(-0.1382860897 0.1898616962 -0.2535432888)
(-0.1133293635 0.04051832365 -0.1300234926)
(-0.207575975 -0.1448062891 0.3412566209)
(-0.2211375704 0.1025344591 -0.003173070962)
(-0.1198620958 0.318374906 -0.07093155081)
(-0.2473267956 0.1276209295 0.08995542829)
(-0.2486190663 0.1396455415 0.1464308972)
(-0.2496036939 0.1225614468 -0.02060455949)
(-0.01493978189 -0.04925898134 0.01346422172)
(-0.1503698872 0.05046272483 -0.001227156487)
(-0.004297140173 -0.09947068237 -0.04178969805)
(0.08625201854 0.02288522944 -0.1235684782)
(0.08204274704 0.1098739417 0.06640024571)
(-0.2030189679 0.1887518411 -0.1349842342)
(-0.139589339 0.002555587519 0.06141186241)
(0.08440889382 -0.2314078821 0.1912034277)
(-0.1987000449 0.2159124161 0.02943335546)
(-0.20249904 -0.0006907476527 0.1186917773)
(-0.3878903622 -0.1726002663 0.04269888856)
(-0.2616240947 -0.2671325986 0.2185750649)
(-0.4868804912 -0.02731764817 -0.01686497383)
(-0.04904989786 0.3332965361 -0.1038309204)
(0.0959404518 -0.2099111223 0.2446024429)
(0.1894037052 -0.01107531719 -0.1464132134)
(-0.03915449355 0.1920831295 -0.1357030985)
(-0.01156602589 -0.07438128062 -0.1682452698)
(-0.07395065328 -0.1426986046 -0.2075808321)
(-0.1661103955 -0.1627919227 -0.04982863652)
(-0.167812289 -0.3190220693 0.2074991139)
(-0.3049750308 0.0726135217 0.1519894644)
(-0.1582943298 -0.04852236847 0.08306548716)
(-0.317574949 0.0347808306 -0.1809092147)
(-0.262212057 0.0250336163 0.1753644538)
(-0.04603568738 0.07415397621 -0.09946272578)
(0.02285924902 0.1453916976 0.01662936725)
(-0.03055800471 0.2757046246 0.03606448534)
(-0.01193282604 -0.1408100426 -0.08997010217)
(-0.2805694078 -0.1133890567 0.2288007876)
(-0.6436305149 0.05975529135 -0.1484592514)
(-0.2371554032 -0.07021623816 0.02440861085)
(-0.245566823 -0.181629459 -0.09140346213)
(0.06179453919 0.002154609557 -0.09958598412)
(0.22676961 0.2904391085 -0.07964142688)
(0.2309563052 0.1235972025 -0.1756362832)
(-0.00461433644 -0.1120356371 0.1033535675)
(-0.1582039218 -0.05446181878 -0.1185963453)
(-0.3826794797 0.02698756841 -0.1195651267)
(-0.04485283121 -0.0735427292 0.2806145141)
(-0.07533924159 0.123187934 -0.1771782407)
(-0.08612625712 -0.1146075615 0.1368858065)
(-0.1060187136 -0.395297341 0.01754463573)
(0.01080444549 0.09999639617 -0.05229115665)
(-0.1276835998 0.1776626375 0.05809207228)
(-0.05885240363 0.08004807902 -0.08782888233)
(-0.2995707724 0.05801457028 0.1780265482)
(-0.2178891099 -0.1178687673 -0.04466572939)
(0.00781117515 0.07675219531 -0.07926693331)
(0.4041739371 -0.03812726126 -0.1441023581)
(0.322144822 -0.1644044106 0.2104564151)
(0.1559456785 0.1852809099 0.08633526056)
(0.3904955051 0.06511715542 0.08897594823)
(0.1821263503 0.1171176775 0.190102709)
(-0.3073290864 -0.01579694182 -0.03580914984)
(-0.2957083134 0.02857715929 0.1958060879)
(0.03552580852 0.05253484541 0.1897486297)
(-0.02226002648 -0.03364132026 0.007290509669)
(0.3281835911 -0.1940702005 -0.156415187)
(-0.08855921414 0.0278166559 -0.1533047786)
(-0.2885721219 0.06224115273 0.05521786939)
(0.01560312757 0.06227785791 0.1293630409)
(-0.3019707977 0.1010075359 -0.2237064963)
(0.0274475786 -0.06394557282 -0.1589784699)
(0.05890397576 -0.1478295229 0.06701675393)
(-0.03231366823 0.04668732388 -0.133558952)
(-0.07321415304 0.01084608603 0.1349248009)
(-0.1176962401 0.3200515095 -0.02761166145)
(0.2089947964 -0.05331572921 -0.01491056784)
(0.2073912738 -0.1289628208 -0.2024010823)
(-0.2066532166 -0.4153140398 -0.06497035231)
(-0.03140556726 0.07103592918 -0.1329963003)
(0.2390020568 0.006985800182 0.1912870272)
(-0.1774228159 0.1625724875 -0.09912955185)
(-0.2783998783 -0.03873152944 0.06399607274)
(-0.2225819669 0.4122406826 0.01658776896)
(-0.1274745163 -0.2651575761 -0.07664440616)
(-0.1629600667 -0.07383480532 -0.06162732067)
(-0.3362790026 -0.2863334558 -0.07311788764)
(-0.2613470677 0.103982669 -0.05701432833)
(-0.3845812779 0.4035907663 -0.07982807848)
(-0.2617537221 -0.345770336 0.02573724437)
(0.006869570686 0.07331553003 0.1209341304)
(0.2394583928 0.1720280431 -0.1964216271)
(0.3480833471 -0.00216029313 -0.08962409326)
(0.3305856221 0.2807260315 0.1405474071)
(0.2443138204 -0.2166973971 -0.1997668558)
(-0.02567333419 -0.07325170409 -0.2666755398)
(0.1681482749 0.02843038752 0.1231418055)
(0.1747063602 -0.2220935723 -0.1699254689)
(-0.2366824767 -0.4156222066 0.3274956599)
(-0.01642612759 0.1638241042 0.07620446631)
(0.1092589463 0.4044508585 -0.02995442073)
(-0.07940192635 0.02470817772 0.09452228091)
(-0.1565533406 -0.1724673805 -0.01612393953)
(-0.1345823458 0.1621837506 -0.04768719034)
(-0.02422285931 0.148628947 0.03381914298)
(0.08231905124 0.1662591205 -0.08670726944)
(0.07937484921 -0.246708413 -0.1828403361)
(0.08270031093 -0.2231473064 0.05863380834)
(0.0519200449 0.1164528237 -0.2699702618)
(0.0298118712 0.2452767692 -0.2566917626)
(0.02323143723 0.007348519574 -0.09655314126)
(-0.2457664333 -0.3165240067 -0.02102919089)
(-0.07496106784 0.06652707314 0.3052931401)
(-0.1665598964 0.1601308486 -0.06582205713)
(-0.03047356187 -0.1257940359 -0.2015036594)
(-0.06452625173 -0.2213563051 0.08628641195)
(-0.1173493434 0.1750626319 0.1281291499)
(-0.04091542972 0.1049358684 0.08234305457)
(-0.05342987306 0.07924992516 0.07040116654)
(-0.1143823675 -0.01410641284 0.08851110726)
(-0.1802476451 0.2118431121 0.07739558533)
(-0.1613533558 -0.2337611245 -0.1779603355)
(-0.3331648795 0.1329797031 0.0503125147)
(0.1351069957 -0.1055928111 -0.2424833943)
(-0.02603236987 -0.3641080088 0.1022905518)
(0.04489794796 -0.2827938977 0.2994540503)
(-0.2507232769 0.3367043754 -0.2420741032)
(-0.1715758904 0.1485118985 0.1204181017)
(-0.06176311204 0.1864864892 -0.172003007)
(-0.2895582926 0.1043832496 -0.006295680372)
(-0.1771730208 -0.3471572913 -0.01889931553)
(-0.3493281982 -0.05116678326 -0.257028575)
(-0.6046137805 -0.01755114465 0.06890710496)
(-0.6775226846 -0.04477439359 0.1739756859)
(-0.3707227522 -0.04345178517 -0.1692319011)
(-0.2844000264 -0.0905467705 -0.03957812048)
(-0.1597864062 -0.166578191 0.07369739948)
(-0.2573911075 0.2978501719 -0.01351789379)
(-0.1373849299 -0.3263321589 0.02257866394)
(0.2170445216 -0.01143487489 0.0181365244)
(-0.1021433365 0.1628360748 0.04661731125)
(-0.09567262051 0.1669890651 -0.01530268304)
(-0.3113952177 -0.1708599448 0.02252226434)
(0.006098054538 0.4145004136 0.02980919148)
(0.008609897749 -0.07931058245 0.05737324572)
(-0.3971672398 -0.06472599742 0.04641826675)
(-0.1922567356 0.441667523 -0.2501591914)
(-0.2528704589 -0.01972416037 -0.0439031461)
(-0.09114537623 -0.0033973346 0.02578258737)
(-0.02071412691 0.07436554105 0.04960992603)
(-0.1205953442 -0.1480014966 0.1299742208)
(0.1014368499 0.02755029032 0.1887884252)
(-0.06759918238 -0.1680301262 0.126680907)
(-0.1324558106 -0.2191063806 -0.2895522528)
(0.05928029107 0.03496425395 -0.1889642893)
(0.3512607775 -0.1088768936 0.263777219)
(0.2535536484 -0.1583699701 -0.01912006327)
(0.156994977 -0.1506105844 -0.1201395121)
(0.06787045799 -0.07461142354 0.001659261527)
(0.04878417744 0.164182952 -0.1671281993)
(0.2174591619 0.1071535159 -0.0117632619)
(0.07852257402 0.13330407 -0.01593564044)
(0.2967049879 0.09071052647 -0.1559848407)
(-0.3164624044 -0.1427379384 -0.04849508493)
(0.1147423431 0.1854936114 0.0176030084)
(-0.1997753054 -0.185110512 -0.04811794549)
(-0.002564284717 -0.2450798194 0.03714715931)
(-0.01623937819 0.006659231968 0.01248968192)
(0.006172663491 0.1050975083 0.1592383021)
(0.1122905732 0.03847273812 0.01522050525)
(-0.02985457772 -0.2364555135 0.05629884862)
(0.0852313133 -0.07670151656 -0.2619438346)
(-0.05455982071 0.0679493201 -0.1240121272)
(0.002089437701 -0.04067867646 0.05939627752)
(0.07567224809 -0.008802931338 -0.1416008514)
(-0.2129145363 0.06938167725 0.2567797232)
(-0.01002093709 0.2000700529 -0.1804091295)
(-0.2703630607 0.2357063027 -0.07334423751)
(-0.2915615782 -0.1843986098 0.08256612187)
(0.1228745695 -0.1070093355 -0.1479677962)
(-0.3404710738 -0.09166157106 -0.1762028575)
(-0.2017993205 -0.1163599525 0.1333322831)
(-0.09380876018 0.09111074272 -0.04825675094)
(-0.4236093995 -0.1951486138 0.0203218862)
(-0.2513417295 0.1978667747 -0.2094361012)
(-0.3625239218 0.3090274074 0.07916160653)
(-0.4195871016 -0.0619776383 0.1203222709)
(-0.4144025853 -0.01062863671 0.1819888273)
(-0.08521214819 -0.02251991853 0.3390276451)
(-0.2133041989 0.1507209805 -0.05696713003)
(-0.2481011362 0.1447509168 0.1339552893)
(-0.1613283069 -0.3417088088 -0.01314263927)
(0.0590890387 -0.0169040449 0.1308816439)
(-0.05836396728 -0.07675763905 0.05287045933)
(-0.07396856809 -0.2256315349 -0.1832788783)
(-0.2857947338 -0.1307877345 -0.1016586266)
(-0.0913600983 -0.04695986049 -0.06419822656)
(-0.1897874242 0.2169133888 -0.07890612737)
(-0.3076253418 0.03937111861 0.2159600186)
(-0.4390572374 -0.04318414745 -0.162812456)
(-0.2573344984 -0.2335383375 0.05879226374)
(-0.05454284441 0.2326820597 0.05795092413)
(-0.3563091789 0.1107452195 -0.1562469749)
(-0.287354492 -0.1097498414 0.4339227553)
(0.00318914226 -0.06067971581 -0.2784661718)
(0.1771674309 0.01602885719 0.05113491961)
(-0.1674861046 0.1598106032 -0.1125384147)
(-0.08684279304 0.002608632646 -0.001560729154)
(-0.1960411168 -0.07340871746 -0.1594260239)
(0.07002402629 -0.05206952927 -0.0289254036)
(0.1174297971 -0.3219528036 -0.01930865677)
(0.1946610977 0.03247510128 0.02115135954)
(-0.1137849138 0.2724263325 0.03960648717)
(-0.08840112959 0.1255029241 0.1085430423)
(-0.1860930094 -0.2009582146 0.1547136003)
(-0.06043446465 -0.0932636926 0.06741508982)
(0.07732308393 0.01067955448 -0.0724266509)
(0.2455260575 0.3828942823 -0.3228745506)
(-0.0426991275 -0.06200801775 -0.06440649327)
(-8.963134481e-05 -0.01882637841 0.1757596343)
(0.1291253788 -0.1848002911 -0.03837895499)
(0.379998237 -0.1887529537 -0.1426580124)
(0.1829550111 -0.05369097325 -0.1028708028)
(0.1111147615 0.001373567388 0.08085784876)
(0.227574623 0.3677915428 0.04937005455)
(0.2715235685 -0.187526908 0.0122628346)
(0.2171717143 0.0951898491 0.3159649016)
(0.09443531273 -0.2013837172 -0.1117815673)
(-0.008310641714 -0.2033406441 -0.04746401104)
(0.1078135204 0.07109044176 0.05795083642)
(-0.06255432724 0.01133644283 -0.0182929895)
(-0.003761177414 0.005799014126 -0.2086312607)
(-0.2017461994 0.1446024062 0.06324071358)
(-0.2850426334 -0.06405920414 0.09434648406)
(-0.06307280981 0.1120543259 -0.164940249)
(0.0736142096 0.2559100031 -0.02403065964)
(-0.02144959585 -0.1473425807 0.2065562326)
(0.04071092337 0.1500523239 -0.06788175633)
(0.1553197817 -0.2943823962 -0.03046683734)
(-0.1060777821 -0.01455603614 -0.05013663372)
(-0.1557927836 -0.399259421 0.1061103851)
(-0.324041949 0.1248626956 0.0655542813)
(0.04878497816 0.1181210536 -0.1176053307)
(-0.09970393565 0.02707146882 -0.06540188909)
(-0.02853589634 0.05512228555 0.2103013327)
(-0.0472459575 0.2213853733 0.09963465246)