/*--------------------------------*- C++ -*----------------------------------*\
| =========                 |                                                 |
| \\      /  F ield         | OpenFOAM: The Open Source CFD Toolbox           |
|  \\    /   O peration     | Version:  v1706                                 |
|   \\  /    A nd           | Web:      www.OpenFOAM.com                      |
|    \\/     M anipulation  |                                                 |
\*---------------------------------------------------------------------------*/
FoamFile
{
    version     2.0;
    format      ascii;
    class       volScalarField;
    location    "0.26";
    object      variableHardSphereMeanFreePath_Ar;
}
// * * * * * * * * * * * * * * * * * * * * * * * * * * * * * * * * * * * * * //

dimensions      [0 1 0 0 0 0 0];


internalField   nonuniform List<scalar> 
1000
(
0.009507175015
0.009519466481
0.009506065608
0.009518582688
0.009497282868
0.009507381389
0.009505159146
0.009494755523
0.009502135432
0.009489169742
0.009470435942
0.009480917507
0.009491171402
0.009498689373
0.009494998379
0.009455176736
0.009492023385
0.009493082459
0.009495105502
0.009490337137
0.009481335644
0.009488837272
0.00950118489
0.009498677688
0.009501467704
0.009501908265
0.009510359321
0.009492006734
0.009481048289
0.009488529461
0.009511646222
0.009495724436
0.009488917068
0.009482993748
0.009490583999
0.009500959394
0.009485199613
0.009514300594
0.009505799531
0.009517510125
0.009503308044
0.009508208314
0.009520141195
0.009504215903
0.009515425009
0.009521358302
0.009516029867
0.009514255977
0.009507750269
0.009495528957
0.009513024375
0.009512136073
0.009528054786
0.00950377418
0.009500892825
0.009493126293
0.009515592925
0.009523187278
0.009529049524
0.009536756031
0.009522783499
0.009513011813
0.009525413967
0.009497853731
0.009532899854
0.009525951485
0.009496817396
0.009501948253
0.009526403949
0.009521065744
0.009533481242
0.009546958827
0.009535017718
0.00954740683
0.009556840116
0.009548294846
0.0095304784
0.009505522941
0.00954085007
0.009544737326
0.009529894646
0.009536841757
0.009523611208
0.009544250864
0.00955834254
0.009542359304
0.009535853766
0.009531950481
0.009554823511
0.009548245246
0.009539229965
0.009534476405
0.009534975421
0.00952852194
0.009569992049
0.009559746242
0.009546166409
0.009557933014
0.009557759927
0.009531506199
0.009542175786
0.00953862254
0.009548961837
0.009547829567
0.009524927765
0.009535679995
0.009538690497
0.009536439323
0.009552287062
0.009537518415
0.00952115554
0.009521250124
0.009525459784
0.009529654047
0.009540745955
0.009549091543
0.00955820687
0.00952930553
0.009541312886
0.009552899916
0.009552484629
0.009552180049
0.009537951975
0.009519541542
0.009532259852
0.009536369104
0.009544861511
0.009551127226
0.009550051123
0.009532681515
0.00953254277
0.009527814977
0.009541873031
0.009538497721
0.009537844694
0.009545390642
0.009552844256
0.009504168927
0.009528358785
0.009537143047
0.009521292513
0.009515308348
0.009523209665
0.009530110978
0.009527517808
0.009524447303
0.009523897647
0.00952325407
0.009531749536
0.009520028864
0.009525244175
0.009530187935
0.009531299063
0.009516406503
0.009520787469
0.009504193335
0.009538430661
0.009541510676
0.009550504096
0.009517665373
0.009507120202
0.009491441162
0.009541269921
0.009534196758
0.009511615631
0.009518177111
0.009514558986
0.009514462352
0.009511913289
0.009540376877
0.009511463357
0.00953486199
0.009515252064
0.00951210559
0.009555192374
0.009500734753
0.009489566506
0.009515237886
0.009528821167
0.009540290736
0.009522424733
0.009502506884
0.009519806396
0.009500637789
0.009502322343
0.009499891565
0.009495273427
0.009506831123
0.009524541804
0.009514382311
0.009494894241
0.0094903395
0.009516940703
0.009498954485
0.009532457827
0.009493745339
0.009482118437
0.009486315209
0.009489613162
0.009509593351
0.009492224514
0.009504304857
0.00951665102
0.00950149613
0.00948421141
0.009501879357
0.009514857526
0.009492561216
0.009493075936
0.009492473497
0.009479484264
0.009479031912
0.009471813877
0.00950495324
0.009483837833
0.009484018383
0.009496649779
0.009491393843
0.009481528622
0.009470813444
0.009498183822
0.009528277649
0.009501208521
0.009507961815
0.009506473763
0.009527359298
0.009481442748
0.009471810439
0.009473892011
0.009469840785
0.009484692876
0.009464185615
0.009487816203
0.009480230145
0.009510481824
0.009499958526
0.009500670658
0.009513181479
0.00952580263
0.009507936834
0.009516349766
0.009501671875
0.00951634284
0.009507109158
0.009526381452
0.009523786472
0.009522931512
0.009515043066
0.009498589793
0.009524261539
0.00950822392
0.009504264936
0.009508856029
0.009503295759
0.009502516522
0.009500106114
0.009508512543
0.009526130817
0.009539792409
0.009541751601
0.00955797043
0.009542636273
0.009537020467
0.009525164777
0.009522298255
0.009530311685
0.009516256952
0.00951944988
0.009528557627
0.009540500814
0.009551449866
0.009549192328
0.009540096101
0.009533184129
0.009540290813
0.009533109642
0.009535278836
0.009527277643
0.009535680012
0.009529678986
0.009536386011
0.00953680479
0.009529740818
0.009538047062
0.009559358247
0.009553474803
0.009538671989
0.009547756519
0.009533030077
0.009534949003
0.009542253269
0.009530403396
0.009530226958
0.009569401249
0.009547536331
0.00954031446
0.009550427756
0.009553010765
0.009542264778
0.009547244663
0.009540376214
0.009560905593
0.009565176549
0.009543664317
0.00955377593
0.009548435883
0.009551939881
0.009548375721
0.009524161518
0.009520257915
0.009541871702
0.009532347509
0.009537999647
0.009541166626
0.009553664974
0.009555031727
0.009555902145
0.009533073519
0.009546895862
0.00954186868
0.009543355038
0.009541957508
0.00954693217
0.009549290651
0.009535273442
0.009555035251
0.009540980816
0.009537380842
0.009547839649
0.009527615034
0.009528755809
0.009523479852
0.00953587649
0.009539315588
0.009533678457
0.009553352096
0.009527372112
0.009527012607
0.009534116987
0.009535255901
0.009520074977
0.009509363603
0.00953302572
0.009552076087
0.009541269892
0.009530781698
0.009513401948
0.009525958419
0.009528253348
0.009530643833
0.00951622929
0.009511708064
0.009504235327
0.009519704917
0.009511524911
0.009515541781
0.009530287399
0.009548477358
0.009517808859
0.009526000298
0.009511431513
0.009520069457
0.009527024709
0.009538607271
0.009526662681
0.009529203918
0.009526918994
0.009511423223
0.009522893811
0.009497441363
0.009515654338
0.009506433809
0.009504739485
0.009522314563
0.009517160281
0.009507480939
0.009513152864
0.009499097871
0.009509306056
0.00952172495
0.009516395405
0.009512506958
0.009518156837
0.009499729856
0.009488181726
0.00950600004
0.009507353948
0.009517607517
0.009513443013
0.009533600424
0.009498699031
0.009513203325
0.009504856017
0.009513055823
0.009522368645
0.009519907056
0.009512110004
0.00951684469
0.009499787918
0.009497084553
0.009496956392
0.009503447075
0.00950340039
0.009503359714
0.009513068886
0.009528335967
0.009526975145
0.009517873337
0.009506207964
0.009484145022
0.00946022973
0.009474416423
0.009465063185
0.009481633341
0.009485264606
0.009491700968
0.009488702539
0.009485617291
0.009481215488
0.009488911343
0.009512381946
0.009514473851
0.009489346223
0.009499313851
0.009489407825
0.009487414538
0.009497856799
0.009484173091
0.009517976292
0.009496126451
0.009473399857
0.009492492412
0.00949000389
0.009503664465
0.009491450985
0.009488652089
0.009511738971
0.009514215765
0.009503237292
0.009482244923
0.009516761495
0.009520715569
0.009518983332
0.009507381435
0.009511282406
0.009518461999
0.009523839572
0.009508790207
0.009495518662
0.009516337061
0.009511161156
0.009506830335
0.009513678563
0.009490389219
0.009495088774
0.009511497334
0.009496758557
0.009524737107
0.009534934834
0.009540355358
0.009525965113
0.009531435063
0.009539658666
0.009526794553
0.009538139115
0.009527472319
0.009525027157
0.009502724452
0.009532880085
0.009513991283
0.009539369988
0.009547526819
0.009553933575
0.009544079196
0.00953999857
0.009530072324
0.009538871879
0.009550615098
0.009517496042
0.009545272366
0.009528210028
0.009524582731
0.009532030651
0.009535669287
0.00953699144
0.009540911222
0.009560418952
0.009566079991
0.009535669382
0.009543536191
0.009538943565
0.009548266617
0.009541865589
0.009556292132
0.009556555241
0.009525506048
0.009549498793
0.009536845741
0.009560315834
0.009552610043
0.00954713264
0.009546983445
0.009543300109
0.009562804905
0.009565219457
0.009532565561
0.009515397048
0.009544512609
0.009533410479
0.009530924836
0.009539006821
0.009542502883
0.00953459737
0.00953443001
0.009545066739
0.009554791873
0.009546447311
0.009531093099
0.009552689866
0.009536170491
0.00955407357
0.009550901433
0.009535578749
0.009533478866
0.009525687575
0.00952559295
0.009522063712
0.009536242312
0.009549914448
0.00952547225
0.00953221757
0.009523989668
0.00952017046
0.009530030661
0.009519591462
0.009536051973
0.009518285009
0.009510092028
0.00952677096
0.009534451314
0.009533798984
0.009521009229
0.00951802431
0.009511736295
0.009518793383
0.00949318813
0.009523594356
0.009537787351
0.009529453234
0.009550164898
0.009521869262
0.009513612524
0.009512719387
0.009512281645
0.009526443474
0.009528592381
0.009523549745
0.00952487334
0.009514790043
0.009520948353
0.009515580575
0.009519395802
0.009536931405
0.009520850917
0.009531733941
0.009533528216
0.009533210429
0.009535141497
0.009511211587
0.009503230696
0.009505802098
0.00951493112
0.009512821632
0.009511788852
0.009536086717
0.009523050278
0.00954604346
0.009529932134
0.009520135169
0.009500298115
0.009500208277
0.009520829704
0.009513985504
0.009521734236
0.009518877767
0.009504332961
0.009537268847
0.009527742586
0.009513905775
0.009514605698
0.009499561125
0.009511579029
0.009517327033
0.009524586493
0.009492076097
0.009497121304
0.009500364619
0.009534604584
0.009507685932
0.00947969627
0.009514164736
0.009512185624
0.009502230457
0.009510273096
0.009513479617
0.009511936391
0.00951952638
0.009509121905
0.00949925431
0.009483909203
0.009485630272
0.009478272817
0.009470624381
0.009483085777
0.009494733783
0.009499630601
0.009498579601
0.009512836191
0.009486892084
0.009492100644
0.009518181789
0.009496390684
0.009508736468
0.00951030981
0.009481896304
0.009488305752
0.009486343275
0.009495926627
0.009495275589
0.009481394798
0.009503294648
0.009491465343
0.009498089763
0.009484920044
0.009479258887
0.009494420767
0.009513460612
0.00951838543
0.009495280858
0.009504097105
0.009502502381
0.009514860689
0.009526968926
0.009529686647
0.009518225559
0.009517301315
0.009521777904
0.009515571349
0.009491212007
0.009493560796
0.009530386188
0.009528781746
0.009506391679
0.009474836297
0.009511735734
0.009547740616
0.00951675433
0.009511596887
0.009538718084
0.009534482195
0.009516276504
0.009519005389
0.009546938179
0.00954209631
0.00952761231
0.00952203154
0.009530632605
0.009505226448
0.00951819764
0.009522022721
0.00954534061
0.009525646809
0.009546023845
0.009542029375
0.009541332589
0.009518300398
0.009528489706
0.009534092142
0.009510053853
0.009521815615
0.00952649813
0.009544232901
0.009539462467
0.009545074708
0.009542665709
0.009561655552
0.00954968453
0.00955159906
0.009538341915
0.009543019756
0.009561072475
0.009549901817
0.009552021245
0.009556381882
0.009563064382
0.009559111999
0.009553029642
0.00954740568
0.009548623107
0.009538989269
0.009556488516
0.009546503116
0.009541879971
0.009563919924
0.009531403187
0.009551192811
0.009531844797
0.009557994503
0.009548624421
0.009541543268
0.009537912189
0.009523002798
0.009543308164
0.009533895789
0.009518371728
0.009531102472
0.009532753864
0.009539923329
0.009528525128
0.009519984174
0.009538169072
0.009547129437
0.009557858641
0.009531912616
0.009532889342
0.009536154184
0.009524130897
0.009545187639
0.009548919641
0.00952290817
0.009535940775
0.009505024676
0.009531240774
0.009530481943
0.00951243707
0.009511504812
0.009518675188
0.00951624273
0.009505218596
0.009525772493
0.009533797506
0.009517432069
0.009501254129
0.009516629175
0.009504982006
0.00950987511
0.009537457361
0.009523337971
0.009526282419
0.009526216858
0.009525196741
0.009513499684
0.009517068275
0.009516744156
0.009533816441
0.009566110987
0.009538361362
0.009526529818
0.009518141977
0.009506630045
0.009501324147
0.009533716679
0.00953180068
0.009543766618
0.009535625308
0.009527220509
0.009522678942
0.009521942229
0.009510445527
0.009494294305
0.009482836083
0.009504113759
0.009510576598
0.009515314505
0.009499482803
0.009527193512
0.009523347522
0.009526837515
0.009511710675
0.009526522118
0.009496189561
0.009502641771
0.009517553079
0.009506011914
0.009526347517
0.009508286804
0.009492921278
0.009496166017
0.009506313852
0.009503346487
0.009494926958
0.00950973462
0.009506287833
0.009502715914
0.009494931014
0.009480544798
0.009485512898
0.009498098395
0.009509135728
0.009509166461
0.009505619148
0.009506019643
0.009525233139
0.009501242082
0.009500445998
0.009485203714
0.009508788998
0.009513679124
0.009526342278
0.009504804153
0.009496258289
0.009483718546
0.009478974061
0.00947591325
0.009508057754
0.00948710961
0.009482264166
0.009511652224
0.009486346336
0.009494006117
0.009511004337
0.009506204201
0.009521166311
0.009502708481
0.009497312267
0.009485179202
0.009486223022
0.009495699338
0.009493755043
0.009470911798
0.009490641648
0.00948765243
0.009488784568
0.009505009721
0.009480290888
0.00950361911
0.009502537828
0.009509063291
0.009507829332
0.009526002889
0.009510464775
0.009514340848
0.009523482363
0.009503132171
0.009523672539
0.009509044696
0.009533399471
0.009518322032
0.009498604123
0.00951988632
0.009523219921
0.009530719695
0.009509721482
0.009509107804
0.009502631053
0.009535746734
0.009512776461
0.009510474834
0.009504761276
0.00951822077
0.009532539276
0.009544343226
0.00954366095
0.009548120087
0.009514806496
0.009546531705
0.009540718634
0.009525542702
0.009522354533
0.009524908212
0.009527437939
0.009547895969
0.009536365645
0.009534009553
0.009533154396
0.009537975613
0.009527778572
0.009532852605
0.009530206479
0.009505799962
0.009516068986
0.009527781701
0.009531554939
0.009512925245
0.009536453918
0.009562152951
0.009567363283
0.009544534847
0.009544343585
0.009567409546
0.009539390521
0.009538503082
0.009552366253
0.009549819007
0.009545022331
0.009535543021
0.009542936443
0.009540129338
0.009560418084
0.009550254344
0.009569315811
0.009552801615
0.009556225158
0.009549552463
0.009530636578
0.009544013585
0.009535945913
0.009547807885
0.009554002066
0.00953209253
0.009532557514
0.009532977325
0.009544225247
0.009536165839
0.009553585422
0.009548464926
0.009541088584
0.009514142867
0.009529596511
0.00952680037
0.009529858354
0.009548672807
0.009554605588
0.009535077324
0.009554930473
0.009550897268
0.009554295888
0.009551040862
0.009553669579
0.009547854841
0.00951345191
0.009522411907
0.00951194395
0.009529160455
0.009525005886
0.0095291647
0.009521616098
0.009509382912
0.009521574766
0.009507870577
0.009524074432
0.00952707868
0.009521366462
0.009525894923
0.009517795881
0.009513598977
0.009523991275
0.009532281965
0.009537100337
0.009517194621
0.009547060132
0.009560345942
0.009520885739
0.009530017351
0.009522674479
0.009517822599
0.009537910624
0.009528972287
0.009519833535
0.009499523518
0.009520750041
0.009518182558
0.009523166999
0.009529030304
0.009541230531
0.009521554642
0.009508292316
0.009527957032
0.009503160301
0.009530341362
0.009524374573
0.009513669422
0.009495457196
0.009504941624
0.009509130104
0.009516165827
0.009522572496
0.009501299572
0.009512477119
0.009511681211
0.009510181878
0.009504519395
0.009512605986
0.009505318388
0.009490442518
0.009489700675
0.009481976688
0.009502140789
0.009513709554
0.009515982337
0.009491111016
0.009508106247
0.009513145968
0.009509427219
0.00949910309
0.009506211468
0.009504993769
0.009489574582
0.009489420349
0.009501356213
)
;

boundaryField
{
    bottom
    {
        type            calculated;
        value           nonuniform List<scalar> 
200
(
0.009507175015
0.009519466481
0.009506065608
0.009518582688
0.009497282868
0.009507381389
0.009505159146
0.009494755523
0.009502135432
0.009489169742
0.009470435942
0.009480917507
0.009491171402
0.009498689373
0.009494998379
0.009455176736
0.009492023385
0.009493082459
0.009495105502
0.009490337137
0.009481335644
0.009488837272
0.00950118489
0.009498677688
0.009501467704
0.009501908265
0.009510359321
0.009492006734
0.009481048289
0.009488529461
0.009511646222
0.009495724436
0.009488917068
0.009482993748
0.009490583999
0.009500959394
0.009485199613
0.009514300594
0.009505799531
0.009517510125
0.009503308044
0.009508208314
0.009520141195
0.009504215903
0.009515425009
0.009521358302
0.009516029867
0.009514255977
0.009507750269
0.009495528957
0.009513024375
0.009512136073
0.009528054786
0.00950377418
0.009500892825
0.009493126293
0.009515592925
0.009523187278
0.009529049524
0.009536756031
0.009522783499
0.009513011813
0.009525413967
0.009497853731
0.009532899854
0.009525951485
0.009496817396
0.009501948253
0.009526403949
0.009521065744
0.009533481242
0.009546958827
0.009535017718
0.00954740683
0.009556840116
0.009548294846
0.0095304784
0.009505522941
0.00954085007
0.009544737326
0.009529894646
0.009536841757
0.009523611208
0.009544250864
0.00955834254
0.009542359304
0.009535853766
0.009531950481
0.009554823511
0.009548245246
0.009539229965
0.009534476405
0.009534975421
0.00952852194
0.009569992049
0.009559746242
0.009546166409
0.009557933014
0.009557759927
0.009531506199
0.009542175786
0.00953862254
0.009548961837
0.009547829567
0.009524927765
0.009535679995
0.009538690497
0.009536439323
0.009552287062
0.009537518415
0.00952115554
0.009521250124
0.009525459784
0.009529654047
0.009540745955
0.009549091543
0.00955820687
0.00952930553
0.009541312886
0.009552899916
0.009552484629
0.009552180049
0.009537951975
0.009519541542
0.009532259852
0.009536369104
0.009544861511
0.009551127226
0.009550051123
0.009532681515
0.00953254277
0.009527814977
0.009541873031
0.009538497721
0.009537844694
0.009545390642
0.009552844256
0.009504168927
0.009528358785
0.009537143047
0.009521292513
0.009515308348
0.009523209665
0.009530110978
0.009527517808
0.009524447303
0.009523897647
0.00952325407
0.009531749536
0.009520028864
0.009525244175
0.009530187935
0.009531299063
0.009516406503
0.009520787469
0.009504193335
0.009538430661
0.009541510676
0.009550504096
0.009517665373
0.009507120202
0.009491441162
0.009541269921
0.009534196758
0.009511615631
0.009518177111
0.009514558986
0.009514462352
0.009511913289
0.009540376877
0.009511463357
0.00953486199
0.009515252064
0.00951210559
0.009555192374
0.009500734753
0.009489566506
0.009515237886
0.009528821167
0.009540290736
0.009522424733
0.009502506884
0.009519806396
0.009500637789
0.009502322343
0.009499891565
0.009495273427
0.009506831123
0.009524541804
0.009514382311
0.009494894241
0.0094903395
0.009516940703
0.009498954485
0.009532457827
0.009493745339
0.009482118437
0.009486315209
0.009489613162
0.009509593351
)
;
    }
    top
    {
        type            calculated;
        value           nonuniform List<scalar> 
200
(
0.009505619148
0.009506019643
0.009525233139
0.009501242082
0.009500445998
0.009485203714
0.009508788998
0.009513679124
0.009526342278
0.009504804153
0.009496258289
0.009483718546
0.009478974061
0.00947591325
0.009508057754
0.00948710961
0.009482264166
0.009511652224
0.009486346336
0.009494006117
0.009511004337
0.009506204201
0.009521166311
0.009502708481
0.009497312267
0.009485179202
0.009486223022
0.009495699338
0.009493755043
0.009470911798
0.009490641648
0.00948765243
0.009488784568
0.009505009721
0.009480290888
0.00950361911
0.009502537828
0.009509063291
0.009507829332
0.009526002889
0.009510464775
0.009514340848
0.009523482363
0.009503132171
0.009523672539
0.009509044696
0.009533399471
0.009518322032
0.009498604123
0.00951988632
0.009523219921
0.009530719695
0.009509721482
0.009509107804
0.009502631053
0.009535746734
0.009512776461
0.009510474834
0.009504761276
0.00951822077
0.009532539276
0.009544343226
0.00954366095
0.009548120087
0.009514806496
0.009546531705
0.009540718634
0.009525542702
0.009522354533
0.009524908212
0.009527437939
0.009547895969
0.009536365645
0.009534009553
0.009533154396
0.009537975613
0.009527778572
0.009532852605
0.009530206479
0.009505799962
0.009516068986
0.009527781701
0.009531554939
0.009512925245
0.009536453918
0.009562152951
0.009567363283
0.009544534847
0.009544343585
0.009567409546
0.009539390521
0.009538503082
0.009552366253
0.009549819007
0.009545022331
0.009535543021
0.009542936443
0.009540129338
0.009560418084
0.009550254344
0.009569315811
0.009552801615
0.009556225158
0.009549552463
0.009530636578
0.009544013585
0.009535945913
0.009547807885
0.009554002066
0.00953209253
0.009532557514
0.009532977325
0.009544225247
0.009536165839
0.009553585422
0.009548464926
0.009541088584
0.009514142867
0.009529596511
0.00952680037
0.009529858354
0.009548672807
0.009554605588
0.009535077324
0.009554930473
0.009550897268
0.009554295888
0.009551040862
0.009553669579
0.009547854841
0.00951345191
0.009522411907
0.00951194395
0.009529160455
0.009525005886
0.0095291647
0.009521616098
0.009509382912
0.009521574766
0.009507870577
0.009524074432
0.00952707868
0.009521366462
0.009525894923
0.009517795881
0.009513598977
0.009523991275
0.009532281965
0.009537100337
0.009517194621
0.009547060132
0.009560345942
0.009520885739
0.009530017351
0.009522674479
0.009517822599
0.009537910624
0.009528972287
0.009519833535
0.009499523518
0.009520750041
0.009518182558
0.009523166999
0.009529030304
0.009541230531
0.009521554642
0.009508292316
0.009527957032
0.009503160301
0.009530341362
0.009524374573
0.009513669422
0.009495457196
0.009504941624
0.009509130104
0.009516165827
0.009522572496
0.009501299572
0.009512477119
0.009511681211
0.009510181878
0.009504519395
0.009512605986
0.009505318388
0.009490442518
0.009489700675
0.009481976688
0.009502140789
0.009513709554
0.009515982337
0.009491111016
0.009508106247
0.009513145968
0.009509427219
0.00949910309
0.009506211468
0.009504993769
0.009489574582
0.009489420349
0.009501356213
)
;
    }
    inlet
    {
        type            cyclic;
    }
    outlet
    {
        type            cyclic;
    }
    back
    {
        type            symmetry;
    }
    front
    {
        type            symmetry;
    }
}


// ************************************************************************* //
