/*--------------------------------*- C++ -*----------------------------------*\
| =========                 |                                                 |
| \\      /  F ield         | OpenFOAM: The Open Source CFD Toolbox           |
|  \\    /   O peration     | Version:  v1706                                 |
|   \\  /    A nd           | Web:      www.OpenFOAM.com                      |
|    \\/     M anipulation  |                                                 |
\*---------------------------------------------------------------------------*/
FoamFile
{
    version     2.0;
    format      ascii;
    class       scalarField;
    location    "4e-06/lagrangian/dsmc";
    object      ERot;
}
// * * * * * * * * * * * * * * * * * * * * * * * * * * * * * * * * * * * * * //


99999
(
3.144365153e-20
3.163582611e-19
4.919829012e-20
4.228047607e-19
4.833886104e-20
7.220371922e-20
2.449865585e-19
3.136958539e-19
3.057400482e-19
6.080436963e-19
3.082919498e-19
7.096808207e-21
2.510290924e-19
9.432529055e-20
6.63303374e-20
2.428630748e-19
4.284083447e-19
5.003786718e-20
1.044252501e-20
4.020511945e-19
2.06520235e-20
4.945895437e-19
4.789758971e-20
1.053730987e-19
4.102961152e-20
5.537860309e-20
2.373676588e-19
1.448699051e-19
1.96821704e-19
3.683361306e-21
3.797014529e-19
1.097337833e-19
1.31181038e-19
3.701630083e-19
4.184109432e-21
1.967719642e-19
8.748486729e-20
5.171891803e-19
1.369408222e-19
1.538338975e-19
1.223544899e-19
2.909881865e-19
3.3744008e-20
1.981748882e-19
3.78972981e-19
2.201629461e-19
1.123328583e-19
8.939327387e-20
4.177647617e-19
5.973125537e-20
1.913161618e-19
9.53916218e-20
1.089618812e-19
1.969970556e-19
3.572298285e-21
3.732706731e-20
6.624014947e-19
2.154692038e-19
1.874477273e-19
1.539166374e-20
1.341742033e-19
1.659119506e-20
1.842401594e-19
2.276727487e-20
7.049128319e-20
3.637007516e-20
2.83562089e-20
1.606600946e-21
2.427120275e-19
1.325213637e-19
2.507756209e-19
4.219018565e-19
6.687287344e-20
1.27295696e-19
7.680272356e-19
8.584537612e-19
4.601935744e-19
6.321424618e-20
7.926216109e-19
5.580267083e-21
2.932874203e-19
1.056596231e-18
3.960389022e-19
1.594682215e-19
1.500441573e-20
6.785252355e-20
1.771804e-20
2.751578254e-20
2.086047706e-20
6.932966333e-20
4.748887999e-19
6.969388629e-19
6.696158816e-20
2.98868799e-19
7.78141252e-19
2.034948057e-19
8.478365134e-20
2.859386608e-19
5.583892934e-19
4.093781215e-21
7.803460632e-19
3.539208544e-19
1.785270086e-19
1.990985572e-19
2.292331811e-19
2.930749617e-19
1.234509e-20
3.153467833e-19
3.068950295e-20
2.484947418e-19
9.369473573e-20
1.467040995e-20
2.347214987e-19
4.73079651e-19
1.891972635e-19
1.234755902e-19
2.404080497e-20
2.189078891e-19
7.372097233e-19
3.297724927e-19
1.936838687e-19
2.501571303e-19
1.120888323e-19
2.033586866e-19
1.156911168e-19
2.104677079e-20
3.257474415e-19
3.640970343e-19
1.319605207e-20
3.751707241e-20
5.324022917e-19
9.855628466e-20
3.099813566e-19
6.389698935e-19
1.400018379e-19
3.40715906e-19
1.14089031e-19
5.30296996e-19
1.463847098e-19
1.594361376e-19
2.363098326e-19
3.928195784e-19
4.053315364e-19
2.883726495e-19
6.155233133e-20
2.330478382e-19
2.746185077e-20
1.878506399e-19
2.241875837e-19
3.810376175e-20
5.957756128e-20
4.71566257e-20
1.025187581e-19
5.606228346e-19
1.543669035e-19
2.083463483e-19
7.470586081e-19
1.056886668e-19
2.126916728e-19
8.323601295e-20
6.968358038e-20
3.251865554e-19
1.638346987e-19
1.66806185e-19
8.539758938e-19
2.094727545e-19
1.170436756e-19
3.943906267e-19
4.669251643e-19
5.829852645e-19
1.463934023e-19
6.668133161e-19
8.875873541e-20
2.2786454e-19
5.575598926e-19
7.583847475e-20
3.141371216e-20
7.03126033e-20
4.83098225e-20
3.69702926e-20
6.303154626e-19
4.875482329e-19
9.708932462e-20
4.982815305e-19
8.408456198e-20
7.482037313e-19
4.973468213e-19
2.8609187e-19
4.808198508e-20
1.548523925e-19
1.031249346e-19
2.000853257e-19
2.243030379e-20
2.171418904e-19
1.756902038e-19
1.866707501e-19
1.519442034e-19
2.076506538e-20
7.367101786e-20
1.399307218e-19
7.848427875e-20
1.358760184e-19
2.76070065e-20
5.997130913e-19
1.343807888e-19
2.309741809e-19
2.965728978e-19
2.642904921e-19
5.89842075e-19
3.970184841e-19
1.600030176e-19
4.436804963e-20
1.063844735e-19
2.80775767e-19
1.106105172e-19
1.679809543e-19
7.956507459e-20
8.384937567e-20
2.342604017e-19
5.17522778e-19
3.327874657e-20
4.064757781e-19
1.320929201e-19
2.01441089e-19
6.657909089e-20
5.086948658e-19
1.571583726e-19
7.975175135e-20
1.61193977e-19
6.030661673e-21
8.856340153e-19
2.485995036e-19
3.42699394e-19
4.488486625e-19
4.230041604e-20
2.51888861e-19
1.57811974e-20
4.630053832e-21
2.388758266e-19
7.454219248e-21
1.511912048e-19
9.704282449e-20
4.193523856e-19
4.500604682e-20
1.263896948e-19
1.12552579e-20
4.70131718e-19
1.5393506e-19
4.912220861e-19
1.597774372e-19
3.190536958e-19
2.531292949e-19
4.897804586e-21
1.590105554e-19
1.998477888e-20
2.64117002e-19
7.168758673e-20
1.330693526e-19
1.490108652e-19
1.10247082e-19
5.944259123e-20
8.64521775e-19
2.697737459e-19
5.24042496e-20
5.803702394e-19
8.098457268e-20
1.84573935e-19
1.774259561e-19
2.601914251e-19
6.699415179e-19
2.482811761e-19
2.671839186e-19
1.78915095e-19
2.911793663e-20
2.709863346e-19
9.161784054e-21
1.636037298e-19
4.370527426e-20
9.008214336e-20
1.303518931e-20
2.670277971e-20
5.202041113e-20
7.453194895e-20
2.112157839e-19
2.240160427e-19
2.043309133e-19
1.396747873e-19
2.588224723e-19
2.87876584e-19
5.375205454e-20
1.458027099e-19
1.13066829e-19
1.695534345e-19
1.386279017e-19
3.577660669e-19
1.373476663e-19
3.031900949e-20
1.963078585e-19
1.910891596e-19
2.926091126e-19
4.780375314e-20
2.380531732e-19
6.212289002e-19
1.671225777e-20
1.021105423e-19
5.642161287e-20
2.519648463e-19
2.664427243e-19
6.04940044e-21
4.417690017e-19
5.362626571e-19
3.80744743e-20
1.287241609e-19
2.995693218e-19
3.169174811e-19
2.344910211e-19
3.297684479e-19
5.902330313e-20
3.05515616e-20
1.108118202e-19
1.659878611e-19
3.216116949e-20
5.282037146e-20
1.470505356e-19
3.386891597e-19
2.866503083e-20
3.952355596e-19
4.41065514e-20
8.093773673e-20
2.623443624e-19
2.278870963e-20
7.430434144e-19
4.346113944e-19
7.289143646e-20
1.77264279e-19
7.526077296e-20
3.443646423e-19
6.179141641e-19
1.81044046e-20
5.69358478e-19
9.951677331e-20
9.005564515e-20
7.852890894e-20
3.933665758e-19
1.202108595e-19
1.054320386e-19
4.516262664e-19
2.103781083e-19
3.711674199e-19
2.845035659e-19
4.035802452e-19
8.73522674e-20
1.252453051e-21
7.401490099e-20
9.778954316e-20
5.655329758e-20
3.264573919e-19
4.917258608e-19
2.5651281e-20
1.287663818e-19
1.728653054e-19
1.038300135e-19
2.953120882e-20
5.74573494e-20
3.047399782e-19
8.171015691e-20
3.211237538e-19
1.727395767e-20
1.739957398e-19
8.33282903e-20
1.182175259e-19
1.506119136e-19
7.234403239e-20
1.560708157e-19
4.468168937e-19
4.997319749e-20
1.027331097e-19
6.14422077e-19
1.049092152e-19
2.321036802e-20
3.338609763e-20
1.270330313e-20
5.247417227e-19
2.977795847e-19
5.830989988e-20
1.747117895e-20
6.151532092e-19
2.723465333e-19
1.366165951e-19
6.302127994e-20
5.730540192e-19
7.719938151e-20
1.053037202e-19
3.248073381e-20
3.167439826e-19
9.10394411e-20
4.123596907e-19
3.452539429e-19
5.079435705e-19
9.214907645e-20
1.11197776e-18
8.446695651e-20
3.757138079e-19
6.031225335e-19
6.355990099e-20
4.074489782e-20
1.86492901e-19
6.100077402e-20
8.83657283e-20
1.627391633e-19
3.441930457e-19
2.123570229e-20
1.38744011e-19
1.533877901e-19
1.061064676e-20
3.149945385e-21
5.485760481e-19
5.058428103e-20
2.517843243e-19
6.1903957e-20
2.178546594e-20
4.895466734e-20
8.401485224e-20
7.89916581e-20
1.324870208e-19
2.684444765e-19
8.332242563e-20
3.222282494e-19
1.769209e-20
2.201803008e-20
4.127091943e-19
4.53700287e-19
1.191934928e-20
6.939245688e-20
3.870068543e-19
2.728892188e-19
1.459239958e-19
2.418684477e-19
8.598598175e-20
4.230400715e-19
9.916262835e-20
1.134282548e-19
1.061569754e-19
2.535055772e-19
5.956728289e-21
1.683223475e-20
7.688260894e-20
7.074400545e-20
1.772793495e-19
4.011793006e-19
4.043824063e-19
9.471450964e-20
2.097085429e-19
9.303935662e-20
2.162369684e-19
1.059424933e-20
1.592695339e-19
2.721488434e-19
2.914799638e-19
4.400133482e-19
1.573647511e-19
2.096431852e-19
2.883418927e-19
2.075103184e-19
1.279412226e-19
3.309309164e-19
1.248134493e-20
2.216712725e-20
9.176440257e-19
2.226804877e-19
2.387418201e-19
4.875257523e-20
9.830253292e-20
6.780021584e-21
2.313787299e-20
6.42480939e-19
3.044772894e-20
3.629587826e-19
6.434428477e-19
4.400815297e-19
4.002255388e-20
1.816697172e-20
1.616891105e-19
3.062170036e-19
1.211686275e-19
3.099244707e-19
1.116277777e-19
4.869025459e-20
9.465635676e-20
9.462869854e-20
7.670832779e-20
1.63779257e-20
2.163705414e-19
9.173105578e-20
3.79724661e-20
6.559320066e-20
2.893818452e-19
1.440165143e-20
2.555163438e-19
3.281651022e-20
4.303041046e-19
7.490645725e-19
2.427456396e-19
8.794511933e-20
1.534465113e-20
4.105997142e-19
4.767179805e-20
5.268056763e-20
2.726527799e-20
1.819243492e-19
6.339495434e-20
1.670529015e-19
8.886099823e-20
1.049092812e-19
1.745059202e-20
4.400235113e-19
3.563253196e-19
3.435456289e-20
7.753861621e-20
3.444328293e-20
1.041623263e-19
2.686144116e-20
1.395157023e-19
6.584639225e-20
2.74782452e-19
6.158043451e-20
5.474306297e-20
1.303867408e-19
2.148916752e-19
1.642892168e-19
4.187710667e-19
1.163376547e-19
6.249862669e-20
6.51161019e-20
2.621901783e-19
1.315958492e-19
1.63463238e-19
2.542976919e-19
1.378503024e-19
8.20079058e-21
3.410856234e-19
4.035595014e-20
2.425833818e-20
2.978702713e-19
2.757897639e-19
2.101913705e-19
1.279057835e-19
1.980730607e-19
3.071563871e-19
1.221111665e-21
6.950464673e-19
1.232441488e-20
3.785388405e-19
1.250823167e-19
2.513517437e-20
1.796069313e-19
3.573150549e-19
1.257296602e-19
1.374975337e-19
9.088012389e-20
1.013129076e-19
6.59979515e-20
3.02623324e-19
1.201594619e-20
1.758402326e-19
8.343916791e-20
1.444187961e-19
6.36408256e-19
4.618064444e-19
4.355392211e-19
4.418347362e-19
3.154183077e-19
4.847869967e-20
9.720249427e-19
2.393806998e-19
6.344448286e-20
1.598695709e-19
8.335996708e-20
5.795131814e-20
7.632621729e-20
2.093947074e-19
9.315387075e-21
1.981436481e-19
2.862536746e-20
1.757242792e-20
1.056729342e-19
2.941471411e-19
2.445862467e-20
9.189232705e-21
1.408648686e-19
3.07033294e-19
4.28393321e-19
2.638895807e-19
3.125327705e-19
4.668651469e-19
4.571862467e-19
4.366440019e-20
1.981331295e-19
1.336416935e-19
7.081597585e-20
5.751907099e-20
3.726274069e-19
3.139269506e-19
1.821395904e-20
2.358665469e-20
1.164900965e-19
5.34515433e-20
1.555988546e-20
4.105975047e-19
3.37050994e-20
7.785534527e-20
3.151065732e-19
1.076636338e-19
2.254147836e-19
2.111797873e-20
3.803834924e-19
8.701188533e-21
8.381440485e-20
2.804544172e-19
3.004748221e-20
4.449240899e-19
3.043856637e-19
9.888136991e-19
4.215770379e-20
7.391627893e-20
2.084984626e-19
1.09520159e-19
2.581598592e-19
1.652566277e-19
4.712328076e-19
5.384739896e-21
8.872797419e-20
5.226381471e-19
2.084402817e-19
2.847044589e-20
9.081882232e-20
1.252471874e-19
2.341724649e-19
9.717524488e-20
4.968364225e-19
4.978600017e-20
2.626291449e-19
3.576913922e-19
3.864181613e-21
1.187204315e-19
9.214830011e-20
4.570549677e-20
1.069464842e-21
4.837866794e-19
2.985007284e-19
3.849781843e-19
9.753177737e-20
4.595731007e-19
2.011216376e-19
4.714878807e-20
1.034260968e-19
3.122379368e-20
4.615552252e-20
2.737207509e-20
6.021380223e-20
2.291499826e-19
5.31424192e-19
8.681167135e-20
5.964545296e-19
3.591083268e-19
1.89151428e-20
3.047190335e-19
1.578671438e-19
9.343686397e-20
1.065328568e-19
1.991616532e-20
3.485772579e-20
8.318747641e-20
2.010728345e-19
4.279751539e-20
9.557370192e-21
1.402202328e-19
4.413908887e-19
1.748225612e-19
3.639996598e-19
6.33810315e-20
3.057240604e-20
4.979683609e-19
1.682391259e-22
9.45799752e-21
1.32129446e-19
2.187429566e-19
4.562519343e-21
3.936313254e-20
2.400439275e-19
2.276438165e-19
7.302993639e-20
3.087383224e-19
3.696440059e-19
1.638806465e-19
9.532071603e-20
5.570948185e-19
2.756185785e-19
9.705136083e-20
5.567248041e-20
4.31450439e-19
1.230669978e-19
4.774004761e-20
5.985415296e-20
1.373937379e-19
9.237020105e-20
1.697624944e-19
1.941424215e-23
3.188164156e-19
4.781838048e-20
4.901034688e-20
1.585369392e-19
3.413266288e-19
2.367806731e-19
2.517878035e-19
1.590579679e-19
2.911948473e-19
7.051779196e-20
3.17250728e-20
1.443692335e-19
6.55043413e-19
8.107888204e-22
2.110741574e-19
2.755616402e-19
2.804903106e-19
9.086536604e-20
1.446321714e-20
7.350514611e-20
2.286062607e-20
7.480300146e-20
2.623268405e-19
1.687419308e-19
1.745983739e-19
8.4446654e-20
7.559821886e-19
2.214641084e-20
7.677052963e-20
3.43550984e-19
1.739586753e-20
1.285268894e-19
3.018857503e-19
5.687997399e-19
1.20613727e-19
3.590985948e-19
6.958422429e-19
6.555611772e-20
1.957074401e-19
3.451595588e-19
1.981988596e-19
2.102246498e-19
3.867402071e-19
6.183240284e-19
2.453864899e-19
6.839644851e-20
2.331798886e-20
7.33503802e-20
4.165998783e-20
3.601046602e-19
7.653604835e-19
2.235923091e-22
2.912920798e-19
4.882823895e-20
3.167945708e-19
7.107683939e-21
2.059301137e-19
2.412450261e-19
2.252886052e-19
8.151609508e-20
1.422489503e-19
1.006257069e-19
6.103043114e-21
2.107100423e-19
5.72156353e-20
1.092098528e-19
2.648079016e-19
5.344359851e-20
1.49465248e-20
1.253913218e-19
9.754053512e-20
9.776736227e-20
5.265353144e-20
2.325894142e-19
1.433649848e-19
1.679264937e-19
1.666441705e-19
1.209581524e-19
4.683939969e-20
1.289602606e-20
4.45204273e-20
1.325029164e-19
4.538442075e-20
1.562611745e-19
1.160674172e-19
6.81427325e-19
7.69445465e-20
4.445439824e-19
4.389376816e-20
2.037919103e-19
3.211167797e-20
7.842033109e-19
2.473007338e-19
2.206963191e-19
2.309129603e-19
1.898909608e-19
4.228082727e-20
1.848170122e-19
4.202482067e-20
7.026807453e-21
2.180943929e-19
1.934944003e-19
2.58712111e-19
4.867348304e-20
2.406344571e-19
1.249735634e-19
1.174826681e-19
1.622033624e-19
1.067585129e-19
1.937429301e-19
1.83670499e-19
9.528866269e-20
3.495528551e-19
2.449518638e-19
1.353730624e-19
3.767706184e-20
1.661813358e-19
4.470392187e-19
1.43935603e-21
5.875204034e-19
6.005162166e-19
1.066320021e-19
4.929013656e-19
5.407592051e-20
8.016481862e-20
7.815463514e-20
2.878818929e-19
2.912058959e-20
1.109982735e-19
6.62048765e-20
4.937043024e-19
7.832660898e-19
5.779579917e-19
3.008743752e-20
1.778082089e-19
4.881380282e-19
1.280989006e-19
1.223318875e-19
7.099424953e-20
2.546826466e-20
1.803384802e-19
3.325609413e-20
6.865344536e-20
3.385699619e-20
1.46550809e-19
7.649483295e-19
1.121881745e-19
8.313159034e-21
3.331820287e-19
6.503513178e-20
8.826266314e-20
1.366818722e-20
1.284743459e-20
6.510474964e-20
2.633534203e-20
3.13415809e-19
1.746063876e-19
5.768582357e-20
1.092372486e-19
4.27289834e-19
9.20505242e-21
3.573189336e-19
7.024735394e-19
5.329121681e-20
1.015303365e-19
2.055694779e-20
2.148564186e-19
3.142991666e-19
6.694291408e-20
2.924767857e-19
7.086113954e-20
1.598022132e-20
4.21561192e-20
1.729500587e-20
1.021986287e-19
4.387781879e-20
5.17063336e-20
4.453841694e-19
1.76703373e-19
2.510243757e-19
2.956807236e-19
3.666860572e-19
7.559775302e-20
4.205336276e-20
2.140077735e-20
7.021722627e-20
5.06931685e-20
2.295026059e-19
2.709562839e-19
3.862548661e-19
2.033137688e-20
1.236735029e-19
3.715522065e-19
1.76587562e-19
1.224897355e-19
4.999695224e-19
2.943443487e-20
1.382811669e-19
4.193963102e-20
5.321328144e-20
7.937512696e-20
2.43959257e-19
3.049134139e-19
3.127889867e-19
5.302350525e-19
3.20691172e-20
2.095354712e-19
3.763212509e-19
1.921025024e-19
7.549966546e-20
1.485497137e-19
2.028553626e-19
1.509127671e-19
2.801728087e-19
3.494532638e-20
2.830790482e-19
7.639461365e-20
3.399134898e-19
2.236390485e-19
6.122537145e-21
4.016849508e-20
1.255765162e-19
8.235647699e-20
1.943951291e-22
1.659457803e-20
6.73454313e-20
2.111998099e-19
3.030873448e-20
6.224792767e-20
1.89836497e-19
1.896886673e-19
1.593076186e-19
6.48583453e-19
1.023331676e-18
3.86452779e-19
2.530676217e-19
2.433754485e-20
1.27416387e-19
9.856618724e-19
4.355140028e-20
1.446085338e-19
5.3822922e-19
2.05794525e-19
3.278466016e-19
1.225150532e-19
2.343992884e-19
1.491477089e-19
5.811718097e-19
7.256407001e-20
2.037841523e-19
9.017264585e-20
3.325711774e-19
5.152865616e-20
3.473090064e-20
2.4421702e-19
4.973940416e-20
9.091245561e-20
3.678788735e-21
8.830276864e-20
1.531620666e-19
1.312537567e-20
1.471679122e-19
8.75293084e-20
2.535564063e-20
2.108835165e-20
1.156299621e-19
2.558332886e-19
1.986638595e-19
1.123352049e-19
4.520359528e-19
2.329743665e-19
1.722422848e-19
2.554934436e-19
1.633070783e-19
1.238201985e-20
1.220324031e-19
7.673022325e-20
9.646341841e-20
8.145850777e-20
4.412706842e-19
2.426457854e-19
1.2991911e-19
5.711353205e-20
2.141636606e-19
8.098135718e-20
5.639065594e-19
1.581776836e-19
2.86678288e-19
1.015119704e-19
1.134635229e-18
1.913359906e-20
2.01871564e-21
7.462909257e-20
1.942373022e-19
6.110999018e-20
1.117860999e-19
2.241843113e-20
2.326586628e-19
1.267508299e-19
1.450533011e-21
1.313363323e-19
5.342686682e-19
2.420164902e-19
2.359231282e-20
6.821366017e-19
2.458872579e-19
6.21165744e-20
3.496243319e-19
3.164290194e-20
9.153618122e-20
2.406748838e-19
1.192855057e-19
1.196565269e-19
2.651868902e-20
1.098181908e-19
2.235558023e-19
6.206627684e-21
3.746781137e-20
1.764419278e-19
5.738110041e-20
1.346493503e-19
6.758495815e-20
7.650060534e-20
2.928809496e-19
4.625598982e-20
1.774466143e-19
2.366874633e-20
4.483991644e-19
3.258454632e-19
3.943086655e-20
5.877955255e-19
1.69803782e-20
8.45143631e-19
2.080079428e-19
2.415799235e-19
9.59492502e-20
9.756597992e-20
3.793829275e-19
4.487848392e-19
2.545112735e-20
3.65799214e-20
1.273558146e-20
3.831612852e-19
2.975835337e-20
3.340025739e-19
4.474998746e-19
2.170625419e-19
3.32441684e-19
2.47629133e-19
1.543551262e-19
1.310618218e-19
1.499599852e-19
1.64043243e-20
1.968717454e-20
4.380494466e-19
1.564988014e-19
9.325308181e-20
1.992230804e-20
2.208340926e-21
1.794805967e-20
2.50147668e-19
1.327096921e-19
1.541044455e-19
4.497808556e-20
3.590714004e-19
1.6985798e-19
4.456573403e-19
2.499923812e-19
9.494543052e-20
4.271439694e-20
1.989155636e-20
7.086939806e-20
2.266669285e-19
1.147783086e-19
6.640106494e-19
1.947492971e-19
1.83277071e-19
1.039351914e-19
4.060528066e-19
3.33510864e-19
8.385446231e-20
5.224489848e-19
5.457680315e-19
1.743729836e-19
2.757198572e-20
6.358608178e-20
1.24603967e-19
1.715077908e-19
1.747547526e-19
1.412301086e-18
2.849282245e-19
4.03090238e-19
1.51066256e-19
4.960285084e-21
3.807061015e-19
5.603682015e-20
6.833180993e-19
1.60683873e-20
1.704390051e-19
3.902085824e-19
3.211120989e-19
1.475903662e-19
7.664425001e-21
9.45516811e-19
6.090391932e-20
1.136029353e-19
1.635451934e-19
2.348029894e-19
5.909632482e-20
5.078779081e-20
1.342702915e-19
1.359010055e-19
4.181866904e-20
2.846888169e-20
4.859373687e-20
6.546746195e-20
7.950219648e-21
5.137715366e-20
5.353790632e-19
8.730158068e-20
6.094702738e-19
2.176890312e-19
1.968684671e-19
2.62968353e-19
4.52003015e-19
6.56338284e-19
2.85750422e-20
4.405160716e-19
2.650617544e-19
6.036275206e-19
8.818010726e-20
3.708398964e-19
1.511584505e-19
5.898523583e-20
1.817359218e-19
1.659796983e-19
6.922157252e-20
3.693982287e-20
3.92028073e-19
1.561854136e-19
5.780677814e-20
2.797419991e-19
3.215691395e-19
7.894987772e-20
3.456708425e-19
5.33448281e-20
2.88181018e-20
6.403226644e-20
7.204049264e-20
1.756807814e-19
2.830374383e-19
6.735846331e-19
2.122111988e-19
2.250688969e-20
5.021097798e-20
4.746779914e-20
6.377260593e-20
1.823215367e-19
6.486178669e-20
1.301690778e-20
4.12448521e-19
2.238933133e-19
3.731918965e-20
3.18694872e-20
7.090352502e-20
6.966619341e-19
3.551476449e-20
4.57257017e-20
2.321081306e-19
2.179130869e-19
5.143046386e-19
5.708937117e-21
1.057828274e-18
8.615338215e-20
4.177383641e-20
5.109923483e-20
6.968382674e-19
1.197473163e-19
4.134568172e-20
1.366410184e-19
6.041970015e-19
8.012649236e-20
3.703454317e-19
2.758592823e-19
5.652246146e-19
6.630326398e-20
2.127449685e-19
2.907275544e-19
4.582766622e-19
5.270880275e-19
6.720769113e-20
4.414410134e-19
3.703018738e-20
2.288280718e-19
2.069483002e-20
2.896692919e-19
1.073154431e-18
7.627176236e-21
7.606785259e-19
9.47737249e-20
6.832184768e-19
2.53632547e-19
2.694771343e-19
6.570613905e-21
1.610354085e-19
3.491355602e-19
1.592445391e-19
1.247156503e-19
2.44537552e-19
6.03956425e-20
6.994411434e-20
1.31183266e-20
3.188320463e-20
2.53712112e-19
1.431003938e-19
9.242232079e-20
1.258992172e-19
4.101926572e-20
4.766251192e-19
9.9548073e-20
3.675504099e-19
7.932437871e-19
4.27192652e-20
2.582384462e-19
3.902876821e-19
7.358499297e-20
8.10783459e-20
2.116896615e-19
3.877175746e-19
2.809356749e-20
8.642918532e-20
1.286787223e-19
8.854660443e-20
2.805697305e-20
4.016754209e-19
5.962398259e-20
1.972736129e-19
3.764177622e-19
8.277456713e-20
3.117238249e-19
4.235736924e-19
2.877139117e-21
3.911978666e-19
1.651916643e-19
9.094336095e-20
2.752654797e-20
4.032089304e-20
1.598996613e-19
8.859361724e-19
1.212976059e-20
1.238275755e-19
3.747982194e-19
7.280822905e-19
4.701068707e-19
5.051904319e-20
5.183721439e-20
9.123085843e-19
1.187344447e-18
3.48674575e-20
5.302762075e-20
4.460465187e-19
1.89651824e-19
1.048860069e-19
3.794187008e-20
4.32651829e-19
6.510630371e-20
2.17338305e-19
2.917073807e-19
5.688657704e-19
2.64351943e-19
6.680600591e-20
2.01359343e-20
1.060205462e-19
7.311049679e-19
2.778335408e-19
3.029256465e-20
1.671995351e-19
4.876594422e-20
1.873923638e-19
3.104133695e-19
8.701087038e-21
2.876155076e-19
4.289197449e-20
8.008596854e-21
8.55936331e-20
1.338599789e-20
9.68639826e-20
2.670471685e-20
1.387286728e-20
1.506387455e-19
9.191500723e-20
2.228398932e-21
2.607668625e-19
2.601945054e-19
3.106118524e-19
2.859581073e-19
2.806780128e-19
1.908251118e-20
1.725662188e-19
6.351810047e-19
4.08736162e-19
2.42716956e-19
1.423521072e-19
1.377056662e-19
2.104932986e-19
3.625545103e-19
2.482654677e-19
6.080838955e-19
5.901830256e-23
5.07859124e-19
1.133703935e-19
1.992385385e-20
1.94658284e-19
2.275229968e-20
3.065143643e-19
4.106755118e-19
1.316304025e-19
8.648678152e-20
1.228340618e-20
4.757222241e-20
3.798959677e-19
9.284705771e-20
4.94789667e-20
4.265365917e-20
9.802055625e-20
1.95255704e-20
4.501176872e-19
1.776343511e-19
3.581193874e-20
1.349390603e-19
9.909851076e-20
3.999450578e-19
1.19793803e-18
3.329657724e-19
4.771186791e-19
6.544630815e-21
1.694421225e-19
1.00223318e-19
3.872297792e-20
2.169963915e-19
1.664071781e-19
1.011037996e-19
4.146004118e-20
7.661396291e-19
2.631398799e-20
7.759229864e-19
2.24617053e-19
7.763271542e-20
1.169615944e-19
5.642983253e-20
8.813967963e-20
2.175684866e-20
1.6620371e-19
4.131518577e-19
4.901368277e-20
3.50932798e-19
5.395539603e-20
9.644486554e-19
1.051639274e-19
3.009987517e-19
1.096626783e-19
7.120909053e-20
7.204477739e-20
1.596035285e-19
3.236938739e-19
4.877167473e-20
5.481723939e-19
3.350523692e-19
1.866568851e-19
1.161141392e-19
1.554781027e-19
3.849335597e-21
3.784119573e-19
5.237736464e-20
1.550199001e-19
1.405561168e-19
1.202137988e-20
1.400629651e-20
1.0139758e-19
1.943217467e-20
5.473548173e-19
5.783462388e-20
2.792046973e-19
1.516998083e-19
6.469390209e-19
1.415466796e-20
9.603323126e-20
4.372517571e-19
4.790152336e-19
7.639799522e-19
1.129776454e-20
2.528750629e-19
2.244664079e-19
1.691090886e-20
1.047468672e-20
6.319290071e-20
2.927452929e-19
5.795700637e-20
1.526243421e-19
1.603495148e-19
6.684932596e-20
1.143282923e-19
1.137066381e-19
3.222467616e-19
1.544788565e-19
1.85804324e-19
2.199939912e-20
1.699969708e-19
2.045799496e-19
1.63631023e-19
1.286816497e-19
1.602547038e-19
1.604767198e-19
5.218152929e-19
1.888751003e-20
4.621170148e-20
1.897810358e-19
4.715484797e-20
6.236809384e-20
1.566739642e-19
4.230063516e-20
2.768487438e-19
4.655658832e-19
8.96607594e-20
7.04421416e-20
1.801665572e-20
3.139098739e-19
3.609054831e-19
4.138791884e-19
7.72085882e-21
2.400319725e-19
1.730419987e-19
3.648912486e-21
1.5362799e-20
6.469150979e-20
3.41639355e-20
1.632682232e-20
1.693032209e-19
5.052298137e-19
3.592047471e-19
2.084748969e-23
4.111684281e-20
9.815288462e-20
7.574829318e-20
5.584750529e-19
8.741302466e-20
1.639924058e-19
9.089099096e-20
1.433324853e-19
2.414894325e-19
1.378483258e-19
1.594630155e-19
5.644265691e-19
7.537415699e-19
5.51906284e-21
4.959744916e-19
1.163843101e-19
5.026255337e-20
4.128574377e-20
1.049064841e-20
8.126037185e-20
8.815410671e-19
1.418535788e-19
7.921617097e-20
1.004082542e-18
1.022768063e-19
6.135619038e-20
1.650820844e-19
2.257322506e-19
2.042980739e-19
1.936188254e-19
7.267594948e-20
5.216116812e-19
7.651127501e-19
3.678101754e-19
1.411759411e-20
5.423153847e-19
2.180145199e-19
6.630353736e-20
2.126980783e-19
7.498231416e-20
4.598077262e-19
3.391054554e-19
1.618775172e-19
1.174818525e-19
5.086149311e-20
4.29880338e-20
7.558692488e-20
9.57658577e-20
1.394948461e-19
3.823470647e-20
4.656247685e-20
3.981779997e-19
4.494892787e-20
6.867868229e-20
2.837967712e-19
9.947022916e-20
1.497741334e-19
2.364789002e-19
1.740108472e-19
3.350205949e-19
3.022952986e-20
1.42527702e-19
1.69156386e-20
1.390462311e-19
1.701839163e-19
1.324344602e-19
5.314074115e-19
6.316915972e-19
1.898834612e-19
2.996129987e-19
2.495488606e-19
1.735438892e-19
2.727126609e-19
4.037638725e-20
5.305492247e-20
7.15651914e-21
2.579011298e-19
3.93062374e-20
4.402474318e-19
5.276597282e-19
3.22337241e-20
1.064929315e-19
3.277599025e-19
7.521905928e-20
8.896218115e-21
2.540451901e-19
1.279678095e-19
1.621952353e-19
6.42031911e-20
1.260152801e-19
8.989641427e-21
4.429161108e-20
4.634602282e-20
4.386521968e-19
1.339754022e-19
3.097887524e-19
5.269430498e-20
1.566839552e-20
1.499165741e-19
1.165683807e-19
1.001344773e-19
1.983504727e-22
1.227011901e-19
1.733524861e-19
3.114756427e-21
1.573368755e-20
5.468183376e-19
2.462001726e-19
2.075243658e-19
6.356140531e-20
4.713713017e-20
1.032674176e-19
2.425828563e-20
4.416939345e-19
5.850846892e-20
2.260862281e-20
2.085175529e-19
8.542001521e-20
1.432863403e-19
8.215158277e-20
1.591927276e-19
8.146718048e-20
9.49461075e-20
2.054004266e-19
8.690033891e-20
1.335343794e-19
1.864259282e-19
1.473070271e-19
1.018530315e-20
3.771129562e-20
3.954979139e-19
4.24722813e-19
4.105203428e-19
2.091659345e-19
3.36822002e-19
2.652786801e-19
1.89550881e-19
5.207768192e-19
3.545760802e-19
2.453075869e-20
1.579649637e-19
2.113080459e-21
1.00046202e-19
3.081022746e-20
1.954740307e-19
8.687584967e-19
1.016077686e-20
3.876051791e-20
5.037150758e-20
2.364928048e-19
2.958242407e-19
3.925721027e-19
1.98400025e-19
2.698259816e-19
2.526772385e-19
4.338695409e-21
4.494391583e-20
1.024115746e-19
5.115283125e-19
2.075687923e-19
3.499725446e-19
5.215261125e-19
3.039498235e-21
2.176891585e-20
1.174414884e-19
2.867927249e-20
4.015614609e-21
5.479810249e-20
1.976556031e-19
3.193213066e-19
5.817805914e-20
3.980054485e-19
3.366648027e-19
1.385042527e-19
1.072550766e-20
1.457736444e-19
4.294732369e-20
4.451998904e-19
2.678361625e-20
4.253000302e-20
1.007303517e-19
8.281091883e-20
6.009838385e-21
6.0038695e-20
1.121482228e-19
1.499389112e-19
3.241278434e-19
6.935414637e-20
3.136109344e-19
1.336825589e-19
7.391225322e-20
1.8605658e-20
1.691018939e-18
2.295620315e-19
2.444259437e-19
1.251331001e-19
6.839791938e-20
1.632232957e-19
4.470313607e-20
1.063242923e-19
4.064987396e-19
2.311527298e-19
1.718158688e-19
3.94197699e-19
1.512835777e-19
1.457499972e-19
1.663645761e-20
7.232764166e-21
7.900665457e-20
9.783947263e-20
7.440170279e-20
1.421536363e-19
1.334847817e-20
1.712927994e-19
9.984859146e-19
1.301603749e-19
1.227051125e-19
8.626521173e-19
1.876322081e-19
1.809700154e-19
1.492682479e-20
3.56783851e-19
2.903407233e-19
3.382843621e-19
3.754558133e-19
1.667529129e-19
2.380718094e-19
1.244519534e-19
3.176447075e-19
1.916850615e-20
1.282632422e-19
5.772137267e-20
7.779513176e-20
4.728564149e-19
3.512574828e-19
8.426801236e-20
1.541642813e-19
1.177381024e-19
1.276717267e-19
2.00676658e-20
1.936043712e-19
4.077906858e-20
8.675109034e-20
4.61786695e-19
5.681100345e-20
3.475924858e-19
2.36193518e-19
3.012827199e-20
1.419813539e-19
4.463431989e-19
3.008187877e-19
7.465906272e-20
2.251916761e-19
5.194338629e-19
2.877530972e-19
2.036383267e-19
7.28769083e-20
1.410418527e-19
7.790555068e-20
1.120741277e-18
1.458865251e-20
2.134792953e-19
6.307865585e-20
1.487357632e-20
6.317581369e-20
5.968200566e-19
5.284847476e-21
6.694071743e-20
2.079224198e-19
1.083389126e-19
2.278723177e-20
2.575671564e-19
1.271053051e-19
3.845983222e-20
9.563897455e-19
2.221358158e-20
2.929523985e-19
1.778942364e-19
1.246297692e-19
2.120404681e-19
3.3998721e-19
1.496969631e-19
6.627368033e-21
1.715479007e-19
2.332542507e-20
1.187449292e-19
4.031903477e-19
1.537499075e-19
1.233301112e-19
1.037328385e-19
2.585972289e-20
5.979021242e-21
1.069013719e-19
4.611102493e-20
1.910794396e-19
4.038288266e-19
2.611904318e-19
1.391174319e-19
1.120052295e-19
2.600562468e-20
6.81422209e-20
3.885248582e-21
5.422763866e-20
3.683341051e-19
1.406395345e-19
4.284542768e-20
3.907784506e-19
4.891065352e-19
2.985743686e-19
4.176599947e-19
8.002396947e-20
1.285260284e-19
1.656637335e-19
5.114836351e-20
1.75981263e-19
1.074342253e-19
1.017180582e-18
2.559863504e-21
9.362727006e-20
2.737318654e-19
3.20841672e-19
3.49306943e-20
1.479864578e-19
1.129441224e-19
9.863293279e-20
9.364985122e-20
3.75053047e-19
7.852214615e-20
1.183702976e-19
1.0743965e-20
3.844410805e-19
1.738912913e-19
1.012905344e-19
8.397707076e-21
4.866356049e-20
2.302366654e-19
2.200626806e-19
5.404349176e-19
2.316745452e-19
8.695968407e-20
9.625762039e-19
8.63330568e-19
1.137847038e-19
2.200629206e-19
1.119638552e-19
1.535138003e-20
2.202148487e-19
7.640914155e-20
1.950522198e-19
7.754960653e-20
1.541413761e-19
5.400358698e-20
6.323332933e-19
1.865049056e-19
2.488096052e-19
7.002813249e-19
9.875205127e-20
2.703357403e-19
1.100368359e-19
9.054338649e-20
4.670156738e-20
5.021550531e-21
2.724274488e-20
1.965094437e-19
3.857647918e-20
6.139439454e-21
3.212525901e-19
8.78162606e-20
1.497505612e-19
1.287087326e-19
6.475070819e-19
4.74409813e-19
8.662161291e-19
4.215472627e-20
5.403337213e-22
3.418005952e-19
1.924128667e-19
1.4187163e-20
8.528187194e-20
1.240089881e-19
1.098161236e-19
1.260922567e-19
8.224204343e-20
1.635279908e-20
2.362328122e-19
2.528891486e-19
1.000444208e-19
3.073214946e-19
5.281624273e-20
2.360680919e-19
3.781343389e-19