/*--------------------------------*- C++ -*----------------------------------*\
| =========                 |                                                 |
| \\      /  F ield         | OpenFOAM: The Open Source CFD Toolbox           |
|  \\    /   O peration     | Version:  v1706                                 |
|   \\  /    A nd           | Web:      www.OpenFOAM.com                      |
|    \\/     M anipulation  |                                                 |
\*---------------------------------------------------------------------------*/
FoamFile
{
    version     2.0;
    format      ascii;
    class       vectorField;
    location    "4e-06/lagrangian/dsmc";
    object      U;
}
// * * * * * * * * * * * * * * * * * * * * * * * * * * * * * * * * * * * * * //


99999
(
(3697.01844 -630.6627729 1618.428561)
(-746.5074169 -4033.219693 -1041.173847)
(-957.303428 1606.432057 -1900.865524)
(-873.5997584 1728.554814 -1190.784804)
(-2803.171757 417.8419745 -1513.625706)
(1715.956407 526.3085248 -19.80878187)
(-722.786048 1329.959231 -1337.12948)
(119.7119439 -1181.744087 -1730.721641)
(-2925.312038 280.3729232 1414.203488)
(2020.528275 3203.39431 -3056.42643)
(1626.574116 -2492.299327 67.74626651)
(644.3370309 -1532.611475 558.9402069)
(2247.449181 2494.633347 -828.7855391)
(5644.234655 478.1186491 -142.9496374)
(825.3800817 923.8469184 1954.915474)
(-483.4640106 1066.652567 1856.679134)
(625.0142142 -4297.759432 877.0895286)
(-3069.598602 4536.561008 -819.9740323)
(-1598.838726 321.103887 -650.4808612)
(-3306.046905 -64.55279165 1470.910304)
(3102.706942 1096.438972 2969.64705)
(440.9530758 -2076.440497 -3557.679855)
(-3478.337015 -1749.109727 -2382.821054)
(-1958.719918 71.38077806 -1687.368986)
(-2010.23516 -2546.412417 -808.7931241)
(1873.285689 -1047.106459 2422.17654)
(493.5619569 -238.635657 1948.992512)
(-4406.564403 -1850.907133 1267.653982)
(4354.58508 -2150.937501 1288.296541)
(1668.901821 -2098.008373 8413.391166)
(-1653.380715 -1555.310679 1801.186875)
(-2738.863047 1644.187606 158.3170448)
(2521.56657 -1826.561229 1049.006532)
(423.013387 -597.7237705 2906.215178)
(-2597.587597 1239.449238 296.0158544)
(1797.736452 1762.843953 -1645.762227)
(-865.2338406 2309.470348 -424.4165286)
(2059.858363 -2812.346816 -383.3283923)
(2628.682144 1254.878234 -953.3333583)
(2537.506255 2045.004091 -1266.015873)
(2320.043372 -1061.880401 950.8905085)
(2405.852673 -611.1436081 -4231.112856)
(-110.6870953 -575.9957292 -2658.726089)
(-79.88183387 -428.0531301 -1564.769423)
(1923.097835 2165.975376 -2723.303328)
(-2124.965962 1021.284787 -1872.539617)
(-2775.811052 -3440.58758 -3560.375728)
(1622.559302 -1667.222335 -941.8104072)
(-964.6809304 3946.066956 1778.911828)
(2045.609024 200.1298878 3021.677535)
(-1055.088942 1545.046815 -166.8668174)
(-1319.274955 -2462.550642 978.8190371)
(-162.6848981 -273.7437594 1084.17369)
(896.3667415 -3118.79972 5745.418328)
(5725.791507 -2444.468205 4019.703613)
(-836.228584 423.2774478 12.14934689)
(-3286.666488 501.5066812 799.2871167)
(427.0219538 -1784.459697 2268.725109)
(-1288.031157 888.6378565 1312.270574)
(4787.736121 755.9597777 -3260.277893)
(822.5982211 634.5413397 -3789.013547)
(52.95374579 238.2606698 -2266.899833)
(1588.410735 -912.9423295 1995.396234)
(1418.110402 506.9787266 1830.599608)
(3534.046056 -4753.252252 -600.4590958)
(506.6472468 1297.495325 926.5691613)
(1214.683635 2488.690288 -159.1591426)
(1262.579129 698.1704774 2836.670501)
(308.9328775 420.9010898 -388.5768111)
(-1154.461935 -2369.484826 -747.467074)
(-1114.120959 1152.569019 -2107.295163)
(696.6607784 1123.740962 1116.509374)
(-5002.310249 145.1047318 502.384372)
(-1873.301817 674.4064806 -929.0329708)
(1237.284204 -618.319288 2341.220097)
(-3737.895872 1044.10722 -2023.167032)
(-752.3776587 3476.696827 1751.864489)
(-2309.598557 1742.557137 -2022.312675)
(-32.03505438 5101.906002 -507.4383554)
(-1094.176524 -4444.244935 -1523.508581)
(-4065.88593 -516.172512 -808.0858211)
(1759.370704 -4051.300111 249.3616951)
(-3596.973168 -729.5249522 1449.064345)
(133.3159046 -2461.475539 -1430.031051)
(23.43629284 749.1969803 99.50023936)
(-675.3941772 932.7097364 -3110.978189)
(-111.417443 1059.063162 -3726.568873)
(1960.644729 506.9652939 -326.1332853)
(2613.229017 -402.6291594 4153.710114)
(2258.536333 257.7987438 -2625.013544)
(-994.6292268 521.0714066 -3860.1103)
(649.7119824 2182.027417 -900.8082452)
(-2622.872335 724.7559533 908.32107)
(2705.802714 1473.135249 440.3101409)
(-1221.152758 2282.74911 -1757.001436)
(673.9110911 -5814.05426 86.17349368)
(-1320.679292 1457.819399 -1440.549643)
(-600.3202269 381.4564531 1523.903658)
(3223.346146 -1321.286202 116.2144207)
(666.2820608 947.2099393 -2605.360903)
(1004.493165 735.4726621 -3973.099363)
(-980.5318935 -1296.232542 817.2535874)
(322.363362 2086.752416 -1891.656324)
(1759.497298 -2318.600731 -612.6896668)
(536.8156148 -1285.302482 3101.591525)
(-1335.803507 -3486.624834 2060.704694)
(-2335.910331 2670.205015 242.1787684)
(-519.2522627 -3804.971359 -1.289564943)
(-419.3727667 3863.11728 -1204.822742)
(3841.223798 -58.53420725 -4071.767687)
(5625.00351 -420.6571226 1294.710262)
(1352.267832 2100.721843 -851.9228551)
(-2070.263887 2534.613726 -480.5975668)
(-1395.313834 3193.696039 275.0740584)
(-426.4975495 1383.675809 739.545737)
(3499.971366 3342.76206 563.6893946)
(-2421.710116 1691.05215 -839.8572723)
(-3236.674642 -3901.827106 -32.62831858)
(-284.3317066 -2931.594594 1219.583753)
(-1125.311286 1073.634481 -390.4032312)
(2467.060144 294.2247887 -5042.591915)
(-1511.043602 827.5583223 1985.231435)
(-1198.374521 1684.600747 1475.855665)
(-2160.065133 1982.617193 1062.851869)
(-1579.781037 169.4154548 -1604.624241)
(-1950.73238 -2028.234585 1332.214666)
(611.5268519 935.8543491 1581.724058)
(-1126.198649 3881.274946 3170.993169)
(-713.8588642 -709.2537452 -1217.271982)
(1121.975686 2309.465685 1387.571291)
(1251.037503 1762.965011 813.2131808)
(2387.278788 -4946.478068 229.5960946)
(885.0205492 -1916.110886 2747.104081)
(1971.301977 2248.178518 -1378.587286)
(-2557.718447 829.2802364 1783.515304)
(-1058.486844 -2117.673647 2302.142579)
(1465.509364 -184.1096149 -50.29106479)
(-1512.415286 1363.881933 -3193.957883)
(-3629.502673 2763.860533 -2312.277013)
(1894.572978 1975.570567 1632.686017)
(590.2457745 891.7156538 171.6203435)
(359.3762941 -1857.907771 1191.319167)
(799.1053344 406.1812335 -16.62195572)
(-538.6584864 2100.101927 4053.282229)
(-1275.360037 -2836.974501 985.9027127)
(-1548.794373 -3010.339444 -742.7269542)
(-1103.996203 -3901.367931 164.4411739)
(-3371.058731 -222.5471195 2870.361681)
(-1191.787078 -1743.376341 -1130.727566)
(-1441.737376 -2986.290418 1145.235076)
(554.401957 2193.323891 -2733.255707)
(1318.929608 2171.015741 -3784.042317)
(95.20406142 3435.008232 421.827502)
(-3236.262862 -2176.59798 1629.933167)
(1013.600402 -696.70799 4656.064736)
(-3871.963392 4037.142724 -1702.783823)
(196.3062668 -2167.040083 -1778.82771)
(4362.987142 5683.803376 2210.180782)
(312.141848 698.576037 -1063.192155)
(-1220.547175 204.1653452 -1032.32645)
(664.0595923 -2153.96694 -77.73129203)
(4169.807759 124.2376909 1108.199521)
(-2061.424045 -119.754277 -451.0425701)
(-30.74199938 -2233.778065 -4402.778101)
(-3986.791091 -222.3048813 1905.692428)
(164.250129 -1289.682956 -784.9595233)
(-1043.334203 1723.221911 -796.7540409)
(-2370.740272 -2858.81854 1624.154168)
(2909.066026 -1481.205454 -1176.348701)
(2789.336194 -562.5889485 -1883.760583)
(1185.209721 112.7645162 -2915.640505)
(1291.751712 2459.656836 3329.234821)
(42.74652116 -405.3581085 597.9915487)
(-2769.398033 107.235846 1092.972909)
(259.1246662 -1429.360807 531.4620623)
(502.6557174 165.664355 1227.433485)
(1936.233555 -1522.901094 -158.9384544)
(-447.9215918 -5213.812859 -2213.207975)
(155.7733518 2742.469063 -1228.632992)
(-2455.878116 2752.572528 3333.22495)
(205.0139556 -3057.782442 525.3692401)
(1458.399224 1702.366671 -1753.498047)
(3499.462943 1531.876278 1716.26087)
(-1805.308406 -2528.38321 1894.669047)
(436.7006705 -367.5684868 -1421.888421)
(1909.196861 257.9953205 1454.176771)
(281.8156561 -99.97866139 535.0821723)
(220.925619 1732.340149 1372.171194)
(-404.6587758 745.564123 1369.076541)
(123.8369188 70.5099502 -534.9643767)
(1452.751733 1667.285588 873.3117424)
(1538.118573 2195.339599 -4833.580939)
(618.4717922 1669.191036 -226.9386609)
(-816.539923 -1677.509676 523.4643978)
(3143.209386 -422.2732411 1809.658711)
(-3061.483905 242.4834046 -216.6646105)
(1292.433879 339.0913972 -4501.913983)
(2023.010263 -1858.04661 -486.7555275)
(2357.770425 -1674.399006 496.4825576)
(-2908.08525 -1341.006194 288.6988756)
(-3767.746786 -139.6365086 1440.544096)
(881.1587648 4862.95158 941.3943007)
(-1489.942638 1781.441425 1295.877463)
(790.921065 -1346.079316 441.4032191)
(417.7278264 4461.566486 2146.711913)
(-1113.475668 723.1585207 1822.943202)
(1199.232025 517.6230058 -642.6824698)
(-3497.775611 946.0644509 -128.7950755)
(-2440.92643 -1378.558638 662.6806657)
(-547.8063146 759.9116199 -2497.043501)
(-316.1248723 1658.63908 1772.317448)
(-1657.66063 1899.494679 2999.006767)
(3803.005121 -1924.262325 -329.9664906)
(-297.0442518 -1877.498434 508.3694956)
(2176.674065 -943.1973091 592.6482638)
(2790.052663 -2195.692764 -934.6327344)
(-1135.262487 497.8054788 -4307.077891)
(3038.624545 -1414.377893 -3223.201384)
(3975.32406 2594.994253 -307.0094447)
(-406.3311221 -1304.662589 -771.7119922)
(4467.766048 -403.4873943 -1434.343148)
(198.1866637 2059.648725 4292.624204)
(-187.2979203 74.18930822 765.6238987)
(-1709.129332 2124.434107 -122.7675816)
(-1065.869239 1215.783456 -2307.970468)
(-1165.805399 4179.069559 -1422.345985)
(337.4541487 -1124.363122 -531.0071396)
(-732.8472777 -2926.266879 -6479.563116)
(-1230.221893 2198.513305 -2089.365041)
(1743.569991 -1530.824721 -3366.424104)
(-3864.224941 -1134.407316 -2233.667815)
(527.6528599 2186.84439 -1513.797208)
(-2099.323691 -1153.839782 -4291.444969)
(1961.431219 -5272.238493 813.1411531)
(-3691.038145 -1873.604094 -864.4252592)
(-1977.8059 -2553.870754 1915.239111)
(2859.72199 -1534.049245 2514.77036)
(-1960.382377 602.5811165 101.7485285)
(-1638.374702 -3014.178916 1802.950352)
(350.734977 -2459.733506 -6534.93769)
(-86.66919825 4241.855748 -2543.882759)
(-2254.450759 -781.0803171 216.9092329)
(-945.6963479 -353.338 498.9504687)
(880.7450903 1460.395576 -42.54729426)
(2028.673852 201.2739747 -247.4960817)
(2279.751976 -1536.43675 -2967.593231)
(687.2591099 -397.1423652 -429.182269)
(2598.949344 1043.976921 1562.757276)
(1674.370308 -37.22195252 2024.354003)
(657.4451881 -3576.251439 -453.2086742)
(1924.336891 -1011.959296 -454.4674929)
(-1724.31455 -1428.286813 1019.017068)
(-588.7826644 -3578.239559 -88.54871668)
(-710.1606451 187.9984569 1108.679433)
(-3042.525829 1715.147434 -554.7525247)
(202.9058416 1357.24829 2019.251027)
(-1108.110057 -2745.107805 -1289.905995)
(1566.180827 -80.6628814 -1879.319819)
(-509.8821919 -1400.064614 -3515.363717)
(456.2294007 3805.980211 4.116064201)
(-878.9582727 638.7198795 -315.7015653)
(3447.116949 -1531.505774 -1637.081683)
(3000.613691 1457.495852 2262.799362)
(-827.0258853 1811.032625 -2264.968869)
(-1800.877577 2526.087813 -1543.230431)
(-2033.853478 764.9919425 -567.6531156)
(-1519.585654 -448.1703454 801.7594997)
(-1543.649947 -3085.2801 2915.374381)
(1642.217106 1453.285607 -1162.711766)
(2134.06569 4232.353203 -503.6543737)
(1808.672463 -48.60551349 -5298.680868)
(-300.2838956 -737.8843862 -726.7753112)
(-2597.398275 54.76138245 5745.716017)
(-4435.197338 2656.58819 5096.082166)
(2460.327548 27.20959281 -860.9754241)
(826.1451891 231.5944292 -339.4051567)
(-1820.906276 -738.3168637 868.9853419)
(3912.861592 1803.555416 -2921.7451)
(1336.358756 -1188.354853 496.9144582)
(-1687.672274 -1699.430221 200.6675874)
(2079.849681 -1030.737356 1723.59078)
(-330.3368976 -2333.758652 -2943.926833)
(-2149.212839 -1196.296997 -3614.364167)
(182.6714812 1689.736359 1396.721071)
(791.8744601 2653.021211 3305.178642)
(-1014.274562 -833.6295027 -5444.307922)
(-644.7187955 2278.231103 -1057.113993)
(-2511.873178 -490.0039797 -1032.19341)
(-197.3702742 -962.9348807 -1787.270655)
(-2592.508781 -1042.829203 683.8978604)
(3210.758756 -2106.260588 -1636.101831)
(4254.458193 530.8488583 -1096.034831)
(-1468.198534 391.1223788 -2187.223121)
(2286.954969 -475.1394389 1954.443041)
(2434.625381 872.5041839 3667.58635)
(-910.2668157 1110.671121 1405.655197)
(502.0121233 -2398.910672 2656.670012)
(3307.798454 1172.534904 -1408.120515)
(461.2893119 1083.62491 1498.284051)
(1761.226163 255.8696821 -922.1943044)
(-1490.033603 -707.5433559 -3224.100119)
(3110.546156 1486.503666 -2347.860246)
(1780.273292 -1401.860836 1979.301958)
(1201.701912 -2407.711341 -4014.081748)
(-2956.16126 1495.578387 913.9864821)
(3462.276364 200.4870551 -1327.342495)
(-1268.220493 1131.217487 8132.858829)
(-2226.052237 1420.250023 778.7046831)
(2821.93733 -935.1040469 4629.900783)
(-91.18551377 429.1697724 -2017.641352)
(4421.02398 1415.462746 3100.496065)
(2272.179019 1832.54122 2213.68332)
(1587.912562 1868.261453 -538.7753803)
(17.96081173 2261.166946 3085.784196)
(-1911.923655 -154.2457608 -475.1796663)
(-861.8919198 -3269.702306 2118.010373)
(729.1558923 2560.096845 -3473.582861)
(-2133.911372 -1505.540356 -108.0814781)
(1401.828227 3043.498837 373.087306)
(230.6214269 -2271.432036 -1420.015659)
(1499.480799 -6.282004098 2391.612805)
(2260.206215 4083.338781 1790.058214)
(-878.3024601 4245.371208 -2244.726031)
(-904.251319 -2800.966979 986.5836369)
(1554.032715 5557.042482 2699.93604)
(262.4097045 -3692.456128 -1257.851488)
(-2336.038629 -5433.017577 838.1534765)
(2177.458096 -2733.773655 572.8409745)
(-1543.818972 3547.169492 1375.166067)
(-289.7708919 5713.964229 -540.9703506)
(-986.5519812 1414.721315 101.9807198)
(362.7903751 -798.0095207 -92.98035715)
(-948.5710325 2079.685172 592.1293241)
(1029.001671 -156.5299511 204.7363305)
(-1584.998975 2402.013947 878.9236235)
(978.1835034 -4708.540441 -906.6565265)
(-1143.340885 325.3164056 -852.2642717)
(517.2556029 112.7568337 1697.560276)
(-920.7176749 -585.4362487 2678.117229)
(-1139.42554 1299.021285 -2231.724692)
(-2159.698592 -1916.144653 -1716.280857)
(-53.99418532 -849.0527514 -3312.814874)
(1519.580724 1679.83477 -1021.858687)
(-2346.171954 2637.772235 -478.830916)
(974.0028686 -3456.529083 -1241.846756)
(3410.556786 -1789.634145 1134.007189)
(1091.365687 225.493619 -646.4873915)
(-2528.534195 -1920.358792 -628.5720489)
(1457.804984 873.5556532 -2943.554718)
(-1419.752893 -1101.483378 755.0813486)
(1075.382468 -5324.806787 131.7964425)
(-343.1054432 -1033.758259 901.6864755)
(-4295.497066 -145.9338568 283.8385664)
(2486.198067 3070.032297 815.3111342)
(-2364.778676 2731.195993 -1014.823181)
(1397.814442 1346.164063 112.4440409)
(-2284.101833 -1087.332511 1791.777231)
(2585.255771 2440.663793 1791.194667)
(603.7347202 2856.526638 1486.822782)
(-2074.686479 -1870.489426 1436.056104)
(1068.89117 -489.5398388 -684.7618928)
(1553.298665 -2004.659104 633.105969)
(646.304358 -63.4445324 352.1523135)
(-496.2052211 1614.188219 274.7128865)
(1959.72542 3498.128003 -664.0268186)
(288.3207486 2296.405745 899.259753)
(3658.751166 -796.6734557 -59.54028857)
(-2821.176675 4563.125049 251.5795429)
(3459.010897 -2822.625377 698.8753316)
(2746.471544 -2607.409419 -108.5141317)
(2901.672848 758.8667747 3892.285625)
(-646.7511526 4107.222802 527.3783727)
(4195.027147 -2405.110487 536.6267631)
(-2011.676306 -4209.559678 -411.1036143)
(4447.323066 -462.3774836 2721.211598)
(615.6076695 1790.750077 2478.518776)
(-2404.238565 -721.2666102 807.6560775)
(-1354.311464 3681.686461 -2221.724829)
(-2992.73553 663.4397424 -2324.114986)
(1541.381648 -958.8403342 -2296.6479)
(455.4643571 -901.9515942 -595.3534523)
(2377.169972 152.0502 750.06741)
(235.5892972 2503.493289 -2644.887152)
(1225.974307 4179.928685 -3709.472112)
(2922.699385 -2623.721845 -545.4228388)
(-1794.836208 335.7720009 -847.8974003)
(-2194.351648 411.020714 -780.0464815)
(179.4171627 2340.770333 266.5291877)
(145.8350237 -341.2681034 2061.469161)
(906.0051477 -961.1782185 -1724.190953)
(214.1813321 1207.658841 -187.9881871)
(1119.199923 404.2603667 -418.5273168)
(-1599.852713 148.1855445 2420.865036)
(611.7532172 -803.5360804 318.9094013)
(2942.577612 -667.9908765 -1970.377233)
(1314.618513 1705.216402 1449.760688)
(-879.998347 -3754.449187 -1751.833181)
(-2502.432247 501.7792997 568.8907188)
(-56.20180701 -5.656038448 -3945.337984)
(-731.160875 -1751.348055 642.107234)
(1288.886871 -2137.062945 -150.6620336)
(640.4156591 -1055.818291 943.4205053)
(-1817.818459 1831.618542 -1197.774427)
(-441.7956857 -1316.648987 1871.972557)
(-1507.206494 -3863.672164 -515.8428324)
(1991.583281 -1613.122215 1093.971517)
(-537.6024148 -2924.13995 -869.8567382)
(2327.634398 -1279.668028 1099.874717)
(-1527.984847 -2924.215144 973.1593679)
(631.99973 -2053.714027 -392.9649211)
(-175.0347784 -1137.089831 4842.477628)
(-1381.05053 -1460.329241 4183.500289)
(-48.40006839 1416.021492 -2121.911207)
(-2825.643455 -1312.473685 -1716.333212)
(-2127.956051 4044.506199 -743.0884747)
(-311.4587372 -1928.002091 -2262.650856)
(621.983399 -1791.381658 2473.645384)
(-3364.09198 2806.163657 2752.009296)
(-1207.362718 -2496.085393 -2943.232154)
(1560.518112 2565.910977 -1437.049127)
(873.3908094 -4072.203074 2971.214749)
(-1179.780255 -188.4278689 4058.03815)
(2046.713506 -402.5493612 366.2493925)
(1921.606347 445.282056 2007.494191)
(2659.243244 -735.5271732 1328.89136)
(48.66320739 3716.541258 -1528.802109)
(195.6980621 450.2380817 435.4788875)
(-4982.522863 2492.642717 936.3081446)
(-3575.268984 -1322.167377 -2316.085273)
(15.08803066 2893.298039 -2706.897311)
(1046.101297 -1264.378944 -2033.021498)
(2679.44458 1611.320049 3174.955799)
(4662.99304 2428.755776 -2555.09435)
(1051.94793 221.0328654 2376.009439)
(1773.814977 2922.144279 -771.2265009)
(2481.146804 -723.3244199 -1309.74777)
(-771.2458255 5402.702524 -3798.804484)
(-2795.505137 2020.46081 -961.5235796)
(-715.2171179 4075.448463 -2154.599977)
(2026.030322 -4328.087023 -617.9119017)
(286.3392192 -2640.683275 -3337.104984)
(-1273.250802 -1941.558007 -4900.102361)
(-576.3280883 -2586.675711 -2189.636234)
(3652.223517 342.7755016 -1670.630813)
(-1510.598272 2762.039813 -2172.069076)
(3860.100089 -1658.372141 -3343.754213)
(-679.6664486 -3079.130024 4290.583793)
(-371.9506327 2310.468558 -1126.96244)
(835.5025831 -4004.648009 -277.156709)
(1699.675009 563.3341206 685.9023525)
(3782.808354 1779.011063 4909.653127)
(2173.416059 -2964.115762 -305.0343477)
(-2409.38663 2233.45078 -918.5064085)
(-706.7681749 605.3687328 2336.797122)
(2212.352297 -996.4403567 1613.521402)
(-5352.848446 4533.92038 -1381.799985)
(-300.0515416 -422.0778944 269.8065172)
(3257.708768 -1391.830177 -3555.100195)
(-981.0661948 -767.1965272 -171.92255)
(206.8161493 426.4268413 520.2129957)
(2603.019939 971.1445753 1128.642236)
(-538.619541 -1536.739437 5085.970902)
(42.28525708 888.7915931 -778.2918418)
(-1766.69785 -17.38000831 -1833.021525)
(-1446.284557 -758.9990927 1303.384487)
(1437.802274 -1631.324571 1202.82716)
(3864.967184 -4541.034366 3066.211673)
(-3127.629097 -1780.144069 410.1183164)
(360.3105982 -2279.002866 -653.8217677)
(-2361.588194 -44.93455987 1277.688391)
(3510.225812 -1813.638249 702.4844109)
(16.49818659 1503.875245 360.4562716)
(828.7137963 145.0739476 -944.5457735)
(1559.767674 1753.933311 -2540.39229)
(-316.8581741 -1403.287191 -2896.093729)
(4493.569992 -4391.111828 1263.053927)
(-1205.070065 -510.5079217 378.0757424)
(1876.915461 -1001.987995 361.7686165)
(-1089.731598 132.1810677 -50.53198086)
(1249.954293 2794.93582 3568.433244)
(2321.4631 -1186.125683 1569.089229)
(-2911.688693 2153.499828 -1529.605244)
(-1813.286274 1172.056107 -846.9402035)
(-2369.182211 4349.697329 -1554.822947)
(3664.946469 -2782.249608 2424.121965)
(-3658.685625 -2012.731945 1752.350377)
(2355.030847 3540.153814 650.7330551)
(333.8163723 -2746.869759 910.4685606)
(-2552.498691 -1010.034707 754.1290922)
(1346.847943 1670.635291 959.6983763)
(1523.364636 -3222.026585 739.2104726)
(-404.0238314 -2886.344099 124.8348248)
(4682.215023 1597.287941 -818.9170809)
(340.5162284 2749.80278 3035.587309)
(1251.69186 -1783.528882 -3363.271706)
(-53.96478896 -1075.061234 -158.9500193)
(2888.745407 871.7670297 304.7774331)
(-915.0967047 -685.198801 3328.306905)
(1431.14961 -4907.286064 -102.4572786)
(197.8972546 260.3511973 -123.2741518)
(-840.8019177 -198.7299577 139.7413015)
(1209.145077 716.3745689 -800.9531871)
(422.324937 -279.772712 2853.305349)
(-4975.391639 1052.701759 -723.1483189)
(-866.0355525 -1388.724827 784.6912032)
(-3062.932065 -845.4460903 2661.462255)
(1890.436441 -245.2936849 -4425.370019)
(2312.423635 -4572.808664 1252.622319)
(-3022.622161 712.5384588 -1452.81745)
(1348.685117 13.65484875 3241.433894)
(1588.552213 1293.636892 423.6221177)
(-3182.841831 -45.54025426 2214.335375)
(1101.414526 -1829.842141 499.9557261)
(-1370.33753 3.689702908 -271.5791527)
(-1682.858299 -175.2032547 984.7820646)
(365.7185977 1188.696508 2926.342629)
(867.0734478 1883.736303 -493.5102937)
(-1904.291242 -1574.094459 1536.054606)
(601.9252805 1192.977404 1835.246228)
(2462.218149 -2568.587548 -2712.577648)
(111.4416108 -273.0068593 1005.446739)
(392.8964192 530.1549242 1407.317003)
(-402.9744346 -547.3980522 -4265.392972)
(-68.09219595 -1682.518479 504.2882852)
(-339.8091674 -2617.943874 -3049.619603)
(1513.183381 203.953071 -1383.068574)
(2673.483101 -1184.620693 1752.094354)
(1567.390441 8.185081509 -3290.891633)
(-1030.111357 3276.666456 1698.107525)
(-2071.960569 3238.848097 -268.9740307)
(-2922.345592 2283.56207 -340.9111946)
(1103.679686 761.9638511 2635.078351)
(-2068.710608 -2022.633664 236.5789764)
(750.5338504 1428.845982 -221.8482107)
(2821.748412 54.85178437 1770.513838)
(58.65415645 -2420.147154 3398.713159)
(4523.315647 1850.354667 -1918.841944)
(-3138.901197 -1988.967475 72.7250537)
(3492.206779 1422.989905 85.39032855)
(1338.090314 -3372.963509 2229.084637)
(3779.933273 -1615.629068 752.717394)
(1469.141556 350.9106043 -799.2338998)
(1277.275238 2960.0761 -242.8285773)
(4575.195591 2798.887037 -2468.426188)
(3712.433883 -1461.267999 355.6322284)
(2069.794582 -774.3350705 -585.0986757)
(312.6310283 2092.73089 1337.471073)
(-3039.202787 -2306.351575 -1944.999124)
(-316.3191558 1193.759159 1289.92252)
(2321.214462 -21.51087091 -2522.873643)
(-721.5494773 -1596.946952 -1720.792936)
(-716.0886033 2077.616248 -2455.129391)
(5465.091197 -394.7232663 3036.685453)
(-807.5995819 2583.612065 -3811.257215)
(2868.090766 1277.228054 943.3828932)
(1715.047539 -899.0108426 -170.7910138)
(2339.939175 1907.319229 -1530.90253)
(2361.848922 212.8047333 1211.149852)
(-1746.261035 -4615.646161 -1403.352288)
(957.4598271 -4517.471714 -301.8288565)
(3798.210215 -181.1287394 1581.684465)
(-2969.152502 1980.490869 -407.9957824)
(1269.858119 156.8273283 6582.640654)
(2462.399783 349.8805456 2277.824192)
(-1719.385182 -483.3578096 2034.357958)
(745.9600775 -183.4962089 839.5450429)
(408.23861 2710.800308 2318.947888)
(-250.4600234 -2073.213603 -7032.458424)
(72.83711551 -2723.37418 1334.191927)
(-2106.224846 1845.993029 -1017.07337)
(-451.7822304 376.9559246 -2492.196544)
(389.4895427 -1013.880695 -75.87279018)
(327.5089366 4470.165851 2027.435041)
(-2318.119434 -1145.124462 -1444.024591)
(-680.4617686 -1077.894047 -763.9745387)
(-198.7665941 2988.478886 3957.968839)
(-5574.533306 400.7797843 -2528.703291)
(-158.7574408 3343.178603 2253.263774)
(-178.4572713 2857.188264 1525.003034)
(1378.48913 1181.412938 3332.464041)
(-3818.501398 1493.875652 2381.495433)
(-2976.336953 -1113.397884 -1288.441999)
(42.88812337 -3683.40119 3321.738438)
(-2836.349897 558.1583804 5895.423835)
(-692.5590206 -3064.679885 1339.572417)
(408.6780453 1851.26941 503.0959916)
(1582.310807 1576.149988 -2359.031783)
(-937.9634366 -1061.907921 610.0641109)
(-1382.172502 -1506.741702 2420.797524)
(2672.940822 4801.443374 -910.3625981)
(1568.347911 390.3980531 -1064.451001)
(5154.962946 -1099.67627 1979.801706)
(-2586.212591 1755.582388 464.8130218)
(-5587.171458 -27.51902317 -2271.4103)
(2398.256554 -2651.517986 -47.89349028)
(381.0980068 -2881.683919 -188.6139215)
(2387.089285 -2840.017493 153.9214344)
(-871.4261297 -388.3677895 -3360.415994)
(4550.021426 2897.640525 -782.7456946)
(-6726.347235 -276.9635694 -2073.403701)
(-1318.396489 -813.6972448 2837.649158)
(-16.69785757 1099.447159 -2617.235897)
(-1549.199391 2644.176208 -2646.049409)
(1452.172092 1298.70734 -1063.711863)
(-757.2573164 -1671.019602 569.1660463)
(-2096.700049 1682.055072 -231.312353)
(-749.5522257 -597.2487959 -2681.805816)
(-441.1441951 817.8640121 -4257.24765)
(-2550.965127 4089.899294 -2505.380094)
(-1174.541983 1629.325937 -532.1902642)
(1638.457088 19.08782567 -1457.624106)
(-5877.366552 -1930.246089 -812.6347804)
(-3011.468238 2889.596062 -108.8782143)
(640.9224124 -2690.456704 571.2400907)
(-2491.611079 -578.6471601 3221.100101)
(1050.306401 -616.0618086 546.0061177)
(-48.57895856 -1019.580633 -34.50293164)
(-3170.572338 -1254.299099 1275.835218)
(-631.8006011 3041.296014 -1242.047025)
(2738.929901 726.1667925 -36.73071159)
(117.3970139 -2758.839216 -994.7664723)
(1343.64216 -4025.637998 -321.7518284)
(-182.8789461 1250.042563 4208.624897)
(-1935.858624 493.5629673 3897.49821)
(-118.6746353 -6.30884591 85.96657908)
(-1804.945246 692.5036642 -3464.46084)
(1961.660547 1592.087026 1093.517936)
(2491.695796 873.5231183 -681.6587857)
(1602.831225 2165.195323 -1521.082033)
(2825.726953 -2326.904567 -458.4762566)
(-935.2134852 2892.549559 -833.972285)
(3804.30145 -5607.396216 5496.476834)
(-2875.413478 -1391.354347 -466.6078256)
(-2562.766126 -371.7605155 2302.871174)
(1552.667651 -2481.152945 -2711.94064)
(-3059.574944 107.323528 -3015.590937)
(-1491.730098 594.2500122 2166.359778)
(-1292.249289 3671.190001 -1860.533911)
(-3013.477193 -2063.033798 545.7731089)
(-1821.467209 -2577.806032 -1788.104278)
(-766.7201789 165.2534366 -972.0052532)
(-680.4475536 1969.426736 601.7193516)
(3044.805829 3743.592362 2505.812661)
(-743.7853129 -409.8243565 1315.81518)
(1786.346356 415.9343962 -2113.238703)
(-1927.834574 -1471.68516 -2253.616495)
(-1184.956535 -15.35154049 1097.734726)
(3893.887268 1788.192568 2646.642919)
(-1021.496058 3433.674686 -3739.648912)
(-4304.383779 -1018.45322 -4188.710725)
(-60.13663125 4861.427711 830.0173587)
(-206.1571817 2599.926596 -495.7818616)
(3396.393774 -1113.779441 3100.928802)
(2417.266882 188.9521172 -595.5564006)
(-2346.535888 98.0754728 458.9458871)
(1055.123957 -4806.288938 -533.6995362)
(59.4882104 2799.415609 -698.9611451)
(1400.320452 464.8714447 -1811.098469)
(-19.14857472 2110.755894 953.1330696)
(-1778.955725 3164.056288 -327.9533575)
(-571.3119064 -1525.755168 32.27136715)
(3068.054594 -489.8019978 -1387.312803)
(-3559.063084 1899.083309 -2250.010242)
(239.0001155 505.9162917 656.14532)
(-1057.52463 737.3592642 3546.302568)
(-893.6394879 1054.863737 581.0269387)
(-1184.698618 -1254.178405 -784.0842772)
(3046.820378 877.4522793 -400.8361654)
(-3487.352759 424.6585514 2402.418843)
(1309.912231 2424.971509 -1283.588596)
(-1735.120616 1114.519189 428.7716174)
(-1601.416525 1563.581294 -2249.237427)
(5105.330465 515.6636593 2372.996704)
(1987.963451 245.2002341 -3255.936844)
(3367.993581 1122.640792 -2900.694415)
(535.1344703 242.4752618 -2646.146059)
(3036.039922 -907.2163951 -1975.858306)
(-3820.980156 -2215.817776 269.1437819)
(718.0460508 -1236.953826 87.20918225)
(-395.9662822 -2749.277153 657.9980363)
(2183.447057 -1572.13521 -1063.129684)
(999.3238058 2498.036707 3018.137664)
(-2634.507994 -1394.91145 -1847.844319)
(-1844.283804 -1068.852416 3333.09428)
(2752.32211 -1189.586695 -10.84198781)
(-1835.237391 499.4868791 -1921.78212)
(834.5608724 3380.924196 272.7814825)
(-1229.082557 -5592.044237 2460.651654)
(-2721.369934 -353.6712949 298.2750958)
(-216.5456672 1175.98719 -2087.280186)
(-1179.118397 -4463.004431 -71.89365745)
(520.7313844 540.565304 -1874.670565)
(-1327.102912 -224.7645116 -1908.435204)
(3721.946959 1003.906629 -615.4645348)
(-1118.503327 -200.4239346 -1501.537304)
(-50.68787708 -561.4423387 3431.45089)
(2568.113408 -383.9550742 1821.597992)
(-475.6728093 4193.56873 -2217.529264)
(2371.063021 -131.7489384 -2444.385486)
(1666.809208 -930.5698507 3340.028149)
(1381.930896 -1992.611926 609.6547122)
(-470.8602844 414.2759948 -1237.416376)
(-2703.374103 -4169.473278 175.8511511)
(-1095.903436 -556.5077358 -2281.224872)
(-2169.463785 1428.416262 -583.571995)
(-3892.299318 5561.372903 -1733.334444)
(1969.140869 226.4116483 5117.8438)
(5249.473417 1447.850718 372.5720903)
(-134.6691459 196.8939085 109.2278417)
(547.3811159 -2244.486056 -96.4789155)
(-813.4698642 1675.64942 -2350.823076)
(-942.7954905 2431.397066 1106.154867)
(-1628.128426 -2236.673967 -3085.787868)
(-1294.325024 -3770.815163 407.0867389)
(-2260.267649 -1071.832653 -589.799748)
(3655.098511 -1461.250212 -2254.715627)
(661.7651264 -323.0766656 -2792.907804)
(3540.909924 1278.579106 1959.712805)
(-2909.053841 -53.39420437 -1539.828277)
(2721.496265 637.9868238 1238.389665)
(4812.533002 1100.353749 108.67019)
(-4091.238025 502.3713426 -11.78308504)
(2694.505527 1083.279031 -1559.904032)
(1900.929081 -3654.371627 -845.3990905)
(1489.941526 907.3709173 2221.175783)
(-1454.969132 1185.462533 -2187.366833)
(5021.6893 -1627.89951 37.38539833)
(2605.39886 -648.3547373 3864.735375)
(139.8688766 2163.166654 840.625132)
(-2262.680025 -4724.211687 2667.216537)
(522.4868739 5212.879983 604.0112787)
(493.9532915 1998.760979 407.461741)
(72.09302032 1216.318885 -561.203283)
(-5434.605335 1650.455018 1003.136892)
(-91.26089077 132.7797781 813.3245893)
(-556.7271475 3010.77336 2504.397525)
(-748.9383105 -13.37884897 1385.762736)
(2383.517907 -2272.814748 707.7857945)
(-1274.681687 1143.875336 549.4088201)
(-2003.022997 623.9652265 241.4002347)
(-3164.359825 -1411.852462 4726.160891)
(1131.00045 1158.112592 -2786.975654)
(-1012.833968 -1830.634861 -3174.49378)
(-786.2933573 1071.126296 -4004.468394)
(-1886.849364 -2439.288956 3974.926162)