/*--------------------------------*- C++ -*----------------------------------*\
| =========                 |                                                 |
| \\      /  F ield         | OpenFOAM: The Open Source CFD Toolbox           |
|  \\    /   O peration     | Version:  v1612+-hyStrath                       |
|   \\  /    A nd           | Web:      www.OpenFOAM.com                      |
|    \\/     M anipulation  |                                                 |
\*---------------------------------------------------------------------------*/
FoamFile
{
    version     2.0;
    format      ascii;
    class       volScalarField;
    location    "5e-05";
    object      kappatr;
}
// * * * * * * * * * * * * * * * * * * * * * * * * * * * * * * * * * * * * * //

dimensions      [1 1 -3 -1 0 0 0];

internalField   nonuniform List<scalar> 
128136
(
0.02725862447
0.02725862447
0.02725862447
0.02725862447
0.02725862447
0.02725862447
0.02725862447
0.02725862447
0.02725862447
0.02725862447
0.02725862447
0.02725862447
0.02725862447
0.02725862447
0.02725862447
0.02725862447
0.02725862447
0.02725862447
0.02725862447
0.02725862447
0.02725862447
0.02725862447
0.02725862447
0.02725862447
0.02725862447
0.02725862447
0.02725862447
0.02725862447
0.02725862447
0.02725862447
0.02725862447
0.02725862447
0.02725862447
0.02725862447
0.02725862447
0.02725862447
0.02725862447
0.02725862447
0.02725862447
0.02725862447
0.02725862447
0.02725862447
0.02725862447
0.02725862447
0.02725862448
0.02725862448
0.02725862448
0.02725862448
0.02725862448
0.02725862448
0.02725862449
0.0272586245
0.02725862452
0.02725862455
0.02725862461
0.02725862471
0.02725862488
0.02725862516
0.02725862562
0.02725862638
0.02725862761
0.02725862955
0.0272586326
0.02725863733
0.02725864459
0.02725865561
0.02725867214
0.02725869668
0.02725873272
0.02725878513
0.02725886055
0.02725896805
0.0272591198
0.02725933201
0.02725962607
0.02726002992
0.02726057972
0.02726132186
0.02726231531
0.02726363439
0.02726537193
0.02726764297
0.0272705888
0.02727438159
0.02727922938
0.02728538149
0.02729313426
0.02730283703
0.02731489809
0.02732979058
0.02734805785
0.02737031817
0.02739726818
0.02742968475
0.02746842457
0.02751442109
0.02756867803
0.02763225925
0.02770627324
0.02779185052
0.02789012573
0.02800220014
0.02812911239
0.02827179952
0.02843105754
0.0286075019
0.02880153001
0.02901328812
0.02924264506
0.02948917478
0.02975214947
0.03003054404
0.03032305228
0.03062811405
0.03094395207
0.03126861633
0.03160003384
0.03193606107
0.03227453666
0.03261333189
0.03295039723
0.03328380348
0.03361177612
0.03393272255
0.03424525194
0.03454818752
0.03484057193
0.03512166578
0.03539094397
0.03564808758
0.0358929683
0.03612562926
0.03634626369
0.03655519263
0.03675284251
0.03693972324
0.03711640746
0.03728351125
0.03744167678
0.03759155696
0.0377338024
0.03786905045
0.03799791654
0.03812098751
0.0382388168
0.03835192142
0.03846078033
0.03856583368
0.03866748243
0.03876608862
0.03886197686
0.03895543888
0.03904674248
0.03913611888
0.03922384013
0.03931010078
0.03939507801
0.03947893534
0.03956182669
0.03964390003
0.03972530124
0.03980617848
0.03988668703
0.03996699458
0.04004728779
0.04012778253
0.04020874124
0.04029049944
0.04037350111
0.04045834629
0.04054588224
0.04063746031
0.04073551505
0.04084459053
0.0409741373
0.02725862447
0.02725862447
0.02725862447
0.02725862447
0.02725862447
0.02725862447
0.02725862447
0.02725862447
0.02725862447
0.02725862447
0.02725862447
0.02725862447
0.02725862447
0.02725862447
0.02725862447
0.02725862447
0.02725862447
0.02725862447
0.02725862447
0.02725862447
0.02725862447
0.02725862447
0.02725862447
0.02725862447
0.02725862447
0.02725862447
0.02725862447
0.02725862447
0.02725862447
0.02725862447
0.02725862447
0.02725862447
0.02725862447
0.02725862447
0.02725862447
0.02725862447
0.02725862447
0.02725862447
0.02725862447
0.02725862447
0.02725862447
0.02725862447
0.02725862447
0.02725862447
0.02725862448
0.02725862448
0.02725862448
0.02725862448
0.02725862448
0.02725862448
0.02725862449
0.0272586245
0.02725862452
0.02725862455
0.02725862461
0.02725862471
0.02725862488
0.02725862516
0.02725862563
0.02725862638
0.02725862761
0.02725862955
0.0272586326
0.02725863733
0.0272586446
0.02725865562
0.02725867215
0.02725869669
0.02725873275
0.02725878516
0.02725886061
0.02725896813
0.02725911991
0.02725933217
0.02725962629
0.02726003023
0.02726058014
0.02726132243
0.02726231608
0.02726363542
0.0272653733
0.02726764478
0.02727059117
0.02727438468
0.02727923336
0.02728538657
0.02729314071
0.02730284514
0.02731490823
0.02732980315
0.02734807332
0.02737033706
0.02739729107
0.02742971226
0.02746845738
0.0275144599
0.02756872354
0.02763231219
0.02770633405
0.0277919199
0.02789020399
0.02800228757
0.02812920899
0.02827190502
0.02843117134
0.02860762301
0.02880165706
0.02901341931
0.0292427782
0.02948930731
0.0297522785
0.03003066642
0.03032316469
0.03062821308
0.03094403433
0.03126867854
0.03160007296
0.03193607432
0.03227452167
0.03261328667
0.03295032026
0.03328369369
0.03361163289
0.0339325457
0.03424504163
0.03454794426
0.03484029648
0.0351213591
0.03539060718
0.03564772185
0.03589257472
0.03612520881
0.03634581713
0.0365547205
0.03675234502
0.0369392003
0.03711585861
0.03728293568
0.03744107328
0.03759092395
0.0377331379
0.03786835207
0.03799718148
0.03812021254
0.03823799822
0.0383510551
0.03845986165
0.03856485746
0.03866644291
0.03876497942
0.0388607908
0.03895416685
0.03904536991
0.03913464051
0.03922224436
0.03930837347
0.03939320274
0.03947689304
0.03955959492
0.03964145209
0.03972260496
0.03980319455
0.03988336664
0.03996327606
0.04004309174
0.04012300456
0.04020324026
0.04028407775
0.04036586905
0.04044905598
0.04053419261
0.04062202858
0.04071361222
0.04080996603
0.04091087104
0.02725862447
0.02725862447
0.02725862447
0.02725862447
0.02725862447
0.02725862447
0.02725862447
0.02725862447
0.02725862447
0.02725862447
0.02725862447
0.02725862447
0.02725862447
0.02725862447
0.02725862447
0.02725862447
0.02725862447
0.02725862447
0.02725862447
0.02725862447
0.02725862447
0.02725862447
0.02725862447
0.02725862447
0.02725862447
0.02725862447
0.02725862447
0.02725862447
0.02725862447
0.02725862447
0.02725862447
0.02725862447
0.02725862447
0.02725862447
0.02725862447
0.02725862447
0.02725862447
0.02725862447
0.02725862447
0.02725862447
0.02725862447
0.02725862447
0.02725862447
0.02725862447
0.02725862448
0.02725862448
0.02725862448
0.02725862448
0.02725862448
0.02725862448
0.02725862449
0.0272586245
0.02725862452
0.02725862455
0.02725862461
0.02725862471
0.02725862488
0.02725862516
0.02725862563
0.02725862639
0.02725862761
0.02725862955
0.0272586326
0.02725863734
0.02725864461
0.02725865563
0.02725867217
0.02725869673
0.0272587328
0.02725878524
0.02725886071
0.02725896828
0.02725912013
0.02725933248
0.02725962673
0.02726003084
0.02726058098
0.02726132358
0.02726231764
0.0272636375
0.02726537607
0.02726764843
0.02727059595
0.02727439088
0.02727924134
0.02728539678
0.02729315365
0.02730286144
0.02731492858
0.02732982837
0.02734810435
0.02737037493
0.02739733694
0.02742976737
0.02746852306
0.02751453753
0.02756881453
0.02763241793
0.02770645543
0.02779205836
0.0278903601
0.02800246179
0.02812940127
0.02827211472
0.02843139714
0.02860786288
0.02880190813
0.02901367792
0.02924303989
0.02948956686
0.02975253004
0.03003090357
0.03032338072
0.03062840112
0.03094418753
0.03126879032
0.03160013714
0.03193608535
0.03227447482
0.03261317792
0.03295014656
0.0332834529
0.03361132378
0.03393216788
0.03424459548
0.03454743077
0.03483971716
0.03512071588
0.03538990226
0.0356469575
0.0358917531
0.03612433179
0.03634488618
0.03655373655
0.03675130842
0.03693811071
0.03711471499
0.03728173622
0.03743981541
0.0375896043
0.03773175227
0.03786689546
0.03799564802
0.03811859545
0.03823628983
0.03834924676
0.03845794369
0.03856281904
0.03866427194
0.03876266257
0.03885831341
0.03895151144
0.03904250319
0.03913155436
0.03921891392
0.03930476942
0.03938929128
0.03947263496
0.03955494425
0.0396363543
0.0397169946
0.03979699202
0.03987647369
0.03995556953
0.04003441472
0.04011315327
0.04019194372
0.04027096473
0.04035041348
0.04043048542
0.0405113301
0.04059300205
0.04067531933
0.04075734998
0.04083663062
0.02725862447
0.02725862447
0.02725862447
0.02725862447
0.02725862447
0.02725862447
0.02725862447
0.02725862447
0.02725862447
0.02725862447
0.02725862447
0.02725862447
0.02725862447
0.02725862447
0.02725862447
0.02725862447
0.02725862447
0.02725862447
0.02725862447
0.02725862447
0.02725862447
0.02725862447
0.02725862447
0.02725862447
0.02725862447
0.02725862447
0.02725862447
0.02725862447
0.02725862447
0.02725862447
0.02725862447
0.02725862447
0.02725862447
0.02725862447
0.02725862447
0.02725862447
0.02725862447
0.02725862447
0.02725862447
0.02725862447
0.02725862447
0.02725862447
0.02725862447
0.02725862447
0.02725862448
0.02725862448
0.02725862448
0.02725862448
0.02725862448
0.02725862448
0.02725862449
0.0272586245
0.02725862452
0.02725862455
0.02725862461
0.02725862471
0.02725862488
0.02725862516
0.02725862563
0.02725862639
0.02725862761
0.02725862955
0.02725863261
0.02725863735
0.02725864462
0.02725865565
0.02725867221
0.02725869678
0.02725873287
0.02725878535
0.02725886088
0.02725896852
0.02725912047
0.02725933296
0.0272596274
0.02726003176
0.02726058225
0.02726132531
0.02726231998
0.02726364064
0.02726538024
0.02726765393
0.02727060315
0.02727440022
0.02727925337
0.02728541214
0.02729317313
0.02730288593
0.02731495917
0.02732986627
0.02734815094
0.02737043177
0.02739740573
0.02742984998
0.02746862145
0.02751465376
0.02756895063
0.02763257595
0.02770663674
0.02779226494
0.02789059281
0.0280027212
0.02812968719
0.02827242608
0.02843173186
0.02860821776
0.02880227876
0.02901405866
0.02924342389
0.02948994617
0.02975289573
0.03003124596
0.03032368963
0.03062866614
0.03094439834
0.03126893698
0.0316002104
0.03193607689
0.03227437743
0.03261298566
0.03294985485
0.03328305857
0.033610825
0.03393156409
0.03424388724
0.0345466196
0.03483880533
0.03511970625
0.03538879809
0.03564576213
0.03589046967
0.036122963
0.0363434341
0.03655220244
0.03674969263
0.03693641255
0.03711293268
0.03727986682
0.0374378548
0.03758754714
0.03772959197
0.03786462417
0.03799325656
0.03811607329
0.03823362503
0.03834642589
0.03845495166
0.0385596389
0.03866088475
0.03875904759
0.03885444818
0.03894737419
0.03903803155
0.03912674605
0.03921372753
0.03929915996
0.03938320733
0.03946601715
0.0395477233
0.03962844849
0.03970830647
0.03978740403
0.03986584227
0.03994371708
0.04002111863
0.04009813038
0.04017482746
0.04025127085
0.04032748971
0.04040344115
0.04047894376
0.04055359951
0.04062666391
0.04069682201
0.04076205614
0.02725862447
0.02725862447
0.02725862447
0.02725862447
0.02725862447
0.02725862447
0.02725862447
0.02725862447
0.02725862447
0.02725862447
0.02725862447
0.02725862447
0.02725862447
0.02725862447
0.02725862447
0.02725862447
0.02725862447
0.02725862447
0.02725862447
0.02725862447
0.02725862447
0.02725862447
0.02725862447
0.02725862447
0.02725862447
0.02725862447
0.02725862447
0.02725862447
0.02725862447
0.02725862447
0.02725862447
0.02725862447
0.02725862447
0.02725862447
0.02725862447
0.02725862447
0.02725862447
0.02725862447
0.02725862447
0.02725862447
0.02725862447
0.02725862447
0.02725862447
0.02725862447
0.02725862448
0.02725862448
0.02725862448
0.02725862448
0.02725862448
0.02725862448
0.02725862449
0.0272586245
0.02725862452
0.02725862455
0.02725862461
0.02725862471
0.02725862488
0.02725862516
0.02725862563
0.02725862639
0.02725862761
0.02725862956
0.02725863262
0.02725863736
0.02725864464
0.02725865568
0.02725867225
0.02725869685
0.02725873297
0.0272587855
0.02725886109
0.02725896883
0.02725912092
0.02725933359
0.02725962829
0.027260033
0.02726058395
0.02726132763
0.02726232311
0.02726364484
0.02726538583
0.0272676613
0.02727061278
0.02727441271
0.02727926945
0.02728543268
0.02729319915
0.02730291866
0.027315
0.02732991684
0.02734821307
0.02737050753
0.02739749738
0.02742995995
0.02746875234
0.02751480825
0.0275691314
0.02763278559
0.0277068772
0.02779253853
0.02789090068
0.02800306395
0.02813006442
0.0282728362
0.02843217194
0.02860868333
0.02880276377
0.02901455541
0.02924392306
0.02949043699
0.02975336614
0.03003168291
0.03032407941
0.03062899477
0.030944652
0.03126910237
0.03160027513
0.03193602995
0.03227420911
0.03261268811
0.03294942201
0.03328248624
0.0336101108
0.03393070729
0.03424288862
0.0345454812
0.03483753016
0.03511829812
0.03538726126
0.03564410096
0.03588868823
0.03612106474
0.0363414216
0.03655007719
0.03674745485
0.03693406108
0.03711046485
0.03727727841
0.03743513997
0.0375846984
0.03772660016
0.03786147838
0.03798994411
0.03811257966
0.03822993379
0.03834251854
0.03845080738
0.03855523419
0.03865619335
0.03875404078
0.03884909382
0.03894161007
0.03903185153
0.03912010212
0.03920656574
0.03929142004
0.03937482079
0.03945690532
0.03953779492
0.03961759678
0.03969640535
0.03977430317
0.03985136075
0.0399276351
0.0400031668
0.04007797554
0.04015205356
0.04022535365
0.04029776629
0.04036908045
0.04043893106
0.04050675074
0.0405717283
0.04063279698
0.0406887152
0.02725862447
0.02725862447
0.02725862447
0.02725862447
0.02725862447
0.02725862447
0.02725862447
0.02725862447
0.02725862447
0.02725862447
0.02725862447
0.02725862447
0.02725862447
0.02725862447
0.02725862447
0.02725862447
0.02725862447
0.02725862447
0.02725862447
0.02725862447
0.02725862447
0.02725862447
0.02725862447
0.02725862447
0.02725862447
0.02725862447
0.02725862447
0.02725862447
0.02725862447
0.02725862447
0.02725862447
0.02725862447
0.02725862447
0.02725862447
0.02725862447
0.02725862447
0.02725862447
0.02725862447
0.02725862447
0.02725862447
0.02725862447
0.02725862447
0.02725862447
0.02725862447
0.02725862448
0.02725862448
0.02725862448
0.02725862448
0.02725862448
0.02725862448
0.02725862449
0.0272586245
0.02725862452
0.02725862455
0.02725862461
0.02725862471
0.02725862488
0.02725862516
0.02725862563
0.02725862639
0.02725862762
0.02725862957
0.02725863263
0.02725863738
0.02725864466
0.02725865572
0.02725867231
0.02725869693
0.0272587331
0.02725878569
0.02725886137
0.02725896923
0.02725912148
0.02725933439
0.02725962941
0.02726003455
0.02726058609
0.02726133055
0.02726232705
0.02726365012
0.02726539285
0.02726767054
0.02727062486
0.02727442838
0.02727928961
0.02728545841
0.02729323174
0.02730295962
0.02731505109
0.02732998006
0.02734829072
0.02737060214
0.02739761175
0.0274300971
0.02746891545
0.02751500061
0.02756935628
0.02763304604
0.02770717582
0.02779287782
0.02789128202
0.02800348789
0.02813053027
0.02827334178
0.02843271332
0.02860925472
0.02880335735
0.02901516131
0.02924452943
0.02949103012
0.02975393077
0.03003220255
0.03032453678
0.03062937231
0.03094493232
0.03126926882
0.03160031215
0.03193592386
0.03227394782
0.0326122618
0.03294882317
0.03328170969
0.03360915359
0.03392956859
0.03424156944
0.03454398408
0.03483585888
0.0351164574
0.03538525635
0.03564193717
0.03588637049
0.03611859717
0.0363388072
0.03654731757
0.03674455
0.03693100922
0.0371072623
0.03727391951
0.03743161701
0.03758100158
0.03772271754
0.03785739583
0.03798564527
0.03810804585
0.03822514388
0.03833744874
0.03844543083
0.03854952059
0.03865010867
0.03874754809
0.03884216092
0.03893415179
0.03902385796
0.03911151323
0.03919731518
0.0392814333
0.03936401352
0.03944518126
0.03952504341
0.03960368966
0.03968119317
0.03975761049
0.03983298028
0.0399073207
0.03998062508
0.04005285603
0.04012393729
0.04019374143
0.04026207104
0.04032863283
0.04039301192
0.04045466249
0.04051292718
0.04056709704
0.04061650846
0.02725862447
0.02725862447
0.02725862447
0.02725862447
0.02725862447
0.02725862447
0.02725862447
0.02725862447
0.02725862447
0.02725862447
0.02725862447
0.02725862447
0.02725862447
0.02725862447
0.02725862447
0.02725862447
0.02725862447
0.02725862447
0.02725862447
0.02725862447
0.02725862447
0.02725862447
0.02725862447
0.02725862447
0.02725862447
0.02725862447
0.02725862447
0.02725862447
0.02725862447
0.02725862447
0.02725862447
0.02725862447
0.02725862447
0.02725862447
0.02725862447
0.02725862447
0.02725862447
0.02725862447
0.02725862447
0.02725862447
0.02725862447
0.02725862447
0.02725862447
0.02725862447
0.02725862448
0.02725862448
0.02725862448
0.02725862448
0.02725862448
0.02725862448
0.02725862449
0.0272586245
0.02725862452
0.02725862455
0.02725862461
0.02725862471
0.02725862488
0.02725862516
0.02725862563
0.02725862639
0.02725862762
0.02725862957
0.02725863264
0.0272586374
0.02725864469
0.02725865577
0.02725867238
0.02725869704
0.02725873326
0.02725878592
0.0272588617
0.02725896971
0.02725912217
0.02725933536
0.02725963076
0.02726003643
0.02726058867
0.02726133407
0.02726233181
0.02726365649
0.0272654013
0.02726768168
0.02727063941
0.02727444724
0.02727931385
0.02728548934
0.0272932709
0.02730300881
0.02731511241
0.0273300559
0.0273483838
0.02737071548
0.02739774867
0.02743026116
0.02746911042
0.02751523033
0.02756962459
0.02763335637
0.02770753141
0.02779328124
0.02789173485
0.02800399055
0.02813108167
0.02827393902
0.02843335143
0.02860992644
0.02880405299
0.02901586874
0.02924523413
0.0294917154
0.02975457807
0.03003279188
0.03032504726
0.03062978271
0.03094522172
0.03126941716
0.03160030091
0.0319357364
0.03227356979
0.03261168151
0.03294803168
0.03328070086
0.03360792397
0.03392811723
0.03423989759
0.03454209483
0.03483375677
0.03511414801
0.03538274588
0.03563923186
0.03588347604
0.03611551829
0.03633554723
0.03654387812
0.03674093072
0.0369272076
0.03710327351
0.03726973632
0.03742722968
0.03757639785
0.03771788255
0.03785231208
0.03798029256
0.0381024012
0.03821918134
0.03833113902
0.03843874088
0.03854241317
0.03864254173
0.03873947299
0.03883351514
0.03892490382
0.03901394994
0.03910087601
0.03918587092
0.03926909466
0.03935068224
0.03943074615
0.039509378
0.03958664936
0.03966261199
0.03973729712
0.03981071375
0.03988284562
0.03995364695
0.04002303699
0.0400908933
0.04015704322
0.04022125339
0.04028321949
0.04034256347
0.04039884904
0.04045162135
0.0405004685
0.04054508183
0.02725862447
0.02725862447
0.02725862447
0.02725862447
0.02725862447
0.02725862447
0.02725862447
0.02725862447
0.02725862447
0.02725862447
0.02725862447
0.02725862447
0.02725862447
0.02725862447
0.02725862447
0.02725862447
0.02725862447
0.02725862447
0.02725862447
0.02725862447
0.02725862447
0.02725862447
0.02725862447
0.02725862447
0.02725862447
0.02725862447
0.02725862447
0.02725862447
0.02725862447
0.02725862447
0.02725862447
0.02725862447
0.02725862447
0.02725862447
0.02725862447
0.02725862447
0.02725862447
0.02725862447
0.02725862447
0.02725862447
0.02725862447
0.02725862447
0.02725862447
0.02725862447
0.02725862448
0.02725862448
0.02725862448
0.02725862448
0.02725862448
0.02725862448
0.02725862449
0.0272586245
0.02725862452
0.02725862455
0.02725862461
0.02725862471
0.02725862488
0.02725862516
0.02725862563
0.0272586264
0.02725862763
0.02725862958
0.02725863265
0.02725863742
0.02725864473
0.02725865582
0.02725867246
0.02725869716
0.02725873344
0.02725878618
0.02725886209
0.02725897027
0.02725912297
0.02725933649
0.02725963235
0.02726003863
0.0272605917
0.02726133819
0.02726233738
0.02726366394
0.0272654112
0.02726769471
0.02727065643
0.02727446929
0.02727934219
0.02728552548
0.02729331663
0.02730306622
0.02731518393
0.02733014431
0.02734849222
0.02737084741
0.02739790792
0.02743045183
0.0274693368
0.02751549681
0.0275699355
0.02763371551
0.02770794255
0.02779374703
0.02789225689
0.02800456908
0.02813171512
0.02827462366
0.02843408112
0.02861069235
0.02880484347
0.02901666927
0.02924602743
0.02949248169
0.02975529542
0.03003343674
0.03032559508
0.0306302086
0.03094550118
0.03126952673
0.03160021918
0.03193544372
0.03227304963
0.03261092031
0.03294701913
0.03327942988
0.03360639066
0.03392632056
0.03423783907
0.03453977809
0.03483118707
0.03511133184
0.03537969033
0.03563594401
0.03587996232
0.03611178394
0.0363315958
0.03653971116
0.03673654742
0.03692260459
0.0370984447
0.03726467276
0.03742191951
0.0375708262
0.03771203153
0.03784616069
0.03797381669
0.03809557346
0.03821197082
0.03832351088
0.03843065585
0.03853382722
0.03863340562
0.03872973062
0.03882310112
0.03891377106
0.03900203205
0.0390880948
0.03917213835
0.03925431252
0.03933474087
0.0394135228
0.03949073483
0.03956643122
0.03964064398
0.03971338206
0.03978462973
0.03985434412
0.03992245202
0.03998884637
0.04005338263
0.04011587549
0.04017609671
0.04023377683
0.04028861554
0.040340306
0.04038857235
0.04043321457
0.04047413137
0.02725862447
0.02725862447
0.02725862447
0.02725862447
0.02725862447
0.02725862447
0.02725862447
0.02725862447
0.02725862447
0.02725862447
0.02725862447
0.02725862447
0.02725862447
0.02725862447
0.02725862447
0.02725862447
0.02725862447
0.02725862447
0.02725862447
0.02725862447
0.02725862447
0.02725862447
0.02725862447
0.02725862447
0.02725862447
0.02725862447
0.02725862447
0.02725862447
0.02725862447
0.02725862447
0.02725862447
0.02725862447
0.02725862447
0.02725862447
0.02725862447
0.02725862447
0.02725862447
0.02725862447
0.02725862447
0.02725862447
0.02725862447
0.02725862447
0.02725862447
0.02725862447
0.02725862448
0.02725862448
0.02725862448
0.02725862448
0.02725862448
0.02725862448
0.02725862449
0.0272586245
0.02725862452
0.02725862455
0.02725862461
0.02725862471
0.02725862488
0.02725862517
0.02725862564
0.0272586264
0.02725862763
0.02725862959
0.02725863267
0.02725863744
0.02725864477
0.02725865588
0.02725867255
0.0272586973
0.02725873365
0.02725878649
0.02725886254
0.02725897092
0.02725912389
0.0272593378
0.02725963418
0.02726004116
0.02726059518
0.02726134293
0.02726234377
0.0272636725
0.02726542255
0.02726770965
0.02727067593
0.02727449454
0.02727937463
0.02728556682
0.02729336891
0.02730313182
0.02731526559
0.02733024518
0.02734861585
0.02737099773
0.02739808922
0.0274306687
0.02746959405
0.02751579932
0.02757028805
0.02763412226
0.02770840762
0.02779427312
0.02789284559
0.0280052203
0.02813242669
0.02827539095
0.02843489668
0.02861154567
0.0288057208
0.02901755362
0.02924689866
0.02949331682
0.02975606908
0.03003412177
0.0303261632
0.03063063123
0.03094575022
0.03126957536
0.03160004291
0.0319350203
0.03227236019
0.03260994948
0.03294575526
0.03327786504
0.03360452048
0.03392414397
0.03423535787
0.03453699645
0.03482811101
0.03510796867
0.03537604803
0.03563203046
0.03587578461
0.03610734773
0.03632690482
0.03653476675
0.03673134823
0.0369171463
0.03709271985
0.03725867059
0.0374156259
0.03756422359
0.03770509889
0.03783887348
0.0379661468
0.03808748906
0.03820343603
0.03831448528
0.03842109406
0.03852367873
0.03862261497
0.03871823663
0.03881082669
0.03890066343
0.03898801577
0.03907308324
0.03915603493
0.03923701041
0.03931612209
0.03939345694
0.03946907764
0.03954302324
0.03961530924
0.03968592706
0.03975484317
0.03982199763
0.03988730277
0.03995064212
0.04001187025
0.04007081418
0.0401272772
0.04018104711
0.04023191133
0.04027968003
0.04032421395
0.04036544989
0.04040339908
0.02725862447
0.02725862447
0.02725862447
0.02725862447
0.02725862447
0.02725862447
0.02725862447
0.02725862447
0.02725862447
0.02725862447
0.02725862447
0.02725862447
0.02725862447
0.02725862447
0.02725862447
0.02725862447
0.02725862447
0.02725862447
0.02725862447
0.02725862447
0.02725862447
0.02725862447
0.02725862447
0.02725862447
0.02725862447
0.02725862447
0.02725862447
0.02725862447
0.02725862447
0.02725862447
0.02725862447
0.02725862447
0.02725862447
0.02725862447
0.02725862447
0.02725862447
0.02725862447
0.02725862447
0.02725862447
0.02725862447
0.02725862447
0.02725862447
0.02725862447
0.02725862447
0.02725862448
0.02725862448
0.02725862448
0.02725862448
0.02725862448
0.02725862448
0.02725862449
0.0272586245
0.02725862452
0.02725862455
0.02725862461
0.02725862471
0.02725862488
0.02725862517
0.02725862564
0.02725862641
0.02725862764
0.02725862961
0.02725863269
0.02725863747
0.02725864482
0.02725865595
0.02725867266
0.02725869746
0.02725873389
0.02725878684
0.02725886305
0.02725897165
0.02725912494
0.02725933928
0.02725963624
0.02726004403
0.02726059911
0.02726134828
0.02726235098
0.02726368215
0.02726543536
0.0272677265
0.02727069791
0.02727452299
0.02727941116
0.02728561335
0.02729342771
0.02730320555
0.02731535732
0.02733035841
0.02734875452
0.0273711662
0.02739829222
0.02743091131
0.02746988155
0.02751613701
0.02757068107
0.02763457521
0.02770892475
0.02779485719
0.02789349803
0.02800594061
0.02813321201
0.02827623559
0.02843579179
0.02861247891
0.02880667623
0.02901851163
0.02924783615
0.02949420754
0.02975688415
0.03003483032
0.03032673321
0.0306310304
0.03094594685
0.03126953948
0.03159974664
0.03193443891
0.03227147256
0.0326087385
0.03294420798
0.03327597269
0.0336022783
0.03392155087
0.03423241597
0.03453371047
0.03482448771
0.03510401619
0.03537177518
0.03562744587
0.03587089596
0.03610216106
0.03632142393
0.03652899273
0.03672527908
0.03691077667
0.0370860408
0.03725166947
0.03740828626
0.03755652513
0.03769701737
0.0378303808
0.03795721085
0.03807807357
0.03819350018
0.03830398321
0.03840997445
0.03851188485
0.03861008575
0.03870491088
0.03879660331
0.03888549757
0.03897182108
0.03905576576
0.03913749148
0.03921712825
0.03929477826
0.03937051753
0.03944439716
0.03951644409
0.03958666164
0.03965502964
0.03972150442
0.03978601894
0.03984848323
0.03990878577
0.03996679618
0.04002236978
0.04007535451
0.04012560123
0.04017297826
0.04021738949
0.04025879376
0.04029721407
0.04033269032
0.02725862447
0.02725862447
0.02725862447
0.02725862447
0.02725862447
0.02725862447
0.02725862447
0.02725862447
0.02725862447
0.02725862447
0.02725862447
0.02725862447
0.02725862447
0.02725862447
0.02725862447
0.02725862447
0.02725862447
0.02725862447
0.02725862447
0.02725862447
0.02725862447
0.02725862447
0.02725862447
0.02725862447
0.02725862447
0.02725862447
0.02725862447
0.02725862447
0.02725862447
0.02725862447
0.02725862447
0.02725862447
0.02725862447
0.02725862447
0.02725862447
0.02725862447
0.02725862447
0.02725862447
0.02725862447
0.02725862447
0.02725862447
0.02725862447
0.02725862447
0.02725862447
0.02725862448
0.02725862448
0.02725862448
0.02725862448
0.02725862448
0.02725862448
0.02725862449
0.0272586245
0.02725862452
0.02725862455
0.02725862461
0.02725862471
0.02725862488
0.02725862517
0.02725862564
0.02725862641
0.02725862765
0.02725862962
0.02725863271
0.02725863751
0.02725864487
0.02725865603
0.02725867278
0.02725869764
0.02725873416
0.02725878723
0.02725886362
0.02725897247
0.02725912611
0.02725934092
0.02725963855
0.02726004722
0.0272606035
0.02726135424
0.02726235903
0.02726369291
0.02726544963
0.02726774526
0.02727072238
0.02727455463
0.02727945176
0.02728566504
0.02729349299
0.02730328735
0.02731545902
0.02733048385
0.02734890801
0.0273713525
0.02739851652
0.02743117911
0.02747019853
0.0275165089
0.02757111327
0.02763507276
0.02770949185
0.02779549661
0.02789421095
0.02800672601
0.02813406619
0.02827715172
0.02843675945
0.02861348386
0.02880770016
0.02901953222
0.02924882724
0.02949513949
0.02975772448
0.03003554444
0.0303272853
0.0306313844
0.03094606737
0.03126939363
0.03159930315
0.03193367052
0.032270356
0.03260725494
0.03294234323
0.03327371722
0.03359962699
0.03391850264
0.03422897326
0.03452987859
0.03482027414
0.0350994299
0.03536682576
0.03562214268
0.03586524723
0.03609617311
0.03631510057
0.03652233472
0.03671828372
0.03690343749
0.03707834733
0.03724360713
0.03739983621
0.03754766426
0.0376877183
0.03782061183
0.03794693592
0.03806725205
0.03818208647
0.03829192627
0.03839721733
0.03849836466
0.03859573398
0.03868963569
0.03878035787
0.03886819899
0.03895337787
0.03903607871
0.0391164532
0.03919462297
0.03927068158
0.03934469628
0.03941670947
0.03948673987
0.03955478357
0.03962081501
0.03968478809
0.0397466376
0.03980628143
0.03986362364
0.03991855903
0.03997097915
0.04002077998
0.04006787157
0.04011218979
0.04015370877
0.04019245235
0.04022849083
0.04026187852
0.02725862447
0.02725862447
0.02725862447
0.02725862447
0.02725862447
0.02725862447
0.02725862447
0.02725862447
0.02725862447
0.02725862447
0.02725862447
0.02725862447
0.02725862447
0.02725862447
0.02725862447
0.02725862447
0.02725862447
0.02725862447
0.02725862447
0.02725862447
0.02725862447
0.02725862447
0.02725862447
0.02725862447
0.02725862447
0.02725862447
0.02725862447
0.02725862447
0.02725862447
0.02725862447
0.02725862447
0.02725862447
0.02725862447
0.02725862447
0.02725862447
0.02725862447
0.02725862447
0.02725862447
0.02725862447
0.02725862447
0.02725862447
0.02725862447
0.02725862447
0.02725862447
0.02725862448
0.02725862448
0.02725862448
0.02725862448
0.02725862448
0.02725862448
0.02725862449
0.0272586245
0.02725862452
0.02725862455
0.02725862461
0.02725862471
0.02725862488
0.02725862517
0.02725862564
0.02725862642
0.02725862766
0.02725862963
0.02725863273
0.02725863754
0.02725864492
0.02725865612
0.02725867291
0.02725869784
0.02725873445
0.02725878767
0.02725886425
0.02725897338
0.0272591274
0.02725934275
0.0272596411
0.02726005075
0.02726060834
0.02726136083
0.02726236791
0.02726370478
0.02726546535
0.02726776592
0.02727074931
0.02727458945
0.02727949642
0.02728572185
0.02729356469
0.02730337713
0.02731557055
0.0273306213
0.02734907606
0.0273715563
0.02739876163
0.02743147142
0.02747054414
0.02751691384
0.0275715832
0.02763561303
0.02771010655
0.02779618845
0.02789498071
0.02800757205
0.02813498387
0.02827813288
0.02843779203
0.02861455151
0.02880878213
0.02902060334
0.02924985817
0.02949609714
0.02975857269
0.03003624481
0.0303277982
0.03063167002
0.03094608697
0.03126911052
0.03159868341
0.03193268428
0.03226897786
0.03260546442
0.03294012498
0.03327106097
0.03359652731
0.03391495853
0.0342249875
0.03452545708
0.03481542509
0.03509416309
0.03536115156
0.03561607111
0.035858787
0.03608933081
0.03630787996
0.03651473617
0.03671030377
0.03689506851
0.0370695773
0.03723441947
0.03739020972
0.03753757305
0.03767713184
0.03780949494
0.03793524868
0.03805494958
0.03816911864
0.0382782373
0.03838274521
0.03848304097
0.03857949209
0.03867236758
0.03876201999
0.03884870216
0.03893262679
0.0390139712
0.03909288022
0.03916946869
0.03924382364
0.0393160062
0.03938605344
0.03945398
0.03951977983
0.03958342796
0.0396448826
0.03970408774
0.03976097649
0.03981547527
0.03986750905