/*--------------------------------*- C++ -*----------------------------------*\
| =========                 |                                                 |
| \\      /  F ield         | OpenFOAM: The Open Source CFD Toolbox           |
|  \\    /   O peration     | Version:  v1612+-hyStrath                       |
|   \\  /    A nd           | Web:      www.OpenFOAM.com                      |
|    \\/     M anipulation  |                                                 |
\*---------------------------------------------------------------------------*/
FoamFile
{
    version     2.0;
    format      ascii;
    class       volScalarField;
    location    "5e-05";
    object      Mach;
}
// * * * * * * * * * * * * * * * * * * * * * * * * * * * * * * * * * * * * * //

dimensions      [0 0 0 0 0 0 0];

internalField   nonuniform List<scalar> 
128136
(
1.996351638
1.996351638
1.996351638
1.996351638
1.996351638
1.996351638
1.996351638
1.996351638
1.996351638
1.996351638
1.996351638
1.996351638
1.996351638
1.996351638
1.996351638
1.996351638
1.996351638
1.996351638
1.996351638
1.996351638
1.996351638
1.996351638
1.996351638
1.996351638
1.996351638
1.996351638
1.996351638
1.996351638
1.996351638
1.996351638
1.996351638
1.996351638
1.996351638
1.996351638
1.996351638
1.996351638
1.996351638
1.996351638
1.996351638
1.996351638
1.996351638
1.996351638
1.996351638
1.996351638
1.996351638
1.996351638
1.996351638
1.996351638
1.996351638
1.996351637
1.996351636
1.996351635
1.996351632
1.996351627
1.996351619
1.996351605
1.996351581
1.99635154
1.996351474
1.996351366
1.996351192
1.996350916
1.996350482
1.99634981
1.996348779
1.996347215
1.996344871
1.996341392
1.996336284
1.996328862
1.996318183
1.996302969
1.9962815
1.996251489
1.996209916
1.996152839
1.996075158
1.995970332
1.995830046
1.995643826
1.995398591
1.99507814
1.994662575
1.99412767
1.993444163
1.992577013
1.991484607
1.99011795
1.988419862
1.986324211
1.983755224
1.980626941
1.976842858
1.972295846
1.966868436
1.960433551
1.952855665
1.943992921
1.933698282
1.921827426
1.908236967
1.892790245
1.875364312
1.855853944
1.834176806
1.810278241
1.784135335
1.755759958
1.725200488
1.692542046
1.657905178
1.621443043
1.583337302
1.543793
1.503032787
1.461290852
1.418806944
1.375820761
1.332566952
1.289270882
1.246145211
1.203387287
1.161177318
1.119677203
1.079029933
1.039359465
1.00077097
0.963351526
0.927170335
0.8922789067
0.8587120779
0.826489118
0.795614946
0.7660813913
0.737868486
0.7109457826
0.6852736919
0.6608048311
0.6374853663
0.6152563303
0.594054895
0.5738155756
0.5544713443
0.5359546371
0.5181982331
0.5011359934
0.4847034648
0.4688384297
0.4534815025
0.4385767191
0.4240718035
0.4099177419
0.3960666548
0.3824790689
0.3690952889
0.3558747606
0.3427784823
0.3297689795
0.3168095664
0.303863733
0.2908944537
0.2778633474
0.2647296958
0.2514494733
0.237974544
0.2242515694
0.2102185536
0.1957951644
0.1808648484
0.1652584238
0.1487672172
0.1312205596
0.1126289818
0.09296911836
0.07077090297
1.996351638
1.996351638
1.996351638
1.996351638
1.996351638
1.996351638
1.996351638
1.996351638
1.996351638
1.996351638
1.996351638
1.996351638
1.996351638
1.996351638
1.996351638
1.996351638
1.996351638
1.996351638
1.996351638
1.996351638
1.996351638
1.996351638
1.996351638
1.996351638
1.996351638
1.996351638
1.996351638
1.996351638
1.996351638
1.996351638
1.996351638
1.996351638
1.996351638
1.996351638
1.996351638
1.996351638
1.996351638
1.996351638
1.996351638
1.996351638
1.996351638
1.996351638
1.996351638
1.996351638
1.996351638
1.996351638
1.996351638
1.996351638
1.996351638
1.996351637
1.996351636
1.996351635
1.996351632
1.996351627
1.996351619
1.996351605
1.996351581
1.99635154
1.996351474
1.996351366
1.996351192
1.996350916
1.996350482
1.996349809
1.996348778
1.996347214
1.996344869
1.996341389
1.99633628
1.996328856
1.996318174
1.996302957
1.996281483
1.996251465
1.996209882
1.996152792
1.996075093
1.995970243
1.995829925
1.995643664
1.995398376
1.995077854
1.994662202
1.994127184
1.993443535
1.992576209
1.991483584
1.990116661
1.988418248
1.986322206
1.983752752
1.980623916
1.976839186
1.972291424
1.966863154
1.960427294
1.952848313
1.943984368
1.933688415
1.921816195
1.908224208
1.89277594
1.875348463
1.855836583
1.834158018
1.810258164
1.784114164
1.755737944
1.725177937
1.692519315
1.657882667
1.621421185
1.583316555
1.543773832
1.503015664
1.461276229
1.418795252
1.375812401
1.332562287
1.289270234
1.246148855
1.203395455
1.161190196
1.119694936
1.079052627
1.039387194
1.00080378
0.9633894377
0.9272133478
0.8923270102
0.8587652649
0.8265473943
0.7956783407
0.7661499655
0.7379423413
0.7110250688
0.685358615
0.6608956602
0.6375824405
0.615360066
0.5941657929
0.5739342291
0.5545984486
0.5360909991
0.5183447814
0.5012937856
0.4848736989
0.4690224658
0.4536808879
0.4387932157
0.4243074525
0.4101750693
0.3963502268
0.3827904969
0.3694380694
0.3562532433
0.343197854
0.3302354029
0.317330423
0.3044479572
0.2915529864
0.2786097646
0.2655811017
0.2524277772
0.2391082849
0.2255785834
0.2117901647
0.1976833806
0.183175403
0.1681547092
0.1525145182
0.1362706398
0.1197899938
0.1037854625
0.08837712404
1.996351638
1.996351638
1.996351638
1.996351638
1.996351638
1.996351638
1.996351638
1.996351638
1.996351638
1.996351638
1.996351638
1.996351638
1.996351638
1.996351638
1.996351638
1.996351638
1.996351638
1.996351638
1.996351638
1.996351638
1.996351638
1.996351638
1.996351638
1.996351638
1.996351638
1.996351638
1.996351638
1.996351638
1.996351638
1.996351638
1.996351638
1.996351638
1.996351638
1.996351638
1.996351638
1.996351638
1.996351638
1.996351638
1.996351638
1.996351638
1.996351638
1.996351638
1.996351638
1.996351638
1.996351638
1.996351638
1.996351638
1.996351638
1.996351638
1.996351637
1.996351636
1.996351635
1.996351632
1.996351627
1.996351619
1.996351605
1.996351581
1.99635154
1.996351474
1.996351366
1.996351192
1.996350915
1.996350481
1.996349808
1.996348777
1.996347212
1.996344865
1.996341384
1.996336273
1.996328844
1.996318158
1.996302933
1.996281449
1.996251416
1.996209813
1.996152697
1.996074962
1.995970064
1.995829683
1.995643339
1.995397942
1.995077282
1.994661451
1.994126207
1.993442275
1.992574595
1.991481534
1.990114075
1.988415013
1.986318188
1.9837478
1.98061786
1.976831838
1.972282579
1.966852594
1.96041479
1.952833629
1.943967293
1.933668713
1.921793779
1.908198822
1.892747533
1.875317034
1.855802199
1.834120852
1.810218494
1.784072384
1.755694567
1.725133586
1.692474716
1.65783863
1.621378588
1.58327632
1.543736902
1.502982976
1.461248696
1.41877374
1.375797714
1.332555149
1.289271289
1.246158656
1.203414464
1.161218788
1.119733402
1.079101184
1.039445994
1.000872922
0.9634689697
0.9273032809
0.8924273394
0.858875993
0.826668554
0.795810013
0.7662922985
0.7380955667
0.7111895183
0.6855347355
0.6610840281
0.6377837764
0.6155752484
0.5943958741
0.5741804513
0.5548622631
0.5363740863
0.5186490702
0.501621473
0.4852272812
0.4694047862
0.4540951815
0.4392431445
0.4247971586
0.4107092751
0.3969394547
0.3834370595
0.3701494184
0.3570383413
0.3440673093
0.3312017712
0.3184086912
0.3056561928
0.2929132078
0.2801491316
0.2673335718
0.2544364148
0.2414284675
0.2282825434
0.214973851
0.2014776979
0.1877653866
0.1738112744
0.159641881
0.1454615335
0.1318318354
0.1195207329
0.108603277
1.996351638
1.996351638
1.996351638
1.996351638
1.996351638
1.996351638
1.996351638
1.996351638
1.996351638
1.996351638
1.996351638
1.996351638
1.996351638
1.996351638
1.996351638
1.996351638
1.996351638
1.996351638
1.996351638
1.996351638
1.996351638
1.996351638
1.996351638
1.996351638
1.996351638
1.996351638
1.996351638
1.996351638
1.996351638
1.996351638
1.996351638
1.996351638
1.996351638
1.996351638
1.996351638
1.996351638
1.996351638
1.996351638
1.996351638
1.996351638
1.996351638
1.996351638
1.996351638
1.996351638
1.996351638
1.996351638
1.996351638
1.996351638
1.996351638
1.996351637
1.996351636
1.996351635
1.996351632
1.996351627
1.996351619
1.996351605
1.996351581
1.99635154
1.996351474
1.996351365
1.996351191
1.996350915
1.99635048
1.996349807
1.996348774
1.996347209
1.99634486
1.996341376
1.996336261
1.996328827
1.996318133
1.996302897
1.996281397
1.996251343
1.99620971
1.996152554
1.996074765
1.995969794
1.995829318
1.995642849
1.995397289
1.995076419
1.994660321
1.994124738
1.99344038
1.99257217
1.991478453
1.990110192
1.988410155
1.986312157
1.983740371
1.980608779
1.976820825
1.972269331
1.966836785
1.960396081
1.952811675
1.943941778
1.933639304
1.921760323
1.908160997
1.892705253
1.875270297
1.855751139
1.834065741
1.81015977
1.784010657
1.755630617
1.725068362
1.692409317
1.657774283
1.621316618
1.583218117
1.543683885
1.502936558
1.461210247
1.41874456
1.375779007
1.332548007
1.289276674
1.246177398
1.203447256
1.161266192
1.119795859
1.079179023
1.039539451
1.000982154
0.9635940646
0.9274442737
0.8925842465
0.8590488473
0.8268574363
0.7960150814
0.7665138153
0.7383339244
0.7114452636
0.6858085922
0.6613769199
0.6380968475
0.6159098863
0.5947537322
0.5745634744
0.555272716
0.5368145839
0.5191226072
0.5021314615
0.4857776117
0.4699999062
0.4547401554
0.4399436842
0.4255595303
0.4115389364
0.3978566989
0.3844416266
0.3712537591
0.3582561668
0.3454146598
0.3326975098
0.3200751959
0.3075202498
0.2950071822
0.2825125271
0.27001513
0.2574969216
0.2449444527
0.2323511849
0.2197198168
0.207063457
0.194407168
0.1818009126
0.1693651315
0.1573773845
0.1463294805
0.136685399
0.1283497194
1.996351638
1.996351638
1.996351638
1.996351638
1.996351638
1.996351638
1.996351638
1.996351638
1.996351638
1.996351638
1.996351638
1.996351638
1.996351638
1.996351638
1.996351638
1.996351638
1.996351638
1.996351638
1.996351638
1.996351638
1.996351638
1.996351638
1.996351638
1.996351638
1.996351638
1.996351638
1.996351638
1.996351638
1.996351638
1.996351638
1.996351638
1.996351638
1.996351638
1.996351638
1.996351638
1.996351638
1.996351638
1.996351638
1.996351638
1.996351638
1.996351638
1.996351638
1.996351638
1.996351638
1.996351638
1.996351638
1.996351638
1.996351638
1.996351638
1.996351637
1.996351636
1.996351635
1.996351632
1.996351627
1.996351619
1.996351605
1.996351581
1.99635154
1.996351474
1.996351365
1.996351191
1.996350914
1.996350479
1.996349805
1.996348771
1.996347204
1.996344853
1.996341366
1.996336245
1.996328804
1.996318099
1.996302848
1.996281328
1.996251244
1.996209572
1.996152362
1.996074501
1.995969433
1.995828829
1.995642192
1.995396416
1.995075266
1.994658809
1.994122774
1.993437848
1.99256893
1.991474339
1.990105008
1.988403674
1.986304115
1.98373047
1.980596683
1.976806165
1.972251704
1.966815765
1.960371222
1.952782527
1.943907917
1.933600347
1.921715997
1.90811095
1.89264938
1.875208611
1.855683838
1.833993211
1.810082618
1.78392972
1.755546962
1.724983276
1.692324283
1.657690953
1.621236772
1.583143618
1.543616629
1.502878431
1.461163078
1.418710083
1.375758821
1.332543565
1.289289257
1.246208108
1.203497018
1.161335756
1.119885815
1.079289817
1.039671406
1.001135494
0.9637689229
0.9276407245
0.8928023445
0.8592886748
0.827119145
0.7962989312
0.7668202109
0.7386634491
0.7117987123
0.686187002
0.6617815995
0.6385294064
0.6163722642
0.5952482298
0.575092788
0.5558399741
0.5374233866
0.5197770691
0.5028362752
0.4865381444
0.4708223135
0.4556314652
0.4409118797
0.4266132914
0.4126973153
0.3991204027
0.3858250486
0.3727729898
0.3599294939
0.3472632545
0.3347460845
0.3223528162
0.31006135
0.2978528532
0.2857121655
0.2736285463
0.2615969774
0.2496202384
0.2377117412
0.2258985834
0.2142240209
0.2027506208
0.1915712032
0.1808371538
0.1707944138
0.1617624291
0.1539457496
0.1471989571
1.996351638
1.996351638
1.996351638
1.996351638
1.996351638
1.996351638
1.996351638
1.996351638
1.996351638
1.996351638
1.996351638
1.996351638
1.996351638
1.996351638
1.996351638
1.996351638
1.996351638
1.996351638
1.996351638
1.996351638
1.996351638
1.996351638
1.996351638
1.996351638
1.996351638
1.996351638
1.996351638
1.996351638
1.996351638
1.996351638
1.996351638
1.996351638
1.996351638
1.996351638
1.996351638
1.996351638
1.996351638
1.996351638
1.996351638
1.996351638
1.996351638
1.996351638
1.996351638
1.996351638
1.996351638
1.996351638
1.996351638
1.996351638
1.996351638
1.996351637
1.996351636
1.996351635
1.996351632
1.996351627
1.996351619
1.996351605
1.996351581
1.99635154
1.996351473
1.996351365
1.99635119
1.996350913
1.996350478
1.996349803
1.996348768
1.996347198
1.996344845
1.996341352
1.996336226
1.996328775
1.996318057
1.996302787
1.99628124
1.996251121
1.996209399
1.996152121
1.996074169
1.99596898
1.995828216
1.995641369
1.99539532
1.995073819
1.994656915
1.994120313
1.993434676
1.992564873
1.991469192
1.990098526
1.988395572
1.986294068
1.983718105
1.980581587
1.976787879
1.972229733
1.966789583
1.96034028
1.952746279
1.943865816
1.933552015
1.921661011
1.908048948
1.892580244
1.87513239
1.8556008
1.833903872
1.809987767
1.783830432
1.7554446
1.724879473
1.692220919
1.657590114
1.621140698
1.583054649
1.543537145
1.502810792
1.461109569
1.418672869
1.375739894
1.332544737
1.289312122
1.246254039
1.203567166
1.16143106
1.120007014
1.079437477
1.039845943
1.001337201
0.9639979935
0.9278972835
0.8930865018
0.8596005817
0.8274590464
0.7966672141
0.7672174495
0.7390904481
0.712256547
0.6866770567
0.6623056048
0.6390894752
0.6169709283
0.5958884787
0.5757781102
0.5565744023
0.5382115445
0.5206242331
0.503748468
0.4875222682
0.4718863006
0.4567843925
0.4421639553
0.4279725831
0.4141900281
0.400748309
0.387605717
0.3747259454
0.362077092
0.3496312083
0.3373641382
0.3252555633
0.3132892225
0.3014533174
0.2897411613
0.2781521809
0.26669341
0.255381571
0.2442456247
0.2333292719
0.2226927348
0.2124144257
0.2025958625
0.193371893
0.1849140519
0.1773916727
0.1708609054
0.1651651629
1.996351638
1.996351638
1.996351638
1.996351638
1.996351638
1.996351638
1.996351638
1.996351638
1.996351638
1.996351638
1.996351638
1.996351638
1.996351638
1.996351638
1.996351638
1.996351638
1.996351638
1.996351638
1.996351638
1.996351638
1.996351638
1.996351638
1.996351638
1.996351638
1.996351638
1.996351638
1.996351638
1.996351638
1.996351638
1.996351638
1.996351638
1.996351638
1.996351638
1.996351638
1.996351638
1.996351638
1.996351638
1.996351638
1.996351638
1.996351638
1.996351638
1.996351638
1.996351638
1.996351638
1.996351638
1.996351638
1.996351638
1.996351638
1.996351638
1.996351637
1.996351636
1.996351635
1.996351632
1.996351627
1.996351619
1.996351605
1.99635158
1.99635154
1.996351473
1.996351364
1.996351189
1.996350912
1.996350476
1.9963498
1.996348763
1.996347191
1.996344834
1.996341336
1.996336202
1.99632874
1.996318006
1.996302713
1.996281135
1.996250971
1.99620919
1.99615183
1.996073769
1.995968434
1.995827477
1.995640378
1.995394001
1.995072078
1.994654637
1.994117355
1.993430864
1.99256
1.99146301
1.990090745
1.988385854
1.986282022
1.983703291
1.98056351
1.976765998
1.972203461
1.966758298
1.960303336
1.952703043
1.943815617
1.933494497
1.921595612
1.9079753
1.89249823
1.875042106
1.8555026
1.833798413
1.809876035
1.783713754
1.755324645
1.724758234
1.69210068
1.6574734
1.621030216
1.58295322
1.543447633
1.50273603
1.4610523
1.41863568
1.375725176
1.33255465
1.289348572
1.246318666
1.203661346
1.161555918
1.120163441
1.079626157
1.04006739
1.001591789
0.9642859817
0.9282188618
0.893441852
0.8599899437
0.8278827806
0.7971258592
0.7677117765
0.7396215115
0.7128257332
0.68728613
0.6629567511
0.6397853452
0.6177146806
0.5966838255
0.5766293649
0.5574865294
0.5391902173
0.5216759168
0.5048805445
0.488743198
0.4732058113
0.4582137344
0.4437163268
0.4296659712
0.4160324088
0.4027563923
0.3897994402
0.3771279755
0.3647132294
0.3525308762
0.3405609903
0.3287881973
0.3172019978
0.3057972699
0.2945749891
0.283543224
0.2727184501
0.2621271416
0.2518074115
0.2418101783
0.2321992409
0.2230503386
0.2144504477
0.2064971369
0.1992904441
0.1929010056
0.1873072596
0.1823548321
1.996351638
1.996351638
1.996351638
1.996351638
1.996351638
1.996351638
1.996351638
1.996351638
1.996351638
1.996351638
1.996351638
1.996351638
1.996351638
1.996351638
1.996351638
1.996351638
1.996351638
1.996351638
1.996351638
1.996351638
1.996351638
1.996351638
1.996351638
1.996351638
1.996351638
1.996351638
1.996351638
1.996351638
1.996351638
1.996351638
1.996351638
1.996351638
1.996351638
1.996351638
1.996351638
1.996351638
1.996351638
1.996351638
1.996351638
1.996351638
1.996351638
1.996351638
1.996351638
1.996351638
1.996351638
1.996351638
1.996351638
1.996351638
1.996351638
1.996351637
1.996351636
1.996351635
1.996351632
1.996351627
1.996351619
1.996351605
1.99635158
1.99635154
1.996351473
1.996351364
1.996351189
1.99635091
1.996350474
1.996349796
1.996348758
1.996347183
1.996344821
1.996341318
1.996336174
1.996328699
1.996317946
1.996302627
1.996281011
1.996250796
1.996208945
1.99615149
1.9960733
1.995967794
1.995826611
1.995639217
1.995392457
1.995070042
1.994651972
1.994113897
1.993426411
1.992554311
1.991455797
1.99008167
1.988374525
1.986267989
1.983686043
1.980542478
1.976740558
1.972172939
1.966721982
1.960260487
1.952652948
1.9437575
1.933428005
1.921520077
1.907890355
1.892403772
1.874938288
1.85538988
1.833677605
1.809748333
1.783580751
1.755188331
1.724620972
1.691965166
1.657342605
1.620907321
1.582841527
1.543350489
1.502656745
1.460994067
1.418601502
1.375717844
1.332576669
1.289402151
1.246405708
1.203783451
1.161714394
1.120359331
1.07986027
1.04034034
1.001904036
0.964637862
0.9286106442
0.8938738067
0.8604624186
0.8283962735
0.797681084
0.7683097267
0.740263519
0.7135135242
0.6880218779
0.6637431268
0.6406255665
0.6186125616
0.5976438267
0.5776566455
0.5585870012
0.5403706149
0.522943904
0.5062448651
0.4902138477
0.4747942169
0.4599329745
0.4455813996
0.4316951542
0.4182385857
0.4051582331
0.3924190626
0.3799905857
0.3678473032
0.3559685284
0.3443384432
0.3329462995
0.3217867583
0.3108603617
0.3001741456
0.2897423921
0.2795874766
0.269740676
0.2602426554
0.2511431492
0.2424992988
0.2343725887
0.2268252273
0.2199163133
0.213693518
0.2081688703
0.203276497
0.1988711501
1.996351638
1.996351638
1.996351638
1.996351638
1.996351638
1.996351638
1.996351638
1.996351638
1.996351638
1.996351638
1.996351638
1.996351638
1.996351638
1.996351638
1.996351638
1.996351638
1.996351638
1.996351638
1.996351638
1.996351638
1.996351638
1.996351638
1.996351638
1.996351638
1.996351638
1.996351638
1.996351638
1.996351638
1.996351638
1.996351638
1.996351638
1.996351638
1.996351638
1.996351638
1.996351638
1.996351638
1.996351638
1.996351638
1.996351638
1.996351638
1.996351638
1.996351638
1.996351638
1.996351638
1.996351638
1.996351638
1.996351638
1.996351638
1.996351638
1.996351637
1.996351636
1.996351635
1.996351632
1.996351627
1.996351619
1.996351605
1.99635158
1.996351539
1.996351472
1.996351363
1.996351188
1.996350909
1.996350471
1.996349792
1.996348752
1.996347173
1.996344807
1.996341296
1.996336142
1.996328652
1.996317877
1.996302527
1.996280869
1.996250595
1.996208663
1.996151098
1.996072761
1.99596706
1.995825618
1.995637886
1.995390688
1.99506771
1.994648922
1.994109939
1.993421317
1.992547806
1.991447554
1.990071306
1.988361595
1.986251983
1.983666384
1.980518524
1.976711605
1.97213823
1.96668072
1.960211849
1.952596141
1.943691681
1.933352779
1.921434723
1.907794511
1.89229736
1.874821533
1.85526336
1.833542303
1.809605669
1.783432601
1.755037014
1.724469233
1.691816124
1.657199688
1.62077418
1.582721953
1.543248312
1.502575744
1.460937887
1.418573563
1.375721315
1.332614398
1.28947665
1.24651914
1.203937632
1.161910817
1.120599189
1.080144498
1.040669659
1.002278998
0.9650588915
0.9290781017
0.8943880671
0.8610239567
0.8290057449
0.7983394012
0.7690181294
0.7410236416
0.7143274582
0.6888922311
0.66467308
0.6416189279
0.6196738209
0.5987782088
0.5788701641
0.5598865178
0.5417639222
0.5244398541
0.5078535371
0.4919467128
0.4766642673
0.4619547861
0.4477710026
0.4340740079
0.4208209614
0.4079649438
0.3954741447
0.3833211483
0.3714836146
0.3599442515
0.3486909143
0.3377167923
0.3270206727
0.3166072677
0.3064875791
0.2966792522
0.2872068213
0.2781016859
0.269401551
0.2611489293
0.253388308
0.2461621849
0.2395072662
0.2334515866
0.2280080234
0.2231537206
0.2188025705
0.2148323937
1.996351638
1.996351638
1.996351638
1.996351638
1.996351638
1.996351638
1.996351638
1.996351638
1.996351638
1.996351638
1.996351638
1.996351638
1.996351638
1.996351638
1.996351638
1.996351638
1.996351638
1.996351638
1.996351638
1.996351638
1.996351638
1.996351638
1.996351638
1.996351638
1.996351638
1.996351638
1.996351638
1.996351638
1.996351638
1.996351638
1.996351638
1.996351638
1.996351638
1.996351638
1.996351638
1.996351638
1.996351638
1.996351638
1.996351638
1.996351638
1.996351638
1.996351638
1.996351638
1.996351638
1.996351638
1.996351638
1.996351638
1.996351638
1.996351638
1.996351637
1.996351636
1.996351635
1.996351632
1.996351627
1.996351619
1.996351604
1.99635158
1.996351539
1.996351472
1.996351363
1.996351187
1.996350907
1.996350468
1.996349788
1.996348745
1.996347163
1.996344791
1.996341272
1.996336105
1.996328598
1.996317799
1.996302414
1.996280708
1.996250368
1.996208344
1.996150656
1.996072153
1.995966231
1.995824498
1.995636385
1.995388693
1.99506508
1.994645485
1.994105483
1.993415584
1.992540489
1.991438288
1.990059663
1.988347078
1.986234025
1.983644343
1.980491686
1.976679195
1.97209941
1.966634614
1.960157558
1.952532784
1.943618407
1.933269099
1.92133991
1.907688214
1.892179544
1.874692508
1.855123839
1.833393457
1.809449159
1.783270595
1.754872181
1.72430471
1.691655461
1.657046771
1.620633144
1.582597074
1.543143903
1.502496052
1.460886991
1.418555311
1.375739245
1.332671696
1.289576119
1.246663196
1.204128309
1.162149786
1.120887796
1.080483805
1.041060497
1.00272202
0.9655546196
0.9296270009
0.8949906323
0.8616808073
0.8297177143
0.7991076207
0.7698441073
0.7419093364
0.7152753484
0.6899053798
0.6657551965
0.6427744266
0.6209078781
0.6000968183
0.5802801905
0.561395761
0.5433812133
0.5261751995
0.5097182926
0.4939537388
0.4788280133
0.4642910854
0.4502952492
0.436814918
0.4237896198
0.4111847812
0.3989707001
0.3871227233
0.3756213182
0.3644520994
0.3536058989
0.3430788685
0.3328725977
0.3229942161
0.3134564342
0.3042774482
0.2954806049
0.2870936913
0.2791476416
0.2716743546
0.2647034388
0.2582585511
0.2523550578
0.2469990362
0.242180771
0.2378540851
0.2339275552
0.2303294966
1.996351638
1.996351638
1.996351638
1.996351638
1.996351638
1.996351638
1.996351638
1.996351638
1.996351638
1.996351638
1.996351638
1.996351638
1.996351638
1.996351638
1.996351638
1.996351638
1.996351638
1.996351638
1.996351638
1.996351638
1.996351638
1.996351638
1.996351638
1.996351638
1.996351638
1.996351638
1.996351638
1.996351638
1.996351638
1.996351638
1.996351638
1.996351638
1.996351638
1.996351638
1.996351638
1.996351638
1.996351638
1.996351638
1.996351638
1.996351638
1.996351638
1.996351638
1.996351638
1.996351638
1.996351638
1.996351638
1.996351638
1.996351638
1.996351638
1.996351637
1.996351636
1.996351635
1.996351632
1.996351627
1.996351619
1.996351604
1.99635158
1.996351539
1.996351472
1.996351362
1.996351185
1.996350905
1.996350465
1.996349783
1.996348737
1.996347151
1.996344772
1.996341244
1.996336064
1.996328538
1.996317711
1.996302289
1.996280529
1.996250114
1.996207989
1.996150163
1.996071475
1.995965306
1.995823249
1.995634712
1.995386471
1.995062155
1.994641663
1.994100529
1.993409215
1.992532364
1.991428006
1.990046751
1.988330991
1.986214138
1.983619954
1.980462015
1.976643393
1.972056569
1.966583781
1.96009777
1.952463067
1.943537955
1.933177286
1.921236043
1.907571966
1.892050936
1.874551953
1.854972203
1.833232113
1.809280026
1.78309615
1.754695454
1.724129242
1.691485242
1.656886157
1.62048675
1.582469664
1.543040272
1.502420918
1.460844854
1.41855044
1.375775542
1.332752673
1.289704869
1.246842382
1.204360175
1.162436182
1.121230217
1.080883444
1.041518298
1.003238744
0.9661308947
0.9302634092
0.8956878035
0.8624395217
0.8305390006
0.7999928479
0.7707950704
0.7429283367
0.7163652681
0.6910697521
0.6669982707
0.64410123
0.6223242747
0.6016095625
0.5818969816
0.5631253119
0.5452333558
0.5281610311
0.5118503503
0.4962461604
0.4812967117
0.4669534013
0.4531760702
0.4399253693
0.4271517455
0.4148228147
0.402911029
0.3913940279
0.3802545665
0.3694804919
0.3590647277
0.3490052423
0.3393049774
0.3299716946
0.3210176853
0.3124592727
0.3043160283
0.296609619
0.2893621426
0.2825937376
0.2763195586
0.2705472271
0.2652763167
0.2604980635
0.2561873044
0.2522852895
0.2487097341
0.2454242191
1.996351638
1.996351638
1.996351638
1.996351638
1.996351638
1.996351638
1.996351638
1.996351638
1.996351638
1.996351638
1.996351638
1.996351638
1.996351638
1.996351638
1.996351638
1.996351638
1.996351638
1.996351638
1.996351638
1.996351638
1.996351638
1.996351638
1.996351638
1.996351638
1.996351638
1.996351638
1.996351638
1.996351638
1.996351638
1.996351638
1.996351638
1.996351638
1.996351638
1.996351638
1.996351638
1.996351638
1.996351638
1.996351638
1.996351638
1.996351638
1.996351638
1.996351638
1.996351638
1.996351638
1.996351638
1.996351638
1.996351638
1.996351638
1.996351638
1.996351637
1.996351636
1.996351635
1.996351632
1.996351627
1.996351619
1.996351604
1.99635158
1.996351539
1.996351471
1.996351361
1.996351184
1.996350903
1.996350462
1.996349777
1.996348728
1.996347137
1.996344752
1.996341214
1.996336019
1.996328472
1.996317615
1.996302149
1.99628033
1.996249833
1.996207596
1.996149618
1.996070726
1.995964287
1.995821872
1.995632869
1.995384024
1.995058933
1.994637456
1.99409508
1.993402214
1.992523439
1.991416717
1.990032586
1.988313355
1.986192355
1.98359326
1.980429568
1.976604279
1.97200981
1.966528361
1.96003266
1.952387234
1.943450608
1.933077705
1.921123577
1.907446325
1.891912217
1.874400688
1.854809427
1.83305942
1.809099609
1.782910813
1.754508599
1.723944826
1.691307705
1.656720327
1.620337731
1.582342707
1.542940651
1.5023538
1.460815192
1.418562888
1.375834365
1.332861704
1.28986748
1.247061476
1.204638202
1.162775168
1.121631807
1.081348959
1.042048803
1.003835111
0.9667938675
0.9309936977
0.8964861852
0.8633069522
0.8314767194
0.801002477
0.7718787065
0.7440886372
0.7176055301
0.6923939864
0.6684112699
0.6456086317
0.6239326189
0.6033263444
0.5837307051
0.5650855628
0.547330907
0.5304079776
0.5142602663
0.4988342571
0.4840800721
0.4699481701
0.4564116226
0.4434115503
0.4309115876
0.4188808591
0.4072937097
0.3961295685
0.385372846
0.3750128297
0.3650435511
0.3554635988
0.3462758472
0.3374870615
0.3291073288
0.3211492662
0.3136269713
0.3065546817
0.2999450416
0.2938068637
0.2881427796
0.2829481607
0.2782120228
0.2739156677
0.2700215456
0.2664655695
0.2631951339
0.2601736807
1.996351638
1.996351638
1.996351638
1.996351638
1.996351638
1.996351638
1.996351638
1.996351638
1.996351638
1.996351638
1.996351638
1.996351638
1.996351638
1.996351638
1.996351638
1.996351638
1.996351638
1.996351638
1.996351638
1.996351638
1.996351638
1.996351638
1.996351638
1.996351638
1.996351638
1.996351638
1.996351638
1.996351638
1.996351638
1.996351638
1.996351638
1.996351638
1.996351638
1.996351638
1.996351638
1.996351638
1.996351638
1.996351638
1.996351638
1.996351638
1.996351638
1.996351638
1.996351638
1.996351638
1.996351638
1.996351638
1.996351638
1.996351638
1.996351638
1.996351637
1.996351636
1.996351635
1.996351632
1.996351627
1.996351619
1.996351604
1.996351579
1.996351538
1.99635147
1.99635136
1.996351182
1.9963509
1.996350458
1.996349771
1.996348719
1.996347123
1.99634473
1.99634118
1.99633597
1.996328399
1.996317509
1.996301997
1.996280113
1.996249526
1.996207166
1.996149022
1.996069907
1.995963171
1.995820367
1.995630855
1.995381352
1.995055417
1.994632867
1.99408914
1.993394586
1.992513722
1.991404437
1.990017187
1.988294198
1.986168711
1.983564312
1.980394414
1.976561944
1.971959255
1.966468511
1.959962418
1.952305574
1.943356686
1.932970766
1.92100302
1.907311914
1.89176414
1.874239615
1.854636582
1.832876635
1.808909369
1.782716264
1.75431353
1.723753621
1.691125263
1.656551956
1.620189021
1.582219399
1.542848498
1.502298401
1.460801955
1.418596845
1.375920133
1.333003427
1.290068802
1.247325536
1.204967649
1.163172198
1.122098213
1.081886195
1.042658052
1.004517365
0.9675499925
0.9318245414
0.8973926838
0.8642902488
0.8325382763
0.8021441809
0.7731029664
0.7453984741
0.7190046607
0.6938868989
0.6700032937
0.6473060004
0.6257425255
0.6052569909
0.5857913561
0.567286619
0.5496840033
0.5329260865
0.5169578182
0.501727322
0.4871873989
0.4732938431
0.4600070804
0.4472773993
0.4350706619
0.4233575222
0.4121137295
0.4013199268
0.3909614798
0.3810282748
0.3715144608
0.3624181085
0.3537407629
0.3454868547
0.3376629402
0.3302767491
0.3233360501
0.3168473248
0.3108141684
0.3052354363
0.3001038281
0.2954061819
0.2911246815
0.2872332636
0.2836863107
0.2804230553
0.2774158706
0.2746229892
1.996351638
1.996351638
1.996351638
1.996351638
1.996351638
1.996351638
1.996351638
1.996351638
1.996351638
1.996351638
1.996351638
1.996351638
1.996351638
1.996351638
1.996351638
1.996351638
1.996351638
1.996351638
1.996351638
1.996351638
1.996351638
1.996351638
1.996351638
1.996351638
1.996351638
1.996351638
1.996351638
1.996351638
1.996351638
1.996351638
1.996351638
1.996351638
1.996351638
1.996351638
1.996351638
1.996351638
1.996351638
1.996351638
1.996351638
1.996351638
1.996351638
1.996351638
1.996351638
1.996351638
1.996351638
1.996351638
1.996351638
1.996351638
1.996351638
1.996351637
1.996351636
1.996351635
1.996351632
1.996351627
1.996351619
1.996351604
1.996351579
1.996351538
1.99635147
1.996351359
1.996351181
1.996350898
1.996350453
1.996349764
1.996348708
1.996347107
1.996344706
1.996341144
1.996335916
1.99632832
1.996317393
1.996301831
1.996279876
1.996249192
1.996206698
1.996148374
1.996069017
1.995961961
1.995818734
1.995628671
1.995378456
1.995051608
1.9946279
1.994082714
1.993386341
1.992503225
1.99139118
1.990000577
1.988273551
1.986143251
1.98353317
1.980356633
1.976516494
1.971905043
1.96640441
1.959887271
1.952218397
1.943256547
1.932856927
1.920874933
1.907169417
1.891607532
1.874069724
1.854454836
1.832685127
1.808710891
1.782514322
1.754112315
1.723557955
1.690940511
1.65638391
1.620043763
1.582103156
1.542767491
1.502258687
1.460809347
1.418656761
1.376037533