/*--------------------------------*- C++ -*----------------------------------*\
| =========                 |                                                 |
| \\      /  F ield         | OpenFOAM: The Open Source CFD Toolbox           |
|  \\    /   O peration     | Version:  v1612+-hyStrath                       |
|   \\  /    A nd           | Web:      www.OpenFOAM.com                      |
|    \\/     M anipulation  |                                                 |
\*---------------------------------------------------------------------------*/
FoamFile
{
    version     2.0;
    format      ascii;
    class       volScalarField;
    location    "5e-05";
    object      rho;
}
// * * * * * * * * * * * * * * * * * * * * * * * * * * * * * * * * * * * * * //

dimensions      [1 -3 0 0 0 0 0];

internalField   nonuniform List<scalar> 
128136
(
0.001323887264
0.001323887264
0.001323887264
0.001323887264
0.001323887264
0.001323887264
0.001323887264
0.001323887264
0.001323887264
0.001323887264
0.001323887264
0.001323887264
0.001323887264
0.001323887264
0.001323887264
0.001323887264
0.001323887264
0.001323887264
0.001323887264
0.001323887264
0.001323887264
0.001323887264
0.001323887264
0.001323887264
0.001323887264
0.001323887264
0.001323887264
0.001323887264
0.001323887264
0.001323887264
0.001323887264
0.001323887264
0.001323887264
0.001323887264
0.001323887264
0.001323887264
0.001323887264
0.001323887264
0.001323887264
0.001323887264
0.001323887264
0.001323887264
0.001323887264
0.001323887264
0.001323887264
0.001323887264
0.001323887264
0.001323887264
0.001323887264
0.001323887264
0.001323887264
0.001323887265
0.001323887266
0.001323887268
0.001323887272
0.001323887278
0.001323887288
0.001323887305
0.001323887333
0.001323887378
0.001323887451
0.001323887566
0.001323887745
0.001323888023
0.001323888447
0.001323889089
0.001323890048
0.001323891465
0.001323893539
0.001323896543
0.001323900851
0.001323906966
0.001323915567
0.00132392755
0.001323944093
0.001323966728
0.001323997433
0.00132403873
0.001324093815
0.001324166698
0.001324262372
0.001324387
0.001324548129
0.001324754924
0.001325018437
0.001325351884
0.001325770958
0.00132629415
0.001326943095
0.001327742916
0.001328722581
0.001329915256
0.001331358649
0.001333095354
0.001335173092
0.00133764513
0.001340569875
0.001344012373
0.001348044655
0.001352736701
0.001358175789
0.001364445531
0.00137163575
0.0013798403
0.001389156535
0.001399684265
0.001411524712
0.001424779467
0.001439549414
0.001455933599
0.00147402809
0.001493924805
0.001515710351
0.001539464836
0.001565260663
0.001593161278
0.001623219862
0.001655477923
0.001689963816
0.001726691131
0.001765657011
0.001806840399
0.001850200272
0.001895673929
0.001943175519
0.00199259439
0.002043795993
0.002096619195
0.002150875502
0.002206354864
0.002262827294
0.002320045966
0.002377751225
0.002435675384
0.002493548171
0.002551102569
0.002608080807
0.002664240193
0.002719358521
0.002773238777
0.002825712946
0.002876644783
0.002925931482
0.002973504281
0.003019328126
0.003063400676
0.003105750674
0.003146435273
0.003185535925
0.003223153266
0.003259401813
0.003294405971
0.003328300431
0.003361294405
0.003393664447
0.003425629678
0.003457422598
0.003489295212
0.003521526271
0.003554429123
0.003588362099
0.003623742028
0.003661062602
0.003700924874
0.003744087155
0.003791506709
0.003844282437
0.00390350119
0.003970596416
0.004049841446
0.004155016851
0.004319843763
0.004589091078
0.004930014951
0.005156092718
0.001323887264
0.001323887264
0.001323887264
0.001323887264
0.001323887264
0.001323887264
0.001323887264
0.001323887264
0.001323887264
0.001323887264
0.001323887264
0.001323887264
0.001323887264
0.001323887264
0.001323887264
0.001323887264
0.001323887264
0.001323887264
0.001323887264
0.001323887264
0.001323887264
0.001323887264
0.001323887264
0.001323887264
0.001323887264
0.001323887264
0.001323887264
0.001323887264
0.001323887264
0.001323887264
0.001323887264
0.001323887264
0.001323887264
0.001323887264
0.001323887264
0.001323887264
0.001323887264
0.001323887264
0.001323887264
0.001323887264
0.001323887264
0.001323887264
0.001323887264
0.001323887264
0.001323887264
0.001323887264
0.001323887264
0.001323887264
0.001323887264
0.001323887264
0.001323887264
0.001323887265
0.001323887266
0.001323887268
0.001323887272
0.001323887278
0.001323887288
0.001323887305
0.001323887333
0.001323887378
0.001323887451
0.001323887566
0.001323887745
0.001323888023
0.001323888447
0.001323889089
0.001323890048
0.001323891465
0.001323893539
0.001323896544
0.001323900851
0.001323906967
0.001323915568
0.001323927551
0.001323944094
0.001323966731
0.001323997436
0.001324038735
0.001324093821
0.001324166706
0.001324262384
0.001324387016
0.001324548149
0.001324754951
0.001325018472
0.001325351929
0.001325771016
0.001326294226
0.001326943193
0.001327743042
0.001328722745
0.001329915469
0.001331358929
0.001333095727
0.001335173593
0.001337645837
0.001340570838
0.001344014052
0.001348045977
0.001352736351
0.001358173678
0.001364442099
0.001371631035
0.00137983458
0.001389150157
0.001399677492
0.001411517708
0.001424772319
0.00143954214
0.001455926165
0.001474020416
0.001493916781
0.001515701843
0.001539455696
0.001565250733
0.001593150398
0.001623207867
0.001655464651
0.001689949109
0.001726674832
0.001765638969
0.001806820473
0.001850178329
0.001895649847
0.001943149191
0.001992565724
0.00204376491
0.002096585642
0.002150839449
0.002206316297
0.002262786211
0.002320002371
0.002377705118
0.00243562676
0.002493497008
0.002551048822
0.002608024395
0.002664180994
0.002719296358
0.00277317341
0.00282564406
0.002876571975
0.002925854249
0.002973422002
0.003019240057
0.003063305939
0.003105648216
0.003146323815
0.003185414091
0.003223019963
0.003259255241
0.003294238771
0.003328107562
0.003361079096
0.003393422435
0.003425354375
0.003457106004
0.003488927715
0.003521095939
0.003553920721
0.003587755708
0.003623011019
0.00366017059
0.003699821198
0.003742700047
0.003789732849
0.00384197161
0.003900432666
0.003966424435
0.00404391368
0.004145739607
0.00430256778
0.004550906347
0.004847952356
0.005025697751
0.001323887264
0.001323887264
0.001323887264
0.001323887264
0.001323887264
0.001323887264
0.001323887264
0.001323887264
0.001323887264
0.001323887264
0.001323887264
0.001323887264
0.001323887264
0.001323887264
0.001323887264
0.001323887264
0.001323887264
0.001323887264
0.001323887264
0.001323887264
0.001323887264
0.001323887264
0.001323887264
0.001323887264
0.001323887264
0.001323887264
0.001323887264
0.001323887264
0.001323887264
0.001323887264
0.001323887264
0.001323887264
0.001323887264
0.001323887264
0.001323887264
0.001323887264
0.001323887264
0.001323887264
0.001323887264
0.001323887264
0.001323887264
0.001323887264
0.001323887264
0.001323887264
0.001323887264
0.001323887264
0.001323887264
0.001323887264
0.001323887264
0.001323887264
0.001323887264
0.001323887265
0.001323887266
0.001323887268
0.001323887272
0.001323887278
0.001323887288
0.001323887305
0.001323887333
0.001323887378
0.001323887451
0.001323887566
0.001323887745
0.001323888023
0.001323888448
0.001323889089
0.001323890048
0.001323891466
0.00132389354
0.001323896544
0.001323900852
0.001323906969
0.00132391557
0.001323927554
0.001323944099
0.001323966738
0.001323997446
0.001324038747
0.001324093838
0.001324166729
0.001324262414
0.001324387056
0.001324548202
0.001324755019
0.00132501856
0.001325352043
0.001325771163
0.001326294413
0.001326943431
0.001327743344
0.001328723128
0.001329915956
0.00133135955
0.001333096528
0.001335174623
0.001337647242
0.001340572454
0.001344017331
0.001348047551
0.001352737872
0.001358174259
0.001364441288
0.001371628253
0.001379829766
0.00138914325
0.001399668455
0.001411506549
0.001424759066
0.001439526812
0.001455908744
0.001474000828
0.001493894883
0.001515677423
0.001539428475
0.001565220373
0.001593116516
0.001623170039
0.001655422437
0.00168990204
0.001726622441
0.001765580794
0.00180675606
0.00185010725
0.001895571701
0.001943063616
0.001992472402
0.002043663568
0.002096476086
0.002150721557
0.00220619001
0.002262651514
0.002319859279
0.002377553655
0.002435466936
0.002493328794
0.002550872124
0.002607839022
0.002663986627
0.002719092516
0.002772959417
0.00282541901
0.002876334693
0.002925603242
0.002973155418
0.003018955657
0.003063001056
0.003105319602
0.003145967485
0.003185025777
0.00322259616
0.003258790458
0.003293711981
0.003327503225
0.003360406752
0.003392668116
0.003424498513
0.003456124965
0.003487792938
0.003519771967
0.003552362447
0.003585904529
0.003620789218
0.003657473034
0.003696502847
0.003738556673
0.003784472142
0.003835176016
0.00389151548
0.003954524133
0.004027440061
0.004120626501
0.004256758991
0.004455285137
0.004670819728
0.004792695207
0.001323887264
0.001323887264
0.001323887264
0.001323887264
0.001323887264
0.001323887264
0.001323887264
0.001323887264
0.001323887264
0.001323887264
0.001323887264
0.001323887264
0.001323887264
0.001323887264
0.001323887264
0.001323887264
0.001323887264
0.001323887264
0.001323887264
0.001323887264
0.001323887264
0.001323887264
0.001323887264
0.001323887264
0.001323887264
0.001323887264
0.001323887264
0.001323887264
0.001323887264
0.001323887264
0.001323887264
0.001323887264
0.001323887264
0.001323887264
0.001323887264
0.001323887264
0.001323887264
0.001323887264
0.001323887264
0.001323887264
0.001323887264
0.001323887264
0.001323887264
0.001323887264
0.001323887264
0.001323887264
0.001323887264
0.001323887264
0.001323887264
0.001323887264
0.001323887264
0.001323887265
0.001323887266
0.001323887268
0.001323887272
0.001323887278
0.001323887288
0.001323887305
0.001323887333
0.001323887378
0.001323887451
0.001323887566
0.001323887745
0.001323888023
0.001323888448
0.001323889089
0.001323890048
0.001323891466
0.001323893541
0.001323896546
0.001323900854
0.001323906972
0.001323915575
0.001323927561
0.001323944108
0.00132396675
0.001323997462
0.001324038769
0.001324093868
0.001324166769
0.001324262466
0.001324387124
0.001324548291
0.001324755135
0.001325018708
0.001325352232
0.001325771402
0.001326294714
0.001326943809
0.001327743816
0.001328723715
0.001329916685
0.001331360451
0.001333097644
0.001335175978
0.001337649012
0.001340574059
0.001344021277
0.001348049033
0.001352739947
0.001358175472
0.001364441224
0.001371626998
0.001379827026
0.001389138618
0.001399661507
0.001411496841
0.001424746133
0.001439510182
0.001455887939
0.001473975363
0.001493864257
0.001515641102
0.001539385881
0.001565170878
0.001593059432
0.001623104623
0.001655347905
0.001689817566
0.001726527175
0.001765473879
0.001806636648
0.001849974519
0.001895424876
0.001942901981
0.00199229532
0.002043470484
0.002096266588
0.002150495364
0.002205946972
0.002262391581
0.002319582473
0.002377260034
0.002435156557
0.002493001663
0.002550528141
0.002607477927
0.002663607933
0.002718695451
0.002772542855
0.002824981401
0.002875873989
0.002925116815
0.002972639979
0.003018407197
0.003062414732
0.003104689417
0.003145286038
0.003184285262
0.003221789583
0.003257905086
0.003292713952
0.003326370954
0.003359152857
0.003391261803
0.003422905818
0.003454304792
0.003485694989
0.003517333614
0.003549504299
0.003582524143
0.003616752052
0.00365259928
0.003690547548
0.003731178564
0.003775188486
0.003823313535
0.003876173497
0.003934463227
0.00400041969
0.004080874879
0.004188493529
0.004328347688
0.004467936989
0.004551701623
0.001323887264
0.001323887264
0.001323887264
0.001323887264
0.001323887264
0.001323887264
0.001323887264
0.001323887264
0.001323887264
0.001323887264
0.001323887264
0.001323887264
0.001323887264
0.001323887264
0.001323887264
0.001323887264
0.001323887264
0.001323887264
0.001323887264
0.001323887264
0.001323887264
0.001323887264
0.001323887264
0.001323887264
0.001323887264
0.001323887264
0.001323887264
0.001323887264
0.001323887264
0.001323887264
0.001323887264
0.001323887264
0.001323887264
0.001323887264
0.001323887264
0.001323887264
0.001323887264
0.001323887264
0.001323887264
0.001323887264
0.001323887264
0.001323887264
0.001323887264
0.001323887264
0.001323887264
0.001323887264
0.001323887264
0.001323887264
0.001323887264
0.001323887264
0.001323887264
0.001323887265
0.001323887266
0.001323887268
0.001323887272
0.001323887278
0.001323887288
0.001323887305
0.001323887333
0.001323887378
0.001323887451
0.001323887566
0.001323887746
0.001323888023
0.001323888448
0.00132388909
0.001323890049
0.001323891467
0.001323893542
0.001323896548
0.001323900857
0.001323906976
0.001323915581
0.001323927569
0.00132394412
0.001323966767
0.001323997485
0.001324038801
0.00132409391
0.001324166825
0.001324262541
0.001324387222
0.001324548417
0.001324755297
0.001325018916
0.001325352495
0.001325771732
0.001326295126
0.001326944318
0.001327744442
0.001328724477
0.001329917607
0.001331361554
0.001333098953
0.001335177472
0.001337650845
0.001340575554
0.001344024483
0.00134805086
0.001352741675
0.001358176906
0.00136444175
0.00137162655
0.001379825124
0.00138913487
0.001399655486
0.001411488025
0.001424733893
0.001439493776
0.001455866522
0.001473948001
0.00149382994
0.001515598758
0.001539334383
0.00156510905
0.001592986047
0.001623018415
0.001655247563
0.001689701756
0.001726394539
0.001765323055
0.001806466294
0.00184978333
0.001895211613
0.001942665495
0.001992034576
0.002043184569
0.002095954797
0.002150157191
0.002205582105
0.002261999879
0.002319163924
0.002376814708
0.002434684547
0.002492503015
0.002550002777
0.002606925554
0.002663027953
0.002718086859
0.002771904141
0.002824310443
0.002875167938
0.002924371976
0.002971851698
0.003017569753
0.00306152111
0.003103730803
0.003144251499
0.003183163343
0.003220569066
0.003256554204
0.003291200436
0.003324695575
0.003357289065
0.003389172087
0.003420543322
0.003451612119
0.003482601555
0.003513751559
0.003545322758
0.003577601186
0.003610903362
0.00364558203
0.003682036208
0.003720727236
0.00376217888
0.003806908012
0.003855298612
0.003907712785
0.003965349908
0.00403165011
0.004111655796
0.004204165156
0.004290520664
0.004343857061
0.001323887264
0.001323887264
0.001323887264
0.001323887264
0.001323887264
0.001323887264
0.001323887264
0.001323887264
0.001323887264
0.001323887264
0.001323887264
0.001323887264
0.001323887264
0.001323887264
0.001323887264
0.001323887264
0.001323887264
0.001323887264
0.001323887264
0.001323887264
0.001323887264
0.001323887264
0.001323887264
0.001323887264
0.001323887264
0.001323887264
0.001323887264
0.001323887264
0.001323887264
0.001323887264
0.001323887264
0.001323887264
0.001323887264
0.001323887264
0.001323887264
0.001323887264
0.001323887264
0.001323887264
0.001323887264
0.001323887264
0.001323887264
0.001323887264
0.001323887264
0.001323887264
0.001323887264
0.001323887264
0.001323887264
0.001323887264
0.001323887264
0.001323887264
0.001323887264
0.001323887265
0.001323887266
0.001323887268
0.001323887272
0.001323887278
0.001323887288
0.001323887305
0.001323887333
0.001323887378
0.001323887451
0.001323887566
0.001323887746
0.001323888024
0.001323888448
0.00132388909
0.00132389005
0.001323891469
0.001323893544
0.001323896551
0.001323900862
0.001323906982
0.00132391559
0.001323927581
0.001323944137
0.00132396679
0.001323997517
0.001324038843
0.001324093966
0.0013241669
0.001324262639
0.00132438735
0.001324548582
0.001324755508
0.001325019184
0.001325352832
0.001325772152
0.001326295644
0.001326944953
0.001327745211
0.001328725399
0.001329918697
0.001331362823
0.001333100404
0.001335179071
0.001337652634
0.001340577282
0.001344026294
0.00134805279
0.001352743499
0.001358178451
0.001364442714
0.001371626494
0.001379823646
0.001389131523
0.001399649729
0.001411479225
0.001424721308
0.001439476542
0.001455843638
0.001473918315
0.001493792153
0.00151555143
0.001539275944
0.001565037817
0.001592900236
0.001622916186
0.001655126976
0.001689560849
0.001726231332
0.001765135567
0.001806252571
0.001849541475
0.001894939816
0.001942362068
0.001991697987
0.002042813451
0.002095548058
0.002149713999
0.002205101896
0.002261482324
0.002318608885
0.002376222184
0.002434054598
0.002491835672
0.002549297939
0.002606182873
0.00266224671
0.002717265833
0.00277104147
0.002823403482
0.002874213109
0.002923364615
0.002970785909
0.003016438213
0.00306031472
0.003102438077
0.003142858147
0.003181653294
0.003218925474
0.003254735976
0.003289172875
0.003322469193
0.003354817066
0.003386404207
0.003417420238
0.003448061888
0.003478535922
0.003509061153
0.003539870543
0.003571213473
0.003603357531
0.003636589592
0.003671218074
0.003707576401
0.003746012078
0.003786828434
0.003830191317
0.003876165534
0.003925104588
0.003978128808
0.004036331134
0.004096957664
0.00414894067
0.004178301084
0.001323887264
0.001323887264
0.001323887264
0.001323887264
0.001323887264
0.001323887264
0.001323887264
0.001323887264
0.001323887264
0.001323887264
0.001323887264
0.001323887264
0.001323887264
0.001323887264
0.001323887264
0.001323887264
0.001323887264
0.001323887264
0.001323887264
0.001323887264
0.001323887264
0.001323887264
0.001323887264
0.001323887264
0.001323887264
0.001323887264
0.001323887264
0.001323887264
0.001323887264
0.001323887264
0.001323887264
0.001323887264
0.001323887264
0.001323887264
0.001323887264
0.001323887264
0.001323887264
0.001323887264
0.001323887264
0.001323887264
0.001323887264
0.001323887264
0.001323887264
0.001323887264
0.001323887264
0.001323887264
0.001323887264
0.001323887264
0.001323887264
0.001323887264
0.001323887264
0.001323887265
0.001323887266
0.001323887268
0.001323887272
0.001323887278
0.001323887288
0.001323887305
0.001323887333
0.001323887378
0.001323887451
0.001323887566
0.001323887746
0.001323888024
0.001323888449
0.001323889091
0.001323890051
0.00132389147
0.001323893547
0.001323896555
0.001323900867
0.00132390699
0.0013239156
0.001323927596
0.001323944158
0.001323966818
0.001323997556
0.001324038896
0.001324094037
0.001324166993
0.001324262761
0.001324387508
0.001324548787
0.001324755769
0.001325019513
0.001325353245
0.001325772664
0.001326296273
0.001326945717
0.001327746128
0.001328726487
0.001329919966
0.001331364277
0.00133310203
0.001335180867
0.001337654449
0.001340579634
0.001344027361
0.001348054759
0.00135274556
0.001358180199
0.001364443888
0.001371626621
0.001379822351
0.001389128265
0.001399643853
0.001411469959
0.00142470776
0.001439457682
0.001455818287
0.001473885133
0.001493749627
0.001515497867
0.001539209474
0.001564956396
0.001592801663
0.001622798128
0.001654986986
0.001689396388
0.001726039809
0.00176491437
0.001805999106
0.001849253204
0.001894614301
0.001941997015
0.001991291284
0.002042363194
0.002095052676
0.002149172241
0.002204512839
0.002260845343
0.00231792361
0.002375488429
0.002433272278
0.002491004698
0.002548418094
0.00260525367
0.00266126724
0.002716234602
0.002769956228
0.002822261046
0.002873009179
0.002922093599
0.002969440725
0.003015009994
0.003058792307
0.00310080745
0.003141102091
0.003179750161
0.003216843544
0.003252442172
0.003286647793
0.003319688042
0.003351733908
0.003382959877
0.003413543719
0.003443667974
0.00347352115
0.003503298505
0.003533202528
0.003563442977
0.003594235778
0.003625800236
0.003658355157
0.003692113156
0.003727263233
0.003763923162
0.003802069334
0.003841528877
0.003882135807
0.00392388566
0.003966362474
0.004006575529
0.004036867691
0.00404977383
0.001323887264
0.001323887264
0.001323887264
0.001323887264
0.001323887264
0.001323887264
0.001323887264
0.001323887264
0.001323887264
0.001323887264
0.001323887264
0.001323887264
0.001323887264
0.001323887264
0.001323887264
0.001323887264
0.001323887264
0.001323887264
0.001323887264
0.001323887264
0.001323887264
0.001323887264
0.001323887264
0.001323887264
0.001323887264
0.001323887264
0.001323887264
0.001323887264
0.001323887264
0.001323887264
0.001323887264
0.001323887264
0.001323887264
0.001323887264
0.001323887264
0.001323887264
0.001323887264
0.001323887264
0.001323887264
0.001323887264
0.001323887264
0.001323887264
0.001323887264
0.001323887264
0.001323887264
0.001323887264
0.001323887264
0.001323887264
0.001323887264
0.001323887264
0.001323887264
0.001323887265
0.001323887266
0.001323887268
0.001323887272
0.001323887278
0.001323887288
0.001323887305
0.001323887333
0.001323887378
0.001323887451
0.001323887566
0.001323887746
0.001323888024
0.00132388845
0.001323889092
0.001323890052
0.001323891472
0.00132389355
0.001323896559
0.001323900873
0.001323906999
0.001323915613
0.001323927615
0.001323944183
0.001323966853
0.001323997603
0.00132403896
0.001324094122
0.001324167106
0.001324262909
0.0013243877
0.001324549033
0.001324756083
0.001325019909
0.001325353739
0.001325773276
0.001326297022
0.001326946622
0.001327747211
0.001328727763
0.001329921448
0.001331365969
0.001333103909
0.001335182997
0.001337656443
0.001340582957
0.001344028583
0.00134805687
0.001352747868
0.001358182229
0.001364445299
0.001371626984
0.001379821186
0.001389124953
0.001399637636
0.001411459935
0.001424692875
0.00143943672
0.001455789856
0.001473847659
0.001493701343
0.001515436809
0.00153913348
0.001564863098
0.001592688518
0.001622662383
0.001654825769
0.001689206678
0.001725818487
0.001764658264
0.001805705033
0.00184891802
0.001894234953
0.001941570595
0.001990815089
0.002041834744
0.002094469878
0.002148533359
0.00220381652
0.002260090586
0.002317109715
0.002374614928
0.002432338837
0.002490011002
0.002547363698
0.002604137843
0.002660088784
0.002714991661
0.002768646087
0.00282087992
0.002871552007
0.002920553842
0.002967810116
0.003013278104
0.00305694588
0.003098829915
0.003138973528
0.003177444516
0.003214320329
0.003249667979
0.003283607076
0.003316342001
0.003348029805
0.003378831313
0.003408910282
0.003438433318
0.003467569318
0.003496488768
0.003525362681
0.003554360765
0.003583648073
0.003613379529
0.003643692383
0.00367469566
0.003706449973
0.003738926233
0.003771950353
0.003805195618
0.003838296336
0.003870926395
0.003902169394
0.003928704365
0.003944842532
0.003949385208
0.001323887264
0.001323887264
0.001323887264
0.001323887264
0.001323887264
0.001323887264
0.001323887264
0.001323887264
0.001323887264
0.001323887264
0.001323887264
0.001323887264
0.001323887264
0.001323887264
0.001323887264
0.001323887264
0.001323887264
0.001323887264
0.001323887264
0.001323887264
0.001323887264
0.001323887264
0.001323887264
0.001323887264
0.001323887264
0.001323887264
0.001323887264
0.001323887264
0.001323887264
0.001323887264
0.001323887264
0.001323887264
0.001323887264
0.001323887264
0.001323887264
0.001323887264
0.001323887264
0.001323887264
0.001323887264
0.001323887264
0.001323887264
0.001323887264
0.001323887264
0.001323887264
0.001323887264
0.001323887264
0.001323887264
0.001323887264
0.001323887264
0.001323887264
0.001323887264
0.001323887265
0.001323887266
0.001323887268
0.001323887272
0.001323887278
0.001323887288
0.001323887305
0.001323887333
0.001323887378
0.001323887451
0.001323887566
0.001323887746
0.001323888025
0.00132388845
0.001323889093
0.001323890054
0.001323891475
0.001323893554
0.001323896564
0.001323900881
0.00132390701
0.001323915629
0.001323927637
0.001323944213
0.001323966895
0.00132399766
0.001324039036
0.001324094223
0.00132416724
0.001324263084
0.001324387927
0.001324549325
0.001324756454
0.001325020377
0.001325354323
0.001325773996
0.001326297902
0.001326947686
0.001327748482
0.001328729262
0.001329923189
0.001331367961
0.001333106133
0.001335185553
0.001337658852
0.001340587271
0.001344030493
0.001348059371
0.001352750568
0.001358184674
0.001364447078
0.001371627638
0.00137982015
0.001389121521
0.001399630946
0.001411448956
0.001424676393
0.001439413324
0.001455757929
0.001473805367
0.001493646631
0.001515367399
0.001539046868
0.001564756554
0.00159255913
0.001622506995
0.001654641055
0.001688989166
0.001725564577
0.001764364272
0.001805367237
0.001848532716
0.001893798514
0.001941079537
0.001990266134
0.002041224844
0.00209379641
0.00214779409
0.002203009633
0.002259214659
0.002316163667
0.002373597942
0.002431250258
0.002488850203
0.002546129926
0.002602830034
0.002658705361
0.00271353032
0.002767103565
0.002819251761
0.002869832335
0.002918735134
0.002965882883
0.003011230315
0.003054762132
0.003096491011
0.003136457028
0.003174722119
0.003211345345
0.003246400367
0.003280032804
0.00331241556
0.003343690908
0.003374006533
0.003403511703
0.003432356113
0.003460688306
0.003488653801
0.003516392727
0.003544036551
0.003571703229
0.00359949037
0.003627466482
0.003655659255
0.003684034727
0.00371245888
0.003740657015
0.003768241847
0.003794858929
0.003820189603
0.003843109743
0.003860194469
0.003867513132
0.003867610999
0.001323887264
0.001323887264
0.001323887264
0.001323887264
0.001323887264
0.001323887264
0.001323887264
0.001323887264
0.001323887264
0.001323887264
0.001323887264
0.001323887264
0.001323887264
0.001323887264
0.001323887264
0.001323887264
0.001323887264
0.001323887264
0.001323887264
0.001323887264
0.001323887264
0.001323887264
0.001323887264
0.001323887264
0.001323887264
0.001323887264
0.001323887264
0.001323887264
0.001323887264
0.001323887264
0.001323887264
0.001323887264
0.001323887264
0.001323887264
0.001323887264
0.001323887264
0.001323887264
0.001323887264
0.001323887264
0.001323887264
0.001323887264
0.001323887264
0.001323887264
0.001323887264
0.001323887264
0.001323887264
0.001323887264
0.001323887264
0.001323887264
0.001323887264
0.001323887264
0.001323887265
0.001323887266
0.001323887268
0.001323887272
0.001323887278
0.001323887288
0.001323887305
0.001323887333
0.001323887378
0.001323887451
0.001323887567
0.001323887747
0.001323888025
0.001323888451
0.001323889094
0.001323890056
0.001323891478
0.001323893558
0.001323896571
0.00132390089
0.001323907023
0.001323915647
0.001323927662
0.001323944249
0.001323966943
0.001323997726
0.001324039125
0.001324094342
0.001324167396
0.001324263289
0.001324388192
0.001324549665
0.001324756887
0.001325020922
0.001325355003
0.001325774836
0.001326298928
0.001326948927
0.001327749965
0.001328731013
0.001329925229
0.001331370305
0.001333108783
0.00133518855
0.001337662062
0.001340591752
0.001344033441
0.001348062635
0.00135275392
0.001358187707
0.001364449353
0.001371628645
0.001379819255
0.001389117928
0.001399623685
0.001411436865
0.001424658092
0.001439387204
0.001455722141
0.001473757811
0.001493584949
0.001515288974
0.001538948821
0.001564635762
0.001592412225
0.001622330393
0.001654430956
0.001688741598
0.001725275431
0.001764029336
0.00180498225
0.001848093423
0.001893300731
0.001940519215
0.001989639438
0.002040528177
0.002093026628
0.002146948459
0.002202085869
0.002258210903
0.002315078432
0.002372430032
0.002429998656
0.00248751393
0.002544707865
0.002601320731
0.002657106804
0.002711839697
0.00276531701
0.002817364099
0.002867836839
0.002916623261
0.002963643885
0.003008850538
0.003052224043
0.003093772926
0.003133533995
0.003171562821
0.003207898983
0.003242622424
0.003275911208
0.003307894171
0.003338703845
0.003368474908
0.003397341985
0.003425437682
0.003452890326
0.003479821301
0.003506341812
0.0035325487
0.003558518877
0.003584302329
0.003609914068
0.003635323437
0.003660433518
0.003685045449
0.00370883856
0.003731448443
0.003752628858
0.003772081788
0.003788375313
0.003798416736
0.003801307781
0.003799318511
0.001323887264
0.001323887264
0.001323887264
0.001323887264
0.001323887264
0.001323887264
0.001323887264
0.001323887264
0.001323887264
0.001323887264
0.001323887264
0.001323887264
0.001323887264
0.001323887264
0.001323887264
0.001323887264
0.001323887264
0.001323887264
0.001323887264
0.001323887264
0.001323887264
0.001323887264
0.001323887264
0.001323887264
0.001323887264
0.001323887264
0.001323887264
0.001323887264
0.001323887264
0.001323887264
0.001323887264
0.001323887264
0.001323887264
0.001323887264
0.001323887264
0.001323887264
0.001323887264
0.001323887264
0.001323887264
0.001323887264
0.001323887264
0.001323887264
0.001323887264
0.001323887264
0.001323887264
0.001323887264
0.001323887264
0.001323887264
0.001323887264
0.001323887264
0.001323887264
0.001323887265
0.001323887266
0.001323887268
0.001323887272
0.001323887278
0.001323887288
0.001323887305
0.001323887333
0.001323887379
0.001323887451
0.001323887567
0.001323887747
0.001323888026
0.001323888452
0.001323889096
0.001323890058
0.001323891481
0.001323893563
0.001323896578
0.001323900901
0.001323907038
0.001323915668
0.001323927692
0.00132394429
0.001323966999
0.001323997802
0.001324039227
0.001324094478
0.001324167577
0.001324263525
0.001324388498
0.001324550058
0.001324757386
0.001325021551
0.001325355787
0.001325775804
0.001326300113
0.00132695036
0.00132775168
0.001328733043
0.001329927599
0.001331373036
0.001333111908
0.001335191963
0.001337666501
0.001340595606
0.001344037487
0.001348066867
0.00135275808
0.00135819143
0.001364452188
0.001371630031
0.001379818481
0.001389114111
0.001399615745
0.001411423495
0.001424637742
0.001439358061
0.001455682118
0.001473704533
0.001493515748
0.001515200886
0.001538838573
0.001564499845
0.001592246752
0.001622131302
0.001654193936
0.001688462135
0.00172494885
0.001763650853
0.001804547019
0.001847596601
0.001892737544
0.001939885033
0.001988929857
0.002039739032
0.002092154251
0.002145989609
0.002201037785
0.00225707128
0.002313845364
0.002371101929
0.002428574122
0.002485991609
0.002543086255
0.002599597965
0.00265528041
0.002709906328
0.002763272176
0.002815201894
0.002865549677
0.002914201562
0.00296107562
0.003006120464
0.00304931271
0.003090656533
0.003130184772
0.003167936566
0.003203950641
0.003238328868
0.003271228494
0.003302764965
0.003333058454
0.003362230549
0.003390401445
0.003417687212
0.003444196994
0.003470029892
0.003495271293
0.003519988351
0.003544224429
0.003567992913
0.003591270941
0.003613990353
0.003636017576
0.003657123868
0.003676993882
0.003695344005
0.003712038555
0.00372671214
0.003737718026
0.0037427073
0.003742966321
0.003739929853
0.001323887264
0.001323887264
0.001323887264
0.001323887264
0.001323887264
0.001323887264
0.001323887264
0.001323887264
0.001323887264
0.001323887264
0.001323887264
0.001323887264
0.001323887264
0.001323887264
0.001323887264
0.001323887264
0.001323887264
0.001323887264
0.001323887264
0.001323887264
0.001323887264
0.001323887264
0.001323887264
0.001323887264
0.001323887264
0.001323887264