/*--------------------------------*- C++ -*----------------------------------*\
| =========                 |                                                 |
| \\      /  F ield         | OpenFOAM: The Open Source CFD Toolbox           |
|  \\    /   O peration     | Version:  v1612+-hyStrath                       |
|   \\  /    A nd           | Web:      www.OpenFOAM.com                      |
|    \\/     M anipulation  |                                                 |
\*---------------------------------------------------------------------------*/
FoamFile
{
    version     2.0;
    format      ascii;
    class       volScalarField;
    location    "5e-05";
    object      Tt;
}
// * * * * * * * * * * * * * * * * * * * * * * * * * * * * * * * * * * * * * //

dimensions      [0 0 0 1 0 0 0];

internalField   nonuniform List<scalar> 
128136
(
300
300
300
300
300
300
300
300
300
300
300
300
300
300
300
300
300
300
300
300
300
300
300
300
300
300
300
300
300
300
300
300
300
300
300
300
300
300
300
300
300
300
300
300
300
300
300
300
300.0000001
300.0000001
300.0000002
300.0000004
300.0000008
300.0000014
300.0000026
300.0000045
300.0000077
300.0000131
300.0000221
300.0000366
300.0000601
300.0000973
300.0001559
300.0002467
300.000386
300.0005974
300.0009146
300.0013855
300.0020771
300.0030827
300.00453
300.0065928
300.0095047
300.0135768
300.0192196
300.0269691
300.0375194
300.0517608
300.0708249
300.0961384
300.1294834
300.1730683
300.2296066
300.302405
300.3954607
300.513566
300.6624202
300.8487461
301.0804083
301.3665295
301.7176014
302.1455821
302.6639741
303.2878743
304.0339854
304.9205792
305.9674004
307.1955053
308.6270005
310.2846486
312.1915676
314.3705481
316.8435251
319.6308523
322.7505486
326.2175224
330.0428066
334.2328483
338.7888975
343.7065373
348.975393
354.5790469
360.4951742
366.6959008
373.1483698
379.8154893
386.6568256
393.6295967
400.6897204
407.792865
414.8954642
421.9556595
428.9341307
435.7948006
442.5053947
449.0378478
455.3685553
461.4784729
467.3531531
472.9826701
478.3613654
483.4874956
488.3628127
492.9921074
497.3827338
501.5441335
505.4873744
509.2247149
512.7692041
516.1343244
519.3336809
522.3807388
525.2886102
528.0698856
530.7365109
533.2997027
535.7698977
538.1567242
540.4689823
542.7146392
544.900856
547.0340828
549.1202575
551.1645109
553.172935
555.1498727
557.0992876
559.0248475
560.9300145
562.8181284
564.692494
566.556482
568.4136396
570.2678139
572.1233046
573.9851027
575.8592952
577.7536849
579.6786195
581.6481084
583.6819613
585.8117954
588.0945928
590.6367927
593.6599743
300
300
300
300
300
300
300
300
300
300
300
300
300
300
300
300
300
300
300
300
300
300
300
300
300
300
300
300
300
300
300
300
300
300
300
300
300
300
300
300
300
300
300
300
300
300
300
300
300.0000001
300.0000001
300.0000002
300.0000004
300.0000008
300.0000014
300.0000026
300.0000045
300.0000077
300.0000131
300.0000221
300.0000366
300.0000601
300.0000974
300.0001559
300.0002467
300.0003861
300.0005975
300.0009148
300.0013858
300.0020776
300.0030834
300.004531
300.0065943
300.0095068
300.0135798
300.0192238
300.0269749
300.0375274
300.0517717
300.0708397
300.0961582
300.1295098
300.1731031
300.2296521
300.3024642
300.3955369
300.5136635
300.6625439
300.8489019
301.0806029
301.366771
301.7178987
302.1459453
302.6644144
303.2884039
304.0346175
304.9213275
305.968279
307.1965284
308.6281773
310.2859935
312.1930876
314.3722497
316.8454098
319.6329161
322.7527811
326.219906
330.0453157
334.235449
338.7915476
343.7091866
348.9779841
354.5815161
360.4974533
366.6979188
373.1500546
379.8167702
386.6576351
393.6298723
400.6894069
407.7919146
414.8938383
421.953329
428.9310761
435.7910114
442.5008691
449.0325912
455.3625793
461.4717943
467.3457924
472.9746496
478.3527069
483.4782181
488.3529315
492.9816325
497.3716688
501.5324752
505.4751118
509.2118288
512.7556667
516.1200992
519.3187223
522.3649921
525.2720108
528.0523593
530.7179727
533.2800571
535.749038
538.1345308
540.445322
542.689364
544.8737996
547.0050339
549.0888796
551.13068
553.1363811
555.1102669
557.0562481
558.9779298
560.8786964
562.7617877
564.6303814
566.4876811
568.3370126
570.1819226
572.0262976
573.8745449
575.7318948
577.6048289
579.5015477
581.4323664
583.410247
585.4527515
587.5844672
589.8294841
592.1830317
300
300
300
300
300
300
300
300
300
300
300
300
300
300
300
300
300
300
300
300
300
300
300
300
300
300
300
300
300
300
300
300
300
300
300
300
300
300
300
300
300
300
300
300
300
300
300
300
300.0000001
300.0000001
300.0000002
300.0000004
300.0000008
300.0000014
300.0000026
300.0000045
300.0000077
300.0000131
300.0000221
300.0000367
300.0000601
300.0000974
300.000156
300.0002468
300.0003863
300.0005978
300.0009152
300.0013864
300.0020786
300.0030848
300.0045331
300.0065973
300.0095111
300.0135858
300.0192322
300.0269866
300.0375436
300.0517937
300.0708695
300.0961982
300.1295629
300.1731732
300.2297438
300.3025832
300.3956902
300.5138594
300.6627925
300.8492148
301.0809939
301.3672557
301.7184951
302.1466736
302.6652969
303.289465
304.035883
304.9228247
305.9700354
307.1985721
308.6305266
310.2886777
312.1961196
314.3756406
316.849161
319.6370178
322.7572108
326.2246266
330.0502743
334.2405759
338.7967564
343.714375
348.9830352
354.5863009
360.5018334
366.7017504
373.1531925
379.8190714
386.6589636
393.6301019
400.6884271
407.7896287
414.890169
421.9482178
428.9244836
435.7829169
442.4912685
449.0214953
455.3500111
461.4577868
467.3303863
472.9578881
478.3346318
483.4588663
488.3323315
492.9598022
497.3486132
501.5081847
505.4495608
509.1849752
512.727451
516.0904437
519.2875309
522.3321495
525.2373821
528.0157887
530.6792833
533.2390497
535.7054894
538.0881904
540.3959097
542.6365714
544.8172863
546.9443947
549.0233464
551.0600586
553.0600937
555.0276316
556.9664782
558.8801128
560.7717614
562.6444647
564.501145
566.3446758
568.1779478
570.0039269
571.8257109
573.6466135
575.4702959
577.300899
579.1430072
581.0011808
582.8789294
584.7775648
586.6928996
588.6032568
590.4511722
300
300
300
300
300
300
300
300
300
300
300
300
300
300
300
300
300
300
300
300
300
300
300
300
300
300
300
300
300
300
300
300
300
300
300
300
300
300
300
300
300
300
300
300
300
300
300
300
300.0000001
300.0000001
300.0000002
300.0000004
300.0000008
300.0000014
300.0000026
300.0000045
300.0000077
300.0000131
300.0000221
300.0000367
300.0000602
300.0000975
300.0001561
300.000247
300.0003866
300.0005983
300.0009159
300.0013874
300.00208
300.003087
300.0045362
300.0066018
300.0095175
300.0135949
300.0192449
300.0270043
300.0375679
300.0518269
300.0709144
300.0962584
300.129643
300.1732788
300.2298819
300.3027625
300.3959211
300.5141544
300.6631664
300.8496854
301.0815814
301.3679839
301.7193907
302.1477666
302.6666206
303.2910554
304.0377787
304.9250659
305.9726627
307.2016263
308.6340357
310.2926826
312.2006393
314.3806893
316.8547388
319.6431081
322.7637773
326.2316109
330.0575941
334.2481238
338.8043999
343.7219576
348.9903787
354.593209
360.5080965
366.7071508
373.1575102
379.8220911
386.6604797
393.6299258
400.6863904
407.7855874
414.8840068
421.9398471
428.9138458
435.7699809
442.4760284
449.0039672
455.3302291
461.4358003
467.3062546
472.9316747
478.3063975
483.4286638
488.3002009
492.9257667
497.3126764
501.4703278
505.409741
509.1431239
512.6834728
516.0442158
519.238902
522.2809392
525.1833794
527.9587514
530.6189363
533.1750833
535.6375553
538.0158968
540.3188184
542.5542018
544.7291173
546.8499198
548.9211291
550.9500336
552.9412995
554.8990217
556.8268564
558.7280971
560.6057382
562.4625297
564.3010272
566.1236351
567.9326367
569.7302035
571.5183823
573.2990731
575.0739891
576.8445218
578.61133
580.3734023
582.1265063
583.8613607
585.5605935
587.193498
588.7129066
300
300
300
300
300
300
300
300
300
300
300
300
300
300
300
300
300
300
300
300
300
300
300
300
300
300
300
300
300
300
300
300
300
300
300
300
300
300
300
300
300
300
300
300
300
300
300
300
300.0000001
300.0000001
300.0000002
300.0000004
300.0000008
300.0000014
300.0000026
300.0000045
300.0000077
300.0000132
300.0000221
300.0000367
300.0000602
300.0000976
300.0001562
300.0002473
300.0003869
300.0005988
300.0009168
300.0013887
300.002082
300.0030898
300.0045404
300.0066078
300.0095261
300.0136071
300.0192621
300.0270281
300.0376006
300.0518715
300.0709746
300.0963391
300.1297502
300.1734202
300.2300668
300.3030023
300.3962298
300.5145486
300.6636662
300.8503139
301.0823659
301.3689555
301.7205851
302.1492236
302.6683839
303.2931727
304.0403006
304.9280451
305.9761523
307.2056781
308.6386897
310.2979864
312.2066188
314.3873602
316.8620983
319.6511304
322.7724107
326.2407739
330.067173
334.2579716
338.814336
343.7317694
348.999825
354.6020249
360.5159994
366.7138476
373.1627058
379.8254963
386.6618195
393.6289492
400.6828706
407.7793333
414.8748636
421.9276984
428.8986138
435.7516244
442.45454
448.9793683
455.3025652
461.4051361
467.2726679
472.8952477
478.2672084
483.3867795
488.2556706
492.8786171
497.262907
501.417908
505.354607
509.0851772
512.6225786
515.9802019
519.1715576
522.2100139
525.1085819
527.8797475
530.5353476
533.0864833
535.543463
537.9157697
540.2120486
542.4401241
544.6069868
546.7183022
548.7798685
550.7980154
552.7772702
554.7215798
556.6344081
558.5188105
560.3774878
562.2128275
564.0269343
565.821647
567.5985343
569.3588597
571.1035117
572.8329004
574.5468016
576.2440779
577.9221446
579.5760537
581.1972673
582.7725222
584.2828501
585.7032892
587.0047519
300
300
300
300
300
300
300
300
300
300
300
300
300
300
300
300
300
300
300
300
300
300
300
300
300
300
300
300
300
300
300
300
300
300
300
300
300
300
300
300
300
300
300
300
300
300
300
300
300.0000001
300.0000001
300.0000002
300.0000004
300.0000008
300.0000014
300.0000026
300.0000045
300.0000077
300.0000132
300.0000221
300.0000368
300.0000603
300.0000977
300.0001564
300.0002476
300.0003874
300.0005996
300.0009179
300.0013904
300.0020844
300.0030935
300.0045457
300.0066154
300.009537
300.0136225
300.0192836
300.0270579
300.0376416
300.0519274
300.0710503
300.0964404
300.1298848
300.1735976
300.2302988
300.3033031
300.3966167
300.5150426
300.6642919
300.8511005
301.0833472
301.3701704
301.7220776
302.1510429
302.6705844
303.2958131
304.0434432
304.9317546
305.9804934
307.2107119
308.6444695
310.3045638
312.2140252
314.3956115
316.8711867
319.6610198
322.7830316
326.2520195
330.0788963
334.2699835
338.8264057
343.7436264
349.0111635
354.6125094
360.5252728
366.7215408
373.1684475
379.8289233
386.6625855
393.626742
400.6774062
407.7703727
414.8622137
421.9112146
428.8781995
435.7272288
442.426154
448.9470189
455.2663087
461.3650526
467.2288524
472.8478001
478.2162228
483.332335
488.1978239
492.8173956
497.1983037
501.3498771
505.2830611
509.0099843
512.5435609
515.8971339
519.0841652
522.1179726
525.0115154
527.7772261
530.426885
532.9715305
535.4214001
537.7858966
540.0735785
542.2922013
544.4488614
546.5480132
548.5971693
550.6015121
552.5654208
554.4926512
556.3864372
558.249556
560.0843718
561.8928634
563.6766383
565.4369277
567.1745569
568.8898808
570.5826841
572.2520418
573.8961269
575.5119241
577.0947884
578.6378395
580.1313577
581.5625596
582.9160406
584.1751668
585.3243316
300
300
300
300
300
300
300
300
300
300
300
300
300
300
300
300
300
300
300
300
300
300
300
300
300
300
300
300
300
300
300
300
300
300
300
300
300
300
300
300
300
300
300
300
300
300
300
300
300.0000001
300.0000001
300.0000002
300.0000004
300.0000008
300.0000014
300.0000026
300.0000045
300.0000077
300.0000132
300.0000222
300.0000368
300.0000604
300.0000978
300.0001567
300.0002479
300.000388
300.0006004
300.0009192
300.0013924
300.0020874
300.0030978
300.0045521
300.0066246
300.0095501
300.0136411
300.0193095
300.027094
300.0376912
300.0519949
300.0711414
300.0965625
300.1300471
300.1738113
300.230578
300.303665
300.3970822
300.5156365
300.6650439
300.8520453
301.0845252
301.3716278
301.7238669
302.1532226
302.6732188
303.2989717
304.0471996
304.9361846
305.9856728
307.2167098
308.6513519
310.3123848
312.2228201
314.4053948
316.8819441
319.6727024
322.7955501
326.2652398
330.0926354
334.2840083
338.840433
343.7573258
349.0241622
354.6244001
360.535623
366.7299038
373.174375
379.8319775
386.662353
393.6228419
400.6695009
407.7581757
414.8454945
421.8898006
428.8519757
435.6961352
442.3901803
448.9061974
455.2207067
461.3147647
467.1739902
472.7884798
478.1525528
483.2644051
488.1256959
492.7410953
497.117815
501.2651365
505.1939542
508.9163429
512.4451607
515.7936928
518.9753419
522.0033653
524.8906599
527.6495937
530.2918777
532.8284732
535.2695302
537.6243534
539.9013898
542.1082421
544.2516867
546.3368821
548.3707371
550.3581723
552.3033636
554.2098454
556.0805953
557.9180887
559.7243322
561.5008817
563.2488438
564.9688584
566.6610567
568.3249889
569.959524
571.562721
573.1316707
574.6622948
576.1490997
577.5849352
578.9609249
580.2668238
581.4919377
582.6265552
583.6633554
300
300
300
300
300
300
300
300
300
300
300
300
300
300
300
300
300
300
300
300
300
300
300
300
300
300
300
300
300
300
300
300
300
300
300
300
300
300
300
300
300
300
300
300
300
300
300
300
300.0000001
300.0000001
300.0000002
300.0000004
300.0000008
300.0000015
300.0000026
300.0000045
300.0000078
300.0000132
300.0000222
300.0000369
300.0000605
300.000098
300.0001569
300.0002484
300.0003887
300.0006015
300.0009208
300.0013947
300.0020909
300.003103
300.0045596
300.0066354
300.0095655
300.0136628
300.01934
300.0271362
300.0377493
300.0520741
300.0712483
300.0967056
300.130237
300.1740614
300.2309046
300.3040882
300.3976262
300.5163303
300.6659219
300.8531478
301.085899
301.3733265
301.725951
302.1557597
302.6762829
303.3026425
304.0515612
304.9413233
305.9916747
307.2236513
308.6593096
310.3214148
312.2329596
314.416655
316.8943024
319.6860948
322.8098656
326.2803141
330.1082477
334.299879
338.8562242
343.7726449
349.0385679
354.6374114
360.5467305
366.7385826
373.180099
379.8342333
386.6606614
393.6167529
400.6586232
407.7421763
414.8241057
421.8628226
428.8192758
435.6576446
442.3458874
448.8561402
455.1649631
461.2534434
467.1072183
472.7163887
478.0752639
483.1820169
488.0382732
492.6486604
497.0203399
501.1625377
505.0860877
508.803001
512.3260697
515.6685112
518.8436588
521.8646986
524.7444553
527.4952213
530.1286257
532.6555381
535.086006
537.4292229
539.6935143
541.8863237
544.0142116
546.0827509
548.0984064
550.065825
551.9889528
553.8710857
555.7149342
557.5226668
559.2959374
561.0358966
562.7431892
564.4179333
566.0596811
567.6673591
569.2391928
570.7726224
572.264217
573.7095955
575.1033746
576.4392056
577.7100147
578.9085652
580.0283315
581.0645429
582.0147238
300
300
300
300
300
300
300
300
300
300
300
300
300
300
300
300
300
300
300
300
300
300
300
300
300
300
300
300
300
300
300
300
300
300
300
300
300
300
300
300
300
300
300
300
300
300
300
300
300.0000001
300.0000001
300.0000002
300.0000004
300.0000008
300.0000015
300.0000026
300.0000045
300.0000078
300.0000132
300.0000223
300.000037
300.0000606
300.0000982
300.0001573
300.0002489
300.0003894
300.0006027
300.0009226
300.0013975
300.002095
300.0031089
300.0045682
300.0066478
300.0095832
300.0136879
300.019375
300.0271848
300.037816
300.0521649
300.071371
300.0968697
300.1304549
300.1743481
300.2312789
300.3045729
300.3982489
300.5171241
300.6669257
300.8544076
301.0874677
301.3752649
301.7283274
302.1586504
302.6797712
303.3068179
304.0565178
304.9471569
305.9984804
307.2315128
308.6683111
310.3316139
312.2443937
314.4293301
316.908185
319.7011041
322.8258659
326.2971091
330.1255759
334.3174117
338.8735667
343.7893404
349.0541047
354.6512332
360.5582496
366.7471949
373.1852001
379.8352345
386.6570133
393.6079441
400.6442058
407.7217713
414.797409
421.8296077
428.7793929
435.6110162
442.2925016
448.7960403
455.0982377
461.1802146
467.0276281
472.6305824
477.9833742
483.0841493
487.9344939
492.5389858
496.9047284
501.0408829
504.9582136
508.6686583
512.1849331
515.5201774
518.6876448
521.7004411
524.5713084
527.3124527
529.9354091
532.4509419
534.8689829
537.1986062
539.4480212
541.6245376
543.7343496
545.7835805
547.7781739
549.722517
551.6203232
553.4746488
555.2879425
557.062082
558.7983972
560.4976821
562.1601941
563.7856409
565.3731558
566.9212642
568.4278497
569.8901276
571.30464
572.6672859
573.9734094
575.2179892
576.3959888
577.5028949
578.5353651
579.4918232
580.3724258
300
300
300
300
300
300
300
300
300
300
300
300
300
300
300
300
300
300
300
300
300
300
300
300
300
300
300
300
300
300
300
300
300
300
300
300
300
300
300
300
300
300
300
300
300
300
300
300
300.0000001
300.0000001
300.0000002
300.0000004
300.0000008
300.0000015
300.0000026
300.0000045
300.0000078
300.0000133
300.0000223
300.0000371
300.0000608
300.0000984
300.0001576
300.0002494
300.0003903
300.000604
300.0009246
300.0014005
300.0020995
300.0031156
300.004578
300.0066619
300.0096033
300.0137162
300.0194147
300.0272397
300.0378914
300.0522676
300.0715095
300.097055
300.1307007
300.1746714
300.2317008
300.305119
300.3989501
300.5180173
300.6680548
300.8558236
301.0892299
301.3774406
301.7309929
302.16189
302.6836771
303.3114889
304.062057
304.9536691
306.0060676
307.2402675
308.6783203
310.3429372
312.2570659
314.4433502
316.9235066
319.7176267
322.843427
326.3154774
330.1444467
334.3364051
338.8922287
343.8071476
349.0704731
354.6655298
360.5698072
366.7553291
373.1892275
379.8344959
386.6508816
393.5958487
400.6256441
407.6963189
414.7647262
421.7894421
428.7315782
435.5554672
442.2292057
448.7250467
455.0196451
461.0941585
466.9342641
472.5300689
477.8758537
482.969733
487.8132473
492.4109178
496.7697816
500.8989263
504.8090373
508.5119694
512.0203527
515.347239
518.5057928
521.5090297
524.3696001
527.0996133
529.7104988
532.2129038
534.6166328
536.9306335
539.1630134
541.3210753
543.4101003
545.4374891
547.408235
549.3265467
551.1959217
553.0191921
554.7985669
556.535667
558.2315496
559.886725
561.5011642
563.0743009
564.6050296
566.0917053
567.5321535
568.9236998
570.2632311
571.5472998
572.7722847
573.9346286
575.0311773
576.0596005
577.0188428
577.9093425
578.7319374
300
300
300
300
300
300
300
300
300
300
300
300
300
300
300
300
300
300
300
300
300
300
300
300
300
300
300
300
300
300
300
300
300
300
300
300
300
300
300
300
300
300
300
300
300
300
300
300
300.0000001
300.0000001
300.0000002
300.0000004
300.0000008
300.0000015
300.0000026
300.0000045
300.0000078
300.0000133
300.0000224
300.0000372
300.0000609
300.0000987
300.000158
300.0002501
300.0003913
300.0006055
300.0009269
300.001404
300.0021046
300.0031231
300.0045889
300.0066776
300.0096257
300.0137478
300.0194589
300.027301
300.0379756
300.0523821
300.0716639
300.0972616
300.1309745
300.1750315
300.2321704
300.3057264
300.3997295
300.5190097
300.6693083
300.8573947
301.0911835
301.379851
301.7339433
302.1654729
302.6879928
303.3166446
304.0681645
304.9608408
306.014411
307.2498842
308.6892968
310.3553338
312.2709131
314.4586374
316.9401721
319.7355481
322.862412
326.3352573
330.1646709
334.3566396
338.9119577
343.8257794
349.0873492
354.6799389
360.5810014
366.7625432
373.1916961
379.831493
386.6417029
393.5798631
400.6022954
407.665138
414.7253387
421.7415705
428.6750405
435.4901708
442.155138
448.6422629
454.928254
460.9943082
466.8261236
472.4138082
477.7516243
482.83765
487.6733744
492.2632545
496.6142532
500.7353758
504.6372194
508.3315462
511.8308911
515.1482085
518.2965648
521.288877
524.1376943
526.8550199
529.452168
531.9396593
534.327161
536.6234823
538.8365982
540.973277
543.0398196
545.0428019
546.9870165
548.8764907
550.7145303
552.5037699
554.2462159
555.9432825
557.5958221
559.2041502
560.7680669
562.2868771
563.7594142
565.1840727
566.5588556
567.8814473
569.1493162
570.3598543
571.5105554
572.5992386
573.6243225
574.5851132
575.4820738
576.3167504
577.090327
300
300
300
300
300
300
300
300
300
300
300
300
300
300
300
300
300
300
300
300
300
300
300
300
300
300
300
300
300
300
300
300
300
300
300
300
300
300
300
300
300
300
300
300
300
300
300
300
300.0000001
300.0000001
300.0000002
300.0000004
300.0000008
300.0000015
300.0000026
300.0000045
300.0000078
300.0000134
300.0000224
300.0000373
300.0000611
300.000099
300.0001585
300.0002508
300.0003924
300.0006072
300.0009295
300.0014078
300.0021103
300.0031315
300.004601
300.006695
300.0096505
300.0137828
300.0195078
300.0273688
300.0380685
300.0525085
300.0718344
300.0974893
300.1312763
300.1754281
300.2326874
300.3063948
300.4005868
300.5201004
300.6706852
300.859119
301.093326
301.3824922
301.7371736
302.1693919
302.6927088
303.3222726
304.0748234
304.9686499
306.0234828
307.2603268
308.7011948
310.3687466
312.2858645
314.4751051
316.9580765
319.7547419
322.8826708
326.3562717
330.1860419
334.3778764
338.9324804
343.8449251
349.1043837
354.6940708
360.5914011
366.7683634
373.1920975
379.825664
386.6288768
393.5593458
400.5734774
407.6275067
414.6784858
421.6851946
428.6089446
435.4142556
442.0693915
448.5467461
454.8230861
460.8796496
466.7021557
472.2807121
477.6095592
482.6867339
487.5136679
492.0947468
496.4368511
500.548895
504.4413785
508.1259621
511.6150759
514.9215685
518.0583996
521.038379
523.8739468
526.5769915
529.1587046
531.6294758
533.9988269
536.2754178
538.4672603
540.5801762
542.6219294
544.5980533
546.513196
548.3712228
550.1752778
551.9278359
553.6307485
555.285285
556.892171
558.4516243
559.9633915
561.4267875
562.8407429
564.2038621
565.5144989
566.7708539
567.9710944
569.1134977
570.1966118
571.2194363
572.1816218
573.0836747
573.9270635
574.7133962
575.445011
300
300
300
300
300
300
300
300
300
300
300
300
300
300
300
300
300
300
300
300
300
300
300
300
300
300
300
300
300
300
300
300
300
300
300
300
300
300
300
300
300
300
300
300
300
300
300
300
300.0000001
300.0000001
300.0000002
300.0000004
300.0000008
300.0000015
300.0000026
300.0000046
300.0000079
300.0000134
300.0000225
300.0000374
300.0000613
300.0000993
300.000159
300.0002515
300.0003936
300.000609
300.0009323
300.001412
300.0021165
300.0031406
300.0046143
300.0067141
300.0096777
300.0138212
300.0195614
300.027443
300.0381703
300.0526469
300.0720208
300.0977383
300.1316061
300.1758613
300.2332516
300.3071239
300.4015212
300.5212885
300.6721838
300.8609943
301.0956544
301.3853601
301.7406778
302.173639
302.6978142
303.3283581
304.0820146
304.9770711
306.0332525
307.2715542
308.7139635
310.3831121
312.3018419
314.4926577
316.9771043
319.7750699
322.9040392
326.3783279
330.2083351
334.3998566
338.9535009
343.8642502
349.1212007
354.7075072
360.6005445
366.7722826
373.1898833
379.8164157
386.6117653
393.5336157
400.5384673
407.5826614
414.6233643
421.6194723
428.5324105
435.3268046
441.9710124
448.4375067
454.7031154
460.7491202
466.5612612
472.1296439
477.4484834
482.5157708
487.3328739
491.9040999
496.236239
500.3381062
504.2200951
507.893756
511.3714058
514.6657786
517.7897199
520.7559246
523.5767161
526.2638612
528.828425
531.2806666
533.629961
535.8847244
538.0525942
540.1403534
542.1550492
544.1020021
545.9857165
547.8099237
549.5776425
551.2912331
552.9524478
554.5624792
556.1220077
557.6312494
559.0900073
560.4977277
561.8535648
563.1564577
564.40522
565.5986452
566.7356258
567.815279
568.8370751
569.8009707
570.7075388
571.558106
572.3547205
573.0988873
573.7938145
300
300
300
300
300
300
300
300
300
300
300
300
300
300
300
300
300
300
300
300
300
300
300
300
300
300
300
300
300
300
300
300
300
300
300
300
300
300
300
300
300
300
300
300
300
300
300
300
300.0000001
300.0000001
300.0000002
300.0000005
300.0000008
300.0000015
300.0000026
300.0000046
300.0000079
300.0000134
300.0000226
300.0000375
300.0000615
300.0000996
300.0001595
300.0002524
300.0003949
300.000611
300.0009353
300.0014166
300.0021233
300.0031506
300.0046287
300.0067349
300.0097073
300.0138629
300.0196197
300.0275236
300.0382809
300.0527971
300.0722231
300.0980085
300.1319637
300.1763308
300.2338628
300.307913
300.4025319
300.5225726
300.6738023
300.8630182
301.0981649
301.3884494
301.7444489
302.1782047
302.7032961
303.3348844
304.0897163
304.9860758
306.0436848
307.2835207
308.7275461
310.3983599
312.3187588
314.5111902
316.9971288
319.7963808
322.9263385
326.4012164
330.2313078
334.422301
338.974701
343.8833948
349.1373976
354.7198008
360.6079381
366.773764
373.1844601
379.8031172
386.589692
393.5019523
400.4965011
407.529796
414.5591271
421.5435168
428.4445127
435.2268545
441.8590003
448.3135071
454.5672679
460.6016096
466.4022926
471.9594187
477.2671743
482.3234996
487.1296927
491.6899754
496.0110397
500.1015934
503.9719157
507.6334381
511.0983563
514.3792827
517.4889411
520.4399052
523.2443747
525.91399
528.4596874
530.8916046
533.2190132
535.4500712
537.5918538
539.6524696
541.6379979
543.5536429
545.4037937
547.1920822
548.9214433
550.5941728
552.211983
553.776059
555.2871152
556.7454542
558.15103
559.5035161
560.8023828
562.046981
563.2366366
564.3707511
565.448906
566.4709625
567.4371542
568.3481797
569.2053091
570.0104568
570.765422
571.4726286
572.1350191
300
300
300
300
300
300
300
300
300
300
300
300
300
300
300
300
300
300
300
300
300
300
300
300
300
300
300
300
300
300
300
300
300
300
300
300
300
300
300
300
300
300
300
300
300
300
300
300
300.0000001
300.0000001
300.0000002
300.0000005
300.0000008
300.0000015
300.0000026
300.0000046
300.0000079
300.0000135
300.0000227
300.0000377
300.0000617
300.0001
300.0001601
300.0002533
300.0003963
300.0006132
300.0009386
300.0014215
300.0021306
300.0031613
300.0046444
300.0067574
300.0097394
300.0139081
300.0196828
300.0276108
300.0384003
300.0529593
300.0724414
300.0982997
300.132349
300.1768362
300.2345204
300.3087615
300.4036178
300.5239513
300.6755385
300.8651873
301.1008531
301.3917541
301.7484786
302.1830779
302.7091402
303.3418325
304.0979035
304.9956338
306.0547393
307.2961759
308.7418798
310.4144126
312.3365205
314.5305875
317.0180118
319.8185103
322.9493748
326.4247109
330.2546977
334.4449088
338.9957387
343.9019738
349.1525435
354.7304739
360.6130557
366.7722406
373.1752083
379.7850997
386.5619413
393.4635939
400.4467726
407.4680609
414.4848827
421.4563959
428.3442795
435.1133947
441.732307
448.1736621
454.4144214
460.4359586
466.2240543
471.7688041
477.0643625
482.1086141
486.9027812
491.4509935
495.7598378
499.8379067
503.6953574
507.343495
510.7943869
514.0605168
517.154481
520.0887256
522.8753223
525.5257812
528.0509072
530.4607191
532.764493
534.9692132
537.0838524
539.1153901
541.069808
542.9522146
544.7669178
546.5174886
548.2068229
549.8372034
551.410362
552.927542
554.3895636
555.7968907
557.1497025
558.4479694
559.691534
560.8801962
562.0138016
563.092331
564.1159831
565.0852464
566.0009634
566.8643949
567.6773082
568.4418308
569.1597456
569.8339573
570.4671662
300
300
300
300
300
300
300
300
300
300
300
300
300
300
300
300
300
300
300
300
300
300
300
300
300
300
300
300
300
300
300
300
300
300
300
300
300
300
300
300
300
300
300
300
300
300
300
300
300.0000001
300.0000001
300.0000002
300.0000005
300.0000008
300.0000015
300.0000026
300.0000046
300.000008
300.0000135
300.0000228
300.0000378
300.000062
300.0001004
300.0001607
300.0002543
300.0003979
300.0006156
300.0009422
300.0014269
300.0021386
300.0031729
300.0046612
300.0067817
300.0097738
300.0139566
300.0197505
300.0277044
300.0385285
300.0531333
300.0726754
300.0986119
300.1327617
300.1773772
300.2352237
300.3096684
300.4047776
300.5254225
300.6773898
300.8674979
301.1037138
301.3952673
301.7527576
302.1882463
302.7153301
303.3491812
304.1065482
305.0057109
306.0663711
307.3094641
308.7568956
310.4311852
312.3550232
314.5507243
317.0396032
319.8412803
322.9729387
326.4485672
330.278223
334.4673574
339.016248
343.9195752
349.1661792
354.7390182
360.6153395
366.767101
373.161471
379.7616563
386.5277578
393.4177379
400.3884332
407.396563
414.3996948
421.3571316
428.2306923
434.9853676
441.5898364
448.016838
454.2434053
460.2509602
466.0253028
471.5565209
476.8387331
481.869764
486.6507548
491.1857364
495.4811836
499.5455667
503.3889138
507.0223968
510.4579484
513.7079181
516.7847692
519.7008162
522.4679994
525.0976981
527.6005816
529.9864899
532.2643478
534.4418126
536.5274977
538.5281765
540.4497314
542.297201
544.0748474
545.7862203
547.4342218
549.0211726
550.5488792
552.0187024
553.431628
554.7883401
556.0892963
557.3348063
558.5251108
559.6604622
560.7412023
561.7678351
562.7410877
563.6619573
564.5317558
565.3521766
566.1253429
566.8530793
567.5378554
568.1823214
568.789081
300
300
300
300
300
300
300
300
300
300
300
300
300
300
300
300
300
300
300
300
300
300
300
300
300
300
300
300
300
300
300
300
300
300
300
300
300
300
300
300
300
300
300
300
300
300
300
300
300.0000001
300.0000001
300.0000002
300.0000005
300.0000008
300.0000015
300.0000026
300.0000046
300.000008
300.0000136
300.0000229
300.000038
300.0000622
300.0001008
300.0001614
300.0002554
300.0003995
300.0006181
300.000946
300.0014326
300.0021471
300.0031854
300.0046793
300.0068076
300.0098107
300.0140085
300.0198229
300.0278044
300.0386654
300.053319
300.0729252
300.0989447
300.1332015
300.1779533
300.2359721
300.3106326
300.4060097
300.5269841
300.6793528
300.8699457
301.1067413
301.3989809
301.7572752
302.1936957
302.7218474
303.3569063
304.1156212
305.0162679
306.0785314
307.3233243
308.7725178
310.4485848
312.374154
314.5714646
317.0617408
319.8644984
322.9968047
326.4725233
330.3015816
334.4893019
339.0358385
343.9357608
349.1778165
354.7448932
360.6142089
366.7576979
373.1425537
379.7320413
386.4863457
393.3635397
400.3205909
407.3143645
414.3025816
421.2446995
428.1026859
434.8416681
441.4304447
447.8418534
454.0530015
460.0453601
465.8047484
471.3212443
476.5889276
481.6055582
486.3721907
490.8927517
495.1735975
499.2230695
503.0510606
506.6686036
510.0874912
513.319934
516.3782585
519.2746445
522.0209006
524.6282803
527.1073376
529.4677797
531.7181506
533.8667611
535.9218613
537.8900846
539.77724
541.5883272
543.3275981
544.9986209
546.6043479
548.1471845
549.6290608
551.0515041
552.4157132
553.7226333
554.9730331
556.1675797
557.3069134
558.3917185
559.4227887
560.401082
561.327761
562.2042242
563.032145
563.8135421
564.5505411
565.245062
565.8997936
566.5172107
567.0997922
300
300
300
300
300
300
300
300
300
300
300
300
300
300
300
300
300
300
300
300
300
300
300
300
300
300
300
300
300
300
300
300
300
300
300
300
300
300
300
300
300
300
300