/*--------------------------------*- C++ -*----------------------------------*\
| =========                 |                                                 |
| \\      /  F ield         | OpenFOAM: The Open Source CFD Toolbox           |
|  \\    /   O peration     | Version:  v1612+-hyStrath                       |
|   \\  /    A nd           | Web:      www.OpenFOAM.com                      |
|    \\/     M anipulation  |                                                 |
\*---------------------------------------------------------------------------*/
FoamFile
{
    version     2.0;
    format      ascii;
    class       volVectorField;
    location    "5e-05";
    object      U;
}
// * * * * * * * * * * * * * * * * * * * * * * * * * * * * * * * * * * * * * //

dimensions      [0 1 -1 0 0 0 0];

internalField   nonuniform List<vector> 
128136
(
(694.5499442 2.805624946e-14 0)
(694.5499442 4.527167539e-15 0)
(694.5499442 7.140878222e-15 0)
(694.5499442 -4.835332379e-15 0)
(694.5499442 -4.309206134e-14 0)
(694.5499442 -7.565315348e-14 0)
(694.5499442 -8.565395849e-15 0)
(694.5499442 -3.98067141e-14 0)
(694.5499442 -7.493402076e-16 0)
(694.5499442 -4.268064959e-14 0)
(694.5499442 -1.643418372e-14 0)
(694.5499442 6.602445953e-14 0)
(694.5499442 9.355676817e-14 0)
(694.5499442 8.40317704e-14 0)
(694.5499442 6.851887019e-14 0)
(694.5499442 1.391282442e-14 0)
(694.5499442 1.410478469e-15 0)
(694.5499442 2.66920457e-14 0)
(694.5499442 1.99936448e-14 0)
(694.5499442 2.913050959e-14 0)
(694.5499442 2.695589435e-14 0)
(694.5499442 -8.394179875e-15 0)
(694.5499442 -4.980865052e-14 0)
(694.5499442 -2.979486423e-14 0)
(694.5499442 3.244538298e-14 0)
(694.5499442 2.815029735e-14 0)
(694.5499442 -3.030193432e-15 0)
(694.5499442 8.75303785e-15 0)
(694.5499442 -2.007297155e-14 0)
(694.5499442 -6.496957837e-14 0)
(694.5499442 -4.899597917e-14 0)
(694.5499442 -2.142792641e-14 0)
(694.5499442 -2.946681835e-14 0)
(694.5499442 2.905975278e-15 0)
(694.5499442 3.630388335e-15 0)
(694.5499442 1.482291647e-14 0)
(694.5499442 -2.491349351e-14 0)
(694.5499442 -1.186252751e-13 0)
(694.5499442 -2.682958568e-13 0)
(694.5499442 -4.652937205e-13 0)
(694.5499442 -7.412402839e-13 0)
(694.5499442 -1.352066658e-12 0)
(694.5499442 -2.59684136e-12 0)
(694.5499442 -5.176810622e-12 0)
(694.5499442 -1.037230949e-11 0)
(694.5499442 -2.070481306e-11 0)
(694.5499442 -4.079359368e-11 0)
(694.5499441 -7.91079356e-11 0)
(694.5499441 -1.510206339e-10 0)
(694.549944 -2.839103628e-10 0)
(694.5499439 -5.25530598e-10 0)
(694.5499436 -9.580701827e-10 0)
(694.549943 -1.720732134e-09 0)
(694.5499421 -3.045399797e-09 0)
(694.5499405 -5.312566361e-09 0)
(694.5499378 -9.136848776e-09 0)
(694.5499331 -1.549633648e-08 0)
(694.5499254 -2.59242792e-08 0)
(694.5499126 -4.278912717e-08 0)
(694.5498919 -6.969651811e-08 0)
(694.5498585 -1.120573168e-07 0)
(694.5498055 -1.778768503e-07 0)
(694.5497225 -2.788338472e-07 0)
(694.5495937 -4.317306029e-07 0)
(694.5493962 -6.604094699e-07 0)
(694.549097 -9.982424683e-07 0)
(694.5486484 -1.491307898e-06 0)
(694.5479832 -2.202369007e-06 0)
(694.5470068 -3.21576105e-06 0)
(694.5455884 -4.643268994e-06 0)
(694.5435485 -6.631036805e-06 0)
(694.5406431 -9.367480508e-06 0)
(694.5365446 -1.309208298e-05 0)
(694.5308166 -1.810480827e-05 0)
(694.5228839 -2.477570613e-05 0)
(694.5119953 -3.3554033e-05 0)
(694.4971787 -4.497596415e-05 0)
(694.4771874 -5.966957811e-05 0)
(694.4504367 -7.835548113e-05 0)
(694.4149294 -0.0001018408119 0)
(694.3681701 -0.0001310041142 0)
(694.3070661 -0.0001667674805 0)
(694.2278161 -0.0002100526186 0)
(694.1257852 -0.0002617152351 0)
(693.9953671 -0.0003224543421 0)
(693.8298333 -0.0003926871701 0)
(693.6211724 -0.0004723891275 0)
(693.3599187 -0.0005608796391 0)
(693.0349769 -0.000656561191 0)
(692.6334435 -0.000756562631 0)
(692.140432 -0.0008563315486 0)
(691.5389072 -0.0009492619609 0)
(690.8095391 -0.001026363925 0)
(689.9305826 -0.00107570223 0)
(688.8778011 -0.001081669414 0)
(687.624445 -0.001023144101 0)
(686.141262 -0.0008722309428 0)
(684.3967214 -0.0006008093549 0)
(682.3567361 -0.0001636262931 0)
(679.9865839 0.0004453189422 0)
(677.2495135 0.001327006431 0)
(674.1076068 0.002525185352 0)
(670.5233068 0.004101775746 0)
(666.4597918 0.006127556527 0)
(661.8818993 0.008679516102 0)
(656.7571148 0.01183902262 0)
(651.0565952 0.01568994551 0)
(644.7561857 0.02031664583 0)
(637.8373827 0.02580177825 0)
(630.2881965 0.03222397378 0)
(622.1038681 0.03965552615 0)
(613.2874002 0.04816021961 0)
(603.8498754 0.05779142155 0)
(593.8105429 0.06859053745 0)
(583.1966712 0.08058590247 0)
(572.0431739 0.09379218688 0)
(560.3920296 0.1082103049 0)
(548.2915237 0.1238277598 0)
(535.7953446 0.1406194121 0)
(522.9615724 0.1585486639 0)
(509.8515946 0.1775688849 0)
(496.5289842 0.1976250446 0)
(483.0583727 0.2186555247 0)
(469.5043426 0.2405939631 0)
(455.9303651 0.2633711164 0)
(442.3978121 0.2869165649 0)
(428.9650568 0.3111605984 0)
(415.6867522 0.3360354984 0)
(402.6129633 0.3614782811 0)
(389.788336 0.3874332939 0)
(377.2516705 0.413852896 0)
(365.0356326 0.4406982274 0)
(353.1666275 0.4679397557 0)
(341.6648118 0.495557625 0)
(330.5442323 0.52354181 0)
(319.8130834 0.5518920894 0)
(309.4740688 0.5806178618 0)
(299.5248505 0.6097378386 0)
(289.9585674 0.639279653 0)
(280.7644012 0.6692794267 0)
(271.9281696 0.6997813302 0)
(263.4329243 0.7308371523 0)
(255.2595356 0.7625058626 0)
(247.3872461 0.7948531388 0)
(239.7941787 0.8279509391 0)
(232.4577857 0.8618772978 0)
(225.3552369 0.8967160559 0)
(218.463781 0.9325556077 0)
(211.761121 0.9694875664 0)
(205.2257837 1.007610417 0)
(198.8373359 1.04704072 0)
(192.5762801 1.087902424 0)
(186.4231519 1.130214999 0)
(180.3619445 1.174151861 0)
(174.3669402 1.220105781 0)
(168.4208333 1.268269299 0)
(162.5067354 1.318873416 0)
(156.6082011 1.372195796 0)
(150.708911 1.428568619 0)
(144.7924039 1.488390334 0)
(138.8417655 1.552142744 0)
(132.8392381 1.6204152 0)
(126.7657558 1.693938798 0)
(120.6004741 1.773633031 0)
(114.3203702 1.860665047 0)
(107.8996985 1.956523072 0)
(101.3082963 2.063124573 0)
(94.50685411 2.183026682 0)
(87.43812264 2.319868953 0)
(80.01865211 2.479222082 0)
(72.1446186 2.670149109 0)
(63.72864684 2.909254674 0)
(54.767306 3.239007681 0)
(45.22238362 3.829165146 0)
(34.18699743 5.559777674 0)
(694.5499442 8.454342493e-14 0)
(694.5499442 1.443907952e-14 0)
(694.5499442 2.30927951e-14 0)
(694.5499442 -1.344140978e-14 0)
(694.5499442 -1.318120382e-13 0)
(694.5499442 -2.278031419e-13 0)
(694.5499442 -2.528248081e-14 0)
(694.5499442 -1.200284252e-13 0)
(694.5499442 -2.136027141e-15 0)
(694.5499442 -1.270062105e-13 0)
(694.5499442 -5.095804777e-14 0)
(694.5499442 1.968713447e-13 0)
(694.5499442 2.830121628e-13 0)
(694.5499442 2.535894161e-13 0)
(694.5499442 2.078954395e-13 0)
(694.5499442 4.246891725e-14 0)
(694.5499442 5.032239072e-15 0)
(694.5499442 7.973743329e-14 0)
(694.5499442 6.393016426e-14 0)
(694.5499442 8.851401974e-14 0)
(694.5499442 8.106072832e-14 0)
(694.5499442 -2.497088012e-14 0)
(694.5499442 -1.504946633e-13 0)
(694.5499442 -9.205692928e-14 0)
(694.5499442 9.682491254e-14 0)
(694.5499442 8.372002003e-14 0)
(694.5499442 -9.329337711e-15 0)
(694.5499442 2.875959656e-14 0)
(694.5499442 -6.0311895e-14 0)
(694.5499442 -1.935701149e-13 0)
(694.5499442 -1.472803898e-13 0)
(694.5499442 -6.494562298e-14 0)
(694.5499442 -8.905982935e-14 0)
(694.5499442 7.775739331e-15 0)
(694.5499442 1.160292979e-14 0)
(694.5499442 4.551798617e-14 0)
(694.5499442 -7.629504269e-14 0)
(694.5499442 -3.583080313e-13 0)
(694.5499442 -8.11802291e-13 0)
(694.5499442 -1.40751485e-12 0)
(694.5499442 -2.239802784e-12 0)
(694.5499442 -4.096892816e-12 0)
(694.5499442 -7.860810769e-12 0)
(694.5499442 -1.567379986e-11 0)
(694.5499442 -3.141303995e-11 0)
(694.5499442 -6.269320943e-11 0)
(694.5499442 -1.235207539e-10 0)
(694.5499441 -2.395360962e-10 0)
(694.5499441 -4.572823429e-10 0)
(694.549944 -8.596573452e-10 0)
(694.5499439 -1.591249698e-09 0)
(694.5499436 -2.90091566e-09 0)
(694.549943 -5.210116595e-09 0)
(694.5499421 -9.220926762e-09 0)
(694.5499405 -1.60853567e-08 0)
(694.5499378 -2.766423532e-08 0)
(694.5499331 -4.691881973e-08 0)
(694.5499254 -7.849106606e-08 0)
(694.5499126 -1.295514397e-07 0)
(694.5498919 -2.11015796e-07 0)
(694.5498585 -3.392648924e-07 0)
(694.5498055 -5.385334389e-07 0)
(694.5497224 -8.441760043e-07 0)
(694.5495936 -1.30705633e-06 0)
(694.5493961 -1.999348007e-06 0)
(694.5490968 -3.022069331e-06 0)
(694.5486481 -4.514696876e-06 0)
(694.5479827 -6.667205588e-06 0)
(694.547006 -9.734856668e-06 0)
(694.5455873 -1.405598136e-05 0)
(694.5435468 -2.007288345e-05 0)
(694.5406407 -2.835577504e-05 0)
(694.5365411 -3.962937412e-05 0)
(694.5308116 -5.480136807e-05 0)
(694.5228769 -7.499144093e-05 0)
(694.5119856 -0.0001015588214 0)
(694.4971653 -0.0001361255463 0)
(694.4771691 -0.0001805914439 0)
(694.4504118 -0.000237135889 0)
(694.414896 -0.0003081994846 0)
(694.3681256 -0.0003964380597 0)
(694.3070071 -0.0005046380838 0)
(694.2277386 -0.0006355833644 0)
(694.1256843 -0.0007918560385 0)
(693.9952366 -0.0009755616005 0)
(693.8296659 -0.001187949713 0)
(693.620959 -0.001428929193 0)
(693.359649 -0.001696418962 0)
(693.0346384 -0.001985557439 0)
(692.6330218 -0.002287621506 0)
(692.1399103 -0.002588791692 0)
(691.5382666 -0.002869025948 0)
(690.8087585 -0.003101061068 0)
(689.9296383 -0.003248703016 0)
(688.8766673 -0.003264595693 0)
(687.623094 -0.003084709682 0)
(686.139664 -0.002624661673 0)
(684.3948501 -0.001799642054 0)
(682.3545551 -0.0004724295056 0)
(679.9840839 0.001372742364 0)
(677.246634 0.004042641645 0)
(674.1043366 0.007675037092 0)
(670.5196341 0.01245609862 0)
(666.4557085 0.01859868918 0)
(661.877408 0.02633579519 0)
(656.7522295 0.03591328121 0)
(651.0513427 0.04758471437 0)
(644.7506073 0.0616053456 0)
(637.8315354 0.07822535708 0)
(630.2821539 0.09768277872 0)
(622.0977201 0.1201964539 0)
(613.2812528 0.1459594545 0)
(603.8438492 0.1751333058 0)
(593.8047714 0.2078433079 0)
(583.1912982 0.2441752042 0)
(572.038351 0.2841733913 0)
(560.3879127 0.3278406321 0)
(548.2882698 0.3751392121 0)
(535.7931086 0.4259925214 0)
(522.9605035 0.4802905544 0)
(509.8518338 0.5378918645 0)
(496.5306616 0.598629972 0)
(483.0616053 0.6623184383 0)
(469.509233 0.7287564612 0)
(455.9370007 0.7977345085 0)
(442.4062646 0.869039477 0)
(428.975383 0.9424604248 0)
(415.6989928 1.017792465 0)
(402.6271441 1.094845 0)
(389.8044711 1.173449507 0)
(377.269767 1.253461638 0)
(365.0556948 1.334763575 0)
(353.1886611 1.417265689 0)
(341.688828 1.500907601 0)
(330.5702519 1.585658654 0)
(319.8411408 1.671517833 0)
(309.5042155 1.758513219 0)
(299.5571591 1.846701051 0)
(289.9931346 1.936164553 0)
(280.8013516 2.027012605 0)
(271.9676588 2.119378417 0)
(263.4751424 2.213418203 0)
(255.304711 2.30930985 0)
(247.4356497 2.407251506 0)
(239.8461272 2.507460365 0)
(232.5136443 2.610172032 0)
(225.4154233 2.71563929 0)
(218.5287727 2.824127721 0)
(211.831466 2.93591131 0)
(205.3021101 3.051283589 0)
(198.9203786 3.170595138 0)
(192.6669687 3.294219414 0)
(186.5233321 3.422200692 0)
(180.4720739 3.55510378 0)
(174.4882824 3.694076617 0)
(168.554991 3.83968644 0)
(162.6556318 3.992624663 0)
(156.7741287 4.153717549 0)
(150.894623 4.323949543 0)
(145.0012423 4.504497361 0)
(139.0778351 4.696778767 0)
(133.1076494 4.902520881 0)
(127.0729716 5.123854071 0)
(120.954807 5.363434223 0)
(114.7326948 5.624590136 0)
(108.3844918 5.91150013 0)
(101.8852922 6.229453229 0)
(95.20393214 6.585368784 0)
(88.29661686 6.988894195 0)
(81.10315194 7.454361895 0)
(73.56119825 8.003240475 0)
(65.66064414 8.664767185 0)
(57.55275942 9.465277183 0)
(49.5560484 10.37146342 0)
(41.74218809 11.12398508 0)
(694.5499442 1.443281792e-13 0)
(694.5499442 2.60267789e-14 0)
(694.5499442 3.895055365e-14 0)
(694.5499442 -1.878682006e-14 0)
(694.5499442 -2.194070337e-13 0)
(694.5499442 -3.828235996e-13 0)
(694.5499442 -4.249423163e-14 0)
(694.5499442 -2.039808416e-13 0)
(694.5499442 -3.008128105e-15 0)
(694.5499442 -2.077962485e-13 0)
(694.5499442 -8.461964171e-14 0)
(694.5499442 3.297908492e-13 0)
(694.5499442 4.781768737e-13 0)
(694.5499442 4.258702621e-13 0)
(694.5499442 3.498942415e-13 0)
(694.5499442 7.197833737e-14 0)
(694.5499442 1.07540505e-14 0)
(694.5499442 1.353682653e-13 0)
(694.5499442 1.140342533e-13 0)
(694.5499442 1.456451422e-13 0)
(694.5499442 1.34880407e-13 0)
(694.5499442 -4.106606233e-14 0)
(694.5499442 -2.520412777e-13 0)
(694.5499442 -1.551018396e-13 0)
(694.5499442 1.624640815e-13 0)
(694.5499442 1.384931524e-13 0)
(694.5499442 -1.386461715e-14 0)
(694.5499442 4.994006922e-14 0)
(694.5499442 -9.776652464e-14 0)
(694.5499442 -3.23718054e-13 0)
(694.5499442 -2.507784302e-13 0)
(694.5499442 -1.072419856e-13 0)
(694.5499442 -1.524865798e-13 0)
(694.5499442 9.528291018e-15 0)
(694.5499442 1.881629725e-14 0)
(694.5499442 8.066637644e-14 0)
(694.5499442 -1.328885506e-13 0)
(694.5499442 -6.085325842e-13 0)
(694.5499442 -1.371186356e-12 0)
(694.5499442 -2.376019885e-12 0)
(694.5499442 -3.781250678e-12 0)
(694.5499442 -6.916539092e-12 0)
(694.5499442 -1.326789754e-11 0)
(694.5499442 -2.644775631e-11 0)
(694.5499442 -5.30223724e-11 0)
(694.5499442 -1.058111479e-10 0)
(694.5499442 -2.084692661e-10 0)
(694.5499441 -4.042535446e-10 0)
(694.5499441 -7.717195575e-10 0)
(694.549944 -1.450750567e-09 0)
(694.5499439 -2.685333239e-09 0)
(694.5499436 -4.895393347e-09 0)
(694.549943 -8.792084462e-09 0)
(694.5499421 -1.556002525e-08 0)
(694.5499405 -2.714299939e-08 0)
(694.5499378 -4.668063418e-08 0)
(694.5499331 -7.916909485e-08 0)
(694.5499254 -1.324399337e-07 0)
(694.5499126 -2.185901763e-07 0)
(694.5498918 -3.560348871e-07 0)
(694.5498584 -5.7240735e-07 0)
(694.5498054 -9.085882322e-07 0)
(694.5497223 -1.424213197e-06 0)
(694.5495934 -2.205074402e-06 0)
(694.5493958 -3.372901053e-06 0)
(694.5490963 -5.098062565e-06 0)
(694.5486474 -7.615774384e-06 0)
(694.5479816 -1.124639129e-05 0)
(694.5470044 -1.642032799e-05 0)
(694.5455849 -2.370802225e-05 0)
(694.5435434 -3.385514392e-05 0)
(694.5406358 -4.782290051e-05 0)
(694.5365341 -6.683280654e-05 0)
(694.5308017 -9.241456593e-05 0)
(694.522863 -0.0001264548618 0)
(694.5119661 -0.0001712435954 0)
(694.4971384 -0.0002295128297 0)
(694.4771323 -0.0003044616801 0)
(694.450362 -0.0003997587919 0)
(694.414829 -0.0005195108322 0)
(694.3680361 -0.0006681841464 0)
(694.3068888 -0.0008504611556 0)
(694.2275833 -0.001071014406 0)
(694.1254819 -0.001334169535 0)
(693.994975 -0.001643439933 0)
(693.8293303 -0.00200088521 0)
(693.6205317 -0.002406291144 0)
(693.3591089 -0.002856072098 0)
(693.0339607 -0.003341935174 0)
(692.6321777 -0.003849051943 0)
(692.1388666 -0.004353971167 0)
(691.5369856 -0.004822719223 0)
(690.8071979 -0.005209116056 0)
(689.9277511 -0.00545184878 0)
(688.8744023 -0.00547071017 0)
(687.620396 -0.005157244737 0)
(686.1364741 -0.004369181369 0)
(684.3911151 -0.002961874857 0)
(682.3501997 -0.0007155006653 0)
(679.9790937 0.002415823113 0)
(677.240913 0.006938987714 0)
(674.097855 0.01308349276 0)
(670.5123656 0.0211659513 0)
(666.4476367 0.03154988051 0)
(661.8685371 0.04462897058 0)
(656.742587 0.06081834705 0)
(651.0409839 0.08054581424 0)
(644.7396175 0.1042416943 0)
(637.8200323 0.1323275394 0)
(630.2702884 0.1652043123 0)
(622.0856763 0.2032406229 0)
(613.2692466 0.2467616861 0)
(603.8321257 0.2960395995 0)
(593.793601 0.3512854555 0)
(583.180972 0.4126437359 0)
(572.0291747 0.4801892778 0)
(560.3802007 0.5539267505 0)
(548.2823384 0.63379277 0)
(535.7892693 0.719657647 0)
(522.9590569 0.8113366378 0)
(509.8530634 0.9085911569 0)
(496.5348291 1.01114061 0)
(483.0689465 1.118670742 0)
(469.5199545 1.230843045 0)
(455.9512788 1.347304245 0)
(442.4242451 1.467694992 0)
(428.9971815 1.591659589 0)
(415.7246937 1.718852575 0)
(402.6568027 1.848952387 0)
(389.8381207 1.981674345 0)
(377.3074277 2.116774298 0)
(365.097382 2.254052654 0)
(353.2343938 2.393357189 0)
(341.738637 2.534584847 0)
(330.6241884 2.677682535 0)
(319.899284 2.822647007 0)
(309.5666805 2.969523931 0)
(299.6241039 3.118406325 0)
(290.0647675 3.269432538 0)
(280.8779378 3.422784012 0)
(272.049527 3.578682974 0)
(263.5626925 3.737390167 0)
(255.3984217 3.899202555 0)
(247.5360864 4.064451022 0)
(239.9539498 4.233498497 0)
(232.6296132 4.406738562 0)
(225.5404112 4.584592245 0)
(218.6637835 4.767499583 0)
(211.9776509 4.955911929 0)
(205.46078 5.150310639 0)
(199.0930215 5.351276157 0)
(192.8552848 5.559367638 0)
(186.7316447 5.774628594 0)
(180.700866 5.99822477 0)
(174.7402824 6.231889115 0)
(168.8335193 6.476505513 0)
(162.9646399 6.733198284 0)
(157.118309 7.003294122 0)
(151.2795955 7.288357331 0)
(145.4338065 7.590239306 0)
(139.5663102 7.911146567 0)
(133.6623428 8.253732293 0)
(127.7068356 8.621215469 0)
(121.6843612 9.017523511 0)
(115.5793127 9.447441438 0)
(109.3762414 9.916751293 0)
(103.0597674 10.43239649 0)
(96.61301368 11.0028432 0)
(90.01478912 11.63896203 0)
(83.24156214 12.35542893 0)
(76.28943192 13.17065106 0)
(69.23542613 14.09725382 0)
(62.33780943 15.09920162 0)
(56.00914703 15.98382668 0)
(50.43197831 16.32344459 0)
(694.5499442 2.023107878e-13 0)
(694.5499442 4.023871341e-14 0)
(694.5499442 5.48540207e-14 0)
(694.5499442 -2.217877504e-14 0)
(694.5499442 -3.077569527e-13 0)
(694.5499442 -5.375357857e-13 0)
(694.5499442 -5.757292662e-14 0)
(694.5499442 -2.890455063e-13 0)
(694.5499442 -2.231308438e-15 0)
(694.5499442 -2.88098279e-13 0)
(694.5499442 -1.142589355e-13 0)
(694.5499442 4.608734973e-13 0)
(694.5499442 6.776995154e-13 0)
(694.5499442 6.049343681e-13 0)
(694.5499442 4.943465481e-13 0)
(694.5499442 1.003711386e-13 0)
(694.5499442 1.647608024e-14 0)
(694.5499442 1.912334429e-13 0)
(694.5499442 1.644130824e-13 0)
(694.5499442 2.011849071e-13 0)
(694.5499442 1.900633627e-13 0)
(694.5499442 -6.29802793e-14 0)
(694.5499442 -3.523119599e-13 0)
(694.5499442 -2.204049661e-13 0)
(694.5499442 2.273648894e-13 0)
(694.5499442 1.867212077e-13 0)
(694.5499442 -1.458460211e-14 0)
(694.5499442 7.288543108e-14 0)
(694.5499442 -1.338114938e-13 0)
(694.5499442 -4.554347658e-13 0)
(694.5499442 -3.554201125e-13 0)
(694.5499442 -1.504150386e-13 0)
(694.5499442 -2.175019977e-13 0)
(694.5499442 5.979047683e-15 0)
(694.5499442 2.782670939e-14 0)
(694.5499442 1.142048953e-13 0)
(694.5499442 -1.899167999e-13 0)
(694.5499442 -8.666487153e-13 0)
(694.5499442 -1.946496902e-12 0)
(694.5499442 -3.364542344e-12 0)
(694.5499442 -5.359948792e-12 0)
(694.5499442 -9.803940748e-12 0)
(694.5499442 -1.88175188e-11 0)
(694.5499442 -3.750656069e-11 0)
(694.5499442 -7.51902845e-11 0)
(694.5499442 -1.500445112e-10 0)
(694.5499442 -2.955947175e-10 0)
(694.5499441 -5.731891535e-10 0)
(694.5499441 -1.094203585e-09 0)
(694.549944 -2.056923254e-09 0)
(694.5499439 -3.807259651e-09 0)
(694.5499436 -6.94050002e-09 0)
(694.549943 -1.246475635e-08 0)
(694.5499421 -2.205922693e-08 0)
(694.5499405 -3.847913003e-08 0)
(694.5499378 -6.617458188e-08 0)
(694.5499331 -1.12226804e-07 0)
(694.5499254 -1.877352187e-07 0)
(694.5499126 -3.098437171e-07 0)
(694.5498918 -5.046487556e-07 0)
(694.5498584 -8.113079738e-07 0)
(694.5498053 -1.287747702e-06 0)
(694.5497221 -2.018463932e-06 0)
(694.5495931 -3.125004605e-06 0)
(694.5493953 -4.779819428e-06 0)
(694.5490956 -7.224245487e-06 0)
(694.5486463 -1.079144815e-05 0)
(694.54798 -1.593514254e-05 0)
(694.5470021 -2.326485564e-05 0)
(694.5455814 -3.358831137e-05 0)
(694.5435383 -4.79612188e-05 0)
(694.5406284 -6.774424175e-05 0)
(694.5365235 -9.466624048e-05 0)
(694.5307867 -0.0001308918555 0)
(694.5228419 -0.0001790902902 0)
(694.5119368 -0.0002425003674 0)
(694.497098 -0.0003249851138 0)
(694.477077 -0.0004310662616 0)
(694.4502869 -0.0005659267935 0)
(694.4147281 -0.0007353650842 0)
(694.3679016 -0.0009456824084 0)
(694.3067108 -0.001203477629 0)
(694.2273496 -0.001515324875 0)
(694.1251777 -0.00188729332 0)
(693.9945818 -0.00232428486 0)
(693.8288261 -0.002829121318 0)
(693.6198899 -0.003401378769 0)
(693.358298 -0.004035826899 0)
(693.0329437 -0.004720532118 0)
(692.6309115 -0.005434257562 0)
(692.1373017 -0.006143497523 0)
(691.5350658 -0.006799786165 0)
(690.80486 -0.007337308853 0)
(689.9249255 -0.007668673801 0)
(688.8710129 -0.007679718222 0)
(687.6163608 -0.007215797238 0)
(686.1317062 -0.006077026322 0)
(684.3855345 -0.004048034575 0)
(682.3437011 -0.0008572955009 0)
(679.9716443 0.003627395732 0)
(677.2323905 0.01007169715 0)
(674.0882093 0.01881755702 0)
(670.5015565 0.03031442777 0)
(666.4356483 0.04508019823 0)
(661.8553807 0.06367201947 0)
(656.7283094 0.08667847618 0)
(651.0256722 0.1147061303 0)
(644.7234042 0.1483650279 0)
(637.8030981 0.1882526428 0)
(630.2528638 0.2349370868 0)
(622.0680417 0.2889404363 0)
(613.2517301 0.3507231222 0)
(603.8150993 0.4206702104 0)
(593.7774746 0.4990803138 0)
(583.1661861 0.5861577439 0)
(572.0161918 0.6820082507 0)
(560.3694957 0.7866382746 0)
(548.2743887 0.8999563192 0)
(535.7845449 1.021783498 0)
(522.9580107 1.151853628 0)
(509.8561229 1.289830481 0)
(496.5423887 1.435316882 0)
(483.0813617 1.587867957 0)
(469.5375376 1.747004444 0)
(455.9742967 1.912226089 0)
(442.4529189 2.083023944 0)
(429.0316877 2.258894227 0)
(415.7651632 2.439347689 0)
(402.7033245 2.623928508 0)
(389.8907525 2.812232487 0)
(377.3662084 3.003912328 0)
(365.1623448 3.198683439 0)
(353.3055788 3.396327931 0)
(341.8161037 3.59669717 0)
(330.708028 3.79971291 0)
(319.9896316 4.005367127 0)
(309.6637266 4.2137207 0)
(299.7281056 4.42490117 0)
(290.1760589 4.639099848 0)
(280.9969404 4.856568572 0)
(272.1767604 5.077616343 0)
(263.6987854 5.30260599 0)
(255.5441236 5.531950861 0)
(247.6922798 5.766111743 0)
(240.121661 6.005594288 0)
(232.8100267 6.250945994 0)
(225.7348931 6.502749555 0)
(218.8739128 6.761610088 0)
(212.2052419 7.028145308 0)
(205.7078909 7.303012691 0)
(199.3618983 7.587064478 0)
(193.1477352 7.880757716 0)
(187.0562351 8.184089992 0)
(181.056581 8.499550673 0)
(175.131811 8.828737395 0)
(169.2659832 9.172887053 0)
(163.4440567 9.533490341 0)
(157.6517831 9.912270909 0)
(151.8755923 10.3112274 0)
(146.1025097 10.73268541 0)
(140.3200934 11.17936323 0)
(134.5164061 11.65445285 0)
(128.6800733 12.16171282 0)
(122.8005384 12.70555481 0)
(116.8686434 13.29108321 0)
(110.8775318 13.92402974 0)
(104.8235211 14.61055313 0)
(98.70633085 15.35699864 0)
(92.52932232 16.16982758 0)
(86.3051967 17.05530805 0)
(80.07869688 18.01567798 0)
(73.97516293 19.03173908 0)
(68.25154924 20.01303718 0)
(63.21911038 20.72694129 0)
(58.98225628 20.83386853 0)
(694.5499442 2.599212366e-13 0)
(694.5499442 5.562721546e-14 0)
(694.5499442 6.522112047e-14 0)
(694.5499442 -2.569899692e-14 0)
(694.5499442 -3.969757937e-13 0)
(694.5499442 -6.885359818e-13 0)
(694.5499442 -7.380394045e-14 0)
(694.5499442 -3.769753099e-13 0)
(694.5499442 -1.430397052e-15 0)
(694.5499442 -3.672460216e-13 0)
(694.5499442 -1.454632043e-13 0)
(694.5499442 5.945154823e-13 0)
(694.5499442 8.807699418e-13 0)
(694.5499442 7.83969593e-13 0)
(694.5499442 6.434526881e-13 0)
(694.5499442 1.309542723e-13 0)
(694.5499442 2.269398786e-14 0)
(694.5499442 2.470918476e-13 0)
(694.5499442 2.155672905e-13 0)
(694.5499442 2.540092943e-13 0)
(694.5499442 2.481634986e-13 0)
(694.5499442 -7.971968904e-14 0)
(694.5499442 -4.529345205e-13 0)
(694.5499442 -2.858008337e-13 0)
(694.5499442 2.826367848e-13 0)
(694.5499442 2.312419018e-13 0)
(694.5499442 -4.40199358e-15 0)
(694.5499442 9.780915898e-14 0)
(694.5499442 -1.680516383e-13 0)
(694.5499442 -5.850054182e-13 0)
(694.5499442 -4.641962387e-13 0)
(694.5499442 -1.931425666e-13 0)
(694.5499442 -2.836564886e-13 0)
(694.5499442 2.98225496e-16 0)
(694.5499442 3.916539986e-14 0)
(694.5499442 1.381797881e-13 0)
(694.5499442 -2.479917971e-13 0)
(694.5499442 -1.12850973e-12 0)
(694.5499442 -2.531241382e-12 0)
(694.5499442 -4.370915878e-12 0)
(694.5499442 -6.97709615e-12 0)
(694.5499442 -1.276426029e-11 0)
(694.5499442 -2.451473776e-11 0)
(694.5499442 -4.884078702e-11 0)
(694.5499442 -9.791067998e-11 0)
(694.5499442 -1.9536743e-10 0)
(694.5499442 -3.84862788e-10 0)
(694.5499441 -7.462516011e-10 0)
(694.5499441 -1.424544915e-09 0)
(694.549944 -2.67781658e-09 0)
(694.5499439 -4.956333103e-09 0)
(694.5499436 -9.03493072e-09 0)
(694.549943 -1.622568486e-08 0)
(694.5499421 -2.871400654e-08 0)
(694.5499405 -5.008554786e-08 0)
(694.5499378 -8.613138424e-08 0)
(694.5499331 -1.460660155e-07 0)
(694.5499254 -2.443317812e-07 0)
(694.5499126 -4.032345196e-07 0)
(694.5498917 -6.567259547e-07 0)
(694.5498583 -1.055746776e-06 0)
(694.5498052 -1.675648318e-06 0)
(694.5497219 -2.62633487e-06 0)
(694.5495927 -4.065890168e-06 0)
(694.5493947 -6.218578476e-06 0)
(694.5490947 -9.398216449e-06 0)
(694.5486449 -1.403797773e-05 0)
(694.5479779 -2.0727698e-05 0)
(694.5469989 -3.025966116e-05 0)
(694.5455768 -4.368361403e-05 0)
(694.5435314 -6.237136063e-05 0)
(694.5406185 -8.809063034e-05 0)
(694.5365093 -0.0001230870162 0)
(694.5307666 -0.0001701714458 0)
(694.5228137 -0.000232809066 0)
(694.5118975 -0.0003152030936 0)
(694.4970438 -0.0004223648185 0)
(694.4770029 -0.0005601571978 0)
(694.4501865 -0.0007352965512 0)
(694.4145931 -0.0009552908797 0)
(694.3677216 -0.001228291061 0)
(694.3064728 -0.001562820725 0)
(694.2270374 -0.00196735339 0)
(694.1247713 -0.002449683365 0)
(693.9940568 -0.003016059341 0)
(693.828153 -0.003669990797 0)
(693.6190335 -0.00441072574 0)
(693.3572164 -0.005231211808 0)
(693.0315877 -0.006115622708 0)
(692.629224 -0.00703596121 0)
(692.1352171 -0.007948190052 0)
(691.5325096 -0.008788731711 0)
(690.8017491 -0.009471355176 0)
(689.9211677 -0.009881570097 0)
(688.8665077 -0.009870269151 0)
(687.6110006 -0.009234512211 0)
(686.1253776 -0.007719098555 0)
(684.3781266 -0.005019495942 0)
(682.3350986 -0.0008587877869 0)
(679.9617715 0.005059702432 0)
(677.2211132 0.01350505874 0)
(674.0754617 0.02495057954 0)
(670.4872865 0.03998726095 0)
(666.4198406 0.05928679534 0)
(661.838056 0.08357530056 0)
(656.7095369 0.1136187426 0)
(651.0055761 0.1502062172 0)
(644.7021686 0.194131145 0)
(637.7809715 0.2461704783 0)
(630.2301612 0.3070629115 0)
(622.0451439 0.3774872144 0)
(613.2290811 0.4580419273 0)
(603.7932008 0.5492275208 0)
(593.7568786 0.6514320187 0)
(583.1474845 0.7649208481 0)
(572.0000054 0.8898313152 0)
(560.3564613 1.026171839 0)
(548.2651458 1.173823235 0)
(535.7797229 1.332552079 0)
(522.9582159 1.502013852 0)
(509.8619273 1.681771119 0)
(496.5543202 1.87130779 0)
(483.0998962 2.070045763 0)
(469.563094 2.277362176 0)
(456.0072334 2.492606763 0)
(442.4935344 2.715117836 0)
(429.0802215 2.94424038 0)
(415.8217953 3.179338292 0)
(402.7681815 3.419818254 0)
(389.9639214 3.665153122 0)
(377.4477532 3.914888889 0)
(365.2523235 4.168652348 0)
(353.4040605 4.426156314 0)
(341.9231853 4.687202921 0)
(330.8238508 4.951685101 0)
(320.1143976 5.219586346 0)
(309.7977138 5.490978977 0)
(299.8716829 5.766021177 0)
(290.3297005 6.044953162 0)
(281.1612397 6.328092825 0)
(272.3524444 6.615831191 0)
(263.886729 6.908627874 0)
(255.7453658 7.207006752 0)
(247.9080388 7.511552171 0)
(240.3533509 7.822905221 0)
(233.0592823 8.141757492 0)
(226.0036089 8.468839322 0)
(219.1642893 8.804903615 0)
(212.5198183 9.150716415 0)
(206.0495783 9.507074788 0)
(199.7338396 9.875044854 0)
(193.5577789 10.25454154 0)
(187.5037033 10.64668843 0)
(181.5468956 11.05429464 0)
(175.6710357 11.47885349 0)
(169.8610154 11.92190873 0)
(164.1029166 12.38519666 0)
(158.3838819 12.8706776 0)
(152.6920673 13.38057183 0)
(147.016648 13.91739594 0)
(141.3478787 14.48400011 0)
(135.6772321 15.08360133 0)
(129.9976792 15.71979757 0)
(124.304216 16.39652818 0)
(118.5947545 17.11791466 0)
(112.8714032 17.88788374 0)
(107.1419231 18.7094844 0)
(101.4210282 19.58391807 0)
(95.73221991 20.50936791 0)
(90.11401307 21.47897202 0)
(84.63683249 22.47461526 0)
(79.42976584 23.44927224 0)
(74.68927209 24.29325144 0)
(70.60309721 24.81281022 0)
(67.21028399 24.78900773 0)
(694.5499442 3.134300253e-13 0)
(694.5499442 7.369914322e-14 0)
(694.5499442 7.390740872e-14 0)
(694.5499442 -2.420729635e-14 0)
(694.5499442 -4.864766721e-13 0)
(694.5499442 -8.361945049e-13 0)
(694.5499442 -8.72949246e-14 0)
(694.5499442 -4.64283056e-13 0)
(694.5499442 -3.246271393e-15 0)
(694.5499442 -4.443322688e-13 0)
(694.5499442 -1.76976097e-13 0)
(694.5499442 7.290554529e-13 0)
(694.5499442 1.089205174e-12 0)
(694.5499442 9.675991648e-13 0)
(694.5499442 7.89025438e-13 0)
(694.5499442 1.591439786e-13 0)
(694.5499442 3.274800809e-14 0)
(694.5499442 3.097241438e-13 0)
(694.5499442 2.709666622e-13 0)
(694.5499442 3.041455037e-13 0)
(694.5499442 3.03666817e-13 0)
(694.5499442 -9.060021922e-14 0)
(694.5499442 -5.508247083e-13 0)
(694.5499442 -3.523018407e-13 0)
(694.5499442 3.306665188e-13 0)
(694.5499442 2.734402516e-13 0)
(694.5499442 9.850266915e-15 0)
(694.5499442 1.247517297e-13 0)
(694.5499442 -2.013126218e-13 0)
(694.5499442 -7.115972594e-13 0)
(694.5499442 -5.777285595e-13 0)
(694.5499442 -2.316708194e-13 0)
(694.5499442 -3.513890921e-13 0)
(694.5499442 -1.080305356e-14 0)
(694.5499442 5.097169119e-14 0)
(694.5499442 1.593589948e-13 0)
(694.5499442 -3.061935556e-13 0)
(694.5499442 -1.395352307e-12 0)
(694.5499442 -3.126197871e-12 0)
(694.5499442 -5.394907449e-12 0)
(694.5499442 -8.629185198e-12 0)
(694.5499442 -1.580063069e-11 0)
(694.5499442 -3.035559198e-11 0)
(694.5499442 -6.044444757e-11 0)
(694.5499442 -1.211750523e-10 0)
(694.5499442 -2.417566669e-10 0)
(694.5499442 -4.762165337e-10 0)
(694.5499441 -9.233378095e-10 0)
(694.5499441 -1.762544127e-09 0)
(694.549944 -3.313032819e-09 0)
(694.5499439 -6.13179269e-09 0)
(694.5499436 -1.117723841e-08 0)
(694.549943 -2.0072166e-08 0)
(694.5499421 -3.551941261e-08 0)
(694.5499405 -6.195325836e-08 0)
(694.5499378 -1.065349797e-07 0)
(694.5499331 -1.8065843e-07 0)
(694.5499253 -3.021804151e-07 0)
(694.5499125 -4.986781708e-07 0)
(694.5498917 -8.121235702e-07 0)
(694.5498582 -1.305484908e-06 0)
(694.549805 -2.07189587e-06 0)
(694.5497215 -3.247183364e-06 0)
(694.5495922 -5.026696025e-06 0)
(694.549394 -7.68753067e-06 0)
(694.5490935 -1.161738323e-05 0)
(694.5486431 -1.735133041e-05 0)
(694.5479752 -2.561785304e-05 0)
(694.5469949 -3.739530112e-05 0)
(694.5455709 -5.397970877e-05 0)
(694.5435228 -7.706437307e-05 0)