# Force coefficients
# liftDir        : (0.0000000000e+00 1.0000000000e+00 0.0000000000e+00)
# dragDir        : (1.0000000000e+00 0.0000000000e+00 0.0000000000e+00)
# pitchAxis      : (0.0000000000e+00 0.0000000000e+00 1.0000000000e+00)
# magUInf        : 5.4100000000e+03
# lRef           : 6.6236897090e-01
# Aref           : 3.0629317000e-02
# CofR           : (0.0000000000e+00 0.0000000000e+00 0.0000000000e+00)
#                
# Time           	Cm               	Cd               	Cl               	Cl(f)            	Cl(r)            
0.00140000012    	-6.0038196366e-01	9.0060709646e-01	-3.2994658031e-01	-7.6535525382e-01	4.3540867351e-01
0.001400000264   	-6.0038198820e-01	9.0060713722e-01	-3.2994659765e-01	-7.6535528703e-01	4.3540868938e-01
0.001400000437   	-6.0038201760e-01	9.0060718601e-01	-3.2994661842e-01	-7.6535532681e-01	4.3540870839e-01
0.001400000644   	-6.0038205279e-01	9.0060724443e-01	-3.2994664330e-01	-7.6535537443e-01	4.3540873114e-01
0.001400000893   	-6.0038209489e-01	9.0060731431e-01	-3.2994667308e-01	-7.6535543143e-01	4.3540875835e-01
0.001400001192   	-6.0038214525e-01	9.0060739786e-01	-3.2994670872e-01	-7.6535549962e-01	4.3540879089e-01
0.00140000155    	-6.0038220545e-01	9.0060749769e-01	-3.2994675136e-01	-7.6535558113e-01	4.3540882977e-01
0.00140000198    	-6.0038227733e-01	9.0060761688e-01	-3.2994680232e-01	-7.6535567849e-01	4.3540887617e-01
0.001400002496   	-6.0038236310e-01	9.0060775901e-01	-3.2994686320e-01	-7.6535579470e-01	4.3540893150e-01
0.001400003115   	-6.0038246531e-01	9.0060792831e-01	-3.2994693585e-01	-7.6535593323e-01	4.3540899739e-01
0.001400003858   	-6.0038258697e-01	9.0060812967e-01	-3.2994702245e-01	-7.6535609819e-01	4.3540907574e-01
0.00140000475    	-6.0038273153e-01	9.0060836877e-01	-3.2994712555e-01	-7.6535629430e-01	4.3540916875e-01
0.001400005819   	-6.0038290299e-01	9.0060865211e-01	-3.2994724813e-01	-7.6535652705e-01	4.3540927893e-01
0.001400007103   	-6.0038310590e-01	9.0060898706e-01	-3.2994739359e-01	-7.6535680270e-01	4.3540940911e-01
0.001400008644   	-6.0038334539e-01	9.0060938189e-01	-3.2994756585e-01	-7.6535712831e-01	4.3540956247e-01
0.001400010493   	-6.0038362718e-01	9.0060984578e-01	-3.2994776934e-01	-7.6535751185e-01	4.3540974250e-01
0.001400012712   	-6.0038395753e-01	9.0061038872e-01	-3.2994800908e-01	-7.6535796207e-01	4.3540995300e-01
0.001400015374   	-6.0038434311e-01	9.0061102120e-01	-3.2994829052e-01	-7.6535848837e-01	4.3541019785e-01
0.00140001857    	-6.0038479088e-01	9.0061175410e-01	-3.2994861968e-01	-7.6535910072e-01	4.3541048104e-01
0.001400022404   	-6.0038530789e-01	9.0061259827e-01	-3.2994900298e-01	-7.6535980938e-01	4.3541080640e-01
0.001400027006   	-6.0038590074e-01	9.0061356371e-01	-3.2994944707e-01	-7.6536062428e-01	4.3541117721e-01
0.001400032528   	-6.0038657492e-01	9.0061465852e-01	-3.2994995846e-01	-7.6536155415e-01	4.3541159570e-01
0.001400039156   	-6.0038733447e-01	9.0061588842e-01	-3.2995054350e-01	-7.6536260621e-01	4.3541206272e-01
0.001400047112   	-6.0038818066e-01	9.0061725488e-01	-3.2995120773e-01	-7.6536378452e-01	4.3541257679e-01
0.001400056645   	-6.0038910835e-01	9.0061874942e-01	-3.2995195344e-01	-7.6536508507e-01	4.3541313163e-01
0.001400067755   	-6.0039007958e-01	9.0062031153e-01	-3.2995275828e-01	-7.6536645872e-01	4.3541370044e-01
0.00140008044    	-6.0039105480e-01	9.0062187932e-01	-3.2995359882e-01	-7.6536785422e-01	4.3541425539e-01
0.001400094692   	-6.0039199200e-01	9.0062338773e-01	-3.2995444999e-01	-7.6536921700e-01	4.3541476701e-01
0.001400110415   	-6.0039284154e-01	9.0062475967e-01	-3.2995528025e-01	-7.6537048167e-01	4.3541520142e-01
0.001400126138   	-6.0039349738e-01	9.0062582611e-01	-3.2995599609e-01	-7.6537149543e-01	4.3541549934e-01
0.00140014186    	-6.0039396645e-01	9.0062659859e-01	-3.2995660147e-01	-7.6537226719e-01	4.3541566572e-01
0.001400157583   	-6.0039425359e-01	9.0062708490e-01	-3.2995709922e-01	-7.6537280321e-01	4.3541570398e-01
0.001400173306   	-6.0039436271e-01	9.0062729116e-01	-3.2995749164e-01	-7.6537310853e-01	4.3541561689e-01
0.001400189028   	-6.0039429722e-01	9.0062722271e-01	-3.2995778076e-01	-7.6537318760e-01	4.3541540685e-01
0.001400204751   	-6.0039406035e-01	9.0062688457e-01	-3.2995796849e-01	-7.6537304460e-01	4.3541507611e-01
0.001400220474   	-6.0039365517e-01	9.0062628154e-01	-3.2995805665e-01	-7.6537268349e-01	4.3541462684e-01
0.001400236197   	-6.0039308467e-01	9.0062541831e-01	-3.2995804702e-01	-7.6537210818e-01	4.3541406116e-01
0.001400251919   	-6.0039235180e-01	9.0062429952e-01	-3.2995794136e-01	-7.6537132248e-01	4.3541338112e-01
0.001400267642   	-6.0039145945e-01	9.0062292974e-01	-3.2995774136e-01	-7.6537033013e-01	4.3541258877e-01
0.001400283365   	-6.0039041050e-01	9.0062131349e-01	-3.2995744872e-01	-7.6536913486e-01	4.3541168614e-01
0.001400299087   	-6.0038920777e-01	9.0061945527e-01	-3.2995706511e-01	-7.6536774033e-01	4.3541067522e-01
0.00140031481    	-6.0038785407e-01	9.0061735951e-01	-3.2995659217e-01	-7.6536615016e-01	4.3540955798e-01
0.001400330533   	-6.0038635216e-01	9.0061503063e-01	-3.2995603154e-01	-7.6536436793e-01	4.3540833639e-01
0.001400346256   	-6.0038470479e-01	9.0061247299e-01	-3.2995538480e-01	-7.6536239719e-01	4.3540701238e-01
0.001400361978   	-6.0038291467e-01	9.0060969093e-01	-3.2995465357e-01	-7.6536024145e-01	4.3540558789e-01
0.001400377701   	-6.0038098450e-01	9.0060668875e-01	-3.2995383940e-01	-7.6535790420e-01	4.3540406480e-01
0.001400393424   	-6.0037891694e-01	9.0060347069e-01	-3.2995294385e-01	-7.6535538886e-01	4.3540244501e-01
0.001400409146   	-6.0037671462e-01	9.0060004099e-01	-3.2995196847e-01	-7.6535269885e-01	4.3540073039e-01
0.001400424869   	-6.0037438016e-01	9.0059640381e-01	-3.2995091477e-01	-7.6534983755e-01	4.3539892278e-01
0.001400440592   	-6.0037191615e-01	9.0059256332e-01	-3.2994978425e-01	-7.6534680828e-01	4.3539702403e-01
0.001400456315   	-6.0036932515e-01	9.0058852360e-01	-3.2994857841e-01	-7.6534361435e-01	4.3539503594e-01
0.001400472037   	-6.0036660968e-01	9.0058428873e-01	-3.2994729873e-01	-7.6534025905e-01	4.3539296032e-01
0.00140048776    	-6.0036377227e-01	9.0057986274e-01	-3.2994594665e-01	-7.6533674559e-01	4.3539079894e-01
0.001400503483   	-6.0036081539e-01	9.0057524961e-01	-3.2994452362e-01	-7.6533307720e-01	4.3538855358e-01
0.001400519205   	-6.0035774151e-01	9.0057045330e-01	-3.2994303107e-01	-7.6532925704e-01	4.3538622598e-01
0.001400534928   	-6.0035455306e-01	9.0056547772e-01	-3.2994147040e-01	-7.6532528826e-01	4.3538381786e-01
0.001400550651   	-6.0035125244e-01	9.0056032672e-01	-3.2993984302e-01	-7.6532117395e-01	4.3538133093e-01
0.001400566373   	-6.0034784204e-01	9.0055500416e-01	-3.2993815030e-01	-7.6531691719e-01	4.3537876689e-01
0.001400582096   	-6.0034432422e-01	9.0054951380e-01	-3.2993639361e-01	-7.6531252102e-01	4.3537612741e-01
0.001400597819   	-6.0034070130e-01	9.0054385941e-01	-3.2993457429e-01	-7.6530798844e-01	4.3537341415e-01
0.001400613542   	-6.0033697559e-01	9.0053804468e-01	-3.2993269368e-01	-7.6530332243e-01	4.3537062875e-01
0.001400629264   	-6.0033314937e-01	9.0053207329e-01	-3.2993075311e-01	-7.6529852593e-01	4.3536777282e-01
0.001400644987   	-6.0032922490e-01	9.0052594885e-01	-3.2992875386e-01	-7.6529360183e-01	4.3536484796e-01
0.00140066071    	-6.0032520439e-01	9.0051967496e-01	-3.2992669724e-01	-7.6528855301e-01	4.3536185577e-01
0.001400676432   	-6.0032109005e-01	9.0051325514e-01	-3.2992458451e-01	-7.6528338230e-01	4.3535879780e-01
0.001400692155   	-6.0031688405e-01	9.0050669290e-01	-3.2992241693e-01	-7.6527809252e-01	4.3535567559e-01
0.001400707878   	-6.0031258855e-01	9.0049999170e-01	-3.2992019574e-01	-7.6527268642e-01	4.3535249068e-01
0.001400723601   	-6.0030820566e-01	9.0049315494e-01	-3.2991792217e-01	-7.6526716675e-01	4.3534924458e-01
0.001400739323   	-6.0030373748e-01	9.0048618601e-01	-3.2991559743e-01	-7.6526153620e-01	4.3534593877e-01
0.001400755046   	-6.0029918608e-01	9.0047908822e-01	-3.2991322272e-01	-7.6525579744e-01	4.3534257472e-01
0.001400770769   	-6.0029455350e-01	9.0047186486e-01	-3.2991079922e-01	-7.6524995311e-01	4.3533915389e-01
0.001400786491   	-6.0028984175e-01	9.0046451918e-01	-3.2990832810e-01	-7.6524400580e-01	4.3533567771e-01
0.001400802214   	-6.0028505284e-01	9.0045705438e-01	-3.2990581050e-01	-7.6523795809e-01	4.3533214759e-01
0.001400817937   	-6.0028018871e-01	9.0044947361e-01	-3.2990324756e-01	-7.6523181250e-01	4.3532856493e-01
0.00140083366    	-6.0027525132e-01	9.0044177999e-01	-3.2990064041e-01	-7.6522557152e-01	4.3532493112e-01
0.001400849382   	-6.0027024256e-01	9.0043397658e-01	-3.2989799014e-01	-7.6521923763e-01	4.3532124749e-01
0.001400865105   	-6.0026516433e-01	9.0042606643e-01	-3.2989529785e-01	-7.6521281325e-01	4.3531751540e-01
0.001400880828   	-6.0026001848e-01	9.0041805252e-01	-3.2989256462e-01	-7.6520630079e-01	4.3531373617e-01
0.00140089655    	-6.0025480684e-01	9.0040993778e-01	-3.2988979150e-01	-7.6519970259e-01	4.3530991109e-01
0.001400912273   	-6.0024953122e-01	9.0040172512e-01	-3.2988697954e-01	-7.6519302099e-01	4.3530604146e-01
0.001400927996   	-6.0024419341e-01	9.0039341739e-01	-3.2988412977e-01	-7.6518625829e-01	4.3530212852e-01
0.001400943719   	-6.0023879514e-01	9.0038501742e-01	-3.2988124320e-01	-7.6517941674e-01	4.3529817354e-01
0.001400959441   	-6.0023333815e-01	9.0037652797e-01	-3.2987832085e-01	-7.6517249858e-01	4.3529417773e-01
0.001400975164   	-6.0022782415e-01	9.0036795178e-01	-3.2987536369e-01	-7.6516550599e-01	4.3529014231e-01
0.001400990887   	-6.0022225480e-01	9.0035929153e-01	-3.2987237269e-01	-7.6515844115e-01	4.3528606846e-01
0.001401006609   	-6.0021663176e-01	9.0035054987e-01	-3.2986934881e-01	-7.6515130617e-01	4.3528195735e-01
0.001401022332   	-6.0021095665e-01	9.0034172940e-01	-3.2986629300e-01	-7.6514410315e-01	4.3527781015e-01
0.001401038055   	-6.0020523106e-01	9.0033283268e-01	-3.2986320618e-01	-7.6513683415e-01	4.3527362797e-01
0.001401053778   	-6.0019945658e-01	9.0032386224e-01	-3.2986008927e-01	-7.6512950121e-01	4.3526941195e-01
0.0014010695     	-6.0019363475e-01	9.0031482056e-01	-3.2985694315e-01	-7.6512210632e-01	4.3526516317e-01
0.001401085223   	-6.0018776708e-01	9.0030571007e-01	-3.2985376873e-01	-7.6511465145e-01	4.3526088272e-01
0.001401100946   	-6.0018185509e-01	9.0029653316e-01	-3.2985056687e-01	-7.6510713852e-01	4.3525657166e-01
0.001401116668   	-6.0017590024e-01	9.0028729221e-01	-3.2984733842e-01	-7.6509956945e-01	4.3525223103e-01
0.001401132391   	-6.0016990397e-01	9.0027798951e-01	-3.2984408423e-01	-7.6509194608e-01	4.3524786186e-01
0.001401148114   	-6.0016386771e-01	9.0026862735e-01	-3.2984080512e-01	-7.6508427027e-01	4.3524346515e-01
0.001401163837   	-6.0015779286e-01	9.0025920795e-01	-3.2983750192e-01	-7.6507654382e-01	4.3523904191e-01
0.001401179559   	-6.0015168080e-01	9.0024973353e-01	-3.2983417541e-01	-7.6506876850e-01	4.3523459309e-01
0.001401195282   	-6.0014553286e-01	9.0024020622e-01	-3.2983082639e-01	-7.6506094605e-01	4.3523011966e-01
0.001401211005   	-6.0013935038e-01	9.0023062815e-01	-3.2982745563e-01	-7.6505307819e-01	4.3522562256e-01
0.001401226727   	-6.0013313465e-01	9.0022100139e-01	-3.2982406389e-01	-7.6504516660e-01	4.3522110271e-01
0.00140124245    	-6.0012688696e-01	9.0021132799e-01	-3.2982065192e-01	-7.6503721292e-01	4.3521656100e-01
0.001401258173   	-6.0012060856e-01	9.0020160993e-01	-3.2981722045e-01	-7.6502921878e-01	4.3521199834e-01
0.001401273895   	-6.0011430068e-01	9.0019184918e-01	-3.2981377019e-01	-7.6502118577e-01	4.3520741558e-01
0.001401289618   	-6.0010796452e-01	9.0018204767e-01	-3.2981030186e-01	-7.6501311545e-01	4.3520281359e-01
0.001401305341   	-6.0010160127e-01	9.0017220729e-01	-3.2980681615e-01	-7.6500500935e-01	4.3519819320e-01
0.001401321064   	-6.0009521210e-01	9.0016232987e-01	-3.2980331374e-01	-7.6499686897e-01	4.3519355523e-01
0.001401336786   	-6.0008879813e-01	9.0015241723e-01	-3.2979979530e-01	-7.6498869578e-01	4.3518890048e-01
0.001401352509   	-6.0008236049e-01	9.0014247115e-01	-3.2979626148e-01	-7.6498049123e-01	4.3518422975e-01
0.001401368232   	-6.0007590028e-01	9.0013249336e-01	-3.2979271292e-01	-7.6497225674e-01	4.3517954381e-01
0.001401383954   	-6.0006941855e-01	9.0012248556e-01	-3.2978915026e-01	-7.6496399368e-01	4.3517484342e-01
0.001401399677   	-6.0006291637e-01	9.0011244944e-01	-3.2978557412e-01	-7.6495570343e-01	4.3517012931e-01
0.0014014154     	-6.0005639476e-01	9.0010238660e-01	-3.2978198509e-01	-7.6494738730e-01	4.3516540221e-01
0.001401431123   	-6.0004985473e-01	9.0009229866e-01	-3.2977838378e-01	-7.6493904662e-01	4.3516066284e-01
0.001401446845   	-6.0004329726e-01	9.0008218717e-01	-3.2977477076e-01	-7.6493068264e-01	4.3515591188e-01
0.001401462568   	-6.0003672332e-01	9.0007205367e-01	-3.2977114660e-01	-7.6492229662e-01	4.3515115002e-01
0.001401478291   	-6.0003013386e-01	9.0006189964e-01	-3.2976751187e-01	-7.6491388979e-01	4.3514637792e-01
0.001401494013   	-6.0002352979e-01	9.0005172655e-01	-3.2976386710e-01	-7.6490546334e-01	4.3514159624e-01
0.001401509736   	-6.0001691202e-01	9.0004153582e-01	-3.2976021284e-01	-7.6489701844e-01	4.3513680560e-01
0.001401525459   	-6.0001028144e-01	9.0003132885e-01	-3.2975654960e-01	-7.6488855624e-01	4.3513200664e-01
0.001401541182   	-6.0000363890e-01	9.0002110700e-01	-3.2975287790e-01	-7.6488007785e-01	4.3512719995e-01
0.001401556904   	-5.9999698526e-01	9.0001087160e-01	-3.2974919824e-01	-7.6487158438e-01	4.3512238613e-01
0.001401572627   	-5.9999032133e-01	9.0000062395e-01	-3.2974551112e-01	-7.6486307688e-01	4.3511756577e-01
0.00140158835    	-5.9998364791e-01	8.9999036532e-01	-3.2974181700e-01	-7.6485455641e-01	4.3511273942e-01
0.001401604072   	-5.9997696581e-01	8.9998009694e-01	-3.2973811635e-01	-7.6484602398e-01	4.3510790763e-01
0.001401619795   	-5.9997027577e-01	8.9996982002e-01	-3.2973440965e-01	-7.6483748060e-01	4.3510307095e-01
0.001401635518   	-5.9996357856e-01	8.9995953574e-01	-3.2973069732e-01	-7.6482892722e-01	4.3509822990e-01
0.001401651241   	-5.9995687490e-01	8.9994924524e-01	-3.2972697982e-01	-7.6482036481e-01	4.3509338499e-01
0.001401666963   	-5.9995016550e-01	8.9993894964e-01	-3.2972325756e-01	-7.6481179428e-01	4.3508853672e-01
0.001401682686   	-5.9994345106e-01	8.9992865002e-01	-3.2971953097e-01	-7.6480321655e-01	4.3508368558e-01
0.001401698409   	-5.9993673226e-01	8.9991834745e-01	-3.2971580044e-01	-7.6479463248e-01	4.3507883204e-01
0.001401714131   	-5.9993000975e-01	8.9990804295e-01	-3.2971206639e-01	-7.6478604294e-01	4.3507397656e-01
0.001401729854   	-5.9992328418e-01	8.9989773754e-01	-3.2970832918e-01	-7.6477744877e-01	4.3506911959e-01
0.001401745577   	-5.9991655617e-01	8.9988743218e-01	-3.2970458921e-01	-7.6476885078e-01	4.3506426157e-01
0.0014017613     	-5.9990982634e-01	8.9987712783e-01	-3.2970084684e-01	-7.6476024976e-01	4.3505940292e-01
0.001401777022   	-5.9990309527e-01	8.9986682540e-01	-3.2969710242e-01	-7.6475164648e-01	4.3505454406e-01
0.001401792745   	-5.9989636354e-01	8.9985652579e-01	-3.2969335631e-01	-7.6474304169e-01	4.3504968538e-01
0.001401808468   	-5.9988963171e-01	8.9984622988e-01	-3.2968960885e-01	-7.6473443613e-01	4.3504482728e-01
0.00140182419    	-5.9988290032e-01	8.9983593850e-01	-3.2968586038e-01	-7.6472583051e-01	4.3503997013e-01
0.001401839913   	-5.9987616991e-01	8.9982565249e-01	-3.2968211120e-01	-7.6471722551e-01	4.3503511431e-01
0.001401855636   	-5.9986944099e-01	8.9981537262e-01	-3.2967836164e-01	-7.6470862181e-01	4.3503026017e-01
0.001401871358   	-5.9986271405e-01	8.9980509967e-01	-3.2967461200e-01	-7.6470002005e-01	4.3502540805e-01
0.001401887081   	-5.9985598959e-01	8.9979483440e-01	-3.2967086258e-01	-7.6469142088e-01	4.3502055830e-01
0.001401902804   	-5.9984926806e-01	8.9978457751e-01	-3.2966711367e-01	-7.6468282490e-01	4.3501571123e-01
0.001401918527   	-5.9984254993e-01	8.9977432972e-01	-3.2966336554e-01	-7.6467423271e-01	4.3501086716e-01
0.001401934249   	-5.9983583564e-01	8.9976409169e-01	-3.2965961848e-01	-7.6466564488e-01	4.3500602640e-01
0.001401949972   	-5.9982912561e-01	8.9975386408e-01	-3.2965587274e-01	-7.6465706198e-01	4.3500118924e-01
0.001401965695   	-5.9982242026e-01	8.9974364753e-01	-3.2965212859e-01	-7.6464848455e-01	4.3499635596e-01
0.001401981417   	-5.9981571998e-01	8.9973344265e-01	-3.2964838626e-01	-7.6463991311e-01	4.3499152685e-01
0.00140199714    	-5.9980902516e-01	8.9972325002e-01	-3.2964464601e-01	-7.6463134817e-01	4.3498670216e-01
0.001402012863   	-5.9980233618e-01	8.9971307022e-01	-3.2964090806e-01	-7.6462279021e-01	4.3498188215e-01
0.001402028586   	-5.9979565340e-01	8.9970290378e-01	-3.2963717264e-01	-7.6461423972e-01	4.3497706708e-01
0.001402044308   	-5.9978897716e-01	8.9969275124e-01	-3.2963343998e-01	-7.6460569716e-01	4.3497225717e-01
0.001402060031   	-5.9978230781e-01	8.9968261311e-01	-3.2962971029e-01	-7.6459716295e-01	4.3496745267e-01
0.001402075754   	-5.9977564566e-01	8.9967248988e-01	-3.2962598376e-01	-7.6458863754e-01	4.3496265378e-01
0.001402091476   	-5.9976899102e-01	8.9966238201e-01	-3.2962226060e-01	-7.6458012132e-01	4.3495786072e-01
0.001402107199   	-5.9976234421e-01	8.9965228995e-01	-3.2961854101e-01	-7.6457161471e-01	4.3495307370e-01
0.001402122922   	-5.9975570549e-01	8.9964221414e-01	-3.2961482516e-01	-7.6456311807e-01	4.3494829291e-01
0.001402138645   	-5.9974907516e-01	8.9963215498e-01	-3.2961111323e-01	-7.6455463178e-01	4.3494351855e-01
0.001402154367   	-5.9974245349e-01	8.9962211289e-01	-3.2960740541e-01	-7.6454615619e-01	4.3493875078e-01
0.00140217009    	-5.9973584071e-01	8.9961208822e-01	-3.2960370185e-01	-7.6453769163e-01	4.3493398979e-01
0.001402185813   	-5.9972923708e-01	8.9960208136e-01	-3.2960000271e-01	-7.6452923844e-01	4.3492923573e-01
0.001402201535   	-5.9972264284e-01	8.9959209263e-01	-3.2959630815e-01	-7.6452079692e-01	4.3492448877e-01
0.001402217258   	-5.9971605821e-01	8.9958212237e-01	-3.2959261831e-01	-7.6451236737e-01	4.3491974905e-01
0.001402232981   	-5.9970948340e-01	8.9957217089e-01	-3.2958893335e-01	-7.6450395007e-01	4.3491501672e-01
0.001402248704   	-5.9970291861e-01	8.9956223849e-01	-3.2958525339e-01	-7.6449554531e-01	4.3491029192e-01
0.001402264426   	-5.9969636405e-01	8.9955232544e-01	-3.2958157857e-01	-7.6448715333e-01	4.3490557477e-01
0.001402280149   	-5.9968981989e-01	8.9954243203e-01	-3.2957790901e-01	-7.6447877440e-01	4.3490086539e-01
0.001402295872   	-5.9968328632e-01	8.9953255848e-01	-3.2957424483e-01	-7.6447040873e-01	4.3489616390e-01
0.001402311594   	-5.9967676349e-01	8.9952270505e-01	-3.2957058615e-01	-7.6446205656e-01	4.3489147041e-01
0.001402327317   	-5.9967025157e-01	8.9951287196e-01	-3.2956693308e-01	-7.6445371811e-01	4.3488678503e-01
0.00140234304    	-5.9966375070e-01	8.9950305941e-01	-3.2956328572e-01	-7.6444539356e-01	4.3488210785e-01
0.001402358763   	-5.9965726104e-01	8.9949326759e-01	-3.2955964417e-01	-7.6443708312e-01	4.3487743895e-01
0.001402374485   	-5.9965078270e-01	8.9948349671e-01	-3.2955600853e-01	-7.6442878696e-01	4.3487277844e-01
0.001402390208   	-5.9964431581e-01	8.9947374691e-01	-3.2955237888e-01	-7.6442050526e-01	4.3486812637e-01
0.001402405931   	-5.9963786050e-01	8.9946401836e-01	-3.2954875532e-01	-7.6441223816e-01	4.3486348284e-01
0.001402421653   	-5.9963141686e-01	8.9945431120e-01	-3.2954513793e-01	-7.6440398583e-01	4.3485884790e-01
0.001402437376   	-5.9962498500e-01	8.9944462556e-01	-3.2954152677e-01	-7.6439574839e-01	4.3485422162e-01
0.001402453099   	-5.9961856502e-01	8.9943496157e-01	-3.2953792193e-01	-7.6438752599e-01	4.3484960406e-01
0.001402468822   	-5.9961215700e-01	8.9942531933e-01	-3.2953432347e-01	-7.6437931873e-01	4.3484499526e-01
0.001402484544   	-5.9960576101e-01	8.9941569895e-01	-3.2953073146e-01	-7.6437112674e-01	4.3484039528e-01
0.001402500267   	-5.9959937713e-01	8.9940610050e-01	-3.2952714595e-01	-7.6436295011e-01	4.3483580416e-01
0.00140251599    	-5.9959300544e-01	8.9939652407e-01	-3.2952356700e-01	-7.6435478893e-01	4.3483122194e-01
0.001402531712   	-5.9958664597e-01	8.9938696971e-01	-3.2951999466e-01	-7.6434664330e-01	4.3482664864e-01
0.001402547435   	-5.9958029880e-01	8.9937743750e-01	-3.2951642899e-01	-7.6433851329e-01	4.3482208430e-01
0.001402563158   	-5.9957396396e-01	8.9936792746e-01	-3.2951287002e-01	-7.6433039897e-01	4.3481752894e-01
0.00140257888    	-5.9956764149e-01	8.9935843965e-01	-3.2950931780e-01	-7.6432230039e-01	4.3481298259e-01
0.001402594603   	-5.9956133143e-01	8.9934897408e-01	-3.2950577237e-01	-7.6431421761e-01	4.3480844525e-01
0.001402610326   	-5.9955503381e-01	8.9933953077e-01	-3.2950223375e-01	-7.6430615069e-01	4.3480391694e-01
0.001402626049   	-5.9954874865e-01	8.9933010974e-01	-3.2949870198e-01	-7.6429809964e-01	4.3479939766e-01
0.001402641771   	-5.9954247597e-01	8.9932071098e-01	-3.2949517709e-01	-7.6429006451e-01	4.3479488742e-01
0.001402657494   	-5.9953621578e-01	8.9931133449e-01	-3.2949165910e-01	-7.6428204532e-01	4.3479038623e-01
0.001402673217   	-5.9952996808e-01	8.9930198024e-01	-3.2948814803e-01	-7.6427404209e-01	4.3478589406e-01
0.001402688939   	-5.9952373288e-01	8.9929264823e-01	-3.2948464390e-01	-7.6426605483e-01	4.3478141093e-01
0.001402704662   	-5.9951751018e-01	8.9928333840e-01	-3.2948114673e-01	-7.6425808354e-01	4.3477693681e-01
0.001402720385   	-5.9951129996e-01	8.9927405074e-01	-3.2947765652e-01	-7.6425012822e-01	4.3477247170e-01
0.001402736108   	-5.9950510222e-01	8.9926478518e-01	-3.2947417329e-01	-7.6424218886e-01	4.3476801557e-01
0.00140275183    	-5.9949891693e-01	8.9925554168e-01	-3.2947069704e-01	-7.6423426545e-01	4.3476356841e-01
0.001402767553   	-5.9949274409e-01	8.9924632017e-01	-3.2946722778e-01	-7.6422635798e-01	4.3475913020e-01
0.001402783276   	-5.9948658365e-01	8.9923712060e-01	-3.2946376551e-01	-7.6421846640e-01	4.3475470089e-01
0.001402798998   	-5.9948043559e-01	8.9922794289e-01	-3.2946031023e-01	-7.6421059071e-01	4.3475028048e-01
0.001402814721   	-5.9947429988e-01	8.9921878695e-01	-3.2945686193e-01	-7.6420273085e-01	4.3474586892e-01
0.001402830444   	-5.9946817648e-01	8.9920965271e-01	-3.2945342061e-01	-7.6419488679e-01	4.3474146617e-01
0.001402846167   	-5.9946206535e-01	8.9920054008e-01	-3.2944998626e-01	-7.6418705848e-01	4.3473707222e-01
0.001402861889   	-5.9945596644e-01	8.9919144895e-01	-3.2944655888e-01	-7.6417924588e-01	4.3473268700e-01
0.001402877612   	-5.9944987970e-01	8.9918237924e-01	-3.2944313844e-01	-7.6417144892e-01	4.3472831048e-01
0.001402893335   	-5.9944380509e-01	8.9917333082e-01	-3.2943972493e-01	-7.6416366756e-01	4.3472394262e-01
0.001402909057   	-5.9943774254e-01	8.9916430359e-01	-3.2943631835e-01	-7.6415590172e-01	4.3471958337e-01
0.00140292478    	-5.9943169201e-01	8.9915529744e-01	-3.2943291866e-01	-7.6414815134e-01	4.3471523268e-01
0.001402940503   	-5.9942565342e-01	8.9914631224e-01	-3.2942952585e-01	-7.6414041635e-01	4.3471089050e-01
0.001402956226   	-5.9941962672e-01	8.9913734787e-01	-3.2942613990e-01	-7.6413269667e-01	4.3470655677e-01
0.001402971948   	-5.9941361183e-01	8.9912840420e-01	-3.2942276077e-01	-7.6412499222e-01	4.3470223145e-01
0.001402987671   	-5.9940760869e-01	8.9911948110e-01	-3.2941938846e-01	-7.6411730293e-01	4.3469791446e-01
0.001403003394   	-5.9940161723e-01	8.9911057842e-01	-3.2941602293e-01	-7.6410962870e-01	4.3469360577e-01
0.001403019116   	-5.9939563737e-01	8.9910169603e-01	-3.2941266414e-01	-7.6410196944e-01	4.3468930530e-01
0.001403034839   	-5.9938966903e-01	8.9909283378e-01	-3.2940931208e-01	-7.6409432507e-01	4.3468501299e-01
0.001403050562   	-5.9938371213e-01	8.9908399153e-01	-3.2940596671e-01	-7.6408669548e-01	4.3468072878e-01
0.001403066285   	-5.9937776659e-01	8.9907516912e-01	-3.2940262799e-01	-7.6407908059e-01	4.3467645260e-01
0.001403082007   	-5.9937183234e-01	8.9906636641e-01	-3.2939929589e-01	-7.6407148028e-01	4.3467218439e-01
0.00140309773    	-5.9936590927e-01	8.9905758322e-01	-3.2939597038e-01	-7.6406389446e-01	4.3466792408e-01
0.001403113453   	-5.9935999731e-01	8.9904881940e-01	-3.2939265141e-01	-7.6405632301e-01	4.3466367160e-01
0.001403129175   	-5.9935409636e-01	8.9904007479e-01	-3.2938933895e-01	-7.6404876583e-01	4.3465942688e-01
0.001403144898   	-5.9934820633e-01	8.9903134923e-01	-3.2938603296e-01	-7.6404122281e-01	4.3465518985e-01
0.001403160621   	-5.9934232714e-01	8.9902264254e-01	-3.2938273340e-01	-7.6403369384e-01	4.3465096044e-01
0.001403176343   	-5.9933645867e-01	8.9901395456e-01	-3.2937944022e-01	-7.6402617879e-01	4.3464673856e-01
0.001403192066   	-5.9933060085e-01	8.9900528511e-01	-3.2937615339e-01	-7.6401867755e-01	4.3464252416e-01
0.001403207789   	-5.9932475357e-01	8.9899663402e-01	-3.2937287286e-01	-7.6401119000e-01	4.3463831714e-01
0.001403223512   	-5.9931891673e-01	8.9898800111e-01	-3.2936959858e-01	-7.6400371601e-01	4.3463411744e-01
0.001403239234   	-5.9931309022e-01	8.9897938621e-01	-3.2936633051e-01	-7.6399625548e-01	4.3462992497e-01
0.001403254957   	-5.9930727396e-01	8.9897078913e-01	-3.2936306860e-01	-7.6398880826e-01	4.3462573966e-01
0.00140327068    	-5.9930146784e-01	8.9896220969e-01	-3.2935981280e-01	-7.6398137424e-01	4.3462156144e-01
0.001403286402   	-5.9929567175e-01	8.9895364772e-01	-3.2935656308e-01	-7.6397395328e-01	4.3461739021e-01
0.001403302125   	-5.9928988558e-01	8.9894510302e-01	-3.2935331937e-01	-7.6396654527e-01	4.3461322590e-01
0.001403317848   	-5.9928410924e-01	8.9893657542e-01	-3.2935008162e-01	-7.6395915005e-01	4.3460906843e-01
0.001403333571   	-5.9927834262e-01	8.9892806473e-01	-3.2934684980e-01	-7.6395176751e-01	4.3460491772e-01
0.001403349293   	-5.9927258560e-01	8.9891957075e-01	-3.2934362384e-01	-7.6394439752e-01	4.3460077368e-01
0.001403365016   	-5.9926683808e-01	8.9891109331e-01	-3.2934040369e-01	-7.6393703993e-01	4.3459663624e-01
0.001403380739   	-5.9926109996e-01	8.9890263221e-01	-3.2933718931e-01	-7.6392969461e-01	4.3459250530e-01
0.001403396461   	-5.9925537111e-01	8.9889418726e-01	-3.2933398064e-01	-7.6392236143e-01	4.3458838079e-01
0.001403412184   	-5.9924965144e-01	8.9888575827e-01	-3.2933077762e-01	-7.6391504025e-01	4.3458426263e-01
0.001403427907   	-5.9924394083e-01	8.9887734506e-01	-3.2932758021e-01	-7.6390773094e-01	4.3458015073e-01
0.00140344363    	-5.9923823917e-01	8.9886894743e-01	-3.2932438835e-01	-7.6390043335e-01	4.3457604500e-01
0.001403459352   	-5.9923254636e-01	8.9886056520e-01	-3.2932120199e-01	-7.6389314735e-01	4.3457194536e-01
0.001403475075   	-5.9922686227e-01	8.9885219816e-01	-3.2931802106e-01	-7.6388587280e-01	4.3456785173e-01
0.001403490798   	-5.9922118679e-01	8.9884384612e-01	-3.2931484553e-01	-7.6387860955e-01	4.3456376403e-01
0.00140350652    	-5.9921551982e-01	8.9883550891e-01	-3.2931167532e-01	-7.6387135748e-01	4.3455968216e-01
0.001403522243   	-5.9920986124e-01	8.9882718631e-01	-3.2930851039e-01	-7.6386411644e-01	4.3455560605e-01
0.001403537966   	-5.9920421095e-01	8.9881887815e-01	-3.2930535068e-01	-7.6385688628e-01	4.3455153561e-01
0.001403553689   	-5.9919856882e-01	8.9881058423e-01	-3.2930219613e-01	-7.6384966688e-01	4.3454747075e-01
0.001403569411   	-5.9919293474e-01	8.9880230436e-01	-3.2929904669e-01	-7.6384245808e-01	4.3454341140e-01
0.001403585134   	-5.9918730861e-01	8.9879403835e-01	-3.2929590230e-01	-7.6383525976e-01	4.3453935746e-01
0.001403600857   	-5.9918169030e-01	8.9878578601e-01	-3.2929276291e-01	-7.6382807176e-01	4.3453530885e-01
0.001403616579   	-5.9917607972e-01	8.9877754714e-01	-3.2928962845e-01	-7.6382089394e-01	4.3453126549e-01
0.001403632302   	-5.9917047674e-01	8.9876932156e-01	-3.2928649888e-01	-7.6381372618e-01	4.3452722730e-01
0.001403648025   	-5.9916488125e-01	8.9876110907e-01	-3.2928337413e-01	-7.6380656832e-01	4.3452319418e-01
0.001403663748   	-5.9915929314e-01	8.9875290950e-01	-3.2928025415e-01	-7.6379942022e-01	4.3451916607e-01
0.00140367947    	-5.9915371231e-01	8.9874472264e-01	-3.2927713889e-01	-7.6379228175e-01	4.3451514286e-01
0.001403695193   	-5.9914813863e-01	8.9873654832e-01	-3.2927402828e-01	-7.6378515277e-01	4.3451112449e-01
0.001403710916   	-5.9914257200e-01	8.9872838635e-01	-3.2927092227e-01	-7.6377803314e-01	4.3450711087e-01
0.001403726638   	-5.9913701231e-01	8.9872023654e-01	-3.2926782080e-01	-7.6377092271e-01	4.3450310191e-01
0.001403742361   	-5.9913145945e-01	8.9871209871e-01	-3.2926472382e-01	-7.6376382136e-01	4.3449909754e-01
0.001403758084   	-5.9912591330e-01	8.9870397266e-01	-3.2926163127e-01	-7.6375672894e-01	4.3449509767e-01
0.001403773807   	-5.9912037376e-01	8.9869585823e-01	-3.2925854309e-01	-7.6374964531e-01	4.3449110222e-01
0.001403789529   	-5.9911484072e-01	8.9868775523e-01	-3.2925545923e-01	-7.6374257034e-01	4.3448711111e-01
0.001403805252   	-5.9910931407e-01	8.9867966347e-01	-3.2925237963e-01	-7.6373550389e-01	4.3448312426e-01
0.001403820975   	-5.9910379371e-01	8.9867158277e-01	-3.2924930424e-01	-7.6372844583e-01	4.3447914159e-01
0.001403836697   	-5.9909827952e-01	8.9866351297e-01	-3.2924623299e-01	-7.6372139602e-01	4.3447516302e-01
0.00140385242    	-5.9909277140e-01	8.9865545387e-01	-3.2924316585e-01	-7.6371435432e-01	4.3447118847e-01
0.001403868143   	-5.9908726924e-01	8.9864740531e-01	-3.2924010274e-01	-7.6370732061e-01	4.3446721787e-01
0.001403883865   	-5.9908177294e-01	8.9863936711e-01	-3.2923704361e-01	-7.6370029474e-01	4.3446325113e-01
0.001403899588   	-5.9907628239e-01	8.9863133909e-01	-3.2923398842e-01	-7.6369327660e-01	4.3445928818e-01
0.001403915311   	-5.9907079749e-01	8.9862332108e-01	-3.2923093710e-01	-7.6368626604e-01	4.3445532894e-01
0.001403931034   	-5.9906531814e-01	8.9861531292e-01	-3.2922788960e-01	-7.6367926294e-01	4.3445137334e-01
0.001403946756   	-5.9905984423e-01	8.9860731442e-01	-3.2922484586e-01	-7.6367226716e-01	4.3444742129e-01
0.001403962479   	-5.9905437565e-01	8.9859932543e-01	-3.2922180585e-01	-7.6366527858e-01	4.3444347273e-01
0.001403978202   	-5.9904891232e-01	8.9859134577e-01	-3.2921876949e-01	-7.6365829707e-01	4.3443952758e-01
0.001403993924   	-5.9904345413e-01	8.9858337529e-01	-3.2921573673e-01	-7.6365132250e-01	4.3443558576e-01
0.001404009647   	-5.9903800098e-01	8.9857541380e-01	-3.2921270754e-01	-7.6364435475e-01	4.3443164721e-01