/*--------------------------------*- C++ -*----------------------------------*\
| =========                 |                                                 |
| \\      /  F ield         | OpenFOAM: The Open Source CFD Toolbox           |
|  \\    /   O peration     | Version:  v1706                                 |
|   \\  /    A nd           | Web:      www.OpenFOAM.com                      |
|    \\/     M anipulation  |                                                 |
\*---------------------------------------------------------------------------*/
FoamFile
{
    version     2.0;
    format      ascii;
    class       volVectorField;
    location    "8";
    object      fD_mixture;
}
// * * * * * * * * * * * * * * * * * * * * * * * * * * * * * * * * * * * * * //

dimensions      [1 -1 -2 0 0 0 0];


internalField   uniform (0 0 0);

boundaryField
{
    upperWall
    {
        type            calculated;
        value           nonuniform List<vector> 5((-0.0230991255 1.407474093 0.00012622738) (-0.02327777948 1.407895362 -5.297539434e-05) (-0.02374929482 1.407259127 -0.0001913248847) (-0.02323923453 1.407594059 0.0001563965024) (-0.0232364617 1.407173831 -8.790208428e-05));
    }
    lowerWall
    {
        type            calculated;
        value           nonuniform List<vector> 5((0.02336367746 -1.40747873 0.0002484399737) (0.0230977592 -1.40685107 0.000157859762) (0.02352208125 -1.407363412 -6.641033605e-05) (0.02354333473 -1.407821708 -0.0002469540045) (0.02309599941 -1.407876252 -4.491931007e-05));
    }
    periodicX_half0
    {
        type            cyclic;
    }
    periodicX_half1
    {
        type            cyclic;
    }
    frontAndBack
    {
        type            empty;
    }
}


// ************************************************************************* //
