/*--------------------------------*- C++ -*----------------------------------*\
| =========                 |                                                 |
| \\      /  F ield         | OpenFOAM: The Open Source CFD Toolbox           |
|  \\    /   O peration     | Version:  v1706                                 |
|   \\  /    A nd           | Web:      www.OpenFOAM.com                      |
|    \\/     M anipulation  |                                                 |
\*---------------------------------------------------------------------------*/
FoamFile
{
    version     2.0;
    format      ascii;
    class       volVectorField;
    location    "8";
    object      fD_N2;
}
// * * * * * * * * * * * * * * * * * * * * * * * * * * * * * * * * * * * * * //

dimensions      [1 -1 -2 0 0 0 0];


internalField   uniform (0 0 0);

boundaryField
{
    upperWall
    {
        type            calculated;
        value           nonuniform List<vector> 5((-0.01782368606 1.112473438 0.0001546086387) (-0.0182469846 1.113290556 -6.849597708e-05) (-0.01842028139 1.112481032 -0.0001958811938) (-0.01797959583 1.112596816 0.0001219775879) (-0.01805768723 1.112600871 6.401491328e-06));
    }
    lowerWall
    {
        type            calculated;
        value           nonuniform List<vector> 5((0.01804723379 -1.11071271 0.0002225679335) (0.01792114851 -1.110673516 0.0002027770032) (0.01803096351 -1.110926692 -4.432423211e-05) (0.01824014331 -1.11130233 -0.0001950022644) (0.01782962577 -1.111448967 1.981713489e-05));
    }
    periodicX_half0
    {
        type            cyclic;
    }
    periodicX_half1
    {
        type            cyclic;
    }
    frontAndBack
    {
        type            empty;
    }
}


// ************************************************************************* //
