/*--------------------------------*- C++ -*----------------------------------*\
| =========                 |                                                 |
| \\      /  F ield         | OpenFOAM: The Open Source CFD Toolbox           |
|  \\    /   O peration     | Version:  v1706                                 |
|   \\  /    A nd           | Web:      www.OpenFOAM.com                      |
|    \\/     M anipulation  |                                                 |
\*---------------------------------------------------------------------------*/
FoamFile
{
    version     2.0;
    format      ascii;
    class       volVectorField;
    location    "8";
    object      fD_O2;
}
// * * * * * * * * * * * * * * * * * * * * * * * * * * * * * * * * * * * * * //

dimensions      [1 -1 -2 0 0 0 0];


internalField   uniform (0 0 0);

boundaryField
{
    upperWall
    {
        type            calculated;
        value           nonuniform List<vector> 5((-0.005275439434 0.2950006548 -2.838125865e-05) (-0.005030794882 0.2946048064 1.552058275e-05) (-0.005329013435 0.2947780953 4.556309065e-06) (-0.005259638704 0.2949972435 3.441891445e-05) (-0.005178774471 0.2945729599 -9.43035756e-05));
    }
    lowerWall
    {
        type            calculated;
        value           nonuniform List<vector> 5((0.005316443666 -0.2967660204 2.587204023e-05) (0.005176610699 -0.2961775536 -4.491724115e-05) (0.005491117739 -0.2964367198 -2.208610394e-05) (0.005303191424 -0.2965193778 -5.195174014e-05) (0.00526637364 -0.2964272844 -6.473644497e-05));
    }
    periodicX_half0
    {
        type            cyclic;
    }
    periodicX_half1
    {
        type            cyclic;
    }
    frontAndBack
    {
        type            empty;
    }
}


// ************************************************************************* //
