/*--------------------------------*- C++ -*----------------------------------*\
| =========                 |                                                 |
| \\      /  F ield         | OpenFOAM: The Open Source CFD Toolbox           |
|  \\    /   O peration     | Version:  v1706                                 |
|   \\  /    A nd           | Web:      www.OpenFOAM.com                      |
|    \\/     M anipulation  |                                                 |
\*---------------------------------------------------------------------------*/
FoamFile
{
    version     2.0;
    format      ascii;
    class       volScalarField;
    location    "8";
    object      Ma_mixture;
}
// * * * * * * * * * * * * * * * * * * * * * * * * * * * * * * * * * * * * * //

dimensions      [0 0 0 0 0 0 0];


internalField   nonuniform List<scalar> 
500
(
0.01688121346
0.01681277527
0.01671859111
0.01669579323
0.0165954281
0.02125491948
0.02111994179
0.02119483565
0.02093888768
0.02131855504
0.02502523598
0.02494956399
0.02522825946
0.02526322583
0.02511714476
0.02868164357
0.02868232091
0.02855949133
0.02861846979
0.02843596087
0.03183549122
0.03201993381
0.03199342643
0.03174252653
0.03190418093
0.03505823374
0.03516349159
0.0350664152
0.03519471153
0.03504035142
0.03846175016
0.03838474738
0.038169647
0.03862593183
0.03852633689
0.04144857726
0.04155133213
0.04153337101
0.04160349873
0.04160738917
0.0445446259
0.04458634527
0.0446477897
0.04462089715
0.04456142704
0.04771896455
0.04765842548
0.04758152192
0.04759961414
0.04757915801
0.05069928131
0.05067489557
0.05078766251
0.05048006309
0.05087221609
0.05373975474
0.05363625005
0.05361437161
0.05375956048
0.05363785083
0.05638825889
0.05646234138
0.05640942344
0.05649271093
0.05652348939
0.05930503717
0.0594235204
0.05945435649
0.05939103392
0.05916147666
0.06229654297
0.06230805302
0.06219476344
0.06233890249
0.06217288584
0.06517517299
0.06519088881
0.06543708085
0.06523355687
0.06522028877
0.06823195888
0.06807080804
0.06812829651
0.06812105682
0.0681471002
0.07088282215
0.07077839236
0.07073409907
0.07098036505
0.0708283175
0.07379551382
0.07356638819
0.07381963966
0.07379368848
0.0736403049
0.07652397091
0.07640219527
0.0764277446
0.07648762849
0.07666587729
0.07923467707
0.07919339724
0.07908603437
0.07893684085
0.07908350164
0.08192677869
0.0820219382
0.08179937015
0.08212065705
0.08196845404
0.08482826815
0.08479641479
0.08491998072
0.08471319084
0.08463365123
0.0875832728
0.08748765849
0.08764738199
0.08746525201
0.08757238431
0.09030732545
0.09036040796
0.09026162775
0.09034543804
0.09018878759
0.09292652956
0.09273617291
0.09277445644
0.09273220063
0.09299806061
0.09541149493
0.09543624471
0.09545219094
0.09529279914
0.09537355231
0.09809631112
0.09801439071
0.09806592801
0.09823474008
0.09809263427
0.1006205854
0.1006326687
0.100746071
0.1007814133
0.1005149223
0.1033144639
0.103484624
0.1033282239
0.1033047349
0.1032928853
0.1059875247
0.1060830332
0.1058745085
0.1058665288
0.1058760823
0.1084991801
0.1084179509
0.1085415742
0.1083879704
0.108325693
0.1108521637
0.1109557105
0.1110206517
0.1107939749
0.1110747979
0.1133698211
0.1135572109
0.1136239659
0.1135430154
0.1136924025
0.1162248063
0.1161204935
0.1159147686
0.1158367212
0.1161543516
0.1185590976
0.1183413427
0.118440477
0.1184811104
0.1185869205
0.1207681826
0.1210854471
0.1211098266
0.1210381918
0.1209480127
0.1236133548
0.1233593581
0.1235255498
0.12365643
0.1236512956
0.1261701574
0.1261839383
0.1262216052
0.1260088958
0.126117634
0.1284655341
0.12855848
0.128486874
0.1284289467
0.1285336076
0.1308815702
0.1308575187
0.1309039531
0.1309096476
0.1307023158
0.1332909463
0.1332474964
0.133278867
0.1332223086
0.1332333717
0.1355071553
0.135627777
0.1356344965
0.1356420236
0.1357083592
0.1380044855
0.1381515081
0.1380371593
0.1380522269
0.1381029005
0.1403417197
0.1406546472
0.1404850831
0.1403939299
0.1405901345
0.142982151
0.1431269398
0.142908406
0.1431533505
0.1428606665
0.1454117911
0.1452730371
0.1454700072
0.1451375847
0.1452275517
0.1474213677
0.1474125038
0.1473437626
0.147541116
0.147455313
0.1500904859
0.1497538571
0.1499146984
0.1498065989
0.1499712248
0.1522764274
0.1524277518
0.1523009346
0.1524216761
0.1524085615
0.1545934119
0.1545844984
0.154796283
0.1548649662
0.1546059812
0.1566962126
0.1567286214
0.1567906711
0.1567117582
0.1567644649
0.1591662739
0.1591626551
0.1590873081
0.158992392
0.1590100566
0.1614376333
0.1615297818
0.1611076463
0.1615253947
0.1613948228
0.1635819154
0.1635579269
0.1637059052
0.1636916355
0.1637658243
0.1657450513
0.1659832358
0.1659081093
0.165974138
0.1657220954
0.168103418
0.16803273
0.1683175513
0.1680848954
0.1682268623
0.1703466409
0.1703827194
0.1704812209
0.1703260709
0.1703813321
0.1729117869
0.1728836717
0.1727185479
0.1726319628
0.1727965329
0.1747851604
0.174885158
0.1751743813
0.174869167
0.1751605674
0.1771799324
0.1770740882
0.1771934574
0.1773272442
0.1772445603
0.1795390855
0.1794192951
0.1793825451
0.1794524826
0.1793048788
0.1814903165
0.1817377541
0.1816341729
0.1815045848
0.1814336931
0.1838314646
0.1837325677
0.1836541071
0.1837299299
0.1838283131
0.185834235
0.1858944157
0.1858275384
0.1858971897
0.1859115559
0.1880891773
0.1879654529
0.1881334244
0.1883738681
0.1881300642
0.190342959
0.1901389636
0.1903802877
0.1901909835
0.1901726328
0.192321654
0.1922010706
0.1925383269
0.1923273431
0.1923473765
0.1946274277
0.1945551495
0.194351904
0.1943783672
0.1943904684
0.1967388864
0.1964894686
0.1965745655
0.1963347872
0.1967581648
0.1989415316
0.1989646626
0.1989450568
0.1991359695
0.1987134875
0.2009846782
0.2008304673
0.2009611862
0.2009332474
0.2008038853
0.2026675075
0.202866867
0.2029293556
0.2028057975
0.2028420808
0.2052513987
0.205055725
0.2049043707
0.2050559393
0.2051064216
0.2070550569
0.2072538217
0.2072594497
0.2071731643
0.207058675
0.2094588359
0.2093063875
0.2094572198
0.2092619225
0.2094920215
0.2113923351
0.2114064332
0.2112555359
0.2114175162
0.211309847
0.2132134213
0.2132179272
0.2134317418
0.2130814334
0.2132981391
0.2152947829
0.2153131781
0.2154839288
0.2154334696
0.2155154988
0.2174527175
0.2174066671
0.2172977538
0.217173634
0.2172410529
0.2193550535
0.2194214679
0.2195278407
0.219445618
0.2195993113
0.2213842648
0.2214524849
0.2215447315
0.2213887834
0.2215418012
0.2233870395
0.2235063065
0.2236383192
0.223497644
0.2237162162
0.2256133416
0.2256145926
0.2254580961
0.2255832292
0.2257439867
0.2274463191
0.2274429114
0.2273761825
0.2277140699
0.2273255023
0.229376988
0.2294062811
0.2292369099
0.2295520962
0.2293253895
0.2315476928
0.2315000837
0.231388731
0.2314476387
0.2314455967
0.2334420944
0.2335841443
0.2334231151
0.2335233549
0.2334170997
0.2354542653
0.235368059
0.2355834464
0.2355379427
0.2356213202
0.2374524802
0.2375847353
0.2374225032
0.237621864
0.2374421514
0.2395227848
0.239588238
0.2396501082
0.2395852928
0.239852007
0.2416749209
0.2416145968
0.2417515711
0.2416903854
0.2416964887
0.2437277257
0.243618226
0.2436207348
0.2436583382
0.2438439507
0.2458260243
0.2457878508
0.2458748572
0.2458670179
0.2456607324
0.2480456718
0.2478804372
0.2477924108
0.2480384007
0.2479076332
0.2499764828
0.2499398994
0.2501313117
0.2498832333
0.2501439235
0.2522323429
0.2523932303
0.2520196619
0.2519849226
0.2520522459
0.2543439446
0.2544355491
0.2542799158
0.2541721227
0.2544511643
0.2572149553
0.2569088965
0.2570067176
0.2572978931
0.2569498345
0.2595959414
0.2596004213
0.2599133786
0.259649763
0.259739074
)
;

boundaryField
{
    upperWall
    {
        type            calculated;
        value           nonuniform List<scalar> 5(0.2617504452 0.2612152511 0.2616072556 0.2617779884 0.2614171145);
    }
    lowerWall
    {
        type            calculated;
        value           nonuniform List<scalar> 5(0.01306074104 0.01665402848 0.01371230791 0.01398903078 0.01344776601);
    }
    periodicX_half0
    {
        type            cyclic;
    }
    periodicX_half1
    {
        type            cyclic;
    }
    frontAndBack
    {
        type            empty;
    }
}


// ************************************************************************* //
