/*--------------------------------*- C++ -*----------------------------------*\
| =========                 |                                                 |
| \\      /  F ield         | OpenFOAM: The Open Source CFD Toolbox           |
|  \\    /   O peration     | Version:  v1706                                 |
|   \\  /    A nd           | Web:      www.OpenFOAM.com                      |
|    \\/     M anipulation  |                                                 |
\*---------------------------------------------------------------------------*/
FoamFile
{
    version     2.0;
    format      ascii;
    class       volScalarField;
    location    "8";
    object      Ma_N2;
}
// * * * * * * * * * * * * * * * * * * * * * * * * * * * * * * * * * * * * * //

dimensions      [0 0 0 0 0 0 0];


internalField   nonuniform List<scalar> 
500
(
0.01662874409
0.01655580373
0.01651436545
0.01652672916
0.01638226843
0.0208807632
0.02082263652
0.02072217795
0.02048760822
0.02089914384
0.02459102687
0.02449607396
0.02479177778
0.02490717588
0.02455405172
0.02832002976
0.02822324921
0.02807751363
0.02821372804
0.02800527961
0.03140143827
0.03156548482
0.03151915995
0.03124664569
0.03147135927
0.03443414279
0.03463247282
0.03452088486
0.03467340901
0.03453643183
0.03795696582
0.03774224846
0.03750017023
0.03795667374
0.03791570912
0.04082525263
0.04094636695
0.04094618678
0.0409702676
0.04098334038
0.04398343893
0.04392846363
0.043992029
0.04402404581
0.0437813154
0.04697504892
0.04689159198
0.04690654438
0.04700265058
0.04696316058
0.05010725319
0.05017309917
0.05010898193
0.04977844854
0.05015011945
0.05309615123
0.05287081792
0.05296074347
0.05300264772
0.05295520873
0.05567081581
0.05585006849
0.05563183379
0.05575083456
0.05577943381
0.05852616338
0.05861694602
0.05863780716
0.05860846785
0.05834667545
0.06137117057
0.0613857795
0.0612559671
0.06136613499
0.06118211335
0.06419469779
0.06422579747
0.06447566559
0.06428525177
0.06422210254
0.06725198665
0.0671273333
0.06724176109
0.06714774139
0.06710625301
0.06989539321
0.06973148361
0.0696728105
0.06988576486
0.06980004289
0.07260951948
0.0724861851
0.07271727043
0.07266012537
0.07260096654
0.07532946523
0.07512205832
0.07525214957
0.07545625871
0.07554487492
0.07816872886
0.07803620496
0.07790947231
0.07773859485
0.07784836281
0.0806301845
0.08082150806
0.08048524813
0.08087076539
0.08076592216
0.08366632705
0.08357111239
0.08372013966
0.08351656454
0.083395838
0.08637480264
0.0862200087
0.08633184419
0.08633774661
0.08632971082
0.08900818309
0.08904240986
0.08894267909
0.08895548017
0.08893403438
0.09154012614
0.09141125515
0.0914796448
0.09138887169
0.09170248496
0.09407780183
0.09406880009
0.0939879618
0.09392351777
0.0939965055
0.09659322845
0.09659367187
0.09662299754
0.09670986106
0.09656953768
0.09905646454
0.09909650516
0.09915483872
0.09922100663
0.0990512705
0.1017987628
0.1019024101
0.10185901
0.1017407037
0.1017601137
0.1043854758
0.1044940519
0.1042676693
0.1042925047
0.10424972
0.1068501754
0.1067488147
0.1068245091
0.1067627277
0.1066227329
0.1093153941
0.109239508
0.1092895945
0.1092096572
0.1093505298
0.1116381504
0.1117809567
0.1119720507
0.1118375834
0.1119875009
0.1145555681
0.1145587446
0.1141432133
0.1142365479
0.1145174113
0.1168304869
0.1165555726
0.1166564207
0.1166889696
0.1168198538
0.1188884045
0.1194237597
0.1192259306
0.1192193498
0.1191622141
0.12180938
0.1215266193
0.1218300844
0.1218868787
0.1218763979
0.1243639607
0.1243035029
0.1243351914
0.1241496224
0.1242096166
0.1264615685
0.1266679175
0.1265744142
0.1265080718
0.1267665371
0.1288504894
0.1288414578
0.1289019685
0.1290512135
0.128732536
0.1313726563
0.131339959
0.1311821459
0.1311806907
0.1311829221
0.133408176
0.1336855176
0.1337029179
0.1337007271
0.1336926393
0.1360516153
0.136186329
0.1360082541
0.136009515
0.136030891
0.1383490583
0.1386453139
0.1384033611
0.1384862693
0.138540309
0.1408558249
0.1410580417
0.1408686456
0.1410096698
0.1408650303
0.143231987
0.1432094928
0.1433533041
0.1430421524
0.1431218938
0.1453537333
0.1453160128
0.1452319204
0.1453828007
0.1454527024
0.147977649
0.1475869152
0.1478383584
0.1476409858
0.1478524352
0.1500254825
0.1502196679
0.1500911779
0.1502299286
0.1502225322
0.1522974444
0.152299622
0.1524405291
0.1525069462
0.1523671817
0.1543447067
0.1544224979
0.1544698231
0.1543214451
0.1543298332
0.1568716334
0.1567498601
0.1566710504
0.1567976577
0.1567313008
0.1590797715
0.1592293684
0.1587352669
0.1591264202
0.1591196804
0.1612276101
0.1611965435
0.1613143664
0.1614017035
0.1613647385
0.1632847039
0.1634875882
0.1634419118
0.1635125101
0.1633488275
0.1656859482
0.1656643885
0.1658222089
0.165601382
0.1657253798
0.1678678659
0.1679846856
0.1680365492
0.1679677657
0.1679745471
0.1703897469
0.170300002
0.1701904136
0.1700940062
0.1703097332
0.172195896
0.1723237225
0.172483176
0.1723328396
0.1725838379
0.1745661458
0.174402201
0.1746138914
0.1747283507
0.1746169817
0.1769452718
0.1768123247
0.1768816066
0.176845365
0.1768331929
0.1789208617
0.1791653566
0.1790187836
0.1788663298
0.178823395
0.1811021287
0.1810605198
0.1810282771
0.1809858889
0.1812162701
0.1831476888
0.1832194749
0.1831677256
0.1832018157
0.1832189054
0.1854200495
0.1853984111
0.1855432418
0.1858092149
0.1854719182
0.1875817427
0.1874103719
0.1876186188
0.1874086551
0.187456698
0.1894816905
0.1893377276
0.1896326101
0.1895517713
0.1895827912
0.1917883072
0.1917421044
0.1914638425
0.1915547531
0.1916151957
0.1939013608
0.1938004167
0.1938222602
0.1935639598
0.1938908822
0.1958853327
0.1962420997
0.196058308
0.1963996063
0.1958672268
0.1980001365
0.1978708033
0.1979796144
0.1979868687
0.1979969653
0.1997513715
0.1997590026
0.2000035967
0.1997290851
0.1998033983
0.2022278255
0.2019852259
0.2017375214
0.2020528293
0.2021344837
0.2038486671
0.2042431919
0.2042503229
0.204125108
0.2039251383
0.2064705549
0.2061671288
0.2063530411
0.2061720552
0.20654581
0.2082780111
0.2082948811
0.2081823463
0.2082238936
0.2083088674
0.2101024116
0.2101818001
0.2104018736
0.2099543213
0.2101849218
0.2121471929
0.2120486077
0.212361339
0.2122311335
0.2122988549
0.2142928511
0.2141870232
0.2141169813
0.2140767122
0.214161042
0.2162573268
0.216252823
0.2164062944
0.2163244559
0.2164426891
0.2182772137
0.2181535403
0.2184863614
0.2182403839
0.2183056667
0.2202433873
0.2202331505
0.2204396423
0.2201502523
0.2204909922
0.2224256077
0.2224344798
0.2222757682
0.2223424836
0.2225733208
0.2240940322
0.2242534133
0.2240832135
0.2244975445
0.2240869275
0.2260649329
0.226075133
0.2258822044
0.2262660356
0.2258827933
0.2282910447
0.2281054295
0.2281315044
0.2281909391
0.2280045661
0.2300541559
0.2301822242
0.2301098989
0.2302271398
0.2299805039
0.2320471437
0.2319529965
0.2320635295
0.2321492642
0.2322704523
0.2341147906
0.23426439
0.2338828611
0.2340730059
0.2339192462
0.235987401
0.2361523917
0.2362192249
0.2361437865
0.236426975
0.2380933106
0.2380964715
0.2380990091
0.2381608441
0.2380908924
0.2401074533
0.2401104604
0.2398779374
0.2400819895
0.240199054
0.2422103859
0.2422888461
0.2424313778
0.2422724654
0.2420976036
0.2443895833
0.2442803027
0.244223189
0.2443244645
0.2444253812
0.2463850558
0.2462951093
0.246577851
0.246214879
0.2464614755
0.2484962806
0.2485467114
0.2483433047
0.2481874779
0.2483099174
0.2506498021
0.2506420798
0.2505800649
0.2504296599
0.2506873261
0.2534521819
0.2529605329
0.2532258156
0.2535452488
0.2530893138
0.2558769207
0.2558035313
0.256013044
0.2557627686
0.2556898995
)
;

boundaryField
{
    upperWall
    {
        type            calculated;
        value           nonuniform List<scalar> 5(0.2577986913 0.2575106031 0.2579928625 0.2579398251 0.2572127127);
    }
    lowerWall
    {
        type            calculated;
        value           nonuniform List<scalar> 5(0.01287378085 0.01360138781 0.01360562717 0.01412123221 0.01307307793);
    }
    periodicX_half0
    {
        type            cyclic;
    }
    periodicX_half1
    {
        type            cyclic;
    }
    frontAndBack
    {
        type            empty;
    }
}


// ************************************************************************* //
