/*--------------------------------*- C++ -*----------------------------------*\
| =========                 |                                                 |
| \\      /  F ield         | OpenFOAM: The Open Source CFD Toolbox           |
|  \\    /   O peration     | Version:  v1706                                 |
|   \\  /    A nd           | Web:      www.OpenFOAM.com                      |
|    \\/     M anipulation  |                                                 |
\*---------------------------------------------------------------------------*/
FoamFile
{
    version     2.0;
    format      ascii;
    class       volScalarField;
    location    "8";
    object      p_mixture;
}
// * * * * * * * * * * * * * * * * * * * * * * * * * * * * * * * * * * * * * //

dimensions      [1 -1 -2 0 0 0 0];


internalField   nonuniform List<scalar> 
500
(
1.402961196
1.40232235
1.403131177
1.403025459
1.402767063
1.403038763
1.403587743
1.403408481
1.404108459
1.403436278
1.404542538
1.404414307
1.40456968
1.404407065
1.403891326
1.405052834
1.404379505
1.405304306
1.404984067
1.404885766
1.405170716
1.405073203
1.405331365
1.4056591
1.405072888
1.405999094
1.405281353
1.405919689
1.405634963
1.405474095
1.405975601
1.406279075
1.405899041
1.406299618
1.405889154
1.406499475
1.406780197
1.40670262
1.406599022
1.406552391
1.406430983
1.406607583
1.406453785
1.406919652
1.406270703
1.407279268
1.406736266
1.406800373
1.406579039
1.406783354
1.406801041
1.406946143
1.407285171
1.40682302
1.406901056
1.407650063
1.406953362
1.40760744
1.406783598
1.407075382
1.407460292
1.407280837
1.407043359
1.40772857
1.407215038
1.407157675
1.407305727
1.407560048
1.407861619
1.40757757
1.407699415
1.407501817
1.407730444
1.407410813
1.407597067
1.407712065
1.407452465
1.407541525
1.407377953
1.40733899
1.407605995
1.407551565
1.40770681
1.40740459
1.407733576
1.407629494
1.407989945
1.407618991
1.407637064
1.408132184
1.408156861
1.407792971
1.407541797
1.408109733
1.407762957
1.4082271
1.408132031
1.407808966
1.407538428
1.40743015
1.407607724
1.407656327
1.407978338
1.407492718
1.407614694
1.407752683
1.40760103
1.408206632
1.407691118
1.407531272
1.407599594
1.407720487
1.407600097
1.407417225
1.407670661
1.408243289
1.407608215
1.407799988
1.408065956
1.407654121
1.407927256
1.407760624
1.408058763
1.407505289
1.407591561
1.408079512
1.408278673
1.408189799
1.407810935
1.407753883
1.408240106
1.407976642
1.408372821
1.407849525
1.407984874
1.408032993
1.408243952
1.408055388
1.407625396
1.407934134
1.407959115
1.40751306
1.40768241
1.408107566
1.407983811
1.407770819
1.407873889
1.407367971
1.408698729
1.407489746
1.40782677
1.407398047
1.40813079
1.407928112
1.408271843
1.40799716
1.408321219
1.40851513
1.407776822
1.408266243
1.407508655
1.407977923
1.407989218
1.407902178
1.408772045
1.407931855
1.408594011
1.408406711
1.407921544
1.408453252
1.407848366
1.407931146
1.408313697
1.407828265
1.408387086
1.407767511
1.407851836
1.407416137
1.407818896
1.408221678
1.408434485
1.407716306
1.407701785
1.408058204
1.407835456
1.407756117
1.407981069
1.408013773
1.40806577
1.407792837
1.408320508
1.40788758
1.407900869
1.408271249
1.408061732
1.408188817
1.408299471
1.408040918
1.407567218
1.408002119
1.407931674
1.408203953
1.407724953
1.407810731
1.408183976
1.40752582
1.407719785
1.408292482
1.408455445
1.408251202
1.407552653
1.408197714
1.408007401
1.40821656
1.408280265
1.408352979
1.408296032
1.408011619
1.407685457
1.407797479
1.407978975
1.408445153
1.407968776
1.408237413
1.40787077
1.408366247
1.40808442
1.40767187
1.407888205
1.408565542
1.407894208
1.40832603
1.407867163
1.408223808
1.408156311
1.407957673
1.407913126
1.407433992
1.407938282
1.407641789
1.4076057
1.408054005
1.408301378
1.407811353
1.408194283
1.40793767
1.407767592
1.408270985
1.408103875
1.408082969
1.407841993
1.408439565
1.407772165
1.407910039
1.408128777
1.408070942
1.408431308
1.408251951
1.408180995
1.408008288
1.407911145
1.408197435
1.408201368
1.408091076
1.408329483
1.408328385
1.408950109
1.408321121
1.40784589
1.40837023
1.40816549
1.408042029
1.408509409
1.40841482
1.408243897
1.408349299
1.408576259
1.408217535
1.408292667
1.4080999
1.408027273
1.408383683
1.40797059
1.408407994
1.408712591
1.408048646
1.408208652
1.408401015
1.408121944
1.407839601
1.408216558
1.408386711
1.40793708
1.407613167
1.407891127
1.408149792
1.408286467
1.407363235
1.40760136
1.407985857
1.408057956
1.408236536
1.407995969
1.408045245
1.407956509
1.407854032
1.408103392
1.408449083
1.408595677
1.407970584
1.408166736
1.408149536
1.408020569
1.408185542
1.408042129
1.407840807
1.407821253
1.407845108
1.407943427
1.408019775
1.408447425
1.408090431
1.407740734
1.408098577
1.408093278
1.407992365
1.408015558
1.40724556
1.40768941
1.408133606
1.407829295
1.40824241
1.407976283
1.407948093
1.408199522
1.408004724
1.408172566
1.40882236
1.408376384
1.407938475
1.407779728
1.408289699
1.408296787
1.408515218
1.408664632
1.408275718
1.408039158
1.408500978
1.408509912
1.40805455
1.40792192
1.408051993
1.408337633
1.408490268
1.408415644
1.408177174
1.40861028
1.407975777
1.408862186
1.409000023
1.408480131
1.408176257
1.408651217
1.408944191
1.40862774
1.408154064
1.40870346
1.408222965
1.408731089
1.408855039
1.408229652
1.40811011
1.408141395
1.408942587
1.408371149
1.408577817
1.408695632
1.408005044
1.408109908
1.409205875
1.408764655
1.408798286
1.408081583
1.408632122
1.408620267
1.408560487
1.408899115
1.408594162
1.408508455
1.408587935
1.408576081
1.408383787
1.408707824
1.408232684
1.408810678
1.408771603
1.408876551
1.408912709
1.408765157
1.408608088
1.408871293
1.408800683
1.408722886
1.408357188
1.408383916
1.408614943
1.408662156
1.409111479
1.408915479
1.408530096
1.408559717
1.408869796
1.408682417
1.409020366
1.408702337
1.408301159
1.408626702
1.408466545
1.408713732
1.408918314
1.409105574
1.409205933
1.409036449
1.408361172
1.408680255
1.409062944
1.409078772
1.409305319
1.408801238
1.40913602
1.409417349
1.409019461
1.408981688
1.409068103
1.409000973
1.408726138
1.409663945
1.409186557
1.409286222
1.408628922
1.409307323
1.409850821
1.40910457
1.409677317
1.408840259
1.409419661
1.409311927
1.409740149
1.409202546
1.409163102
1.410106682
1.409386621
1.409664586
1.409588145
1.409555724
1.409808915
1.409765609
1.409493697
1.410143891
1.409467818
1.41008141
1.410121085
1.409961432
1.409818325
1.409954978
1.409891019
1.4105288
1.410087804
1.409771824
1.409902975
1.410311914
1.410503883
1.410666434
1.410560456
1.410119529
1.410743995
1.410544377
1.411022055
1.410515685
1.411048382
1.410641706
1.41056976
1.410960014
1.410213427
1.4109776
1.411067773
1.410879083
1.410660948
1.411487033
1.411338634
1.410890831
1.411662596
1.411811901
1.411692866
1.412305921
1.412145138
1.412077418
1.412129761
1.41238721
1.411860604
)
;

boundaryField
{
    upperWall
    {
        type            calculated;
        value           nonuniform List<scalar> 5(1.407474093 1.407895362 1.407259127 1.407594059 1.407173831);
    }
    lowerWall
    {
        type            calculated;
        value           nonuniform List<scalar> 5(1.40747873 1.40685107 1.407363412 1.407821708 1.407876252);
    }
    periodicX_half0
    {
        type            cyclic;
    }
    periodicX_half1
    {
        type            cyclic;
    }
    frontAndBack
    {
        type            empty;
    }
}


// ************************************************************************* //
