/*--------------------------------*- C++ -*----------------------------------*\
| =========                 |                                                 |
| \\      /  F ield         | OpenFOAM: The Open Source CFD Toolbox           |
|  \\    /   O peration     | Version:  v1706                                 |
|   \\  /    A nd           | Web:      www.OpenFOAM.com                      |
|    \\/     M anipulation  |                                                 |
\*---------------------------------------------------------------------------*/
FoamFile
{
    version     2.0;
    format      ascii;
    class       volScalarField;
    location    "8";
    object      p_O2;
}
// * * * * * * * * * * * * * * * * * * * * * * * * * * * * * * * * * * * * * //

dimensions      [1 -1 -2 0 0 0 0];


internalField   nonuniform List<scalar> 
500
(
0.2955677258
0.2952872532
0.2954326141
0.2953711911
0.2954927539
0.2955594798
0.2957858861
0.2953208889
0.2957937412
0.2955083024
0.2956661677
0.2958118339
0.2958464428
0.2959101224
0.295421028
0.295823568
0.2955613729
0.2956752107
0.2959183354
0.295781892
0.295839997
0.2957326429
0.2957408675
0.2960060023
0.2958713552
0.295776162
0.2957739227
0.2960457296
0.2958529496
0.2959109944
0.2961336578
0.2961069007
0.2959335182
0.2961016747
0.295931414
0.2958748659
0.2960428218
0.2959997764
0.2960597422
0.2960965169
0.2958885095
0.296039502
0.2958650962
0.2960503031
0.2959434231
0.2960593019
0.296036013
0.2958988437
0.2961391074
0.2960836539
0.2962176734
0.2960233038
0.2960090555
0.2960047025
0.2960140096
0.2962337526
0.2959549242
0.2961646661
0.2960541106
0.2959678039
0.2963144296
0.2960052476
0.2959967988
0.2961848025
0.2960856347
0.2958847355
0.2960068598
0.2961255334
0.2961294732
0.2960273025
0.2960866928
0.2961748727
0.2961651825
0.2960076164
0.2960959483
0.2960631774
0.2958779673
0.2961245083
0.295860708
0.2959731762
0.2960472175
0.2961941476
0.2960895612
0.2959677041
0.2961753837
0.2960077235
0.2962911549
0.2961573582
0.2960596758
0.2961154173
0.2962035811
0.296176799
0.2961660711
0.2961885888
0.2961276936
0.2962271418
0.2961778886
0.2961130257
0.2961005816
0.2960042599
0.2959548507
0.295990112
0.2961873269
0.2960812486
0.2962556546
0.2960228046
0.2959871187
0.2959683701
0.2958811518
0.295915836
0.2959987984
0.2959712206
0.2959240668
0.2959195935
0.2957333499
0.2960057844
0.2960532297
0.2960277264
0.296030234
0.2959409814
0.2961713979
0.2959014523
0.2960864855
0.2960095931
0.2959710694
0.2958710208
0.2958113873
0.2960022787
0.2957264278
0.2958016744
0.2960976574
0.2958666216
0.2959411867
0.2958220982
0.2958133281
0.2959980939
0.2957916288
0.2959188277
0.2957796104
0.2958482344
0.2959133786
0.2958242068
0.2955967772
0.2959426193
0.2960323075
0.295793398
0.2957854666
0.2957071385
0.2960905537
0.2960003611
0.2958540982
0.2957931163
0.2957930069
0.2957279883
0.2960941918
0.2958885204
0.2958766015
0.2960669615
0.295643668
0.2957776994
0.2957650644
0.2957631026
0.2957600398
0.295741411
0.2960801705
0.2957188533
0.2957921665
0.2957916829
0.2956417415
0.2960231602
0.2956325481
0.295771925
0.2958770959
0.2957692102
0.2957185351
0.2957092213
0.2958506943
0.2955220925
0.2956370841
0.2958347617
0.2957609978
0.2958089323
0.295711472
0.295889348
0.2960576782
0.2955777982
0.2957473612
0.2959820431
0.2956638945
0.295646978
0.2955923943
0.2958202136
0.2957326805
0.295849166
0.2956695719
0.2958813808
0.2959180331
0.2957863709
0.2956994418
0.2957508709
0.2957298824
0.2954071851
0.2955993496
0.2956525584
0.2957166144
0.2954158891
0.2956524525
0.2958325351
0.2955637794
0.2953499837
0.2955031919
0.295484617
0.2956247106
0.2955768725
0.2955261102
0.2956975498
0.2954764837
0.2953609975
0.2953402291
0.2954164947
0.2955349653
0.2955218621
0.2955833772
0.2956664901
0.2953600159
0.2953892598
0.2954032901
0.2953554512
0.2954507672
0.2955733192
0.2954480007
0.2956165361
0.2954393899
0.295571041
0.2955337065
0.2955114203
0.2954830086
0.2953195427
0.2955800231
0.2952406634
0.2954947425
0.2956167492
0.2955494889
0.2953065685
0.2956410794
0.29540804
0.2953658749
0.2954342895
0.2955165087
0.2956278261
0.2954556498
0.2957354022
0.2953901832
0.2955890062
0.2954154243
0.2955859561
0.2954204485
0.295724394
0.2956494654
0.295687058
0.2956600361
0.2955309814
0.2957233857
0.295395411
0.2956921202
0.2957296762
0.2957672552
0.2956123485
0.2954264744
0.2955629268
0.2954161052
0.2954207308
0.2954471244
0.2957971055
0.2954706208
0.2955320447
0.2954572689
0.2953465818
0.2957107484
0.2955767399
0.295554046
0.2956637743
0.2955855583
0.2954957296
0.295725118
0.2954767486
0.2956060529
0.2956304859
0.2956254967
0.2955341947
0.2955796153
0.295486071
0.2954239469
0.2955659035
0.295337743
0.2953907644
0.2954534784
0.295162174
0.2950433476
0.2954055847
0.2954491506
0.2953515403
0.295444421
0.2955453408
0.2954132517
0.2955225205
0.295308992
0.2956230499
0.2955595318
0.2955211537
0.2955706181
0.2955219945
0.2954959826
0.2952842789
0.2954638236
0.2952635555
0.2952296427
0.2953675445
0.2953285346
0.2954580686
0.2955624681
0.2954661694
0.2951744852
0.2953362828
0.2954131587
0.2954202407
0.2954103057
0.2951619293
0.2953222808
0.2954456461
0.2952723105
0.2954506669
0.295288517
0.2953969749
0.2954529751
0.2951981346
0.2952719922
0.2955013469
0.295282538
0.2952485019
0.2951308372
0.295269013
0.2951649683
0.2954595911
0.2953243946
0.2954354086
0.2954298213
0.2951699608
0.2956063896
0.2953026596
0.2953724232
0.2953746098
0.2952064238
0.29523845
0.2954924067
0.2953992921
0.2954598854
0.2951603374
0.2956280063
0.2954095246
0.2954520741
0.2952699478
0.295563045
0.2955441229
0.2955385309
0.295310397
0.2954164944
0.2953405657
0.2955372518
0.2955337211
0.2951355754
0.2952897567
0.295333449
0.2955970822
0.2952658169
0.295245757
0.2952861924
0.2953230133
0.2953472837
0.2955710565
0.2954684946
0.2953297244
0.2950163734
0.2951355741
0.2952525113
0.2954094037
0.2952334656
0.2952850392
0.2953922336
0.2953838136
0.2950591152
0.2952933608
0.295407597
0.2952619796
0.295431199
0.2953340791
0.2953542375
0.2956067716
0.2954531862
0.2954341263
0.2952433181
0.2951776038
0.2955638069
0.2954014097
0.2954224875
0.295358394
0.295144061
0.2954069159
0.2952719646
0.2952314063
0.2952787713
0.2953227744
0.2951909511
0.295221161
0.2953267166
0.2952072516
0.2952964715
0.2952055991
0.2952994558
0.2954398173
0.2956335266
0.2955593382
0.2955285759
0.2953299692
0.2952862264
0.2953112009
0.2952207507
0.2951946305
0.2954606287
0.2951738366
0.2951878165
0.2952165481
0.2953699637
0.295360186
0.2954217155
0.2953620533
0.2954078116
0.2954590164
0.2953396142
0.2951639046
0.2953895752
0.2956412058
0.2956108158
0.2954256634
0.2955575968
0.2954395579
0.295393647
0.295493709
0.2955362807
0.2952227353
0.2956655665
0.2956883916
0.2954529716
0.2955643227
0.2954564506
0.2954158193
0.2955891794
0.2955957254
0.2954005463
0.2953773854
0.2958523251
0.2954621024
0.2954352018
0.2954970018
0.2955867397
0.2954967003
0.2956282884
0.2955336481
0.2955639709
0.2953513357
0.2953032812
0.2953866274
0.2953903143
0.2955454596
0.2953972173
0.2956614177
0.2955001472
0.2955151742
0.2953855177
0.2953685017
0.2955588338
0.295442734
0.2955935942
0.2954693665
0.2954318214
0.2956092687
0.2955691051
0.2956807689
0.2955931624
0.2956611153
0.2959673633
0.295709794
0.2959186518
0.2957242475
0.2958875217
0.2960286367
0.2957933589
0.2957138555
0.2959712389
0.2959144734
)
;

boundaryField
{
    upperWall
    {
        type            calculated;
        value           nonuniform List<scalar> 5(0.2950006548 0.2946048064 0.2947780953 0.2949972435 0.2945729599);
    }
    lowerWall
    {
        type            calculated;
        value           nonuniform List<scalar> 5(0.2967660204 0.2961775536 0.2964367198 0.2965193778 0.2964272844);
    }
    periodicX_half0
    {
        type            cyclic;
    }
    periodicX_half1
    {
        type            cyclic;
    }
    frontAndBack
    {
        type            empty;
    }
}


// ************************************************************************* //
