/*--------------------------------*- C++ -*----------------------------------*\
| =========                 |                                                 |
| \\      /  F ield         | OpenFOAM: The Open Source CFD Toolbox           |
|  \\    /   O peration     | Version:  v1706                                 |
|   \\  /    A nd           | Web:      www.OpenFOAM.com                      |
|    \\/     M anipulation  |                                                 |
\*---------------------------------------------------------------------------*/
FoamFile
{
    version     2.0;
    format      ascii;
    class       volScalarField;
    location    "8";
    object      rhoM_N2;
}
// * * * * * * * * * * * * * * * * * * * * * * * * * * * * * * * * * * * * * //

dimensions      [1 -3 0 0 0 0 0];


internalField   nonuniform List<scalar> 
500
(
1.797304041e-06
1.796338516e-06
1.79756416e-06
1.797060263e-06
1.796975927e-06
1.785035776e-06
1.785604073e-06
1.785047481e-06
1.785721008e-06
1.785366846e-06
1.775705436e-06
1.775462577e-06
1.775577914e-06
1.774935149e-06
1.775482951e-06
1.766617197e-06
1.766356759e-06
1.76772223e-06
1.76684959e-06
1.766746038e-06
1.758552213e-06
1.757870696e-06
1.758202166e-06
1.759072329e-06
1.758172762e-06
1.75071227e-06
1.750119683e-06
1.750168342e-06
1.750319635e-06
1.750078294e-06
1.742237432e-06
1.742876481e-06
1.742480252e-06
1.742984827e-06
1.742505141e-06
1.735047765e-06
1.735232057e-06
1.735406801e-06
1.735238449e-06
1.735195941e-06
1.727470537e-06
1.727106147e-06
1.727344373e-06
1.727074227e-06
1.727737367e-06
1.720282348e-06
1.719904016e-06
1.719913684e-06
1.719584451e-06
1.720301923e-06
1.712200943e-06
1.712726174e-06
1.712823333e-06
1.71245399e-06
1.712451154e-06
1.705989306e-06
1.705414737e-06
1.705608337e-06
1.704748082e-06
1.705254975e-06
1.698413916e-06
1.698282878e-06
1.698106896e-06
1.69876648e-06
1.698047809e-06
1.691372066e-06
1.691353769e-06
1.691371746e-06
1.691536742e-06
1.691319251e-06
1.684535442e-06
1.684514867e-06
1.684851371e-06
1.684312678e-06
1.684726006e-06
1.678049824e-06
1.677998168e-06
1.677496548e-06
1.677833531e-06
1.678167079e-06
1.671133219e-06
1.670961192e-06
1.671176086e-06
1.671200416e-06
1.671093668e-06
1.664629943e-06
1.664733574e-06
1.664078944e-06
1.664480487e-06
1.664974636e-06
1.658670074e-06
1.657861954e-06
1.657720688e-06
1.658440878e-06
1.657922479e-06
1.651989937e-06
1.651962251e-06
1.651771087e-06
1.651423198e-06
1.651273383e-06
1.645076927e-06
1.644952042e-06
1.645682658e-06
1.6446948e-06
1.644604392e-06
1.638782113e-06
1.63889785e-06
1.639675009e-06
1.63916456e-06
1.63880053e-06
1.632489336e-06
1.6322766e-06
1.633012569e-06
1.63255154e-06
1.632868867e-06
1.626857422e-06
1.626206867e-06
1.627007876e-06
1.626925059e-06
1.626420563e-06
1.620482987e-06
1.620449508e-06
1.620746101e-06
1.620357302e-06
1.620467166e-06
1.615242029e-06
1.615194009e-06
1.615180785e-06
1.614592593e-06
1.614402667e-06
1.608931594e-06
1.609344004e-06
1.609114888e-06
1.608338288e-06
1.608743587e-06
1.602800777e-06
1.603253138e-06
1.602788113e-06
1.602901852e-06
1.603160453e-06
1.597084728e-06
1.596453149e-06
1.5968803e-06
1.597117567e-06
1.597547235e-06
1.591551292e-06
1.59126996e-06
1.591131411e-06
1.591897304e-06
1.590772335e-06
1.585344089e-06
1.585341692e-06
1.586363269e-06
1.58586936e-06
1.585815786e-06
1.580113079e-06
1.580010766e-06
1.580381587e-06
1.580059985e-06
1.580254984e-06
1.574500741e-06
1.574249891e-06
1.574618995e-06
1.574585436e-06
1.574963688e-06
1.569172651e-06
1.569409119e-06
1.56921376e-06
1.569016285e-06
1.569457219e-06
1.563655475e-06
1.563374862e-06
1.563681843e-06
1.563658831e-06
1.563892063e-06
1.55787131e-06
1.557664206e-06
1.558001668e-06
1.558181646e-06
1.558329862e-06
1.553031815e-06
1.552877007e-06
1.552357929e-06
1.552574901e-06
1.552305354e-06
1.547213092e-06
1.547054409e-06
1.547108342e-06
1.547251046e-06
1.547519513e-06
1.542467602e-06
1.541753326e-06
1.542078164e-06
1.541581059e-06
1.542127223e-06
1.536723507e-06
1.536781595e-06
1.536659706e-06
1.536229318e-06
1.536702613e-06
1.531642591e-06
1.53199096e-06
1.531485506e-06
1.53139286e-06
1.5316678e-06
1.526674656e-06
1.526246466e-06
1.526715406e-06
1.527079355e-06
1.526757833e-06
1.521321078e-06
1.521824056e-06
1.521579318e-06
1.521583114e-06
1.521540726e-06
1.516606429e-06
1.516729277e-06
1.516730635e-06
1.516529884e-06
1.516317626e-06
1.511915991e-06
1.512165322e-06
1.511378336e-06
1.512061371e-06
1.511957579e-06
1.507052127e-06
1.50701685e-06
1.50648331e-06
1.506672876e-06
1.507457585e-06
1.501945922e-06
1.502410188e-06
1.501832063e-06
1.502094059e-06
1.502429724e-06
1.496782349e-06
1.497036834e-06
1.496912508e-06
1.4972588e-06
1.496814469e-06
1.491951884e-06
1.492413672e-06
1.492724528e-06
1.492433887e-06
1.492291943e-06
1.487873568e-06
1.487422606e-06
1.487242828e-06
1.487719039e-06
1.487450811e-06
1.483031557e-06
1.482652426e-06
1.482239656e-06
1.482886496e-06
1.482897842e-06
1.478044485e-06
1.47846884e-06
1.477937538e-06
1.478125825e-06
1.477677899e-06
1.472919105e-06
1.473349013e-06
1.473154374e-06
1.473864735e-06
1.473598065e-06
1.468919652e-06
1.469619266e-06
1.469271057e-06
1.469178611e-06
1.469159275e-06
1.464574306e-06
1.46478936e-06
1.46483035e-06
1.464500637e-06
1.464531319e-06
1.459950385e-06
1.460327879e-06
1.460127606e-06
1.459854904e-06
1.459798853e-06
1.455325306e-06
1.45560476e-06
1.455437967e-06
1.456015452e-06
1.456036147e-06
1.450927625e-06
1.450955631e-06
1.451203125e-06
1.451141161e-06
1.450846046e-06
1.446730896e-06
1.446888661e-06
1.446707126e-06
1.446313333e-06
1.446258281e-06
1.44234588e-06
1.442796003e-06
1.442155755e-06
1.442382275e-06
1.442584585e-06
1.437933498e-06
1.43845721e-06
1.437916838e-06
1.43801212e-06
1.438123543e-06
1.433596981e-06
1.43404311e-06
1.43426931e-06
1.434232156e-06
1.433899367e-06
1.429619661e-06
1.429686698e-06
1.429803354e-06
1.42974962e-06
1.429566367e-06
1.425470473e-06
1.424983435e-06
1.425298126e-06
1.425453374e-06
1.425363086e-06
1.421757066e-06
1.421352566e-06
1.4211634e-06
1.421509612e-06
1.42131689e-06
1.417595213e-06
1.417591498e-06
1.416591016e-06
1.417060355e-06
1.41743661e-06
1.413077641e-06
1.413526886e-06
1.413125862e-06
1.413063778e-06
1.412923072e-06
1.409120016e-06
1.409341502e-06
1.409734936e-06
1.409547607e-06
1.409222489e-06
1.405273094e-06
1.405011218e-06
1.405422749e-06
1.405861726e-06
1.40580212e-06
1.401385663e-06
1.401068974e-06
1.401748454e-06
1.401246235e-06
1.401474433e-06
1.397105756e-06
1.397344901e-06
1.39746647e-06
1.397637658e-06
1.397318533e-06
1.39319819e-06
1.3938692e-06
1.393353198e-06
1.393670525e-06
1.394069512e-06
1.3893895e-06
1.389468523e-06
1.389887564e-06
1.390040415e-06
1.389443354e-06
1.38544406e-06
1.386062016e-06
1.385377703e-06
1.386027619e-06
1.385943643e-06
1.382120531e-06
1.381637569e-06
1.381609483e-06
1.38247729e-06
1.381948424e-06
1.378387908e-06
1.378600805e-06
1.377960157e-06
1.377838827e-06
1.378556699e-06
1.374516936e-06
1.375042486e-06
1.37461094e-06
1.37491784e-06
1.37455393e-06
1.370542811e-06
1.371291126e-06
1.370573653e-06
1.370651277e-06
1.370658628e-06
1.367741676e-06
1.367258634e-06
1.367278769e-06
1.367160914e-06
1.367360867e-06
1.363571274e-06
1.363598321e-06
1.363219749e-06
1.363370203e-06
1.363183993e-06
1.359834616e-06
1.359668382e-06
1.35916864e-06
1.3595083e-06
1.359674334e-06
1.355833845e-06
1.355935479e-06
1.356204466e-06
1.356295833e-06
1.355980623e-06
1.352057156e-06
1.352310602e-06
1.352395897e-06
1.352420107e-06
1.352260944e-06
1.348486412e-06
1.348842452e-06
1.348583932e-06
1.348831066e-06
1.348379944e-06
1.345148341e-06
1.345105195e-06
1.345309022e-06
1.344553836e-06
1.345010592e-06
1.341803319e-06
1.341880263e-06
1.34199588e-06
1.341409885e-06
1.341978302e-06
1.338367648e-06
1.338063944e-06
1.337779775e-06
1.337809978e-06
1.338053996e-06
1.334115068e-06
1.334925506e-06
1.33422673e-06
1.33474429e-06
1.333808247e-06
1.331141865e-06
1.331161601e-06
1.330921059e-06
1.33146151e-06
1.330225559e-06
1.327499371e-06
1.327372608e-06
1.327211846e-06
1.327253275e-06
1.327380278e-06
1.324056389e-06
1.32348154e-06
1.323575904e-06
1.323946166e-06
1.324062302e-06
1.32026368e-06
1.319863855e-06
1.320054739e-06
1.32072467e-06
1.320296799e-06
1.316234424e-06
1.316785223e-06
1.316737122e-06
1.316605485e-06
1.316709836e-06
1.313047326e-06
1.313397133e-06
1.313207967e-06
1.312976653e-06
1.313232177e-06
1.309722479e-06
1.309782924e-06
1.310057145e-06
1.309935096e-06
1.309938971e-06
1.306240665e-06
1.305991733e-06
1.306376777e-06
1.306326599e-06
1.306485083e-06
1.301944139e-06
1.302292668e-06
1.301993598e-06
1.301917732e-06
1.302533331e-06
1.298059744e-06
1.298109682e-06
1.297830947e-06
1.298374515e-06
1.29833005e-06
1.293182576e-06
1.293825621e-06
1.293804807e-06
1.293727502e-06
1.294371426e-06
1.288135539e-06
1.288816417e-06
1.288798759e-06
1.288665603e-06
1.28849801e-06
)
;

boundaryField
{
    upperWall
    {
        type            calculated;
        value           nonuniform List<scalar> 5(1.283520509e-06 1.286635365e-06 1.286085466e-06 1.284533379e-06 1.285745903e-06);
    }
    lowerWall
    {
        type            calculated;
        value           nonuniform List<scalar> 5(1.805965521e-06 1.804527713e-06 1.806078313e-06 1.80682231e-06 1.806183055e-06);
    }
    periodicX_half0
    {
        type            cyclic;
    }
    periodicX_half1
    {
        type            cyclic;
    }
    frontAndBack
    {
        type            empty;
    }
}


// ************************************************************************* //
