/*--------------------------------*- C++ -*----------------------------------*\
| =========                 |                                                 |
| \\      /  F ield         | OpenFOAM: The Open Source CFD Toolbox           |
|  \\    /   O peration     | Version:  v1706                                 |
|   \\  /    A nd           | Web:      www.OpenFOAM.com                      |
|    \\/     M anipulation  |                                                 |
\*---------------------------------------------------------------------------*/
FoamFile
{
    version     2.0;
    format      ascii;
    class       volScalarField;
    location    "8";
    object      rhoN_O2;
}
// * * * * * * * * * * * * * * * * * * * * * * * * * * * * * * * * * * * * * //

dimensions      [0 -3 0 0 0 0 0];


internalField   nonuniform List<scalar> 
500
(
1.030907092e+19
1.030377854e+19
1.030607591e+19
1.03072856e+19
1.031071448e+19
1.024013167e+19
1.024654181e+19
1.023396897e+19
1.024332342e+19
1.02372097e+19
1.018278067e+19
1.018368794e+19
1.018513475e+19
1.01887303e+19
1.017818765e+19
1.013364145e+19
1.012391843e+19
1.012847279e+19
1.012978214e+19
1.013097293e+19
1.008280369e+19
1.007927515e+19
1.007679649e+19
1.008404173e+19
1.008164211e+19
1.003458204e+19
1.002811005e+19
1.003321513e+19
1.003155181e+19
1.003496952e+19
9.992658841e+18
9.992672588e+18
9.983751149e+18
9.989567611e+18
9.982581843e+18
9.94227299e+18
9.945191531e+18
9.942693975e+18
9.943395043e+18
9.944417435e+18
9.899339427e+18
9.89844419e+18
9.895045383e+18
9.901582674e+18
9.90158697e+18
9.853962434e+18
9.852445171e+18
9.849856545e+18
9.855898105e+18
9.859939558e+18
9.813016091e+18
9.811265138e+18
9.811315828e+18
9.81115173e+18
9.813927651e+18
9.774697035e+18
9.76841749e+18
9.77269521e+18
9.771649621e+18
9.768546363e+18
9.737130597e+18
9.730821841e+18
9.731234234e+18
9.733895888e+18
9.730978206e+18
9.68826029e+18
9.698290894e+18
9.691052536e+18
9.691989871e+18
9.68784532e+18
9.650698148e+18
9.653153605e+18
9.650367374e+18
9.646565625e+18
9.651808173e+18
9.612001065e+18
9.606538574e+18
9.61252343e+18
9.606530842e+18
9.606977601e+18
9.56981926e+18
9.576593677e+18
9.572686252e+18
9.57305311e+18
9.573905389e+18
9.534649857e+18
9.538475663e+18
9.536599274e+18
9.531310332e+18
9.537233328e+18
9.494054907e+18
9.496953687e+18
9.495912394e+18
9.494766285e+18
9.49555155e+18
9.460533358e+18
9.462189804e+18
9.457662071e+18
9.460867568e+18
9.458125154e+18
9.420784672e+18
9.419690971e+18
9.424665464e+18
9.4233312e+18
9.424805506e+18
9.383835965e+18
9.382532631e+18
9.383225967e+18
9.378256629e+18
9.380889072e+18
9.346663018e+18
9.347446565e+18
9.347484368e+18
9.344802953e+18
9.340510628e+18
9.311566643e+18
9.315068548e+18
9.313203328e+18
9.31193522e+18
9.307196135e+18
9.277434237e+18
9.273287108e+18
9.280273736e+18
9.274733062e+18
9.277934264e+18
9.234567688e+18
9.234724913e+18
9.236447513e+18
9.232412933e+18
9.2393188e+18
9.204129637e+18
9.200488549e+18
9.200080452e+18
9.203733568e+18
9.201993784e+18
9.169792752e+18
9.167156873e+18
9.166253044e+18
9.165359526e+18
9.168222222e+18
9.136783258e+18
9.135880289e+18
9.125768925e+18
9.135814134e+18
9.1403496e+18
9.103659497e+18
9.101838953e+18
9.096980446e+18
9.106179391e+18
9.103915524e+18
9.067718575e+18
9.06788611e+18
9.069018473e+18
9.066707353e+18
9.075693227e+18
9.039391462e+18
9.039816742e+18
9.042918282e+18
9.033896323e+18
9.035858627e+18
9.001092166e+18
9.000838716e+18
9.004349213e+18
8.999319735e+18
9.008973171e+18
8.972238392e+18
8.967046534e+18
8.971369789e+18
8.968605896e+18
8.973991922e+18
8.931371091e+18
8.9349907e+18
8.940551993e+18
8.94024098e+18
8.941268526e+18
8.907251246e+18
8.911685332e+18
8.903854158e+18
8.90986307e+18
8.911378614e+18
8.878927569e+18
8.881946631e+18
8.876233268e+18
8.878978259e+18
8.884109117e+18
8.842875817e+18
8.843315703e+18
8.851291214e+18
8.847310761e+18
8.845202401e+18
8.816773049e+18
8.815969741e+18
8.814983434e+18
8.819546393e+18
8.81763392e+18
8.788555048e+18
8.789027582e+18
8.790351535e+18
8.788585977e+18
8.790854139e+18
8.758065448e+18
8.752540239e+18
8.754836753e+18
8.752769632e+18
8.757756153e+18
8.720279925e+18
8.721513668e+18
8.725551685e+18
8.720727544e+18
8.72027563e+18
8.698996143e+18
8.694461537e+18
8.694989057e+18
8.691632348e+18
8.693800849e+18
8.670110581e+18
8.66619886e+18
8.663819867e+18
8.660316243e+18
8.662189196e+18
8.636310667e+18
8.637373438e+18
8.638022098e+18
8.63676344e+18
8.635943808e+18
8.606489487e+18
8.605631194e+18
8.608167412e+18
8.606169882e+18
8.608663143e+18
8.576711265e+18
8.581412547e+18
8.577833318e+18
8.580320564e+18
8.578651231e+18
8.552205661e+18
8.549497613e+18
8.551023468e+18
8.552386083e+18
8.547922787e+18
8.525837415e+18
8.528743069e+18
8.52713989e+18
8.519596532e+18
8.529913234e+18
8.50156722e+18
8.496492206e+18
8.496687234e+18
8.49928617e+18
8.499317959e+18
8.469857623e+18
8.475803817e+18
8.470958197e+18
8.47313443e+18
8.467727784e+18
8.445414738e+18
8.441547693e+18
8.448375377e+18
8.446034186e+18
8.447403675e+18
8.419924545e+18
8.420693487e+18
8.419002675e+18
8.416729358e+18
8.417957945e+18
8.392999568e+18
8.396825374e+18
8.389294903e+18
8.386056758e+18
8.392128388e+18
8.361324338e+18
8.361495309e+18
8.362709292e+18
8.36569141e+18
8.363720514e+18
8.341123088e+18
8.331784101e+18
8.333824588e+18
8.337992337e+18
8.340374766e+18
8.312149033e+18
8.312599229e+18
8.313110424e+18
8.309259703e+18
8.317693143e+18
8.287212994e+18
8.284726607e+18
8.2878144e+18
8.287377092e+18
8.289230284e+18
8.261553548e+18
8.264300259e+18
8.262427306e+18
8.262765812e+18
8.260287158e+18
8.235762653e+18
8.238407124e+18
8.230662724e+18
8.22918756e+18
8.237415662e+18
8.209554209e+18
8.214044999e+18
8.215380121e+18
8.213738281e+18
8.209363477e+18
8.187418148e+18
8.186619136e+18
8.191961346e+18
8.190331533e+18
8.191909796e+18
8.163293149e+18
8.164612807e+18
8.162564587e+18
8.160640086e+18
8.161549069e+18
8.135438569e+18
8.137531464e+18
8.135495273e+18
8.135664526e+18
8.139264375e+18
8.114943489e+18
8.119934305e+18
8.11026884e+18
8.113976083e+18
8.113820576e+18
8.092679414e+18
8.087944625e+18
8.088168863e+18
8.093604721e+18
8.087120698e+18
8.062658052e+18
8.066196041e+18
8.067610206e+18
8.068286359e+18
8.067942698e+18
8.040487624e+18
8.041741987e+18
8.04746566e+18
8.039679162e+18
8.044521345e+18
8.017629875e+18
8.020213346e+18
8.021621497e+18
8.023080337e+18
8.023880208e+18
8.000649587e+18
7.999305013e+18
7.996210346e+18
8.000027561e+18
7.997346146e+18
7.979558255e+18
7.976133673e+18
7.975491027e+18
7.975468689e+18
7.978784159e+18
7.952531898e+18
7.955764029e+18
7.949816976e+18
7.958549401e+18
7.956404098e+18
7.933208702e+18
7.931222341e+18
7.934509458e+18
7.934945908e+18
7.937535393e+18
7.909287322e+18
7.912272017e+18
7.914588292e+18
7.91332276e+18
7.915733542e+18
7.882838315e+18
7.886546417e+18
7.888891903e+18
7.894267619e+18
7.888271595e+18
7.861262421e+18
7.859860285e+18
7.864647482e+18
7.867200023e+18
7.869416637e+18
7.844222852e+18
7.841458959e+18
7.839263824e+18
7.836666607e+18
7.84535006e+18
7.8216512e+18
7.818267858e+18
7.818259267e+18
7.821782651e+18
7.823512124e+18
7.796905034e+18
7.799820997e+18
7.799948152e+18
7.798076918e+18
7.801837428e+18
7.776887642e+18
7.779937633e+18
7.782430894e+18
7.784546127e+18
7.782868202e+18
7.754999876e+18
7.754136428e+18
7.760450339e+18
7.758422739e+18
7.762526051e+18
7.737999828e+18
7.732660196e+18
7.742491476e+18
7.734299458e+18
7.731805339e+18
7.713145408e+18
7.715447937e+18
7.71104564e+18
7.711182245e+18
7.714886051e+18
7.68892848e+18
7.692782637e+18
7.689035015e+18
7.693774099e+18
7.691821246e+18
7.679462339e+18
7.672626063e+18
7.677664133e+18
7.674441452e+18
7.671538376e+18
7.652779643e+18
7.651492633e+18
7.64791684e+18
7.653538274e+18
7.650981437e+18
7.630244076e+18
7.626933761e+18
7.633778629e+18
7.629982893e+18
7.628791249e+18
7.612032622e+18
7.61335228e+18
7.614981233e+18
7.609992135e+18
7.605818373e+18
7.592868369e+18
7.596977695e+18
7.597882382e+18
7.59227985e+18
7.590656911e+18
7.574365663e+18
7.57255457e+18
7.573798623e+18
7.572149909e+18
7.567311163e+18
7.556055407e+18
7.552226165e+18
7.55228201e+18
7.549543032e+18
7.550714057e+18
7.529563444e+18
7.53547613e+18
7.531878859e+18
7.530705257e+18
7.52930312e+18
7.5157414e+18
7.513595237e+18
7.506774426e+18
7.507499551e+18
7.510153473e+18
7.48902262e+18
7.489590519e+18
7.487433188e+18
7.486808584e+18
7.488358495e+18
7.466086687e+18
7.467735401e+18
7.464462889e+18
7.469922803e+18
7.467560134e+18
7.446662111e+18
7.446114831e+18
7.445577002e+18
7.446564168e+18
7.446112253e+18
7.420772413e+18
7.422767365e+18
7.425612018e+18
7.422651379e+18
7.422836097e+18
7.40205406e+18
7.398843407e+18
7.401533413e+18
7.39771534e+18
7.401698371e+18
7.383379523e+18
7.377527836e+18
7.380547757e+18
7.377853455e+18
7.38175143e+18
7.35154535e+18
7.349614834e+18
7.346583745e+18
7.354041187e+18
7.348712724e+18
)
;

boundaryField
{
    upperWall
    {
        type            calculated;
        value           nonuniform List<scalar> 5(7.331158068e+18 7.328418838e+18 7.329887198e+18 7.3284405e+18 7.317908346e+18);
    }
    lowerWall
    {
        type            calculated;
        value           nonuniform List<scalar> 5(1.037095407e+19 1.051047539e+19 1.035103098e+19 1.035223534e+19 1.036736008e+19);
    }
    periodicX_half0
    {
        type            cyclic;
    }
    periodicX_half1
    {
        type            cyclic;
    }
    frontAndBack
    {
        type            empty;
    }
}


// ************************************************************************* //
