/*--------------------------------*- C++ -*----------------------------------*\
| =========                 |                                                 |
| \\      /  F ield         | OpenFOAM: The Open Source CFD Toolbox           |
|  \\    /   O peration     | Version:  v1706                                 |
|   \\  /    A nd           | Web:      www.OpenFOAM.com                      |
|    \\/     M anipulation  |                                                 |
\*---------------------------------------------------------------------------*/
FoamFile
{
    version     2.0;
    format      ascii;
    class       volScalarField;
    location    "8";
    object      rotationalT_O2;
}
// * * * * * * * * * * * * * * * * * * * * * * * * * * * * * * * * * * * * * //

dimensions      [0 0 0 1 0 0 0];


internalField   nonuniform List<scalar> 
500
(
2068.231218
2068.089205
2067.413993
2066.623729
2067.366651
2084.024819
2083.186154
2084.954941
2083.258327
2082.961026
2097.595635
2096.398926
2095.619712
2096.007518
2096.382907
2108.953007
2107.450218
2108.551531
2109.387053
2109.215758
2118.947815
2119.047536
2118.248256
2119.785132
2120.552033
2132.030457
2130.188262
2130.198684
2131.847411
2130.937211
2141.600689
2141.418912
2140.341629
2139.72538
2140.716834
2151.718569
2151.283811
2151.588717
2152.305133
2151.013435
2161.82627
2161.603561
2161.176622
2161.473314
2162.03427
2171.529254
2171.306003
2171.723773
2171.774949
2171.18446
2180.030659
2182.189352
2182.278423
2181.770249
2181.508308
2191.428384
2191.70831
2191.574277
2191.379337
2189.439105
2201.322734
2201.600389
2201.438262
2199.39542
2199.985872
2208.122314
2208.84078
2209.549921
2210.357877
2208.794723
2218.540319
2217.194183
2218.596694
2219.080092
2219.624024
2229.340876
2228.80253
2229.091998
2229.985197
2228.497096
2236.512619
2237.478289
2238.310854
2236.158792
2237.23481
2247.373535
2246.763879
2246.139668
2246.040907
2246.602772
2256.375533
2255.339936
2255.375213
2256.047872
2255.499146
2264.544048
2265.90504
2264.68678
2264.400341
2264.437322
2274.193564
2273.656037
2274.311113
2274.418364
2274.269246
2281.557755
2280.504594
2282.810539
2283.435614
2281.785018
2291.915158
2291.501389
2291.469669
2291.786503
2292.519721
2300.394152
2301.128542
2299.447109
2301.002253
2299.739979
2308.220114
2309.694397
2308.355107
2310.715859
2309.604626
2319.688236
2318.48871
2320.17841
2318.811938
2318.282902
2326.266273
2327.555709
2328.266186
2326.84993
2327.104002
2335.695114
2337.868707
2335.27843
2336.118605
2336.658463
2344.600888
2345.70891
2345.896164
2345.85505
2345.388058
2354.087482
2353.706625
2354.016054
2354.890089
2353.665935
2362.255601
2361.379615
2361.926787
2363.321931
2362.586146
2369.515754
2371.386033
2370.324601
2370.56043
2371.529081
2378.280032
2380.455738
2378.808152
2379.210611
2379.156179
2386.761336
2387.570734
2386.321467
2386.906866
2386.194771
2397.630744
2394.53341
2395.699168
2396.292294
2395.997088
2404.120326
2403.40938
2403.600244
2404.52711
2402.885084
2411.700984
2410.622024
2411.97214
2410.852228
2413.135294
2419.573489
2419.675459
2420.469456
2419.753459
2420.114342
2426.891417
2428.428358
2427.072726
2429.200746
2428.606049
2438.034466
2437.695483
2436.839296
2437.051022
2438.753523
2445.583272
2444.817955
2445.291376
2445.721069
2444.87022
2455.28678
2453.107644
2453.92378
2452.746469
2453.216694
2462.843588
2461.735279
2460.490298
2462.153985
2463.581964
2471.697567
2470.175354
2469.879789
2469.12593
2470.609678
2477.508034
2477.978991
2478.7135
2479.374984
2478.66848
2485.656062
2484.887132
2484.753349
2486.672338
2486.23306
2494.221178
2493.455075
2495.081877
2493.026222
2493.563427
2502.60975
2502.756832
2501.127433
2502.448628
2501.446731
2510.154962
2511.862554
2510.775077
2512.624641
2510.378685
2518.113964
2518.786866
2520.880875
2518.384741
2518.652334
2526.288272
2525.445288
2528.583714
2527.176206
2526.937657
2536.200618
2534.325271
2532.620725
2534.637592
2535.434041
2543.158051
2542.25315
2542.586475
2541.652914
2542.640381
2550.711053
2548.916191
2549.366327
2549.789474
2549.394039
2558.381845
2557.693185
2557.178855
2558.240091
2558.99179
2565.639259
2565.983621
2566.987175
2565.747555
2565.538979
2573.039811
2573.453394
2572.910275
2572.73634
2574.915628
2582.459603
2582.419032
2581.485332
2581.926219
2579.739485
2589.096306
2589.910795
2589.67085
2590.3808
2589.041031
2597.284838
2598.33125
2597.416592
2596.540721
2596.026329
2605.497149
2608.76558
2606.141497
2605.060275
2604.770199
2614.883489
2614.225738
2614.361241
2614.0727
2614.039541
2622.096663
2621.977107
2623.416733
2621.470255
2623.020224
2629.531481
2629.623842
2630.768124
2630.764773
2630.925964
2637.869273
2637.10437
2637.029746
2636.701357
2636.609684
2644.227645
2643.025408
2643.128335
2644.136141
2644.873267
2651.162043
2651.132018
2651.188827
2651.821685
2652.158293
2660.105993
2659.972583
2660.004575
2658.306662
2660.856196
2666.230261
2668.563798
2668.290429
2668.908731
2667.136769
2676.051272
2674.291858
2675.590808
2675.9388
2673.813071
2682.047252
2682.025595
2683.456279
2681.850707
2682.788361
2689.910745
2692.682082
2691.234671
2690.846501
2689.716983
2700.044033
2700.939307
2698.054746
2697.173829
2697.976493
2706.670527
2708.042099
2705.674078
2704.792283
2705.405512
2712.685605
2713.85874
2712.517018
2710.729726
2713.490157
2721.922654
2720.778413
2717.598936
2718.930601
2719.656146
2728.788335
2726.652552
2727.466771
2729.657212
2729.504445
2736.160286
2734.908831
2735.888373
2737.197884
2735.766138
2745.954349
2745.058884
2745.575955
2744.310197
2744.735195
2752.881852
2752.569226
2753.994102
2751.98828
2752.073621
2759.799948
2760.643828
2759.694926
2760.593496
2760.406305
2768.182719
2768.056714
2767.391266
2767.232518
2768.509847
2773.466847
2774.731478
2776.114639
2775.730341
2774.425311
2784.608355
2784.915733
2786.074453
2784.286869
2783.986486
2789.220729
2790.683106
2791.136879
2788.424183
2790.246232
2797.90502
2798.869166
2797.196008
2798.200702
2798.346109
2807.195334
2807.080627
2807.349752
2807.120735
2806.999307
2814.815612
2816.122894
2814.973657
2815.176792
2813.925497
2823.008827
2823.194687
2820.882752
2821.158391
2819.914043
2830.702463
2829.534052
2830.549323
2830.942998
2831.143256
2840.083572
2838.696319
2837.950543
2836.842967
2839.050677
2847.916144
2846.272853
2846.913558
2846.369202
2848.188899
2855.595336
2856.340211
2856.505044
2855.459129
2854.244403
2865.169816
2865.881403
2866.218727
2863.81388
2864.48103
2872.600468
2873.418126
2872.754011
2871.409865
2871.276234
2880.77638
2885.34055
2882.573253
2882.936804
2880.896169
2892.343954
2891.391993
2890.503727
2890.662845
2892.353693
2903.088875
2902.062363
2901.318063
2903.48932
2904.298436
2912.457556
2914.259266
2913.027646
2912.292588
2913.648772
2925.857653
2926.562116
2924.472524
2926.479322
2926.435621
)
;

boundaryField
{
    upperWall
    {
        type            calculated;
        value           nonuniform List<scalar> 5(2936.852063 2932.259449 2931.583355 2938.170789 2938.322452);
    }
    lowerWall
    {
        type            calculated;
        value           nonuniform List<scalar> 5(2054.841528 2074.666304 2056.215311 2053.326976 2055.458781);
    }
    periodicX_half0
    {
        type            cyclic;
    }
    periodicX_half1
    {
        type            cyclic;
    }
    frontAndBack
    {
        type            empty;
    }
}


// ************************************************************************* //
