/*--------------------------------*- C++ -*----------------------------------*\
| =========                 |                                                 |
| \\      /  F ield         | OpenFOAM: The Open Source CFD Toolbox           |
|  \\    /   O peration     | Version:  v1706                                 |
|   \\  /    A nd           | Web:      www.OpenFOAM.com                      |
|    \\/     M anipulation  |                                                 |
\*---------------------------------------------------------------------------*/
FoamFile
{
    version     2.0;
    format      ascii;
    class       volScalarField;
    location    "8";
    object      translationalT_N2;
}
// * * * * * * * * * * * * * * * * * * * * * * * * * * * * * * * * * * * * * //

dimensions      [0 0 0 1 0 0 0];


internalField   nonuniform List<scalar> 
500
(
2075.151278
2075.594706
2075.422521
2075.921509
2075.306681
2089.575302
2089.518752
2090.70929
2090.349121
2090.034255
2103.204735
2102.972829
2103.065298
2103.39752
2102.69785
2114.697322
2114.225149
2114.13716
2114.10743
2114.304094
2124.58996
2125.432457
2125.510588
2124.579008
2124.801026
2135.820453
2135.166858
2135.812785
2135.451272
2135.324479
2145.473445
2145.324791
2145.413152
2145.241274
2145.367555
2155.883115
2155.872987
2155.588776
2155.480478
2155.371486
2165.17929
2165.686009
2165.427464
2166.313577
2164.425412
2175.552917
2175.013766
2175.395659
2174.908013
2174.50958
2184.569001
2184.566469
2185.137436
2184.708329
2184.847168
2194.167558
2194.081635
2194.709938
2194.40833
2194.502741
2203.417911
2203.845054
2203.619377
2203.749507
2203.860362
2212.844685
2212.920254
2213.166822
2213.543564
2213.466026
2222.504809
2221.960565
2221.99314
2222.379765
2222.03025
2231.167321
2231.086641
2231.437627
2231.190698
2230.443235
2240.220198
2240.044942
2240.280554
2239.884446
2240.272037
2249.099621
2249.115379
2249.520229
2249.211696
2249.433023
2257.854059
2258.269893
2257.97382
2258.100903
2258.22623
2267.079327
2267.023837
2266.759805
2266.71097
2266.892228
2275.895521
2276.0956
2275.340611
2275.930032
2275.94767
2284.795893
2284.396264
2284.595888
2284.427392
2284.535059
2293.336825
2293.942093
2292.757143
2293.036634
2293.497848
2302.594126
2302.101669
2301.418111
2302.080513
2302.12677
2310.65069
2310.913121
2310.725285
2310.289184
2310.391866
2319.091827
2319.700425
2319.136058
2319.766021
2319.76294
2328.049387
2327.384892
2328.389462
2328.667342
2328.38238
2336.728299
2336.945921
2336.960435
2336.183364
2336.311182
2345.114424
2345.289261
2345.498748
2345.317589
2344.236845
2353.1233
2353.774198
2353.074066
2353.946295
2353.242288
2362.326497
2361.548849
2361.583968
2362.026912
2362.059141
2370.436889
2371.306527
2370.757645
2370.568809
2371.033621
2378.10546
2379.492544
2378.965494
2378.869912
2379.43426
2387.187807
2388.091694
2387.988158
2387.569092
2387.220829
2395.616773
2395.924738
2396.051908
2395.273954
2396.229339
2404.170813
2404.366903
2403.614618
2403.958842
2404.173629
2412.996704
2411.575675
2412.561841
2412.612124
2412.182636
2420.993624
2421.362457
2420.838313
2421.420865
2420.443542
2429.642426
2429.324631
2429.033105
2430.371063
2429.444944
2437.802065
2437.87207
2437.787437
2437.622482
2437.712036
2445.656665
2446.408489
2445.740058
2445.959628
2446.200451
2453.412517
2454.006812
2454.119052
2454.486385
2455.02434
2461.912214
2462.567208
2462.232023
2462.794727
2463.116742
2470.911182
2471.07553
2470.698223
2470.347091
2470.77228
2478.105773
2478.764661
2478.856752
2478.150155
2478.186357
2487.294756
2486.691795
2486.757116
2486.714713
2486.659806
2494.560653
2494.380018
2494.708446
2494.777789
2494.152766
2503.16642
2502.704651
2502.202289
2502.172024
2503.011113
2510.514022
2510.473595
2510.66059
2510.591928
2510.940021
2518.343184
2518.817033
2520.106431
2518.735341
2518.890261
2526.23997
2527.607896
2527.579475
2526.338697
2527.210366
2534.98856
2535.458904
2535.268928
2534.955061
2535.244094
2543.274893
2543.482141
2543.387259
2542.658871
2542.985873
2550.996411
2551.120788
2550.638646
2550.135803
2551.058574
2558.911732
2558.241531
2559.183868
2558.737616
2559.041788
2567.172825
2567.204972
2566.985093
2566.797745
2566.760781
2574.535234
2574.611693
2574.131757
2574.330437
2574.467846
2582.567485
2582.588895
2582.538162
2582.01234
2582.094017
2590.210581
2590.541962
2589.964894
2589.585199
2590.862386
2598.3704
2597.732421
2597.409761
2597.835471
2597.5231
2605.991756
2605.689651
2605.887761
2605.594191
2605.493878
2613.223258
2613.497439
2613.159276
2613.720507
2612.948967
2621.116696
2621.067858
2620.611501
2621.597414
2621.1726
2628.701659
2629.634031
2628.783978
2628.822126
2628.86296
2636.296273
2636.428768
2636.64231
2636.464588
2636.627417
2643.292787
2643.378327
2644.00514
2643.803176
2643.863881
2651.707234
2651.423751
2651.928543
2651.71928
2652.449274
2659.75139
2659.558027
2659.820249
2659.630973
2659.279258
2666.654513
2668.042708
2667.527837
2666.512374
2667.307326
2674.51184
2674.56102
2674.998545
2674.929853
2674.129971
2682.003783
2681.85295
2682.713627
2682.67546
2682.496369
2690.078292
2689.683451
2689.869742
2690.269306
2690.360117
2698.058901
2697.610249
2697.23784
2697.696919
2698.102691
2705.294266
2705.165307
2705.517832
2705.006129
2705.479876
2712.409557
2712.690706
2712.715582
2712.322309
2712.774995
2720.336375
2720.105266
2719.592004
2720.028503
2720.742893
2727.909557
2727.289168
2727.157153
2727.604941
2728.011401
2735.462994
2735.234121
2735.789831
2735.160926
2735.362289
2741.966186
2741.884222
2742.360665
2741.78529
2742.391224
2750.156131
2750.31108
2750.540161
2750.251565
2750.286295
2758.184941
2758.509975
2758.374358
2757.181735
2756.859055
2765.401055
2765.843523
2765.757803
2765.420088
2765.206443
2773.186392
2773.329348
2773.016141
2773.732861
2773.004262
2780.062597
2779.918827
2780.278725
2780.152206
2781.242615
2787.90832
2788.4347
2787.665045
2788.036517
2787.998369
2795.560395
2795.666737
2796.060127
2795.348107
2795.724033
2803.938958
2803.501495
2803.615858
2803.794714
2802.959627
2810.692088
2811.236291
2811.3741
2810.836823
2811.593442
2818.370825
2819.067288
2817.76534
2818.538727
2818.70421
2826.26219
2826.375196
2827.550416
2825.989865
2826.414977
2834.784115
2834.12484
2835.229232
2833.958516
2833.901948
2842.804979
2843.113414
2841.991724
2842.706012
2841.961722
2851.087829
2850.99466
2850.759188
2850.51999
2850.414285
2858.431973
2858.968665
2858.492084
2858.107476
2858.433058
2867.268054
2867.415008
2867.223221
2866.818879
2866.057904
2875.101483
2875.550644
2875.895776
2875.035091
2876.103417
2884.59026
2883.932319
2885.214264
2883.772198
2884.482378
2894.196838
2893.700278
2893.465747
2894.624588
2894.162442
2903.718867
2904.954916
2904.846811
2905.216657
2904.941331
2918.215144
2917.111414
2917.495794
2917.797292
2916.948276
)
;

boundaryField
{
    upperWall
    {
        type            calculated;
        value           nonuniform List<scalar> 5(2928.244211 2926.26065 2924.467325 2927.165917 2925.623503);
    }
    lowerWall
    {
        type            calculated;
        value           nonuniform List<scalar> 5(2064.025917 2064.442391 2064.624959 2063.595741 2064.662075);
    }
    periodicX_half0
    {
        type            cyclic;
    }
    periodicX_half1
    {
        type            cyclic;
    }
    frontAndBack
    {
        type            empty;
    }
}


// ************************************************************************* //
