/*--------------------------------*- C++ -*----------------------------------*\
| =========                 |                                                 |
| \\      /  F ield         | OpenFOAM: The Open Source CFD Toolbox           |
|  \\    /   O peration     | Version:  v1706                                 |
|   \\  /    A nd           | Web:      www.OpenFOAM.com                      |
|    \\/     M anipulation  |                                                 |
\*---------------------------------------------------------------------------*/
FoamFile
{
    version     2.0;
    format      ascii;
    class       volVectorField;
    location    "8";
    object      UMean_N2;
}
// * * * * * * * * * * * * * * * * * * * * * * * * * * * * * * * * * * * * * //

dimensions      [0 1 -1 0 0 0 0];


internalField   nonuniform List<vector> 
500
(
(15.44316337 0.02504353095 0.1716785794)
(15.37714769 -0.01211985768 0.1648863439)
(15.33555392 0.2864300462 0.1445596679)
(15.34904487 0.06417226522 -0.3064908663)
(15.21427986 0.2051078208 0.06244655084)
(19.46035828 0.08097252958 0.01508061581)
(19.40537619 -0.00229551961 -0.1672267383)
(19.31796366 0.003377879264 0.01908946728)
(19.09748603 -0.08001896426 0.000819845955)
(19.47924053 -0.122751716 -0.08248851526)
(22.99195646 -0.09246842119 0.2054595383)
(22.90285191 0.07594020529 -0.0412116531)
(23.17964864 0.1258527368 0.01857030611)
(23.28933848 0.07390581674 0.1136043985)
(22.95517261 -0.1021951906 -0.1214178304)
(26.55167342 0.02499900543 -0.1282067356)
(26.45810509 0.07909970287 0.06448465585)
(26.3190733 -0.04643569923 0.3259218678)
(26.44851104 0.06205687826 -0.05440409521)
(26.25422843 -0.02536553366 0.1056489401)
(29.50905642 -0.2103812796 0.01826918542)
(29.66942508 0.06779378873 0.1451025348)
(29.62596175 0.1003597303 -0.2075866869)
(29.36348447 0.2087266451 -0.04975828221)
(29.57655218 -0.1097223697 -0.1177260461)
(32.44238536 -0.417537519 -0.1042654711)
(32.62699813 -0.01006519206 0.08893243692)
(32.52553433 0.1203968361 -0.2742281963)
(32.6676471 0.1161647991 -0.02371188734)
(32.53770387 0.08061121469 -0.04987393441)
(35.84524991 -0.06799879651 -0.006246532149)
(35.63894367 0.01238498218 -0.4103459881)
(35.41185371 0.1746723058 -0.285398713)
(35.84303227 -0.04136289077 -0.05581012071)
(35.80388465 0.1967759941 -0.2734844114)
(38.64625041 0.2270669907 -0.2025857678)
(38.76076564 -0.266927964 -0.1590194004)
(38.75800806 0.009003385007 -0.3145234687)
(38.77918281 -0.1204330849 -0.3669304811)
(38.79226734 -0.04267062714 0.1271474571)
(41.72664829 0.1025170428 -0.0717860264)
(41.67947134 2.630902556e-05 -0.08476016834)
(41.73718609 -0.04142901015 -0.1192837059)
(41.77580987 0.1300239428 -0.1545289092)
(41.52781256 -0.05598673591 0.007743884227)
(44.6707891 0.06954459521 -0.2582283664)
(44.58666829 0.05029610365 -0.01505457496)
(44.60469554 -0.09422234173 -0.05743259762)
(44.69077281 0.1981073468 0.00646986349)
(44.6495512 -0.01166973628 0.04357387507)
(47.74877118 0.06080771968 -0.05302391162)
(47.81095812 -0.1664797533 -0.1722967571)
(47.75647622 0.1304244876 -0.06514583471)
(47.43687677 -0.07534606505 0.0906881502)
(47.79265703 0.08377054613 0.002044926133)
(50.70764428 -0.003525732244 -0.2132430016)
(50.4908178 0.1042236971 -0.3145965799)
(50.58438186 -0.07539417389 -0.243908936)
(50.62059952 0.1109331947 -0.2934960123)
(50.57729521 -0.07574282073 0.002962441464)
(53.27862827 0.1327873702 -0.1131647095)
(53.45548732 -0.07083287816 -0.1090831107)
(53.24318853 0.1545475203 -0.2585837102)
(53.35887559 -0.1137064534 -0.2338772508)
(53.38779499 -0.2089248061 0.04711886004)
(56.13071646 0.08244080556 -0.2350476912)
(56.21809478 -0.06955382835 -0.3610018468)
(56.2422537 -0.01976733636 -0.1425246407)
(56.21898425 0.08738481454 0.05731809572)
(55.96695453 0.0268719067 0.04809094726)
(58.98754642 -0.2496134757 -0.118828992)
(58.99475821 0.09006365389 -0.1474743045)
(58.87062025 0.08033775467 -0.03615799516)
(58.98167234 -0.05008588905 0.01223330962)
(58.79941675 0.1490242949 -0.26422696)
(61.82126655 -0.337558707 -0.05881878229)
(61.85042518 -0.226626926 -0.1603049687)
(62.09576687 0.3034273246 0.08110093323)
(61.90922301 0.1722247041 -0.1879164549)
(61.83848281 0.102973152 0.01841666282)
(64.8974863 -0.1564897315 -0.1143661252)
(64.7742463 -0.01734934854 -0.3018879629)
(64.88849662 0.0882827266 -0.1710942264)
(64.79153076 0.2701598816 -0.17255555)
(64.75653183 0.01025731749 -0.4197249393)
(67.58206918 -0.06803715483 -0.1059847553)
(67.42357609 -0.1954475251 0.1028032011)
(67.37295741 0.03011713226 -0.2027317713)
(67.57386994 0.1989169187 -0.2318404067)
(67.49498298 -0.009465619064 0.03729177729)
(70.34273472 -0.07476752907 -0.1748988213)
(70.22941204 0.01858979089 -0.2802677342)
(70.44825576 -0.034093693 -0.372282295)
(70.39582198 0.02578196758 -0.07426975185)
(70.34032793 0.05131652369 -0.1480532052)
(73.12692787 -0.03565486264 0.07060356637)
(72.92457661 0.05158732176 -0.1431973489)
(73.04515964 -0.3883520301 -0.289935829)
(73.24221737 0.1208420797 -0.5118868688)
(73.33262871 0.1233275491 -0.2178262377)
(76.02995446 0.3098340213 -0.07544790372)
(75.90474633 -0.1215023702 -0.1814434509)
(75.76883844 -0.1373620858 -0.1970673704)
(75.61235361 0.00416332121 -0.2677212842)
(75.71965971 0.1617015911 -0.09133244733)
(78.57776892 -0.03771751868 -0.1647610362)
(78.75739714 0.07296890813 -0.1157902318)
(78.43301157 0.01100090533 -0.2011037737)
(78.8059996 -0.07880444477 -0.04592345393)
(78.70534154 0.06716611647 -0.2414585226)
(81.68765852 0.02515806938 -0.4800147198)
(81.6063325 0.04705095843 -0.2938536228)
(81.73001932 -0.06213046222 -0.4500647233)
(81.53710962 -0.05911155433 -0.2493958617)
(81.4267763 0.05387367945 -0.4116270646)
(84.50302836 0.03921363553 -0.3025928214)
(84.34310455 0.02228726805 -0.04215398008)
(84.4398241 -0.09875962374 -0.128712865)
(84.45761199 -0.02080867325 0.2214465564)
(84.45083209 0.08220470822 -0.05869639685)
(87.23205922 0.1009559834 -0.01746475425)
(87.26992392 0.04030130666 -0.3458793934)
(87.1690863 -0.15879648 0.1310580567)
(87.17321986 -0.02509928481 0.2720688264)
(87.15425538 0.232845309 -0.01943590792)
(89.87718128 -0.04527435875 -0.1091842255)
(89.76168519 0.117376137 -0.3652024697)
(89.81842947 -0.1488591156 -0.1798363067)
(89.74164969 -0.003495374451 -0.1608645927)
(90.04965019 -0.08290875292 -0.0352196)
(92.54619743 -0.002768956418 -0.3980357628)
(92.52460886 0.1847580795 -0.1910758201)
(92.46534306 -0.05824874616 -0.1109763499)
(92.40742912 -0.03577711546 -0.1396493301)
(92.47343731 0.07337582173 0.2045531911)
(95.19844376 0.1069404681 -0.01825251612)
(95.20337067 -0.01420381917 0.02667639954)
(95.23218519 0.1037306143 -0.2518772969)
(95.30152372 -0.1327167215 -0.3713716322)
(95.16614294 -0.04205239482 -0.311452484)
(97.80057405 -0.08460161924 -0.339448921)
(97.84394485 0.160412083 -0.2437966866)
(97.9063418 0.002570137749 -0.03717690532)
(97.96745815 -0.2715347536 -0.1133933338)
(97.77776794 -0.02496076044 -0.006839818689)
(100.6797041 0.1474416406 -0.2887248343)
(100.7966636 -0.04069150249 0.009155490372)
(100.738713 0.04192261497 0.08485402274)
(100.6402713 -0.1525956698 -0.05036353659)
(100.6439563 0.174479536 -0.297108604)
(103.4401743 -0.03220982532 -0.07397613672)
(103.5304891 0.2331280221 0.02207937462)
(103.3071784 -0.0921881951 -0.03778252155)
(103.3404202 0.04488822786 -0.4753395014)
(103.2994515 -0.2191843631 -0.1756334433)
(106.0636817 -0.02057508023 -0.3275698115)
(105.9824909 -0.1620041289 -0.2894655607)
(106.0458808 0.01898166018 -0.02796006747)
(105.9800007 -0.0195897625 -0.2650909705)
(105.8505689 0.3168546706 -0.3843832596)
(108.6864889 -0.1224808001 -0.1447204663)
(108.6424238 0.08097334174 -0.3024709235)
(108.6789624 0.2086525684 -0.568518643)
(108.5988096 0.05888007874 -0.1808055054)
(108.7515156 0.02031856001 -0.3096974708)
(111.207536 -0.09008596265 -0.2271357527)
(111.3709982 -0.1656306193 -0.06262342773)
(111.5585888 -0.08774139506 -0.3308851677)
(111.4148412 0.06610644327 -0.3352496929)
(111.5557387 0.1197779202 -0.4163073413)
(114.3150294 -0.05861026357 -0.2230484779)
(114.3257671 -0.04505503204 0.02868336257)
(113.9138795 -0.0320430747 -0.2300708997)
(113.9886026 0.005650235419 -0.1857230961)
(114.2914914 0.2090437472 -0.1601703494)
(116.7933026 -0.004573369649 0.1246132683)
(116.5232092 0.1247657536 -0.06455809162)
(116.6055536 -0.05878956039 -0.2642222146)
(116.6466573 -0.01079102284 -0.1500123368)
(116.782704 -0.1115373979 0.1086990232)
(119.0684763 0.1188074046 -0.1115769177)
(119.5692594 -0.09998532289 -0.2345522001)
(119.3945363 0.1060688143 -0.553320928)
(119.3902108 0.0127928821 -0.2711798481)
(119.3226318 -0.007243719889 -0.1064837115)
(122.1959414 0.08131830151 -0.03512197966)
(121.9207968 -0.2224276164 -0.3830981435)
(122.2121649 -0.1762285943 -0.3603805809)
(122.284069 -0.2219820501 -0.2403274038)
(122.2474455 0.3250303263 -0.5924940343)
(124.9807288 0.1383571472 -0.3545073965)
(124.9120472 0.07570410621 -0.2783180824)
(124.9364523 -0.1916997343 -0.1784878368)
(124.7841661 -0.01928348279 -0.3333540211)
(124.8202343 0.02579133987 -0.4708127958)
(127.3018798 0.05561448173 -0.4112456576)
(127.5118979 -0.0300963405 -0.2296768719)
(127.4156621 0.1432300391 -0.08371030187)
(127.3445315 0.1832844878 -0.06097198722)
(127.6067372 -0.1347386155 -0.3147743397)
(129.9156624 0.06299649957 -0.3519608497)
(129.9270028 0.05357357683 0.00691416023)
(129.9699843 -0.1551552135 -0.2269532205)
(130.1260643 -0.0912631457 -0.3612728826)
(129.8116118 0.03474289589 -0.09956395427)
(132.668827 -0.01593766914 -0.241119975)
(132.6519132 0.160644171 -0.1456642195)
(132.495724 0.02224100517 -0.03532700194)
(132.5037497 0.04976948514 -0.3325512736)
(132.5208797 -0.1058708854 -0.08676231721)
(134.9578037 0.07365709735 -0.01003471182)
(135.2562498 -0.01703599167 -0.1841947966)
(135.2646548 -0.1373672662 -0.1162778969)
(135.276727 -0.05948719206 -0.5869418929)
(135.2784982 0.1923218 -0.1018653834)
(137.8831818 -0.02243808645 -0.1640264646)
(138.0243929 -0.0207253498 0.03382237742)
(137.8332283 -0.01648868388 -0.214460014)
(137.824761 0.07002290432 -0.1664273895)
(137.858223 -0.06350927464 -0.2135079358)
(140.414555 -0.1895575947 -0.5169572272)
(140.7347301 -0.1470049313 -0.2456946811)
(140.4918398 0.04487824091 -0.2277216379)
(140.5556753 0.1371936395 -0.3401763159)
(140.6118931 0.01661262614 -0.1942557305)
(143.224265 -0.08208741487 -0.3231004113)
(143.412845 -0.09924001495 0.03854329249)
(143.2215161 0.3043991975 -0.3246961166)
(143.3639688 0.2271280124 -0.2494463945)
(143.2156001 0.133592387 -0.138916414)
(145.8525377 -0.3273321931 -0.3578571312)
(145.8245479 -0.09230678125 -0.4116228549)
(145.9810091 0.1212318557 -0.2065783943)
(145.6663261 0.04413924498 -0.1101832473)
(145.7293064 -0.0347976505 -0.0534763608)
(148.2689813 -0.07722509169 0.05543388346)
(148.2165364 0.0494165409 -0.3066045461)
(148.1158809 0.2113179406 -0.2379954036)
(148.2690564 0.03693533593 -0.205206931)
(148.3652541 -0.113149056 -0.1397235164)
(151.1663163 -0.1119182315 -0.4154000066)
(150.7660977 0.1934703635 -0.3190711737)
(151.0289645 -0.09734929248 -0.1209303734)
(150.8251596 0.05891789978 -0.2320081612)
(151.051797 -0.07159457165 -0.06964547402)
(153.4971009 -0.1014713943 -0.4109560625)
(153.7100819 0.08048645895 -0.4705219454)
(153.6184512 0.1688831838 -0.1813843896)
(153.7186437 -0.2158063721 -0.1026710049)
(153.7153972 -0.07110728066 -0.4203148973)
(156.0662498 0.008915499414 -0.1712554949)
(156.1107675 0.1329769932 -0.008931518347)
(156.2543658 -0.05815364607 -0.02769690734)
(156.2840105 0.03704321775 0.147179965)
(156.1677725 0.004111054721 -0.07922725251)
(158.437864 0.00333622413 -0.1090655918)
(158.5324264 -0.08576288532 -0.05989248539)
(158.5748684 -0.1397134489 -0.2352472679)
(158.4129076 0.03644841989 -0.1430458907)
(158.4306004 0.03088501271 0.06824966509)
(161.2948132 -0.02357289523 0.02239383317)
(161.1759972 0.09966187898 0.2185213064)
(161.0920066 -0.08459468884 0.1860772218)
(161.199041 0.1983365379 -0.1455623996)
(161.1413453 -0.003534130508 0.08935396701)
(163.8132792 0.1123282586 -0.04470367966)
(163.9710534 -0.2050825441 0.2480705779)
(163.4468596 0.1756526842 0.2226033779)
(163.8337021 -0.06146557629 0.03767856039)
(163.856212 -0.1404430084 -0.217538612)
(166.2822855 0.231490227 0.01989609649)
(166.2286105 0.08935982058 0.002326556886)
(166.3803859 -0.1789842683 0.3098379514)
(166.45608 -0.1935852699 -0.218573343)
(166.4278037 0.0208304818 -0.3158553312)
(168.6755845 -0.08460166065 -0.124347764)
(168.886004 0.2754143705 -0.1459992931)
(168.8316432 -0.06795010679 -0.2722067553)
(168.8985269 -0.1329246051 -0.1421686064)
(168.7281711 0.1910555029 -0.154232365)
(171.4013734 0.01325336747 -0.1369450901)
(171.381341 0.05800807846 -0.3307346921)
(171.5288154 0.1849311066 -0.1050969586)
(171.3070344 -0.1822328957 -0.0002277884467)
(171.4398288 0.02564209893 -0.223746101)
(173.9290409 -0.2790860212 -0.1105149507)
(174.0509661 -0.1305775011 -0.1239133773)
(174.1030086 -0.06959215455 -0.1481817172)
(174.0137469 0.04249695456 -0.3484307811)
(174.0236654 0.2682647622 0.04812177808)
(176.8032776 0.01145252961 -0.05595921007)
(176.7214044 0.1470065207 -0.02561465344)
(176.5880742 0.0033510738 -0.01752650488)
(176.4750767 0.1004224089 -0.01889515624)
(176.7424153 -0.05398482166 -0.1588930425)
(178.9584583 -0.2358237513 -0.09403349144)
(179.0694117 -0.07140609578 -0.1601210208)
(179.2239387 0.1454567178 -0.1510611299)
(179.0824316 0.005458550148 -0.1813059603)
(179.332516 -0.1375637537 -0.01885098341)
(181.6875787 -0.06963275728 0.3052374255)
(181.506413 0.06515320648 -0.3124423538)
(181.7337046 0.1622054496 0.2245687027)
(181.8426963 0.01024441266 -0.1923929269)
(181.7232115 0.2052931843 0.1584971495)
(184.4192667 0.05867660853 0.1966045165)
(184.2903152 -0.2385058529 0.07627178528)
(184.3504615 -0.1870239667 -0.2803982317)
(184.3326189 -0.2456441866 -0.04921971582)
(184.2926326 0.2515290524 0.1830396837)
(186.7594622 0.2312610038 0.2977457468)
(187.0132783 0.03723340824 0.09711573497)
(186.8439934 -0.005666692262 0.1402162464)
(186.7196971 0.04989370784 0.3552520674)
(186.660077 0.08246750938 0.0202010421)
(189.3098014 -0.139078204 0.2325886295)
(189.299829 -0.2336126434 0.1844699968)
(189.2354836 0.1565384897 0.2827313009)
(189.1927432 0.1697185266 0.03343939903)
(189.4345587 0.02075415794 0.4613097362)
(191.7240031 0.1154934054 0.473278948)
(191.8044898 -0.03615566155 -0.1922718413)
(191.7581746 -0.04121346706 0.02733392157)
(191.7872541 -0.2256183122 -0.08551514176)
(191.8109799 0.02410238335 0.3020705489)
(194.360557 -0.05668080011 0.2992177431)
(194.3412292 0.09039556349 0.05590335528)
(194.5160149 -0.1091406509 0.184819347)
(194.7875141 -0.02211139788 0.07292147971)
(194.4359642 0.2802360427 -0.005297606467)
(196.9393865 -0.0282621574 -0.1386501637)
(196.7485296 -0.007020970455 -0.4301893545)
(196.9863565 -0.07951521653 -0.009407387221)
(196.7581612 0.01730623579 -0.008869131123)
(196.8355582 0.1585548423 0.1632461003)
(199.2354979 -0.1818037798 -0.1971879971)
(199.0770369 0.1093702432 0.01962539041)
(199.3967098 -0.2418892724 0.1910276796)
(199.3047742 0.1118906858 0.1403066932)
(199.3239145 0.3436881637 0.1777967281)
(201.9224876 -0.07222658468 -0.1542554162)
(201.9264282 0.1011071644 -0.007888422516)
(201.6138785 -0.1762978684 -0.008353787956)
(201.6711969 0.1261543962 -0.1459242854)
(201.7649084 -0.1596930363 -0.09215579429)
(204.4475884 0.2896737395 0.07789603073)
(204.3431812 -0.1462016314 -0.0884490967)
(204.3829893 -0.0163515545 0.06293593764)
(204.1079841 -0.002617457758 -0.09122982337)
(204.4221096 0.1098856917 0.1018902775)
(206.8285227 -0.3204845586 -0.006804257164)
(207.199635 -0.03590721579 -0.04423405868)
(207.038727 0.1608145388 0.07480173155)
(207.3976928 -0.01625658181 0.1401070557)
(206.8286203 -0.08675792945 -0.0496983198)
(209.3759745 -0.0213533919 0.2986519836)
(209.2238627 -0.05867134915 0.2872834935)
(209.3459677 0.02058796567 0.4109126877)
(209.3691442 0.3620481729 0.2369903351)
(209.3837309 0.03248508275 -0.1697432304)
(211.5409468 -0.006445288363 0.2795023297)
(211.5314846 -0.2346548337 0.06064320728)
(211.7760055 -0.0167476741 0.05337457932)
(211.5030815 0.3289701994 0.03561803116)
(211.5978431 -0.2087766423 0.009125671981)
(214.4506988 0.08474110781 -0.04234572262)
(214.1883397 0.01066434332 -0.07107378249)
(213.9395965 -0.09496951866 -0.03568107825)
(214.2532872 0.07566241312 0.4318042582)
(214.359071 -0.05617632858 -0.06873644515)
(216.4534899 0.1177466784 0.2037878727)
(216.8836727 -0.1703131685 0.1281393479)
(216.8923052 -0.09854706588 -0.08503338673)
(216.7430763 0.3690036103 -0.3459143206)
(216.5491815 -0.05367471853 0.3055886143)
(219.5576291 -0.113979011 0.1990454117)
(219.2257754 -0.008328925756 -0.02613512449)
(219.4026652 -0.1387716768 0.1530920605)
(219.2277869 0.1888470514 0.153825989)
(219.6540378 0.02273909031 0.2527773158)
(221.7876979 0.2539152948 0.04163866381)
(221.7804861 -0.2067606681 0.05045866779)
(221.655379 -0.003881873739 0.1024170417)
(221.7174911 0.06021235621 0.388270794)
(221.8247355 -0.2172825537 -0.04124155864)
(224.0398615 -0.1235870261 -0.3181072524)
(224.1153056 0.01553507392 -0.2051565108)
(224.3728438 0.03227357722 -0.05147353519)
(223.8698192 0.07489516717 -0.0784624233)
(224.1239793 -0.007332208904 0.002998713701)
(226.4892888 0.02910354071 0.03567339828)
(226.3806347 0.1060047485 0.01305152477)
(226.7341909 -0.1239862157 0.006418947622)
(226.571403 0.06248565169 -0.1023721114)
(226.6686791 0.1766890866 0.1100927061)
(229.1212087 -0.2318279043 0.2109474655)
(229.0146946 0.00948647584 0.1146860013)
(228.9491534 0.2945939303 -0.1049863555)
(228.8938383 -0.2548335359 0.3822275835)
(228.9858926 -0.08986767482 -0.02704963863)
(231.5590868 -0.04914776293 0.07666843649)
(231.5676457 0.2831662248 0.2222031064)
(231.7263069 0.298751232 0.1798676098)
(231.5886906 -0.02966934854 0.2748285738)
(231.7018145 -0.05104264038 0.1550432667)
(234.0274087 0.09940720186 0.1011679924)
(233.9134965 -0.1792802604 0.006723358222)
(234.2667367 -0.05841983497 0.1619944036)
(233.9887446 -0.05491187378 -0.09275903605)
(234.0494671 0.03867000553 0.343068507)
(236.4676118 0.007295908197 -0.1457785202)
(236.4627486 0.06153588629 0.04261106627)
(236.6710906 -0.06340159213 0.04719474597)
(236.3908634 -0.1679725409 -0.1098232442)
(236.7255317 0.1230855679 0.2786874966)
(239.1064672 0.08530555488 -0.1286735725)
(239.1098031 0.1020735101 0.1491488641)
(238.9544176 -0.07028354911 0.378710434)
(239.0208474 -0.01527611346 0.2792304626)
(239.3159964 -0.09021522007 0.1804066847)
(241.2396571 0.2082866752 -0.05344868525)
(241.4339932 0.1000204214 0.2237394575)
(241.2175535 -0.107163129 0.04421780031)
(241.6796254 -0.1445432974 0.1127103962)
(241.2359439 0.1627101705 -0.02925452195)
(243.6950596 0.2244455101 -0.1390296276)
(243.7107176 -0.2181728586 0.09379446559)
(243.5199436 -0.1213216626 0.07762616221)
(243.9026209 -0.1922287338 0.1227253514)
(243.5059837 -0.01590178997 -0.01601865713)
(246.4633292 -0.1393565243 0.1777368117)
(246.2437181 0.0515176616 0.2298921866)
(246.2769945 0.03010677402 0.05326520707)
(246.3489891 0.08917223988 0.08994965925)
(246.1111255 0.1115545041 0.0633107439)
(248.6657066 0.04286931839 0.21101899)
(248.8272659 0.3215097873 0.6468247739)
(248.7556552 -0.06739260556 0.5292164745)
(248.8590327 -0.1396230469 0.2377901756)
(248.6260236 0.07366781038 -0.07309752718)
(251.1623609 -0.04486349715 0.1432225736)
(251.0912431 -0.1674247263 0.3344008677)
(251.1531429 0.06639811675 0.05993977721)
(251.2803558 0.1747839604 0.05770303939)
(251.4189202 0.02718516128 0.1692557611)
(253.7548407 -0.06269780729 -0.14106824)
(253.9220988 0.05009300354 0.07025985935)
(253.5611584 -0.1453939929 0.1868017469)
(253.6973501 -0.03617571999 -0.1044173363)
(253.5496456 -0.1142242482 0.2473544095)
(256.1698704 0.1388596374 0.1102680107)
(256.3191396 -0.02121874409 0.2046736687)
(256.4416621 0.1470460451 -0.06698738054)
(256.3023274 0.06604771197 0.1136604078)
(256.607135 -0.1109900587 0.04647861255)
(258.8212445 0.1654849251 0.1333309383)
(258.8387906 0.07757546667 -0.05571874243)
(258.7903447 0.2129054025 0.189495068)
(258.8901373 -0.1753617902 -0.1464430889)
(258.78026 -0.150786151 0.07092701723)
(261.3906196 0.1239229331 0.2704784789)
(261.3895939 0.1441156781 0.2872722364)
(261.1256846 0.272185207 -0.1632519302)
(261.3367459 -0.383889516 0.07767076237)
(261.4596124 -0.06266257184 0.001438791227)
(264.0193909 0.0745969028 0.2469275462)
(264.1297317 0.08487786371 0.2171407227)
(264.2630847 -0.1479693601 -0.1779738804)
(264.0721833 -0.07543348924 0.02964253449)
(263.8965853 -0.008386870737 0.1525141511)
(266.8061805 0.3080109087 0.03483017299)
(266.6936857 -0.02625126507 0.3293171466)
(266.622565 0.04665776894 -0.1635171562)
(266.7142693 0.09460871576 0.21784657)
(266.7889129 -0.2371812663 -0.2376021675)
(269.3518137 0.03834978509 -0.3578246634)
(269.2746194 -0.1187737175 -0.2420080039)
(269.5998965 0.01037436816 -0.2911513197)
(269.1627373 -0.008000310518 -0.3016039667)
(269.4824843 -0.07367408964 -0.1579096264)
(272.1079074 0.1732492119 -0.1287932473)
(272.1321069 0.1258195036 -0.1463444263)
(271.9694444 -0.4223365813 -0.256846582)
(271.7312564 0.1325626689 -0.1054161726)
(271.8988323 -0.02386155537 0.04667916453)
(274.9226266 -0.2833234451 -0.09011129502)
(274.8906291 0.2321525346 -0.05480696565)
(274.8113468 0.3084602612 -0.1826822605)
(274.7015449 -0.1346520558 0.1594386274)
(274.9622317 -0.07842209157 0.1938222238)
(278.4534015 -0.1715894714 0.1304373463)
(277.9723909 0.1645073456 -0.1545708155)
(278.2587251 -0.01336987674 -0.2267992796)
(278.6273899 -0.1940065186 -0.2447599626)
(278.1130911 0.1833328398 0.3294039589)
(281.8180277 0.2237146966 -0.2712841339)
(281.6838559 0.3590839935 -0.164244163)
(281.9333445 -0.05915694668 -0.1911461189)
(281.6721782 -0.2520802775 -0.1880017312)
(281.551014 0.1304818555 0.2213456646)
)
;

boundaryField
{
    upperWall
    {
        type            calculated;
        value           nonuniform List<vector> 5((284.4222429 0 -0.2269583402) (284.0066311 0 0.9596744427) (284.4517187 0 -0.8315285849) (284.5254076 0 -0.3647109267) (283.6486825 0 0.2836894307));
    }
    lowerWall
    {
        type            calculated;
        value           nonuniform List<vector> 5((11.91656708 0 0.4370283491) (12.59930628 0 0.1125077852) (12.59381456 0 0.513846983) (13.06760256 0 -0.5384194637) (12.11104599 0 0.00425556894));
    }
    periodicX_half0
    {
        type            cyclic;
    }
    periodicX_half1
    {
        type            cyclic;
    }
    frontAndBack
    {
        type            empty;
    }
}


// ************************************************************************* //
