/*--------------------------------*- C++ -*----------------------------------*\
| =========                 |                                                 |
| \\      /  F ield         | OpenFOAM: The Open Source CFD Toolbox           |
|  \\    /   O peration     | Version:  v1706                                 |
|   \\  /    A nd           | Web:      www.OpenFOAM.com                      |
|    \\/     M anipulation  |                                                 |
\*---------------------------------------------------------------------------*/
FoamFile
{
    version     2.0;
    format      ascii;
    class       volVectorField;
    location    "8";
    object      UMean_O2;
}
// * * * * * * * * * * * * * * * * * * * * * * * * * * * * * * * * * * * * * //

dimensions      [0 1 -1 0 0 0 0];


internalField   nonuniform List<vector> 
500
(
(15.46895313 0.01969788338 0.07457535502)
(15.41577453 0.3133433209 0.4010915573)
(15.18598252 -0.2909683907 -0.06488882)
(15.03974908 0.1562681108 -0.60318152)
(15.09903327 -0.1885900466 -0.6249068679)
(19.71275883 0.1412068799 -0.4416387129)
(19.36230757 0.171341919 -0.01944493989)
(19.96205036 0.1633258437 0.1933551954)
(19.67804118 -0.08239367978 -0.2425139541)
(19.90773672 -0.3769249595 0.00356702984)
(23.26372334 0.06119841704 -0.05486803532)
(23.25698802 0.227952437 -0.3761570588)
(23.45147655 -0.2059690818 -0.2359190444)
(23.2335443 -0.1422343108 -0.1792482343)
(23.73551221 -0.07695827727 0.2017990751)
(26.31440593 0.06529205489 0.08991556124)
(26.61511686 0.3286841121 -0.3839075169)
(26.57765304 -0.2566440421 0.1649387467)
(26.40017685 -0.2331855413 0.234591897)
(26.31152394 -0.04556209902 0.2088243135)
(29.38246559 -0.119609695 -0.1229756093)
(29.60927412 0.1032513441 -0.3360555429)
(29.65034614 0.08701032821 -0.10293218)
(29.49722405 0.163751807 0.06582331019)
(29.44213696 -0.1202385915 -0.01836776429)
(32.88899264 0.2125054208 -0.01123707125)
(32.69868573 -0.1225815649 0.1821124054)
(32.66535516 -0.250834996 -0.03641743916)
(32.69508916 -0.03873487279 -0.3298466385)
(32.50160508 0.05294409401 -0.3083614231)
(35.61376954 -0.1470421317 0.1843830853)
(35.97555076 0.2314835466 0.2571303084)
(35.87500258 -0.3457846813 0.2475997528)
(36.27392321 0.3122512365 0.2973810205)
(36.00953571 -0.2887456183 0.115406545)
(38.7085878 0.2968252909 -0.07589455011)
(38.74885433 -0.1219061527 0.2008358126)
(38.68221994 0.05186131623 0.4397170233)
(38.88944931 -0.1197853291 0.2939675159)
(38.86184995 0.007089130927 -0.153107355)
(41.35330526 -0.2694453501 -0.1492162611)
(41.70313266 -0.1010808305 0.5479859445)
(41.74765702 0.03769101016 0.6463559523)
(41.53889878 0.1302466333 0.3127547575)
(42.04837808 -0.167149776 -0.0740625009)
(44.86160402 0.04936943242 0.05465663932)
(44.87928264 -0.06608755111 -0.1043563145)
(44.52084856 0.07965964335 0.3499317054)
(44.29590141 -0.303548455 0.1964963301)
(44.32370618 -0.1492929518 -0.2020916313)
(47.15136843 -0.1328361476 0.08648831414)
(46.83703486 0.05625508097 -0.2948171947)
(47.49084886 0.3561331325 0.07050985023)
(47.28622054 -0.2145804162 0.517697871)
(47.69648517 -0.05467927149 -0.1407627289)
(50.13078037 -0.1771023146 0.1834686839)
(50.41365877 0.3389353438 0.03676322864)
(50.04951186 -0.219363333 0.08442792107)
(50.49545342 0.235457528 -0.1250073878)
(50.15548083 -0.2503755229 0.1618006931)
(52.83912272 0.3034083138 -0.3189434234)
(52.56826284 0.03681082337 -0.1722339605)
(53.03753732 -0.08526541427 -0.3929988614)
(53.01076579 -0.024242023 0.09221319588)
(53.04276225 -0.2995901185 -0.1035333871)
(55.75298032 0.0345278952 -0.3112033629)
(55.92917853 -0.2051611928 -0.1395852842)
(56.02013002 0.2098745643 0.2161947115)
(55.85370736 0.257104857 -0.09521888636)
(55.75162851 -0.2698952192 0.2890350313)
(59.03771677 -0.09655258767 -0.06297011248)
(59.037902 -0.1884676376 -0.1519277481)
(58.99588036 -0.1350215649 -0.4378510763)
(59.23047561 -0.05483615751 -0.1925188276)
(59.12722816 0.1751273851 -0.6257959009)
(61.92606027 -0.2908774441 -0.149195822)
(61.89194348 0.1530611857 -0.4351128233)
(62.1073078 -0.05226469445 -0.1765172241)
(61.8754611 0.1409255844 -0.1852728019)
(62.03028122 0.0183920754 -0.5131067849)
(64.82524805 0.09237234216 0.1374875241)
(64.5534193 -0.4576263072 -0.2417740612)
(64.42914221 0.07698602342 -0.1185799965)
(64.6847478 0.1393251159 0.2842037747)
(64.94027797 -0.1143172192 -0.1135033747)
(67.36617517 0.1135675018 -0.08328893655)
(67.47632208 -0.1790341971 -0.4329150461)
(67.47350775 0.2257455001 -0.2247319004)
(67.81245736 -0.3383923825 -0.274498253)
(67.44947048 0.03081480111 0.2312338624)
(70.81002637 0.04998577555 0.2117430358)
(70.24973043 -0.04486351424 -0.1000019078)
(70.55037489 0.09476267338 -0.5202796397)
(70.63601346 -0.04263458033 -0.3020414814)
(70.1860464 0.1956377792 -0.2547164155)
(73.44736855 0.329478478 0.02966089689)
(73.597464 -0.2200237139 -0.2302435585)
(73.29592693 -0.04485122094 -0.5285647697)
(72.8762558 0.0559909806 -0.3041314058)
(73.32536422 -0.1256105019 0.1638422971)
(75.63036055 0.177642436 0.3429497727)
(75.89123829 0.2309837426 -0.7458183841)
(75.85940506 -0.06904697814 -0.3916577392)
(75.78487598 -0.2094711095 -0.2553432613)
(76.05136257 -0.4368811509 -0.1427367466)
(78.98496227 -0.008529250103 -0.1695797775)
(78.76442421 -0.01051706844 -0.2693235921)
(78.92170575 -0.1604869497 -0.5197740033)
(79.01924401 -0.1219653535 -0.1548303215)
(78.72056176 0.2007105529 -0.1991283289)
(81.36094789 -0.05902494063 -0.3788243483)
(81.52898048 0.2093450792 -0.3128597302)
(81.55589504 -0.05995659733 0.05389528842)
(81.3647989 -0.1810232088 -0.3660920034)
(81.41898816 -0.2387505368 -0.8279925922)
(84.19338677 0.1004844734 -0.2552838104)
(84.28355548 0.1030690403 -0.5939279583)
(84.59024146 0.1315236831 -0.4079787734)
(83.82655684 -0.1393303194 -0.3526624135)
(84.30326538 0.001618669605 -0.2121606198)
(87.16319329 -0.1477622949 -0.3696759664)
(87.25729221 -0.4190888437 -0.0006428599585)
(87.16181809 0.3423334562 0.0322306017)
(87.48098013 0.0600109482 0.2069194458)
(86.88260548 -0.2703803949 0.02364920649)
(90.01942582 -0.4399920935 -0.2597844063)
(89.63874337 0.003965178984 -0.02879232998)
(89.59293264 0.06245539644 -0.1041566413)
(89.69248754 -0.1308537346 0.1985082755)
(89.75873097 -0.08832475034 -0.1263578308)
(92.32032394 0.1341296472 -0.3605130856)
(92.43750221 -0.01111054492 -0.6323255147)
(92.78060634 0.1382762437 -0.2335932586)
(92.28945046 -0.05842463044 -0.1028454431)
(92.39649528 -1.760093746e-05 0.3982403219)
(95.50882246 0.3043135768 0.2294712728)
(95.15179581 -0.1842683346 -0.00448370494)
(95.2926847 0.0932841884 -0.359498725)
(95.70035057 0.3544543279 0.4430871797)
(95.5565729 -0.306261582 -0.3440904941)
(98.20331987 0.1195591093 -0.3207666399)
(98.11462327 -0.2087319688 0.02062295629)
(98.42039961 -0.1539628813 0.1867907288)
(98.35093694 -0.04418337975 0.03694125536)
(97.77771804 0.28020579 0.1721605754)
(100.7032114 0.05194004962 -0.2829594347)
(101.0868851 -0.2687109676 0.3627235003)
(100.5868562 -0.3441845401 0.3903999509)
(100.8864948 0.02027077643 0.03763013528)
(100.7663631 0.2353195652 -0.3671819869)
(103.6764163 -0.01374258325 -0.4755105323)
(103.7106433 0.08526069577 0.262200122)
(103.5719327 -0.180969674 -0.3111022084)
(103.4623226 0.109594372 0.4785385294)
(103.6463617 0.01199625053 0.199952805)
(106.3348039 -0.1692144037 -0.3849572277)
(106.3221127 0.1240332025 -0.4999489389)
(106.6068833 -0.2581397766 -0.186818214)
(106.147259 0.0899614191 -0.1524908215)
(106.3556831 -0.09838633032 -0.2153436245)
(108.3653258 0.04948275591 -0.4293001873)
(109.0519905 -0.006856336453 -0.6011745792)
(109.1395498 0.1606429966 -0.4915386448)
(108.4758422 -0.1092585897 -0.1853805817)
(109.196425 0.2737083061 -0.04115221315)
(111.5239813 -0.01974443586 -0.2388445043)
(111.8929032 -0.397989123 0.3141524118)
(111.5192348 -0.03307175671 -0.3161745672)
(111.6099585 -0.1563513403 -0.08575415989)
(111.7796494 -0.04956316546 -0.1818759815)
(114.2292512 -0.009927312348 -0.6046619604)
(113.7802744 0.3037385925 -0.3360280561)
(114.2613477 0.2352520283 -0.2385248719)
(113.6060438 0.06322751833 -0.5088117106)
(114.0122248 -0.1355791968 -0.380256807)
(116.7800517 -0.3967031499 0.05177127794)
(116.759793 0.03874182695 -0.3570748978)
(116.8398344 -0.009024589963 -0.07665311837)
(116.8852251 -0.1816042386 -0.9125310625)
(116.9298385 0.1666054013 0.1880922759)
(119.5505693 -0.06674424495 -0.2529964658)
(119.1136797 0.08000949278 -0.2588708723)
(119.8918896 0.2425055026 0.220063911)
(119.623599 -0.4601496746 0.04558693422)
(119.4237504 0.173276133 -0.1659825258)
(122.1825145 0.1764269548 -0.2276814633)
(122.0686848 0.05254221133 0.1117539031)
(121.7591752 0.03106345719 0.1241987713)
(122.0956277 -0.1316306345 -0.346081901)
(122.1192937 -0.1285692784 -0.3351836334)
(124.7836896 0.01445038507 -0.3262873386)
(125.0875415 0.3302279699 -0.300423737)
(125.1338478 -0.168988341 -0.3197315375)
(124.8352866 -0.3038306671 -0.1410141996)
(125.0784385 -0.19132721 -0.171128121)
(127.8575014 -0.3184052411 -0.4587857197)
(127.5722879 0.03149712128 -0.9755951516)
(127.5433373 0.2127611526 0.2827211038)
(127.5103789 0.00703366129 -0.164581479)
(127.0946427 0.3626040545 -0.5102552315)
(130.4239739 -0.3344370055 -0.07920802306)
(130.3315136 0.05394410583 -0.7349235925)
(130.3456053 -0.2165399615 -0.265227618)
(129.8999224 0.2826699506 -0.5367738151)
(130.0516618 -0.07194614058 -0.4604200561)
(132.5480539 0.1116406822 -0.3152949781)
(132.5099116 -0.05294331965 -0.04115830352)
(133.1767851 0.2263283095 -0.1427868743)
(132.9253854 -0.04530339567 -0.05661720701)
(132.9251854 -0.2530691023 0.2572624879)
(135.4301411 0.1116711555 -0.2937718697)
(135.0569059 -0.4879553631 -0.5506741927)
(135.0516831 0.1140674791 0.002298348939)
(135.108819 0.1100395623 -0.2656025365)
(135.3931451 0.1393811539 0.08691058047)
(137.5827357 0.1594042725 -0.7059033853)
(137.7498789 -0.1669695834 -0.3572690052)
(137.8468469 0.1090738843 -0.617576158)
(137.9298821 0.002113579553 -0.05941804489)
(138.0766498 -0.4101443855 -0.2553453103)
(140.1727334 0.3648580446 -0.6019085586)
(140.5169495 -0.2818184596 -0.7875805028)
(140.6028063 -0.03314321854 -0.7163400781)
(139.9647244 -0.1030059073 0.02390565731)
(140.5672611 -0.03798814068 0.12771836)
(143.3522788 0.2900620897 -0.01188600854)
(143.3056892 -0.06759132086 -0.3804584265)
(142.9657351 -0.03685921713 -0.4579992892)
(143.5863645 -0.3302445029 -0.0810172739)
(142.820488 -0.03821676883 -0.02684499535)
(146.1080402 0.05066381083 -0.540706)
(145.5855791 0.006248828757 -0.01877772711)
(145.9397244 0.1694406775 -0.6467304912)
(145.561442 -0.3798265316 -0.3007623693)
(145.6872527 0.494560361 -0.3488403767)
(147.8759165 -0.05403760917 -0.3729779276)
(147.9802703 0.0789719296 -0.5998913251)
(147.9151279 0.05167307178 -0.06340250231)
(148.3082288 0.1096050718 -0.2927170387)
(147.6647872 -0.2664905782 -0.2816313118)
(150.8053378 -0.2532054864 -0.3941141814)
(150.6693323 0.4248631586 -0.4183319614)
(150.5198625 0.2494433928 -0.4084590277)
(150.7254428 -0.3081032101 -0.6112079639)
(150.7121192 -0.2542609818 -0.3783449677)
(153.5644473 -0.05940282436 -0.3754293966)
(153.5995166 0.4541539702 -0.4794019905)
(153.4999681 0.7047292468 -0.7363541082)
(153.5500281 -0.2059090683 -0.7882442614)
(153.5438597 -0.2101872658 -0.2434748946)
(156.240045 0.02935601665 0.2410797018)
(156.2078671 -0.318128991 -0.2486960536)
(156.6100382 0.603244929 -0.8086535502)
(156.7114332 -0.01798702777 -0.3627670419)
(156.070485 -0.7129164543 -0.3730656567)
(158.7083216 -0.1694844161 -0.1298305469)
(158.5859914 0.1134843809 -0.3304105589)
(158.7020996 0.1662803019 0.3216011048)
(158.864547 -0.2240807048 0.05333299496)
(159.0593304 0.04903077893 0.4440741147)
(161.1524186 -0.00200566127 -0.2100180475)
(161.5118335 0.6136603225 0.5042300175)
(161.5140374 -0.5925031137 -0.2696935767)
(160.6147646 0.3688087619 0.3039764905)
(160.9773863 -0.2949711051 0.04819313602)
(163.8374513 -0.5258682447 -0.1335599387)
(163.7074859 0.006611365803 0.3135236395)
(163.5758296 0.2817673451 -0.1738684659)
(164.0522254 0.04880153085 0.4427216177)
(163.4838752 -0.08991254975 0.1010387117)
(166.13066 0.1030763595 0.0482662214)
(166.1300054 0.1023162313 0.231576892)
(166.373644 0.05441940834 0.1510738712)
(166.0700458 -0.1511983721 -0.2383782954)
(166.457596 0.1373342167 -0.1881983337)
(168.816384 -0.04967450382 -0.2853657304)
(169.2453602 0.2046091451 0.5276850303)
(169.0210664 0.07333542066 -0.09438464157)
(169.1188493 -0.1327965261 0.3046493857)
(168.5148254 0.1520599218 0.005325051937)
(171.2542995 0.1809040438 -0.1141516)
(171.0438425 -0.2500272516 -0.350225521)
(171.7248238 -0.1539324364 -0.6415665064)
(171.4794181 -0.1217269255 -0.3850215574)
(171.6518123 -0.09126659393 -0.2334773337)
(173.8800222 0.1563789478 -0.4241360177)
(173.7000647 0.1187034406 0.2435697865)
(173.9301252 -0.4674635295 0.3203895345)
(173.4852027 0.2029651031 -0.4160761272)
(173.6603917 -0.322142096 0.1379711037)
(176.820792 -0.06909839367 0.1266060993)
(176.9516326 0.1102930483 0.06602392028)
(176.6013147 0.2159774973 -0.2174206958)
(176.581792 -0.2452562023 -0.2067990832)
(176.5355869 0.3412181343 -0.3194067535)
(179.1022979 -0.01127947785 -0.1394132517)
(179.093238 -0.1737654512 -0.007731038653)
(179.8195253 -0.01608220146 0.2803285905)
(178.9773741 -0.1484459231 -0.2630957167)
(179.409176 -0.458557771 -0.0200811231)
(181.8234811 -0.05316562252 -0.1370974261)
(181.8447317 0.1310303716 -0.1060084313)
(181.6531099 0.06606949516 -0.4767340116)
(181.894399 0.3573671635 -0.6363437991)
(181.9253281 0.07271239448 -0.2016789331)
(184.3230944 -0.193548374 0.2005867823)
(184.2037974 -0.3179224285 -0.02809508146)
(183.8332113 0.2686782438 0.4748549323)
(184.268026 0.342212922 0.3711647244)
(183.6255413 -0.2057245257 -0.1158900498)
(186.4361386 -0.4027562052 0.6212831216)
(186.6596444 -0.1623487717 0.645241152)
(186.7220345 0.04155983361 -0.5039894817)
(186.6380905 0.1454669284 0.3929464908)
(186.511017 0.09903726881 0.08435201326)
(189.5118222 -0.3571177327 0.4650051898)
(189.1838398 0.07342549638 0.494802512)
(189.0100097 0.1112670283 0.398757977)
(189.4799328 0.3005265768 0.2558517945)
(189.1167099 -0.1704744726 0.2130083753)
(191.6588532 -0.4238547813 0.1699713264)
(191.5887134 0.1840709045 0.4405453621)
(191.4987153 0.1786524477 0.09798551296)
(191.6954096 0.190255088 0.274924509)
(191.7234465 -0.1608060981 0.1279188005)
(194.0334105 -0.3920345226 -0.2171614919)
(193.6125 0.09787980948 -0.5054340163)
(193.7771697 -0.1189612483 -0.02145478605)
(193.9100912 0.06663078225 -0.06528999104)
(194.1105089 0.1115144363 0.1454638383)
(196.887103 0.2134116516 0.5301834854)
(196.586661 0.01103104712 0.4532691414)
(196.870868 0.265373994 0.1067359916)
(196.7790244 -0.6496106478 0.0900941283)
(196.5538327 -0.01827967392 0.3621517384)
(199.3613792 0.1803628986 0.2714957619)
(199.3310403 -0.1593886766 -0.2997723857)
(199.8128878 0.04943633895 0.1248998326)
(199.1810861 -0.05314663983 0.4655295523)
(199.088451 0.1543712676 0.7585570236)
(201.8945187 -0.2086075508 -0.6329503768)
(201.7465985 -0.308480332 0.5615139867)
(201.7580061 0.1660939354 0.4129187404)
(201.631939 0.2124066446 0.4142506605)
(201.4265066 -0.1861065054 -0.3929086474)
(204.285657 0.2086903703 0.4926573035)
(203.5365169 -0.2918749269 -0.1015143857)
(203.8049846 0.001425665713 0.6325952334)
(203.7165535 -0.07774568468 0.379000295)
(204.4081767 0.4602797224 0.1573323576)
(207.4742411 0.1141331393 0.2742659337)
(206.3816096 0.4845962342 0.06763121196)
(206.8933581 0.03589721182 -0.1123327348)
(206.5695836 -0.4767409281 0.1985053717)
(206.5688196 -0.1847781097 -0.1121127941)
(209.6125909 0.1115547041 -0.3135315766)
(209.3527111 0.333797379 0.2187167877)
(209.5383941 -0.6824520517 -0.001722244124)
(209.4257761 -0.07681846925 0.6519833696)
(208.7734827 -0.00717864508 0.3320608608)
(211.3182546 -0.03349377877 -0.5130692087)
(212.1519874 0.3437194085 -0.518639541)
(211.6302326 0.1637306771 -0.3749589563)
(212.0259018 0.03403722442 -0.04038920615)
(211.8891931 -0.3783660186 0.2324341664)
(214.532598 0.3114090235 -0.3651975523)
(214.5010297 0.07181199391 0.2492232893)
(214.6268283 -0.1469093904 -0.6406987981)
(214.2903306 -0.107663743 -0.04019839753)
(214.1984361 -0.1090787124 -0.199030601)
(217.2734308 -0.2458328889 -0.2632365753)
(216.7823137 -0.02669257604 -0.02955520078)
(216.7648046 0.2041700685 0.1008824814)
(216.8341762 -0.02355674223 0.04806850149)
(216.9896156 0.08736353344 0.163527562)
(219.2396649 -0.004076052524 0.443270015)
(219.6518114 0.3128745232 -0.3282533362)
(219.6170977 -0.5523874413 -0.1811228652)
(219.3461316 -0.1133706633 -0.2608176938)
(219.1240204 -0.2542057465 -0.09035542409)
(221.9250029 0.06269416419 -0.1563051463)
(221.9232865 0.1004880042 -0.3027727996)
(221.5585514 0.05890468434 0.3471645757)
(222.2246512 -0.2087402998 0.5257407619)
(221.3565606 0.4681887667 0.1495700431)
(224.0323492 0.01480343157 0.3344470959)
(223.7662195 0.005887897447 0.09340511774)
(223.9721082 -0.06154390799 0.3331266818)
(223.9483942 -0.3120081582 -0.2878069683)
(224.0893591 0.07077872762 0.1656280365)
(226.481591 0.6810502889 0.1904924256)
(226.9468216 -0.005941268279 0.2303757654)
(226.6568554 -0.541951367 0.3312124924)
(226.8612909 0.177959624 0.3415569063)
(227.0018511 -0.2053055199 0.06268781047)
(229.0739728 0.166417399 -0.2368824671)
(229.2013135 -0.1714162276 0.002407930218)
(229.0047766 -0.2143049778 0.3920096317)
(228.4988036 0.01235148603 0.7726216789)
(228.5242774 0.1724249814 -0.1272804403)
(231.0559878 -0.01384720882 -0.1240174619)
(231.3634137 -0.180696813 -0.2845324711)
(231.3414951 -0.1451128446 -0.5429609906)
(231.2273445 0.02429762297 0.5065258525)
(231.4536958 0.1133583125 -0.07066775988)
(233.4185939 -0.1290599749 -0.1096307401)
(234.1727346 -0.1227761057 0.08375495863)
(233.3619258 0.1008048066 -0.1195868713)
(233.5980698 -0.1447045882 -0.02950276421)
(234.0824104 0.05078438145 -0.1444127362)
(235.9104755 -0.1435245357 -0.5298113993)
(236.4729886 -0.5448296775 0.1609518261)
(236.3612264 0.1565161925 -0.02321448279)
(236.7588484 -0.2125171293 0.1456091456)
(236.5231088 0.03140702867 -0.3933680446)
(238.65388 0.3164892513 0.008847447316)
(238.603438 -0.2707291877 0.2169409597)
(238.4776876 0.1702134955 0.2927205125)
(238.7737577 0.144570149 -0.05394074202)
(238.7694058 0.3128393769 -0.3583234889)
(241.3943352 0.03660119247 -0.3616709057)
(240.8949346 0.02331071482 -0.2340477881)
(241.1031185 0.06975321761 -0.1463703412)
(241.1450721 -0.007483961291 -0.7264276026)
(240.8645865 -0.4497090819 -0.2857807232)
(243.5066449 -0.1817394531 0.143594398)
(243.5920369 0.1053053574 -0.6575583357)
(243.5545145 -0.2258710113 -0.3267573978)
(243.6299705 0.0003638168534 0.1376428391)
(243.898646 0.2315970953 -0.1383009982)
(245.8232676 0.5025018911 -0.06449417732)
(246.3268233 -0.04973719152 -0.8151813652)
(245.6694101 -0.1243743852 0.1221106248)
(245.7855346 -0.3021970999 0.08357968063)
(246.4811597 0.1620992991 0.207726467)
(248.5605179 0.2726419744 0.1848413484)
(248.7599898 0.317705796 0.2282422296)
(248.268405 -0.3251912376 -0.2686700328)
(248.3470386 -0.1626014508 -0.3555541859)
(248.7362568 -0.3637852053 -0.3917651763)
(251.0000821 -0.1560859558 0.2213194272)
(250.9727491 0.7399223465 0.3767762619)
(251.5309271 0.3500828247 -0.4904296201)
(251.0465929 -0.3020144717 -0.4038677283)
(251.062867 -0.1736612407 -0.06813744955)
(253.1076685 -0.08992247076 -0.0914152502)
(253.1917753 -0.08312339581 0.1129482526)
(253.8328988 -0.1379462856 0.02737676882)
(254.1059774 0.3621742428 0.04879076957)
(253.7936191 -0.2790816269 -0.1841370811)
(256.3205698 -0.05220218498 0.5406241838)
(256.0963053 -0.6420066152 -0.03319040323)
(256.0543771 0.03641231518 -0.1540195101)
(256.1144264 -0.1774618863 -0.4934174228)
(256.2654539 0.06802622813 0.06478235862)
(259.0314644 -0.1835268269 -0.5379290873)
(258.706294 0.2328090063 -0.1704804382)
(259.3891307 -0.08449677928 0.3572285676)
(258.8386374 0.1679861346 -0.0148342215)
(259.1250567 -0.1133496051 -0.04988748322)
(261.6730882 0.08087562442 0.06815753798)
(261.0447531 -0.2493628643 -0.360555302)
(261.9979372 -0.1056943079 -0.3202862199)
(261.448397 0.6464586541 -0.1828761999)
(261.8731985 -0.1294599856 -0.4556519481)
(264.1264315 -0.05746718994 -0.02078930328)
(263.7165726 -0.1640248805 0.0198256937)
(263.600752 -0.3895260806 -0.636665113)
(264.156282 0.3857817636 0.2510907478)
(263.723676 -0.03663768519 -0.2880082881)
(266.8771227 -0.07952746178 0.2347362423)
(266.5123206 0.1877462819 -0.1844200221)
(266.3719017 -0.3696820576 -0.4829591988)
(267.1083656 0.01339825851 -0.5550092327)
(266.1176206 0.1853376667 -0.4190263348)
(269.1159377 0.05285544926 -0.7090891086)
(269.2150755 -0.1278648751 -0.07157195949)
(269.1022783 -0.222850447 -0.552792656)
(269.1876458 0.008616470001 -0.4049604282)
(269.5133414 -0.1320173856 -0.4394745959)
(272.3815003 -0.04653867086 -0.6779170585)
(272.8614366 0.6504489612 -0.5195495884)
(271.8762085 -0.5356457794 -0.2387016903)
(272.2737564 -0.05465302129 -0.7598849178)
(272.1347418 0.4008025679 -0.402011195)
(274.7692346 -0.1875720893 -0.9192967077)
(275.2644939 0.3345076612 -0.2773108608)
(274.7579439 -0.1211470533 -0.9608448479)
(274.8476423 0.3005014744 -0.3461090268)
(275.1635908 -0.2943560936 -0.5485401906)
(278.4655449 -0.1349795024 -0.06181278391)
(278.8373719 -0.16262804 -0.5216765568)
(278.3610822 0.3664381254 -0.5753047047)
(278.5281794 -0.1300614829 -0.08580041821)
(278.5631792 -0.252481385 -0.7182961914)
(281.4066399 -0.231357423 -0.4144435388)
(281.632439 0.1290601121 -0.06759370789)
(282.3568861 0.546542477 -0.4036580655)
(282.0030297 0.1536028095 -1.095051929)
(282.7574982 0.6310792868 -0.78296686)
)
;

boundaryField
{
    upperWall
    {
        type            calculated;
        value           nonuniform List<vector> 5((284.7583918 0 -0.4402399639) (283.3871611 0 -0.2623212931) (283.5246364 0 -0.189578801) (284.5363026 0 0.5031567417) (285.6762436 0 0.1985929168));
    }
    lowerWall
    {
        type            calculated;
        value           nonuniform List<vector> 5((11.90250418 0 0.2223217908) (22.06957488 0 13.47837991) (12.24282307 0 -0.1492105868) (11.75081512 0 0.06375227779) (12.81123941 0 0.05039313492));
    }
    periodicX_half0
    {
        type            cyclic;
    }
    periodicX_half1
    {
        type            cyclic;
    }
    frontAndBack
    {
        type            empty;
    }
}


// ************************************************************************* //
