/*--------------------------------*- C++ -*----------------------------------*\
| =========                 |                                                 |
| \\      /  F ield         | OpenFOAM: The Open Source CFD Toolbox           |
|  \\    /   O peration     | Version:  v1706                                 |
|   \\  /    A nd           | Web:      www.OpenFOAM.com                      |
|    \\/     M anipulation  |                                                 |
\*---------------------------------------------------------------------------*/
FoamFile
{
    version     2.0;
    format      ascii;
    class       volScalarField;
    location    "8";
    object      variableHardSphereMeanFreePath_O2;
}
// * * * * * * * * * * * * * * * * * * * * * * * * * * * * * * * * * * * * * //

dimensions      [0 1 0 0 0 0 0];


internalField   nonuniform List<scalar> 
500
(
0.2279546303
0.2280448763
0.2280106144
0.2279638315
0.2278928736
0.2299036727
0.229768529
0.2300293479
0.2298618646
0.2299762613
0.231571949
0.2315765433
0.2315420801
0.2314517625
0.2316527866
0.2330324735
0.2332608899
0.2331519304
0.2331653963
0.2331015632
0.2345291986
0.2346104834
0.234685538
0.234528151
0.2345702294
0.2359477199
0.2361406461
0.2360465968
0.2360547837
0.2359651842
0.2372829737
0.2372767703
0.2375085172
0.2373693066
0.2375433937
0.2387548414
0.2387024339
0.2387692121
0.2387608905
0.2387377222
0.2400736627
0.2401343136
0.2402008497
0.2400400165
0.2400164832
0.2415161801
0.2415582856
0.2416086772
0.2414735133
0.2413356168
0.2428318212
0.2428438184
0.242839069
0.2428432631
0.2427580916
0.2440450218
0.244182187
0.2440931382
0.2441017008
0.2441809649
0.2452594318
0.2453922111
0.245377113
0.2453339596
0.2454051945
0.246734996
0.2464384068
0.2466988939
0.2466694797
0.2467805134
0.2480009448
0.2479407647
0.24802949
0.2481179852
0.2479668155
0.2492642944
0.2494021723
0.2492610315
0.2493984991
0.2494093624
0.250656832
0.2504652186
0.2505711715
0.2505311302
0.250550254
0.2518225489
0.2517593282
0.2517915314
0.2519465468
0.251760645
0.2532360314
0.2531316896
0.2531644664
0.2532084751
0.2531678264
0.2543816002
0.254313628
0.2544532118
0.2543408404
0.2544121528
0.2556819746
0.2557279032
0.2556024571
0.2556236964
0.2556135526
0.256977147
0.2570141168
0.2569856031
0.2571380897
0.2570545884
0.2582701698
0.2582361789
0.2582237436
0.2583167939
0.2584236289
0.2595087337
0.259396064
0.2594560086
0.2595014758
0.2596481573
0.2607612491
0.260845131
0.2606397462
0.260819216
0.2606957709
0.2622276232
0.2622076824
0.2621912428
0.2622707341
0.2620397973
0.2633838879
0.2634607407
0.2634935096
0.2633320756
0.2633931984
0.2646130394
0.2646598061
0.2647236772
0.2647228171
0.2646344217
0.2658072041
0.2658189377
0.2661377731
0.2658501069
0.2657043228
0.2670068399
0.2670727344
0.2672347872
0.2669853787
0.2670477306
0.2683664816
0.2683452485
0.2683026702
0.2683735996
0.2681257592
0.2694434555
0.2694244267
0.2693538458
0.2695913556
0.2695499884
0.2708697869
0.2708789885
0.270744118
0.2709316905
0.2706466895
0.2719650754
0.272183289
0.2720166019
0.2720858169
0.2719731023
0.2735249209
0.2734189983
0.2732292473
0.2732144146
0.2731619016
0.2744851396
0.2743471318
0.2745712143
0.2743648827
0.2743551346
0.2756106638
0.2755037467
0.2757044488
0.2756409536
0.2754810953
0.2769921336
0.2770175269
0.276759829
0.2768375748
0.2769171036
0.2780377296
0.2781277536
0.2781450502
0.2779918624
0.2780228521
0.2792456335
0.2792359053
0.2791489502
0.2791980136
0.2791196357
0.2804420515
0.280584181
0.2805399637
0.2806377472
0.2804512326
0.2819053535
0.2819156313
0.2817962766
0.2819250719
0.2818885478
0.2828041688
0.2829866999
0.2830011123
0.2831275527
0.2830247422
0.2840517195
0.284157176
0.2842262719
0.2843669141
0.2843086481
0.2854219273
0.2853739103
0.2853627307
0.2854372132
0.2853916937
0.2866403465
0.2866803307
0.286560534
0.2866699802
0.2865966303
0.2879203138
0.2877643094
0.2878702181
0.2877988609
0.2878601688
0.2889852289
0.2890939794
0.288985286
0.2889955981
0.2890975703
0.2901163538
0.2900231567
0.2900745853
0.2903363403
0.2899790724
0.2911455308
0.2913551763
0.2913649022
0.2912736396
0.2913018761
0.2925432529
0.2923573272
0.2924774831
0.2924352069
0.2926259471
0.2936539203
0.2937803438
0.2935603447
0.2936436009
0.293593222
0.2948033542
0.2947344207
0.294861407
0.2948741932
0.294899464
0.2960237836
0.2958626518
0.2961580786
0.2962530045
0.2960177289
0.2973635353
0.2973570704
0.2973094218
0.2972698377
0.2972701535
0.298310066
0.2987143723
0.2985912798
0.2985010413
0.2983562401
0.2996372982
0.2996467188
0.2996019147
0.299753656
0.2994304528
0.3007615559
0.3009117398
0.3007760783
0.3007948644
0.3006843843
0.3019767783
0.3018235254
0.3018932797
0.3019167313
0.3019688239
0.3031259642
0.3030197646
0.303301118
0.3033371891
0.3030528192
0.3043717254
0.3041332699
0.3040963151
0.3042015648
0.3043707203
0.3054376916
0.3054159415
0.3052506085
0.3053100393
0.3052246362
0.3065979994
0.3065214486
0.3066118467
0.3066443366
0.3066512877
0.3078453878
0.3077352953
0.3078719322
0.3078528192
0.3077163403
0.3089175253
0.30864925
0.3090340524
0.3089004449
0.3089296719
0.3099569828
0.3101846296
0.3101032733
0.3098842297
0.3102347847
0.3113813476
0.3112586479
0.3111432361
0.3111409698
0.3111737273
0.3124509625
0.3124101694
0.3121934469
0.3125149876
0.3122663883
0.3135633818
0.3134747255
0.3133750193
0.3133870606
0.3133086664
0.314496376
0.3145619067
0.3146417587
0.3145765695
0.3146231875
0.3155342967
0.315706992
0.3156907486
0.3157011183
0.3156077816
0.3169045638
0.3167586055
0.316972751
0.3166664521
0.3167116663
0.3179005283
0.317948707
0.3178665706
0.3178388721
0.3177055692
0.3190807811
0.3189588588
0.3188181856
0.3189402646
0.3188158797
0.3203898292
0.3202436826
0.3201355549
0.3199357861
0.320147729
0.3215394032
0.3216241442
0.3213863536
0.3212610584
0.3212118173
0.3224923678
0.3225958147
0.3226180569
0.3227890584
0.3223698687
0.3236572689
0.3237830726
0.323798795
0.3236452818
0.3235519318
0.324858335
0.3247736841
0.3248008777
0.3248566144
0.3247079958
0.3260026199
0.3258463225
0.3257889205
0.3256308041
0.3257142916
0.3271444569
0.3271710576
0.3269484399
0.3270084302
0.3267952113
0.3280920234
0.3283154212
0.327864857
0.3282654489
0.3283877571
0.3294113031
0.3292997072
0.329498763
0.3295004539
0.3293313534
0.3307078683
0.3305244252
0.3307015492
0.3304712345
0.3306202119
0.331354738
0.3317072536
0.3314215284
0.3315381032
0.3316841814
0.3327246745
0.3327682279
0.3329578804
0.332728233
0.3327821851
0.3339355029
0.3341283651
0.3337947415
0.3340026602
0.3340877092
0.3350038358
0.3349441005
0.3348687789
0.335111044
0.3352907288
0.3360864964
0.3359328577
0.3358727362
0.3361306695
0.3362624781
0.3371449039
0.3372331607
0.3371936462
0.3373000098
0.3374772091
0.3382526497
0.3384775319
0.3384015711
0.3385919458
0.3384918942
0.3396872881
0.3394025818
0.3396104936
0.3396171388
0.3396902704
0.3406166311
0.3406187935
0.341003515
0.3409809421
0.3408558637
0.342049615
0.342057792
0.3421533828
0.3421991146
0.3420426967
0.3433239598
0.3432538515
0.3434461383
0.3431760092
0.3432674057
0.3445744634
0.344555866
0.3445922064
0.3444933713
0.3445145657
0.3460694934
0.3459146781
0.345794051
0.3459299619
0.3459071605
0.3471972982
0.3473759068
0.3472509897
0.3474508164
0.3472349293
0.3484268083
0.3486958497
0.3485811043
0.3486809064
0.3484990201
0.3503636623
0.3504053123
0.350563484
0.3501943213
0.3504986809
)
;

boundaryField
{
    upperWall
    {
        type            calculated;
        value           nonuniform List<scalar> 5(0.3503636623 0.3504053123 0.350563484 0.3501943213 0.3504986809);
    }
    lowerWall
    {
        type            calculated;
        value           nonuniform List<scalar> 5(0.2279546303 0.2280448763 0.2280106144 0.2279638315 0.2278928736);
    }
    periodicX_half0
    {
        type            cyclic;
    }
    periodicX_half1
    {
        type            cyclic;
    }
    frontAndBack
    {
        type            empty;
    }
}


// ************************************************************************* //
