/*--------------------------------*- C++ -*----------------------------------*\
| =========                 |                                                 |
| \\      /  F ield         | OpenFOAM: The Open Source CFD Toolbox           |
|  \\    /   O peration     | Version:  v1706                                 |
|   \\  /    A nd           | Web:      www.OpenFOAM.com                      |
|    \\/     M anipulation  |                                                 |
\*---------------------------------------------------------------------------*/
FoamFile
{
    version     2.0;
    format      ascii;
    class       volScalarField;
    location    "8";
    object      vibrationalT_mixture;
}
// * * * * * * * * * * * * * * * * * * * * * * * * * * * * * * * * * * * * * //

dimensions      [0 0 0 1 0 0 0];


internalField   nonuniform List<scalar> 
500
(
2058.318492
2058.314091
2058.662392
2059.604723
2058.66429
2073.420995
2073.007635
2074.175193
2074.158094
2073.589614
2085.8564
2086.162484
2086.75486
2086.620493
2086.919608
2098.176841
2098.168384
2097.927258
2097.586612
2097.909072
2109.129521
2108.558824
2108.645414
2109.159782
2109.238491
2119.510923
2120.19796
2119.890332
2119.567898
2119.154678
2130.671748
2131.363824
2130.455396
2130.667885
2130.218209
2140.855158
2140.549331
2141.271637
2140.740728
2140.783152
2150.916492
2150.765542
2150.202929
2151.379548
2151.161262
2160.919751
2160.935293
2160.496179
2161.381112
2160.742104
2170.373166
2171.107771
2171.363657
2170.950493
2171.060526
2181.080378
2180.698544
2181.1337
2180.646202
2180.090959
2191.061623
2191.067513
2190.588673
2190.637249
2190.711373
2200.091325
2200.101758
2199.830894
2200.499304
2200.038113
2209.637305
2209.596988
2209.627786
2210.748283
2210.144265
2219.997254
2219.922882
2220.125032
2219.750162
2219.583735
2229.088278
2229.664739
2229.881265
2229.513386
2229.73906
2239.350195
2239.134962
2238.83651
2238.798456
2238.444659
2248.681835
2248.08341
2247.652836
2248.365897
2247.950741
2258.340017
2258.525836
2257.478414
2258.187784
2258.513204
2267.261836
2267.412632
2267.356857
2267.708215
2267.709547
2276.774777
2276.559381
2276.719506
2276.514162
2276.683954
2285.722669
2285.75293
2285.578352
2285.870341
2285.972306
2295.740519
2294.606751
2295.236873
2295.983374
2295.245533
2304.663566
2305.035239
2305.421537
2304.554664
2304.97745
2314.170259
2314.087724
2314.862248
2313.680511
2313.637958
2323.234452
2323.138503
2323.653824
2323.739034
2323.000542
2332.300161
2332.04644
2332.042532
2332.288235
2332.181075
2342.313979
2341.172912
2341.465633
2342.136557
2341.845869
2350.834924
2350.378141
2350.724912
2351.16842
2350.749956
2360.581239
2360.144343
2359.157101
2359.487174
2359.483277
2368.423558
2368.725441
2368.655393
2368.564386
2368.519466
2377.921319
2377.886519
2377.50515
2377.096566
2376.752664
2386.482408
2386.775397
2386.398687
2386.272027
2386.717073
2395.611576
2395.380074
2396.08467
2394.558978
2395.443321
2404.602108
2404.053472
2404.415069
2404.813905
2404.648117
2413.394948
2413.104163
2413.076501
2413.574234
2412.581594
2421.298988
2421.369733
2421.876591
2421.346466
2422.275624
2430.785643
2430.046252
2431.550736
2431.432668
2430.207218
2439.259604
2440.079632
2440.02146
2439.918252
2440.14185
2448.736666
2448.11059
2447.830854
2447.71983
2448.224038
2456.750144
2456.638906
2457.058875
2457.467405
2456.601531
2464.803799
2465.275301
2465.41275
2465.488458
2465.16095
2473.477777
2473.872804
2474.697536
2474.21497
2473.821673
2482.392652
2483.095282
2482.572027
2482.496111
2482.611519
2490.873224
2491.121414
2491.776347
2491.17787
2490.805567
2500.188439
2500.687334
2500.031368
2498.787887
2498.720494
2508.047277
2508.093615
2508.027929
2507.996371
2508.099171
2516.58936
2516.675998
2516.338227
2516.895789
2516.772275
2524.970469
2525.907258
2525.359194
2524.848344
2524.915946
2533.993471
2534.606371
2533.139349
2533.744769
2533.709017
2542.055436
2542.391861
2541.756538
2542.576541
2542.210585
2549.908512
2550.614436
2551.47593
2551.207502
2550.278772
2557.973871
2559.349451
2558.9025
2559.201555
2559.119098
2566.758032
2566.329151
2567.494854
2566.988071
2567.017401
2574.309417
2574.320985
2575.023509
2575.534272
2575.081998
2582.775816
2583.492705
2582.789398
2583.404685
2583.17045
2591.365147
2591.385123
2591.912215
2591.819301
2591.552444
2599.940031
2599.528383
2599.965169
2599.982353
2599.248761
2607.825029
2607.120466
2607.716943
2608.267405
2608.124619
2615.881747
2615.937092
2615.926522
2615.405294
2615.785437
2624.571978
2624.353059
2624.378669
2623.304332
2623.327091
2632.092965
2633.106564
2631.807105
2632.636536
2632.516623
2640.351192
2640.58939
2640.475148
2640.207308
2640.621183
2648.672263
2649.44218
2648.936019
2649.415284
2648.641095
2656.920467
2656.395049
2656.939358
2656.500181
2656.982207
2664.932711
2665.199485
2664.658702
2665.542936
2664.944438
2672.608287
2672.475494
2672.005631
2673.946426
2672.477003
2681.042588
2679.952025
2679.599782
2680.148065
2680.877512
2688.722182
2688.658262
2688.37576
2689.409662
2689.37442
2697.309732
2696.911624
2696.80513
2696.29103
2696.746096
2705.804994
2705.693293
2705.444805
2705.589431
2705.962157
2713.17602
2713.386356
2713.153316
2713.883574
2713.081075
2722.049788
2721.011022
2720.797293
2720.445371
2720.732204
2729.399008
2729.853081
2729.577087
2728.730438
2728.97167
2737.252685
2736.819506
2737.009109
2737.106949
2737.3531
2744.440659
2745.473146
2745.281451
2744.280321
2745.074038
2752.998685
2753.187214
2753.561626
2752.69759
2753.752486
2760.43322
2760.117682
2760.754424
2762.478987
2760.326563
2768.821021
2769.792517
2769.284184
2769.692893
2769.068178
2777.056753
2776.948298
2777.738003
2778.128724
2777.419129
2784.79078
2785.268019
2785.038868
2784.510695
2784.544934
2793.330326
2792.518528
2791.938391
2793.225008
2792.528091
2801.425498
2801.003662
2800.273724
2800.481492
2800.020499
2808.590472
2808.649828
2808.872363
2808.342369
2808.031455
2815.579651
2816.622525
2816.653082
2816.587777
2815.736066
2822.996158
2824.824543
2825.330824
2824.434839
2823.785804
2832.116424
2832.487512
2832.748777
2832.277044
2832.359579
2840.980873
2840.870767
2840.271406
2840.218695
2840.264796
2847.728487
2847.22681
2847.478618
2848.126955
2847.403617
2856.191971
2856.134919
2856.48645
2856.009503
2855.604311
2863.808358
2863.677118
2864.347293
2863.830836
2864.725001
2871.691673
2872.490262
2872.188895
2872.483345
2872.049341
2879.62341
2880.070044
2880.891893
2879.406369
2878.816894
2888.550448
2888.031318
2889.667542
2889.342734
2888.301527
2896.804515
2896.795293
2897.32104
2897.583968
2897.399174
2905.356832
2905.553339
2905.375368
2905.143059
2905.210313
2914.648339
2915.020681
2914.486187
2914.810013
2914.445282
2924.40825
2926.049494
2926.340046
2925.588127
2925.227037
2936.488737
2937.680686
2936.536337
2936.640436
2937.030225
)
;

boundaryField
{
    upperWall
    {
        type            calculated;
        value           nonuniform List<scalar> 5(2945.504584 2943.461703 2948.099582 2944.198732 2944.575754);
    }
    lowerWall
    {
        type            calculated;
        value           nonuniform List<scalar> 5(2050.024639 2042.724381 2047.667333 2048.937975 2047.174036);
    }
    periodicX_half0
    {
        type            cyclic;
    }
    periodicX_half1
    {
        type            cyclic;
    }
    frontAndBack
    {
        type            empty;
    }
}


// ************************************************************************* //
