/*--------------------------------*- C++ -*----------------------------------*\
| =========                 |                                                 |
| \\      /  F ield         | OpenFOAM: The Open Source CFD Toolbox           |
|  \\    /   O peration     | Version:  v1706                                 |
|   \\  /    A nd           | Web:      www.OpenFOAM.com                      |
|    \\/     M anipulation  |                                                 |
\*---------------------------------------------------------------------------*/
FoamFile
{
    version     2.0;
    format      ascii;
    class       vectorField;
    location    "1e-05/lagrangian/dsmc";
    object      U;
}
// * * * * * * * * * * * * * * * * * * * * * * * * * * * * * * * * * * * * * //


99996
(
(321.812874 454.9441149 40.8457033)
(263.4531937 50.37956584 -101.7280762)
(-263.2883689 -161.0039679 -104.9613259)
(-452.2469756 -465.3722393 156.0356383)
(-31.76567618 -430.1682849 337.4266153)
(-123.8642606 -151.3227154 -363.3275444)
(-194.0442939 217.3305535 185.6606186)
(126.885072 99.91339565 37.20229987)
(431.9119599 44.85747261 -22.85093049)
(664.5055891 -63.78463604 -434.1203137)
(18.57972717 -51.52646144 -86.40307436)
(-23.03838236 177.6988866 222.7053317)
(-336.3482133 -387.3246677 500.4637233)
(-66.10191302 -37.4140641 34.28664671)
(-261.1645389 75.04751676 33.94626375)
(106.3544265 155.7974319 245.8387703)
(-1.916676248 -131.5782184 -120.0708905)
(-283.1872213 -171.1284087 204.2931493)
(-14.24001531 101.8271998 -283.0408916)
(-197.002575 -501.6847271 -342.4714782)
(78.32898002 -65.55470501 -305.4866036)
(-53.78084306 -97.51542451 176.6040866)
(-75.50573763 259.9024267 175.0142759)
(-399.898098 55.70926214 -165.3342992)
(-159.6739994 -171.8455018 -224.3023719)
(308.0910416 226.2143286 293.0883063)
(29.7051357 -21.98773442 -143.6058356)
(285.2165562 86.58922755 79.24273575)
(95.56458338 -122.7065612 24.87188733)
(-201.0053167 -675.0227866 -68.61382212)
(-127.9265646 212.6926005 -304.0695442)
(275.6690523 -243.408186 -138.8320251)
(-1.456765379 -55.91512269 95.66910449)
(411.9713354 -53.2981552 -10.33751772)
(-88.27590326 -331.2529746 17.996646)
(63.11992262 49.57752813 60.44851728)
(46.34063259 139.1198407 80.43577734)
(93.0115036 199.554403 89.87868012)
(-329.5076487 -202.272925 -233.3497503)
(-7.553745941 134.2533158 -34.15300054)
(26.82676326 101.0153674 53.49913828)
(-74.23454406 87.09216691 -40.09535162)
(76.85637777 -182.0812602 30.12451055)
(212.0853011 -163.4158948 342.9852904)
(205.6514946 86.86555511 -224.3953577)
(-222.5339493 -161.7735789 -174.1569638)
(55.98183319 -370.792753 12.25574732)
(-394.9978275 443.1833167 -310.0584242)
(113.4231933 172.98804 -46.46953792)
(-70.50402012 293.2476654 37.9795482)
(-275.5209631 -109.0832775 202.7837783)
(88.92022902 -262.0822181 -24.44231219)
(-103.0621573 21.54259615 43.97093173)
(-248.5131275 -313.0136558 -57.2484684)
(200.9906451 214.7166264 183.4918007)
(148.4264953 -448.4873861 -94.82994237)
(-263.7612876 54.3672241 173.8340993)
(177.2761458 7.308128072 37.78629842)
(151.5800675 304.6250974 -73.34655025)
(67.4954982 -107.1112107 260.6416394)
(17.41781959 -219.7898921 147.1376822)
(-353.9049864 45.00482805 334.2978412)
(-539.6174675 63.40147887 332.1920754)
(-14.11446519 246.9256367 229.0444375)
(180.2488711 -70.18701768 6.789394082)
(-390.7879736 -25.51992301 -228.3549081)
(114.5448688 261.2183059 -97.1969777)
(-68.74760779 300.8945315 -190.9198381)
(-339.1485477 -369.0175136 237.6460918)
(-93.95955794 191.629256 316.7679398)
(424.8273863 183.6822869 140.3903739)
(-243.195322 -383.9765928 -22.00153903)
(7.351721684 337.5873689 -15.57556237)
(293.1038076 -10.00931553 -203.3054074)
(110.8697426 -159.4545836 190.2815345)
(-26.65656387 -246.861266 20.1558869)
(-292.169443 -113.390456 124.0252837)
(75.44863542 284.1860287 133.7523734)
(556.8363272 80.06949 32.32756942)
(137.4230442 76.06868595 -111.1193691)
(-30.80077065 167.2294758 501.0726896)
(60.55788034 -215.2515679 -75.83854509)
(-108.6492461 -176.2457918 122.9401378)
(76.61648993 -35.46975969 -146.0346534)
(17.0821997 39.94671157 -4.068277842)
(279.0252474 -118.9774769 68.61421404)
(-182.3842066 -163.8136373 415.2174015)
(38.30801892 233.9280021 -38.93562515)
(240.4605028 19.04409919 -477.6944466)
(-172.8642392 -215.9348727 198.425724)
(108.2044281 -448.2649722 101.0041727)
(164.9817386 40.60568921 160.7604687)
(-90.68213154 -67.62417097 -97.98467953)
(-49.90571804 89.8864933 -208.3008696)
(262.3117739 550.9832254 -31.99001009)
(2.130730056 123.2569411 -26.58609089)
(162.6974226 -425.2851121 180.8504637)
(293.5203637 79.81335687 1.871018641)
(-108.4566846 -42.73918674 105.1896627)
(268.5513012 318.9672961 -10.69344444)
(190.7520196 -199.1862429 42.18145175)
(227.9638992 -70.04616773 -334.9421119)
(-253.1145535 121.3539424 -358.2285461)
(-37.06266771 -275.1018663 -251.5073151)
(-496.767213 -295.7223268 -495.2565175)
(-110.0432714 -320.6127755 -180.2401483)
(-76.85669426 -139.2004689 121.2415048)
(-79.09092324 -379.9941698 115.7858928)
(-200.1407867 -154.7722823 -80.38271229)
(-493.4176552 -405.4857134 56.18631976)
(-222.4051268 -102.0810659 153.9126963)
(-173.1809642 340.5970399 -50.91665556)
(3.676177606 -59.2339655 373.6962832)
(6.702113323 538.6982757 -125.366574)
(357.6279989 198.401755 -387.4802746)
(230.0813266 -106.8946753 -271.0322616)
(158.1073169 34.47972495 79.7496465)
(356.573404 -265.0436247 61.54269674)
(-16.0588669 192.0766998 12.49657715)
(-62.13502694 -109.0703572 187.0220335)
(63.76673179 94.4922952 -26.02779876)
(-93.635147 389.4092096 -29.8166565)
(-550.9781657 324.7191653 231.5655102)
(361.8590182 237.1594976 -137.5042986)
(179.0815635 271.0685174 78.03177492)
(461.0558547 -316.4299109 65.57006571)
(45.12291101 -341.0121739 -306.1191918)
(378.8815307 188.8923606 -97.62620386)
(226.6241429 172.4142054 155.9887053)
(-347.909012 -312.8728465 421.0396926)
(-25.12580468 362.9749883 -365.9201345)
(181.1247322 418.0207756 -267.0207562)
(-173.029895 -138.8527303 14.84763054)
(51.11041528 14.80615597 -462.6152685)
(412.3265824 333.4912615 -205.3274131)
(-114.8058862 -329.195419 110.1880894)
(732.1922406 -390.13107 -88.11054475)
(80.7827875 -5.378191091 -56.30868397)
(78.0342514 94.94222481 -386.4592793)
(60.37363651 306.5060231 -153.4589156)
(-82.76709563 137.4667839 -383.1790446)
(119.2816668 -19.00301256 275.4149845)
(145.6789617 -132.0033267 187.7747187)
(301.9536802 220.2733422 206.5038478)
(284.0402573 -18.45842823 164.9504785)
(-127.5149651 -71.48800024 -108.0880421)
(289.5647353 99.13734227 132.85593)
(-210.1444481 183.0863985 69.65789987)
(340.3530362 491.1793885 179.4179067)
(-112.6734907 -83.69380528 225.1355394)
(-78.13095313 -305.74032 227.3510172)
(-47.71090625 -429.7192371 -212.555582)
(13.95553693 63.04795239 -197.7308223)
(-346.2544395 -379.3267524 -305.1713157)
(456.913709 249.121944 211.5691356)
(-8.609758198 297.9604055 32.31072283)
(164.1276094 31.26679126 -42.49294063)
(-115.0886565 522.5519307 -23.22707126)
(216.8286446 -67.1661401 -160.8945625)
(17.18708546 112.3048362 -341.7491864)
(-501.7607713 -281.0820253 -405.9756758)
(-337.79663 -45.73463375 108.6869326)
(-90.68735756 211.247826 20.48519495)
(525.2047443 195.8031454 52.61644203)
(-157.7193397 246.27511 190.9379059)
(-53.51106751 -294.5393551 243.0917335)
(30.38532828 114.0514164 -135.8828883)
(281.1968078 266.9155899 -58.91187669)
(159.3762522 104.8727694 361.3306071)
(31.19846652 105.8983816 -82.45022855)
(157.6072005 -145.1220882 -330.4035253)
(83.02824157 92.24137464 68.16864226)
(-70.04672786 -182.9803698 295.7002339)
(-77.94482104 258.6686274 57.61753652)
(-188.1347982 -185.8147891 170.7152406)
(447.9677849 -165.3187132 -136.9016306)
(-177.8933008 166.2545629 -90.01173701)
(-357.1446565 -260.2256702 -241.6662488)
(289.0858898 -238.7278443 202.8366061)
(-29.58459686 -224.0575601 128.4891427)
(-86.88194205 115.1125515 -44.73308428)
(-419.7990425 73.2459419 -179.1882964)
(346.7446667 -113.6711262 140.2254279)
(-15.63645123 152.296862 -139.697715)
(-366.8174211 -348.5054077 297.5225916)
(118.7503206 -505.1890025 210.7649967)
(250.5459742 175.536363 291.7365457)
(-128.3887366 -133.4272786 -23.48198908)
(-160.3253072 -139.4365043 -729.9922015)
(58.24337661 424.530041 -492.1972846)
(-82.47349263 -156.6979808 -645.2321836)
(267.9284631 -90.58224731 -210.5214077)
(174.2024662 -305.677086 -290.0235249)
(-274.8886675 318.3007713 -258.4734528)
(161.6963567 444.2523834 74.31102612)
(9.374359141 -83.62429169 -163.301689)
(334.2053 -61.32457853 -481.6546298)
(-188.5613789 -4.373584259 374.0076082)
(-9.000979971 299.7171575 308.2512285)
(314.8484039 -36.07278472 -124.0857349)
(-15.10451556 -168.3179123 123.2721545)
(-79.25249766 -299.4590437 489.7252337)
(-91.9887988 117.1774429 401.9874103)
(35.20709637 -172.3443928 106.1803227)
(271.7520111 56.88308863 -188.364961)
(251.339998 -8.252756752 221.189113)
(-53.06388136 -547.8325617 298.4423275)
(67.62361537 94.4710752 200.8780458)
(479.6265807 285.984235 269.7864444)
(-15.79077765 -187.3079489 306.2259975)
(83.62483751 -196.3109416 146.5354304)
(187.5785447 -52.48595344 -51.03657269)
(98.13469217 8.00634245 -199.8770725)
(30.29239546 485.8993418 -287.8370394)
(264.8082646 113.5065635 203.6832218)
(-350.3974102 261.1449413 -19.02753544)
(261.9811442 129.7114769 89.55065905)
(-199.7389416 548.7582828 -141.2474846)
(125.8929983 106.6420135 -27.79202867)
(-78.4979964 89.03559568 16.81897197)
(-56.0615498 -42.21908741 110.3111189)
(-61.06139649 21.16405042 154.0789447)
(-59.90652594 -137.0276366 -39.08128261)
(208.5161242 -63.14333954 -223.6013951)
(317.9097282 -198.329718 71.98631045)
(82.48133607 -261.1817215 -265.3466252)
(315.3908803 -235.5142505 236.8496625)
(-283.2913482 161.8618079 -141.751642)
(50.58377921 -17.25152255 113.4594064)
(11.61672675 -151.4112611 307.4912202)
(-258.7187668 98.08236384 627.360244)
(-79.62777167 64.75204745 6.813072658)
(-62.38212524 121.8886571 226.1499077)
(-378.2828944 281.1187379 525.7528991)
(39.2651998 -98.71896132 -199.3404478)
(257.3585549 -122.2752028 76.19327484)
(-46.25984152 109.118898 -27.21604163)
(-142.468534 170.1143464 116.5941273)
(186.993664 62.28076763 157.0945922)
(-27.39268413 384.3262699 94.70986484)
(16.47680292 -402.8618228 -179.504221)
(-299.8794495 191.676769 -20.62790825)
(-79.059623 -550.1726494 250.2549764)
(-138.4911646 56.32781451 -57.81814307)
(225.8953555 -286.2017343 -265.6331268)
(285.0203807 -21.15055898 -110.4614623)
(-247.4033836 22.82916026 396.7527966)
(-381.8458767 -81.78966463 522.953711)
(319.0654969 -346.2344422 -147.4143192)
(190.736698 -173.7299978 464.7002852)
(-100.1287796 434.7718492 -347.3736469)
(-57.46840392 273.994734 -429.4458008)
(445.8981001 534.6310179 -229.1196946)
(117.3766959 169.9474694 -732.4257388)
(-93.3521042 -60.87601528 33.59199925)
(-62.59586465 -112.4871512 143.7458226)
(-106.7276333 -92.20242778 57.89791452)
(214.0299625 162.3426594 -78.89761211)
(-33.99444182 59.61188863 287.7761247)
(29.22909879 -174.7868687 -11.01494241)
(136.6568981 -178.6578718 164.9792413)
(-93.10961798 84.29198791 -170.2249033)
(285.7440064 -106.0705012 -150.6922049)
(-88.80495135 -318.9720749 351.2504144)
(245.7290009 77.12915904 30.5650838)
(-18.68842841 -1.367335389 -0.61276925)
(501.6557441 -202.9746504 -155.7689707)
(-272.9160849 -424.5395284 -114.0733098)
(-244.3916123 -263.7408078 -61.12514984)
(232.8675733 173.4758403 173.5833229)
(-26.87274542 -365.5147681 -10.72081014)
(535.1205903 39.77250532 13.63427034)
(232.4388512 -90.43828652 -85.91396182)
(-55.81704241 268.8942357 -165.2135411)
(-48.5968842 116.2091453 53.73095888)
(179.0855136 -180.6451803 273.3499784)
(-31.03302366 -525.4512971 -114.6508856)
(0.2574537018 155.6225014 -148.0543728)
(-127.3397563 -195.3336392 115.1149286)
(178.7252899 -71.66014127 -475.7524021)
(0.2533717682 80.99555387 -54.81903316)
(-340.4947662 137.218217 -322.4826768)
(167.6049187 -370.5195174 -145.7482478)
(-234.5303851 329.8293908 54.4137607)
(555.3027814 89.71225423 -178.1792483)
(46.96696306 -96.09466243 6.737516747)
(219.1226849 7.864582303 224.0169733)
(68.95310792 31.90146272 -34.38335806)
(-12.98508496 64.37658217 10.25594835)
(264.0528787 -126.8680431 122.88924)
(-191.9262374 -238.3500641 316.8871743)
(-444.8798854 -217.7145744 30.69753592)
(-119.3952759 -64.06129051 -4.983551881)
(188.0027897 24.18327329 -324.0277284)
(-94.06330045 -245.4446566 -68.8834148)
(-250.1572455 488.6892131 -225.5557309)
(246.5648767 -62.51651479 -30.86246874)
(301.3488933 244.6669889 -172.1903174)
(-76.23380367 91.47219537 383.6684203)
(-126.5229094 -372.3576429 -147.2343074)
(554.0268621 -101.9764867 -154.1262642)
(322.7004992 -103.6791539 200.4607175)
(68.08255691 348.1573166 153.1641985)
(138.5292924 -174.1628285 -127.4531732)
(281.1728786 -403.2105837 -64.56658405)
(310.6584359 127.4632374 1.206817531)
(-7.585886495 340.8285235 -137.494942)
(507.9022647 -199.5338985 -69.08467899)
(-109.6001547 16.5831861 228.6251491)
(75.01519654 -301.6291931 -613.8024054)
(44.59368472 145.8940971 427.1275342)
(529.6489596 -264.3340434 272.2638787)
(38.36393616 278.7082297 143.3312575)
(-59.04139122 -134.8129313 638.1900447)
(313.2112326 -469.7165027 162.7649186)
(56.65617805 69.95248518 -33.47493675)
(451.1506566 150.1604364 163.607605)
(-49.0026822 -283.7460649 48.90501808)
(60.38015179 -333.5128791 -194.8350908)
(-268.4694663 -429.7078211 396.902523)
(-41.2282351 -196.0125008 -36.05604334)
(-87.03620001 -208.3588029 -58.12646306)
(-149.958047 170.1790352 390.4086299)
(-256.2218391 -293.7831213 -263.6625645)
(-14.24917496 -122.4793577 439.3891097)
(181.5215373 278.8748532 392.7702156)
(317.1916687 -46.88058028 551.3908146)
(-45.27226739 -199.945533 -286.8974175)
(56.39901042 201.6015025 -88.05446752)
(305.6379593 356.7705787 -459.4024847)
(532.5255515 584.1628869 -339.3068328)
(147.6783007 -273.0320634 -30.12584384)
(508.7905173 -261.5186422 214.2601596)
(255.7314557 -202.9578665 -264.1771769)
(65.30537227 138.6965902 388.7046254)
(-51.35198992 336.1296779 25.13533272)
(-224.1693313 136.560949 203.1169335)
(-79.65274575 -215.7474094 406.505539)
(191.9373873 161.5609841 -179.363095)
(-240.7344656 -58.18991722 172.1660577)
(-343.2517567 -212.54851 17.70075725)
(401.6364138 -201.1491611 -31.86016496)
(160.9892193 291.6661527 311.3750678)
(140.7880698 156.3659233 105.5793777)
(273.4041588 -173.9457344 66.4009407)
(160.3506682 -320.9620164 -86.88599448)
(-183.1024772 -193.5417094 -99.59749538)
(124.9588316 25.80292504 120.2637852)
(70.01186939 66.79113915 15.57853856)
(-280.0288727 -1.512767814 5.381921363)
(12.21543024 127.6849029 -5.076754083)
(71.96958072 -247.1618459 -38.19580663)
(220.4059282 -205.8873466 465.8072838)
(162.6965812 -157.2114754 -37.24383914)
(-170.4652748 153.5687782 18.99451559)
(-130.5970498 180.9238562 -139.2756559)
(-189.2112922 20.86332644 308.9851848)
(-351.3515719 8.818010398 -246.1392439)
(-41.00042763 -1.753158996 131.5082781)
(161.1694098 52.49945593 -162.3205953)
(-218.7655052 356.535151 388.8962993)
(41.90346925 100.0377819 565.9198001)
(192.5338389 28.38715696 -137.604248)
(-128.6242818 -260.5739761 -204.0879962)
(-298.6810129 95.81205438 57.27306137)
(61.77488771 -276.1581655 113.9859326)
(-126.0488582 353.5181109 -120.4467478)
(25.95341305 197.5375197 132.8771141)
(-352.4691175 720.1126515 71.49480132)
(205.3083834 -77.24901862 -363.2118924)
(-152.6114961 163.011773 786.9038307)
(-284.4426487 -109.0862434 -34.53986062)
(5.865633539 384.0114279 14.99864678)
(-16.76294166 -237.9443843 240.638925)
(-73.31104026 336.2088029 88.98711989)
(-176.5174828 -152.7181915 -209.2064898)
(455.8973163 189.8511909 4.269645717)
(-231.9217168 22.27054599 307.9242647)
(-178.7762222 314.7958866 -85.03227121)
(-77.12168237 -110.8753935 -45.32779008)
(-100.6569229 601.7629197 -56.89870675)
(-69.8016024 374.051476 -287.6174144)
(343.6794806 -449.834542 -221.4046918)
(-37.95153069 30.73279568 -216.4083187)
(53.08817543 111.0248267 190.9699927)
(295.9292414 -152.9051008 -232.5597141)
(-317.690057 -41.78962216 -59.20118637)
(-174.6036907 -38.65996832 -9.688872137)
(158.413811 -317.3632389 102.5254312)
(640.3699818 106.2960321 -455.8427592)
(320.390055 -245.1920978 278.9533395)
(393.1122934 101.7700822 -207.4081769)
(204.9027563 -149.192187 -195.0522245)
(-54.58643845 -253.2501882 349.3059056)
(173.8552998 349.9680636 153.5975039)
(318.7211916 151.5328283 -95.91298102)
(232.166967 -298.8315818 267.0628252)
(487.0326982 72.75341297 -104.4262628)
(-366.3062595 303.7422947 141.625706)
(390.5601169 -97.40436246 -369.5126202)
(-150.0259497 -57.31295631 343.6322292)
(28.8274874 165.4773986 -112.3986607)
(-289.7376366 88.69968756 140.5846089)
(-174.9502585 96.18768876 17.79475908)
(-352.8874325 271.2766023 -93.74328581)
(-588.0793642 281.6514995 -186.2561963)
(54.15331405 -424.8382436 305.0140687)
(-217.3152775 -297.2233139 -547.9960314)
(481.4937276 -191.5885792 -220.1228728)
(155.5850308 -253.1203164 605.1086603)
(232.3643435 105.4993849 58.73894147)
(101.0603444 -76.47727051 303.3849166)
(21.52251517 200.6311147 -481.1729233)
(-144.0974137 -39.00365228 -85.12914396)
(284.7274338 202.6478367 135.6460714)
(191.5679308 336.9726886 411.0958443)
(0.490804915 -258.427624 271.3264702)
(-254.0827018 20.76437723 173.7830594)
(-101.470924 319.9712299 55.13694894)
(-142.2505591 170.3420086 -32.95048797)
(98.33444592 52.00644101 -312.4820488)
(247.6967797 96.38880969 90.38940801)
(235.3286173 -125.0240877 -297.8260058)
(-813.5392523 -247.2698787 176.8518513)
(-135.463643 -255.5015968 313.4204084)
(-285.9827432 164.0748303 42.7617225)
(-258.4315349 -99.16952021 -11.33608151)
(-174.0823936 -76.09542884 4.029593036)
(146.7569701 1.95482668 -315.9529583)
(-64.2948901 187.2314335 197.2977933)
(49.31777569 96.38041004 104.932148)
(32.36594926 184.980273 -258.3475082)
(-413.6667892 -305.7234292 -381.2867529)
(-95.30489256 211.5254054 -103.194681)
(20.36887185 -213.7220364 -140.3728033)
(-155.5877236 -90.39327367 570.5443372)
(137.6528194 -144.4525107 71.56633866)
(506.4358523 3.00529436 96.94072961)
(473.9273545 323.0920958 -175.4247979)
(-151.1259548 -494.2763762 11.05392508)
(-2.5532396 232.827572 -516.1746944)
(178.8634969 94.54619173 -114.0267999)
(39.60314503 -176.8342288 -123.6049429)
(-196.4872141 42.25814474 -187.4204945)
(-86.86566416 -36.21559107 -94.49207249)
(23.59905816 -177.5454706 -337.4883163)
(-165.3343997 -352.2300557 -16.00577375)
(-105.1918146 20.29554337 -126.5092604)
(522.0896605 247.9553494 -16.91974047)
(-63.21712286 199.7154134 128.5828845)
(-65.56079359 92.40430442 -27.95641298)
(-226.8010225 137.674004 -194.4579109)
(246.0062093 -383.574479 -329.5217575)
(-123.8056735 -285.8292914 67.96020426)
(380.3133916 108.9307361 -116.1128335)
(104.8307033 -46.17940339 560.6090698)
(233.460978 377.287931 607.8589118)
(-331.115958 -33.07053965 -68.74293512)
(-140.7059196 108.3924101 504.278881)
(-377.5020813 -12.18878859 305.5772019)
(-117.7032385 27.18062031 195.1086767)
(-324.6635219 171.5621138 -113.7180175)
(-204.2032509 453.4872512 312.6430108)
(40.89362549 -19.40912023 -56.09065018)
(393.0020592 -124.7996162 -21.08268886)
(-56.33896632 33.27157593 -270.5368999)
(41.31763917 401.3672799 -440.9256815)
(244.4836455 188.2645248 239.4006594)
(134.1824557 315.8793035 -85.83458915)
(-330.9722372 -495.8331954 -54.38035863)
(186.9613682 -230.6746862 -126.3275493)
(-61.08182676 275.8793188 485.6700995)
(-445.9864735 6.713345282 -242.6423093)
(-263.1642741 -251.1014371 -47.36032088)
(234.245317 -255.9197326 -223.3353711)
(-195.6185273 -219.0131166 -125.2556034)
(-58.99197768 130.8299525 0.1671924494)
(-256.2817506 15.57846799 124.0882973)
(-262.1547439 43.49487059 286.3511063)
(9.149094697 -7.688132839 -358.7941031)
(169.3980155 453.284076 113.9960455)
(-178.5396615 -340.2513841 139.0024438)
(44.59922384 64.6101602 -132.5260332)
(-147.191546 72.66687633 343.3371895)
(74.7272467 -77.56370003 309.3687395)
(168.1816323 153.7523956 -244.1345293)
(196.0408342 197.5861514 -1.584991941)
(437.0670991 251.3723901 -334.8775945)
(-117.1371364 144.2228175 275.2674413)
(389.0892884 -309.8895136 -149.4641371)
(-361.0560883 137.2296581 -301.6249329)
(-54.01645932 -372.4478163 -57.27971848)
(-16.89043125 -175.8273861 125.1751688)
(-95.23393097 341.3770178 223.7936906)
(224.0170161 359.8211334 -165.3791345)
(-259.0339471 -367.5795319 -321.6006827)
(61.46727626 124.1938479 -372.1456909)
(-54.61537299 103.5547735 -116.2283042)
(173.0586116 417.0039791 -237.5414254)
(218.9641568 -103.6174087 73.06455681)
(-169.7335862 -51.46950046 -40.34156486)
(247.5656445 16.36517941 -49.34533854)
(-83.03134208 170.7680705 -108.8080626)
(331.8441644 -719.6367204 38.39815727)
(100.8343649 -128.3307624 358.8618141)
(-40.50869804 -70.59282699 257.5154949)
(88.54622778 -299.4553582 77.48895786)
(151.3890975 101.6591199 166.8302134)
(-284.3411918 417.257973 -102.933419)
(-246.9932236 -27.32284001 184.3689103)
(32.73186874 235.287222 -235.0872091)
(53.24422876 -284.4887954 200.0949658)
(-272.18486 -180.1040316 105.9673906)
(176.541596 221.3719129 -119.8836017)
(-42.45585351 -248.7283887 47.24780515)
(121.6283709 49.07367738 37.18228705)
(128.4024247 119.1167195 88.68506064)
(-223.6101608 -31.88366633 76.15425198)
(98.56188382 386.9023122 -354.1075946)
(404.8585982 229.084185 -188.5971702)
(-265.4033268 -92.46005449 275.1978)
(-537.9568293 -6.928091748 -448.3624253)
(-60.61301481 127.7717734 -74.37533202)
(208.480467 75.7493527 -52.79905345)
(78.38919074 -77.53377839 238.3452501)
(266.7682599 49.0327414 -23.18227707)
(212.6357438 130.0811756 240.7625052)
(201.0525603 321.0933345 420.7115844)
(-127.6235038 -1.767311194 422.8835234)
(-309.0155393 -239.1353748 -6.019428486)
(312.9282264 333.755971 -15.37503953)
(139.6567871 -208.2497971 -86.29925462)
(506.6112406 211.9296218 408.2971023)
(-33.27967065 356.7444817 -296.2673396)
(264.7083984 -216.8581005 47.8997949)
(-39.63263763 59.75270457 338.6274552)
(-81.33251064 -202.7643346 132.1592741)
(92.72304934 -427.1878209 -459.2130581)
(-345.7118168 -344.6206832 194.9143229)
(393.1338913 89.82078336 -406.6090976)
(-583.3668394 -331.1893144 -133.6822338)
(153.3879797 496.8804154 410.1067673)
(-182.7162789 -95.01822912 -153.2484348)
(155.8469618 25.05116843 215.5276417)
(-142.3544736 16.5971423 -165.6201855)
(168.0980484 715.0505546 341.8684037)
(494.3474535 -158.3471706 118.1576733)
(-130.1522512 381.77146 54.27512921)
(-184.3038186 -327.5711903 10.2716881)
(138.2386188 -132.2439994 68.336828)
(291.5258629 -160.6347972 106.1615006)
(199.6926895 203.8306125 -573.0873115)
(286.5633371 409.2926006 289.947255)
(-376.0987469 -114.9970324 -28.31381337)
(255.1404477 -314.7609034 161.9044006)
(-393.0649438 161.2203454 -338.2692369)
(-142.9946242 -149.3074802 121.1893022)
(-90.10218268 -156.713021 111.8204784)
(-222.549193 47.70479756 38.80309604)
(-232.6771893 326.6987713 -42.59162163)
(-67.50923185 -2.295255057 -446.0864893)
(-261.6231181 -192.6749329 -287.9821216)
(-78.8271643 -24.16314631 -278.9434783)
(286.4923689 61.3805304 -265.3383117)
(-85.76479463 362.0176524 -41.60838121)
(-254.0012557 184.9438137 425.1719821)
(-472.4316991 -78.25534741 -197.4468938)
(-394.3247636 255.0570461 190.3819378)
(126.7681541 358.9768735 335.4688294)
(1.802139664 -119.5634079 -378.4988582)
(312.7243935 -43.85314468 -238.6737563)
(-81.97373177 247.714463 -134.04945)
(-200.9540709 -361.4257783 -116.9878852)
(-249.4180367 100.0867442 205.5324333)
(-412.4086644 -214.9872286 153.8626785)
(350.5740432 177.5253042 -225.8625625)
(-68.60822912 454.4203543 -111.781832)
(188.970606 -303.4834329 114.7123262)
(-413.337831 20.45861565 -96.171279)
(368.635876 -261.4923496 80.70217115)
(-104.3614464 -173.644637 53.87555316)
(163.650397 210.7259793 193.2360934)
(152.6763658 -48.04879021 -39.93011169)
(-217.126969 467.1499224 -200.1884697)
(-282.3456041 -182.9852859 -234.1605802)
(320.6845342 268.1815394 113.7140935)
(-16.66502453 198.3948813 341.1601501)
(88.02366188 249.9776785 -206.5613307)
(-274.7179496 -146.9642195 124.8016032)
(63.48008787 -311.2165553 -372.0966065)
(-340.883868 -266.149368 -49.57020535)
(-163.7303117 -244.0253224 249.1525406)
(363.9647486 328.223965 -202.5445399)
(46.61890583 583.7562888 -258.2553876)
(345.4131897 -156.8087457 55.48244652)
(-252.5210894 181.6976956 -186.1842225)
(126.0726394 223.6903808 -51.43419244)
(-147.1318053 -3.132857014 -428.2131563)
(-49.27247366 -53.15740443 -4.944021348)
(-176.9776834 48.9527063 -40.59339501)
(-87.1057395 -222.4397211 -23.17854933)
(187.4019852 144.0194637 -318.2407375)
(376.0346266 -1.599361313 -209.8289169)
(203.4830079 82.6858753 -295.2995842)
(47.85223929 351.7193176 225.6902007)
(-123.3651588 205.8086809 -51.07640725)
(198.8881049 87.6199038 -45.98528168)
(113.3642896 212.3488093 -189.6289948)
(-463.630949 25.48752591 190.2454691)
(-25.16246978 -53.15181332 399.4783798)
(492.296651 162.7125377 1.322539818)
(-395.2960291 17.01909427 -146.7251898)
(67.59147326 -171.313899 -142.5313906)
(62.61432676 -158.2933161 292.2338951)
(222.3299069 155.7335405 19.02203985)
(-76.45975121 -87.04502792 -356.2911492)
(-88.72909019 -2.901809326 -600.4438912)
(-134.0847706 118.5303737 257.1307459)
(-2.475857152 17.23030327 -17.41935088)
(245.9070032 175.459074 -329.8894449)
(273.070743 284.4570506 -371.1455158)
(-76.44410279 239.839477 -369.7600709)
(-41.76443874 -180.5837856 -256.1027996)
(-240.3874995 61.79872449 255.4820822)
(-22.61986755 18.79105331 129.5687788)
(24.76572158 -20.46168851 -1.438436843)
(156.7414955 289.4085427 98.12078022)
(-261.2307503 774.3331788 -325.5049011)
(297.3861853 258.6555213 29.90175641)
(409.2239806 292.70711 118.4450494)
(-462.8658508 -169.2499123 154.2610282)
(421.9776971 169.6066103 31.47325807)
(-186.4046446 366.1927355 387.5893571)
(191.4591057 71.679053 57.45299084)
(-146.580444 279.5904181 -359.368761)
(129.6940938 -154.729998 -79.77306418)
(52.86572159 1.33198505 195.9574337)
(-284.7157264 -231.1735515 -288.460495)
(352.4138727 -136.6381 482.5736227)
(49.73228535 171.2859991 287.4218124)
(-27.04977321 233.8940867 30.46534443)
(-59.43778039 137.7325723 -166.8546065)
(589.7042763 104.2747764 -144.9367303)
(63.50522044 -232.3801545 315.3819412)
(-432.2963781 -282.0076189 435.6605193)
(-256.6613689 -165.8262981 -138.8704742)
(-631.6229211 -53.64422789 102.0368318)
(-241.6946779 68.66814345 140.2875009)
(488.621098 -188.1652035 154.7386041)
(176.6369807 142.2112811 142.1173765)
(-172.0876256 34.28372347 -337.765195)
(21.90484453 -74.51169263 45.85159784)
(28.2669129 -69.56870911 -60.94447311)
(-111.2887103 -110.7558526 244.276485)
(-0.02593469669 -75.41231167 88.61082813)
(209.8364557 -203.5465709 -309.4582657)
(-509.6047641 5.59555743 -50.26220415)
(-283.0641788 90.5209544 -27.87235552)
(-94.44909884 203.6896387 -174.6581173)
(104.4193308 99.26709533 251.1902327)
(205.5495291 121.8095937 163.8470174)
(-67.95729617 518.6376416 409.6009575)
(-635.4006792 222.8053327 -147.1920748)
(-114.4126786 -92.07835803 -192.5450003)
(-112.5366095 -134.344943 272.3711863)
(254.387042 -183.2238058 -208.0135566)
(39.6390327 -60.01929731 -261.3975398)
(-149.2140415 -104.0193308 42.9887134)
(61.04574206 211.9391025 -156.8154595)
(-195.9859653 103.3436148 350.9301982)
(-76.52988484 459.8616066 -134.0535303)
(88.75585197 79.31619226 334.7560715)
(305.7153918 -280.1577515 216.2251571)
(-232.5776378 -127.0398675 179.3259218)
(220.5227574 -234.3485954 -102.7300299)
(-72.75162038 -470.9540105 -194.83531)
(104.1749111 -175.5793579 -30.25815394)
(16.61917639 105.4179012 85.60779815)
(-240.7846771 32.50935775 99.96101177)
(65.18688969 -206.0390972 -25.35313506)
(-83.73405859 -223.5560936 78.90668221)
(310.1361834 -29.92639932 157.3590318)
(55.91991215 -96.43445978 -106.3661991)
(222.6897884 4.251970786 757.0808222)
(141.2760738 68.0731867 -68.35009773)
(-286.2537552 -311.5218941 267.0828153)
(-33.64802668 -330.7222676 26.22790171)
(7.934805095 -219.8903448 98.04642181)
(168.1905293 15.02476429 -680.6502669)
(-275.2556959 242.0597048 -62.63660437)
(-157.2768195 503.7400691 25.34626916)
(348.2059536 -133.3968431 -178.3984778)
(-88.00625584 -127.8678634 146.8519662)
(79.64399474 37.53328556 -118.9391806)
(70.83451133 20.91534066 105.9546102)
(-24.30797077 -363.0379186 130.6217519)
(-258.3296472 -225.7573978 -44.86210998)
(93.67760411 -251.5904828 -678.2191891)
(-408.1321948 192.3932966 312.6331098)
(537.6234482 -80.8000957 -769.695309)
(-159.9314174 84.80032857 364.7090038)
(-7.666662716 138.3373704 -84.86360722)
(89.36095736 423.2805178 354.6664213)
(-47.06395097 332.2340777 -153.1608045)
(-446.988727 328.8986098 -96.57679707)
(143.087615 494.6969473 57.09673708)
(164.0541916 351.5005472 111.5300375)
(-47.64918503 305.3332191 161.3924977)
(-395.1623237 -266.1890239 370.1142885)
(-384.0400112 -101.1251767 69.83552587)
(99.1374554 38.26346228 11.10373121)
(238.0353004 -515.8137936 123.3427913)
(-21.80074479 -117.5204386 -154.3531851)
(321.0079578 309.6503614 -159.9189154)
(134.4319191 221.6096652 -25.06225997)
(33.02836447 430.2011499 114.4408357)
(-313.5482554 -152.485295 50.83355906)
(-59.99546667 215.6829952 -313.2329312)
(126.0319255 -252.9900442 -39.27156294)
(426.8902691 -101.5076996 -92.35433098)
(357.6487455 372.3652049 -261.9315164)
(-334.3043679 -121.4639134 -356.1545245)
(56.70931724 181.3662757 124.1584)
(-159.0812178 120.0413548 115.8491137)
(-153.7935301 -418.3715872 -8.244982354)
(-82.88523149 -41.65310311 -83.96735736)
(175.6542277 -35.9304779 -259.7226486)
(-193.210364 179.6724335 77.94005556)
(-234.8791813 214.3566756 -14.87817934)
(-75.72787193 -270.0735672 -361.0216036)
(-116.9074431 540.6431968 725.6700689)
(404.5014368 -304.1298773 -61.01701158)
(-622.1447546 -365.2127469 -137.0494886)
(-402.1219056 -256.9930901 509.3651651)
(-178.8591692 -68.15334357 73.89642443)
(279.7511883 728.7500659 111.5147539)
(-203.9989319 17.51896063 136.8123144)
(-241.7099686 142.4330165 265.524213)
(-22.38359404 -339.1523862 46.38559748)
(321.3707468 160.6120549 70.34392376)
(136.2108733 -54.98475901 188.7267938)
(16.27096804 380.8707628 -387.3060197)
(-59.95916422 -68.71343289 -140.2670147)
(-17.38296851 8.033005462 -392.7318682)
(293.3111008 -183.3941156 375.42225)