/*--------------------------------*- C++ -*----------------------------------*\
| =========                 |                                                 |
| \\      /  F ield         | OpenFOAM: The Open Source CFD Toolbox           |
|  \\    /   O peration     | Version:  v1706                                 |
|   \\  /    A nd           | Web:      www.OpenFOAM.com                      |
|    \\/     M anipulation  |                                                 |
\*---------------------------------------------------------------------------*/
FoamFile
{
    version     2.0;
    format      ascii;
    class       volScalarField;
    location    "0.0014";
    object      Mach;
}
// * * * * * * * * * * * * * * * * * * * * * * * * * * * * * * * * * * * * * //

dimensions      [0 0 0 0 0 0 0];


internalField   nonuniform List<scalar> 
80000
(
0.003967978101
0.005100751359
0.007636347923
0.0103371962
0.01309736932
0.01588966121
0.01870384852
0.02153549976
0.02438264642
0.02724450407
0.03012090494
0.03301201893
0.03591820492
0.03883992645
0.04177770127
0.0447320702
0.04770357743
0.05069275804
0.05370013022
0.05672619084
0.05977141324
0.0628362467
0.06592111715
0.06902642866
0.07215256573
0.07529989572
0.07846877182
0.08165953594
0.08487252169
0.08810805726
0.09136646816
0.09464807972
0.09795321944
0.101282219
0.1046354159
0.1080131552
0.1114157906
0.1148436853
0.1182972131
0.1217767584
0.1252827171
0.1288154963
0.1323755147
0.1359632025
0.1395790012
0.1432233633
0.1468967522
0.150599642
0.154332517
0.1580958714
0.161890209
0.1657160429
0.169573895
0.1734642956
0.1773877827
0.1813449016
0.1853362044
0.1893622487
0.1934235968
0.1975208143
0.201654469
0.2058251282
0.2100333569
0.2142797145
0.218564751
0.2228890025
0.2272529851
0.2316571873
0.2361020611
0.240588009
0.2451153691
0.2496843944
0.2542952257
0.258947856
0.2636420812
0.2683774327
0.2731530811
0.2779676963
0.282819235
0.2877046057
0.2926191099
0.2975554676
0.3025020608
0.3074401006
0.3123460953
0.3173222011
0.3249956994
0.3724466296
0.6623859778
2.083460369
16.85966816
17.1078446
17.10794848
17.10794855
17.10794855
17.10794855
17.10794855
17.10794855
17.10794855
17.10794855
17.10794855
17.10794855
17.10794855
17.10794855
17.10794855
17.10794855
17.10794855
17.10794855
17.10794855
17.10794855
17.10794855
17.10794855
17.10794855
17.10794855
17.10794855
17.10794855
17.10794855
17.10794855
17.10794855
17.10794855
17.10794855
17.10794855
17.10794855
17.10794855
17.10794855
17.10794855
17.10794855
17.10794855
17.10794855
17.10794855
17.10794855
17.10794855
17.10794855
17.10794855
17.10794855
17.10794855
17.10794855
17.10794855
17.10794855
17.10794855
17.10794855
17.10794855
17.10794855
17.10794855
17.10794855
17.10794855
17.10794855
17.10794855
17.10794855
17.10794855
17.10794855
17.10794855
17.10794855
17.10794855
17.10794855
17.10794855
17.10794855
17.10794855
17.10794855
17.10794855
17.10794855
17.10794855
17.10794855
17.10794855
17.10794855
17.10794855
17.10794855
17.10794855
17.10794855
17.10794855
17.10794855
17.10794855
17.10794855
17.10794855
17.10794855
17.10794856
17.10794856
17.10794856
17.10794856
17.10794856
17.10794856
17.10794856
17.10794856
17.10794856
17.10794856
17.10794856
17.10794856
17.10794856
17.10794856
17.10794856
17.10794857
17.10794857
17.10794857
17.10794857
17.10794857
17.10794857
17.10794857
17.10794858
17.10794858
17.10794858
0.00519373017
0.006102417182
0.008336840725
0.01086326765
0.01351525655
0.01623510979
0.01899782884
0.02179121458
0.02460888339
0.02744737369
0.0303048064
0.03318020909
0.03607315036
0.0389835304
0.04191145528
0.0448571586
0.04782095122
0.05080318837
0.05380424792
0.05682451606
0.05986437807
0.0629242126
0.06600438852
0.06910526355
0.07222718422
0.07537048664
0.07853549801
0.08172253853
0.08493192344
0.08816396524
0.09141897586
0.09469726873
0.09799916078
0.1013249741
0.1046750376
0.1080496881
0.1114492717
0.1148741443
0.1183246727
0.1218012345
0.1253042188
0.1288340262
0.1323910689
0.1359757704
0.1395885655
0.1432299
0.1469002305
0.1506000239
0.1543297573
0.1580899172
0.1618809994
0.1657035085
0.1695579574
0.1734448665
0.1773647633
0.1813181817
0.1853056609
0.1893277444
0.1933849787
0.1974779118
0.201607091
0.2057730609
0.2099763599
0.2142175166
0.2184970456
0.2228154406
0.2271731681
0.2315706572
0.2360082877
0.2404863749
0.245005149
0.2495647281
0.2541650825
0.258805986
0.2634869474
0.2682071155
0.2729651408
0.2777589722
0.2825855523
0.2874403481
0.2923166206
0.2972042716
0.3020880467
0.3069452144
0.3117501466
0.3166101806
0.3241658012
0.3713723644
0.6602681496
2.07377251
16.85817725
17.10784403
17.10794848
17.10794855
17.10794855
17.10794855
17.10794855
17.10794855
17.10794855
17.10794855
17.10794855
17.10794855
17.10794855
17.10794855
17.10794855
17.10794855
17.10794855
17.10794855
17.10794855
17.10794855
17.10794855
17.10794855
17.10794855
17.10794855
17.10794855
17.10794855
17.10794855
17.10794855
17.10794855
17.10794855
17.10794855
17.10794855
17.10794855
17.10794855
17.10794855
17.10794855
17.10794855
17.10794855
17.10794855
17.10794855
17.10794855
17.10794855
17.10794855
17.10794855
17.10794855
17.10794855
17.10794855
17.10794855
17.10794855
17.10794855
17.10794856
17.10794856
17.10794856
17.10794856
17.10794856
17.10794856
17.10794856
17.10794856
17.10794856
17.10794856
17.10794856
17.10794856
17.10794856
17.10794856
17.10794856
17.10794856
17.10794856
17.10794856
17.10794856
17.10794856
17.10794856
17.10794856
17.10794856
17.10794856
17.10794856
17.10794856
17.10794856
17.10794856
17.10794856
17.10794856
17.10794856
17.10794856
17.10794856
17.10794856
17.10794856
17.10794856
17.10794857
17.10794857
17.10794857
17.10794857
17.10794857
17.10794857
17.10794857
17.10794857
17.10794857
17.10794857
17.10794857
17.10794857
17.10794857
17.10794857
17.10794857
17.10794857
17.10794858
17.10794858
17.10794858
17.10794858
17.10794858
17.10794858
17.10794858
17.10794858
0.007212870886
0.007892924812
0.00972363797
0.01196020313
0.01441169559
0.01698902377
0.01964679246
0.02236035896
0.02511561891
0.02790415723
0.03072080346
0.03356232623
0.03642669847
0.03931266453
0.04221947469
0.04514671674
0.04809420611
0.05106191247
0.05404990989
0.05705834256
0.06008740117
0.06313730653
0.06620829852
0.06930062868
0.07241455551
0.07555034173
0.07870825289
0.08188855701
0.08509152491
0.0883174309
0.09156655383
0.09483917823
0.09813559548
0.1014561049
0.1048010147
0.1081706432
0.111565319
0.1149853821
0.1184311839
0.1219030877
0.1254014688
0.1289267143
0.1324792233
0.1360594063
0.1396676853
0.1433044931
0.1469702733
0.1506654794
0.1543905748
0.1581460319
0.1619323315
0.1657499626
0.1695994214
0.1734812105
0.1773958381
0.181343817
0.1853256634
0.1893418953
0.1933930308
0.1974795862
0.201602073
0.2057609949
0.2099568437
0.2141900948
0.2184612004
0.2227705824
0.2271186224
0.2315056494
0.2359319243
0.2403976198
0.2449027937
0.2494473547
0.2540310163
0.2586532353
0.2633131276
0.2680093533
0.2727399558
0.2775021378
0.2822919443
0.287103816
0.2919299609
0.2967594842
0.3015772471
0.3063629224
0.311098197
0.3159062329
0.3234371757
0.3704029353
0.6578150536
2.0608053
16.85618002
17.10784326
17.10794848
17.10794855
17.10794855
17.10794855
17.10794855
17.10794855
17.10794855
17.10794855
17.10794855
17.10794855
17.10794855
17.10794855
17.10794855
17.10794855
17.10794856
17.10794856
17.10794856
17.10794856
17.10794856
17.10794856
17.10794856
17.10794856
17.10794856
17.10794856
17.10794856
17.10794856
17.10794856
17.10794856
17.10794856
17.10794856
17.10794856
17.10794856
17.10794856
17.10794856
17.10794856
17.10794856
17.10794856
17.10794856
17.10794856
17.10794856
17.10794856
17.10794856
17.10794856
17.10794856
17.10794856
17.10794856
17.10794856
17.10794856
17.10794856
17.10794856
17.10794856
17.10794856
17.10794856
17.10794856
17.10794856
17.10794856
17.10794856
17.10794856
17.10794856
17.10794856
17.10794856
17.10794856
17.10794856
17.10794856
17.10794856
17.10794856
17.10794856
17.10794856
17.10794856
17.10794856
17.10794856
17.10794857
17.10794857
17.10794857
17.10794857
17.10794857
17.10794857
17.10794857
17.10794857
17.10794857
17.10794857
17.10794857
17.10794857
17.10794857
17.10794857
17.10794857
17.10794857
17.10794857
17.10794857
17.10794857
17.10794857
17.10794857
17.10794857
17.10794857
17.10794858
17.10794858
17.10794858
17.10794858
17.10794858
17.10794858
17.10794858
17.10794858
17.10794858
17.10794858
17.10794858
17.10794858
17.10794858
17.10794858
0.009475689329
0.01000417498
0.01150377335
0.01344777724
0.01566886634
0.01806874142
0.02058893204
0.02319416781
0.02586263086
0.028580447
0.0313385701
0.03413098047
0.03695361167
0.03980369088
0.04267932123
0.04557921007
0.04850248779
0.05144858452
0.05441714468
0.05740796694
0.06042096164
0.06345612038
0.06651349418
0.06959317794
0.07269529944
0.07582001154
0.07896748699
0.08213791484
0.08533149827
0.08854845329
0.09178900812
0.09505340291
0.09834188986
0.1016547334
0.1049922105
0.1083546108
0.1117422369
0.1151554047
0.1185944429
0.1220596935
0.1255515115
0.1290702645
0.1326163325
0.1361901075
0.1397919931
0.1434224038
0.1470817647
0.1507705107
0.1544890859
0.1582379432
0.1620175428
0.1658283523
0.1696708449
0.1735454991
0.1774527972
0.1813932238
0.1853672642
0.1893754031
0.1934181213
0.1974958938
0.2016091861
0.2057584503
0.2099441197
0.2141666032
0.2184262777
0.2227234781
0.2270584862
0.231431516
0.2358426945
0.2402920388
0.2447794256
0.2493045528
0.2538668887
0.2584656073
0.2630995027
0.267766877
0.2724653939
0.2771918873
0.2819421135
0.2867104374
0.2914894467
0.296269505
0.3010383166
0.3057811006
0.3104893671
0.3153010991
0.3228616879
0.3695584676
0.6551974227
2.046208935
16.85392397
17.10784238
17.10794848
17.10794856
17.10794856
17.10794856
17.10794856
17.10794856
17.10794856
17.10794856
17.10794856
17.10794856
17.10794856
17.10794856
17.10794856
17.10794856
17.10794856
17.10794856
17.10794856
17.10794856
17.10794856
17.10794856
17.10794856
17.10794856
17.10794856
17.10794856
17.10794856
17.10794856
17.10794856
17.10794856
17.10794856
17.10794856
17.10794856
17.10794856
17.10794856
17.10794856
17.10794856
17.10794856
17.10794856
17.10794856
17.10794856
17.10794856
17.10794856
17.10794856
17.10794856
17.10794856
17.10794856
17.10794856
17.10794856
17.10794856
17.10794856
17.10794856
17.10794856
17.10794856
17.10794856
17.10794856
17.10794856
17.10794856
17.10794856
17.10794856
17.10794857
17.10794857
17.10794857
17.10794857
17.10794857
17.10794857
17.10794857
17.10794857
17.10794857
17.10794857
17.10794857
17.10794857
17.10794857
17.10794857
17.10794857
17.10794857
17.10794857
17.10794857
17.10794857
17.10794857
17.10794857
17.10794857
17.10794857
17.10794857
17.10794857
17.10794857
17.10794857
17.10794857
17.10794857
17.10794857
17.10794858
17.10794858
17.10794858
17.10794858
17.10794858
17.10794858
17.10794858
17.10794858
17.10794858
17.10794858
17.10794858
17.10794858
17.10794858
17.10794858
17.10794858
17.10794858
17.10794858
17.10794858
17.10794858
17.10794858
0.01183828194
0.01226682872
0.01351828382
0.01520774612
0.01720423818
0.01941671293
0.02178325478
0.02426259936
0.02682723158
0.02945859462
0.03214398209
0.03487455897
0.03764409668
0.04044815345
0.0432835337
0.04614792486
0.04903964878
0.05195748869
0.05490056701
0.05786825774
0.06086012318
0.06387586766
0.06691530359
0.06997832646
0.0730648964
0.07617502456
0.07930876316
0.0824661982
0.08564744421
0.08885264045
0.09208194828
0.09533554917
0.09861364347
0.1019164494
0.1052442024
0.1085971546
0.1119755742
0.1153797453
0.1188099674
0.1222665546
0.1257498358
0.1292601534
0.1327978633
0.1363633339
0.1399569457
0.1435790903
0.14723017
0.1509105966
0.1546207909
0.1583611815
0.1621322044
0.165934301
0.1697679179
0.1736335051
0.1775315143
0.181462398
0.1854266066
0.1894245868
0.1934567782
0.1975236108
0.2016255003
0.2057628438
0.2099360139
0.2141453519
0.2183911589
0.2226736858
0.2269931205
0.2313495718
0.2357430503
0.2401734441
0.2446404888
0.2491437303
0.2536824778
0.2582557464
0.2628621848
0.267499987
0.2721667852
0.2768595229
0.2815743088
0.2863062617
0.2910493608
0.2957963423
0.3005387341
0.3052676236
0.309982999
0.314832839
0.3224440332
0.3688268245
0.6524791981
2.030623488
16.85150289
17.10784144
17.10794848
17.10794856
17.10794856
17.10794856
17.10794856
17.10794856
17.10794856
17.10794856
17.10794856
17.10794856
17.10794856
17.10794856
17.10794856
17.10794856
17.10794856
17.10794856
17.10794856
17.10794856
17.10794856
17.10794856
17.10794856
17.10794856
17.10794856
17.10794856
17.10794856
17.10794856
17.10794856
17.10794856
17.10794856
17.10794856
17.10794856
17.10794856
17.10794856
17.10794856
17.10794856
17.10794856
17.10794856
17.10794856
17.10794856
17.10794856
17.10794856
17.10794856
17.10794856
17.10794856
17.10794856
17.10794857
17.10794857
17.10794857
17.10794857
17.10794857
17.10794857
17.10794857
17.10794857
17.10794857
17.10794857
17.10794857
17.10794857
17.10794857
17.10794857
17.10794857
17.10794857
17.10794857
17.10794857
17.10794857
17.10794857
17.10794857
17.10794857
17.10794857
17.10794857
17.10794857
17.10794857
17.10794857
17.10794857
17.10794857
17.10794857
17.10794857
17.10794857
17.10794857
17.10794857
17.10794857
17.10794857
17.10794857
17.10794858
17.10794858
17.10794858
17.10794858
17.10794858
17.10794858
17.10794858
17.10794858
17.10794858
17.10794858
17.10794858
17.10794858
17.10794858
17.10794858
17.10794858
17.10794858
17.10794858
17.10794858
17.10794858
17.10794858
17.10794858
17.10794858
17.10794858
17.10794858
17.10794858
17.10794858
0.0142496124
0.01460921826
0.0156756263
0.01715510394
0.01894901591
0.02098009284
0.02318970747
0.02553516478
0.02798592476
0.03052020392
0.03312238706
0.03578118533
0.03848835893
0.04123783687
0.04402510797
0.04684679573
0.04970035844
0.05258387482
0.05549588941
0.05843529955
0.06140127204
0.0643931814
0.06741056345
0.07045308057
0.07352049545
0.07661265114
0.07972945606
0.08287087254
0.08603690822
0.08922760946
0.09244305635
0.09568335892
0.09894865423
0.1022391041
0.1055548933
0.1088962281
0.1122633349
0.1156564594
0.1190758652
0.1225218335
0.1259946615
0.1294946617
0.1330221615
0.1365775016
0.1401610354
0.1437731282
0.1474141557
0.1510845038
0.1547845668
0.1585147466
0.1622754518
0.1660670957
0.1698900959
0.173744872
0.1776318439
0.1815514304
0.1855040465
0.1894901008
0.1935099926
0.1975641082
0.2016528164
0.205776464
0.2099353693
0.2141298149
0.2183600392
0.222626226
0.2269284919
0.2312668716
0.2356412994
0.2400515881
0.2444974027
0.2489782294
0.2534933392
0.2580417448
0.2626221508
0.2672328985
0.2718719062
0.2765366093
0.2812239086
0.2859301405
0.2906510905
0.2953820869
0.3001182528
0.3048554629
0.3095996664
0.3145040389
0.322166781
0.3681855053
0.6496775229
2.014307255
16.84895286
17.10784044
17.10794849
17.10794856
17.10794856
17.10794856
17.10794856
17.10794856
17.10794856
17.10794856
17.10794856
17.10794856
17.10794856
17.10794856
17.10794856
17.10794856
17.10794856
17.10794856
17.10794856
17.10794856
17.10794856
17.10794856
17.10794856
17.10794856
17.10794856
17.10794856
17.10794856
17.10794856
17.10794856
17.10794856
17.10794856
17.10794856
17.10794856
17.10794856
17.10794857
17.10794857
17.10794857
17.10794857
17.10794857
17.10794857
17.10794857
17.10794857
17.10794857
17.10794857
17.10794857
17.10794857
17.10794857
17.10794857
17.10794857
17.10794857
17.10794857
17.10794857
17.10794857
17.10794857
17.10794857
17.10794857
17.10794857
17.10794857
17.10794857
17.10794857
17.10794857
17.10794857
17.10794857
17.10794857
17.10794857
17.10794857
17.10794857
17.10794857
17.10794857
17.10794857
17.10794857
17.10794857
17.10794857
17.10794857
17.10794857
17.10794857
17.10794857
17.10794857
17.10794858
17.10794858
17.10794858
17.10794858
17.10794858
17.10794858
17.10794858
17.10794858
17.10794858
17.10794858
17.10794858
17.10794858
17.10794858
17.10794858
17.10794858
17.10794858
17.10794858
17.10794858
17.10794858
17.10794858
17.10794858
17.10794858
17.10794858
17.10794858
17.10794858
17.10794858
17.10794858
17.10794858
17.10794858
17.10794858
17.10794858
17.10794858
0.01668753372
0.01699736995
0.01792326531
0.01923199885
0.02084971391
0.02271350627
0.02477129133
0.02698214907
0.02931489653
0.03174609887
0.03425821297
0.0368380834
0.03947579856
0.04216384543
0.04489649247
0.04766933975
0.05047899034
0.0533228087
0.05619874179
0.05910518581
0.06204088594
0.06500486063
0.06799634396
0.07101474157
0.07405959678
0.07713056453
0.08022739119
0.08334989896
0.08649797361
0.08967155519
0.09287063044
0.09609522702
0.09934540893
0.1026212727
0.1059229446
0.1092505777
0.1126043502
0.1159844634
0.1193911402
0.1228246234
0.1262851744
0.1297730722
0.1332886116
0.1368321027
0.1404038689
0.1440042463
0.1476335823
0.1512922344
0.1549805689
0.1586989598
0.1624477872
0.166227436
0.1700382943
0.1738807519
0.1777551981
0.1816620198
0.1856015989
0.1895743098
0.1935805162
0.1976205673
0.2016947936
0.2058035021
0.2099469702
0.2141254392
0.218339106
0.2225881143
0.2268725432
0.2311923949
0.2355475799
0.2399379001
0.2443630298
0.2488224935
0.2533156427
0.2578416304
0.2623993852
0.2669875876
0.2716046518
0.276248719
0.2809176703
0.2856091725
0.2903207731
0.295050069
0.2997950038
0.3045547985
0.3093390131
0.3143024577
0.3220077925
0.3676134837
0.6467927518
1.997362844
16.84628674
17.10783939
17.10794849
17.10794856
17.10794856
17.10794856
17.10794856
17.10794856
17.10794856
17.10794856
17.10794856
17.10794856
17.10794856
17.10794856
17.10794856
17.10794856
17.10794856
17.10794856
17.10794856
17.10794856
17.10794856
17.10794857
17.10794857
17.10794857
17.10794857
17.10794857
17.10794857
17.10794857
17.10794857
17.10794857
17.10794857
17.10794857
17.10794857
17.10794857
17.10794857
17.10794857
17.10794857
17.10794857
17.10794857
17.10794857
17.10794857
17.10794857
17.10794857
17.10794857
17.10794857
17.10794857
17.10794857
17.10794857
17.10794857
17.10794857
17.10794857
17.10794857
17.10794857
17.10794857
17.10794857
17.10794857
17.10794857
17.10794857
17.10794857
17.10794857
17.10794857
17.10794857
17.10794857
17.10794857
17.10794857
17.10794857
17.10794857
17.10794857
17.10794857
17.10794857
17.10794857
17.10794857
17.10794858
17.10794858
17.10794858
17.10794858
17.10794858
17.10794858
17.10794858
17.10794858
17.10794858
17.10794858
17.10794858
17.10794858
17.10794858
17.10794858
17.10794858
17.10794858
17.10794858
17.10794858
17.10794858
17.10794858
17.10794858
17.10794858
17.10794858
17.10794858
17.10794858
17.10794858
17.10794858
17.10794858
17.10794858
17.10794858
17.10794858
17.10794858
17.10794858
17.10794858
17.10794858
17.10794858
17.10794858
17.10794858
0.01914089206
0.01941340129
0.02023012977
0.02139976552
0.02286652436
0.02458007796
0.02649577121
0.02857621637
0.03079129335
0.03311726357
0.0355356234
0.03803200976
0.04059527336
0.04321673803
0.04588962636
0.04860862066
0.05136952948
0.05416903455
0.0570044983
0.05987381707
0.06277530855
0.06570762505
0.06866968656
0.07166062853
0.07467976134
0.07772653843
0.08080053137
0.08390141007
0.08702892733
0.09018290637
0.0933632311
0.09656983807
0.09980271024
0.1030618717
0.1063473834
0.1096593396
0.1129978648
0.1163631111
0.1197552562
0.1231745008
0.1266210672
0.1300951975
0.1335971517
0.1371272065
0.1406856537
0.1442727988
0.1478889594
0.151534464
0.1552096506
0.1589148651
0.1626504601
0.1664167927
0.1702142238
0.1740431155
0.1779038296
0.1817967254
0.1857221573
0.1896804719
0.1936720056
0.1976970804
0.2017560007
0.2058490484
0.2099764781
0.2141385111
0.218335329
0.2225670663
0.2268338019
0.2311355497
0.235472249
0.2398437524
0.2442498152
0.248690083
0.253164081
0.2576712043
0.2622107127
0.2667817307
0.2713832586
0.2760141975
0.280673397
0.2853597315
0.2900722174
0.2948101814
0.2995735194
0.3043635202
0.3091916167
0.314211975
0.321947234
0.3670946262
0.6438209046
1.979832786
16.84350847
17.1078383
17.10794849
17.10794856
17.10794856
17.10794856
17.10794856
17.10794856
17.10794857
17.10794857
17.10794857
17.10794857
17.10794857
17.10794857
17.10794857
17.10794857
17.10794857
17.10794857
17.10794857
17.10794857
17.10794857
17.10794857
17.10794857
17.10794857
17.10794857
17.10794857
17.10794857
17.10794857
17.10794857
17.10794857
17.10794857
17.10794857
17.10794857
17.10794857
17.10794857
17.10794857
17.10794857
17.10794857
17.10794857
17.10794857
17.10794857
17.10794857
17.10794857
17.10794857
17.10794857
17.10794857
17.10794857
17.10794857
17.10794857
17.10794857
17.10794857
17.10794857
17.10794857
17.10794857
17.10794857
17.10794857
17.10794857
17.10794857
17.10794857
17.10794857
17.10794857
17.10794857
17.10794857
17.10794857
17.10794857
17.10794857
17.10794858
17.10794858
17.10794858
17.10794858
17.10794858
17.10794858
17.10794858
17.10794858
17.10794858
17.10794858
17.10794858
17.10794858
17.10794858
17.10794858
17.10794858
17.10794858
17.10794858
17.10794858
17.10794858
17.10794858
17.10794858
17.10794858
17.10794858
17.10794858
17.10794858
17.10794858
17.10794858
17.10794858
17.10794858
17.10794858
17.10794858
17.10794858
17.10794858
17.10794858
17.10794858
17.10794858
17.10794858
17.10794858
17.10794858
17.10794858
17.10794858
17.10794858
17.10794858
17.10794858
0.02160338883
0.02184702337
0.02257703949
0.023632393
0.02497033362
0.02655077341
0.02833613932
0.0302932641
0.03239411176
0.03461562655
0.03693915791
0.03934975432
0.04183547861
0.0443868087
0.04699614026
0.04965738615
0.05236565898
0.05511702157
0.05790829168
0.06073688921
0.06360071652
0.0664980645
0.06942753866
0.07238800078
0.07537852272
0.07839834973
0.08144687121
0.08452359736
0.0876281405
0.09076019994
0.0939195498
0.09710602918
0.100319534
0.1035600103
0.1068274489
0.1101218804
0.1134433716
0.1167920218
0.1201679599
0.1235713419
0.1270023485
0.1304611825
0.1339480676
0.1374632459
0.1410069765
0.1445795336
0.148181205
0.1518122906
0.1554731006
0.1591639544
0.1628851785
0.1666371053
0.1704200711
0.1742344146
0.1780804752
0.1819585904
0.185869094
0.1898123137
0.1937885685
0.1977981654
0.2018413965
0.2059185355
0.2100298332
0.2141755137
0.2183557692
0.2225707552
0.226820585
0.2311053238
0.2354249835
0.239779517
0.244168814
0.2485926977
0.2530509238
0.2575431836
0.2620691119
0.2666283028
0.2712203351
0.2758448125
0.2805014208
0.2851900064
0.2899106814
0.2946639587
0.2994509458
0.304274057
0.3091454782
0.3142174202
0.3219694975
0.3666176779
0.6407582616
1.961739791
16.84061908
17.10783716
17.10794849
17.10794857
17.10794857
17.10794857
17.10794857
17.10794857
17.10794857
17.10794857
17.10794857
17.10794857
17.10794857
17.10794857
17.10794857
17.10794857
17.10794857
17.10794857
17.10794857
17.10794857
17.10794857
17.10794857
17.10794857
17.10794857
17.10794857
17.10794857
17.10794857
17.10794857
17.10794857
17.10794857
17.10794857
17.10794857
17.10794857
17.10794857
17.10794857
17.10794857
17.10794857
17.10794857
17.10794857
17.10794857
17.10794857
17.10794857
17.10794857
17.10794857
17.10794857
17.10794857
17.10794857
17.10794857
17.10794857
17.10794857
17.10794857
17.10794857
17.10794857
17.10794857
17.10794857
17.10794857
17.10794857
17.10794857
17.10794857
17.10794857
17.10794858
17.10794858
17.10794858
17.10794858
17.10794858
17.10794858
17.10794858
17.10794858
17.10794858
17.10794858
17.10794858
17.10794858
17.10794858
17.10794858
17.10794858
17.10794858
17.10794858
17.10794858
17.10794858
17.10794858
17.10794858
17.10794858
17.10794858
17.10794858
17.10794858
17.10794858
17.10794858
17.10794858
17.10794858
17.10794858
17.10794858
17.10794858
17.10794858
17.10794858
17.10794858
17.10794858
17.10794858
17.10794858
17.10794858
17.10794858
17.10794858
17.10794858
17.10794858
17.10794858
17.10794858
17.10794858
17.10794858
17.10794858
17.10794858
17.10794858
0.02407112382
0.02429185581
0.02495161508
0.02591205734
0.0271398783
0.02860307014
0.03027029219
0.03211263645
0.03410463847
0.03622455578
0.03845419935
0.04077854695
0.04318528504
0.0456643593
0.04820757133
0.05080823406
0.05346088561
0.0561610558
0.05890507745
0.0616899348
0.064513142
0.0673726458
0.07026674757
0.07319404077
0.07615336066
0.07914374386
0.08216439561
0.08521466334
0.0882940152
0.09140202259
0.09453834582
0.09770272238
0.1008949572
0.1041149148
0.107362512
0.1106377128
0.1139405234
0.1172709876
0.1206291835
0.1240152204
0.1274292356
0.130871392
0.1343418756
0.1378408936
0.1413686723
0.144925455
0.1485115003
0.1521270808
0.1557724808
0.159447995
0.1631539271
0.1668905877
0.1706582933
0.1744573641
0.1782881226
0.1821508916
0.1860459928
0.1899737439
0.1939344575
0.1979284379
0.2019559793
0.2060173628
0.2101128541
0.2142427005
0.2184071277
0.2226063377
0.2268405059
0.2311097785
0.2354142719
0.2397540711
0.2441292317
0.2485397824
0.2529857315
0.2574670771
0.2619838223
0.2665359981
0.2711236934
0.2757470968
0.2804065487
0.2851026082
0.2898361321
0.2946083697
0.2994210965
0.3042772362
0.3091890832
0.3143062047
0.3220630393
0.3661752464
0.637602695
1.943102624
16.83761915
17.10783598
17.10794849
17.10794857
17.10794857
17.10794857
17.10794857
17.10794857
17.10794857
17.10794857
17.10794857
17.10794857
17.10794857
17.10794857
17.10794857
17.10794857
17.10794857
17.10794857
17.10794857
17.10794857
17.10794857
17.10794857
17.10794857
17.10794857
17.10794857
17.10794857
17.10794857
17.10794857
17.10794857
17.10794857
17.10794857
17.10794857
17.10794857
17.10794857
17.10794857
17.10794857
17.10794857
17.10794857
17.10794857
17.10794857
17.10794857
17.10794857
17.10794857
17.10794857
17.10794857
17.10794857
17.10794857
17.10794857
17.10794857
17.10794857
17.10794857
17.10794857
17.10794857
17.10794857
17.10794858
17.10794858
17.10794858
17.10794858
17.10794858
17.10794858
17.10794858
17.10794858
17.10794858
17.10794858
17.10794858
17.10794858
17.10794858
17.10794858
17.10794858
17.10794858
17.10794858
17.10794858
17.10794858
17.10794858
17.10794858
17.10794858
17.10794858
17.10794858
17.10794858
17.10794858
17.10794858
17.10794858
17.10794858
17.10794858
17.10794858
17.10794858
17.10794858
17.10794858
17.10794858
17.10794858
17.10794858
17.10794858
17.10794858
17.10794858
17.10794858
17.10794858
17.10794858
17.10794858
17.10794858
17.10794858
17.10794858
17.10794858
17.10794858
17.10794858
17.10794858
17.10794858
17.10794858
17.10794858
17.10794858
17.10794858
0.02654149097
0.02674368284
0.02734552336
0.02822625798
0.02935950968
0.03071957002
0.03228036487
0.03401694771
0.03590655474
0.0379290986
0.04006726065
0.04230634279
0.0446339991
0.04703992567
0.04951555373
0.05205376899
0.05464866616
0.0572953401
0.05998971127
0.06272838135
0.06550851464
0.0683277411
0.07118407708
0.07407586071
0.0770016992
0.0799604257
0.08295106414
0.08597280026
0.08902495801
0.09210697992
0.09521841107
0.09835888558
0.1015281155
0.1047258817
0.1079520253
0.111206442
0.1144890754
0.1177999126
0.1211389798
0.1245063385
0.127902082
0.1313263327
0.1347792394
0.1382609744
0.1417717317
0.145311725
0.1488811852
0.1524803592
0.1561095078
0.1597689042
0.1634588324
0.1671795856
0.1709314648
0.1747147774
0.1785298354
0.1823769542
0.1862564508
0.1901686428
0.1941138462
0.1980923743
0.2021045359
0.2061506339
0.2102309639
0.2143458127
0.2184954576
0.2226801652
0.2269001918
0.2311557836
0.2354471783
0.2397746083
0.2441383052
0.248538507
0.2529754677
0.2574494715
0.2619608497
0.2665100046
0.2710974379
0.2757237859
0.2803898623
0.2850967059
0.2898456351
0.2946383068
0.2994768051
0.3043642006
0.3093125675
0.3144684992
0.3222195833
0.3657627158
0.634353789
1.923941725
16.8345096
17.10783474
17.10794849
17.10794857
17.10794857
17.10794857
17.10794857
17.10794857
17.10794857
17.10794857
17.10794857
17.10794857
17.10794857
17.10794857
17.10794857
17.10794857
17.10794857
17.10794857
17.10794857
17.10794857
17.10794857
17.10794857
17.10794857
17.10794857
17.10794857
17.10794857
17.10794857
17.10794857
17.10794857
17.10794857
17.10794857
17.10794857
17.10794857
17.10794857
17.10794857
17.10794857
17.10794857
17.10794857
17.10794857
17.10794857
17.10794857
17.10794857
17.10794857
17.10794857
17.10794857
17.10794857
17.10794857
17.10794857
17.10794858
17.10794858
17.10794858
17.10794858
17.10794858
17.10794858
17.10794858
17.10794858
17.10794858
17.10794858
17.10794858
17.10794858
17.10794858
17.10794858
17.10794858
17.10794858
17.10794858
17.10794858
17.10794858
17.10794858
17.10794858
17.10794858
17.10794858
17.10794858
17.10794858
17.10794858
17.10794858
17.10794858
17.10794858
17.10794858
17.10794858
17.10794858
17.10794858
17.10794858
17.10794858
17.10794858
17.10794858
17.10794858
17.10794858
17.10794858
17.10794858
17.10794858
17.10794858
17.10794858
17.10794858
17.10794858
17.10794858
17.10794858
17.10794858
17.10794858
17.10794858
17.10794858
17.10794858
17.10794858
17.10794858
17.10794858
17.10794858
17.10794858
17.10794858
17.10794858
17.10794858
17.10794858
0.02901263565
0.02919956498
0.02975293656
0.0305660122
0.03161756957
0.03288680135
0.03435199198
0.03599171822
0.03778583224
0.03971603569
0.04176612271
0.04392199553
0.04617154282
0.04850444803
0.0509119718
0.05338673554
0.05592252039
0.05851408812
0.06115702566
0.06384761262
0.06658270948
0.06935966401
0.07217623347
0.07503051982
0.07792091617
0.0808460623
0.08380480786
0.08679618178
0.08981936693
0.09287367897
0.09595854873
0.09907350744
0.1022181743
0.1053922461
0.1085954882
0.111827727
0.1150888436
0.1183787678
0.1216974737
0.1250449749
0.1284213211
0.1318265946
0.1352609072
0.1387243977
0.1422172291
0.1457395867
0.1492916759
0.1528737202
0.1564859598
0.1601286494
0.1638020572
0.1675064632
0.1712421578
0.1750094407
0.1788086197
0.1826400092
0.1865039295
0.1904007056
0.1943306661
0.1982941426
0.2022914689
0.2063229804
0.2103890138
0.2144899071
0.2186260002
0.2227976352
0.2270051591
0.2312489252
0.2355292976
0.2398466556
0.244201401
0.248593966
0.2530248251
0.2574945083
0.2620036182
0.2665528505
0.271143017
0.2757750732
0.2804501483
0.285169577
0.2899349328
0.2947480616
0.2996111404
0.3045271966
0.309507943
0.3146968575
0.3224332717
0.3653773751
0.6310125701
1.90428038
16.83129194
17.10783347
17.10794849
17.10794857
17.10794857
17.10794857
17.10794857
17.10794857
17.10794857
17.10794857
17.10794857
17.10794857
17.10794857
17.10794857
17.10794857
17.10794857
17.10794857
17.10794857
17.10794857
17.10794857
17.10794857
17.10794857
17.10794857
17.10794857
17.10794857
17.10794857