/*--------------------------------*- C++ -*----------------------------------*\
| =========                 |                                                 |
| \\      /  F ield         | OpenFOAM: The Open Source CFD Toolbox           |
|  \\    /   O peration     | Version:  v1706                                 |
|   \\  /    A nd           | Web:      www.OpenFOAM.com                      |
|    \\/     M anipulation  |                                                 |
\*---------------------------------------------------------------------------*/
FoamFile
{
    version     2.0;
    format      ascii;
    class       volScalarField;
    location    "0.0014";
    object      mu;
}
// * * * * * * * * * * * * * * * * * * * * * * * * * * * * * * * * * * * * * //

dimensions      [1 -1 -1 0 0 0 0];


internalField   nonuniform List<scalar> 
80000
(
0.0002905957072
0.0002905594711
0.0002906152839
0.0002906711886
0.0002907256532
0.0002907782964
0.0002908288107
0.0002908769157
0.0002909223582
0.0002909649152
0.0002910043957
0.0002910406426
0.0002910735338
0.000291102982
0.0002911289346
0.0002911513725
0.0002911703077
0.0002911857813
0.0002911978605
0.0002912066352
0.0002912122144
0.0002912147226
0.0002912142961
0.0002912110793
0.0002912052212
0.0002911968721
0.0002911861811
0.000291173293
0.0002911583463
0.0002911414715
0.0002911227899
0.0002911024122
0.0002910804381
0.000291056956
0.0002910320432
0.0002910057654
0.0002909781782
0.0002909493268
0.0002909192469
0.0002908879661
0.0002908555036
0.0002908218722
0.0002907870782
0.0002907511225
0.0002907140017
0.000290675708
0.0002906362304
0.000290595555
0.0002905536654
0.0002905105431
0.0002904661682
0.0002904205188
0.0002903735722
0.0002903253043
0.0002902756903
0.0002902247043
0.0002901723197
0.0002901185093
0.0002900632451
0.0002900064986
0.0002899482407
0.000289888442
0.0002898270729
0.0002897641035
0.000289699504
0.0002896332451
0.0002895652979
0.0002894956349
0.0002894242299
0.0002893510592
0.0002892761022
0.0002891993426
0.0002891207699
0.0002890403816
0.0002889581862
0.0002888742068
0.0002887884879
0.0002887011037
0.0002886121721
0.0002885218755
0.000288430494
0.0002883384571
0.0002882464237
0.000288155374
0.0002880663053
0.0002879729007
0.0002877267605
0.0002851490821
0.0002687464213
0.0001905577018
1.652951385e-05
1.61804029e-05
1.618032617e-05
1.618032614e-05
1.618032614e-05
1.618032614e-05
1.618032614e-05
1.618032614e-05
1.618032614e-05
1.618032614e-05
1.618032614e-05
1.618032614e-05
1.618032614e-05
1.618032614e-05
1.618032614e-05
1.618032614e-05
1.618032614e-05
1.618032614e-05
1.618032614e-05
1.618032614e-05
1.618032614e-05
1.618032614e-05
1.618032614e-05
1.618032614e-05
1.618032614e-05
1.618032614e-05
1.618032614e-05
1.618032614e-05
1.618032614e-05
1.618032614e-05
1.618032614e-05
1.618032614e-05
1.618032614e-05
1.618032614e-05
1.618032614e-05
1.618032614e-05
1.618032614e-05
1.618032614e-05
1.618032614e-05
1.618032615e-05
1.618032615e-05
1.618032615e-05
1.618032615e-05
1.618032615e-05
1.618032615e-05
1.618032615e-05
1.618032615e-05
1.618032615e-05
1.618032615e-05
1.618032615e-05
1.618032615e-05
1.618032615e-05
1.618032615e-05
1.618032615e-05
1.618032615e-05
1.618032615e-05
1.618032615e-05
1.618032615e-05
1.618032615e-05
1.618032615e-05
1.618032615e-05
1.618032615e-05
1.618032615e-05
1.618032615e-05
1.618032615e-05
1.618032615e-05
1.618032615e-05
1.618032615e-05
1.618032615e-05
1.618032615e-05
1.618032615e-05
1.618032615e-05
1.618032615e-05
1.618032615e-05
1.618032615e-05
1.618032615e-05
1.618032615e-05
1.618032615e-05
1.618032614e-05
1.618032614e-05
1.618032614e-05
1.618032614e-05
1.618032614e-05
1.618032614e-05
1.618032614e-05
1.618032614e-05
1.618032614e-05
1.618032614e-05
1.618032614e-05
1.618032614e-05
1.618032614e-05
1.618032614e-05
1.618032614e-05
1.618032614e-05
1.618032614e-05
1.618032613e-05
1.618032613e-05
1.618032613e-05
1.618032613e-05
1.618032613e-05
1.618032613e-05
1.618032613e-05
1.618032612e-05
1.618032612e-05
1.618032612e-05
1.618032612e-05
1.618032612e-05
1.618032611e-05
1.618032611e-05
1.618032611e-05
0.0002907078223
0.0002906715389
0.000290727236
0.0002907830148
0.0002908373625
0.0002908899086
0.0002909403514
0.0002909884126
0.0002910338398
0.0002910764093
0.0002911159293
0.0002911522414
0.0002911852218
0.0002912147819
0.0002912408673
0.0002912634571
0.0002912825618
0.000291298221
0.0002913105001
0.0002913194877
0.0002913252915
0.0002913280346
0.0002913278523
0.0002913248879
0.0002913192895
0.0002913112069
0.0002913007882
0.0002912881778
0.0002912735137
0.0002912569262
0.0002912385362
0.0002912184543
0.00029119678
0.0002911736017
0.0002911489966
0.0002911230305
0.0002910957589
0.0002910672272
0.0002910374711
0.0002910065183
0.0002909743882
0.0002909410934
0.0002909066405
0.0002908710305
0.0002908342599
0.0002907963211
0.000290757203
0.0002907168918
0.0002906753711
0.0002906326225
0.0002905886258
0.0002905433594
0.0002904968003
0.0002904489245
0.000290399707
0.0002903491218
0.0002902971423
0.000290243741
0.0002901888897
0.0002901325599
0.0002900747221
0.0002900153468
0.0002899544038
0.0002898918629
0.0002898276938
0.0002897618667
0.0002896943521
0.0002896251213
0.0002895541473
0.000289481405
0.000289406872
0.0002893305298
0.0002892523649
0.0002891723707
0.0002890905497
0.0002890069164
0.0002889215021
0.0002888343599
0.0002887455729
0.0002886552643
0.0002885636114
0.0002884708628
0.0002883773579
0.000288283521
0.0002881894141
0.0002880872842
0.0002878275935
0.0002852417194
0.0002688830893
0.0001910712802
1.653164333e-05
1.618040336e-05
1.618032617e-05
1.618032614e-05
1.618032614e-05
1.618032614e-05
1.618032614e-05
1.618032614e-05
1.618032614e-05
1.618032614e-05
1.618032614e-05
1.618032614e-05
1.618032614e-05
1.618032614e-05
1.618032614e-05
1.618032614e-05
1.618032614e-05
1.618032614e-05
1.618032614e-05
1.618032614e-05
1.618032614e-05
1.618032614e-05
1.618032614e-05
1.618032614e-05
1.618032614e-05
1.618032614e-05
1.618032614e-05
1.618032614e-05
1.618032614e-05
1.618032614e-05
1.618032614e-05
1.618032614e-05
1.618032614e-05
1.618032614e-05
1.618032614e-05
1.618032614e-05
1.618032614e-05
1.618032614e-05
1.618032614e-05
1.618032614e-05
1.618032614e-05
1.618032614e-05
1.618032614e-05
1.618032614e-05
1.618032614e-05
1.618032614e-05
1.618032614e-05
1.618032614e-05
1.618032614e-05
1.618032614e-05
1.618032614e-05
1.618032614e-05
1.618032614e-05
1.618032614e-05
1.618032614e-05
1.618032614e-05
1.618032614e-05
1.618032614e-05
1.618032614e-05
1.618032614e-05
1.618032614e-05
1.618032614e-05
1.618032614e-05
1.618032614e-05
1.618032614e-05
1.618032614e-05
1.618032614e-05
1.618032614e-05
1.618032614e-05
1.618032614e-05
1.618032614e-05
1.618032614e-05
1.618032614e-05
1.618032614e-05
1.618032614e-05
1.618032613e-05
1.618032613e-05
1.618032613e-05
1.618032613e-05
1.618032613e-05
1.618032613e-05
1.618032613e-05
1.618032613e-05
1.618032613e-05
1.618032613e-05
1.618032613e-05
1.618032613e-05
1.618032613e-05
1.618032613e-05
1.618032613e-05
1.618032612e-05
1.618032612e-05
1.618032612e-05
1.618032612e-05
1.618032612e-05
1.618032612e-05
1.618032612e-05
1.618032612e-05
1.618032612e-05
1.618032612e-05
1.618032612e-05
1.618032611e-05
1.618032611e-05
1.618032611e-05
1.618032611e-05
1.618032611e-05
1.618032611e-05
1.618032611e-05
1.618032611e-05
1.618032611e-05
0.0002907528141
0.0002907165143
0.0002907721725
0.0002908279156
0.000290882231
0.0002909347502
0.0002909851729
0.0002910332221
0.0002910786459
0.0002911212213
0.0002911607562
0.0002911970922
0.0002912301053
0.0002912597064
0.0002912858408
0.0002913084869
0.0002913276548
0.0002913433835
0.0002913557381
0.0002913648064
0.0002913706957
0.0002913735289
0.0002913734406
0.0002913705739
0.0002913650765
0.0002913570978
0.0002913467859
0.0002913342847
0.0002913197322
0.0002913032586
0.0002912849845
0.0002912650205
0.0002912434661
0.0002912204097
0.0002911959282
0.0002911700879
0.0002911429439
0.0002911145417
0.0002910849173
0.0002910540981
0.0002910221037
0.0002909889469
0.0002909546341
0.0002909191665
0.0002908825405
0.0002908447487
0.00029080578
0.0002907656206
0.0002907242542
0.0002906816624
0.000290637825
0.0002905927205
0.0002905463258
0.0002904986171
0.0002904495692
0.0002903991563
0.0002903473518
0.0002902941281
0.0002902394572
0.0002901833103
0.0002901256582
0.0002900664711
0.0002900057189
0.0002899433714
0.0002898793981
0.000289813769
0.0002897464543
0.0002896774252
0.000289606654
0.000289534115
0.0002894597847
0.0002893836432
0.0002893056749
0.0002892258698
0.0002891442258
0.0002890607505
0.0002889754643
0.0002888884044
0.0002887996296
0.0002887092265
0.0002886173176
0.0002885240714
0.0002884297126
0.0002883345098
0.000288238332
0.0002881332792
0.0002878709829
0.000285299991
0.0002690307554
0.000191750454
1.653449887e-05
1.618040397e-05
1.618032617e-05
1.618032614e-05
1.618032614e-05
1.618032614e-05
1.618032614e-05
1.618032614e-05
1.618032614e-05
1.618032614e-05
1.618032614e-05
1.618032614e-05
1.618032614e-05
1.618032614e-05
1.618032614e-05
1.618032614e-05
1.618032614e-05
1.618032614e-05
1.618032614e-05
1.618032614e-05
1.618032614e-05
1.618032614e-05
1.618032614e-05
1.618032614e-05
1.618032614e-05
1.618032614e-05
1.618032614e-05
1.618032614e-05
1.618032614e-05
1.618032614e-05
1.618032614e-05
1.618032614e-05
1.618032614e-05
1.618032614e-05
1.618032614e-05
1.618032614e-05
1.618032614e-05
1.618032614e-05
1.618032614e-05
1.618032614e-05
1.618032614e-05
1.618032614e-05
1.618032614e-05
1.618032614e-05
1.618032614e-05
1.618032614e-05
1.618032614e-05
1.618032614e-05
1.618032614e-05
1.618032614e-05
1.618032614e-05
1.618032614e-05
1.618032614e-05
1.618032614e-05
1.618032614e-05
1.618032614e-05
1.618032614e-05
1.618032613e-05
1.618032613e-05
1.618032613e-05
1.618032613e-05
1.618032613e-05
1.618032613e-05
1.618032613e-05
1.618032613e-05
1.618032613e-05
1.618032613e-05
1.618032613e-05
1.618032613e-05
1.618032613e-05
1.618032613e-05
1.618032613e-05
1.618032613e-05
1.618032613e-05
1.618032613e-05
1.618032613e-05
1.618032613e-05
1.618032613e-05
1.618032613e-05
1.618032612e-05
1.618032612e-05
1.618032612e-05
1.618032612e-05
1.618032612e-05
1.618032612e-05
1.618032612e-05
1.618032612e-05
1.618032612e-05
1.618032612e-05
1.618032612e-05
1.618032612e-05
1.618032612e-05
1.618032612e-05
1.618032612e-05
1.618032612e-05
1.618032611e-05
1.618032611e-05
1.618032611e-05
1.618032611e-05
1.618032611e-05
1.618032611e-05
1.618032611e-05
1.618032611e-05
1.618032611e-05
1.618032611e-05
1.618032611e-05
1.618032611e-05
1.618032611e-05
1.618032611e-05
1.618032611e-05
0.0002907807066
0.0002907444139
0.0002908000504
0.0002908557747
0.0002909100742
0.0002909625803
0.0002910129935
0.0002910610371
0.0002911064596
0.0002911490382
0.0002911885811
0.0002912249299
0.0002912579606
0.0002912875838
0.0002913137448
0.0002913364219
0.0002913556248
0.0002913713924
0.0002913837894
0.0002913929035
0.0002913988418
0.0002914017267
0.0002914016929
0.0002913988831
0.0002913934449
0.0002913855276
0.0002913752788
0.0002913628428
0.0002913483571
0.0002913319519
0.0002913137479
0.0002912938555
0.0002912723742
0.0002912493924
0.0002912249871
0.0002911992243
0.0002911721596
0.0002911438381
0.0002911142961
0.0002910835609
0.0002910516522
0.0002910185829
0.0002909843594
0.0002909489829
0.00029091245
0.0002908747533
0.0002908358817
0.0002907958215
0.0002907545564
0.0002907120682
0.0002906683366
0.0002906233402
0.0002905770561
0.0002905294603
0.000290480528
0.0002904302333
0.0002903785495
0.0002903254494
0.0002902709049
0.0002902148873
0.0002901573674
0.0002900983157
0.0002900377019
0.000289975496
0.0002899116675
0.0002898461863
0.0002897790226
0.0002897101474
0.0002896395328
0.0002895671524
0.0002894929821
0.0002894170008
0.0002893391912
0.0002892595408
0.0002891780437
0.0002890947022
0.000289009529
0.00028892255
0.0002888338082
0.000288743368
0.0002886513209
0.0002885577929
0.0002884629517
0.0002883669899
0.0002882696791
0.0002881630599
0.0002879001724
0.0002853495636
0.0002691852809
0.0001925108506
1.653772538e-05
1.618040466e-05
1.618032617e-05
1.618032614e-05
1.618032614e-05
1.618032614e-05
1.618032614e-05
1.618032614e-05
1.618032614e-05
1.618032614e-05
1.618032614e-05
1.618032614e-05
1.618032614e-05
1.618032614e-05
1.618032614e-05
1.618032614e-05
1.618032614e-05
1.618032614e-05
1.618032614e-05
1.618032614e-05
1.618032614e-05
1.618032614e-05
1.618032614e-05
1.618032614e-05
1.618032614e-05
1.618032614e-05
1.618032614e-05
1.618032614e-05
1.618032614e-05
1.618032614e-05
1.618032614e-05
1.618032614e-05
1.618032614e-05
1.618032614e-05
1.618032614e-05
1.618032614e-05
1.618032614e-05
1.618032614e-05
1.618032614e-05
1.618032614e-05
1.618032613e-05
1.618032613e-05
1.618032613e-05
1.618032613e-05
1.618032613e-05
1.618032613e-05
1.618032613e-05
1.618032613e-05
1.618032613e-05
1.618032613e-05
1.618032613e-05
1.618032613e-05
1.618032613e-05
1.618032613e-05
1.618032613e-05
1.618032613e-05
1.618032613e-05
1.618032613e-05
1.618032613e-05
1.618032613e-05
1.618032613e-05
1.618032613e-05
1.618032613e-05
1.618032613e-05
1.618032613e-05
1.618032613e-05
1.618032613e-05
1.618032612e-05
1.618032612e-05
1.618032612e-05
1.618032612e-05
1.618032612e-05
1.618032612e-05
1.618032612e-05
1.618032612e-05
1.618032612e-05
1.618032612e-05
1.618032612e-05
1.618032612e-05
1.618032612e-05
1.618032612e-05
1.618032612e-05
1.618032612e-05
1.618032612e-05
1.618032612e-05
1.618032612e-05
1.618032612e-05
1.618032612e-05
1.618032611e-05
1.618032611e-05
1.618032611e-05
1.618032611e-05
1.618032611e-05
1.618032611e-05
1.618032611e-05
1.618032611e-05
1.618032611e-05
1.618032611e-05
1.618032611e-05
1.618032611e-05
1.618032611e-05
1.618032611e-05
1.618032611e-05
1.618032611e-05
1.618032611e-05
1.618032611e-05
1.618032611e-05
1.618032611e-05
1.618032611e-05
1.618032611e-05
0.000290800448
0.0002907641752
0.0002908197971
0.0002908755088
0.0002909297977
0.0002909822954
0.0002910327023
0.0002910807419
0.0002911261631
0.000291168743
0.0002912082901
0.000291244646
0.0002912776867
0.0002913073229
0.0002913334998
0.0002913561957
0.0002913754201
0.0002913912118
0.0002914036355
0.0002914127787
0.0002914187483
0.0002914216667
0.0002914216684
0.0002914188959
0.0002914134968
0.0002914056201
0.0002913954137
0.0002913830214
0.000291368581
0.0002913522225
0.0002913340664
0.0002913142233
0.0002912927927
0.0002912698628
0.0002912455108
0.0002912198028
0.0002911927941
0.0002911645303
0.0002911350473
0.0002911043728
0.0002910725263
0.0002910395209
0.000291005363
0.000290970054
0.0002909335904
0.0002908959649
0.0002908571665
0.0002908171816
0.000290775994
0.0002907335855
0.0002906899359
0.0002906450239
0.0002905988266
0.0002905513203
0.0002905024801
0.0002904522803
0.0002904006943
0.0002903476949
0.0002902932542
0.0002902373437
0.0002901799343
0.0002901209964
0.0002900605002
0.0002899984154
0.0002899347118
0.0002898693593
0.0002898023281
0.000289733589
0.0002896631139
0.000289590876
0.0002895168507
0.0002894410156
0.0002893633519
0.0002892838452
0.0002892024862
0.0002891192728
0.0002890342112
0.0002889473186
0.0002888586256
0.0002887681792
0.0002886760471
0.0002885823216
0.0002884871231
0.0002883905762
0.0002882923569
0.0002881844444
0.0002879214599
0.0002853939114
0.0002693440396
0.0001933214867
1.654118897e-05
1.618040541e-05
1.618032617e-05
1.618032614e-05
1.618032614e-05
1.618032614e-05
1.618032614e-05
1.618032614e-05
1.618032614e-05
1.618032614e-05
1.618032614e-05
1.618032614e-05
1.618032614e-05
1.618032614e-05
1.618032614e-05
1.618032614e-05
1.618032614e-05
1.618032614e-05
1.618032614e-05
1.618032614e-05
1.618032614e-05
1.618032614e-05
1.618032614e-05
1.618032613e-05
1.618032613e-05
1.618032613e-05
1.618032613e-05
1.618032613e-05
1.618032613e-05
1.618032613e-05
1.618032613e-05
1.618032613e-05
1.618032613e-05
1.618032613e-05
1.618032613e-05
1.618032613e-05
1.618032613e-05
1.618032613e-05
1.618032613e-05
1.618032613e-05
1.618032613e-05
1.618032613e-05
1.618032613e-05
1.618032613e-05
1.618032613e-05
1.618032613e-05
1.618032613e-05
1.618032613e-05
1.618032613e-05
1.618032613e-05
1.618032613e-05
1.618032613e-05
1.618032613e-05
1.618032613e-05
1.618032613e-05
1.618032613e-05
1.618032612e-05
1.618032612e-05
1.618032612e-05
1.618032612e-05
1.618032612e-05
1.618032612e-05
1.618032612e-05
1.618032612e-05
1.618032612e-05
1.618032612e-05
1.618032612e-05
1.618032612e-05
1.618032612e-05
1.618032612e-05
1.618032612e-05
1.618032612e-05
1.618032612e-05
1.618032612e-05
1.618032612e-05
1.618032612e-05
1.618032612e-05
1.618032612e-05
1.618032612e-05
1.618032612e-05
1.618032612e-05
1.618032612e-05
1.618032611e-05
1.618032611e-05
1.618032611e-05
1.618032611e-05
1.618032611e-05
1.618032611e-05
1.618032611e-05
1.618032611e-05
1.618032611e-05
1.618032611e-05
1.618032611e-05
1.618032611e-05
1.618032611e-05
1.618032611e-05
1.618032611e-05
1.618032611e-05
1.618032611e-05
1.618032611e-05
1.618032611e-05
1.618032611e-05
1.618032611e-05
1.618032611e-05
1.618032611e-05
1.618032611e-05
1.618032611e-05
1.618032611e-05
1.618032611e-05
1.618032611e-05
0.0002908152349
0.0002907789914
0.0002908346022
0.0002908903041
0.0002909445844
0.0002909970749
0.0002910474761
0.0002910955117
0.0002911409304
0.0002911835097
0.000291223058
0.0002912594171
0.000291292463
0.0002913221064
0.0002913482926
0.0002913709998
0.0002913902375
0.0002914060445
0.0002914184853
0.0002914276474
0.0002914336377
0.0002914365784
0.000291436604
0.0002914338569
0.0002914284846
0.0002914206362
0.0002914104593
0.0002913980979
0.0002913836895
0.0002913673642
0.0002913492427
0.0002913294353
0.0002913080416
0.0002912851499
0.0002912608374
0.0002912351701
0.0002912082036
0.0002911799833
0.0002911505453
0.0002911199173
0.0002910881191
0.0002910551635
0.0002910210572
0.0002909858016
0.0002909493933
0.0002909118251
0.000290873086
0.0002908331626
0.0002907920387
0.0002907496962
0.0002907061151
0.000290661274
0.0002906151503
0.0002905677203
0.0002905189591
0.0002904688413
0.0002904173404
0.0002903644293
0.0002903100802
0.0002902542648
0.000290196954
0.0002901381184
0.0002900777283
0.0002900157536
0.000289952164
0.0002898869294
0.0002898200201
0.0002897514066
0.0002896810606
0.0002896089547
0.0002895350635
0.0002894593636
0.0002893818345
0.0002893024593
0.0002892212255
0.0002891381262
0.0002890531614
0.0002889663392
0.0002888776776
0.0002887872065
0.0002886949693
0.0002886010246
0.0002885054449
0.0002884082873
0.0002883091379
0.0002881999407
0.0002879371021
0.0002854346026
0.0002695065323
0.0001941701602
1.654483816e-05
1.61804062e-05
1.618032616e-05
1.618032614e-05
1.618032614e-05
1.618032614e-05
1.618032613e-05
1.618032613e-05
1.618032613e-05
1.618032613e-05
1.618032613e-05
1.618032613e-05
1.618032613e-05
1.618032613e-05
1.618032613e-05
1.618032613e-05
1.618032613e-05
1.618032613e-05
1.618032613e-05
1.618032613e-05
1.618032613e-05
1.618032613e-05
1.618032613e-05
1.618032613e-05
1.618032613e-05
1.618032613e-05
1.618032613e-05
1.618032613e-05
1.618032613e-05
1.618032613e-05
1.618032613e-05
1.618032613e-05
1.618032613e-05
1.618032613e-05
1.618032613e-05
1.618032613e-05
1.618032613e-05
1.618032613e-05
1.618032613e-05
1.618032613e-05
1.618032613e-05
1.618032613e-05
1.618032613e-05
1.618032613e-05
1.618032613e-05
1.618032612e-05
1.618032612e-05
1.618032612e-05
1.618032612e-05
1.618032612e-05
1.618032612e-05
1.618032612e-05
1.618032612e-05
1.618032612e-05
1.618032612e-05
1.618032612e-05
1.618032612e-05
1.618032612e-05
1.618032612e-05
1.618032612e-05
1.618032612e-05
1.618032612e-05
1.618032612e-05
1.618032612e-05
1.618032612e-05
1.618032612e-05
1.618032612e-05
1.618032612e-05
1.618032612e-05
1.618032612e-05
1.618032612e-05
1.618032612e-05
1.618032612e-05
1.618032612e-05
1.618032612e-05
1.618032612e-05
1.618032611e-05
1.618032611e-05
1.618032611e-05
1.618032611e-05
1.618032611e-05
1.618032611e-05
1.618032611e-05
1.618032611e-05
1.618032611e-05
1.618032611e-05
1.618032611e-05
1.618032611e-05
1.618032611e-05
1.618032611e-05
1.618032611e-05
1.618032611e-05
1.618032611e-05
1.618032611e-05
1.618032611e-05
1.618032611e-05
1.618032611e-05
1.618032611e-05
1.618032611e-05
1.618032611e-05
1.618032611e-05
1.618032611e-05
1.618032611e-05
1.618032611e-05
1.618032611e-05
1.618032611e-05
1.618032611e-05
1.618032611e-05
1.618032611e-05
1.618032611e-05
0.0002908265921
0.000290790387
0.0002908459889
0.0002909016819
0.0002909559542
0.0002910084377
0.0002910588328
0.0002911068632
0.0002911522781
0.0002911948547
0.0002912344016
0.0002912707607
0.0002913038081
0.0002913334546
0.0002913596453
0.0002913823585
0.0002914016038
0.0002914174199
0.0002914298712
0.0002914390454
0.0002914450491
0.0002914480045
0.0002914480461
0.0002914453163
0.0002914399625
0.0002914321337
0.0002914219776
0.000291409638
0.0002913952526
0.0002913789514
0.000291360855
0.0002913410739
0.0002913197076
0.0002912968446
0.0002912725619
0.0002912469257
0.0002912199917
0.0002911918052
0.0002911624026
0.0002911318115
0.0002911000518
0.0002910671364
0.0002910330722
0.0002909978604
0.000290961498
0.0002909239776
0.0002908852886
0.0002908454174
0.0002908043481
0.0002907620624
0.0002907185407
0.0002906737616
0.0002906277027
0.0002905803401
0.0002905316494
0.0002904816051
0.0002904301808
0.0002903773496
0.0002903230837
0.000290267355
0.0002902101345
0.0002901513929
0.0002900911005
0.0002900292273
0.0002899657429
0.0002899006172
0.0002898338201
0.0002897653221
0.0002896950941
0.0002896231081
0.0002895493375
0.0002894737575
0.0002893963454
0.0002893170813
0.0002892359488
0.0002891529356
0.0002890680341
0.0002889812424
0.0002888925651
0.0002888020133
0.0002887096056
0.0002886153667
0.000288519324
0.0002884214747
0.0002883213334
0.0002882108535
0.0002879484221
0.0002854727438
0.000269673084
0.0001950522707
1.654865467e-05
1.618040702e-05
1.618032616e-05
1.618032613e-05
1.618032613e-05
1.618032613e-05
1.618032613e-05
1.618032613e-05
1.618032613e-05
1.618032613e-05
1.618032613e-05
1.618032613e-05
1.618032613e-05
1.618032613e-05
1.618032613e-05
1.618032613e-05
1.618032613e-05
1.618032613e-05
1.618032613e-05
1.618032613e-05
1.618032613e-05
1.618032613e-05
1.618032613e-05
1.618032613e-05
1.618032613e-05
1.618032613e-05
1.618032613e-05
1.618032613e-05
1.618032613e-05
1.618032613e-05
1.618032613e-05
1.618032613e-05
1.618032613e-05
1.618032612e-05
1.618032612e-05
1.618032612e-05
1.618032612e-05
1.618032612e-05
1.618032612e-05
1.618032612e-05
1.618032612e-05
1.618032612e-05
1.618032612e-05
1.618032612e-05
1.618032612e-05
1.618032612e-05
1.618032612e-05
1.618032612e-05
1.618032612e-05
1.618032612e-05
1.618032612e-05
1.618032612e-05
1.618032612e-05
1.618032612e-05
1.618032612e-05
1.618032612e-05
1.618032612e-05
1.618032612e-05
1.618032612e-05
1.618032612e-05
1.618032612e-05
1.618032612e-05
1.618032612e-05
1.618032612e-05
1.618032612e-05
1.618032612e-05
1.618032612e-05
1.618032612e-05
1.618032612e-05
1.618032611e-05
1.618032611e-05
1.618032611e-05
1.618032611e-05
1.618032611e-05
1.618032611e-05
1.618032611e-05
1.618032611e-05
1.618032611e-05
1.618032611e-05
1.618032611e-05
1.618032611e-05
1.618032611e-05
1.618032611e-05
1.618032611e-05
1.618032611e-05
1.618032611e-05
1.618032611e-05
1.618032611e-05
1.618032611e-05
1.618032611e-05
1.618032611e-05
1.618032611e-05
1.618032611e-05
1.618032611e-05
1.618032611e-05
1.618032611e-05
1.618032611e-05
1.618032611e-05
1.618032611e-05
1.618032611e-05
1.618032611e-05
1.618032611e-05
1.618032611e-05
1.618032611e-05
1.618032611e-05
1.618032611e-05
1.618032611e-05
1.618032611e-05
1.618032611e-05
1.618032611e-05
0.0002908353708
0.000290799214
0.0002908548078
0.0002909104925
0.0002909647567
0.0002910172325
0.0002910676205
0.0002911156446
0.0002911610538
0.0002912036257
0.0002912431689
0.0002912795254
0.0002913125712
0.0002913422173
0.0002913684088
0.000291391124
0.0002914103727
0.0002914261932
0.0002914386503
0.0002914478313
0.000291453843
0.0002914568076
0.0002914568594
0.0002914541409
0.0002914487994
0.0002914409839
0.000291430842
0.0002914185176
0.0002914041485
0.0002913878644
0.0002913697862
0.0002913500243
0.0002913286783
0.0002913058366
0.0002912815766
0.0002912559643
0.0002912290554
0.0002912008955
0.000291171521
0.0002911409595
0.0002911092311
0.0002910763487
0.0002910423192
0.0002910071442
0.0002909708205
0.0002909333409
0.0002908946949
0.0002908548689
0.0002908138471
0.0002907716115
0.0002907281424
0.0002906834185
0.0002906374174
0.0002905901156
0.0002905414885
0.0002904915108
0.0002904401562
0.0002903873979
0.0002903332081
0.0002902775588
0.0002902204211
0.0002901617657
0.0002901015627
0.0002900397821
0.0002899763934
0.0002899113663
0.0002898446701
0.0002897762748
0.0002897061505
0.0002896342682
0.0002895605996
0.0002894851178
0.0002894077975
0.0002893286151
0.0002892475493
0.0002891645815
0.0002890796958
0.0002889928793
0.000288904122
0.0002888134169
0.0002887207582
0.0002886261402
0.0002885295516
0.0002884309434
0.0002883297815
0.0002882180725
0.0002879563502
0.0002855091532
0.0002698441958
0.0001959660937
1.655263297e-05
1.618040788e-05
1.618032616e-05
1.618032613e-05
1.618032613e-05
1.618032613e-05
1.618032613e-05
1.618032613e-05
1.618032613e-05
1.618032613e-05
1.618032613e-05
1.618032613e-05
1.618032613e-05
1.618032613e-05
1.618032613e-05
1.618032613e-05
1.618032613e-05
1.618032613e-05
1.618032613e-05
1.618032613e-05
1.618032613e-05
1.618032613e-05
1.618032612e-05
1.618032612e-05
1.618032612e-05
1.618032612e-05
1.618032612e-05
1.618032612e-05
1.618032612e-05
1.618032612e-05
1.618032612e-05
1.618032612e-05
1.618032612e-05
1.618032612e-05
1.618032612e-05
1.618032612e-05
1.618032612e-05
1.618032612e-05
1.618032612e-05
1.618032612e-05
1.618032612e-05
1.618032612e-05
1.618032612e-05
1.618032612e-05
1.618032612e-05
1.618032612e-05
1.618032612e-05
1.618032612e-05
1.618032612e-05
1.618032612e-05
1.618032612e-05
1.618032612e-05
1.618032612e-05
1.618032612e-05
1.618032612e-05
1.618032612e-05
1.618032612e-05
1.618032612e-05
1.618032612e-05
1.618032612e-05
1.618032612e-05
1.618032612e-05
1.618032612e-05
1.618032611e-05
1.618032611e-05
1.618032611e-05
1.618032611e-05
1.618032611e-05
1.618032611e-05
1.618032611e-05
1.618032611e-05
1.618032611e-05
1.618032611e-05
1.618032611e-05
1.618032611e-05
1.618032611e-05
1.618032611e-05
1.618032611e-05
1.618032611e-05
1.618032611e-05
1.618032611e-05
1.618032611e-05
1.618032611e-05
1.618032611e-05
1.618032611e-05
1.618032611e-05
1.618032611e-05
1.618032611e-05
1.618032611e-05
1.618032611e-05
1.618032611e-05
1.618032611e-05
1.618032611e-05
1.618032611e-05
1.618032611e-05
1.618032611e-05
1.618032611e-05
1.618032611e-05
1.618032611e-05
1.618032611e-05
1.618032611e-05
1.618032611e-05
1.618032611e-05
1.618032611e-05
1.618032611e-05
1.618032611e-05
1.618032611e-05
1.618032611e-05
1.618032611e-05
1.618032611e-05
0.0002908420965
0.000290805998
0.0002908615846
0.0002909172609
0.0002909715166
0.000291023984
0.0002910743637
0.00029112238
0.0002911677819
0.0002912103471
0.0002912498843
0.0002912862356
0.0002913192772
0.0002913489201
0.0002913751093
0.0002913978234
0.0002914170718
0.0002914328932
0.0002914453522
0.0002914545361
0.0002914605516
0.000291463521
0.0002914635785
0.0002914608666
0.0002914555325
0.0002914477253
0.0002914375926
0.0002914252782
0.0002914109199
0.0002913946476
0.000291376582
0.0002913568337
0.0002913355023
0.0002913126763
0.000291288433
0.0002912628387
0.0002912359492
0.00029120781
0.0002911784576
0.0002911479198
0.0002911162168
0.0002910833615
0.0002910493609
0.0002910142168
0.0002909779259
0.0002909404813
0.0002909018724
0.0002908620859
0.0002908211058
0.0002907789143
0.0002907354919
0.0002906908172
0.000290644868
0.0002905976208
0.0002905490511
0.0002904991336
0.0002904478421
0.0002903951498
0.000290341029
0.0002902854515
0.0002902283885
0.0002901698104
0.0002901096874
0.0002900479892
0.0002899846849
0.0002899197435
0.0002898531341
0.0002897848255
0.0002897147867
0.0002896429871
0.0002895693965
0.0002894939855
0.0002894167253
0.0002893375881
0.0002892565472
0.0002891735769
0.0002890886525
0.00028900175
0.0002889128455
0.0002888219148
0.000288728931
0.0002886338631
0.0002885366706
0.0002884372718
0.0002883351052
0.0002882222645
0.0002879615653
0.0002855444159
0.0002700202972
0.0001969108
1.655677173e-05
1.618040877e-05
1.618032616e-05
1.618032613e-05
1.618032613e-05
1.618032613e-05
1.618032613e-05
1.618032613e-05
1.618032613e-05
1.618032613e-05
1.618032612e-05
1.618032612e-05
1.618032612e-05
1.618032612e-05
1.618032612e-05
1.618032612e-05
1.618032612e-05
1.618032612e-05
1.618032612e-05
1.618032612e-05
1.618032612e-05
1.618032612e-05
1.618032612e-05
1.618032612e-05
1.618032612e-05
1.618032612e-05
1.618032612e-05
1.618032612e-05
1.618032612e-05
1.618032612e-05
1.618032612e-05
1.618032612e-05
1.618032612e-05
1.618032612e-05
1.618032612e-05
1.618032612e-05
1.618032612e-05
1.618032612e-05
1.618032612e-05
1.618032612e-05
1.618032612e-05
1.618032612e-05
1.618032612e-05
1.618032612e-05
1.618032612e-05
1.618032612e-05
1.618032612e-05
1.618032612e-05
1.618032612e-05
1.618032612e-05
1.618032612e-05
1.618032612e-05
1.618032612e-05
1.618032612e-05
1.618032612e-05
1.618032612e-05
1.618032611e-05
1.618032611e-05
1.618032611e-05
1.618032611e-05
1.618032611e-05
1.618032611e-05
1.618032611e-05
1.618032611e-05
1.618032611e-05
1.618032611e-05
1.618032611e-05
1.618032611e-05
1.618032611e-05
1.618032611e-05
1.618032611e-05
1.618032611e-05
1.618032611e-05
1.618032611e-05
1.618032611e-05
1.618032611e-05
1.618032611e-05
1.618032611e-05
1.618032611e-05
1.618032611e-05
1.618032611e-05
1.618032611e-05
1.618032611e-05
1.618032611e-05
1.618032611e-05
1.618032611e-05
1.618032611e-05
1.618032611e-05
1.618032611e-05
1.618032611e-05
1.618032611e-05
1.618032611e-05
1.618032611e-05
1.618032611e-05
1.618032611e-05
1.618032611e-05
1.618032611e-05
1.618032611e-05
1.618032611e-05
1.618032611e-05
1.618032611e-05
1.618032611e-05
1.618032611e-05
1.618032611e-05
1.618032611e-05
1.618032611e-05
1.618032611e-05
1.618032611e-05
1.618032611e-05
1.618032611e-05
0.0002908471173
0.0002908110876
0.0002908666675
0.0002909223353
0.0002909765819
0.0002910290398
0.0002910794101
0.000291127417
0.0002911728099
0.0002912153665
0.0002912548957
0.0002912912397
0.0002913242747
0.0002913539118
0.0002913800962
0.0002914028062
0.0002914220516
0.0002914378708
0.0002914503285
0.000291459512
0.000291465528
0.0002914684987
0.0002914685582
0.000291465849
0.0002914605185
0.0002914527156