/*--------------------------------*- C++ -*----------------------------------*\
| =========                 |                                                 |
| \\      /  F ield         | OpenFOAM: The Open Source CFD Toolbox           |
|  \\    /   O peration     | Version:  v1706                                 |
|   \\  /    A nd           | Web:      www.OpenFOAM.com                      |
|    \\/     M anipulation  |                                                 |
\*---------------------------------------------------------------------------*/
FoamFile
{
    version     2.0;
    format      ascii;
    class       volVectorField;
    location    "0.0014";
    object      qConv;
}
// * * * * * * * * * * * * * * * * * * * * * * * * * * * * * * * * * * * * * //

dimensions      [1 0 -3 0 0 0 0];


internalField   nonuniform List<vector> 
80000
(
(-6280025.615 6863.031323 0)
(-297.0579843 1374.560235 0)
(-1621.228566 1372.451145 0)
(-1606.803145 1369.017272 1.093343924e-08)
(-1551.607808 1365.642016 0)
(-1486.393417 1362.486596 -1.074531927e-08)
(-1413.333295 1359.617148 0)
(-1333.356244 1357.059932 0)
(-1247.395119 1354.819832 0)
(-1156.432461 1352.889931 0)
(-1061.487134 1351.256774 0)
(-963.5950216 1349.903172 -1.367548569e-08)
(-863.7880807 1348.809899 2.021021631e-08)
(-763.0733357 1347.956686 0)
(-662.4129329 1347.322863 0)
(-562.7060276 1346.887865 0)
(-464.773345 1346.631596 0)
(-369.3445941 1346.534721 0)
(-277.0491008 1346.578884 1.915528147e-08)
(-188.4099529 1346.746905 0)
(-103.8412862 1347.022925 0)
(-23.64884221 1347.392464 0)
(51.96660263 1347.842521 0)
(122.9032684 1348.361546 1.518106786e-08)
(189.1502675 1348.939454 0)
(250.7779864 1349.567567 1.205521201e-08)
(307.9271731 1350.238559 -8.904837772e-09)
(360.7973429 1350.946369 0)
(409.6351331 1351.686069 -1.1515155e-08)
(454.7226683 1352.453827 -5.914366537e-09)
(496.366567 1353.246702 0)
(534.8878115 1354.062575 0)
(570.6125032 1354.900043 0)
(603.8640727 1355.758258 0)
(634.956582 1356.636851 0)
(664.1893804 1357.535806 -1.078922008e-08)
(691.8431286 1358.45541 0)
(718.1768491 1359.396109 0)
(743.4262756 1360.35847 -5.437450677e-09)
(767.8030117 1361.343123 0)
(791.4945051 1362.350679 0)
(814.6648269 1363.381706 0)
(837.4558178 1364.436688 -5.235539488e-09)
(859.9886855 1365.515989 1.519047416e-08)
(882.3658778 1366.619851 0)
(904.6730127 1367.748355 0)
(926.9809518 1368.901416 0)
(949.3477612 1370.078807 -9.629618356e-09)
(971.8206742 1371.280101 -4.943973107e-09)
(994.4378337 1372.504729 0)
(1017.229887 1373.75192 9.355949644e-09)
(1040.221433 1375.020752 0)
(1063.432225 1376.31012 0)
(1086.878198 1377.618727 1.379961861e-08)
(1110.572248 1378.945099 1.366634906e-08)
(1134.524873 1380.287548 0)
(1158.744564 1381.644178 -1.340289694e-08)
(1183.238098 1383.012843 0)
(1208.010522 1384.391102 -1.314351737e-08)
(1233.065082 1385.776205 0)
(1258.403009 1387.165005 0)
(1284.02302 1388.553919 8.405247395e-09)
(1309.920767 1389.938799 0)
(1336.088154 1391.314827 0)
(1362.512318 1392.67639 0)
(1389.174511 1394.016823 0)
(1416.048705 1395.328203 -1.214569158e-08)
(1443.099703 1396.600947 0)
(1470.280826 1397.823345 0)
(1497.530709 1398.98085 0)
(1524.769055 1400.055025 7.686118703e-09)
(1551.890622 1401.022032 -3.943953372e-09)
(1578.756605 1401.850205 0)
(1605.182122 1402.49615 -1.132285317e-08)
(1630.917839 1402.898622 0)
(1655.621467 1402.967363 -7.308276031e-09)
(1678.814322 1402.564627 0)
(1699.813056 1401.471344 0)
(1717.620162 1399.326507 1.785156082e-08)
(1730.749597 1395.517337 0)
(1736.951062 1388.979786 0)
(1732.80488 1377.844116 0)
(1713.458277 1358.821581 0)
(1677.384137 1326.200977 0)
(1711.696509 1270.347094 0)
(3403.334267 1175.450534 0)
(27640.68578 1013.486453 0)
(182138.8149 795.7137213 0)
(827502.973 658.0982468 -1.813222182e-08)
(1114367.873 2233.468895 5.255940031e-09)
(41407.90826 -35.71079618 0)
(46.13824246 -0.04021760702 0)
(0.01109608624 -9.65741648e-06 0)
(3.600510034e-06 3.359992409e-09 0)
(6.171667743e-09 1.885349915e-09 0)
(-5.885657733e-09 -2.20804094e-09 0)
(-6.59587544e-09 -4.467281637e-09 0)
(-6.356160412e-09 -7.130111509e-09 1.030807993e-11)
(-6.505725404e-09 -9.059163031e-09 0)
(-6.740736505e-09 -1.281271347e-08 0)
(-5.175801459e-09 -1.402241063e-08 0)
(-5.628279763e-09 -1.608143988e-08 0)
(-6.829180351e-09 -2.039633726e-08 -9.795525739e-12)
(-7.451833743e-09 -2.373133973e-08 -9.695681407e-12)
(-7.353118904e-09 -2.866708166e-08 -9.596711169e-12)
(-7.613863066e-09 -3.207382289e-08 -1.899721977e-11)
(-8.107349227e-09 -3.620435619e-08 -9.401370488e-12)
(-8.293144896e-09 -4.052809606e-08 -9.304987408e-12)
(-9.929707233e-09 -4.60062338e-08 9.209454469e-12)
(-1.053876842e-08 -5.253141985e-08 0)
(-8.409947832e-09 -5.785210471e-08 0)
(-7.852223931e-09 -6.227250049e-08 8.92789759e-12)
(-9.894184933e-09 -6.869047381e-08 0)
(-9.878377084e-09 -7.580598718e-08 -8.722042332e-12)
(-9.190331786e-09 -8.27323041e-08 0)
(-9.453171427e-09 -8.979425243e-08 0)
(-9.726229211e-09 -9.725412556e-08 8.475087626e-12)
(-1.068392485e-08 -1.058439343e-07 8.386941359e-12)
(-1.086867685e-08 -1.142371188e-07 0)
(-1.180725522e-08 -1.228266604e-07 8.213017508e-12)
(-1.355296469e-08 -1.337624737e-07 0)
(-1.357034311e-08 -1.458201908e-07 0)
(-1.289188726e-08 -1.57052507e-07 0)
(-1.248684306e-08 -1.687142777e-07 0)
(-1.219505425e-08 -1.808594308e-07 -7.791765628e-12)
(-1.263835387e-08 -1.939010979e-07 0)
(-1.330656656e-08 -2.08944599e-07 0)
(-1.338243622e-08 -2.23572813e-07 0)
(-1.284349608e-08 -2.38727769e-07 7.468341203e-12)
(-1.4354277e-08 -2.543016135e-07 0)
(-1.552981239e-08 -2.719908603e-07 0)
(-1.491778486e-08 -2.893891388e-07 0)
(-1.481663851e-08 -3.06873693e-07 0)
(-1.424193331e-08 -3.246624297e-07 0)
(-1.382632119e-08 -3.437890739e-07 0)
(-1.412281209e-08 -3.636158428e-07 6.930270082e-12)
(-1.559198375e-08 -3.85434354e-07 0)
(-1.643912072e-08 -4.090949767e-07 0)
(-1.606048922e-08 -4.33101725e-07 0)
(-1.422390374e-08 -4.570267274e-07 6.638171879e-12)
(-1.361533191e-08 -4.800544329e-07 6.566842137e-12)
(-1.388840178e-08 -5.05299282e-07 0)
(-1.35749522e-08 -5.316306065e-07 0)
(-1.344071841e-08 -5.603121504e-07 0)
(-1.325642201e-08 -5.882207379e-07 -6.288148409e-12)
(-1.285580583e-08 -6.165340772e-07 0)
(-1.158520942e-08 -6.446235185e-07 0)
(-1.041519936e-08 -6.745586605e-07 0)
(-9.086445876e-09 -7.043861601e-07 6.019816049e-12)
(-8.063303696e-09 -7.357378027e-07 0)
(-6.994328457e-09 -7.667038721e-07 0)
(-6.08811351e-09 -7.987491092e-07 5.825176402e-12)
(-4.737494442e-09 -8.325125688e-07 0)
(-3.880008308e-09 -8.65732353e-07 -5.698491541e-12)
(-3.156218925e-09 -9.023210916e-07 -5.636057216e-12)
(-3.79100727e-10 -9.380579739e-07 0)
(2.258803218e-09 -9.735364408e-07 0)
(3.343086225e-09 -1.008989186e-06 -5.452330072e-12)
(4.516027119e-09 -1.04638006e-06 0)
(7.349427067e-09 -1.085597746e-06 5.332778525e-12)
(9.547082887e-09 -1.121491409e-06 5.273868788e-12)
(1.109552298e-08 -1.157779596e-06 -1.329643417e-14)
(1.507680973e-08 -1.197043586e-06 0)
(1.925854764e-08 -1.233249438e-06 -5.100549275e-12)
(2.200024743e-08 -1.26878929e-06 1.008779524e-11)
(2.56761065e-08 -1.303869863e-06 0)
(2.967009982e-08 -1.340829232e-06 0)
(3.492042786e-08 -1.37496876e-06 0)
(4.024760286e-08 -1.405511896e-06 9.64555845e-12)
(4.381883592e-08 -1.436951788e-06 0)
(4.87105361e-08 -1.46929301e-06 0)
(5.443842938e-08 -1.498554628e-06 0)
(5.978437454e-08 -1.525958744e-06 0)
(6.579522046e-08 -1.551181614e-06 9.116803272e-12)
(7.222873987e-08 -1.572629472e-06 0)
(7.915791568e-08 -1.592501874e-06 0)
(8.674032769e-08 -1.608650651e-06 -8.811958769e-12)
(9.398038531e-08 -1.62138488e-06 -8.712361495e-12)
(1.015076344e-07 -1.630880306e-06 0)
(1.106078716e-07 -1.637456597e-06 0)
(1.203205543e-07 -1.636828474e-06 0)
(1.291489746e-07 -1.631734159e-06 0)
(1.393552824e-07 -1.623081711e-06 0)
(1.499569946e-07 -1.606196935e-06 0)
(1.590402704e-07 -1.582602037e-06 -2.050369406e-14)
(1.687882587e-07 -1.555932452e-06 0)
(1.806553226e-07 -1.520146416e-06 0)
(1.922279887e-07 -1.476063223e-06 -7.769765799e-12)
(2.036914701e-07 -1.426849125e-06 7.680667615e-12)
(2.170578786e-07 -1.367240666e-06 -1.935620204e-14)
(2.299813385e-07 -1.297953872e-06 -7.505184047e-12)
(2.434026323e-07 -1.219473199e-06 0)
(2.575355898e-07 -1.130037569e-06 -7.333267182e-12)
(2.700752532e-07 -1.030039123e-06 0)
(2.836607131e-07 -9.201149691e-07 0)
(2.997156763e-07 -7.975279368e-07 0)
(3.145212914e-07 -6.630204571e-07 0)
(3.286660524e-07 -5.164061325e-07 0)
(3.431440303e-07 -3.567174406e-07 0)
(5.419240074e-07 -1.851067725e-07 6.758774157e-12)
(-6285712.016 17690.74869 0)
(-293.9709709 1217.083424 0)
(-1617.826744 1217.725905 -6.099615064e-09)
(-1603.35272 1214.792448 0)
(-1548.555451 1211.836477 0)
(-1483.969036 1209.030386 0)
(-1411.637713 1206.430324 0)
(-1332.419368 1204.063273 0)
(-1247.208077 1201.940025 0)
(-1156.965204 1200.06132 0)
(-1062.698039 1198.421673 4.600663935e-09)
(-965.436252 1197.011588 0)
(-866.208756 1195.819072 0)
(-766.0215098 1194.830612 0)
(-665.83693 1194.031801 0)
(-566.5554562 1193.407833 0)
(-468.9998385 1192.943905 0)
(-373.9023905 1192.625439 0)
(-281.8955023 1192.43837 -5.297186961e-09)
(-193.5056258 1192.369258 -3.165103248e-09)
(-109.1504832 1192.405481 0)
(-29.1395174 1192.5353 0)
(46.32277853 1192.747963 0)
(117.1309828 1193.033713 9.156574249e-09)
(183.2706799 1193.383828 0)
(244.8089064 1193.790598 -4.970540134e-09)
(301.8833019 1194.247329 0)
(354.6905387 1194.748287 3.946758242e-09)
(403.4746863 1195.288621 -5.830469079e-09)
(448.5156013 1195.864362 0)
(490.1179527 1196.472271 1.954064326e-09)
(528.601042 1197.109814 0)
(564.289592 1197.775089 -5.618156277e-09)
(597.5059231 1198.466689 0)
(628.5632368 1199.183679 5.514287501e-09)
(657.7602424 1199.925481 5.462924341e-09)
(685.3771512 1200.691833 0)
(711.6727358 1201.482684 0)
(736.882606 1202.298152 5.311110121e-09)
(761.2183756 1203.138493 0)
(784.8676078 1204.003997 0)
(807.9945635 1204.894988 0)
(830.7413258 1205.811783 0)
(853.2294098 1206.754648 0)
(875.5615832 1207.7238 0)
(897.8238078 1208.71936 0)
(920.0872999 1209.741357 0)
(942.4104787 1210.789744 0)
(964.840933 1211.864324 3.180558103e-09)
(987.4171424 1212.964824 4.783065451e-09)
(1010.170113 1214.090839 -3.119960588e-09)
(1033.124781 1215.24186 0)
(1056.301233 1216.417243 0)
(1079.715756 1217.616235 0)
(1103.381624 1218.837954 0)
(1127.309722 1220.081376 0)
(1151.508956 1221.345317 0)
(1175.986591 1222.628428 1.511042856e-09)
(1200.748233 1223.929141 0)
(1225.797766 1225.245659 0)
(1251.137186 1226.575856 -1.467257701e-09)
(1276.766105 1227.917257 2.802971958e-09)
(1302.681289 1229.266908 0)
(1328.875994 1230.621243 0)
(1355.33901 1231.975945 0)
(1382.053685 1233.325656 0)
(1408.996625 1234.6637 0)
(1436.136044 1235.981591 0)
(1463.429757 1237.268412 0)
(1490.822449 1238.509828 0)
(1518.242187 1239.686704 0)
(1545.595621 1240.773033 0)
(1572.761457 1241.732697 0)
(1599.581472 1242.514469 0)
(1625.848276 1243.044157 -3.738058124e-09)
(1651.288005 1243.211685 0)
(1675.537107 1242.850774 0)
(1698.111257 1241.703943 0)
(1718.363537 1239.366085 0)
(1735.432095 1235.188532 4.765599289e-09)
(1748.179866 1228.120463 0)
(1755.151228 1216.449294 -3.480825174e-09)
(1754.869272 1197.38689 0)
(1751.296683 1166.442772 6.820125465e-09)
(1839.147178 1116.452857 0)
(3605.546723 1034.189375 0)
(27834.35799 871.1411512 -3.304213508e-09)
(181812.6607 550.6288411 3.241667912e-09)
(824735.3136 -166.6273813 -3.023585861e-09)
(1118303.303 2345.613872 0)
(41576.09156 -108.1922416 0)
(46.41559399 -0.1214944273 3.651140576e-12)
(0.01116802773 -2.931485434e-05 0)
(3.628307947e-06 -1.064474942e-07 0)
(1.298545135e-08 -1.038628953e-07 0)
(-1.102033689e-09 -1.094132157e-07 -3.506475973e-12)
(-3.065584875e-09 -1.155615878e-07 3.471096426e-12)
(-3.137901484e-09 -1.228358963e-07 -3.436022961e-12)
(-2.395049944e-09 -1.282790418e-07 0)
(-3.266893528e-09 -1.356673761e-07 0)
(-3.159872471e-09 -1.427616481e-07 0)
(-1.045363542e-09 -1.489447062e-07 0)
(-1.208774753e-09 -1.556144082e-07 3.265171721e-12)
(-1.35112702e-09 -1.632278469e-07 0)
(-1.227580006e-09 -1.718173309e-07 0)
(-2.190950262e-09 -1.802831448e-07 -3.166199844e-12)
(-1.972769974e-09 -1.896786385e-07 0)
(-1.089414635e-09 -1.98776356e-07 0)
(-9.624643299e-10 -2.081680549e-07 0)
(-1.746843412e-09 -2.193802473e-07 0)
(-1.377279829e-09 -2.305520803e-07 0)
(3.072862045e-11 -2.400272206e-07 2.975962626e-12)
(1.222195396e-10 -2.513754118e-07 -2.945232228e-12)
(5.016771915e-10 -2.631985174e-07 2.914775229e-12)
(1.099211644e-09 -2.755039699e-07 0)
(1.216369013e-09 -2.877566361e-07 0)
(2.122749475e-09 -2.99127706e-07 -2.825026239e-12)
(1.8619622e-09 -3.121847448e-07 0)
(1.625438258e-09 -3.25907364e-07 0)
(2.641914771e-09 -3.406899479e-07 0)
(3.56949054e-09 -3.57910362e-07 -2.709073388e-12)
(3.724146711e-09 -3.754169799e-07 0)
(4.038861343e-09 -3.918014261e-07 2.652653915e-12)
(5.100362227e-09 -4.089353527e-07 0)
(6.408539729e-09 -4.267305194e-07 0)
(8.162118944e-09 -4.442438047e-07 0)
(8.667981613e-09 -4.633516192e-07 2.54285413e-12)
(8.622284401e-09 -4.823860462e-07 0)
(9.836132491e-09 -5.014783651e-07 2.489444396e-12)
(1.02193026e-08 -5.205953475e-07 0)
(1.037922651e-08 -5.423764994e-07 6.212891963e-15)
(1.077917684e-08 -5.638063261e-07 -2.411151765e-12)
(1.111891377e-08 -5.856094207e-07 0)
(1.287216061e-08 -6.089576662e-07 0)
(1.47677302e-08 -6.323870827e-07 0)
(1.643461233e-08 -6.575415495e-07 0)
(1.779558317e-08 -6.816802467e-07 0)
(1.852929382e-08 -7.07990575e-07 0)
(1.904900252e-08 -7.341479946e-07 0)
(2.010334297e-08 -7.602153654e-07 2.207080514e-12)
(2.163596932e-08 -7.866157576e-07 0)
(2.376102611e-08 -8.132170174e-07 2.165390895e-12)
(2.656416772e-08 -8.403358269e-07 0)
(2.781816167e-08 -8.683026426e-07 2.118943724e-12)
(2.768701227e-08 -8.964023552e-07 0)
(2.816751799e-08 -9.25840744e-07 -2.073366638e-12)
(3.057952106e-08 -9.540852282e-07 -2.050900104e-12)
(3.297932429e-08 -9.824807774e-07 2.02864618e-12)
(3.529732132e-08 -1.011412198e-06 2.006603157e-12)
(3.711208207e-08 -1.040535322e-06 0)
(3.864361393e-08 -1.070635151e-06 0)
(4.152806164e-08 -1.100865011e-06 0)
(4.369233584e-08 -1.131447791e-06 0)
(4.655543624e-08 -1.160364086e-06 0)
(4.906164352e-08 -1.190250763e-06 0)
(5.103684514e-08 -1.220065506e-06 1.858071985e-12)
(5.346405619e-08 -1.249432726e-06 0)
(5.589645118e-08 -1.278422582e-06 -1.817441398e-12)
(5.972998053e-08 -1.307130362e-06 -1.797419361e-12)
(6.152233257e-08 -1.335510176e-06 0)
(6.167358943e-08 -1.362549605e-06 0)
(6.558883005e-08 -1.390238304e-06 -3.477016525e-12)
(6.953867868e-08 -1.416697049e-06 1.719251059e-12)
(7.115722152e-08 -1.440944316e-06 0)
(7.315109158e-08 -1.463989714e-06 0)
(7.784057971e-08 -1.487197677e-06 0)
(8.123734117e-08 -1.508067682e-06 0)
(8.21153471e-08 -1.527411097e-06 0)
(8.563794954e-08 -1.544516707e-06 3.215182727e-12)
(9.05067872e-08 -1.559436302e-06 0)
(9.399284473e-08 -1.57160894e-06 0)
(9.643429549e-08 -1.582352012e-06 0)
(9.912302964e-08 -1.590139175e-06 3.07348447e-12)
(1.011849046e-07 -1.595858811e-06 0)
(1.04095384e-07 -1.597801218e-06 0)
(1.075473764e-07 -1.597581878e-06 0)
(1.104228178e-07 -1.594906001e-06 0)
(1.13303774e-07 -1.587870886e-06 -2.904117399e-12)
(1.168125241e-07 -1.578460115e-06 0)
(1.192785489e-07 -1.56206587e-06 0)
(1.213296291e-07 -1.543274611e-06 0)
(1.249338878e-07 -1.521123309e-06 0)
(1.274405e-07 -1.493890222e-06 0)
(1.282805181e-07 -1.460411918e-06 0)
(1.310130047e-07 -1.423574795e-06 0)
(1.328498982e-07 -1.38159121e-06 0)
(1.333916437e-07 -1.33394098e-06 0)
(1.362740968e-07 -1.279411357e-06 -2.589919143e-12)
(1.376957138e-07 -1.220251931e-06 0)
(1.380728008e-07 -1.154346471e-06 0)
(1.388065599e-07 -1.081832637e-06 0)
(1.392183126e-07 -1.004533381e-06 0)
(1.394739406e-07 -9.20417184e-07 0)
(1.388224508e-07 -8.285053986e-07 2.416206425e-12)
(1.378686505e-07 -7.315621232e-07 2.388282747e-12)
(1.381216554e-07 -6.268603979e-07 0)
(1.375006749e-07 -5.142909233e-07 0)
(1.354884234e-07 -3.954430056e-07 0)
(1.338261531e-07 -2.707264722e-07 0)
(1.987140535e-07 -1.396368762e-07 0)
(-6287963.878 28051.40668 -3.725257939e-09)
(-293.8769527 588.8017434 0)
(-1617.745809 593.2943566 2.960304406e-09)
(-1603.348639 591.9744734 0)
(-1548.670918 590.5234636 -2.909478084e-09)
(-1484.250981 589.0899508 0)
(-1412.122543 587.697454 0)
(-1333.130378 586.3611316 0)
(-1248.156811 585.092391 0)
(-1158.154026 583.8993042 0)
(-1064.122587 582.7871472 -3.413643132e-09)
(-967.0874449 581.758979 0)
(-868.0743692 580.8161083 -4.044220354e-09)
(-768.0873226 579.9585112 0)
(-668.0875693 579.1851348 0)
(-568.9750804 578.4941039 0)
(-471.5725882 577.8829522 -1.951318035e-09)
(-376.6127692 577.3486956 -3.867778136e-09)
(-284.7286638 576.8880126 0)
(-196.4475556 576.4973053 0)
(-112.1881808 576.1727714 0)
(-32.26109249 575.9105362 3.093697283e-09)
(43.12804813 575.7066495 -3.065693554e-09)
(113.8726215 575.5572129 0)
(179.9570245 575.4584008 0)
(241.4471259 575.4065068 0)
(298.479433 575.3980169 0)
(351.2495815 575.4296328 0)
(400.0006627 575.498284 0)
(445.011647 575.6011788 2.283098146e-09)
(486.5864257 575.7357987 3.434674741e-09)
(525.0435981 575.8999217 3.402938407e-09)
(560.7072985 576.0916051 0)
(593.8993555 576.3091815 -1.140352719e-09)
(624.9325604 576.5512707 0)
(654.105307 576.8167371 2.159054829e-09)
(681.6975612 577.104659 0)
(707.9679314 577.4143608 0)
(733.1519081 577.7453231 0)
(757.4610483 578.0972122 0)
(781.0829123 578.4698078 0)
(804.1817696 578.8630315 0)
(826.8997637 579.2768833 0)
(849.358469 579.711444 2.002041814e-09)
(871.6607363 580.1668517 0)
(893.8926348 580.6433007 0)
(916.1254565 581.1409971 0)
(938.4177246 581.6602033 0)
(960.8171297 582.2011704 2.898036568e-09)
(983.3622307 582.7641771 -5.740641872e-09)
(1006.084116 583.3495145 0)
(1029.007809 583.9574863 0)
(1052.153478 584.5883942 0)
(1075.53748 585.2425491 0)
(1099.173157 585.9202706 0)
(1123.071488 586.6218898 0)
(1147.241483 587.3477155 0)
(1171.690517 588.0980538 0)
(1196.42434 588.8731956 0)
(1221.447044 589.6733679 8.892004949e-10)
(1246.760883 590.4987222 0)
(1272.365815 591.349284 -8.718889819e-10)
(1298.259098 592.2248716 -1.665580325e-09)
(1324.434628 593.1250125 8.548467316e-10)
(1350.882109 594.0487994 -1.632975677e-09)
(1377.58615 594.9946804 0)
(1404.525114 595.9601673 -2.430661399e-09)
(1431.669697 596.9414349 -2.406578598e-09)
(1458.981239 597.9327142 0)
(1486.40953 598.9254609 0)
(1513.890037 599.9070393 0)
(1541.34028 600.8589445 -7.893022353e-10)
(1568.655136 601.75405 0)
(1595.700532 602.5526 -7.735561495e-10)
(1622.30561 603.1962942 0)
(1648.251715 603.599507 0)
(1673.259202 603.6362638 0)
(1696.97032 603.1212582 0)
(1718.927665 601.7831294 -2.889236397e-09)
(1738.548581 599.2255974 0)
(1755.094384 594.8763649 0)
(1767.652573 587.9210073 0)
(1775.426954 577.2244755 2.773318043e-09)
(1783.069185 561.2360231 0)
(1885.007012 537.6464174 0)
(3654.254796 498.5572374 0)
(27714.00858 374.8205474 0)
(180832.4622 -35.34429804 0)
(820351.8398 -1490.892395 -3.630308334e-09)
(1123323.591 1305.897337 0)
(41799.45653 -181.6635691 0)
(46.78763774 -0.2041820084 0)
(0.01126441438 -4.94012612e-05 0)
(3.665675681e-06 -2.792241794e-07 0)
(1.999232959e-08 -2.714078612e-07 -2.125293557e-12)
(6.470395143e-09 -2.788045679e-07 0)
(7.082558848e-09 -2.869613025e-07 0)
(6.402315704e-09 -2.976240027e-07 2.061609284e-12)
(6.572968063e-09 -3.078303638e-07 0)
(7.793964274e-09 -3.174334128e-07 0)
(7.577918374e-09 -3.269394791e-07 0)
(7.415376913e-09 -3.367140719e-07 -1.97924374e-12)
(7.937448032e-09 -3.478631205e-07 -3.918197661e-12)
(9.355120415e-09 -3.593624664e-07 1.939130004e-12)
(1.026428452e-08 -3.699848215e-07 0)
(1.052119449e-08 -3.822450877e-07 -1.899715802e-12)
(1.081680136e-08 -3.930716227e-07 0)
(1.087862455e-08 -4.049952363e-07 1.860991486e-12)
(1.186743869e-08 -4.158922122e-07 0)
(1.291927062e-08 -4.281551843e-07 0)
(1.266825752e-08 -4.40614976e-07 -1.804177304e-12)
(1.358615583e-08 -4.529580934e-07 0)
(1.44845252e-08 -4.649842739e-07 -1.767135524e-12)
(1.54825504e-08 -4.783351005e-07 0)
(1.649157537e-08 -4.911671184e-07 0)
(1.533190432e-08 -5.054766301e-07 0)
(1.613214812e-08 -5.194104978e-07 0)
(1.762619866e-08 -5.334145973e-07 0)
(1.902319608e-08 -5.484356057e-07 -1.659911875e-12)
(2.202736795e-08 -5.632471982e-07 1.642598167e-12)
(2.37050466e-08 -5.772418593e-07 0)
(2.285096022e-08 -5.925953568e-07 1.60843779e-12)
(2.296702e-08 -6.081887005e-07 0)
(2.48591342e-08 -6.233159236e-07 0)
(2.575398867e-08 -6.387671967e-07 0)
(2.71927034e-08 -6.528774438e-07 0)
(2.828937803e-08 -6.67524481e-07 1.525709227e-12)
(2.812719112e-08 -6.836961264e-07 0)
(2.888821543e-08 -6.985656778e-07 -1.493663423e-12)
(3.046042367e-08 -7.13197687e-07 0)
(3.183233526e-08 -7.284929895e-07 0)
(3.233291251e-08 -7.444240916e-07 1.446687928e-12)
(3.424599699e-08 -7.603982792e-07 -1.431316645e-12)
(3.664780362e-08 -7.76908965e-07 0)
(3.916984591e-08 -7.91820202e-07 0)
(4.010605666e-08 -8.070935312e-07 1.386049518e-12)
(4.055060896e-08 -8.224719977e-07 2.742478522e-12)
(4.203448724e-08 -8.378615059e-07 -1.356566615e-12)
(4.219061204e-08 -8.53640274e-07 0)
(4.396857129e-08 -8.689069527e-07 1.327630088e-12)
(4.532290705e-08 -8.836666398e-07 -2.626728361e-12)
(4.643151624e-08 -8.979764853e-07 1.299231766e-12)
(4.87745559e-08 -9.09943087e-07 1.285231859e-12)
(5.015498153e-08 -9.229638271e-07 0)
(5.156000305e-08 -9.3774015e-07 0)
(5.210658028e-08 -9.516106861e-07 1.244017281e-12)
(5.276322704e-08 -9.670510471e-07 1.230537418e-12)
(5.493252923e-08 -9.806008387e-07 -1.217185097e-12)
(5.7240893e-08 -9.923632715e-07 0)
(5.958692833e-08 -1.003025552e-06 0)
(6.181230561e-08 -1.014189446e-06 0)
(6.380210385e-08 -1.02431688e-06 0)
(6.429482957e-08 -1.032842398e-06 1.152302223e-12)
(6.52158981e-08 -1.040745235e-06 0)
(6.737733526e-08 -1.045659872e-06 1.127207797e-12)
(6.952805912e-08 -1.051078737e-06 -1.114840779e-12)
(7.14685219e-08 -1.055015243e-06 -1.102592663e-12)
(7.249135114e-08 -1.058353516e-06 0)
(7.407031892e-08 -1.060876214e-06 1.078449288e-12)
(7.525798332e-08 -1.061071765e-06 1.06655227e-12)
(7.631300867e-08 -1.063528276e-06 0)
(7.820563819e-08 -1.064438133e-06 -1.043102702e-12)
(7.934272059e-08 -1.063043573e-06 1.031548408e-12)
(7.992756671e-08 -1.059934265e-06 0)
(8.166937071e-08 -1.057024497e-06 2.017552546e-12)
(8.39412661e-08 -1.05243436e-06 0)
(8.462336852e-08 -1.044651923e-06 0)
(8.545765123e-08 -1.037112092e-06 -1.950891491e-12)
(8.661281537e-08 -1.02827728e-06 0)
(8.65776218e-08 -1.017151017e-06 0)
(8.768734173e-08 -1.003445322e-06 0)
(8.889747699e-08 -9.862759003e-07 0)
(8.938535517e-08 -9.687599192e-07 0)
(8.945750681e-08 -9.498093409e-07 0)
(9.000427968e-08 -9.304176429e-07 0)
(9.219078558e-08 -9.084619482e-07 -1.78250606e-12)
(9.281627911e-08 -8.862505103e-07 -1.762386058e-12)
(9.329116929e-08 -8.616896959e-07 1.74246665e-12)
(9.200576911e-08 -8.348460513e-07 -1.722746239e-12)
(9.147332735e-08 -8.057510179e-07 0)
(9.421307074e-08 -7.769568003e-07 0)
(9.464745057e-08 -7.449080223e-07 0)
(9.332224783e-08 -7.126440618e-07 0)
(9.315812583e-08 -6.789614473e-07 0)
(9.345166384e-08 -6.432697496e-07 -1.60851087e-12)
(9.206357375e-08 -6.052866739e-07 1.590137739e-12)
(9.030527133e-08 -5.674405274e-07 0)
(8.992097603e-08 -5.279898329e-07 0)
(8.911433765e-08 -4.886563693e-07 0)
(8.767638064e-08 -4.496967983e-07 -1.518490313e-12)
(8.763210396e-08 -4.084059677e-07 0)
(8.765118208e-08 -3.675433354e-07 0)
(8.57044223e-08 -3.251154806e-07 0)
(8.378735844e-08 -2.832568333e-07 -1.449720723e-12)
(8.251114844e-08 -2.413514459e-07 0)
(8.103241162e-08 -2.005350675e-07 0)
(7.95927466e-08 -1.590352899e-07 3.569082236e-15)
(7.882720917e-08 -1.177222303e-07 0)
(7.816066778e-08 -7.758327526e-08 1.367657926e-12)
(1.134859456e-07 -3.771447357e-08 0)
(-6289302.489 38845.87817 0)
(-293.9448311 390.9274173 -1.590166161e-09)
(-1617.612377 398.195506 2.114701342e-09)
(-1603.285937 397.3092975 0)
(-1548.68634 396.2111942 0)
(-1484.353962 395.0902948 3.072031353e-09)
(-1412.324568 393.9629409 -2.04255238e-09)
(-1333.441801 392.8387023 2.503589309e-09)
(-1248.585182 391.7268481 0)
(-1158.703623 390.6360611 0)
(-1064.794646 389.5741284 0)
(-967.8806203 388.5478875 -2.417123756e-09)
(-868.9852372 387.563186 -1.444498916e-09)
(-769.1109352 386.6249185 0)
(-669.2178685 385.7370928 0)
(-570.2052736 384.9028638 1.886633504e-09)
(-472.8954655 384.1245567 0)
(-378.020947 383.4037653 0)
(-286.214807 382.7413228 2.270784325e-09)
(-198.0045061 382.1374358 1.3568099e-09)
(-113.8091212 381.5916674 0)
(-33.9396241 381.1030722 0)
(41.39783691 380.670189 0)
(112.0960669 380.2911879 1.755114644e-09)
(178.1389037 379.9639109 2.593014998e-09)
(239.5916167 379.6859469 -1.284685342e-09)
(296.5901027 379.4547396 -1.272943625e-09)
(349.3294277 379.2676457 0)
(398.0521267 379.1219893 8.533213848e-10)
(443.0366489 379.0151607 0)
(484.5863925 378.9446299 0)
(523.0195248 378.9080432 0)
(558.6598147 378.9032008 -2.408397991e-09)
(591.8287356 378.9281103 0)
(622.8387859 378.9810276 0)
(651.9881565 379.0604242 0)
(679.5566125 379.1650054 -2.320004096e-09)
(705.8026053 379.2937087 0)
(730.961533 379.445692 2.276783086e-09)
(755.2448846 379.6203142 2.255414882e-09)
(778.8401658 379.8171199 0)
(801.911626 380.0358443 1.457578727e-09)
(824.6014099 380.2763465 -2.192271328e-09)
(847.0311052 380.5386535 0)
(869.3035709 380.8228746 0)
(891.5048976 381.129267 -1.403179828e-09)
(913.7064037 381.4581501 1.389838092e-09)
(935.9666243 381.8099456 2.090187937e-09)
(958.3332788 382.1851382 0)
(980.8449236 382.5842863 0)
(1003.532639 383.0080102 -2.030792653e-09)
(1026.421448 383.4570183 0)
(1049.531511 383.932037 -1.991953169e-09)
(1072.879157 384.4338906 0)
(1096.477705 384.9634566 0)
(1120.338107 385.5216513 0)
(1144.469363 386.1094872 -1.261930887e-09)
(1168.878835 386.7279808 0)
(1193.572291 387.3782268 0)
(1218.553872 388.0613042 0)
(1243.82594 388.7783235 -1.842491311e-09)
(1269.388645 389.5302935 6.228457711e-10)
(1295.239537 390.3181329 1.806562532e-09)
(1321.372989 391.1425335 0)
(1347.779396 392.0038158 -1.166537193e-09)
(1374.444413 392.9017688 0)
(1401.347915 393.8353237 1.736377707e-09)
(1428.462776 394.8022047 -1.719174787e-09)
(1455.753466 395.7983419 0)
(1483.17427 396.8171365 0)
(1510.667089 397.8483065 -1.668376127e-09)
(1538.158637 398.8764316 0)
(1565.556951 399.8787084 -1.076971649e-09)
(1592.746774 400.8219753 1.618775546e-09)
(1619.583955 401.6583664 -1.055457408e-09)
(1645.887798 402.3195316 0)
(1671.432267 402.7080294 0)
(1695.933991 402.6862793 0)
(1719.037827 402.0608998 0)
(1740.299163 400.5619953 0)
(1759.161277 397.8150759 0)
(1774.946838 393.303313 0)
(1787.158698 386.3132829 0)
(1800.789184 375.827744 0)
(1909.880685 359.9698064 -1.940788153e-09)
(3671.721842 328.7372502 -1.920798785e-09)
(27521.97752 181.1448798 -2.832887267e-09)
(179640.663 -434.1921862 1.389808308e-09)
(815216.2649 -2807.364244 -2.152319975e-09)
(1128886.877 -84.5955543 -7.587154028e-10)
(42050.34063 -256.137607 -1.665233575e-12)
(47.20794116 -0.2884767529 0)
(0.01137434562 -6.98995229e-05 1.549050904e-12)
(3.711232346e-06 -4.38513271e-07 0)
(3.004199805e-08 -4.248687022e-07 0)
(1.605914241e-08 -4.340605905e-07 -1.502767327e-12)
(1.821333931e-08 -4.440467246e-07 1.487604729e-12)
(2.023521674e-08 -4.537452203e-07 0)
(1.956670608e-08 -4.641445424e-07 1.457672106e-12)
(1.831657789e-08 -4.741284353e-07 0)
(1.846788973e-08 -4.843314431e-07 0)
(2.180238621e-08 -4.942181712e-07 1.413740936e-12)
(2.360201918e-08 -5.058293152e-07 0)
(2.315223531e-08 -5.16893979e-07 0)
(2.421688462e-08 -5.277469627e-07 1.370949876e-12)
(2.368210999e-08 -5.386905854e-07 0)
(2.346963741e-08 -5.499347304e-07 2.686088455e-12)
(2.416513913e-08 -5.609785548e-07 1.329275315e-12)
(2.47774431e-08 -5.717005211e-07 -1.31562781e-12)
(2.604264869e-08 -5.823477381e-07 1.302100974e-12)
(2.628983698e-08 -5.9336033e-07 0)
(2.703498816e-08 -6.051669933e-07 1.275405652e-12)
(2.831559907e-08 -6.167444279e-07 0)
(2.962891273e-08 -6.281695008e-07 0)
(3.128817664e-08 -6.3908665e-07 -1.236246109e-12)
(3.222108828e-08 -6.507309441e-07 0)
(3.269887764e-08 -6.624944488e-07 0)
(3.39290913e-08 -6.733618184e-07 0)
(3.486343414e-08 -6.837789984e-07 -1.185647484e-12)
(3.521865305e-08 -6.940867605e-07 0)
(3.687410228e-08 -7.035837139e-07 0)
(3.84501452e-08 -7.131592822e-07 0)
(3.844402372e-08 -7.231755638e-07 -1.136845492e-12)
(3.952118942e-08 -7.328608324e-07 1.124919746e-12)
(3.967725764e-08 -7.415908469e-07 1.11310214e-12)
(4.051680622e-08 -7.503815745e-07 0)
(4.327261709e-08 -7.589429603e-07 1.089788753e-12)
(4.342444951e-08 -7.679532806e-07 -1.078291293e-12)
(4.294457997e-08 -7.772049414e-07 0)
(4.401414693e-08 -7.867578493e-07 0)
(4.57719528e-08 -7.95769691e-07 0)
(4.690377328e-08 -8.026308478e-07 0)
(4.819515702e-08 -8.105852069e-07 -1.022365726e-12)
(4.905222698e-08 -8.181183587e-07 0)
(4.988566742e-08 -8.2493974e-07 1.000709975e-12)
(5.191104479e-08 -8.305041478e-07 9.900321727e-13)
(5.320197099e-08 -8.381042525e-07 0)
(5.455734459e-08 -8.439193055e-07 9.689730038e-13)
(5.493615661e-08 -8.485746112e-07 -1.917180298e-12)
(5.520693144e-08 -8.534439802e-07 9.483041258e-13)
(5.583656066e-08 -8.569624866e-07 -9.381142231e-13)
(5.50494904e-08 -8.612360603e-07 0)
(5.655434081e-08 -8.644841694e-07 9.180197923e-13)
(6.067012704e-08 -8.672978063e-07 0)
(6.182768715e-08 -8.687580871e-07 0)
(6.308036893e-08 -8.701362534e-07 8.88580894e-13)
(6.489284852e-08 -8.709174684e-07 0)
(6.380145646e-08 -8.709487348e-07 0)
(6.346277147e-08 -8.701059556e-07 0)
(6.496277836e-08 -8.678864191e-07 0)
(6.629365545e-08 -8.647869599e-07 -8.413426331e-13)
(6.661923096e-08 -8.609817792e-07 0)
(6.644492055e-08 -8.567981209e-07 0)
(6.558384696e-08 -8.520571887e-07 0)
(6.580887169e-08 -8.468908739e-07 -8.051458111e-13)
(6.706693674e-08 -8.404026976e-07 0)
(6.760081955e-08 -8.329977059e-07 -7.875636323e-13)
(6.856542506e-08 -8.245838389e-07 0)
(6.912668311e-08 -8.153186906e-07 7.703184386e-13)
(7.091096448e-08 -8.050907847e-07 0)
(7.212349483e-08 -7.94739036e-07 -7.534049361e-13)
(7.22049855e-08 -7.829334286e-07 0)
(7.200513945e-08 -7.698161763e-07 -7.36817916e-13)
(7.217969098e-08 -7.567445463e-07 -7.286451842e-13)
(7.294997066e-08 -7.42658292e-07 0)
(7.281746335e-08 -7.280581783e-07 0)