/*--------------------------------*- C++ -*----------------------------------*\
| =========                 |                                                 |
| \\      /  F ield         | OpenFOAM: The Open Source CFD Toolbox           |
|  \\    /   O peration     | Version:  v1706                                 |
|   \\  /    A nd           | Web:      www.OpenFOAM.com                      |
|    \\/     M anipulation  |                                                 |
\*---------------------------------------------------------------------------*/
FoamFile
{
    version     2.0;
    format      ascii;
    class       volScalarField;
    location    "0.0014";
    object      Tv;
}
// * * * * * * * * * * * * * * * * * * * * * * * * * * * * * * * * * * * * * //

dimensions      [0 0 0 1 0 0 0];


internalField   nonuniform List<scalar> 
80000
(
11855.69849
11854.02987
11856.92156
11859.96202
11862.9307
11865.80057
11868.55458
11871.1774
11873.65521
11875.9758
11878.12875
11880.10546
11881.89923
11883.50528
11884.92073
11886.14451
11887.17725
11888.02118
11888.67996
11889.15848
11889.46267
11889.59932
11889.57588
11889.4002
11889.08042
11888.62475
11888.04131
11887.338
11886.5224
11885.60162
11884.58228
11883.47044
11882.27153
11880.99038
11879.63121
11878.19762
11876.69263
11875.11873
11873.47787
11871.77155
11870.00084
11868.16643
11866.26868
11864.30764
11862.28314
11860.19475
11858.04189
11855.82381
11853.53961
11851.18831
11848.76882
11846.27996
11843.7205
11841.08915
11838.38455
11835.60531
11832.75
11829.81713
11826.80521
11823.71268
11820.53799
11817.27955
11813.93575
11810.50499
11806.98566
11803.37618
11799.675
11795.88065
11791.99171
11788.00693
11783.92521
11779.74567
11775.46779
11771.09145
11766.61714
11762.04616
11757.38096
11752.62561
11747.78655
11742.87372
11737.90236
11732.89574
11727.88939
11722.93468
11718.06215
11712.58749
11694.59579
11524.76061
10429.42245
5134.133637
399.4472889
250.1007607
250.0000109
250
250
250
250
250
250
250
250
250
250
250
250
250
250
250
250
250
250
250
250
250
250
250
250
250
250
250
250
250
250
250
250
250
250
250
250
250
250
250
250
250
250
250
250
250
250
250
250
250
250
250
250
250
250
250
250
250
250
250
250
250
250
250
250
250
250
250
250
250
250
250
250
250
250
250
250
250
250
250
250
250
250
250
250
250
250
250
250
250
250
250
250
250
250
250
250
250
250
250
250
250
250
250
250
250
250
250
11861.57327
11859.90103
11862.78794
11865.8227
11868.7861
11871.65171
11874.40276
11877.02405
11879.50178
11881.82374
11883.97944
11885.9602
11887.75927
11889.37178
11890.79475
11892.02702
11893.06915
11893.92329
11894.59299
11895.08309
11895.39945
11895.54879
11895.53849
11895.37636
11895.0705
11894.62908
11894.06017
11893.37167
11892.5711
11891.66559
11890.66174
11889.56557
11888.38253
11887.11746
11885.77455
11884.35742
11882.86908
11881.31203
11879.68823
11877.99917
11876.24594
11874.42922
11872.54938
11870.60649
11868.60035
11866.53056
11864.39653
11862.1975
11859.93259
11857.60081
11855.20107
11852.73219
11850.19294
11847.58201
11844.89805
11842.13966
11839.3054
11836.39379
11833.4033
11830.33238
11827.17946
11823.94293
11820.62117
11817.21255
11813.71544
11810.12824
11806.44935
11802.67724
11798.81046
11794.84767
11790.78768
11786.62951
11782.37245
11778.01617
11773.56086
11769.00734
11764.35735
11759.61385
11754.78141
11749.86682
11744.8798
11739.83402
11734.74804
11729.6438
11724.50281
11718.56907
11699.90287
11529.85539
10438.16186
5162.519481
400.0487691
250.1017363
250.000011
250
250
250
250
250
250
250
250
250
250
250
250
250
250
250
250
250
250
250
250
250
250
250
250
250
250
250
250
250
250
250
250
250
250
250
250
250
250
250
250
250
250
250
250
250
250
250
250
250
250
250
250
250
250
250
250
250
250
250
250
250
250
250
250
250
250
250
250
250
250
250
250
250
250
250
250
250
250
250
250
250
250
250
250
250
250
250
250
250
250
250
250
250
250
250
250
250
250
250
250
250
250
250
250
250
250
250
11864.03615
11862.36253
11865.24764
11868.28059
11871.24235
11874.1066
11876.85668
11879.47743
11881.9551
11884.27748
11886.4341
11888.41627
11890.21722
11891.83205
11893.25776
11894.49318
11895.53882
11896.3968
11897.07066
11897.5652
11897.88626
11898.04053
11898.03538
11897.87859
11897.57823
11897.14247
11896.57937
11895.89681
11895.10231
11894.20298
11893.20541
11892.11564
11890.9391
11889.68062
11888.34441
11886.93407
11885.45264
11883.90259
11882.2859
11880.60407
11878.85816
11877.04889
11875.17661
11873.24139
11871.24306
11869.18119
11867.05521
11864.86436
11862.60777
11860.28443
11857.89326
11855.4331
11852.90269
11850.30075
11847.62591
11844.87679
11842.05193
11839.14986
11836.16905
11833.10796
11829.965
11826.73857
11823.42704
11820.02879
11816.54217
11812.96557
11809.29739
11805.53607
11801.68013
11797.72821
11793.67904
11789.53156
11785.28497
11780.93875
11776.49282
11771.94763
11767.30435
11762.56504
11757.73296
11752.81289
11747.81159
11742.73831
11737.60531
11732.42595
11727.1712
11721.08
11702.30874
11533.26915
10448.02325
5201.547078
400.872545
250.1030746
250.0000111
250
250
250
250
250
250
250
250
250
250
250
250
250
250
250
250
250
250
250
250
250
250
250
250
250
250
250
250
250
250
250
250
250
250
250
250
250
250
250
250
250
250
250
250
250
250
250
250
250
250
250
250
250
250
250
250
250
250
250
250
250
250
250
250
250
250
250
250
250
250
250
250
250
250
250
250
250
250
250
250
250
250
250
250
250
250
250
250
250
250
250
250
250
250
250
250
250
250
250
250
250
250
250
250
250
250
250
11865.55862
11863.88502
11866.76919
11869.80121
11872.76219
11875.62582
11878.37546
11880.99598
11883.47366
11885.79629
11887.95341
11889.93634
11891.7383
11893.35439
11894.78161
11896.01876
11897.06634
11897.92647
11898.60268
11899.09974
11899.42348
11899.58059
11899.5784
11899.42472
11899.12759
11898.69516
11898.1355
11897.45647
11896.6656
11895.76997
11894.7762
11893.6903
11892.51771
11891.26327
11889.93117
11888.52502
11887.04787
11885.50218
11883.88993
11882.21262
11880.47134
11878.66678
11876.79931
11874.86901
11872.87568
11870.81894
11868.69818
11866.51267
11864.26153
11861.94376
11859.55829
11857.10394
11854.57948
11851.98361
11849.31498
11846.57221
11843.75384
11840.8584
11837.88438
11834.83023
11831.69437
11828.47521
11825.17111
11821.78045
11818.3016
11814.73293
11811.07284
11807.31977
11803.47222
11799.52878
11795.48818
11791.34927
11787.11115
11782.77318
11778.33507
11773.79697
11769.15962
11764.42449
11759.59395
11754.67158
11749.66241
11744.57336
11739.41356
11734.19216
11728.875
11722.70144
11703.94056
11536.23154
10458.54895
5246.159175
401.8090667
250.1046175
250.0000113
250
250
250
250
250
250
250
250
250
250
250
250
250
250
250
250
250
250
250
250
250
250
250
250
250
250
250
250
250
250
250
250
250
250
250
250
250
250
250
250
250
250
250
250
250
250
250
250
250
250
250
250
250
250
250
250
250
250
250
250
250
250
250
250
250
250
250
250
250
250
250
250
250
250
250
250
250
250
250
250
250
250
250
250
250
250
250
250
250
250
250
250
250
250
250
250
250
250
250
250
250
250
250
250
250
250
250
11866.63556
11864.96272
11867.84629
11870.87771
11873.83817
11876.70141
11879.45076
11882.07113
11884.54878
11886.87154
11889.02894
11891.0123
11892.81485
11894.43169
11895.85981
11897.09801
11898.1468
11899.00827
11899.68595
11900.18461
11900.51007
11900.66901
11900.66876
11900.51711
11900.22211
11899.79189
11899.23453
11898.55788
11897.76945
11896.87636
11895.88518
11894.80194
11893.6321
11892.38046
11891.05124
11889.64805
11888.17392
11886.63134
11885.02228
11883.34824
11881.61031
11879.8092
11877.94527
11876.0186
11874.02901
11871.9761
11869.85929
11867.67784
11865.43087
11863.11739
11860.73633
11858.28652
11855.76674
11853.17568
11850.51202
11847.77435
11844.96124
11842.07123
11839.1028
11836.05441
11832.92449
11829.71145
11826.41367
11823.02953
11819.55739
11815.99564
11812.34267
11808.59691
11804.75686
11800.82108
11796.78825
11792.65719
11788.42689
11784.09661
11779.66587
11775.13459
11770.50315
11765.77252
11760.94442
11756.02145
11751.00735
11745.90718
11740.72746
11735.47362
11730.10654
11723.86623
11705.14611
11538.92946
10469.50524
5294.405198
402.8151975
250.1062953
250.0000115
250
250
250
250
250
250
250
250
250
250
250
250
250
250
250
250
250
250
250
250
250
250
250
250
250
250
250
250
250
250
250
250
250
250
250
250
250
250
250
250
250
250
250
250
250
250
250
250
250
250
250
250
250
250
250
250
250
250
250
250
250
250
250
250
250
250
250
250
250
250
250
250
250
250
250
250
250
250
250
250
250
250
250
250
250
250
250
250
250
250
250
250
250
250
250
250
250
250
250
250
250
250
250
250
250
250
250
11867.44216
11865.77063
11868.65377
11871.6847
11874.64475
11877.50764
11880.25673
11882.87692
11885.35448
11887.67725
11889.83475
11891.81832
11893.62118
11895.23845
11896.6671
11897.90593
11898.95546
11899.81778
11900.49641
11900.99611
11901.32271
11901.48287
11901.48393
11901.33366
11901.04013
11900.61144
11900.05569
11899.3807
11898.59402
11897.70272
11896.71341
11895.63211
11894.46426
11893.21468
11891.8876
11890.48661
11889.01475
11887.47452
11885.86789
11884.19636
11882.46104
11880.66261
11878.80147
11876.87768
11874.89107
11872.84125
11870.72764
11868.5495
11866.30596
11863.99605
11861.61868
11859.1727
11856.65688
11854.06994
11851.41053
11848.67729
11845.86877
11842.98351
11840.02002
11836.97675
11833.85215
11830.64463
11827.35257
11823.97436
11820.50837
11816.95297
11813.30657
11809.56758
11805.73448
11801.8058
11797.78019
11793.65639
11789.43332
11785.11009
11780.68605
11776.16085
11771.53453
11766.80757
11761.98099
11757.05645
11752.03636
11746.92394
11741.72309
11736.43557
11731.01762
11724.71159
11706.04807
11541.44528
10480.81996
5345.517282
403.873596
250.1080815
250.0000117
250
250
250
250
250
250
250
250
250
250
250
250
250
250
250
250
250
250
250
250
250
250
250
250
250
250
250
250
250
250
250
250
250
250
250
250
250
250
250
250
250
250
250
250
250
250
250
250
250
250
250
250
250
250
250
250
250
250
250
250
250
250
250
250
250
250
250
250
250
250
250
250
250
250
250
250
250
250
250
250
250
250
250
250
250
250
250
250
250
250
250
250
250
250
250
250
250
250
250
250
250
250
250
250
250
250
250
11868.06169
11866.39198
11869.27479
11872.30528
11875.26494
11878.12748
11880.87627
11883.49622
11885.9736
11888.29625
11890.4537
11892.4373
11894.24027
11895.85772
11897.28664
11898.52582
11899.57578
11900.43861
11901.11782
11901.61819
11901.94552
11902.10649
11902.10842
11901.9591
11901.66657
11901.23895
11900.68432
11900.01053
11899.22509
11898.3351
11897.34714
11896.26726
11895.1009
11893.85287
11892.52739
11891.12808
11889.65798
11888.11958
11886.51486
11884.84532
11883.11207
11881.31582
11879.45694
11877.53552
11875.55139
11873.50416
11871.39325
11869.21793
11866.97734
11864.6705
11862.29634
11859.8537
11857.34138
11854.75808
11852.10248
11849.3732
11846.56882
11843.68788
11840.72888
11837.6903
11834.57058
11831.36813
11828.08135
11824.70861
11821.2483
11817.69878
11814.05844
11810.32567
11806.49894
11802.57672
11798.55761
11794.44026
11790.22348
11785.9062
11781.48758
11776.96695
11772.34395
11767.61851
11762.79091
11757.86179
11752.8322
11747.70351
11742.47715
11737.15166
11731.67966
11725.30847
11706.71803
11543.83761
10492.48859
5399.213655
404.9773926
250.1099671
250.0000119
250
250
250
250
250
250
250
250
250
250
250
250
250
250
250
250
250
250
250
250
250
250
250
250
250
250
250
250
250
250
250
250
250
250
250
250
250
250
250
250
250
250
250
250
250
250
250
250
250
250
250
250
250
250
250
250
250
250
250
250
250
250
250
250
250
250
250
250
250
250
250
250
250
250
250
250
250
250
250
250
250
250
250
250
250
250
250
250
250
250
250
250
250
250
250
250
250
250
250
250
250
250
250
250
250
250
250
11868.54061
11866.87325
11869.75577
11872.78585
11875.74509
11878.60724
11881.35568
11883.9753
11886.45241
11888.77482
11890.93209
11892.91557
11894.71847
11896.33592
11897.76489
11899.0042
11900.05435
11900.91743
11901.59697
11902.09771
11902.42549
11902.58696
11902.58945
11902.44075
11902.14888
11901.72199
11901.16813
11900.49516
11899.7106
11898.82154
11897.83457
11896.75573
11895.59046
11894.34358
11893.01933
11891.62131
11890.15257
11888.6156
11887.0124
11885.34446
11883.6129
11881.81844
11879.96144
11878.042
11876.05996
11874.01493
11871.90635
11869.73347
11867.49546
11865.19132
11862.82
11860.38036
11857.87116
11855.29115
11852.63899
11849.91332
11847.11271
11844.23571
11841.28083
11838.24654
11835.13129
11831.9335
11828.65156
11825.28383
11821.8287
11818.2845
11814.64961
11810.92239
11807.10125
11803.18462
11799.171
11795.05894
11790.84708
11786.53418
11782.1191
11777.60085
11772.9786
11768.25169
11763.4196
11758.48197
11753.43854
11748.28901
11743.03272
11737.66569
11732.13822
11725.70514
11707.20633
11546.15014
10504.52686
5455.40379
406.1237952
250.1119498
250.0000121
250
250
250
250
250
250
250
250
250
250
250
250
250
250
250
250
250
250
250
250
250
250
250
250
250
250
250
250
250
250
250
250
250
250
250
250
250
250
250
250
250
250
250
250
250
250
250
250
250
250
250
250
250
250
250
250
250
250
250
250
250
250
250
250
250
250
250
250
250
250
250
250
250
250
250
250
250
250
250
250
250
250
250
250
250
250
250
250
250
250
250
250
250
250
250
250
250
250
250
250
250
250
250
250
250
250
250
11868.90758
11867.2431
11870.12539
11873.15504
11876.11384
11878.97556
11881.72356
11884.34278
11886.8195
11889.14157
11891.29853
11893.28175
11895.08443
11896.70171
11898.13058
11899.36983
11900.41998
11901.28312
11901.96276
11902.46367
11902.79165
11902.95339
11902.9562
11902.80785
11902.51639
11902.08995
11901.53659
11900.86416
11900.08019
11899.19176
11898.20547
11897.12737
11895.96288
11894.71686
11893.39351
11891.99647
11890.52877
11888.99292
11887.39091
11885.72426
11883.99408
11882.20107
11880.34564
11878.42788
11876.44761
11874.40448
11872.2979
11870.12716
11867.8914
11865.58966
11863.22087
11860.78389
11858.27751
11855.70045
11853.0514
11850.32899
11847.5318
11844.65837
11841.70722
11838.67683
11835.56562
11832.37202
11829.0944
11825.73114
11822.28056
11818.74101
11815.1108
11811.38827
11807.57174
11803.65958
11799.65016
11795.54189
11791.33325
11787.02274
11782.60894
11778.09047
11773.46603
11768.73433
11763.89411
11758.94408
11753.88281
11748.70864
11743.41931
11738.00909
11732.42712
11725.93777
11707.54971
11548.41423
10516.95123
5514.06124
407.3113833
250.11403
250.0000123
250
250
250
250
250
250
250
250
250
250
250
250
250
250
250
250
250
250
250
250
250
250
250
250
250
250
250
250
250
250
250
250
250
250
250
250
250
250
250
250
250
250
250
250
250
250
250
250
250
250
250
250
250
250
250
250
250
250
250
250
250
250
250
250
250
250
250
250
250
250
250
250
250
250
250
250
250
250
250
250
250
250
250
250
250
250
250
250
250
250
250
250
250
250
250
250
250
250
250
250
250
250
250
250
250
250
250
11869.1816
11867.52055
11870.40263
11873.43184
11876.39016
11879.25138
11881.99889
11884.61762
11887.09386
11889.41547
11891.57201
11893.55483
11895.35717
11896.97415
11898.40276
11899.6418
11900.69179
11901.55481
11902.23439
11902.73528
11903.06329
11903.2251
11903.22802
11903.07983
11902.78856
11902.36235
11901.80926
11901.13714
11900.35351
11899.46547
11898.47962
11897.40199
11896.23804
11894.9926
11893.6699
11892.27356
11890.80664
11889.27164
11887.67055
11886.00491
11884.27582
11882.48401
11880.62986
11878.71349
11876.73472
11874.6932
11872.58835
11870.41945
11868.18567
11865.88602
11863.51945
11861.08483
11858.58094
11856.00652
11853.36023
11850.64072
11847.84657
11844.97632
11842.02847
11839.0015
11835.89384
11832.70388
11829.42999
11826.07052
11822.62377
11819.08803
11815.46158
11811.74269
11807.92959
11804.02056
11800.01382
11795.90765
11791.70028
11787.38999
11782.97503
11778.45365
11773.82405
11769.0844
11764.23275
11759.267
11754.18481
11748.98346
11743.6596
11738.20638
11732.57267
11726.03381
11707.77481
11550.65128
10529.77234
5575.171428
408.5389913
250.1162085
250.0000126
250
250
250
250
250
250
250
250
250
250
250
250
250
250
250
250
250
250
250
250
250
250
250
250
250
250
250
250
250
250
250
250
250
250
250
250
250
250
250
250
250
250
250
250
250
250
250
250
250
250
250
250
250
250
250
250
250
250
250
250
250
250
250
250
250
250
250
250
250
250
250
250
250
250
250
250
250
250
250
250
250
250
250
250
250
250
250
250
250
250
250
250
250
250
250
250
250
250
250
250
250
250
250
250
250
250
250
11869.37593
11867.71889
11870.60077
11873.62953
11876.58733
11879.448
11882.19494
11884.81308
11887.28875
11889.60981
11891.76581
11893.74813
11895.55
11897.16655
11898.59477
11899.83347
11900.88316
11901.74593
11902.42529
11902.92601
11903.2539
11903.41561
11903.41848
11903.27026
11902.979
11902.55284
11901.99982
11901.32781
11900.54432
11899.65646
11898.67083
11897.59346
11896.42981
11895.18473
11893.86243
11892.46656
11891.00017
11889.46577
11887.86537
11886.20048
11884.47224
11882.68136
11880.82824
11878.913
11876.93546
11874.89528
11872.79187
11870.62455
11868.39244
11866.09459
11863.72994
11861.29735
11858.79562
11856.22347
11853.57958
11850.86258
11848.07104
11845.20351
11842.25847
11839.2344
11836.12969
11832.94274
11829.67188
11826.31542
11822.87163
11819.33875
11815.715
11811.99855
11808.18757
11804.28018
11800.27449
11796.16857
11791.96047
11787.64819
11783.22968
11778.70281
11774.06537
11769.31502
11764.44924
11759.46529
11754.36014
11749.13034
11743.77181
11738.27712
11732.59538
11726.01397
11707.90069
11552.8752
10542.99389
5638.711627
409.8053168
250.1184858
250.0000128
250
250
250
250
250
250
250
250
250
250
250
250
250
250
250
250
250
250
250
250
250
250
250
250
250
250
250
250
250
250
250
250
250
250
250
250
250
250
250
250
250
250
250
250
250
250
250
250
250
250
250
250
250
250
250
250
250
250
250
250
250
250
250
250
250
250
250
250
250
250
250
250
250
250
250
250
250
250
250
250
250
250
250
250
250
250
250
250
250
250
250
250
250
250
250
250
250
250
250
250
250
250
250
250
250
250
250
11869.50027
11867.84779
11870.72951
11873.75778
11876.71503
11879.57509
11882.32139
11884.93888
11887.41389
11889.73429
11891.88966
11893.87136
11895.67265
11897.28866
11898.71637
11899.95461
11901.00388
11901.86627
11902.54529
11903.04571
11903.37332
11903.5348
11903.53746
11903.38907
11903.09766
11902.67138
11902.11826
11901.44618
11900.66266
11899.77479
11898.78917
11897.71187
11896.54832
11895.30337
11893.98127
11892.58565
11891.11956
11889.58554
11887.98557
11886.32121
11884.59356
11882.80336
11880.95102
11879.03664
11877.06008
11875.02095
11872.91872
11870.75266
11868.52193
11866.22556
11863.86249
11861.4316
11858.93165
11856.36139
11853.71948
11851.00453
11848.21514
11845.34981
11842.40703
11839.38524
11836.28283
11833.09816
11829.82953
11826.4752
11823.03341
11819.50234
11815.88011
11812.16483
11808.35454
11804.44725
11800.44092
11796.33343
11792.12262
11787.80625
11783.38198
11778.84736
11774.19979
11769.43653
11764.55462
11759.55082
11754.42162
11749.1631
11743.77074
11738.23682
11732.51111
11725.89366
11707.94086
11555.09446
10556.61349
5704.645471
411.1088145
250.1208623
250.0000131
250
250
250
250
250
250
250
250
250
250
250
250
250
250
250
250
250
250
250
250
250
250
250
250
250
250
250
250
250
250
250
250
250
250
250
250
250
250
250
250
250
250
250
250
250
250
250
250
250
250
250
250
250
250
250
250
250
250
250
250
250
250
250
250
250
250
250
250
250
250
250
250
250
250
250
250
250
250
250
250
250
250
250
250
250
250
250
250
250
250
250
250
250
250
250
250
250
250
250
250
250
250
250
250
250
250
250
11869.56196
11867.91457
11870.79614
11873.82391
11876.78057
11879.63997
11882.38556
11885.00232
11887.47658
11889.79624
11891.95088
11893.93187
11895.73248
11897.34784
11898.77494
11900.01261
11901.06134
11901.92324
11902.6018
11903.10179
11903.42902
11903.59013
11903.59245
11903.44375
11903.15205
11902.72549
11902.17213
11901.49981
11900.71607
11899.82802
11898.84225
11897.76481
11896.60116
11895.35616
11894.03404
11892.63845
11891.17246
11889.63858
11888.03882
11886.37474
11884.64744
11882.85768
11881.00586
11879.09208
11877.1162
11875.07785
11872.97648
11870.81138
11868.5817
11866.28646
11863.92462
11861.49503
11858.99647
11856.42766
11853.78726
11851.07388
11848.28608
11845.42238
11842.48123
11839.46104
11836.3602
11833.177
11829.90973
11826.5566
11823.11578
11819.58537
11815.96344
11812.248
11808.43697
11804.52824
11800.51961
11796.4088
11792.19345
11787.87109
11783.43913
11778.89483
11774.23532
11769.4575
11764.55808
11759.5335
11754.3799
11749.09307
11743.66828
11738.09771
11732.33196
11725.68425
11707.90475
11557.31367
10570.62387
5772.922411
412.4477061
250.1233377
250.0000133
250
250
250
250
250
250
250
250
250
250
250
250
250
250
250
250
250
250
250
250
250
250
250
250
250
250
250
250
250
250
250
250
250
250
250
250
250
250
250
250
250
250
250
250
250
250
250
250
250
250
250
250
250
250
250
250
250
250
250
250
250
250
250
250
250
250
250
250
250
250
250
250
250
250
250
250
250
250
250
250
250
250
250
250
250
250
250
250
250
250
250
250
250
250
250
250
250
250
250
250
250
250
250
250
250
250
250
11869.56669
11867.92493
11870.80637
11873.83362
11876.78964
11879.64833
11882.39316
11885.00911
11887.48255
11889.80138
11891.9552
11893.93539
11895.73522
11897.34983
11898.77622
11900.01321
11901.06131
11901.9226
11902.6006
11903.10006
11903.42677
11903.58741
11903.58926
11903.44011
11903.14799
11902.72101
11902.16725
11901.49455
11900.71044
11899.82203
11898.83592
11897.75817
11896.59424
11895.34898
11894.02664
11892.63087
11891.16475
11889.63079
11888.03101
11886.36696
11884.63977
11882.85018
11880.99859
11879.08513
11877.10964
11875.07177
11872.97094
11870.80646
11868.57747
11866.283
11863.92198
11861.49327
11858.99564
11856.4278
11853.78841
11851.07604
11848.28926
11845.42655
11842.48634
11839.46702
11836.36694
11833.18437
11829.91753
11826.56458
11823.12364
11819.59275
11815.96989
11812.25295
11808.43977
11804.52811
11800.51563
11796.39988
11792.17834
11787.84833
11783.40705
11778.85155
11774.1787
11769.38517
11764.46741
11759.42165
11754.24381
11748.92952
11743.47394
11737.86929
11732.06708
11725.39407
11707.79896
11559.53471
10585.01411
5843.479395
413.820022
250.1259112
250.0000136
250
250
250
250
250
250
250
250
250
250
250
250
250
250
250
250
250
250
250
250
250
250
250
250
250
250
250
250
250
250
250
250
250
250
250
250
250
250
250
250
250
250
250
250
250
250
250
250
250
250
250
250
250
250
250
250
250
250
250
250
250
250
250
250
250
250
250
250
250
250
250
250
250
250
250
250
250
250
250
250
250
250
250
250
250
250
250
250
250
250
250
250
250
250
250
250
250
250
250
250
250
250
250
250
250
250
250
11869.51902
11867.8834
11870.76472
11873.79143
11876.74678
11879.60472
11882.34872
11884.9638
11887.43634
11889.75427
11891.90718
11893.88648
11895.68544
11897.29921
11898.7248
11899.96102
11901.00838
11901.86898
11902.5463
11903.04512
11903.37121
11903.53125
11903.53252
11903.38281
11903.09012
11902.6626
11902.10829
11901.43505
11900.65041
11899.76148
11898.77486
11897.69661
11896.5322
11895.28649
11893.96372
11892.56756
11891.10108
11889.5668
11887.96675
11886.30249
11884.57514
11882.78544
11880.93381
11879.02036
11877.04495
11875.00721
11872.90659
11870.74236
11868.51367
11866.21955
11863.85893
11861.43064
11858.93345
11856.36606
11853.7271
11851.01516
11848.22875
11845.36634
11842.42634
11839.40711
11836.30695
11833.12409
11829.85672
11826.50294
11823.06079
11819.52825
11815.90322
11812.1835
11808.36683
11804.45084
11800.43307
11796.31094
11792.08176
11787.7427
11783.29079
11778.72289
11774.03569
11769.22569
11764.28918
11759.22221
11754.02061
11748.67992
11743.19525
11737.55892
11731.72339
11725.02924
11707.62804
11561.75764
10599.77067
5916.24286
415.2236511
250.1285818
250.0000139
250
250
250
250
250
250
250
250
250
250
250
250
250
250
250
250
250
250
250
250
250
250
250
250
250
250
250
250
250
250
250
250
250
250
250
250
250
250
250
250
250
250
250
250
250
250
250
250
250
250
250
250
250
250
250
250
250
250
250
250
250
250
250
250
250
250
250
250
250
250
250
250
250
250
250
250
250
250
250
250
250
250
250
250
250
250
250
250
250
250
250
250
250
250
250
250
250
250
250
250
250
250
250
250
250
250
250
11869.4227
11867.79368
11870.6749
11873.70105
11876.6557
11879.51283
11882.25596
11884.8701
11887.34168
11889.65862
11891.81054
11893.78887
11895.58688
11897.19972
11898.62442
11899.85977
11900.90631
11901.7661
11902.44266
11902.94073
11903.2661
11903.42542
11903.426
11903.27559
11902.98221
11902.554
11901.99901
11901.32508
11900.53975
11899.65012
11898.66282
11897.58389
11896.4188
11895.17243
11893.84903
11892.45225
11890.98517
11889.45033
11887.84976
11886.18501
11884.45721
11882.66712
11880.81513
11878.90138
11876.9257
11874.88774
11872.78694
11870.62256
11868.39376
11866.09955
11863.73884
11861.31047
11858.81319
11856.24568
11853.60657
11850.8944
11848.10768
11845.24485
11842.3043
11839.28433
11836.18322
11832.99916
11829.73028
11826.37463
11822.93019
11819.39486
11815.76648
11812.04275
11808.22133
11804.29973
11800.27539
11796.14561
11791.90757
11787.5583
11783.0947
11778.5135
11773.81125
11768.98433
11764.02891
11758.94097
11753.71624
11748.35025
11742.83812
11737.17223
11731.30606
11724.59422
11707.39508
11563.98113
10614.87801
5991.130168
416.6563847
250.1313481
250.0000142
250
250
250
250
250
250
250
250
250
250
250
250
250
250
250
250
250
250
250
250
250
250
250
250
250
250
250
250
250
250
250
250
250
250
250
250
250
250
250
250
250
250
250
250
250
250
250
250
250
250
250
250
250
250
250
250
250
250
250
250
250
250
250
250
250
250
250
250
250
250
250
250
250
250
250
250
250
250
250
250
250
250
250
250
250
250
250
250
250
250
250
250
250
250
250
250
250
250
250
250
250
250
250
250
250
250
250
11869.28081
11867.65886
11870.53999
11873.56556
11876.51947
11879.37576
11882.11795
11884.73111
11887.20165
11889.51753
11891.66839
11893.64567
11895.44264
11897.05447
11898.47818
11899.71258
11900.75819
11901.61709
11902.29278
11902.79
11903.11454
11903.27304
11903.2728
11903.12157
11902.82738
11902.39834
11901.84251
11901.16773
11900.38155
11899.49106
11898.50288
11897.42308
11896.25712
11895.00987
11893.6856
11892.28797
11890.82005
11889.28439
11887.68302
11886.0175
11884.28896
11882.49815
11880.64548
11878.73107
11876.75476
11874.71619
11872.6148
11870.44985
11868.22048
11865.92569
11863.5644
11861.13541
11858.63748
11856.06925
11853.42934
11850.71628
11847.92854
11845.06454
11842.12262
11839.10108
11835.99813
11832.81194
11829.54057
11826.18203
11822.73424
11819.19504
11815.56217
11811.83329
11808.00595
11804.0776
11800.04555
11795.90701
11791.65907
11787.29865
11782.82254
11778.22737
11773.5096
11768.66553
11763.69124
11758.58267
11753.33552
11747.9453
11742.40715
11736.71355
11730.81896
11724.09226
11707.10215
11566.20294
10630.31918
6068.051485
418.1159516
250.1342086
250.0000145
250
250
250
250
250
250
250
250
250
250
250
250
250
250
250
250
250
250
250
250
250
250
250
250
250
250
250
250
250
250
250
250
250
250
250
250
250
250
250
250
250
250
250
250
250
250
250
250
250
250
250
250
250
250
250
250
250
250
250
250
250
250
250
250
250
250
250
250
250
250
250
250
250
250
250
250
250
250
250
250
250
250
250
250
250
250
250
250
250
250
250
250
250
250
250
250
250
250
250
250
250
250
250
250
250
250
250
11869.09601
11867.48152
11870.36257
11873.38755
11876.34071
11879.1961
11881.93732
11884.54942
11887.01886
11889.33362
11891.48335
11893.45949
11895.25534
11896.86608
11898.28872
11899.52208
11900.56667
11901.42458
11902.0993
11902.59557
11902.91916
11903.07673
11903.07555
11902.92337
11902.62822
11902.19821
11901.64139
11900.96561
11900.1784
11899.28687
11898.29763
11897.21674
11896.0497
11894.80135
11893.47598
11892.07723
11890.60822
11889.07146
11887.469
11885.8024
11884.07279
11882.28093
11880.42722
11878.51178
11876.53445
11874.49486
11872.39244
11870.22646
11867.99603
11865.70016
11863.33774
11860.90757
11858.40838
11855.83881
11853.19743
11850.48277
11847.69327
11844.82732
11841.88323
11838.85927
11835.7536
11832.56434
11829.28952
11825.9271
11822.47495
11818.93083
11815.29243
11811.55734
11807.72303
11803.78688
11799.74612
11795.59789
11791.33917
11786.96683
11782.47757
11777.86794
11773.13434
11768.27301
11763.28
11758.1512
11752.88231
11747.46883
11741.90592
11736.18617
11730.265
11723.52574
11706.75057
11568.42016
10646.07627
6146.910807
419.6000504
250.1371612
250.0000148
250
250
250
250
250
250
250
250
250
250
250
250
250
250
250
250
250
250
250
250
250
250
250
250
250
250
250
250
250
250
250
250
250
250
250
250
250
250
250
250
250
250
250
250
250
250
250
250
250
250
250
250
250
250
250
250
250
250
250
250
250
250
250
250
250
250
250
250
250
250
250
250
250
250
250
250
250
250
250
250
250
250
250
250
250
250
250
250
250
250
250
250
250
250
250
250
250
250
250
250
250
250
250
250
250
250
250
11868.87056
11867.26391
11870.1449
11873.16927
11876.12163
11878.97611
11881.71629
11884.32729
11886.79557
11889.10914
11891.25766
11893.23259
11895.02725
11896.6368
11898.05828
11899.29051
11900.334
11901.19082
11901.86446
11902.35967
11902.68221
11902.83871
11902.83647
11902.68321
11902.38697
11901.95583
11901.39787
11900.72091
11899.93249
11899.03972
11898.04921
11896.96704
11895.79867
11894.54899
11893.22226
11891.82214
11890.35174
11888.8136
11887.20974
11885.54173
11883.81072
11882.01744
11880.16231
11878.24543
11876.26666
11874.22561
11872.1217
11869.9542
11867.7222
11865.42471
11863.06059
11860.62864
11858.12756
11855.55599
11852.91246
11850.19548
11847.40347
11844.53478
11841.58771
11838.56046
11835.45119
11832.25796
11828.97877
11825.61151
11822.15401
11818.604
11814.95909
11811.21681
11807.37458
11803.4297
11799.37937
11795.22062
11790.95041
11786.56551
11782.06259
11777.43813
11772.68851
11767.8099
11762.79835
11757.64971
11752.3597
11746.92381
11741.33722
11735.5926
11729.64634
11722.89638
11706.34114
11570.62941
10662.13064
6227.607253
421.106374
250.1402038
250.0000152
250
250
250
250
250
250
250
250
250
250
250
250
250
250
250
250
250
250
250
250
250
250
250
250
250
250
250
250
250
250
250
250
250
250
250
250
250
250
250
250
250
250
250
250
250
250
250
250
250
250
250
250
250
250
250
250
250
250
250
250
250
250
250
250
250
250
250
250
250
250
250
250
250
250
250
250
250
250
250
250
250
250
250
250
250
250
250
250
250
250
250
250
250
250
250
250
250
250
250
250
250
250
250
250
250
250
250
11868.60645
11867.00798