/*--------------------------------*- C++ -*----------------------------------*\
| =========                 |                                                 |
| \\      /  F ield         | OpenFOAM: The Open Source CFD Toolbox           |
|  \\    /   O peration     | Version:  v1706                                 |
|   \\  /    A nd           | Web:      www.OpenFOAM.com                      |
|    \\/     M anipulation  |                                                 |
\*---------------------------------------------------------------------------*/
FoamFile
{
    version     2.0;
    format      ascii;
    class       volScalarField;
    location    "8";
    object      dsmcRhoNMean_N2;
}
// * * * * * * * * * * * * * * * * * * * * * * * * * * * * * * * * * * * * * //

dimensions      [0 -3 0 0 0 0 0];


internalField   nonuniform List<scalar> 
500
(
89.976354
89.928018
89.989376
89.96415
89.959928
89.362182
89.390632
89.362768
89.396486
89.378756
88.895088
88.88293
88.888704
88.856526
88.88395
88.440114
88.427076
88.495434
88.451748
88.446564
88.036366
88.002248
88.018842
88.062404
88.01737
87.643884
87.614218
87.616654
87.624228
87.612146
87.219618
87.25161
87.231774
87.257034
87.23302
86.85969
86.868916
86.877664
86.869236
86.867108
86.48036
86.462118
86.474044
86.46052
86.493718
86.120506
86.101566
86.10205
86.085568
86.121486
85.715936
85.74223
85.747094
85.728604
85.728462
85.40497
85.376206
85.385898
85.342832
85.368208
85.025732
85.019172
85.010362
85.043382
85.007404
84.673204
84.672288
84.673188
84.681448
84.67056
84.33095
84.32992
84.346766
84.319798
84.34049
84.006268
84.003682
83.97857
83.99544
84.012138
83.66001
83.651398
83.662156
83.663374
83.65803
83.334444
83.339632
83.30686
83.326962
83.3517
83.036082
82.995626
82.988554
83.024608
82.998656
82.701662
82.700276
82.690706
82.67329
82.66579
82.355584
82.349332
82.385908
82.336454
82.331928
82.040454
82.046248
82.085154
82.0596
82.041376
81.725426
81.714776
81.75162
81.72854
81.744426
81.443482
81.410914
81.451014
81.446868
81.421612
81.124366
81.12269
81.137538
81.118074
81.123574
80.861994
80.85959
80.858928
80.829482
80.819974
80.546082
80.566728
80.555258
80.51638
80.53667
80.239162
80.261808
80.238528
80.244222
80.257168
79.953006
79.921388
79.942772
79.95465
79.97616
79.675992
79.661908
79.654972
79.693314
79.636996
79.365248
79.365128
79.41627
79.391544
79.388862
79.103374
79.098252
79.116816
79.100716
79.110478
78.82241
78.809852
78.82833
78.82665
78.845586
78.555676
78.567514
78.557734
78.547848
78.569922
78.279476
78.265428
78.280796
78.279644
78.29132
77.98991
77.979542
77.996436
78.005446
78.012866
77.747636
77.739886
77.7139
77.724762
77.711268
77.45634
77.448396
77.451096
77.45824
77.47168
77.218772
77.183014
77.199276
77.17439
77.201732
76.931212
76.93412
76.928018
76.906472
76.930166
76.676852
76.694292
76.668988
76.66435
76.678114
76.428148
76.406712
76.430188
76.448408
76.432312
76.160138
76.185318
76.173066
76.173256
76.171134
75.924114
75.930264
75.930332
75.920282
75.909656
75.689302
75.701784
75.662386
75.69658
75.691384
75.445808
75.444042
75.417332
75.426822
75.466106
75.190182
75.213424
75.184482
75.197598
75.214402
74.931684
74.944424
74.9382
74.955536
74.933292
74.689862
74.71298
74.728542
74.713992
74.706886
74.485694
74.463118
74.454118
74.477958
74.46453
74.243294
74.224314
74.20365
74.236032
74.2366
73.993632
74.014876
73.988278
73.997704
73.97528
73.737046
73.758568
73.748824
73.784386
73.771036
73.536826
73.57185
73.554418
73.54979
73.548822
73.31929
73.330056
73.332108
73.315602
73.317138
73.087808
73.106706
73.09668
73.083028
73.080222
72.856268
72.870258
72.861908
72.890818
72.891854
72.636112
72.637514
72.649904
72.646802
72.632028
72.426016
72.433914
72.424826
72.405112
72.402356
72.206494
72.229028
72.196976
72.208316
72.218444
71.985602
72.01182
71.984768
71.989538
71.995116
71.768508
71.790842
71.802166
71.800306
71.783646
71.569396
71.572752
71.578592
71.575902
71.566728
71.36168
71.337298
71.353052
71.360824
71.356304
71.17578
71.15553
71.14606
71.163392
71.153744
70.96743
70.967244
70.917158
70.940654
70.95949
70.741272
70.763762
70.743686
70.740578
70.733534
70.543146
70.554234
70.57393
70.564552
70.548276
70.350562
70.337452
70.358054
70.38003
70.377046
70.15595
70.140096
70.174112
70.14897
70.160394
69.94169
69.953662
69.959748
69.968318
69.952342
69.74607
69.779662
69.75383
69.769716
69.78969
69.5554
69.559356
69.580334
69.587986
69.558096
69.357884
69.38882
69.354562
69.387098
69.382894
69.191502
69.167324
69.165918
69.209362
69.182886
69.00464
69.015298
68.983226
68.977152
69.01309
68.810852
68.837162
68.815558
68.830922
68.812704
68.6119
68.649362
68.613444
68.61733
68.617698
68.47167
68.447488
68.448496
68.442596
68.452606
68.262892
68.264246
68.245294
68.252826
68.243504
68.075828
68.067506
68.042488
68.059492
68.067804
67.875542
67.88063
67.894096
67.89867
67.88289
67.686474
67.699162
67.703432
67.704644
67.696676
67.507716
67.52554
67.512598
67.52497
67.502386
67.340606
67.338446
67.34865
67.310844
67.33371
67.173148
67.177
67.182788
67.153452
67.181908
67.001152
66.985948
66.971722
66.973234
66.98545
66.78826
66.828832
66.79385
66.81976
66.7729
66.639416
66.640404
66.628362
66.655418
66.593544
66.457066
66.45072
66.442672
66.444746
66.451104
66.284704
66.255926
66.26065
66.279186
66.285
66.094834
66.074818
66.084374
66.117912
66.096492
65.893122
65.920696
65.918288
65.911698
65.916922
65.73357
65.751082
65.741612
65.730032
65.742824
65.567122
65.570148
65.583876
65.577766
65.57796
65.392816
65.380354
65.39963
65.397118
65.405052
65.177724
65.195172
65.1802
65.176402
65.20722
64.983264
64.985764
64.97181
64.999022
64.996796
64.739104
64.771296
64.770254
64.766384
64.79862
64.48644
64.520526
64.519642
64.512976
64.504586
)
;

boundaryField
{
    upperWall
    {
        type            calculated;
        value           uniform 0;
    }
    lowerWall
    {
        type            calculated;
        value           uniform 0;
    }
    periodicX_half0
    {
        type            cyclic;
    }
    periodicX_half1
    {
        type            cyclic;
    }
    frontAndBack
    {
        type            empty;
    }
}


// ************************************************************************* //
