/*--------------------------------*- C++ -*----------------------------------*\
| =========                 |                                                 |
| \\      /  F ield         | OpenFOAM: The Open Source CFD Toolbox           |
|  \\    /   O peration     | Version:  v1706                                 |
|   \\  /    A nd           | Web:      www.OpenFOAM.com                      |
|    \\/     M anipulation  |                                                 |
\*---------------------------------------------------------------------------*/
FoamFile
{
    version     2.0;
    format      ascii;
    class       volScalarField;
    location    "8";
    object      dsmcRhoNMean_mixture;
}
// * * * * * * * * * * * * * * * * * * * * * * * * * * * * * * * * * * * * * //

dimensions      [0 -3 0 0 0 0 0];


internalField   nonuniform List<scalar> 
500
(
113.97459
113.913934
113.98064
113.95823
113.96199
113.199936
113.243308
113.186176
113.24167
113.209708
112.599336
112.58929
112.598432
112.574624
112.577506
112.029972
111.9943
112.07326
112.032622
112.03021
111.50788
111.465548
111.476372
111.5368
111.48618
111.003144
110.958412
110.972732
110.976434
110.972308
110.481286
110.51331
110.472706
110.511506
110.47123
110.004066
110.020086
110.02302
110.016224
110.016476
109.524792
109.504466
109.50848
109.510174
109.543382
109.059306
109.036834
109.031292
109.028874
109.0742
108.559418
108.581636
108.586618
108.567746
108.574066
108.15925
108.115868
108.135518
108.090018
108.10817
107.692562
107.671316
107.663466
107.702682
107.659912
107.22627
107.248704
107.232754
107.243196
107.22266
106.796576
106.801262
106.811622
106.775804
106.8087
106.381812
106.36651
106.35533
106.35825
106.375988
105.93736
105.944518
105.94618
105.948252
105.944892
105.529924
105.544018
105.506878
105.514668
105.553194
105.137062
105.103354
105.093858
105.127244
105.10312
104.724608
104.727078
104.706968
104.697014
104.68313
104.286
104.277202
104.325358
104.272798
104.271704
103.884858
103.887618
103.928138
103.891016
103.87892
103.483296
103.47447
103.511402
103.48208
103.487974
103.119652
103.095236
103.130994
103.123896
103.087608
102.72108
102.70975
102.740862
102.7085
102.721452
102.35892
102.356882
102.36023
102.321392
102.32796
101.972152
101.984322
101.971902
101.941528
101.957768
101.5853
101.60181
101.576426
101.58004
101.59965
101.222302
101.188582
101.186428
101.22169
101.253758
100.86818
100.849858
100.831612
100.891368
100.82978
100.47377
100.47404
100.527818
100.497712
100.515948
100.145954
100.141822
100.167606
100.130504
100.144834
99.775834
99.762686
99.789336
99.775948
99.817356
99.441932
99.441684
99.441968
99.425648
99.46026
99.070598
99.064976
99.09329
99.091414
99.105482
98.724884
98.724838
98.723502
98.7465
98.757448
98.416676
98.415954
98.376668
98.39392
98.39237
98.041456
98.034536
98.055802
98.05368
98.062212
97.743124
97.705496
97.719462
97.705198
97.728088
97.389876
97.393884
97.390864
97.365208
97.394182
97.06454
97.069118
97.04916
97.03971
97.065082
96.727876
96.709312
96.742188
96.749178
96.73203
96.41032
96.424944
96.41392
96.406296
96.409222
96.107054
96.104098
96.098628
96.080422
96.074156
95.79356
95.808516
95.770628
95.801892
95.794788
95.480646
95.476882
95.456076
95.460916
95.506004
95.1557
95.189886
95.152612
95.171518
95.184436
94.840156
94.846592
94.84392
94.864428
94.831794
94.536952
94.566834
94.578664
94.546554
94.563464
94.276286
94.241896
94.23335
94.26324
94.249886
93.96007
93.954932
93.922988
93.960436
93.948418
93.653508
93.66575
93.655046
93.659022
93.639786
93.337584
93.360896
93.347216
93.377486
93.366996
93.074686
93.118616
93.083654
93.071488
93.084654
92.783414
92.794578
92.799456
92.789892
92.78684
92.504906
92.502064
92.496788
92.492838
92.495578
92.205918
92.220956
92.213796
92.233742
92.25441
91.927714
91.923328
91.942906
91.938786
91.928326
91.657886
91.672178
91.65873
91.639804
91.631278
91.378326
91.407016
91.356936
91.364842
91.394124
91.096424
91.133096
91.109152
91.1101
91.105494
90.8278
90.848274
90.872034
90.86638
90.853394
90.572528
90.578956
90.580028
90.572858
90.5658
90.29997
90.28046
90.291474
90.29964
90.3035
90.06636
90.057728
90.025758
90.05172
90.04171
89.806182
89.794974
89.74541
89.78156
89.785302
89.510138
89.540864
89.52408
89.522546
89.514702
89.260402
89.27441
89.30743
89.279926
89.274922
89.014608
89.007512
89.031392
89.056764
89.055642
88.780468
88.761484
88.788296
88.77204
88.777222
88.51711
88.52111
88.5257
88.534218
88.52596
88.258576
88.299692
88.260016
88.29623
88.31121
88.022924
88.022256
88.050886
88.059554
88.035692
87.769722
87.807606
87.77874
87.80833
87.809738
87.54177
87.526224
87.530278
87.586236
87.545802
87.304682
87.312076
87.291148
87.291016
87.332114
87.071228
87.091104
87.06439
87.073708
87.075704
86.819732
86.849318
86.81338
86.825468
86.829862
86.621896
86.604502
86.605806
86.59555
86.614314
86.36652
86.374974
86.361826
86.374282
86.361054
86.128504
86.118172
86.107852
86.120136
86.138
85.888644
85.881302
85.917654
85.903158
85.881572
85.641718
85.659766
85.653788
85.655318
85.655972
85.406586
85.433382
85.411716
85.43512
85.40799
85.21744
85.199366
85.221298
85.17599
85.192098
84.987868
84.988724
84.986188
84.969938
84.992442
84.763412
84.740502
84.74221
84.734886
84.744328
84.508126
84.55177
84.52058
84.534876
84.4783
84.31467
84.325224
84.315288
84.329302
84.26365
84.089248
84.078686
84.073534
84.07177
84.066864
83.874262
83.83657
83.841424
83.853584
83.862124
83.622722
83.61647
83.617652
83.648458
83.623774
83.388834
83.411412
83.393126
83.388224
83.399626
83.167084
83.185918
83.171426
83.158392
83.174792
82.947244
82.954108
82.960218
82.966818
82.961512
82.72772
82.713984
82.732008
82.731794
82.738676
82.45236
82.474452
82.466102
82.455412
82.48666
82.214326
82.209352
82.20166
82.219984
82.22703
81.926694
81.945264
81.951252
81.94111
81.98242
81.599924
81.629516
81.621576
81.63227
81.611476
)
;

boundaryField
{
    upperWall
    {
        type            calculated;
        value           uniform 0;
    }
    lowerWall
    {
        type            calculated;
        value           uniform 0;
    }
    periodicX_half0
    {
        type            cyclic;
    }
    periodicX_half1
    {
        type            cyclic;
    }
    frontAndBack
    {
        type            empty;
    }
}


// ************************************************************************* //
