/*--------------------------------*- C++ -*----------------------------------*\
| =========                 |                                                 |
| \\      /  F ield         | OpenFOAM: The Open Source CFD Toolbox           |
|  \\    /   O peration     | Version:  v1706                                 |
|   \\  /    A nd           | Web:      www.OpenFOAM.com                      |
|    \\/     M anipulation  |                                                 |
\*---------------------------------------------------------------------------*/
FoamFile
{
    version     2.0;
    format      ascii;
    class       volScalarField;
    location    "8";
    object      mctTimeStepRatio_O2;
}
// * * * * * * * * * * * * * * * * * * * * * * * * * * * * * * * * * * * * * //

dimensions      [0 0 0 0 0 0 0];


internalField   nonuniform List<scalar> 
500
(
19.44413612
19.45607371
19.45053229
19.44970468
19.44288392
19.54497904
19.53212318
19.55767337
19.53672907
19.55005311
19.62805678
19.62448698
19.62181245
19.6155094
19.63862281
19.69889215
19.71747892
19.70890595
19.70321919
19.70352585
19.77507351
19.78205516
19.78567526
19.770653
19.77634576
19.84919144
19.85908928
19.84711477
19.85262277
19.84652079
19.90775087
19.90814352
19.92452421
19.91298886
19.92635384
19.98940962
19.9822842
19.98681751
19.98480131
19.98264835
20.05591831
20.05496163
20.06298478
20.04989848
20.05155698
20.12432409
20.12707453
20.13329339
20.12003342
20.11454936
20.18646836
20.19229044
20.19243366
20.19276201
20.18821792
20.24712256
20.26153183
20.25140235
20.25481014
20.26112321
20.30597237
20.32098734
20.32045764
20.31321229
20.31946685
20.39160206
20.37342682
20.38326376
20.38168346
20.39001539
20.4494783
20.44407265
20.44877136
20.45748025
20.44752036
20.51321615
20.52515097
20.5113806
20.52543908
20.52291001
20.58305803
20.56949811
20.57763425
20.57897531
20.5742451
20.64212694
20.63120962
20.63647894
20.64686232
20.63609472
20.70690504
20.70246869
20.70438919
20.70595148
20.70561215
20.76299778
20.76099295
20.76969186
20.76447377
20.77066382
20.83482683
20.83611855
20.8244594
20.82844571
20.82311639
20.89686315
20.89967777
20.89879313
20.90873677
20.90365519
20.96121934
20.96031556
20.96101842
20.96572239
20.97617777
21.02191296
21.01505272
21.01870991
21.02087293
21.03057268
21.07872867
21.09040964
21.07515226
21.08610563
21.08113438
21.15896811
21.1596717
21.15349413
21.16514994
21.15172995
21.20909112
21.21936302
21.21885794
21.21433638
21.21756939
21.27186265
21.279987
21.27949833
21.28339907
21.27714652
21.33241798
21.33552038
21.35749833
21.33367557
21.32403783
21.39415447
21.39758138
21.40768442
21.38465651
21.39024983
21.4584066
21.45911874
21.4570574
21.4623539
21.43988615
21.50959111
21.5090112
21.50014984
21.52376287
21.51792026
21.58210044
21.58260131
21.57617337
21.58577041
21.56227998
21.6363007
21.64471198
21.63668821
21.64434631
21.6279284
21.71394938
21.70482269
21.69265227
21.69505306
21.69398818
21.75791273
21.74718382
21.76747342
21.75422214
21.74802955
21.81045864
21.80393723
21.81639644
21.80818641
21.79563642
21.8820129
21.87828873
21.85911942
21.87210119
21.87640335
21.93163012
21.92928271
21.93266485
21.92194122
21.92866465
21.98089072
21.97935455
21.97905507
21.98394104
21.9786942
22.04238579
22.05863778
22.05088385
22.05398069
22.04321267
22.12129704
22.11481561
22.1038389
22.11787653
22.12244066
22.16145468
22.1706746
22.16722206
22.17463909
22.1712559
22.21492513
22.2264687
22.23316692
22.24045219
22.23542878
22.28465954
22.28277542
22.28042036
22.28147966
22.28842382
22.34662634
22.34809834
22.34386047
22.34619523
22.33908078
22.40531996
22.39293056
22.40321338
22.39591771
22.39992413
22.45362961
22.45960246
22.45937478
22.45206617
22.46702801
22.50737417
22.49933326
22.50376809
22.52336811
22.49653074
22.55835594
22.56947138
22.56787031
22.5611125
22.55909333
22.62251931
22.60537669
22.62140906
22.6134353
22.62760917
22.67061868
22.68153661
22.6620603
22.66821826
22.66472569
22.7221375
22.72282144
22.72293355
22.73346058
22.72565762
22.7770108
22.76835408
22.78683484
22.79690725
22.78178656
22.84899688
22.84855485
22.84553141
22.83304236
22.8429867
22.88952919
22.91061562
22.90827033
22.89296357
22.89031436
22.95054772
22.94763141
22.94794125
22.95773437
22.935715
23.00508773
23.0080884
23.00105033
23.00207417
22.99974831
23.05823945
23.05401655
23.05915557
23.05588052
23.06530386
23.11721798
23.1103756
23.13236518
23.13770081
23.11337919
23.17296987
23.16497448
23.16040067
23.16214582
23.17403208
23.21987082
23.22547663
23.2081389
23.21284209
23.21009162
23.27182053
23.26980467
23.27477181
23.2828357
23.2775844
23.33872839
23.33472279
23.33671302
23.33704813
23.32674732
23.37866085
23.36934709
23.39610334
23.38492434
23.38386962
23.43076375
23.4415062
23.44554115
23.43048829
23.44270013
23.5006205
23.48942046
23.48921561
23.48571613
23.48546248
23.55186116
23.54767747
23.53057785
23.55213611
23.54184354
23.60478356
23.59638813
23.59511111
23.58639467
23.58706702
23.63774121
23.64090333
23.65273484
23.63601087
23.64770344
23.68699669
23.69478693
23.69936145
23.69882125
23.68655355
23.7484601
23.73991078
23.75912657
23.7304079
23.73937094
23.79201056
23.79997375
23.78695261
23.78629542
23.78042359
23.85003002
23.8411324
23.83716896
23.83645412
23.83092957
23.91488106
23.90335097
23.89706531
23.87963298
23.8997712
23.96334784
23.96588455
23.95396404
23.94752677
23.93816235
23.99925658
24.0083637
24.01940403
24.02330121
24.00063772
24.05367317
24.06498507
24.06403865
24.05368347
24.0497467
24.1190165
24.10767258
24.10522548
24.11241355
24.10028779
24.16162817
24.1539551
24.14325014
24.14108399
24.14544972
24.21583233
24.21914857
24.19669675
24.20462525
24.19437569
24.25461285
24.27156036
24.24286165
24.26518099
24.27197475
24.31627912
24.30985807
24.32304152
24.32213726
24.31114672
24.37658725
24.36548926
24.37635857
24.3630149
24.36511437
24.39162454
24.40976612
24.39801568
24.40967814
24.41762231
24.46322046
24.46811269
24.47741922
24.45850739
24.47026593
24.52119162
24.52883716
24.50897127
24.51854574
24.52031994
24.56301803
24.55886456
24.55384044
24.56851851
24.58226367
24.61021414
24.59514593
24.59347237
24.61099152
24.61251552
24.65553251
24.66095436
24.65591452
24.65923105
24.67739548
24.6971805
24.70638346
24.71076923
24.71552994
24.71465333
24.7688758
24.75056976
24.75954534
24.76627853
24.77027645
24.79552146
24.80850468
24.82637974
24.82333913
24.81485135
24.87048963
24.86649111
24.87383945
24.87485031
24.87500301
24.93305337
24.92719669
24.93553954
24.91849487
24.92744164
24.97615387
24.98070197
24.98179922
24.98177051
24.98326898
25.04522152
25.0423012
25.03197471
25.04208332
25.0423354
25.09299013
25.10215859
25.09295344
25.10463599
25.09290646
25.13484569
25.15523207
25.14322287
25.15409443
25.14067423
25.21741067
25.22712378
25.2366981
25.21194489
25.22713291
)
;

boundaryField
{
    upperWall
    {
        type            calculated;
        value           nonuniform List<scalar> 5(25.21741067 25.22712378 25.2366981 25.21194489 25.22713291);
    }
    lowerWall
    {
        type            calculated;
        value           nonuniform List<scalar> 5(19.44413612 19.45607371 19.45053229 19.44970468 19.44288392);
    }
    periodicX_half0
    {
        type            cyclic;
    }
    periodicX_half1
    {
        type            cyclic;
    }
    frontAndBack
    {
        type            empty;
    }
}


// ************************************************************************* //
