/*--------------------------------*- C++ -*----------------------------------*\
| =========                 |                                                 |
| \\      /  F ield         | OpenFOAM: The Open Source CFD Toolbox           |
|  \\    /   O peration     | Version:  v1706                                 |
|   \\  /    A nd           | Web:      www.OpenFOAM.com                      |
|    \\/     M anipulation  |                                                 |
\*---------------------------------------------------------------------------*/
FoamFile
{
    version     2.0;
    format      ascii;
    class       volScalarField;
    location    "8";
    object      meanCollisionTime_mixture;
}
// * * * * * * * * * * * * * * * * * * * * * * * * * * * * * * * * * * * * * //

dimensions      [0 0 1 0 0 0 0];


internalField   nonuniform List<scalar> 
500
(
3.557699681e-05
3.559526926e-05
3.557405548e-05
3.558035449e-05
3.558152586e-05
3.575807466e-05
3.574461655e-05
3.575830716e-05
3.574124928e-05
3.575272232e-05
3.589009127e-05
3.589354221e-05
3.589043794e-05
3.589788273e-05
3.589918119e-05
3.602303058e-05
3.603514765e-05
3.600985536e-05
3.602231974e-05
3.602371857e-05
3.614752485e-05
3.615844012e-05
3.615368789e-05
3.613716523e-05
3.615351546e-05
3.626428483e-05
3.627958028e-05
3.62723976e-05
3.627310222e-05
3.627565594e-05
3.639281758e-05
3.638257822e-05
3.63943632e-05
3.638250069e-05
3.63946551e-05
3.65061026e-05
3.65004809e-05
3.64999013e-05
3.650243998e-05
3.650281724e-05
3.662569494e-05
3.662972251e-05
3.662923728e-05
3.662658333e-05
3.662219495e-05
3.673615937e-05
3.674547887e-05
3.674616575e-05
3.674908459e-05
3.673633001e-05
3.68660157e-05
3.685891346e-05
3.685534137e-05
3.686340528e-05
3.6861584e-05
3.696174414e-05
3.697713511e-05
3.696809841e-05
3.698562603e-05
3.697839673e-05
3.708305499e-05
3.708911029e-05
3.709287255e-05
3.707808901e-05
3.709264482e-05
3.720437337e-05
3.71986845e-05
3.720029878e-05
3.719557126e-05
3.720247463e-05
3.731249492e-05
3.731288902e-05
3.730812913e-05
3.731953779e-05
3.731002714e-05
3.742069144e-05
3.74258857e-05
3.742920432e-05
3.742866125e-05
3.742410647e-05
3.753816051e-05
3.753750794e-05
3.753544044e-05
3.753696648e-05
3.753578912e-05
3.764628192e-05
3.764044824e-05
3.765306376e-05
3.765000963e-05
3.763674509e-05
3.774682812e-05
3.7759194e-05
3.776342463e-05
3.775000886e-05
3.775926214e-05
3.785771892e-05
3.785791053e-05
3.786514779e-05
3.787027869e-05
3.787454918e-05
3.798064374e-05
3.798265683e-05
3.796746328e-05
3.798556654e-05
3.798525764e-05
3.808887821e-05
3.808893728e-05
3.807326119e-05
3.808671298e-05
3.809166926e-05
3.819998822e-05
3.82018196e-05
3.81919931e-05
3.820132086e-05
3.819723362e-05
3.82956336e-05
3.830764273e-05
3.829564764e-05
3.829568142e-05
3.830836462e-05
3.840888096e-05
3.841272578e-05
3.840261186e-05
3.841508012e-05
3.841117506e-05
3.850759819e-05
3.850683774e-05
3.850673134e-05
3.852018594e-05
3.851969658e-05
3.861604486e-05
3.861371987e-05
3.861457558e-05
3.862778191e-05
3.862175921e-05
3.872721347e-05
3.87204106e-05
3.872915892e-05
3.87309496e-05
3.872338364e-05
3.883123431e-05
3.884434516e-05
3.884223673e-05
3.883022742e-05
3.882217564e-05
3.89340135e-05
3.893853868e-05
3.894684993e-05
3.89208878e-05
3.894762969e-05
3.904750381e-05
3.905047049e-05
3.902914082e-05
3.903935278e-05
3.90328011e-05
3.914179452e-05
3.914083625e-05
3.913207436e-05
3.914720746e-05
3.913967758e-05
3.925272425e-05
3.925340583e-05
3.924568263e-05
3.92496184e-05
3.923225664e-05
3.934818559e-05
3.934272881e-05
3.934466336e-05
3.935271864e-05
3.93390915e-05
3.945754285e-05
3.945928953e-05
3.944864139e-05
3.945263193e-05
3.944443743e-05
3.956227702e-05
3.95624098e-05
3.956466817e-05
3.955555792e-05
3.954949767e-05
3.964979256e-05
3.965565345e-05
3.966721389e-05
3.965966893e-05
3.966259159e-05
3.976742608e-05
3.976808014e-05
3.976240952e-05
3.97620544e-05
3.976095903e-05
3.985399625e-05
3.9868988e-05
3.986427005e-05
3.986691536e-05
3.986079844e-05
3.996332414e-05
3.996131799e-05
3.996437323e-05
3.997573749e-05
3.996367146e-05
4.006485793e-05
4.00604832e-05
4.007077976e-05
4.007286573e-05
4.006280657e-05
4.017051207e-05
4.017534776e-05
4.016119385e-05
4.015692753e-05
4.016390204e-05
4.027021206e-05
4.025997334e-05
4.026504842e-05
4.026544952e-05
4.026439898e-05
4.035886233e-05
4.035957944e-05
4.036304208e-05
4.037080466e-05
4.037236927e-05
4.045911501e-05
4.045095175e-05
4.046706577e-05
4.045455212e-05
4.045943621e-05
4.055485751e-05
4.055802286e-05
4.056840166e-05
4.056486152e-05
4.054534852e-05
4.066148589e-05
4.06477078e-05
4.066291277e-05
4.065440712e-05
4.065029325e-05
4.076257052e-05
4.076025836e-05
4.076495087e-05
4.075458179e-05
4.076695683e-05
4.086280977e-05
4.084990988e-05
4.08438044e-05
4.085694325e-05
4.085022151e-05
4.094446026e-05
4.095651068e-05
4.09557311e-05
4.09472623e-05
4.095196341e-05
4.104733128e-05
4.104572332e-05
4.106072975e-05
4.104728712e-05
4.104881057e-05
4.11463784e-05
4.113879869e-05
4.114503739e-05
4.114377634e-05
4.115192087e-05
4.125194201e-05
4.124188671e-05
4.12462827e-05
4.123622622e-05
4.123830036e-05
4.133512226e-05
4.131591758e-05
4.133138559e-05
4.133857136e-05
4.133118687e-05
4.143209639e-05
4.142914894e-05
4.142417219e-05
4.142876683e-05
4.143075091e-05
4.152462324e-05
4.152220322e-05
4.152712062e-05
4.152871271e-05
4.152963284e-05
4.16270568e-05
4.161914919e-05
4.162487666e-05
4.16138323e-05
4.160580724e-05
4.172084763e-05
4.172073817e-05
4.171291016e-05
4.171639298e-05
4.172258011e-05
4.181090284e-05
4.180503023e-05
4.181287415e-05
4.182214323e-05
4.182262657e-05
4.190666527e-05
4.189583206e-05
4.191933777e-05
4.19144179e-05
4.19025453e-05
4.200389582e-05
4.199015956e-05
4.200087514e-05
4.199984849e-05
4.2001355e-05
4.20984606e-05
4.208898598e-05
4.20787618e-05
4.207938839e-05
4.208914531e-05
4.218433132e-05
4.218237119e-05
4.218256998e-05
4.218355967e-05
4.218739951e-05
4.228111663e-05
4.228882276e-05
4.228420951e-05
4.22804979e-05
4.22791937e-05
4.23583539e-05
4.236522826e-05
4.237780977e-05
4.23662252e-05
4.236992312e-05
4.245356444e-05
4.245661365e-05
4.248092009e-05
4.246518251e-05
4.245912932e-05
4.255884349e-05
4.254492878e-05
4.255349473e-05
4.255441461e-05
4.255533575e-05
4.264633577e-05
4.26400515e-05
4.262383527e-05
4.263601441e-05
4.264220889e-05
4.273572892e-05
4.273497424e-05
4.27262229e-05
4.271529633e-05
4.271472439e-05
4.281674716e-05
4.28254784e-05
4.281116787e-05
4.281799682e-05
4.281902486e-05
4.291499385e-05
4.29117826e-05
4.290769976e-05
4.290328102e-05
4.290765587e-05
4.300599031e-05
4.298759862e-05
4.300645791e-05
4.29875248e-05
4.298031484e-05
4.308986459e-05
4.309208194e-05
4.307808176e-05
4.307257286e-05
4.308469802e-05
4.31848629e-05
4.316659871e-05
4.318192939e-05
4.316631832e-05
4.316530089e-05
4.326690872e-05
4.32746182e-05
4.327328375e-05
4.324647722e-05
4.326535373e-05
4.335174312e-05
4.334765876e-05
4.336218411e-05
4.336193924e-05
4.3337843e-05
4.343776415e-05
4.34291666e-05
4.344476661e-05
4.343627391e-05
4.343737974e-05
4.353320031e-05
4.35182252e-05
4.353472602e-05
4.353138397e-05
4.352939349e-05
4.360576913e-05
4.361474918e-05
4.361171144e-05
4.361910576e-05
4.360794127e-05
4.37009811e-05
4.369744339e-05
4.37028913e-05
4.36995619e-05
4.370569079e-05
4.379013995e-05
4.37946303e-05
4.380068725e-05
4.379825638e-05
4.379179589e-05
4.388432228e-05
4.388575506e-05
4.386973827e-05
4.38753521e-05
4.388651152e-05
4.397854191e-05
4.396931507e-05
4.397226724e-05
4.396900049e-05
4.397204915e-05
4.407022007e-05
4.405763066e-05
4.406685453e-05
4.405644914e-05
4.406536521e-05
4.413837619e-05
4.414344007e-05
4.41369746e-05
4.41600491e-05
4.415034205e-05
4.422631586e-05
4.422556245e-05
4.422401597e-05
4.423587779e-05
4.422347998e-05
4.431029697e-05
4.432214064e-05
4.432323103e-05
4.432471557e-05
4.432112492e-05
4.441667261e-05
4.439149229e-05
4.440850194e-05
4.440073131e-05
4.442837604e-05
4.448761543e-05
4.447979673e-05
4.449008743e-05
4.447847226e-05
4.451197765e-05
4.457602816e-05
4.458088097e-05
4.457985322e-05
4.458454388e-05
4.458583109e-05
4.465592112e-05
4.467659758e-05
4.467234471e-05
4.466727808e-05
4.466423574e-05
4.475761792e-05
4.476190743e-05
4.476280401e-05
4.474438311e-05
4.475987143e-05
4.485063389e-05
4.484032134e-05
4.484778555e-05
4.485117035e-05
4.484585684e-05
4.493982225e-05
4.492681479e-05
4.493603229e-05
4.494396882e-05
4.493631321e-05
4.502450051e-05
4.502039778e-05
4.501574103e-05
4.501503097e-05
4.502032878e-05
4.511014437e-05
4.511751107e-05
4.510580637e-05
4.511023744e-05
4.510286649e-05
4.522303911e-05
4.521459159e-05
4.521565037e-05
4.522564822e-05
4.520604318e-05
4.531780314e-05
4.532075227e-05
4.532647555e-05
4.531093956e-05
4.531002542e-05
4.543953897e-05
4.542380095e-05
4.542067931e-05
4.542543299e-05
4.540339087e-05
4.556433868e-05
4.55515007e-05
4.555383572e-05
4.554879024e-05
4.556095711e-05
)
;

boundaryField
{
    upperWall
    {
        type            calculated;
        value           nonuniform List<scalar> 5(4.556433868e-05 4.55515007e-05 4.555383572e-05 4.554879024e-05 4.556095711e-05);
    }
    lowerWall
    {
        type            calculated;
        value           nonuniform List<scalar> 5(3.557699681e-05 3.559526926e-05 3.557405548e-05 3.558035449e-05 3.558152586e-05);
    }
    periodicX_half0
    {
        type            cyclic;
    }
    periodicX_half1
    {
        type            cyclic;
    }
    frontAndBack
    {
        type            empty;
    }
}


// ************************************************************************* //
