/*--------------------------------*- C++ -*----------------------------------*\
| =========                 |                                                 |
| \\      /  F ield         | OpenFOAM: The Open Source CFD Toolbox           |
|  \\    /   O peration     | Version:  v1706                                 |
|   \\  /    A nd           | Web:      www.OpenFOAM.com                      |
|    \\/     M anipulation  |                                                 |
\*---------------------------------------------------------------------------*/
FoamFile
{
    version     2.0;
    format      ascii;
    class       volScalarField;
    location    "8";
    object      mfpCellRatio_mixture;
}
// * * * * * * * * * * * * * * * * * * * * * * * * * * * * * * * * * * * * * //

dimensions      [0 0 0 0 0 0 0];


internalField   nonuniform List<scalar> 
500
(
4.397555359
4.399982039
4.397361951
4.398388781
4.398037907
4.435159393
4.433493641
4.436071424
4.433948705
4.434954773
4.465806814
4.466220811
4.465896628
4.467002728
4.466350387
4.494532861
4.495721827
4.492477356
4.494305507
4.494362678
4.520828987
4.522894364
4.522516842
4.519741065
4.521856122
4.547093097
4.54878107
4.548596852
4.548160673
4.548281847
4.573908996
4.572470647
4.57420664
4.572549836
4.574264215
4.598995636
4.598402346
4.598158368
4.598442652
4.598402403
4.624036457
4.625258926
4.624883569
4.625238671
4.622934874
4.649298607
4.650056404
4.650380882
4.650395936
4.648153479
4.675646547
4.674532575
4.674538242
4.675189423
4.674937853
4.697887831
4.699638613
4.699139206
4.700960194
4.700164933
4.723164882
4.724129805
4.724375113
4.722787832
4.724712069
4.748448084
4.747422136
4.748448954
4.748123113
4.748995077
4.77273426
4.772331196
4.771903405
4.773625065
4.771973911
4.795930637
4.796526433
4.797308774
4.796936494
4.795893972
4.820904707
4.820523087
4.820513264
4.820143083
4.820624145
4.844148891
4.843677564
4.845505235
4.845005439
4.843249335
4.867104978
4.868809895
4.869142119
4.867649974
4.86878172
4.89110777
4.890899639
4.891761965
4.89215851
4.892856869
4.916221803
4.916776922
4.914232982
4.916943139
4.917131058
4.940006022
4.939692807
4.937780088
4.939514171
4.940137647
4.963761596
4.96441336
4.962061703
4.963654716
4.963463821
4.986117555
4.987105356
4.985055397
4.985707118
4.987517161
5.009984242
5.010488296
5.008910371
5.010359868
5.009673346
5.032090197
5.032394496
5.03212895
5.034169184
5.033795199
5.056083357
5.055038961
5.056165322
5.057660711
5.056736074
5.079911722
5.079017884
5.080449789
5.079827116
5.078893405
5.102554105
5.104302495
5.104461616
5.102713234
5.100610162
5.124703118
5.125953557
5.126614267
5.124071957
5.126931585
5.149829799
5.149428365
5.146606529
5.148350736
5.147592055
5.171015572
5.171584924
5.17011151
5.171756522
5.171285597
5.194421139
5.195712959
5.194008872
5.194747439
5.192930326
5.21656784
5.217118395
5.216986784
5.217594067
5.215846647
5.240768092
5.241270505
5.239795478
5.23947255
5.239054229
5.263669073
5.263810419
5.26339274
5.262289578
5.261940333
5.284827436
5.284254817
5.286841266
5.286031916
5.286002522
5.309383321
5.310073989
5.30875354
5.308892256
5.308023355
5.330122135
5.332313048
5.331344261
5.332741538
5.330934044
5.354153073
5.353983622
5.353971127
5.355293456
5.353710396
5.376267474
5.376122661
5.377108597
5.377824445
5.376462076
5.39910578
5.40062233
5.398891314
5.398480517
5.399496106
5.421407515
5.420909321
5.421523446
5.422217221
5.422100173
5.443473161
5.443574293
5.443662188
5.444609873
5.445194719
5.465242532
5.46462046
5.466919342
5.464892696
5.465044804
5.48791857
5.48791012
5.489070475
5.488895072
5.48629228
5.510819694
5.508793617
5.511037506
5.510028541
5.50898923
5.533798002
5.533237256
5.532994664
5.531984573
5.534047042
5.555596489
5.553847475
5.553181261
5.554984837
5.554252771
5.575056516
5.577395604
5.578531644
5.576163081
5.577146242
5.598303716
5.59936931
5.601058637
5.598393362
5.599432959
5.621423512
5.620784413
5.621530385
5.621121145
5.622438858
5.645033281
5.643538276
5.644565613
5.642098074
5.643157363
5.665272081
5.662554737
5.664513192
5.664931334
5.664529466
5.687194583
5.686205912
5.686310301
5.687008084
5.687044201
5.708801851
5.709100581
5.709188976
5.709640644
5.709271902
5.731523518
5.730701186
5.730860638
5.729662717
5.728474626
5.753170268
5.753639054
5.752327406
5.752366969
5.752944383
5.774430621
5.773504521
5.774095413
5.775288089
5.77621026
5.796375784
5.79424815
5.797217018
5.796796968
5.794965
5.818629583
5.815913368
5.817631883
5.817577673
5.817787703
5.839908405
5.838478352
5.836982658
5.837565927
5.838014159
5.860727552
5.860204223
5.859949288
5.860674662
5.861123125
5.882388191
5.884018108
5.883096428
5.882524887
5.88234568
5.902042356
5.902478365
5.904612602
5.902884206
5.903709357
5.922906697
5.923787362
5.927147777
5.924671625
5.924705642
5.947099503
5.944999325
5.946162794
5.946274693
5.94719174
5.968029775
5.9670378
5.965014331
5.966745896
5.966799099
5.988323969
5.989509953
5.987502336
5.985590563
5.985856773
6.008604716
6.009964195
6.008089292
6.009564
6.008592457
6.030564462
6.030293953
6.030186399
6.029610073
6.030305327
6.052788329
6.049725727
6.052400669
6.05034366
6.04914719
6.073344122
6.07304389
6.071100083
6.070659849
6.072461041
6.0948174
6.092117788
6.094192952
6.092102688
6.092154801
6.11457199
6.115892056
6.115609144
6.111602349
6.114466003
6.135639927
6.135080256
6.136296816
6.136468616
6.134017123
6.156422085
6.154622135
6.156208295
6.155915232
6.155885999
6.178434334
6.176062959
6.178980793
6.177862261
6.177583653
6.195908824
6.197336433
6.197571251
6.197953295
6.19694533
6.219016163
6.21841545
6.219704846
6.21844584
6.219452805
6.240539636
6.241396929
6.242383831
6.240815078
6.239279448
6.262073152
6.262701181
6.260017869
6.26098639
6.262515082
6.28446857
6.283172227
6.283437518
6.283668612
6.283330897
6.305691334
6.303613807
6.305394641
6.303566275
6.306296587
6.324175168
6.325854831
6.323699601
6.327162054
6.325937826
6.345303393
6.345214129
6.345634481
6.346729074
6.34491484
6.366595829
6.36827318
6.368205445
6.368924577
6.367924692
6.389895682
6.386779144
6.389273181
6.387911229
6.392527206
6.408786041
6.408458835
6.4086013
6.407775659
6.413147136
6.430364952
6.431232979
6.432240006
6.431773849
6.432107276
6.451706041
6.454500357
6.454340117
6.453008666
6.452161559
6.475482525
6.476171275
6.475672888
6.473354098
6.474988004
6.498583313
6.496349056
6.497835032
6.498173054
6.497254998
6.519824246
6.518686701
6.519582406
6.520507664
6.519056381
6.541778335
6.541344774
6.540849034
6.540182701
6.540160775
6.563919023
6.565063424
6.563782109
6.563244879
6.563151694
6.591105288
6.588822724
6.59018003
6.590343202
6.588054216
6.615444023
6.615665209
6.616258113
6.615255443
6.614450408
6.644351548
6.64320508
6.642827293
6.643675094
6.640217172
6.678932501
6.675735303
6.676554372
6.675907235
6.677337771
)
;

boundaryField
{
    upperWall
    {
        type            calculated;
        value           nonuniform List<scalar> 5(6.678932501 6.675735303 6.676554372 6.675907235 6.677337771);
    }
    lowerWall
    {
        type            calculated;
        value           nonuniform List<scalar> 5(4.397555359 4.399982039 4.397361951 4.398388781 4.398037907);
    }
    periodicX_half0
    {
        type            cyclic;
    }
    periodicX_half1
    {
        type            cyclic;
    }
    frontAndBack
    {
        type            empty;
    }
}


// ************************************************************************* //
