/*--------------------------------*- C++ -*----------------------------------*\
| =========                 |                                                 |
| \\      /  F ield         | OpenFOAM: The Open Source CFD Toolbox           |
|  \\    /   O peration     | Version:  v1706                                 |
|   \\  /    A nd           | Web:      www.OpenFOAM.com                      |
|    \\/     M anipulation  |                                                 |
\*---------------------------------------------------------------------------*/
FoamFile
{
    version     2.0;
    format      ascii;
    class       volScalarField;
    location    "8";
    object      overallT_N2;
}
// * * * * * * * * * * * * * * * * * * * * * * * * * * * * * * * * * * * * * //

dimensions      [0 0 0 1 0 0 0];


internalField   nonuniform List<scalar> 
500
(
2065.27811
2065.545432
2065.69091
2066.211046
2065.64241
2080.45826
2080.242703
2081.298267
2081.068907
2080.64126
2093.440154
2093.445215
2093.735334
2094.108199
2093.65735
2105.531848
2105.175615
2105.223566
2105.140889
2105.370018
2116.366768
2116.189823
2116.495989
2116.256936
2116.524979
2127.067886
2127.212753
2127.313208
2127.030999
2126.790075
2137.696508
2138.123791
2137.885112
2137.77339
2137.393255
2148.277701
2148.012781
2148.084822
2147.961186
2147.734815
2157.690193
2158.104004
2157.719377
2158.629756
2157.716248
2167.800629
2167.940243
2167.625628
2167.90252
2167.466073
2177.606627
2177.763089
2178.073731
2177.921746
2177.936665
2187.761183
2187.437271
2188.140966
2187.675391
2187.272676
2197.34335
2197.639212
2197.499098
2197.502954
2197.355621
2206.497697
2206.505723
2206.4386
2207.158595
2206.774243
2216.324737
2216.073654
2215.90808
2216.855768
2216.281078
2225.955122
2225.758951
2225.97526
2225.770248
2225.423251
2235.151788
2235.118951
2235.491237
2235.099205
2235.675825
2244.689273
2244.353398
2244.624163
2244.4441
2244.424455
2253.864863
2253.760615
2253.377035
2253.808669
2253.80222
2263.172809
2263.572875
2262.781686
2263.061969
2263.428214
2272.123829
2272.354195
2272.151491
2272.271296
2272.534619
2281.366266
2281.079022
2281.172269
2281.214481
2281.310809
2290.208747
2290.520466
2289.94324
2290.357638
2290.372897
2299.909554
2299.115312
2299.32382
2299.873977
2299.484516
2308.249744
2308.488678
2308.583305
2308.281002
2308.405086
2317.248427
2317.535593
2317.853964
2317.124208
2317.116796
2326.05992
2326.077538
2326.79538
2326.686288
2326.309383
2335.328241
2335.215047
2335.078755
2334.889955
2335.039048
2344.742623
2344.042646
2344.262001
2344.232919
2343.735665
2352.991115
2352.853067
2352.691635
2353.152774
2352.861932
2361.971666
2361.597058
2361.22876
2361.412133
2361.295416
2370.014631
2370.594474
2370.354732
2370.216629
2370.448537
2378.825697
2379.653615
2379.238433
2378.965065
2378.9306
2388.010073
2388.104049
2387.677476
2387.970242
2388.151762
2396.821227
2396.622571
2396.836955
2396.037902
2396.776465
2405.602745
2405.195038
2405.270985
2405.514719
2405.666036
2414.294979
2413.724713
2413.703329
2413.930736
2413.570552
2422.211849
2422.114314
2422.25281
2422.349423
2422.961833
2431.152665
2430.615058
2431.509548
2431.983121
2430.918387
2439.530002
2439.924086
2439.969268
2439.737436
2440.058381
2448.311258
2448.156476
2448.115343
2447.82064
2448.426077
2456.453931
2456.242992
2456.495972
2456.739578
2456.612536
2464.745691
2465.094759
2464.856963
2465.161449
2465.054074
2473.268658
2473.574316
2473.800434
2473.584839
2473.376276
2481.569473
2481.957195
2482.017542
2481.304444
2481.808345
2490.255292
2490.070131
2490.659439
2490.361851
2489.870885
2498.623717
2498.760343
2498.659222
2498.117472
2497.707098
2506.761102
2506.874042
2506.32692
2506.311014
2506.81641
2514.802305
2515.011427
2514.626277
2514.745529
2514.920769
2523.065413
2523.355624
2523.748652
2522.732245
2523.268796
2531.71497
2532.515244
2531.417576
2531.194088
2531.601015
2539.969526
2539.90348
2540.010366
2539.756276
2539.897279
2547.901582
2548.029359
2548.549064
2547.987275
2547.941478
2555.745608
2556.483016
2556.105834
2555.930608
2556.537447
2564.244573
2563.768437
2564.779408
2564.452971
2564.337233
2571.942295
2572.01776
2572.369404
2572.66129
2572.204751
2579.993785
2580.321458
2579.792742
2580.375002
2579.973384
2588.405749
2588.545362
2588.463607
2588.441188
2588.516662
2596.671752
2596.69166
2596.432461
2596.167068
2596.392478
2604.517166
2603.895948
2604.034041
2604.355789
2604.29218
2612.188187
2612.140456
2612.360755
2611.836678
2612.194541
2620.145862
2619.830597
2620.036299
2619.725441
2619.45391
2627.917367
2628.053975
2627.322721
2628.422694
2627.994587
2635.780066
2636.211374
2635.971772
2635.600418
2635.567206
2644.014839
2644.20794
2644.078668
2644.161564
2643.628871
2651.799329
2651.61738
2652.293209
2651.628123
2651.978311
2659.690565
2659.846201
2659.885449
2660.103574
2660.150593
2667.602402
2667.442504
2667.385876
2668.261014
2667.377496
2675.206194
2675.087275
2674.896737
2674.836689
2675.657743
2683.177366
2682.858808
2683.146634
2683.857851
2683.276897
2690.945323
2690.87714
2691.499244
2690.776265
2690.670585
2699.693643
2699.153435
2699.367207
2699.4843
2699.862718
2706.934548
2707.146943
2706.927632
2707.115596
2706.748123
2715.327167
2714.885377
2714.672284
2714.241038
2714.329583
2722.729199
2722.952474
2722.931073
2722.028148
2722.599248
2730.872295
2730.081123
2730.056669
2730.145249
2730.745762
2738.099627
2738.377976
2738.051962
2737.573189
2738.132267
2746.113881
2746.193049
2746.647051
2746.028024
2746.551211
2753.027729
2752.961415
2753.377684
2754.367021
2753.367147
2761.06875
2761.542382
2761.649756
2761.932913
2761.697822
2769.584575
2769.408895
2769.881719
2769.484828
2769.555409
2777.108534
2777.537184
2777.271711
2776.860849
2776.541297
2785.114026
2784.629112
2784.445715
2785.172438
2784.217345
2792.938961
2792.722684
2792.129275
2792.732028
2792.432471
2800.101715
2800.679231
2800.194683
2800.186254
2800.179738
2807.540934
2808.107841
2808.150182
2808.189924
2807.559589
2815.728313
2815.73897
2816.066891
2816.267914
2815.19487
2823.739798
2823.811913
2824.116539
2823.832967
2824.24381
2831.940669
2832.244872
2831.514894
2832.011272
2831.983213
2838.922771
2839.177646
2839.78915
2839.687803
2839.059588
2847.464603
2847.516849
2848.185756
2847.386385
2846.98445
2855.255647
2855.536636
2855.405624
2855.370995
2855.432304
2863.515999
2864.001139
2863.45791
2863.535178
2863.262816
2871.223879
2871.919298
2872.371195
2871.331502
2871.006508
2880.361056
2880.056052
2880.726072
2880.398056
2879.390178
2888.538859
2888.80281
2889.139
2888.893887
2889.234168
2897.253735
2897.748995
2897.719252
2897.008063
2897.420357
2907.065357
2907.083039
2906.765069
2907.384882
2906.771986
2917.186751
2918.31675
2918.642786
2918.237957
2917.498547
2930.278513
2930.240486
2929.893542
2929.85919
2929.939671
)
;

boundaryField
{
    upperWall
    {
        type            calculated;
        value           nonuniform List<scalar> 5(2934.128427 2934.084849 2932.995897 2932.990863 2933.127927);
    }
    lowerWall
    {
        type            calculated;
        value           nonuniform List<scalar> 5(2057.926181 2058.605667 2058.440271 2058.273731 2058.486936);
    }
    periodicX_half0
    {
        type            cyclic;
    }
    periodicX_half1
    {
        type            cyclic;
    }
    frontAndBack
    {
        type            empty;
    }
}


// ************************************************************************* //
