/*--------------------------------*- C++ -*----------------------------------*\
| =========                 |                                                 |
| \\      /  F ield         | OpenFOAM: The Open Source CFD Toolbox           |
|  \\    /   O peration     | Version:  v1706                                 |
|   \\  /    A nd           | Web:      www.OpenFOAM.com                      |
|    \\/     M anipulation  |                                                 |
\*---------------------------------------------------------------------------*/
FoamFile
{
    version     2.0;
    format      ascii;
    class       volScalarField;
    location    "8";
    object      rotationalT_mixture;
}
// * * * * * * * * * * * * * * * * * * * * * * * * * * * * * * * * * * * * * //

dimensions      [0 0 0 1 0 0 0];


internalField   nonuniform List<scalar> 
500
(
2065.729163
2066.174957
2065.900368
2065.548929
2065.522603
2081.684934
2081.389611
2082.22672
2081.736399
2081.411264
2094.627256
2094.861462
2094.328653
2094.889179
2094.356098
2106.627878
2106.552866
2107.006537
2107.000407
2106.605793
2117.915109
2117.690895
2117.618177
2117.975474
2118.486754
2129.539643
2128.982365
2129.174605
2129.465973
2129.082044
2139.402285
2139.727509
2140.04776
2139.737338
2139.835057
2150.359807
2150.357219
2150.379117
2150.433801
2149.814802
2159.970207
2160.456273
2160.968881
2160.437753
2160.349841
2170.031786
2170.515613
2170.341902
2170.019421
2170.026254
2180.570936
2180.181457
2180.63059
2181.002144
2180.321788
2190.699743
2190.104158
2190.443765
2190.144512
2190.059709
2199.853213
2200.424722
2200.655017
2199.835207
2199.892361
2208.784825
2208.63607
2208.705229
2208.797254
2208.77726
2218.322596
2218.439221
2218.052047
2218.605879
2218.586844
2227.909629
2227.649228
2227.966328
2228.379561
2227.480343
2237.140373
2236.601369
2237.758839
2236.838136
2237.242649
2246.407448
2245.673224
2246.243615
2245.890379
2246.545994
2255.443241
2255.183814
2255.346323
2255.174341
2255.614319
2264.12444
2265.370331
2264.249956
2264.299669
2264.313374
2273.737441
2273.802671
2273.772892
2273.011524
2273.428817
2282.035525
2281.852036
2282.322021
2282.937149
2282.500781
2291.892374
2291.003543
2291.019602
2291.933755
2292.175333
2300.137563
2299.976278
2300.462866
2300.738372
2299.964868
2309.198136
2308.691846
2308.65899
2309.463871
2309.027288
2318.058621
2318.178439
2318.894513
2317.768339
2317.557186
2326.125838
2327.046875
2327.102504
2327.212877
2326.400312
2335.071326
2335.88999
2335.105937
2335.240455
2335.872292
2344.211254
2344.493335
2344.56909
2343.85647
2343.907449
2353.007999
2352.689528
2352.100774
2352.723551
2352.70511
2360.875178
2361.050446
2361.26312
2361.081593
2360.52055
2369.160578
2369.531901
2369.182686
2369.029594
2369.649592
2377.436077
2378.796702
2378.200005
2378.856677
2378.287859
2386.742197
2386.594538
2385.742478
2386.802636
2386.944562
2396.482923
2394.68941
2394.786359
2395.095106
2395.511561
2404.153723
2403.573769
2403.957009
2403.911733
2403.759665
2412.58803
2411.629479
2411.700803
2411.75878
2412.205524
2420.512061
2419.716115
2420.359162
2419.658954
2421.24893
2428.33028
2428.652754
2428.555847
2429.080097
2428.305337
2436.55659
2437.254008
2437.437865
2436.216576
2437.350875
2445.680085
2445.342718
2445.758205
2445.461065
2446.090972
2453.687971
2453.104862
2453.401273
2453.144645
2453.27374
2462.135007
2461.354815
2461.1107
2461.985507
2461.783129
2469.955064
2470.316753
2469.429191
2469.937667
2470.153815
2477.360207
2477.954125
2478.003586
2477.751926
2478.620634
2486.262491
2485.729507
2485.992129
2486.350702
2485.912318
2494.269333
2494.21805
2494.054333
2494.040234
2493.94579
2502.514152
2502.603645
2501.68464
2501.852473
2502.406232
2510.38609
2510.939152
2510.306984
2510.257542
2510.231953
2518.190169
2517.711433
2518.744597
2518.102233
2518.886821
2526.599891
2526.923758
2526.420999
2526.276702
2526.329283
2535.29818
2533.502004
2534.590755
2533.708538
2534.167145
2542.618981
2542.216991
2542.73823
2541.253921
2542.369458
2550.187803
2549.876585
2550.673193
2550.302807
2550.762629
2558.884215
2559.144692
2559.07393
2558.918036
2558.474091
2566.361351
2566.882914
2566.680577
2566.945297
2566.465817
2574.175472
2574.04522
2573.843175
2574.097144
2573.268194
2582.357343
2581.85246
2581.888058
2582.18287
2581.950124
2590.462184
2591.019981
2590.441317
2589.314427
2590.003622
2598.503809
2597.985342
2597.803432
2597.303074
2597.037647
2605.677517
2605.86348
2605.626028
2605.283262
2605.779629
2613.683127
2612.732132
2612.59951
2613.473375
2613.218179
2620.643846
2620.905259
2621.012522
2621.248764
2621.126319
2628.389323
2629.238413
2629.162423
2628.310352
2627.858255
2636.377525
2636.819014
2636.809982
2635.889853
2635.177532
2644.425503
2644.282806
2644.582764
2644.223215
2644.885999
2651.120367
2651.889215
2651.840701
2652.723389
2652.618579
2659.771817
2659.705413
2660.3634
2659.372258
2659.837202
2667.475054
2667.512762
2667.921352
2667.936674
2667.392035
2675.850406
2674.642561
2675.967666
2675.847167
2675.401801
2682.248887
2682.272389
2683.804842
2682.858835
2682.118747
2690.831215
2690.551742
2691.643823
2691.165349
2691.023908
2698.82237
2699.821361
2698.610936
2697.986488
2698.150975
2706.601845
2707.27407
2706.059103
2705.935326
2706.43319
2713.650356
2714.239707
2713.990484
2712.648232
2714.380226
2722.596629
2721.663255
2721.002482
2721.562213
2721.492942
2730.025465
2729.200728
2729.182978
2729.292686
2729.065863
2736.915587
2737.005448
2736.99014
2737.902174
2737.441185
2745.04592
2745.00849
2745.167298
2745.086898
2745.495218
2752.412742
2751.940019
2753.474517
2753.378812
2752.938959
2761.300805
2760.802132
2760.230822
2760.514829
2761.584326
2768.864531
2768.158518
2767.867847
2767.878615
2768.409671
2775.428509
2775.121822
2775.920291
2776.115743
2775.103363
2784.114702
2784.508989
2783.850035
2784.730033
2784.050204
2790.96355
2791.997542
2791.98768
2791.109818
2791.929649
2798.886317
2799.435948
2798.969291
2799.458658
2798.689331
2808.124121
2806.410293
2806.709396
2806.995474
2806.870196
2815.94663
2815.860995
2814.947138
2815.294463
2815.973065
2823.912527
2824.175926
2823.202401
2823.549153
2823.096632
2831.18968
2831.21254
2831.490665
2832.01992
2830.88383
2840.15676
2839.968069
2840.063169
2839.840106
2840.226187
2848.252854
2848.003698
2848.306491
2847.998817
2848.237379
2856.516797
2856.552301
2856.505813
2856.218188
2855.780069
2865.234528
2866.205382
2866.101338
2865.47948
2865.60092
2874.316071
2873.828498
2874.383208
2874.129772
2873.410548
2882.762818
2883.625632
2883.067892
2883.548608
2883.655336
2891.559366
2892.344864
2892.957582
2892.23236
2891.949227
2902.639934
2901.963397
2902.120564
2903.189541
2903.497102
2914.636741
2913.730302
2914.085853
2914.225849
2913.11997
2926.72816
2927.001057
2927.058877
2926.922956
2926.794565
)
;

boundaryField
{
    upperWall
    {
        type            calculated;
        value           nonuniform List<scalar> 5(2936.984233 2938.382206 2936.776976 2935.688235 2937.138475);
    }
    lowerWall
    {
        type            calculated;
        value           nonuniform List<scalar> 5(2052.512763 2058.753032 2054.217493 2054.229273 2054.144345);
    }
    periodicX_half0
    {
        type            cyclic;
    }
    periodicX_half1
    {
        type            cyclic;
    }
    frontAndBack
    {
        type            empty;
    }
}


// ************************************************************************* //
