/*--------------------------------*- C++ -*----------------------------------*\
| =========                 |                                                 |
| \\      /  F ield         | OpenFOAM: The Open Source CFD Toolbox           |
|  \\    /   O peration     | Version:  v1706                                 |
|   \\  /    A nd           | Web:      www.OpenFOAM.com                      |
|    \\/     M anipulation  |                                                 |
\*---------------------------------------------------------------------------*/
FoamFile
{
    version     2.0;
    format      ascii;
    class       volScalarField;
    location    "8";
    object      variableHardSphereMeanFreePath_mixture;
}
// * * * * * * * * * * * * * * * * * * * * * * * * * * * * * * * * * * * * * //

dimensions      [0 1 0 0 0 0 0];


internalField   nonuniform List<scalar> 
500
(
0.04397555359
0.04399982039
0.04397361951
0.04398388781
0.04398037907
0.04435159393
0.04433493641
0.04436071424
0.04433948705
0.04434954773
0.04465806814
0.04466220811
0.04465896628
0.04467002728
0.04466350387
0.04494532861
0.04495721827
0.04492477356
0.04494305507
0.04494362678
0.04520828987
0.04522894364
0.04522516842
0.04519741065
0.04521856122
0.04547093097
0.0454878107
0.04548596852
0.04548160673
0.04548281847
0.04573908996
0.04572470647
0.0457420664
0.04572549836
0.04574264215
0.04598995636
0.04598402346
0.04598158368
0.04598442652
0.04598402403
0.04624036457
0.04625258926
0.04624883569
0.04625238671
0.04622934874
0.04649298607
0.04650056404
0.04650380882
0.04650395936
0.04648153479
0.04675646547
0.04674532575
0.04674538242
0.04675189423
0.04674937853
0.04697887831
0.04699638613
0.04699139206
0.04700960194
0.04700164933
0.04723164882
0.04724129805
0.04724375113
0.04722787832
0.04724712069
0.04748448084
0.04747422136
0.04748448954
0.04748123113
0.04748995077
0.0477273426
0.04772331196
0.04771903405
0.04773625065
0.04771973911
0.04795930637
0.04796526433
0.04797308774
0.04796936494
0.04795893972
0.04820904707
0.04820523087
0.04820513264
0.04820143083
0.04820624145
0.04844148891
0.04843677564
0.04845505235
0.04845005439
0.04843249335
0.04867104978
0.04868809895
0.04869142119
0.04867649974
0.0486878172
0.0489110777
0.04890899639
0.04891761965
0.0489215851
0.04892856869
0.04916221803
0.04916776922
0.04914232982
0.04916943139
0.04917131058
0.04940006022
0.04939692807
0.04937780088
0.04939514171
0.04940137647
0.04963761596
0.0496441336
0.04962061703
0.04963654716
0.04963463821
0.04986117555
0.04987105356
0.04985055397
0.04985707118
0.04987517161
0.05009984242
0.05010488296
0.05008910371
0.05010359868
0.05009673346
0.05032090197
0.05032394496
0.0503212895
0.05034169184
0.05033795199
0.05056083357
0.05055038961
0.05056165322
0.05057660711
0.05056736074
0.05079911722
0.05079017884
0.05080449789
0.05079827116
0.05078893405
0.05102554105
0.05104302495
0.05104461616
0.05102713234
0.05100610162
0.05124703118
0.05125953557
0.05126614267
0.05124071957
0.05126931585
0.05149829799
0.05149428365
0.05146606529
0.05148350736
0.05147592055
0.05171015572
0.05171584924
0.0517011151
0.05171756522
0.05171285597
0.05194421139
0.05195712959
0.05194008872
0.05194747439
0.05192930326
0.0521656784
0.05217118395
0.05216986784
0.05217594067
0.05215846647
0.05240768092
0.05241270505
0.05239795478
0.0523947255
0.05239054229
0.05263669073
0.05263810419
0.0526339274
0.05262289578
0.05261940333
0.05284827436
0.05284254817
0.05286841266
0.05286031916
0.05286002522
0.05309383321
0.05310073989
0.0530875354
0.05308892256
0.05308023355
0.05330122135
0.05332313048
0.05331344261
0.05332741538
0.05330934044
0.05354153073
0.05353983622
0.05353971127
0.05355293456
0.05353710396
0.05376267474
0.05376122661
0.05377108597
0.05377824445
0.05376462076
0.0539910578
0.0540062233
0.05398891314
0.05398480517
0.05399496106
0.05421407515
0.05420909321
0.05421523446
0.05422217221
0.05422100173
0.05443473161
0.05443574293
0.05443662188
0.05444609873
0.05445194719
0.05465242532
0.0546462046
0.05466919342
0.05464892696
0.05465044804
0.0548791857
0.0548791012
0.05489070475
0.05488895072
0.0548629228
0.05510819694
0.05508793617
0.05511037506
0.05510028541
0.0550898923
0.05533798002
0.05533237256
0.05532994664
0.05531984573
0.05534047042
0.05555596489
0.05553847475
0.05553181261
0.05554984837
0.05554252771
0.05575056516
0.05577395604
0.05578531644
0.05576163081
0.05577146242
0.05598303716
0.0559936931
0.05601058637
0.05598393362
0.05599432959
0.05621423512
0.05620784413
0.05621530385
0.05621121145
0.05622438858
0.05645033281
0.05643538276
0.05644565613
0.05642098074
0.05643157363
0.05665272081
0.05662554737
0.05664513192
0.05664931334
0.05664529466
0.05687194583
0.05686205912
0.05686310301
0.05687008084
0.05687044201
0.05708801851
0.05709100581
0.05709188976
0.05709640644
0.05709271902
0.05731523518
0.05730701186
0.05730860638
0.05729662717
0.05728474626
0.05753170268
0.05753639054
0.05752327406
0.05752366969
0.05752944383
0.05774430621
0.05773504521
0.05774095413
0.05775288089
0.0577621026
0.05796375784
0.0579424815
0.05797217018
0.05796796968
0.05794965
0.05818629583
0.05815913368
0.05817631883
0.05817577673
0.05817787703
0.05839908405
0.05838478352
0.05836982658
0.05837565927
0.05838014159
0.05860727552
0.05860204223
0.05859949288
0.05860674662
0.05861123125
0.05882388191
0.05884018108
0.05883096428
0.05882524887
0.0588234568
0.05902042356
0.05902478365
0.05904612602
0.05902884206
0.05903709357
0.05922906697
0.05923787362
0.05927147777
0.05924671625
0.05924705642
0.05947099503
0.05944999325
0.05946162794
0.05946274693
0.0594719174
0.05968029775
0.059670378
0.05965014331
0.05966745896
0.05966799099
0.05988323969
0.05989509953
0.05987502336
0.05985590563
0.05985856773
0.06008604716
0.06009964195
0.06008089292
0.06009564
0.06008592457
0.06030564462
0.06030293953
0.06030186399
0.06029610073
0.06030305327
0.06052788329
0.06049725727
0.06052400669
0.0605034366
0.0604914719
0.06073344122
0.0607304389
0.06071100083
0.06070659849
0.06072461041
0.060948174
0.06092117788
0.06094192952
0.06092102688
0.06092154801
0.0611457199
0.06115892056
0.06115609144
0.06111602349
0.06114466003
0.06135639927
0.06135080256
0.06136296816
0.06136468616
0.06134017123
0.06156422085
0.06154622135
0.06156208295
0.06155915232
0.06155885999
0.06178434334
0.06176062959
0.06178980793
0.06177862261
0.06177583653
0.06195908824
0.06197336433
0.06197571251
0.06197953295
0.0619694533
0.06219016163
0.0621841545
0.06219704846
0.0621844584
0.06219452805
0.06240539636
0.06241396929
0.06242383831
0.06240815078
0.06239279448
0.06262073152
0.06262701181
0.06260017869
0.0626098639
0.06262515082
0.0628446857
0.06283172227
0.06283437518
0.06283668612
0.06283330897
0.06305691334
0.06303613807
0.06305394641
0.06303566275
0.06306296587
0.06324175168
0.06325854831
0.06323699601
0.06327162054
0.06325937826
0.06345303393
0.06345214129
0.06345634481
0.06346729074
0.0634491484
0.06366595829
0.0636827318
0.06368205445
0.06368924577
0.06367924692
0.06389895682
0.06386779144
0.06389273181
0.06387911229
0.06392527206
0.06408786041
0.06408458835
0.064086013
0.06407775659
0.06413147136
0.06430364952
0.06431232979
0.06432240006
0.06431773849
0.06432107276
0.06451706041
0.06454500357
0.06454340117
0.06453008666
0.06452161559
0.06475482525
0.06476171275
0.06475672888
0.06473354098
0.06474988004
0.06498583313
0.06496349056
0.06497835032
0.06498173054
0.06497254998
0.06519824246
0.06518686701
0.06519582406
0.06520507664
0.06519056381
0.06541778335
0.06541344774
0.06540849034
0.06540182701
0.06540160775
0.06563919023
0.06565063424
0.06563782109
0.06563244879
0.06563151694
0.06591105288
0.06588822724
0.0659018003
0.06590343202
0.06588054216
0.06615444023
0.06615665209
0.06616258113
0.06615255443
0.06614450408
0.06644351548
0.0664320508
0.06642827293
0.06643675094
0.06640217172
0.06678932501
0.06675735303
0.06676554372
0.06675907235
0.06677337771
)
;

boundaryField
{
    upperWall
    {
        type            calculated;
        value           nonuniform List<scalar> 5(0.06678932501 0.06675735303 0.06676554372 0.06675907235 0.06677337771);
    }
    lowerWall
    {
        type            calculated;
        value           nonuniform List<scalar> 5(0.04397555359 0.04399982039 0.04397361951 0.04398388781 0.04398037907);
    }
    periodicX_half0
    {
        type            cyclic;
    }
    periodicX_half1
    {
        type            cyclic;
    }
    frontAndBack
    {
        type            empty;
    }
}


// ************************************************************************* //
