/*--------------------------------*- C++ -*----------------------------------*\
| =========                 |                                                 |
| \\      /  F ield         | OpenFOAM: The Open Source CFD Toolbox           |
|  \\    /   O peration     | Version:  v1706                                 |
|   \\  /    A nd           | Web:      www.OpenFOAM.com                      |
|    \\/     M anipulation  |                                                 |
\*---------------------------------------------------------------------------*/
FoamFile
{
    version     2.0;
    format      ascii;
    class       volScalarField;
    location    "8";
    object      vibrationalT_O2;
}
// * * * * * * * * * * * * * * * * * * * * * * * * * * * * * * * * * * * * * //

dimensions      [0 0 0 1 0 0 0];


internalField   nonuniform List<scalar> 
500
(
2059.910926
2060.028442
2059.636839
2060.655669
2058.839456
2073.909028
2073.338239
2074.419856
2074.946093
2074.345815
2085.563549
2087.486369
2087.235313
2085.511225
2087.31786
2097.058925
2099.266403
2097.999275
2096.565592
2095.863951
2107.169108
2107.717675
2106.005074
2107.93275
2107.497981
2118.686899
2118.527316
2118.458473
2118.154546
2117.412655
2127.748685
2127.906716
2127.098935
2128.14479
2129.277446
2136.946932
2137.887369
2139.841285
2137.829365
2138.81366
2149.145169
2147.601151
2148.816842
2147.883114
2148.808163
2159.442853
2158.111771
2159.065923
2158.883568
2158.683523
2167.627454
2167.890118
2169.062876
2168.285269
2167.634292
2178.145744
2177.283075
2176.075819
2176.197575
2177.876382
2187.523636
2187.423765
2186.294179
2185.960838
2187.671286
2197.34683
2196.852149
2196.595147
2194.694422
2196.148355
2204.372059
2205.689737
2205.744677
2205.352472
2205.960632
2214.177329
2214.885362
2215.583206
2215.326996
2214.078887
2223.455628
2224.352639
2225.152185
2224.512046
2222.302793
2233.42258
2233.832775
2232.830263
2232.561765
2232.815332
2241.954226
2240.956447
2241.590291
2241.114067
2240.747314
2251.814292
2251.423305
2250.264289
2251.482691
2250.547218
2261.359604
2261.124496
2260.172841
2260.689073
2259.598678
2269.75803
2270.101072
2270.595663
2269.896137
2270.009901
2279.804732
2277.255366
2278.067605
2278.680408
2280.416995
2287.233438
2286.280173
2287.661753
2288.379299
2287.017771
2299.385733
2298.145583
2299.281465
2297.132244
2297.974303
2307.93043
2307.591217
2308.065593
2308.086933
2307.72321
2317.710638
2316.816444
2315.880654
2318.743683
2315.659297
2323.745322
2324.760496
2325.355893
2325.974168
2325.705772
2333.054659
2333.74407
2333.986765
2335.463523
2335.632588
2342.607838
2342.660568
2342.445168
2344.01772
2343.078155
2353.799009
2353.503282
2352.016863
2352.23976
2352.375248
2361.918088
2360.888778
2360.819195
2360.575817
2360.563541
2370.050235
2368.686237
2368.316936
2369.492865
2368.368456
2376.59364
2378.817369
2378.904925
2376.911587
2377.346942
2387.016431
2385.86115
2387.53696
2385.028258
2386.779038
2394.944144
2395.131246
2395.106821
2395.441522
2394.393717
2404.409187
2402.503002
2404.515808
2405.831962
2402.81886
2412.509447
2412.825447
2413.861481
2410.866266
2411.220381
2421.745911
2421.658449
2421.495709
2420.656812
2419.551838
2428.578356
2431.150365
2431.063791
2429.388056
2429.755003
2439.68205
2439.364677
2437.383008
2438.889898
2438.811109
2445.351965
2447.651612
2448.207286
2449.11692
2447.345445
2453.687807
2453.675688
2455.407847
2455.818885
2454.853697
2462.536384
2463.819
2463.405827
2463.283928
2463.861847
2470.380084
2473.300951
2470.357287
2473.030391
2471.822443
2479.996706
2480.422027
2479.730632
2478.987756
2480.182747
2489.476273
2490.590479
2488.01144
2487.282139
2488.221394
2497.557562
2495.922369
2497.485666
2497.165712
2497.275786
2506.251969
2505.344126
2506.337682
2507.031311
2506.820228
2513.309247
2515.418074
2514.01375
2515.931454
2513.945944
2521.731021
2522.731359
2521.801521
2523.780667
2522.728847
2530.481649
2530.908869
2529.494421
2532.02223
2530.458879
2538.116845
2540.563518
2541.353845
2540.118582
2538.608494
2546.345532
2547.682043
2548.683995
2549.36981
2547.560439
2555.618739
2556.447183
2556.543034
2554.84428
2555.393434
2563.736215
2564.156077
2563.498487
2564.304261
2564.701147
2572.014634
2572.676593
2572.073773
2571.584364
2571.345016
2579.580639
2577.689321
2581.16304
2580.067853
2578.855759
2588.284354
2587.695729
2589.386713
2588.124341
2587.751805
2597.341631
2595.800441
2596.864967
2597.408704
2596.1983
2605.606048
2604.573316
2603.919589
2604.510317
2604.446919
2614.969167
2615.366026
2612.840887
2613.174765
2613.09577
2620.546153
2624.782675
2622.706367
2621.821188
2622.656078
2629.666915
2631.264908
2629.979238
2629.957191
2631.344785
2636.396168
2640.078477
2639.125314
2638.750981
2638.127646
2645.752829
2645.02247
2644.482659
2645.863932
2646.613453
2653.577745
2654.516305
2652.676719
2656.211622
2654.319173
2661.721582
2661.786946
2661.814735
2662.834173
2661.551132
2672.549686
2670.525132
2670.001495
2670.559008
2669.319812
2678.97908
2679.592052
2679.04814
2678.126268
2680.522755
2688.218087
2686.540541
2685.626519
2687.361197
2688.155613
2694.357159
2695.365025
2695.625044
2695.587781
2694.911174
2704.220659
2704.151599
2702.71273
2704.980983
2704.808725
2711.929954
2710.718106
2710.743716
2711.256915
2713.714447
2718.391493
2720.168404
2719.129465
2719.139938
2719.205574
2725.822804
2727.843185
2727.819947
2729.121431
2726.984577
2734.229136
2734.996219
2735.856741
2734.991632
2735.156724
2742.051383
2742.489919
2741.7166
2742.015518
2743.291717
2751.733617
2750.831867
2751.911841
2751.844282
2750.952981
2761.020947
2761.727715
2761.304481
2761.11311
2759.111681
2768.518803
2768.766352
2768.05532
2770.41061
2767.853052
2776.185437
2774.994754
2775.411022
2775.261903
2777.828506
2784.726209
2783.710221
2782.54284
2785.376348
2786.174031
2792.141844
2792.030958
2792.066878
2790.636885
2791.897936
2801.301152
2799.795017
2802.572194
2800.351991
2799.624981
2807.52613
2809.186586
2809.654484
2808.022031
2807.97348
2814.039652
2818.63752
2819.330655
2814.571032
2817.389253
2824.493004
2826.252858
2824.321289
2823.554585
2824.277133
2834.390001
2833.541985
2832.348669
2830.625917
2831.066193
2842.537298
2839.011045
2838.365426
2839.642491
2839.592572
2851.209553
2849.313818
2848.914574
2849.783763
2850.547801
2859.264815
2857.415956
2859.467082
2858.438658
2860.389225
2866.082641
2865.907948
2867.804118
2867.997439
2867.375881
2875.266835
2874.927294
2874.191986
2873.694964
2873.925754
2883.372631
2882.260962
2885.997142
2886.039728
2885.584379
2891.732228
2890.552501
2891.372375
2893.308622
2893.187463
2900.465132
2898.156492
2901.695423
2901.345739
2899.011529
2909.374457
2909.129357
2908.976507
2909.550069
2911.55806
2920.224102
2920.127212
2919.998531
2920.678673
2921.280825
2929.658983
2933.507076
2932.262743
2932.666893
2931.927505
)
;

boundaryField
{
    upperWall
    {
        type            calculated;
        value           nonuniform List<scalar> 5(2946.330574 2938.89008 2950.606798 2940.192033 2936.406466);
    }
    lowerWall
    {
        type            calculated;
        value           nonuniform List<scalar> 5(2050.053891 2031.565543 2049.63859 2052.415887 2048.018859);
    }
    periodicX_half0
    {
        type            cyclic;
    }
    periodicX_half1
    {
        type            cyclic;
    }
    frontAndBack
    {
        type            empty;
    }
}


// ************************************************************************* //
