/*--------------------------------*- C++ -*----------------------------------*\
| =========                 |                                                 |
| \\      /  F ield         | OpenFOAM: The Open Source CFD Toolbox           |
|  \\    /   O peration     | Version:  v1706                                 |
|   \\  /    A nd           | Web:      www.OpenFOAM.com                      |
|    \\/     M anipulation  |                                                 |
\*---------------------------------------------------------------------------*/
FoamFile
{
    version     2.0;
    format      ascii;
    class       vectorField;
    location    "1.053e-05/lagrangian/dsmc";
    object      U;
}
// * * * * * * * * * * * * * * * * * * * * * * * * * * * * * * * * * * * * * //


100001
(
(2096.33535 -1643.637386 -1787.494061)
(-1256.535215 -2082.503675 -1496.717818)
(4456.319913 -568.9570505 1252.902171)
(1757.429051 299.9309142 -2197.081587)
(-73.76856819 662.4445284 -1138.60092)
(1125.578012 3445.595118 425.1204841)
(-506.6921275 -2641.095761 311.7041815)
(2043.986815 -1142.217605 644.832163)
(2018.817123 396.345687 -993.1248654)
(-446.2282654 -1290.555305 1140.920332)
(-749.6769837 727.1240098 -1582.791028)
(1591.091155 1666.400257 -2933.673661)
(-825.9354995 -406.6393122 -429.3991745)
(1972.040937 4807.344249 549.906226)
(1017.904682 -1783.044478 -1261.795003)
(484.140603 -393.5095388 639.2639971)
(3377.753234 -817.7443483 951.9544595)
(-1584.562315 -2387.666023 903.5044402)
(-2519.384983 3994.795338 -2218.301055)
(-2566.542237 -518.0897097 1531.860161)
(1938.744904 1819.539501 4780.905512)
(1789.465065 -1170.117935 -2439.627799)
(-1266.346769 -1828.113819 1756.050029)
(1693.262634 229.407026 2380.722467)
(-719.686793 2381.757632 895.5600818)
(1178.282707 790.7357602 -273.1834869)
(-1141.952637 4046.13504 572.0410783)
(-3395.98649 -2249.949989 1650.448366)
(-4728.78749 -96.89103098 1838.214834)
(355.1953233 1972.596397 2321.032304)
(-452.9702456 1011.529359 714.751765)
(625.0564151 561.727925 1631.7052)
(157.6919009 -432.2552695 1354.573691)
(-2085.360725 167.5243554 -2503.679504)
(-89.26352909 863.3134621 -595.8812306)
(1444.025802 -2422.757988 -2844.910492)
(-903.1112621 -999.0346633 -287.7293823)
(2655.424919 1858.800496 -2209.451824)
(1297.463263 1009.787849 1667.647281)
(-900.7843584 -2229.527763 -732.9593267)
(-4082.294234 -1831.238437 -214.7047216)
(-2225.357522 334.1696211 -1951.022258)
(-1354.18624 224.1120089 439.6037075)
(1661.666931 2306.047675 -659.6462588)
(-976.903651 -1649.647704 383.3601966)
(1568.500148 -386.2631085 -1482.030028)
(-2782.4527 -1194.986566 -199.4831714)
(2309.361061 1209.791643 -1695.632857)
(748.8974762 -1532.226725 -1708.843887)
(3099.772521 904.8514569 -2274.918717)
(1542.160778 447.3679072 2690.998319)
(-271.1741585 -279.344853 -752.0998295)
(75.96946529 1710.70342 663.5923556)
(2821.768686 -1965.814739 -2774.606628)
(-269.7529653 -903.5859697 -114.0557736)
(-3377.330246 585.9378657 -739.2400894)
(-374.6457049 912.7984805 -35.94527154)
(-3856.132957 -4690.832826 1620.929457)
(3294.885519 -3274.490365 1881.860072)
(-1268.151982 1849.355358 2379.729518)
(-4103.33929 -741.0424229 -2680.546822)
(-2088.781238 2072.747871 -491.8764044)
(1486.406989 2383.783361 -2252.014584)
(-2361.661963 -1126.73908 616.9369414)
(4372.544364 3441.712012 2154.784575)
(-1147.167045 2967.086729 -3347.87781)
(37.70071726 5946.24332 3174.509536)
(-1846.707151 3094.673972 -555.630067)
(85.49749609 1727.634491 225.6715249)
(-1105.435092 -2511.700667 -410.871452)
(-2914.240286 80.34117291 -3910.22632)
(-578.1685679 -3125.131845 -305.4948547)
(-1396.793613 700.3934262 -65.54939463)
(-455.3775249 2921.291765 589.6461752)
(-1682.248307 2329.825455 -2049.249496)
(-2305.84731 -407.4139816 -1802.984391)
(-1575.814177 949.3311911 -1233.389382)
(1867.278022 -48.36620766 -1223.606967)
(2329.48757 -2624.780675 -3047.53804)
(518.7872936 -3899.991394 2274.539348)
(422.4536084 1610.523784 1349.330478)
(-855.0297788 329.1287029 -5636.50695)
(-203.0439478 1529.421883 3853.823938)
(1422.203662 3326.710893 676.1005458)
(-1604.496053 224.257495 -1170.308661)
(-1603.387703 -3252.683517 -3955.383709)
(1407.422087 -3573.027128 1746.268432)
(-1181.183834 760.8874585 982.0474665)
(-866.2335382 -1487.230775 -251.0827925)
(-1255.341243 -805.7559586 2924.344686)
(-1355.818594 -2015.004302 2588.308723)
(-2790.9279 -998.8963066 -2690.63628)
(-1184.995457 607.0832853 2085.443618)
(-2312.16299 -304.8934983 -2655.000933)
(-893.8942522 1274.604944 -3566.837072)
(-1751.640115 -1799.268404 103.7894254)
(288.1972894 -551.4091029 49.49277614)
(2318.298681 785.0406725 3945.878845)
(-1698.000627 1523.617137 -2600.534322)
(2446.930831 1093.346602 -2806.059401)
(-3294.98437 -1565.401755 3535.71956)
(3038.405027 -869.8458497 2835.588108)
(200.9010607 2021.173327 -618.3681295)
(932.2673304 -812.7683006 -2755.677654)
(-1479.756226 -3376.603703 543.6201212)
(3113.608326 -2107.153212 4641.398562)
(-853.5267865 949.8687917 -4219.589612)
(-547.2781544 -2063.6857 304.6570478)
(1316.959956 2185.471613 1522.024582)
(1512.318587 -3765.143907 3537.39109)
(1259.273415 2486.471782 -2608.957609)
(717.9618675 681.6020958 1591.71973)
(-1231.205844 521.9333494 2210.085768)
(-591.7750179 -137.6064232 765.8149496)
(337.6873927 -1035.73456 -2657.62822)
(-1165.630942 3107.540008 140.2603512)
(-1498.774752 -1283.167637 -969.3142452)
(1397.742718 -752.8150763 -4209.653541)
(-1191.786944 1157.530234 -2337.4609)
(509.1619907 -904.9579946 2897.494206)
(-1164.990934 619.0530293 -2927.265584)
(4235.427883 -637.2573057 -1899.729662)
(-2371.205203 -2348.748106 462.2141197)
(-2871.29572 1000.632173 1736.154394)
(-310.219398 4408.069118 405.9240409)
(448.313428 -231.8149587 -420.9168271)
(-2068.333131 5751.497772 4120.453532)
(-1275.901132 -127.1086028 -542.8013586)
(2747.156243 -1622.464601 -154.4763981)
(-718.0537764 2098.482999 -1292.001901)
(611.08877 -4540.541554 1740.432607)
(1219.32006 881.2399048 1639.038283)
(2163.770948 -2873.744076 795.2905722)
(-5380.35531 24.27329624 204.6531342)
(-1489.917757 865.3628021 2147.909518)
(1481.109604 -1771.768517 -518.0732518)
(-327.8165678 686.0763957 -369.5275257)
(3253.900114 -2199.579214 1414.902359)
(-804.6367199 -1638.755671 -751.8119042)
(-435.6814417 -1085.95859 3217.968186)
(-1220.601235 -1535.548464 -3165.65186)
(-1303.90087 -1594.753822 937.6538483)
(2518.568565 754.064072 867.6607894)
(510.4594026 -2674.309902 478.2023151)
(1117.988947 54.97537751 474.6975345)
(-2215.402492 -6699.765952 1753.621576)
(2426.091422 4547.865451 605.7355789)
(-423.6125262 -1712.721993 -148.658109)
(-447.860783 285.5048978 -2078.365852)
(2081.20555 344.0937801 -3393.181684)
(-4355.158379 -1978.607117 315.323296)
(-1511.200248 1547.799366 1156.946691)
(799.4821957 58.90411071 2595.566042)
(2781.316116 1266.246816 3860.026346)
(2020.374245 -612.4075104 -1180.792473)
(-2049.81122 -1027.722352 -4128.17325)
(-3333.183359 258.9559218 1219.326292)
(262.976957 -2998.273194 -2585.240707)
(-2142.216991 -3138.716971 2201.903079)
(15.71101169 -917.2322333 298.4668091)
(-1434.782242 1667.146617 1490.756396)
(1380.824017 -649.2771041 695.0577329)
(-1005.127879 -1688.17084 -1665.984412)
(-2117.475376 2679.362469 665.882828)
(3946.12184 937.9045162 -494.0175166)
(298.515509 -2838.200214 -2400.283067)
(-306.9503402 -176.0184251 138.9346389)
(-1947.167772 1005.452311 2615.149666)
(-685.0508132 600.5373956 4083.020087)
(1259.529779 554.5658666 -4797.701964)
(2312.706138 -3368.773894 235.6361492)
(2154.377136 -1225.751623 -2799.241785)
(-2457.771782 1862.902417 -217.6879808)
(1278.228665 1395.561861 -1256.148082)
(1833.911311 -109.7922631 1384.201453)
(-3009.640554 -2046.700121 -3303.411536)
(1571.194525 2275.988781 752.4171417)
(-1949.863899 1697.181675 66.89146066)
(-1146.102748 -475.1501429 -1434.215282)
(-3587.76647 729.3496589 -794.4444638)
(1656.454942 -665.6501583 -3321.422297)
(2465.806685 -623.106395 2461.576159)
(1772.799922 2546.569782 -1632.308445)
(87.02551744 3178.998102 330.1114147)
(2785.733039 -355.4137484 1645.513153)
(1605.857819 -667.7620535 -1231.250824)
(1852.368815 -951.8327323 -222.5233683)
(-2494.720381 1225.857691 -88.539466)
(-1572.94618 11.37631581 -89.04208963)
(3863.125869 -151.5394532 -1207.964474)
(773.4126976 -3085.821531 -1821.791622)
(694.0312643 2024.8876 -1598.540815)
(3355.968822 -2412.864833 730.7518645)
(538.7523346 -1666.505074 499.6392225)
(2075.148422 -54.47672492 -3965.557829)
(1640.225189 473.4698883 -1570.656965)
(-2790.98172 2139.426333 -4043.306297)
(-253.5910739 107.1488061 -1632.819865)
(-3822.335424 2286.976103 2870.089229)
(-4709.735604 -1224.382538 3389.977861)
(2005.827498 -4065.050237 -3217.788631)
(-1856.720077 -2876.436434 -172.0448008)
(1653.23281 2443.002906 5313.6286)
(1442.101034 3344.684059 -4013.434625)
(-3116.212798 2097.928937 1582.422923)
(2127.783859 3824.167952 3889.370016)
(2059.80405 3304.99802 1032.301121)
(-971.6167006 605.1635191 273.3595898)
(1750.256751 1561.545894 1037.589337)
(1373.571725 830.3247185 -474.7143694)
(1767.774682 1367.239434 636.5735604)
(-2534.768004 -1014.563125 -1777.36707)
(-3291.446959 -2470.375411 4954.091056)
(967.3223074 762.7158371 2141.644867)
(1276.350167 437.5548109 -744.7968755)
(-883.0582567 -2629.367304 -4350.607192)
(3838.664789 -2427.536166 71.174618)
(-326.0775935 554.5581709 310.5996362)
(1927.960987 153.9740149 -1379.843302)
(-1027.589426 -625.2768914 -1993.613125)
(3320.963379 -826.6619593 -2314.143319)
(-5587.576436 1677.823747 -3314.49106)
(-2346.001778 -76.03546786 -2853.596284)
(-1015.426922 610.3745663 2863.33608)
(-849.2191496 1368.377949 -1892.982986)
(-980.7741152 6434.775385 3282.113768)
(-3298.863979 -2558.832608 1334.541196)
(30.67930156 -1886.823257 -992.2501697)
(-447.0299568 604.1018666 -981.4187218)
(1282.877868 320.0886135 -1215.269673)
(-2687.023281 -1517.695011 -2930.637274)
(-1640.381707 -1436.563566 -35.94575716)
(-4105.990597 -3526.826519 -3320.431833)
(-1886.152504 -1763.555168 -3809.79933)
(-1816.711213 -1174.575345 1443.176145)
(-83.61178472 2116.457778 3596.499052)
(317.0876138 2930.104755 2173.07454)
(4297.523049 -162.2068777 769.950208)
(-1744.743446 -3288.693188 -328.8296806)
(1805.041303 3562.058737 1401.414122)
(2024.905637 3201.678734 -214.2455612)
(-445.0426661 -1699.729533 816.9741658)
(-4012.275056 1014.17004 1458.188722)
(-1438.232327 -2149.015158 -3305.496378)
(-1732.4888 -603.1763538 3863.013178)
(2621.880469 43.12869949 5022.585764)
(-147.4788796 -836.5271414 910.3702202)
(699.9037102 1848.299675 -4511.645582)
(-3564.317212 857.5822363 -1832.371991)
(-70.3621481 1896.262736 649.1659044)
(-1372.403331 3201.452237 -2843.332049)
(2479.359004 2429.773241 2000.901516)
(-100.6596003 686.444872 -1879.330839)
(-361.4655915 2626.352466 -1464.512641)
(182.6533859 928.2729939 1166.885004)
(318.8141465 591.5043976 187.4523438)
(-1004.351691 802.6717967 5234.64347)
(432.2756804 102.2231679 891.8735616)
(-202.4589156 412.459855 -99.29602801)
(-1342.791677 -1766.1484 -78.02428589)
(2503.164067 2817.136566 725.750972)
(583.0934844 2583.217994 1127.271464)
(51.71218983 3797.325943 -534.6624243)
(-4585.962363 -1738.293301 1741.731519)
(380.6193673 -3203.212407 -5831.765035)
(1505.258997 -1666.546447 772.4773942)
(-2581.742552 -1589.719872 -1575.13625)
(2537.62877 2452.367721 1234.621324)
(-5168.732429 -2038.694692 2387.48552)
(1247.856632 -201.671122 1123.226761)
(-1782.133616 417.4884838 26.81858707)
(-1822.050407 -875.5100408 307.5063997)
(-1168.7085 597.8779736 -1044.528736)
(305.2794015 -1483.336017 -323.6401642)
(-1475.481907 -575.5365566 2413.87358)
(622.7229552 -2752.914047 160.7139153)
(-1380.69854 2375.900024 1216.607276)
(1536.852948 -2265.525111 802.6321564)
(1449.823346 1976.660851 -756.7939987)
(3367.090027 -237.1187685 1586.724893)
(1830.03029 185.2051583 1375.202183)
(-220.3286556 2314.491376 -2480.540541)
(-900.9500358 2315.326442 -3111.187945)
(-240.5646518 -188.9541862 -2799.564802)
(-637.7364856 2393.568381 456.0305212)
(-1479.594301 -1318.22717 -2801.364477)
(2509.554494 2693.014285 3693.221724)
(-2244.078615 -17.97241973 977.5855858)
(-2933.630409 -200.0702044 -590.7226025)
(917.0060531 4312.560372 -2321.376455)
(-1219.830301 227.9227186 3619.594715)
(-209.6705696 -515.8289052 -1946.63957)
(3118.92137 347.4033342 -1720.494274)
(3067.024153 2326.453182 1485.560162)
(1338.888983 3016.495929 2211.431438)
(1510.704417 -1234.42612 -116.669791)
(1743.82821 -427.8816616 360.0630166)
(439.5230255 -142.7484568 4814.7903)
(1127.666505 -1363.509359 427.4765478)
(-1688.035845 1525.418269 2324.893078)
(-2543.997818 -1297.636772 -997.602895)
(2098.36 -3678.077338 771.8993089)
(-1.678752873 -700.9655068 2662.738622)
(1745.526225 -1175.857807 -4263.332359)
(-1813.304267 2124.862518 -1759.909105)
(2784.303793 -1522.329297 1938.605602)
(550.0324733 2169.896304 3450.847206)
(-3199.986413 -1162.545913 -650.2870125)
(3224.6058 2277.108484 -2282.918459)
(3107.514719 -8.278701837 1604.708094)
(-622.070061 715.8553412 -5616.295466)
(1432.143205 -1982.875045 2478.782509)
(-2523.644184 -83.49958099 1788.981344)
(-2058.998515 1881.82166 5045.608617)
(2389.943477 -2048.930832 698.7965607)
(3830.214675 955.9745063 -1124.821165)
(-174.2217198 1315.152693 -555.3547764)
(227.4591618 -1252.139577 433.5739395)
(-643.8387542 -547.3131973 -2739.403808)
(989.2802467 -828.5471429 27.11413975)
(2252.321143 -2951.898859 1417.950156)
(-304.5143059 374.9628043 -2262.828571)
(-926.461578 -880.0578224 -1401.340404)
(1003.04915 -2481.36888 740.162514)
(2081.466391 -759.690399 -2904.004096)
(92.68996606 -72.87426659 -2165.594543)
(-1689.95334 5141.261025 -323.8764706)
(-1232.094984 1341.477734 323.3536425)
(-793.4054685 -611.2736293 -4324.410475)
(550.0816576 371.9822722 -30.40750931)
(-1089.107509 4170.447181 -1527.182867)
(-750.4295818 -1029.682427 645.7253825)
(-1757.657627 -2934.286493 -73.58724921)
(-2479.762328 324.6641628 -1892.195841)
(3243.590463 1569.846849 -1319.529715)
(-701.6763392 -2198.423665 1226.771059)
(-2494.076638 -2279.708273 -2279.422347)
(483.8302969 3275.33946 -1588.177428)
(765.5008225 648.794361 4755.249817)
(731.2527697 -2456.518092 -662.0854691)
(756.4566573 -551.9177709 407.3619591)
(202.2657979 -1757.194839 901.0514473)
(2596.494229 1890.519601 -1449.817377)
(-788.2156222 3043.538781 -110.001675)
(-2946.252478 588.1967983 2194.928336)
(4004.974203 1028.03469 656.1716152)
(-2227.499501 1965.668926 107.5863575)
(-834.296469 -1040.227273 523.6259688)
(-713.8084067 -113.7354903 -333.67755)
(1160.111487 3176.530603 -997.6973129)
(-797.8895361 1838.508954 2839.285068)
(-34.0295105 -3877.171819 -2854.092112)
(-1520.795806 -2949.353864 402.2636999)
(-2323.615279 -2447.881212 -1379.916946)
(-3727.767304 3600.646242 1244.204296)
(-171.0548631 -1494.627518 -186.4278962)
(-13.86990248 -1270.683633 1619.753742)
(-3066.848879 1939.131901 2356.694206)
(-651.3256186 -2252.462574 1031.705971)
(-2053.135035 282.5885195 -677.7287842)
(29.46070174 -2955.617265 712.3654415)
(-2162.156388 -1115.662437 -1228.599821)
(506.3346036 -1228.458091 -2755.799335)
(-2178.496088 1821.984712 1344.581266)
(-1354.13416 478.4198162 -2305.315645)
(-164.6363896 966.3442282 1094.471887)
(-364.5479572 -2181.178502 -1021.974913)
(671.6893015 -910.6631526 -188.0965926)
(2590.965553 -2459.12042 -1021.759584)
(-1754.974124 52.23565806 -1967.404101)
(-1590.56615 -2347.269159 -1401.279672)
(-2328.66058 1302.432716 1932.169025)
(78.65966695 -1022.851132 -723.6749629)
(-2737.316659 -1654.626787 950.3802985)
(609.5831918 4847.130436 1956.42252)
(153.8456835 2710.23123 -2558.644781)
(-1927.055478 -3285.443946 270.4942137)
(-436.9411634 -2591.598611 -3691.011434)
(-1672.809065 -1894.854609 -2551.980686)
(-649.6621691 1245.509861 -1993.21037)
(2603.266678 -4402.643727 3159.497848)
(-1886.477192 -526.1617606 -753.6025601)
(2300.779143 2265.925324 -3336.249796)
(1096.898302 -2101.747378 -1449.254732)
(1209.254861 -408.8856144 -2078.459631)
(-694.4475852 -634.402969 2462.860159)
(4782.320104 642.2367799 -2763.804454)
(1064.649936 -2668.043813 -966.2171135)
(-578.7526734 2140.064272 769.8286804)
(-1513.949664 -3597.655415 1535.001041)
(191.8627196 -42.1790012 -4001.649921)
(227.9503354 -1038.705404 452.7363286)
(1968.395659 -312.5923219 411.3913317)
(-2263.546135 3126.317561 283.4905367)
(-5750.591409 182.2757816 298.2507969)
(-785.1553983 -78.75480009 -2685.064671)
(-259.7177808 432.9539965 331.262926)
(384.5341075 -939.1196008 -3155.145872)
(298.584067 2036.01228 691.8474017)
(-1074.014802 3588.373925 2128.678313)
(2871.313188 -3900.85022 2557.634387)
(-399.8625334 2201.422151 3450.17645)
(-1913.907867 1137.228677 -2116.452386)
(-1837.296677 -1054.219739 3570.601436)
(223.6161988 -1103.645328 -732.916059)
(719.3607017 -2173.195095 -1687.328983)
(1652.524 -978.2466224 -637.1445126)
(-1741.013416 -2559.261979 -2620.264781)
(-2591.920053 1197.671427 -1689.429956)
(-1738.318723 -629.900455 -84.10070707)
(1646.448746 -836.4137565 -783.0788758)
(3136.375469 2820.91405 1287.052602)
(-999.9099402 -2287.459034 -1234.726224)
(1659.307987 2210.969026 1274.957621)
(-865.1788088 -2635.716203 -2334.152745)
(-2645.270035 -1048.031515 571.8634742)
(-185.6464817 3338.893049 1923.179447)
(694.0366936 1777.726207 1000.357517)
(-787.9175162 735.0282346 -264.8824846)
(-267.6865377 -2381.281515 -2095.280244)
(2664.865416 515.4684488 -3439.316993)
(-1288.972781 -1454.483923 1110.072781)
(-1655.760596 3124.734971 116.4964516)
(-3020.168834 -2075.808521 -1901.204657)
(-4046.705557 456.7282992 2225.639391)
(1239.955188 -3548.785515 1584.885918)
(-1955.646471 -506.1221734 -2010.073743)
(196.8942446 -2427.158477 1449.870856)
(1674.50904 -468.3756298 635.1286677)
(-792.6285899 -3636.807279 2374.322282)
(-1244.181628 -122.3521122 -631.1362157)
(-217.930205 -1435.228598 2693.761276)
(-3094.177275 161.2301813 1311.457891)
(-2543.076286 1049.743419 -223.8533993)
(1118.076134 3226.634433 909.248911)
(3467.124843 -1305.127175 -33.2725069)
(791.8568147 319.7306301 -1133.585408)
(2102.122994 -10.04883195 -66.48588798)
(1818.203019 781.3456503 -1699.68965)
(1652.390744 3602.56395 -407.1249945)
(-3093.623489 2133.719749 -1238.244256)
(-88.94586199 -1280.347559 2092.571564)
(-1207.166048 -337.8285793 -1822.750918)
(-422.6510844 -1085.045598 2609.388203)
(2289.619699 1372.718085 -288.1463639)
(-1948.41672 1115.852461 4056.638098)
(4312.777482 303.6470944 -2347.761936)
(3800.662684 -24.21855598 -50.80184235)
(472.9731752 2251.062347 2106.167243)
(1009.917667 -623.9459544 2185.473273)
(3870.331579 2202.403957 2459.13852)
(-837.6676758 129.5168847 -611.5843074)
(5140.071693 2028.09013 2391.894034)
(335.7806111 -3296.633421 1280.236748)
(-1254.687671 882.0448754 528.2556792)
(1180.559674 -161.6022816 -2385.710912)
(-1766.424435 1066.887806 -5523.709974)
(789.391668 2085.220332 -1640.583396)
(1389.910999 1448.280932 1882.471702)
(430.1206185 -3026.386277 -1570.522442)
(-1839.920724 503.7702309 -3118.176021)
(-1088.219884 -2012.16916 -1049.042222)
(-2339.245659 556.9685312 -1535.082817)
(-632.6351888 -2593.736838 -3414.037793)
(4309.099219 -2891.353059 3190.330212)
(-2636.506829 -1739.984028 -2499.458855)
(338.816113 -2499.785256 199.593501)
(2644.867215 1605.30131 1582.558436)
(712.1891215 4734.567602 -1256.466256)
(1660.189576 520.6194757 716.6824253)
(3319.251474 751.5257845 543.5102653)
(2638.030909 -2651.547927 709.3111077)
(-2817.032974 2848.154183 -281.4463394)
(-1271.480453 4333.312317 -3388.00377)
(503.3775195 -653.0088033 4821.748121)
(-2494.82237 390.7984588 -1844.204801)
(2695.702742 2351.353601 2183.62615)
(-523.147883 601.5052442 5095.176529)
(-881.0922263 -33.62172253 -721.9116794)
(241.9203915 -5303.811621 2242.481196)
(1421.608367 -1334.808937 2917.69057)
(-1478.222911 927.7660376 -843.4431916)
(-1215.758564 1644.688177 -296.8949334)
(2426.708617 -1493.042103 -943.3302547)
(-791.4182301 -3707.769764 -1037.997525)
(-690.8604762 2331.838747 2816.481727)
(1993.438472 649.2410453 -683.9583473)
(1713.915044 282.5645606 3324.672894)
(-4480.297181 -773.2623417 630.9621109)
(274.4937124 10.28934854 -881.8239015)
(-544.0414904 -1630.920575 1778.001879)
(-2933.806466 -2887.63465 -2274.712541)
(380.4077426 1676.617811 -1111.431899)
(-3630.828704 359.2153271 302.3249419)
(1141.915741 2893.664081 1085.831596)
(758.5028304 -2988.411557 2541.067204)
(677.6484277 2636.110366 511.5418672)
(1778.252518 205.9600593 -38.69923681)
(-3358.997977 2532.02217 1238.759669)
(-3186.019503 -69.4795832 3523.796234)
(4571.802058 -2839.491933 2272.297043)
(-2136.913917 805.961785 1187.561671)
(-1064.525607 262.3428335 -2860.169412)
(-1045.153198 -2822.836922 360.9313762)
(2867.633815 1908.403431 -1541.419914)
(2712.664343 1378.661052 -2306.230349)
(457.8510539 -2294.516799 417.0494146)
(1830.252767 -2753.246365 -2752.302204)
(-3010.817185 1002.580675 -3229.015627)
(-1161.489701 3282.89781 -2123.159775)
(1754.888328 1302.297949 -259.6314185)
(381.2038787 -530.1161389 1904.771572)
(-835.7640902 -666.7605481 -1468.810658)
(1221.777188 -3555.48076 -1724.656029)
(-1233.65393 -1501.973153 -1435.57179)
(255.7355258 566.6075768 -2411.95944)
(1125.001549 -323.0447953 1371.302585)
(2878.864927 1107.234937 2260.982655)
(634.9624573 436.7379871 -2267.611979)
(1354.634959 2016.141466 -1985.886744)
(-993.3592427 -257.6991812 2777.06608)
(-1522.484608 -749.4665277 67.73456685)
(282.8736591 -1761.495496 -799.0007606)
(-3447.897178 1425.73802 83.98824123)
(-1612.869251 -1106.070873 2703.565319)
(-1016.506581 -218.2220035 933.2771236)
(-1138.462068 -867.7548798 2856.857641)
(-546.6955782 -900.000617 405.2572676)
(-694.8435831 2230.317681 -376.7909207)
(-4011.175964 450.6294677 -1390.068486)
(-1606.368814 4081.021942 593.1952056)
(3714.989459 3894.071119 1618.597712)
(-1201.879724 -137.8329279 -2733.896531)
(-914.8316001 6298.38315 -2858.217737)
(-1289.522807 -573.0191226 586.7176804)
(2975.977026 330.6134379 1230.813685)
(-2532.173117 -4088.686435 -3545.862654)
(2580.201842 480.9722313 3286.085323)
(-115.2265713 235.6051905 1339.136297)
(2424.736751 -1020.849527 2128.801725)
(43.86090823 -975.8535369 1524.412691)
(-2401.044731 -692.2448246 -792.2357901)
(1820.68366 -1214.16824 1770.075462)
(74.27893285 -543.8593403 -5764.714253)
(2833.293475 -2363.089911 2551.998263)
(-3551.79113 3509.719071 -638.7031992)
(2947.872677 2391.985285 -1754.067679)
(880.735432 1329.843601 58.11889103)
(1154.289965 -749.7741848 -13.16569472)
(386.9902403 -1236.711746 993.9669429)
(-351.9480749 2165.395398 -1379.672514)
(-2414.094733 498.073877 -1548.660832)
(2642.547983 305.3425097 4476.399188)
(1517.033062 1948.428302 -1357.214579)
(-2344.967449 -989.0085891 -530.19559)
(-4390.206325 -3679.878222 -535.2008249)
(-1402.648626 433.8085025 4813.844839)
(-269.3244111 -1908.608922 -3769.93076)
(-2231.380612 2984.293889 -4357.738327)
(-2748.92841 2012.181519 -1049.857225)
(1206.667788 11.07096543 -1736.902309)
(4730.718617 140.6970733 -1783.956159)
(-1877.87073 450.0914962 1548.53467)
(2939.629495 2269.756282 -2120.981879)
(816.6459194 -247.4528816 -1628.535144)
(-1788.545186 -538.6277119 -1465.278236)
(3472.568616 2358.362421 -906.077968)
(-1576.805046 -3317.060019 -1401.041814)
(-239.7828969 2636.115197 3553.074262)
(1945.874897 1084.540116 4148.024965)
(-1407.491711 -1707.731958 -7.805406223)
(-109.2942889 1386.227597 -2155.870442)
(487.1650009 -2703.011313 947.6460748)
(174.5032663 -317.9181299 -1269.421908)
(121.0093218 -2177.606978 5373.462625)
(1070.003194 1678.646772 3086.089061)
(1368.141812 -4985.74457 1613.659839)
(2448.602221 227.9382839 -2533.490553)
(1601.218975 80.65247888 1728.677086)
(727.7291954 760.4157116 26.28632876)
(636.1141598 -175.1778006 -4304.78022)
(-2033.165104 988.4238991 1564.206258)
(731.3722878 1023.595334 -633.5218392)
(-3046.104724 576.8622515 -254.460743)
(1760.473539 1980.831601 -4719.38477)
(143.1709345 2779.47397 3927.007434)
(-1011.843804 903.5080408 -1565.787057)
(2781.762774 1873.748977 5586.247843)
(1531.248961 829.0309666 1185.190552)
(1928.07989 291.8485728 877.3804682)
(1154.613758 -1925.409321 3179.691017)
(-2960.146977 7987.529077 -3307.170639)
(-214.6844519 -928.3675391 2961.296508)
(-1829.943832 3114.602578 -950.7328005)
(-2077.823767 1757.15809 928.838404)
(415.4024828 1811.329422 -2252.062098)
(1891.191078 -539.2537541 -3424.3425)
(1465.634498 -848.1963065 4071.121389)
(1947.196894 -568.110744 948.9889281)
(1294.839596 886.6534573 -1270.859909)
(-1375.43384 -570.1454554 143.1182488)
(1025.628662 479.4494741 -1296.448117)
(1532.614141 1101.536957 -3427.279859)
(3386.937823 1188.586803 2163.821112)
(813.1622373 -323.229568 179.4900831)
(724.5018557 -1249.522267 3190.33283)
(1587.348849 -2529.775666 1630.606187)
(682.4947714 273.2822915 -630.8017457)
(571.8999257 -2674.723341 -412.3795348)
(-1846.217588 3255.61355 -223.4085543)
(594.5008112 -2724.351067 290.4162272)
(-4039.104072 4169.017868 842.4037491)
(-3183.51435 -1685.738106 2271.227157)
(1653.872349 -2093.031705 -737.9305048)
(-1765.604873 2138.907892 -2804.140222)
(-1412.471913 -3130.775074 2303.599486)
(1265.509632 494.3697616 469.5611169)
(1191.815065 2854.232771 -3687.72866)
(-151.3502202 -234.1552116 3280.757212)
(1251.945149 297.7406893 -1461.058199)
(1574.64544 808.4438803 1555.457917)
(1269.276865 -1057.35802 2806.180387)
(1538.335587 -3144.860543 3277.608448)
(-80.61675847 -1845.641594 2686.471254)
(1140.351943 -1892.500622 975.4095676)
(2719.208328 917.5315121 1323.687957)
(-343.1756486 -1818.821452 -3788.485465)
(-937.7916811 736.3829582 584.7935085)
(2255.518989 -743.2243536 89.22651717)
(-3336.902945 28.49910974 -28.25688547)
(76.10553823 -229.0637768 2423.564655)
(1541.488353 1629.916766 1673.984577)
(-1055.470325 1678.81074 618.9309806)
(-1274.066168 2336.071283 -711.5307372)
(3074.895882 -3595.828731 1932.958694)
(3656.365424 2435.539379 2398.974607)
(-6217.488087 -1115.076005 -2479.324935)
(2049.316376 991.7398228 -4649.269681)
(-1676.789761 -3811.344685 -1790.493725)
(-531.6099891 -888.6379432 107.6325155)
(-1646.265032 -360.0353486 3361.667067)
(1238.088736 1631.905631 -2388.970892)
(-449.4591551 -4186.521618 -5369.358712)
(3968.267529 347.0483725 -1233.113757)
(-2151.489515 2326.287774 1994.207499)
(-2867.443965 -1654.339169 1336.674162)
(2976.619911 1485.475989 -802.0544929)
(-209.3367452 2266.086274 -3165.375388)
(-546.5464239 -4274.034097 890.6142155)
(-143.4018229 -229.1815743 2567.895536)
(-1234.729704 1056.791445 2304.247365)
(-564.74744 -431.394828 489.7134285)
(-3643.424753 -360.7696585 303.4470876)
(-431.7824626 171.5431714 -1575.681927)
(1380.707684 -680.8827084 -1053.699294)
(408.4293999 2728.830311 291.7520472)
(2395.285572 7044.380663 1156.926223)
(460.6414573 739.2652005 801.5265099)
(1543.522312 4109.317262 1588.496832)
(2595.911975 1345.035195 1930.493077)
(1414.196273 2365.079568 292.0633535)
(1502.208915 -546.7405961 584.0314155)
(-2636.490981 -2273.889948 -226.2070743)
(-1481.302585 279.1097617 1114.220273)
(-961.6841832 1188.027635 3642.974774)
(1388.708438 1108.468276 -733.6612425)
(2217.700779 1677.204797 297.5429426)
(2202.699872 2026.399897 83.84413161)
(204.5855136 -406.2040669 2198.620919)
(-7344.675479 -554.0674785 -1242.169016)
(-602.2925496 3571.398716 318.452848)
(2636.235581 3956.968575 351.3481572)
(-2094.456697 -2270.520689 -2175.110785)
(1766.417811 4340.078146 1686.297853)
(717.2388412 -4918.560504 -612.3435175)
(731.5503122 -1953.534517 -596.3562775)
(-3510.903517 1922.003972 3144.301321)
(-410.140249 -4128.535465 -1484.2967)
(842.1309155 543.6327143 -3061.89938)
(-1494.070053 1895.785038 -2157.785538)
(-388.8840675 -3811.751013 -2582.299612)
(162.4899514 4179.481785 2408.706709)
(1527.818544 431.6257578 4744.295327)
(-30.05786491 4658.877795 2280.353906)
(-1415.826129 4142.786309 3545.450575)
(3019.932999 -12.43412103 -627.9596884)
(307.3535875 -449.8296003 -431.6886828)
(1186.984729 1305.173533 202.0050789)
(1927.186961 1060.063105 -695.4669933)
(2188.64832 5648.829313 -2453.806012)
(1547.921561 -2148.375049 -3115.785858)
(-1511.563661 1398.31486 -373.4573212)
(-3039.055094 -487.2582267 -1788.088999)
(-1906.482917 -756.5151202 878.1538563)
(-641.9299253 1752.998739 -2205.434484)
(914.1962799 -4244.192664 -456.0194626)
(901.2458483 3143.62918 -1709.341117)
(-1291.597728 985.6101835 -2837.252249)
(1643.796524 3973.255308 -2669.764534)
(2064.144095 3607.451007 1788.116649)
(2560.273058 1082.557877 2104.315873)
(3931.115111 -1823.052066 -919.1772563)
(-1662.347075 -4268.160595 1703.869137)
(701.8297813 -996.5740988 1189.342801)
(653.2103338 -2655.031494 1002.873949)
(-1501.215323 -2714.204116 1738.476748)
(4553.713973 484.9832484 -631.3536737)
(882.717125 1164.2288 1666.834935)
(2229.022464 -1931.479651 28.6901296)
(-1104.50371 -2969.23357 738.5267104)
(-606.0700953 1549.899709 3592.744625)
(-947.7796663 378.2388218 -68.9893502)
(-1986.126303 -1183.762384 -844.0953689)
(-720.441827 2066.041825 -3367.871829)
(230.4013029 -1084.374844 -4304.378317)
(129.1729224 4948.371226 -939.4096523)
(-261.8674278 -717.8666987 -1303.836858)
(-788.4513499 -1623.254449 51.04218413)
(2593.209876 -2390.688704 1784.645984)
(-192.5756074 4514.346139 -2727.743897)
(1297.859222 -1198.192001 -1627.379956)
(-342.5462538 -1503.414839 -227.1103872)
(-2312.507729 283.7853214 -866.0356585)
(-447.8107727 -986.745556 -231.0081672)
(1188.579946 2000.061307 -1829.817266)
(647.9940124 1637.098154 1587.733385)
(-2231.587407 -4669.581329 -446.9972379)
(526.8976538 -3977.05788 -333.7354106)
(-2934.849044 705.613907 227.060869)
(-949.3849397 -771.234762 1999.12218)
(2118.110132 -758.1424798 -1310.158948)
(-533.9194807 -278.0848637 -2566.61971)
(-1509.393236 565.4639271 1543.264379)
(3148.206676 -1607.804667 39.1834928)
(-1126.888383 4685.064227 5325.543652)
(2559.180136 86.85824669 -819.4188834)
(1287.246156 -1048.90105 -2261.207726)
(-865.9728848 1089.029607 3398.392941)
(-1943.647985 367.0349238 285.1443415)
(2177.274557 5.654104353 -607.6102008)
(-53.40555634 -39.41866892 -908.4251634)
(-2788.224127 -1459.124429 698.9955131)
(-1085.569933 -1723.060886 4530.231133)
(-3059.399257 1343.272318 873.1216362)
(-417.6183552 2794.552286 4.943176647)