/*--------------------------------*- C++ -*----------------------------------*\
| =========                 |                                                 |
| \\      /  F ield         | OpenFOAM: The Open Source CFD Toolbox           |
|  \\    /   O peration     | Version:  v1706                                 |
|   \\  /    A nd           | Web:      www.OpenFOAM.com                      |
|    \\/     M anipulation  |                                                 |
\*---------------------------------------------------------------------------*/
FoamFile
{
    version     2.0;
    format      ascii;
    class       Cloud<passiveParticle>;
    location    "80/lagrangian/pd";
    object      positions;
}
// * * * * * * * * * * * * * * * * * * * * * * * * * * * * * * * * * * * * * //

8192
(
(2.92416198125 0.005 -0.005) 119
(1.42764181217 0.005 -0.005) 58
(0.729039547387 0.005 -0.005) 29
(0.122652194272 0.005 -0.005) 4
(0.950699157279 0.005 -0.005) 38
(0.918144471575 0.005 -0.005) 37
(1.4231760477 0.005 -0.005) 57
(0.760636490892 0.005 -0.005) 30
(0.0428864981014 0.005 -0.005) 1
(1.01097889662 0.005 -0.005) 41
(1.03105304768 0.005 -0.005) 42
(1.79580898186 0.005 -0.005) 73
(2.90568471216 0.005 -0.005) 118
(0.788320689254 0.005 -0.005) 32
(1.43288832044 0.005 -0.005) 58
(0.397922126945 0.005 -0.005) 16
(0.739943701419 0.005 -0.005) 30
(0.145489726518 0.005 -0.005) 5
(2.38479619067 0.005 -0.005) 97
(0.461854742624 0.005 -0.005) 18
(2.88810531325 0.005 -0.005) 117
(0.11645758495 0.005 -0.005) 4
(1.14888377433 0.005 -0.005) 46
(2.96212586583 0.005 -0.005) 120
(0.464078274339 0.005 -0.005) 18
(2.37747476333 0.005 -0.005) 96
(1.1170711172 0.005 -0.005) 45
(1.04655406255 0.005 -0.005) 42
(0.636902866119 0.005 -0.005) 25
(1.09864964915 0.005 -0.005) 44
(1.99198238398 0.005 -0.005) 81
(1.60309592804 0.005 -0.005) 65
(2.51921001447 0.005 -0.005) 102
(3.10724517423 0.005 -0.005) 126
(0.449145085231 0.005 -0.005) 18
(0.480373378957 0.005 -0.005) 19
(1.44133673513 0.005 -0.005) 58
(2.37248968631 0.005 -0.005) 96
(2.01276609172 0.005 -0.005) 82
(1.44086862375 0.005 -0.005) 58
(2.27975042445 0.005 -0.005) 92
(0.0888272568322 0.005 -0.005) 3
(1.18899872586 0.005 -0.005) 48
(0.386436700537 0.005 -0.005) 15
(2.76775304518 0.005 -0.005) 112
(1.8131745575 0.005 -0.005) 73
(1.00625234762 0.005 -0.005) 40
(1.65031315873 0.005 -0.005) 67
(0.690631419972 0.005 -0.005) 28
(1.00493229344 0.005 -0.005) 40
(2.39954963196 0.005 -0.005) 97
(1.33084576194 0.005 -0.005) 54
(2.46659203052 0.005 -0.005) 100
(3.01328907679 0.005 -0.005) 122
(0.115392970868 0.005 -0.005) 4
(0.469986562974 0.005 -0.005) 19
(2.62192187846 0.005 -0.005) 106
(0.74087576671 0.005 -0.005) 30
(1.80459506266 0.005 -0.005) 73
(1.75863620998 0.005 -0.005) 71
(2.55446646275 0.005 -0.005) 104
(2.86741356186 0.005 -0.005) 116
(1.19919909321 0.005 -0.005) 48
(2.25275882012 0.005 -0.005) 91
(1.63353086787 0.005 -0.005) 66
(0.550266181089 0.005 -0.005) 22
(1.34556506599 0.005 -0.005) 54
(1.19929971988 0.005 -0.005) 48
(1.98528387367 0.005 -0.005) 80
(0.387444997773 0.005 -0.005) 15
(1.47571184302 0.005 -0.005) 60
(1.24449464222 0.005 -0.005) 50
(1.81017071378 0.005 -0.005) 73
(0.396603254483 0.005 -0.005) 16
(1.39620852804 0.005 -0.005) 56
(1.92271706165 0.005 -0.005) 78
(3.08067056194 0.005 -0.005) 125
(2.88395859439 0.005 -0.005) 117
(0.0136765059461 0.005 -0.005) 0
(0.872577172094 0.005 -0.005) 35
(2.1324147485 0.005 -0.005) 86
(1.76063359393 0.005 -0.005) 71
(0.596881767918 0.005 -0.005) 24
(1.4024093744 0.005 -0.005) 57
(2.25549805583 0.005 -0.005) 91
(2.05186884133 0.005 -0.005) 83
(0.245573350306 0.005 -0.005) 10
(2.88146549324 0.005 -0.005) 117
(1.03877781548 0.005 -0.005) 42
(1.71492230638 0.005 -0.005) 69
(0.940075909379 0.005 -0.005) 38
(2.543137977 0.005 -0.005) 103
(2.10933280619 0.005 -0.005) 85
(0.601140249998 0.005 -0.005) 24
(2.08973519462 0.005 -0.005) 85
(0.743717858077 0.005 -0.005) 30
(0.95021470693 0.005 -0.005) 38
(1.63376376597 0.005 -0.005) 66
(0.13922813512 0.005 -0.005) 5
(2.51970552245 0.005 -0.005) 102
(1.87693084605 0.005 -0.005) 76
(1.2602992064 0.005 -0.005) 51
(1.82187323443 0.005 -0.005) 74
(2.32993328938 0.005 -0.005) 94
(2.54401624285 0.005 -0.005) 103
(2.84540177454 0.005 -0.005) 115
(1.8628617404 0.005 -0.005) 75
(1.15816702184 0.005 -0.005) 47
(0.56537317061 0.005 -0.005) 23
(0.616423626321 0.005 -0.005) 25
(2.384669998 0.005 -0.005) 97
(1.44257887119 0.005 -0.005) 58
(1.53113974361 0.005 -0.005) 62
(0.738480510187 0.005 -0.005) 30
(0.933548571652 0.005 -0.005) 38
(0.172748307963 0.005 -0.005) 7
(2.00213088818 0.005 -0.005) 81
(0.572797813271 0.005 -0.005) 23
(1.17283351554 0.005 -0.005) 47
(1.4318286718 0.005 -0.005) 58
(2.1316713656 0.005 -0.005) 86
(3.11045761581 0.005 -0.005) 126
(2.81236580945 0.005 -0.005) 114
(0.440609270334 0.005 -0.005) 17
(1.38993687557 0.005 -0.005) 56
(0.823833030943 0.005 -0.005) 33
(2.46731748338 0.005 -0.005) 100
(0.26438810905 0.005 -0.005) 10
(2.23409161005 0.005 -0.005) 91
(1.15547227942 0.005 -0.005) 47
(0.947338305212 0.005 -0.005) 38
(1.99717736068 0.005 -0.005) 81
(2.77271454362 0.005 -0.005) 112
(2.37982642123 0.005 -0.005) 96
(0.5297743283 0.005 -0.005) 21
(1.4668317826 0.005 -0.005) 59
(1.304502931 0.005 -0.005) 53
(1.97543955713 0.005 -0.005) 80
(1.6447698122 0.005 -0.005) 67
(1.11204652448 0.005 -0.005) 45
(2.57752702114 0.005 -0.005) 105
(2.5200108772 0.005 -0.005) 102
(2.33938369733 0.005 -0.005) 95
(2.27326770334 0.005 -0.005) 92
(3.002834888 0.005 -0.005) 122
(1.21942674312 0.005 -0.005) 49
(1.45763185662 0.005 -0.005) 59
(2.79571604092 0.005 -0.005) 113
(2.44127678628 0.005 -0.005) 99
(0.212695313281 0.005 -0.005) 8
(2.9604158123 0.005 -0.005) 120
(2.69940290711 0.005 -0.005) 109
(0.426753893561 0.005 -0.005) 17
(2.10217979515 0.005 -0.005) 85
(0.283120411757 0.005 -0.005) 11
(1.22452417544 0.005 -0.005) 49
(1.63154590642 0.005 -0.005) 66
(1.20840957896 0.005 -0.005) 49
(1.42715790595 0.005 -0.005) 58
(1.78102790454 0.005 -0.005) 72
(2.11082665256 0.005 -0.005) 86
(1.90178192214 0.005 -0.005) 77
(1.62681844753 0.005 -0.005) 66
(0.685018657301 0.005 -0.005) 27
(0.604145524313 0.005 -0.005) 24
(2.22490073696 0.005 -0.005) 90
(1.10803202942 0.005 -0.005) 45
(1.51249563704 0.005 -0.005) 61
(1.00140629713 0.005 -0.005) 40
(2.28247856407 0.005 -0.005) 92
(0.586764548014 0.005 -0.005) 23
(1.5646383115 0.005 -0.005) 63
(1.71952759287 0.005 -0.005) 70
(1.77754394883 0.005 -0.005) 72
(2.32855293115 0.005 -0.005) 94
(2.46637302163 0.005 -0.005) 100
(2.92228012172 0.005 -0.005) 119
(0.248334016417 0.005 -0.005) 10
(2.8265440637 0.005 -0.005) 115
(1.91543477376 0.005 -0.005) 78
(0.420130922233 0.005 -0.005) 17
(0.989884925503 0.005 -0.005) 40
(1.55826850894 0.005 -0.005) 63
(2.54445082165 0.005 -0.005) 103
(2.25208113227 0.005 -0.005) 91
(2.76341307537 0.005 -0.005) 112
(1.36525880438 0.005 -0.005) 55
(2.91868525823 0.005 -0.005) 118
(2.44048007287 0.005 -0.005) 99
(1.23355539961 0.005 -0.005) 50
(2.23737601332 0.005 -0.005) 91
(3.09492434843 0.005 -0.005) 126
(1.18441602974 0.005 -0.005) 48
(0.978892209005 0.005 -0.005) 39
(0.174707842553 0.005 -0.005) 7
(0.177705587227 0.005 -0.005) 7
(0.248334291804 0.005 -0.005) 10
(1.70397283784 0.005 -0.005) 69
(2.50561400195 0.005 -0.005) 102
(1.50777998774 0.005 -0.005) 61
(1.85147461609 0.005 -0.005) 75
(0.929794253166 0.005 -0.005) 37
(0.550133768044 0.005 -0.005) 22
(3.13359409807 0.005 -0.005) 127
(2.56754762785 0.005 -0.005) 104
(0.139745891342 0.005 -0.005) 5
(1.45310435267 0.005 -0.005) 59
(2.40122765079 0.005 -0.005) 97
(0.341281231908 0.005 -0.005) 13
(1.17577123195 0.005 -0.005) 47
(1.11887216323 0.005 -0.005) 45
(0.0199603177716 0.005 -0.005) 0
(1.7554368641 0.005 -0.005) 71
(2.16984294637 0.005 -0.005) 88
(2.82531323204 0.005 -0.005) 115
(1.52034219806 0.005 -0.005) 61
(0.0160289704306 0.005 -0.005) 0
(2.4090715612 0.005 -0.005) 98
(2.98931859904 0.005 -0.005) 121
(1.56486254178 0.005 -0.005) 63
(1.00433830138 0.005 -0.005) 40
(2.6263566941 0.005 -0.005) 107
(0.616773013713 0.005 -0.005) 25
(2.69158629619 0.005 -0.005) 109
(1.47653733915 0.005 -0.005) 60
(0.786490140228 0.005 -0.005) 32
(1.42542048473 0.005 -0.005) 58
(0.834456943541 0.005 -0.005) 33
(1.68061036495 0.005 -0.005) 68
(1.81414936463 0.005 -0.005) 73
(2.00258917916 0.005 -0.005) 81
(0.230465092555 0.005 -0.005) 9
(1.80793237281 0.005 -0.005) 73
(0.613636077189 0.005 -0.005) 25
(2.09096518089 0.005 -0.005) 85
(2.43250314154 0.005 -0.005) 99
(3.13841845503 0.005 -0.005) 127
(0.55092058791 0.005 -0.005) 22
(1.49911675619 0.005 -0.005) 61
(1.44756770523 0.005 -0.005) 58
(2.04777936419 0.005 -0.005) 83
(2.74689182726 0.005 -0.005) 111
(1.69742956175 0.005 -0.005) 69
(1.94155765248 0.005 -0.005) 79
(2.61344791274 0.005 -0.005) 106
(0.22287117786 0.005 -0.005) 9
(1.92148604843 0.005 -0.005) 78
(0.28357330877 0.005 -0.005) 11
(1.48321447918 0.005 -0.005) 60
(1.09394714095 0.005 -0.005) 44
(2.26042478875 0.005 -0.005) 92
(1.52531148272 0.005 -0.005) 62
(0.584406550384 0.005 -0.005) 23
(1.74472037662 0.005 -0.005) 71
(2.57142490588 0.005 -0.005) 104
(1.98788333702 0.005 -0.005) 80
(0.287996160887 0.005 -0.005) 11
(2.92024724717 0.005 -0.005) 118
(3.03121416107 0.005 -0.005) 123
(2.13562919068 0.005 -0.005) 87
(1.41783237039 0.005 -0.005) 57
(0.0353218930581 0.005 -0.005) 1
(1.51435761807 0.005 -0.005) 61
(2.41248631419 0.005 -0.005) 98
(0.949083287679 0.005 -0.005) 38
(2.28621012821 0.005 -0.005) 93
(1.51676589843 0.005 -0.005) 61
(2.19637697826 0.005 -0.005) 89
(1.80572755972 0.005 -0.005) 73
(2.16458313412 0.005 -0.005) 88
(2.80226819411 0.005 -0.005) 114
(0.753437320664 0.005 -0.005) 30
(2.14802571413 0.005 -0.005) 87
(3.05361063844 0.005 -0.005) 124
(0.524747401854 0.005 -0.005) 21
(1.54225909176 0.005 -0.005) 62
(1.16890635354 0.005 -0.005) 47
(2.51232064254 0.005 -0.005) 102
(0.891437290638 0.005 -0.005) 36
(0.26061356748 0.005 -0.005) 10
(2.57242930593 0.005 -0.005) 104
(2.15124041772 0.005 -0.005) 87
(0.431695029857 0.005 -0.005) 17
(0.396580000364 0.005 -0.005) 16
(2.50531250929 0.005 -0.005) 102
(1.63393670302 0.005 -0.005) 66
(1.41742232798 0.005 -0.005) 57
(3.02749516294 0.005 -0.005) 123
(1.53853314119 0.005 -0.005) 62
(2.34095408213 0.005 -0.005) 95
(1.15065692975 0.005 -0.005) 46
(3.05339346356 0.005 -0.005) 124
(0.161299083147 0.005 -0.005) 6
(0.316797975158 0.005 -0.005) 12
(2.34206169234 0.005 -0.005) 95
(0.552997713528 0.005 -0.005) 22
(2.03333921527 0.005 -0.005) 82
(1.03246593764 0.005 -0.005) 42
(2.79840947855 0.005 -0.005) 114
(0.154840894124 0.005 -0.005) 6
(0.0228840254867 0.005 -0.005) 0
(1.07490104578 0.005 -0.005) 43
(2.12452371696 0.005 -0.005) 86
(2.30160248982 0.005 -0.005) 93
(2.92578936607 0.005 -0.005) 119
(1.38064701247 0.005 -0.005) 56
(1.25648252087 0.005 -0.005) 51
(1.47118637123 0.005 -0.005) 59
(0.540286328198 0.005 -0.005) 22
(2.96454567685 0.005 -0.005) 120
(1.70315097116 0.005 -0.005) 69
(0.473680439243 0.005 -0.005) 19
(1.78287872729 0.005 -0.005) 72
(2.60020044545 0.005 -0.005) 105
(0.675430591834 0.005 -0.005) 27
(1.04848847221 0.005 -0.005) 42
(0.360596098686 0.005 -0.005) 14
(2.46020056906 0.005 -0.005) 100
(2.65777338123 0.005 -0.005) 108
(2.26379092238 0.005 -0.005) 92
(2.62743671903 0.005 -0.005) 107
(1.65194409686 0.005 -0.005) 67
(1.14456964618 0.005 -0.005) 46
(0.0291835611626 0.005 -0.005) 1
(1.77894956354 0.005 -0.005) 72
(0.674818332483 0.005 -0.005) 27
(0.404141336656 0.005 -0.005) 16
(0.829383575834 0.005 -0.005) 33
(2.55471915499 0.005 -0.005) 104
(0.685918074177 0.005 -0.005) 27
(2.08628687841 0.005 -0.005) 85
(2.47836710083 0.005 -0.005) 100
(0.680357372105 0.005 -0.005) 27
(2.32821527793 0.005 -0.005) 94
(1.96707339422 0.005 -0.005) 80
(2.44277087674 0.005 -0.005) 99
(1.46957926009 0.005 -0.005) 59
(1.3215218583 0.005 -0.005) 53
(2.96119611882 0.005 -0.005) 120
(2.98417184216 0.005 -0.005) 121
(0.804537827929 0.005 -0.005) 32
(1.63409908964 0.005 -0.005) 66
(0.609749802245 0.005 -0.005) 24
(0.926241434422 0.005 -0.005) 37
(2.20344141634 0.005 -0.005) 89
(2.55812742816 0.005 -0.005) 104
(0.786433947896 0.005 -0.005) 32
(1.03704034581 0.005 -0.005) 42
(1.20203708717 0.005 -0.005) 48
(1.50767108802 0.005 -0.005) 61
(0.439189476363 0.005 -0.005) 17
(0.058903259862 0.005 -0.005) 2
(1.24294379442 0.005 -0.005) 50
(2.7911838222 0.005 -0.005) 113
(0.593043444991 0.005 -0.005) 24
(1.50770244465 0.005 -0.005) 61
(1.92564254377 0.005 -0.005) 78
(2.45849095146 0.005 -0.005) 100
(0.874507823313 0.005 -0.005) 35
(2.12088121905 0.005 -0.005) 86
(1.00214648186 0.005 -0.005) 40
(1.03223546984 0.005 -0.005) 42
(2.61962018655 0.005 -0.005) 106
(2.79893903327 0.005 -0.005) 114
(1.61759878154 0.005 -0.005) 65
(1.10115527394 0.005 -0.005) 44
(2.37758217408 0.005 -0.005) 96
(1.63487858841 0.005 -0.005) 66
(1.52326462545 0.005 -0.005) 62
(0.0779383591018 0.005 -0.005) 3
(2.88216849476 0.005 -0.005) 117
(1.85054175465 0.005 -0.005) 75
(1.46650526444 0.005 -0.005) 59
(2.080781779 0.005 -0.005) 84
(3.08213461141 0.005 -0.005) 125
(1.15837001462 0.005 -0.005) 47
(1.24029234265 0.005 -0.005) 50
(1.61511762488 0.005 -0.005) 65
(0.21287625541 0.005 -0.005) 8
(2.31510668714 0.005 -0.005) 94
(0.00527309696138 0.005 -0.005) 0
(0.0186615275532 0.005 -0.005) 0
(2.68638020121 0.005 -0.005) 109
(2.78669394542 0.005 -0.005) 113
(0.340824698706 0.005 -0.005) 13
(2.88281930383 0.005 -0.005) 117
(2.32130819104 0.005 -0.005) 94
(2.4008493469 0.005 -0.005) 97
(2.71799737051 0.005 -0.005) 110
(0.865011854159 0.005 -0.005) 35
(0.705733890851 0.005 -0.005) 28
(0.599080088162 0.005 -0.005) 24
(1.49932587489 0.005 -0.005) 61
(1.57802416268 0.005 -0.005) 64
(1.7875692949 0.005 -0.005) 72
(1.99389594582 0.005 -0.005) 81
(1.49486458764 0.005 -0.005) 60
(1.27759312751 0.005 -0.005) 52
(2.47593490363 0.005 -0.005) 100
(0.789702719436 0.005 -0.005) 32
(2.03012530361 0.005 -0.005) 82
(0.00600208524348 0.005 -0.005) 0
(2.44987932873 0.005 -0.005) 99
(1.44911558415 0.005 -0.005) 59
(1.43734183355 0.005 -0.005) 58
(1.30108301214 0.005 -0.005) 53
(1.36003308809 0.005 -0.005) 55
(0.29625912074 0.005 -0.005) 12
(0.0920801699031 0.005 -0.005) 3
(0.8423194731 0.005 -0.005) 34
(0.202211187199 0.005 -0.005) 8
(2.77764189463 0.005 -0.005) 113
(0.42152144477 0.005 -0.005) 17
(0.623386341505 0.005 -0.005) 25
(0.48530741618 0.005 -0.005) 19
(0.438854040232 0.005 -0.005) 17
(0.689714462849 0.005 -0.005) 28
(0.949568638928 0.005 -0.005) 38
(1.63889018139 0.005 -0.005) 66
(1.04396055818 0.005 -0.005) 42
(2.4454730496 0.005 -0.005) 99
(1.79627511528 0.005 -0.005) 73
(1.56222260273 0.005 -0.005) 63
(0.0176397866952 0.005 -0.005) 0
(0.91801052995 0.005 -0.005) 37
(1.2494632029 0.005 -0.005) 50
(3.06498768645 0.005 -0.005) 124
(2.64839003191 0.005 -0.005) 107
(1.20917742151 0.005 -0.005) 49
(2.79511026103 0.005 -0.005) 113
(0.801545956272 0.005 -0.005) 32
(1.8979414896 0.005 -0.005) 77
(1.84882557315 0.005 -0.005) 75
(2.62858316845 0.005 -0.005) 107
(0.672648972666 0.005 -0.005) 27
(2.52114760529 0.005 -0.005) 102
(2.4830016784 0.005 -0.005) 101
(2.78306680933 0.005 -0.005) 113
(1.44653591129 0.005 -0.005) 58
(2.18541609934 0.005 -0.005) 89
(0.00955721748513 0.005 -0.005) 0
(2.05112726522 0.005 -0.005) 83
(1.56131045821 0.005 -0.005) 63
(1.28909421685 0.005 -0.005) 52
(0.463971633728 0.005 -0.005) 18
(0.783665151398 0.005 -0.005) 31
(1.07684462177 0.005 -0.005) 43
(0.336399042392 0.005 -0.005) 13
(0.188783418506 0.005 -0.005) 7
(0.998685113095 0.005 -0.005) 40
(0.133216592242 0.005 -0.005) 5
(1.792161418 0.005 -0.005) 73
(2.09488665597 0.005 -0.005) 85
(0.372212291905 0.005 -0.005) 15
(1.6238053039 0.005 -0.005) 66
(2.48966042382 0.005 -0.005) 101
(0.927215474608 0.005 -0.005) 37
(1.5301411809 0.005 -0.005) 62
(1.38521720696 0.005 -0.005) 56
(1.74184843983 0.005 -0.005) 70
(0.973242872236 0.005 -0.005) 39
(0.46248262895 0.005 -0.005) 18
(2.19380033218 0.005 -0.005) 89
(0.614309801883 0.005 -0.005) 25
(2.2135305863 0.005 -0.005) 90
(1.73352291643 0.005 -0.005) 70
(3.11925099467 0.005 -0.005) 127
(2.08848498258 0.005 -0.005) 85
(2.0063326792 0.005 -0.005) 81
(1.87587246899 0.005 -0.005) 76
(1.88243963986 0.005 -0.005) 76
(0.881394389998 0.005 -0.005) 35
(2.76471725702 0.005 -0.005) 112
(1.05789067119 0.005 -0.005) 43
(0.0477328378009 0.005 -0.005) 1
(2.65175162602 0.005 -0.005) 108
(1.7491374446 0.005 -0.005) 71
(1.83058221061 0.005 -0.005) 74
(3.11907040089 0.005 -0.005) 127
(2.02411011443 0.005 -0.005) 82
(1.58618804412 0.005 -0.005) 64
(2.1243929698 0.005 -0.005) 86
(2.39143630822 0.005 -0.005) 97
(1.82345682399 0.005 -0.005) 74
(1.98695151121 0.005 -0.005) 80
(0.328334556774 0.005 -0.005) 13
(1.43949110269 0.005 -0.005) 58
(2.41755982684 0.005 -0.005) 98
(1.15820971574 0.005 -0.005) 47
(1.6242652527 0.005 -0.005) 66
(1.51139664175 0.005 -0.005) 61
(0.797625319217 0.005 -0.005) 32
(1.6312462145 0.005 -0.005) 66
(0.352015502044 0.005 -0.005) 14
(1.1456011073 0.005 -0.005) 46
(0.354733895188 0.005 -0.005) 14
(2.72813804345 0.005 -0.005) 111
(1.36247862403 0.005 -0.005) 55
(1.13001017537 0.005 -0.005) 46
(0.736211859102 0.005 -0.005) 29
(1.34967879058 0.005 -0.005) 54
(0.988088125144 0.005 -0.005) 40
(0.745448102296 0.005 -0.005) 30
(0.613548967288 0.005 -0.005) 24
(3.07153883615 0.005 -0.005) 125
(1.29134910315 0.005 -0.005) 52
(0.258987672581 0.005 -0.005) 10
(1.88946164767 0.005 -0.005) 76
(0.196526714333 0.005 -0.005) 8
(0.507174377944 0.005 -0.005) 20
(0.274838615291 0.005 -0.005) 11
(2.15199060003 0.005 -0.005) 87
(1.9264245774 0.005 -0.005) 78
(1.77890393302 0.005 -0.005) 72
(1.79345992143 0.005 -0.005) 73
(2.64379174403 0.005 -0.005) 107
(1.77654998738 0.005 -0.005) 72
(1.62078092038 0.005 -0.005) 66
(1.00356047291 0.005 -0.005) 40
(1.07676943587 0.005 -0.005) 43
(1.50018400286 0.005 -0.005) 61
(1.31511245439 0.005 -0.005) 53
(1.04634824673 0.005 -0.005) 42
(2.01249545963 0.005 -0.005) 81
(1.61478901525 0.005 -0.005) 65
(0.875992852322 0.005 -0.005) 35
(3.05726837813 0.005 -0.005) 124
(2.91262021402 0.005 -0.005) 118
(2.7357834412 0.005 -0.005) 111
(2.48160067597 0.005 -0.005) 101
(3.08817040919 0.005 -0.005) 125
(2.89144954422 0.005 -0.005) 117
(2.93865247939 0.005 -0.005) 119
(0.889211097764 0.005 -0.005) 36
(1.45071822805 0.005 -0.005) 59
(0.420301910995 0.005 -0.005) 17
(2.04582189276 0.005 -0.005) 83
(0.920015075178 0.005 -0.005) 37
(2.68709535296 0.005 -0.005) 109
(3.00745840136 0.005 -0.005) 122
(0.0102101937706 0.005 -0.005) 0
(2.60884112172 0.005 -0.005) 106
(1.8874637137 0.005 -0.005) 76
(1.50321526286 0.005 -0.005) 61
(2.66935333734 0.005 -0.005) 108
(2.54785061646 0.005 -0.005) 103
(1.54428029713 0.005 -0.005) 62
(0.245057781964 0.005 -0.005) 9
(1.69137770718 0.005 -0.005) 68
(1.66176779798 0.005 -0.005) 67
(2.90009230276 0.005 -0.005) 118
(0.660227564521 0.005 -0.005) 26
(0.79244908129 0.005 -0.005) 32
(2.07712217562 0.005 -0.005) 84
(0.679068758158 0.005 -0.005) 27
(3.03247343699 0.005 -0.005) 123
(2.01590253145 0.005 -0.005) 82
(2.65270032549 0.005 -0.005) 108
(0.741490395664 0.005 -0.005) 30
(0.984876688659 0.005 -0.005) 40
(0.461903176055 0.005 -0.005) 18
(1.07439629216 0.005 -0.005) 43
(0.676195972649 0.005 -0.005) 27
(2.70207201355 0.005 -0.005) 110
(2.918062403 0.005 -0.005) 118
(0.733134994039 0.005 -0.005) 29
(0.417480074244 0.005 -0.005) 17
(2.15548751645 0.005 -0.005) 87
(0.837731712325 0.005 -0.005) 34
(0.546586674353 0.005 -0.005) 22
(0.560572640819 0.005 -0.005) 22
(0.926618348824 0.005 -0.005) 37
(2.11792345953 0.005 -0.005) 86
(2.66103146922 0.005 -0.005) 108
(1.3784993015 0.005 -0.005) 56
(0.380629029063 0.005 -0.005) 15
(0.12665817136 0.005 -0.005) 5
(2.51275915191 0.005 -0.005) 102
(2.25179703638 0.005 -0.005) 91
(1.2012711912 0.005 -0.005) 48
(2.35720128213 0.005 -0.005) 96
(1.30757623265 0.005 -0.005) 53
(1.99726931212 0.005 -0.005) 81
(2.79305323035 0.005 -0.005) 113
(1.16369700927 0.005 -0.005) 47
(1.34537550223 0.005 -0.005) 54
(1.17442379214 0.005 -0.005) 47
(2.42902446303 0.005 -0.005) 98
(2.49408266708 0.005 -0.005) 101
(0.74891843423 0.005 -0.005) 30
(1.03046521841 0.005 -0.005) 41
(3.09955239535 0.005 -0.005) 126
(1.36173990183 0.005 -0.005) 55
(1.16276134357 0.005 -0.005) 47
(0.148153015722 0.005 -0.005) 6
(2.88514412757 0.005 -0.005) 117
(2.95662255355 0.005 -0.005) 120
(2.75027994159 0.005 -0.005) 112
(0.225855943355 0.005 -0.005) 9
(0.102167990031 0.005 -0.005) 4
(2.76211217768 0.005 -0.005) 112
(2.05250937287 0.005 -0.005) 83
(1.74276607602 0.005 -0.005) 71
(3.02701775436 0.005 -0.005) 123
(2.43772656802 0.005 -0.005) 99
(0.78148962352 0.005 -0.005) 31
(2.44688942099 0.005 -0.005) 99
(1.61231231147 0.005 -0.005) 65
(2.37817216995 0.005 -0.005) 96
(2.3879269391 0.005 -0.005) 97
(1.44512184068 0.005 -0.005) 58
(2.13270441874 0.005 -0.005) 86
(2.84034655507 0.005 -0.005) 115
(1.07761941223 0.005 -0.005) 43
(2.33171844706 0.005 -0.005) 95
(0.382141593221 0.005 -0.005) 15
(1.60480480669 0.005 -0.005) 65
(1.51429798193 0.005 -0.005) 61
(2.04224790714 0.005 -0.005) 83
(2.71963549119 0.005 -0.005) 110
(1.47841929952 0.005 -0.005) 60
(2.19973741656 0.005 -0.005) 89
(2.40254391587 0.005 -0.005) 97
(1.74690322376 0.005 -0.005) 71
(0.171686457248 0.005 -0.005) 6
(2.94092935136 0.005 -0.005) 119
(0.0619599371577 0.005 -0.005) 2
(1.44807984221 0.005 -0.005) 59
(2.52377866168 0.005 -0.005) 102
(0.808499714897 0.005 -0.005) 32
(0.847392114483 0.005 -0.005) 34
(1.36219103183 0.005 -0.005) 55
(2.06775172757 0.005 -0.005) 84
(2.29584125103 0.005 -0.005) 93
(1.93903510247 0.005 -0.005) 79
(1.58066518654 0.005 -0.005) 64
(0.554289417544 0.005 -0.005) 22
(2.58699699844 0.005 -0.005) 105
(0.315674420591 0.005 -0.005) 12
(2.1049226847 0.005 -0.005) 85
(1.98368100987 0.005 -0.005) 80
(2.84123098945 0.005 -0.005) 115
(0.00459454965002 0.005 -0.005) 0
(2.06647095647 0.005 -0.005) 84
(1.90315382696 0.005 -0.005) 77
(0.266038943563 0.005 -0.005) 10
(1.78885137189 0.005 -0.005) 72
(2.65115472677 0.005 -0.005) 108
(1.44540201961 0.005 -0.005) 58
(1.9897747217 0.005 -0.005) 81
(2.2313778401 0.005 -0.005) 90
(3.00490577236 0.005 -0.005) 122
(1.83009950961 0.005 -0.005) 74
(1.29799681949 0.005 -0.005) 52
(2.10339153926 0.005 -0.005) 85
(1.7565256373 0.005 -0.005) 71
(0.693412858923 0.005 -0.005) 28
(0.325476872704 0.005 -0.005) 13
(0.229878762422 0.005 -0.005) 9
(0.414838326916 0.005 -0.005) 16
(2.9842757766 0.005 -0.005) 121
(2.30155252863 0.005 -0.005) 93
(1.0503615713 0.005 -0.005) 42
(1.06557311967 0.005 -0.005) 43
(1.7385437166 0.005 -0.005) 70
(0.0906838734602 0.005 -0.005) 3
(0.141622781442 0.005 -0.005) 5
(0.469151881539 0.005 -0.005) 19
(0.118144778872 0.005 -0.005) 4
(1.61183099871 0.005 -0.005) 65
(2.77967470563 0.005 -0.005) 113
(1.46039691438 0.005 -0.005) 59
(1.49672106731 0.005 -0.005) 60
(2.32283345886 0.005 -0.005) 94
(1.886422395 0.005 -0.005) 76
(2.77605115665 0.005 -0.005) 113
(0.782300249091 0.005 -0.005) 31
(0.368989909584 0.005 -0.005) 15
(2.77999086212 0.005 -0.005) 113
(2.77998082609 0.005 -0.005) 113
(2.35167664994 0.005 -0.005) 95
(2.59245663536 0.005 -0.005) 105
(0.173489567638 0.005 -0.005) 7
(1.97580089594 0.005 -0.005) 80
(0.277360887547 0.005 -0.005) 11
(3.02518567702 0.005 -0.005) 123
(2.74415562507 0.005 -0.005) 111
(0.946750473523 0.005 -0.005) 38
(1.5897238314 0.005 -0.005) 64
(0.430822659775 0.005 -0.005) 17
(0.725627108698 0.005 -0.005) 29
(0.0643277445674 0.005 -0.005) 2
(2.95271351931 0.005 -0.005) 120
(1.68419140972 0.005 -0.005) 68
(1.53837717383 0.005 -0.005) 62
(0.0371182940716 0.005 -0.005) 1
(3.00377220787 0.005 -0.005) 122
(2.17940563078 0.005 -0.005) 88
(0.113696152781 0.005 -0.005) 4
(0.825315042332 0.005 -0.005) 33
(1.63344483163 0.005 -0.005) 66
(2.28357058516 0.005 -0.005) 93
(2.64959072289 0.005 -0.005) 107
(1.89829953087 0.005 -0.005) 77
(2.92988356939 0.005 -0.005) 119
(2.94707895004 0.005 -0.005) 120
(0.617824571994 0.005 -0.005) 25
(1.84257274429 0.005 -0.005) 75
(1.86064746853 0.005 -0.005) 75
(1.2757793116 0.005 -0.005) 51
(2.49308941448 0.005 -0.005) 101
(1.81657489529 0.005 -0.005) 74
(3.08579958178 0.005 -0.005) 125
(0.397797112709 0.005 -0.005) 16
(0.210335067135 0.005 -0.005) 8
(1.35340149844 0.005 -0.005) 55
(1.65196510334 0.005 -0.005) 67
(2.14138015549 0.005 -0.005) 87
(2.88874375937 0.005 -0.005) 117
(1.9481395454 0.005 -0.005) 79
(1.21927519515 0.005 -0.005) 49
(3.05936624826 0.005 -0.005) 124
(0.796705314865 0.005 -0.005) 32
(2.43287605675 0.005 -0.005) 99
(0.334811363613 0.005 -0.005) 13
(0.602652213942 0.005 -0.005) 24
(2.56923215353 0.005 -0.005) 104
(2.45334412991 0.005 -0.005) 99
(1.32843178042 0.005 -0.005) 54
(2.04289246374 0.005 -0.005) 83
(2.59250877149 0.005 -0.005) 105
(2.97848816215 0.005 -0.005) 121
(2.80140612968 0.005 -0.005) 114
(1.82223108723 0.005 -0.005) 74
(1.87246658771 0.005 -0.005) 76
(1.32052095861 0.005 -0.005) 53
(3.04829576357 0.005 -0.005) 124
(2.83634453279 0.005 -0.005) 115
(0.12316322721 0.005 -0.005) 5
(2.70775233747 0.005 -0.005) 110
(2.98708301545 0.005 -0.005) 121
(2.88561703857 0.005 -0.005) 117
(3.06935491712 0.005 -0.005) 125
(1.68746205781 0.005 -0.005) 68
(1.43280648257 0.005 -0.005) 58
(1.17035126269 0.005 -0.005) 47
(2.32782152579 0.005 -0.005) 94
(1.73450258544 0.005 -0.005) 70
(0.36613423096 0.005 -0.005) 14
(0.910193911336 0.005 -0.005) 37
(2.05908784174 0.005 -0.005) 83
(1.32665308441 0.005 -0.005) 54
(0.51956580289 0.005 -0.005) 21
(1.18707281321 0.005 -0.005) 48
(1.45771745223 0.005 -0.005) 59
(2.87381539929 0.005 -0.005) 117
(0.704165419777 0.005 -0.005) 28
(0.570579925331 0.005 -0.005) 23
(1.60503905354 0.005 -0.005) 65
(2.78729424795 0.005 -0.005) 113
(0.187503486797 0.005 -0.005) 7
(2.8692931351 0.005 -0.005) 116
(0.527234015072 0.005 -0.005) 21
(0.205034766401 0.005 -0.005) 8
(2.44921754393 0.005 -0.005) 99
(3.11991693344 0.005 -0.005) 127
(2.67479150917 0.005 -0.005) 108
(1.7211228953 0.005 -0.005) 70
(0.811186996847 0.005 -0.005) 33
(0.0623007318715 0.005 -0.005) 2
(2.46496173227 0.005 -0.005) 100
(3.10393188278 0.005 -0.005) 126
(1.01332661621 0.005 -0.005) 41
(2.12598434055 0.005 -0.005) 86
(2.45829566104 0.005 -0.005) 100
(3.08748589053 0.005 -0.005) 125
(2.65679382432 0.005 -0.005) 108
(1.48343760771 0.005 -0.005) 60
(1.56958463092 0.005 -0.005) 63
(3.05432792928 0.005 -0.005) 124
(1.71162549045 0.005 -0.005) 69
(3.01817035914 0.005 -0.005) 122
(2.12521466378 0.005 -0.005) 86
(1.0295356421 0.005 -0.005) 41
(0.173434441266 0.005 -0.005) 7
(0.350666149116 0.005 -0.005) 14
(2.46247155693 0.005 -0.005) 100
(1.22294476479 0.005 -0.005) 49
(1.20679001456 0.005 -0.005) 49
(0.173223097283 0.005 -0.005) 7
(1.91249675824 0.005 -0.005) 77
(0.694312365076 0.005 -0.005) 28
(2.79321147712 0.005 -0.005) 113
(0.812524061823 0.005 -0.005) 33
(0.0999912854075 0.005 -0.005) 4
(0.412282094086 0.005 -0.005) 16
(1.00639029736 0.005 -0.005) 41
(2.13447736121 0.005 -0.005) 86
(0.902235475198 0.005 -0.005) 36
(3.09250292049 0.005 -0.005) 126
(0.330027073312 0.005 -0.005) 13
(1.95895346953 0.005 -0.005) 79
(2.67960671868 0.005 -0.005) 109
(1.63520368018 0.005 -0.005) 66
(2.89428331365 0.005 -0.005) 117
(0.337447934819 0.005 -0.005) 13
(1.65925075183 0.005 -0.005) 67
(0.101611522328 0.005 -0.005) 4
(2.796169535 0.005 -0.005) 113
(2.24162106369 0.005 -0.005) 91
(2.6458554565 0.005 -0.005) 107
(0.918638871187 0.005 -0.005) 37
(2.23971938854 0.005 -0.005) 91
(2.45205729398 0.005 -0.005) 99
(0.0527810083504 0.005 -0.005) 2
(1.30214408655 0.005 -0.005) 53
(3.04458420465 0.005 -0.005) 124
(0.671647820469 0.005 -0.005) 27
(2.73015158432 0.005 -0.005) 111
(2.78640995014 0.005 -0.005) 113
(0.787416076579 0.005 -0.005) 32
(0.0516247574717 0.005 -0.005) 2
(1.97731503821 0.005 -0.005) 80
(1.78876894053 0.005 -0.005) 72
(1.14145790369 0.005 -0.005) 46
(0.0997159127082 0.005 -0.005) 4
(2.42215082841 0.005 -0.005) 98
(1.55196081913 0.005 -0.005) 63
(0.654619941503 0.005 -0.005) 26
(3.13717936377 0.005 -0.005) 127
(2.0198442395 0.005 -0.005) 82
(0.36297404953 0.005 -0.005) 14
(0.793532339123 0.005 -0.005) 32
(0.84714809131 0.005 -0.005) 34
(1.55579094731 0.005 -0.005) 63
(2.62460235642 0.005 -0.005) 106
(0.182250191786 0.005 -0.005) 7
(2.59502902514 0.005 -0.005) 105
(0.897245596041 0.005 -0.005) 36
(0.668837470067 0.005 -0.005) 27
(1.63887258053 0.005 -0.005) 66
(0.879467406508 0.005 -0.005) 35
(2.46533157952 0.005 -0.005) 100
(2.21630214102 0.005 -0.005) 90
(1.67256899768 0.005 -0.005) 68
(1.16158246712 0.005 -0.005) 47
(1.91542076828 0.005 -0.005) 78
(2.76101405126 0.005 -0.005) 112
(1.24142276728 0.005 -0.005) 50
(1.27417429685 0.005 -0.005) 51
(0.126492783813 0.005 -0.005) 5
(2.81292605843 0.005 -0.005) 114
(1.39022653899 0.005 -0.005) 56
(0.544587994848 0.005 -0.005) 22
(1.40455645955 0.005 -0.005) 57
(0.650768968628 0.005 -0.005) 26
(0.87815134215 0.005 -0.005) 35
(0.41183121499 0.005 -0.005) 16
(2.97944079462 0.005 -0.005) 121
(1.58397726533 0.005 -0.005) 64
(1.23832727257 0.005 -0.005) 50
(2.27930953877 0.005 -0.005) 92
(1.72273767495 0.005 -0.005) 70
(1.11540706743 0.005 -0.005) 45
(2.51898973262 0.005 -0.005) 102
(1.96758204383 0.005 -0.005) 80
(0.57449503998 0.005 -0.005) 23
(1.04783971371 0.005 -0.005) 42
(0.215216295663 0.005 -0.005) 8
(1.86639981383 0.005 -0.005) 76
(1.7309560372 0.005 -0.005) 70
(0.917592609344 0.005 -0.005) 37
(0.76770866981 0.005 -0.005) 31
(1.81594769286 0.005 -0.005) 73
(2.21080372522 0.005 -0.005) 90
(2.34932272209 0.005 -0.005) 95
(1.35131601048 0.005 -0.005) 55
(0.845540357853 0.005 -0.005) 34
(2.52662641788 0.005 -0.005) 102
(2.36169636551 0.005 -0.005) 96
(0.0374789115214 0.005 -0.005) 1
(1.53391898018 0.005 -0.005) 62
(1.01922061129 0.005 -0.005) 41
(0.57449543073 0.005 -0.005) 23
(3.04195056272 0.005 -0.005) 123
(2.88521542345 0.005 -0.005) 117
(0.219896821181 0.005 -0.005) 8
(2.65311811368 0.005 -0.005) 108
(0.81008275963 0.005 -0.005) 33
(3.14088705597 0.005 -0.005) 127
(0.944594767867 0.005 -0.005) 38
(0.038384227672 0.005 -0.005) 1
(0.593911195161 0.005 -0.005) 24
(0.695682808033 0.005 -0.005) 28
(0.834768240354 0.005 -0.005) 34
(1.17528707455 0.005 -0.005) 47
(2.931078153 0.005 -0.005) 119
(2.13695538996 0.005 -0.005) 87
(1.00024270084 0.005 -0.005) 40
(1.79248633546 0.005 -0.005) 73
(0.378059129047 0.005 -0.005) 15
(2.82146772165 0.005 -0.005) 114