/*--------------------------------*- C++ -*----------------------------------*\
| =========                 |                                                 |
| \\      /  F ield         | OpenFOAM: The Open Source CFD Toolbox           |
|  \\    /   O peration     | Version:  v1706                                 |
|   \\  /    A nd           | Web:      www.OpenFOAM.com                      |
|    \\/     M anipulation  |                                                 |
\*---------------------------------------------------------------------------*/
FoamFile
{
    version     2.0;
    format      ascii;
    class       vectorField;
    location    "80/lagrangian/pd";
    object      U;
}
// * * * * * * * * * * * * * * * * * * * * * * * * * * * * * * * * * * * * * //


8192
(
(0.470642641846 0 0)
(-0.0637603281898 0 0)
(-0.27905666504 0 0)
(-0.542892162474 0 0)
(-0.199888065842 0 0)
(-0.2141168304 0 0)
(-0.0663135531636 0 0)
(-0.264893178366 0 0)
(-0.589105288927 0 0)
(-0.176728383718 0 0)
(-0.168293800051 0 0)
(0.0441896449283 0 0)
(0.466018635911 0 0)
(-0.259437210805 0 0)
(-0.0573299631393 0 0)
(-0.426378069388 0 0)
(-0.272036282175 0 0)
(-0.535573086512 0 0)
(0.235668230996 0 0)
(-0.393546604763 0 0)
(0.458531300692 0 0)
(-0.552367966866 0 0)
(-0.140247921342 0 0)
(0.485841934664 0 0)
(-0.392963783921 0 0)
(0.232706050874 0 0)
(-0.137433482468 0 0)
(-0.165993573192 0 0)
(-0.307167221702 0 0)
(-0.153494054106 0 0)
(0.112800830863 0 0)
(-0.0199953677908 0 0)
(0.272804526993 0 0)
(0.587747309388 0 0)
(-0.401793143235 0 0)
(-0.376144028358 0 0)
(-0.0670178355523 0 0)
(0.231361018602 0 0)
(0.103082008292 0 0)
(-0.0501386392505 0 0)
(0.199118776304 0 0)
(-0.553766569291 0 0)
(-0.134018678641 0 0)
(-0.435152169366 0 0)
(0.405367740102 0 0)
(0.0438646880504 0 0)
(-0.168353686789 0 0)
(-0.00774457274152 0 0)
(-0.301593272888 0 0)
(-0.185404775852 0 0)
(0.244800809969 0 0)
(-0.106918777253 0 0)
(0.274944542282 0 0)
(0.512448894437 0 0)
(-0.538982759891 0 0)
(-0.379947339778 0 0)
(0.31400016353 0 0)
(-0.268127483443 0 0)
(0.0386560101139 0 0)
(0.0196051964212 0 0)
(0.316110217794 0 0)
(0.430105385474 0 0)
(-0.134350563194 0 0)
(0.174259312346 0 0)
(-0.0161452067059 0 0)
(-0.363102471314 0 0)
(-0.0814866951454 0 0)
(-0.111811198386 0 0)
(0.0908117041576 0 0)
(-0.419970070192 0 0)
(-0.0620769723314 0 0)
(-0.123979707142 0 0)
(0.0406421106238 0 0)
(-0.414839952387 0 0)
(-0.068703549816 0 0)
(0.0697481182195 0 0)
(0.575843368931 0 0)
(0.466302645003 0 0)
(-0.586450610835 0 0)
(-0.219361197966 0 0)
(0.138660179388 0 0)
(0.0586362601752 0 0)
(-0.318848745595 0 0)
(-0.0952620311351 0 0)
(0.202081294447 0 0)
(0.107522700752 0 0)
(-0.504537111493 0 0)
(0.468150123734 0 0)
(-0.18242950691 0 0)
(0.0470614017217 0 0)
(-0.190084035102 0 0)
(0.271550549705 0 0)
(0.127052860442 0 0)
(-0.315077767451 0 0)
(0.118982350126 0 0)
(-0.290313522549 0 0)
(-0.21647038056 0 0)
(0.0240612841675 0 0)
(-0.514280818732 0 0)
(0.31216678805 0 0)
(0.100824166185 0 0)
(-0.0906850135238 0 0)
(0.0840889867489 0 0)
(0.230359727245 0 0)
(0.270448728744 0 0)
(0.459582048645 0 0)
(0.0495982104258 0 0)
(-0.157409484418 0 0)
(-0.365379030357 0 0)
(-0.304934720809 0 0)
(0.197925433198 0 0)
(-0.0437838746911 0 0)
(-0.00153397853361 0 0)
(-0.294449159057 0 0)
(-0.22622848257 0 0)
(-0.546028481704 0 0)
(0.0869689062358 0 0)
(-0.32455733641 0 0)
(-0.153996519091 0 0)
(-0.0470033384149 0 0)
(0.181696777033 0 0)
(0.558037330406 0 0)
(0.450473314939 0 0)
(-0.382568109359 0 0)
(-0.107145864081 0 0)
(-0.269910862491 0 0)
(0.293366499044 0 0)
(-0.501604914919 0 0)
(0.149967657345 0 0)
(-0.162160256074 0 0)
(-0.178991872656 0 0)
(0.140703567001 0 0)
(0.430710151155 0 0)
(0.255486077659 0 0)
(-0.339502927275 0 0)
(-0.0832994004882 0 0)
(-0.131724268671 0 0)
(0.0740594822391 0 0)
(-0.0272113535594 0 0)
(-0.118830381721 0 0)
(0.279189547864 0 0)
(0.252717354503 0 0)
(0.241660562432 0 0)
(0.157882371855 0 0)
(0.550831958983 0 0)
(-0.144659877287 0 0)
(-0.0312124874891 0 0)
(0.446291711063 0 0)
(0.208791671413 0 0)
(-0.463932667458 0 0)
(0.461311730652 0 0)
(0.330287154231 0 0)
(-0.432227354523 0 0)
(0.112410120233 0 0)
(-0.427378103117 0 0)
(-0.146452025641 0 0)
(0.0364770235931 0 0)
(-0.0892452186237 0 0)
(-0.103157626593 0 0)
(0.0139522487098 0 0)
(0.112898728725 0 0)
(0.12154990874 0 0)
(-0.0377977284723 0 0)
(-0.266368663111 0 0)
(-0.354505270371 0 0)
(0.218202186868 0 0)
(-0.113010740925 0 0)
(-0.0778118283255 0 0)
(-0.146110853958 0 0)
(0.154106546968 0 0)
(-0.363656652736 0 0)
(-0.0605780736878 0 0)
(0.0666038134194 0 0)
(0.0110224220948 0 0)
(0.248148527363 0 0)
(0.216356800978 0 0)
(0.433299902457 0 0)
(-0.439518301121 0 0)
(0.472906441171 0 0)
(0.12769008875 0 0)
(-0.370185658546 0 0)
(-0.14864945969 0 0)
(0.020923753191 0 0)
(0.348428339218 0 0)
(0.228940900006 0 0)
(0.4417648966 0 0)
(-0.12992715965 0 0)
(0.429531040927 0 0)
(0.198525355424 0 0)
(-0.151725157377 0 0)
(0.226085393772 0 0)
(0.617077773714 0 0)
(-0.164917830096 0 0)
(-0.152063383697 0 0)
(-0.556787176974 0 0)
(-0.555383789764 0 0)
(-0.434923659447 0 0)
(-0.0197998957232 0 0)
(0.330541309466 0 0)
(-0.0845556837547 0 0)
(0.0292941205101 0 0)
(-0.171701609851 0 0)
(-0.311138183542 0 0)
(0.646206484501 0 0)
(0.366646498711 0 0)
(-0.485527240207 0 0)
(-0.105993264974 0 0)
(0.285545418716 0 0)
(-0.485780137493 0 0)
(-0.0837495746405 0 0)
(-0.191193653372 0 0)
(-0.546493589788 0 0)
(0.087617080124 0 0)
(0.22145228306 0 0)
(0.486568978197 0 0)
(0.0122620477907 0 0)
(-0.648129785412 0 0)
(0.291066161341 0 0)
(0.566142518474 0 0)
(0.0317401634038 0 0)
(-0.13271069946 0 0)
(0.27458521443 0 0)
(-0.360593111026 0 0)
(0.429814475419 0 0)
(-0.100879755534 0 0)
(-0.212269087655 0 0)
(-0.12116026803 0 0)
(-0.291297999817 0 0)
(0.066743724877 0 0)
(0.111895136291 0 0)
(0.170044991512 0 0)
(-0.436045780021 0 0)
(0.00498731598997 0 0)
(-0.274362152703 0 0)
(0.199709705001 0 0)
(0.180978661618 0 0)
(0.655728336716 0 0)
(-0.394723063397 0 0)
(-0.0964087421116 0 0)
(-0.113834265088 0 0)
(0.0611685776526 0 0)
(0.32703523643 0 0)
(0.075295589033 0 0)
(0.0289094265006 0 0)
(0.264644302092 0 0)
(-0.545980827574 0 0)
(0.144570527043 0 0)
(-0.405955316782 0 0)
(0.00339031743744 0 0)
(-0.208477670533 0 0)
(0.249230654823 0 0)
(0.0228762799646 0 0)
(-0.380897931773 0 0)
(-0.0238103038674 0 0)
(0.379845845746 0 0)
(0.040748059746 0 0)
(-0.518009837688 0 0)
(0.41967921305 0 0)
(0.484837744933 0 0)
(0.0859291798694 0 0)
(-0.0199982841501 0 0)
(-0.528160138351 0 0)
(-0.0936286037454 0 0)
(0.166843127244 0 0)
(-0.146654926885 0 0)
(0.259684871061 0 0)
(-0.0943142767184 0 0)
(0.101896637875 0 0)
(0.115230992767 0 0)
(0.232105386259 0 0)
(0.491559086082 0 0)
(-0.215181260198 0 0)
(0.086956016064 0 0)
(0.497764831162 0 0)
(-0.304046515927 0 0)
(-0.0880922775815 0 0)
(-0.19052689182 0 0)
(0.354721774326 0 0)
(-0.164205260462 0 0)
(-0.535646914754 0 0)
(0.242398662394 0 0)
(0.230253314246 0 0)
(-0.458211221264 0 0)
(-0.352182094069 0 0)
(0.214098119149 0 0)
(-0.0667386150449 0 0)
(-0.135809544558 0 0)
(0.610811384208 0 0)
(0.0374660483519 0 0)
(0.13284834402 0 0)
(-0.0685670622142 0 0)
(0.627847033621 0 0)
(-0.456716115378 0 0)
(-0.381636983485 0 0)
(0.283925338329 0 0)
(-0.404696207138 0 0)
(0.193209469352 0 0)
(-0.099208386572 0 0)
(0.498889982294 0 0)
(-0.458268516653 0 0)
(-0.528352074704 0 0)
(-0.226407453208 0 0)
(0.225195471361 0 0)
(0.116400695105 0 0)
(0.561583201287 0 0)
(-0.0104182736885 0 0)
(-0.0344828914709 0 0)
(-0.118293816152 0 0)
(-0.293218354905 0 0)
(0.582605270372 0 0)
(-0.0506236960733 0 0)
(-0.441847725959 0 0)
(0.11918993545 0 0)
(0.409102902847 0 0)
(-0.361271180964 0 0)
(-0.23775324004 0 0)
(-0.499353300419 0 0)
(0.3382349958 0 0)
(0.275482539947 0 0)
(0.104481999221 0 0)
(0.259393508228 0 0)
(-0.0713782372905 0 0)
(-0.0630564398766 0 0)
(-0.664544196974 0 0)
(-0.0323332352869 0 0)
(-0.363830968182 0 0)
(-0.479779142844 0 0)
(-0.174330602956 0 0)
(0.387529783791 0 0)
(-0.360174556374 0 0)
(0.221112847099 0 0)
(0.190162035052 0 0)
(-0.363481042445 0 0)
(0.121431646933 0 0)
(0.182979799253 0 0)
(0.17145550979 0 0)
(0.0260444584855 0 0)
(-0.178407306813 0 0)
(0.431467547916 0 0)
(0.444519753871 0 0)
(-0.330565513605 0 0)
(-0.0828936844085 0 0)
(-0.254656910404 0 0)
(-0.136725537271 0 0)
(0.265004184327 0 0)
(0.394977100185 0 0)
(-0.186579344358 0 0)
(-0.252434399197 0 0)
(-0.0409093023486 0 0)
(-0.122576204934 0 0)
(-0.46839986094 0 0)
(-0.49474959205 0 0)
(-0.0258303105368 0 0)
(0.329150862709 0 0)
(-0.400824735178 0 0)
(0.0473962418585 0 0)
(-0.00803866501118 0 0)
(0.175042274727 0 0)
(-0.15175596471 0 0)
(0.243256254002 0 0)
(-0.100134963776 0 0)
(-0.0842395447744 0 0)
(0.246152131429 0 0)
(0.525072720015 0 0)
(0.0959106742711 0 0)
(-0.235604912586 0 0)
(0.13332523273 0 0)
(-0.0916794055129 0 0)
(0.0566929940685 0 0)
(-0.480802326959 0 0)
(0.377942626983 0 0)
(-0.0289576906969 0 0)
(0.0327742921807 0 0)
(0.0389538381556 0 0)
(0.674523857636 0 0)
(-0.220818088543 0 0)
(-0.206173250329 0 0)
(0.0968043257036 0 0)
(-0.585003833448 0 0)
(0.30145578859 0 0)
(-0.697431194607 0 0)
(-0.51719360319 0 0)
(0.475163032484 0 0)
(0.322139167524 0 0)
(-0.524259087403 0 0)
(0.572045947067 0 0)
(0.108397042479 0 0)
(0.141378283458 0 0)
(0.494321999262 0 0)
(-0.33161401797 0 0)
(-0.375655396739 0 0)
(-0.248622725804 0 0)
(-0.13981481967 0 0)
(-0.119800198582 0 0)
(0.150925498468 0 0)
(0.216680353444 0 0)
(0.048936584124 0 0)
(-0.210097560507 0 0)
(0.375260692376 0 0)
(-0.362568542949 0 0)
(0.0118587789898 0 0)
(-0.704983393342 0 0)
(0.162460394324 0 0)
(0.0324144316424 0 0)
(-0.162193890669 0 0)
(-0.205851296468 0 0)
(0.0125700363316 0 0)
(-0.55284669133 0 0)
(-0.656472179654 0 0)
(-0.149494271265 0 0)
(-0.410206849304 0 0)
(0.310012717303 0 0)
(-0.309777628974 0 0)
(-0.232689832603 0 0)
(-0.465163149355 0 0)
(-0.487425194551 0 0)
(-0.201280888164 0 0)
(-0.306733155601 0 0)
(0.115016613447 0 0)
(-0.0659522062658 0 0)
(0.36334586038 0 0)
(-0.0574708070324 0 0)
(-0.133025069012 0 0)
(-0.699766484325 0 0)
(-0.322019977478 0 0)
(-0.00976728775606 0 0)
(0.684808248281 0 0)
(0.469922012465 0 0)
(-0.0217594120466 0 0)
(0.547911305988 0 0)
(-0.368546411289 0 0)
(-0.0352021956891 0 0)
(0.182938696534 0 0)
(0.233162117443 0 0)
(-0.207603537783 0 0)
(0.405641863443 0 0)
(0.386875380942 0 0)
(0.309013316342 0 0)
(0.0398930620102 0 0)
(0.292547742306 0 0)
(-0.7105262049 0 0)
(0.0125866956896 0 0)
(-0.138944117663 0 0)
(-0.21893086772 0 0)
(-0.286560701782 0 0)
(-0.164647364822 0 0)
(-0.266346918058 0 0)
(-0.545100811702 0 0)
(-0.616418327873 0 0)
(-0.297877495201 0 0)
(-0.645636591793 0 0)
(0.163256220599 0 0)
(0.264930038594 0 0)
(-0.321276754766 0 0)
(-0.120239271144 0 0)
(0.39353118815 0 0)
(-0.109030662684 0 0)
(-0.150728563326 0 0)
(-0.195615850847 0 0)
(-0.0859066658137 0 0)
(-0.088275667022 0 0)
(-0.490735616716 0 0)
(0.299831858722 0 0)
(-0.434371949658 0 0)
(0.306399929158 0 0)
(0.148914699073 0 0)
(0.729519369192 0 0)
(0.265870627603 0 0)
(0.239610369349 0 0)
(0.198529654181 0 0)
(0.200285193847 0 0)
(-0.351455363849 0 0)
(0.542451962545 0 0)
(-0.280197563684 0 0)
(-0.695426679765 0 0)
(0.236425591212 0 0)
(-0.0888825927105 0 0)
(-0.0607269705835 0 0)
(0.733335437404 0 0)
(-0.00626102544718 0 0)
(0.106936663893 0 0)
(0.0294532063629 0 0)
(0.115935519087 0 0)
(0.182770501935 0 0)
(0.236354736997 0 0)
(-0.332447016035 0 0)
(0.0534280757821 0 0)
(0.370927520264 0 0)
(-0.0141703951287 0 0)
(0.126946341928 0 0)
(-0.169486082289 0 0)
(-0.393795496095 0 0)
(-0.13143998652 0 0)
(-0.558724219054 0 0)
(-0.262220719717 0 0)
(-0.317850144301 0 0)
(0.531993628639 0 0)
(-0.216151669726 0 0)
(-0.0197591748631 0 0)
(-0.166130519818 0 0)
(0.0382338060838 0 0)
(-0.0721729104163 0 0)
(-0.162644145774 0 0)
(-0.216634070632 0 0)
(0.712775091778 0 0)
(-0.235309292064 0 0)
(-0.604369673714 0 0)
(0.21132806729 0 0)
(-0.63752554384 0 0)
(-0.255370119339 0 0)
(-0.355362495469 0 0)
(0.299409110636 0 0)
(-0.0470950588303 0 0)
(-0.0860211773942 0 0)
(-0.0806454887899 0 0)
(0.487133553454 0 0)
(0.174336727252 0 0)
(-0.140477922568 0 0)
(-0.0615678492906 0 0)
(-0.28506125237 0 0)
(0.0853254189719 0 0)
(0.0341421622347 0 0)
(-0.29804942511 0 0)
(0.255511997363 0 0)
(0.131201017047 0 0)
(-0.369814754193 0 0)
(0.710132744383 0 0)
(0.636629741822 0 0)
(0.542295900967 0 0)
(0.142764879441 0 0)
(0.731194184764 0 0)
(0.625008437454 0 0)
(0.653409832867 0 0)
(-0.367252379206 0 0)
(-0.200132318887 0 0)
(-0.545500876782 0 0)
(0.27577891339 0 0)
(-0.354288359714 0 0)
(0.520096053286 0 0)
(0.419573821804 0 0)
(-0.751861415501 0 0)
(0.47540119705 0 0)
(-0.0707743248491 0 0)
(-0.188944237102 0 0)
(0.511924168992 0 0)
(0.165077306632 0 0)
(-0.177473122853 0 0)
(-0.631553625069 0 0)
(-0.130207024313 0 0)
(-0.139726769789 0 0)
(0.637717634178 0 0)
(-0.45959134307 0 0)
(-0.413207024294 0 0)
(-0.0154639450292 0 0)
(-0.172687331562 0 0)
(0.712286836085 0 0)
(0.269658618733 0 0)
(0.210781852474 0 0)
(-0.433884157869 0 0)
(-0.336372511699 0 0)
(-0.536156764603 0 0)
(-0.299518277039 0 0)
(-0.456668247555 0 0)
(0.535390526827 0 0)
(0.652525005756 0 0)
(-0.150404137617 0 0)
(-0.55851275224 0 0)
(0.0107825099766 0 0)
(-0.110042088261 0 0)
(-0.506040537225 0 0)
(-0.217908895957 0 0)
(-0.0749368899118 0 0)
(0.311799345548 0 0)
(0.513976120429 0 0)
(0.0718838308612 0 0)
(-0.284143223589 0 0)
(-0.707105203213 0 0)
(0.445110188729 0 0)
(0.0360997227224 0 0)
(-0.274075903421 0 0)
(0.0726118705629 0 0)
(0.0532991089083 0 0)
(-0.0521777070546 0 0)
(0.280563624441 0 0)
(-0.28366203766 0 0)
(0.0650538345503 0 0)
(-0.281325879028 0 0)
(0.102011301279 0 0)
(0.43983167743 0 0)
(-0.437180395771 0 0)
(-0.322956426489 0 0)
(0.76105486083 0 0)
(-0.246371010721 0 0)
(-0.286149538318 0 0)
(-0.697863276193 0 0)
(0.642472052558 0 0)
(0.37781175844 0 0)
(0.250770590096 0 0)
(-0.655796622136 0 0)
(-0.727232385296 0 0)
(0.578333180181 0 0)
(-0.034597797416 0 0)
(-0.128877371906 0 0)
(0.723731352089 0 0)
(0.421845585455 0 0)
(-0.429422814536 0 0)
(0.426609974495 0 0)
(-0.174569519069 0 0)
(0.398506477562 0 0)
(0.402029036905 0 0)
(-0.225522639087 0 0)
(-0.00660535744431 0 0)
(0.627001618891 0 0)
(0.00294513615367 0 0)
(0.382939504189 0 0)
(-0.588006147294 0 0)
(-0.179066922714 0 0)
(0.128636559398 0 0)
(0.299130588246 0 0)
(0.55884532144 0 0)
(0.113754894902 0 0)
(0.35139075673 0 0)
(0.409626296573 0 0)
(0.213885728912 0 0)
(-0.376152935334 0 0)
(0.682612357309 0 0)
(-0.755260043451 0 0)
(0.102705055794 0 0)
(0.137777529784 0 0)
(-0.113226090463 0 0)
(-0.094807593725 0 0)
(-0.255027761662 0 0)
(0.311836471795 0 0)
(0.376597921839 0 0)
(-0.0820400608135 0 0)
(-0.191856559016 0 0)
(-0.517688653401 0 0)
(0.16489959055 0 0)
(-0.303950775737 0 0)
(-0.0206130985529 0 0)
(0.285120357426 0 0)
(0.635009678193 0 0)
(-0.792072029395 0 0)
(0.316605637338 0 0)
(0.265145200404 0 0)
(-0.327078099276 0 0)
(-0.123346425299 0 0)
(0.529824414304 0 0)
(0.106941418651 0 0)
(0.289998351266 0 0)
(0.0170883094004 0 0)
(0.404475538542 0 0)
(-0.11285268337 0 0)
(-0.279973579782 0 0)
(-0.0241516349351 0 0)
(-0.136768149542 0 0)
(-0.473071380791 0 0)
(-0.625911883092 0 0)
(-0.669018177228 0 0)
(-0.249927461362 0 0)
(0.38966478934 0 0)
(0.0335760929729 0 0)
(-0.00114727436278 0 0)
(0.00933432835828 0 0)
(0.225133194715 0 0)
(-0.749836141979 0 0)
(-0.387498025792 0 0)
(-0.560580087499 0 0)
(-0.733991865583 0 0)
(0.18090532144 0 0)
(0.606540831801 0 0)
(-0.236314736933 0 0)
(-0.226812541599 0 0)
(0.0407850659735 0 0)
(0.26925323561 0 0)
(0.604748503325 0 0)
(-0.444538128824 0 0)
(-0.272994908204 0 0)
(0.60789807471 0 0)
(0.257570887163 0 0)
(0.408391065439 0 0)
(0.158749299347 0 0)
(-0.367306837659 0 0)
(0.296851041847 0 0)
(-0.652047157886 0 0)
(0.747869591659 0 0)
(0.23317013682 0 0)
(-0.0445843716023 0 0)
(-0.202101814409 0 0)
(-0.238485364708 0 0)
(-0.468527570367 0 0)
(-0.771104055625 0 0)
(0.365405637765 0 0)
(-0.172459612926 0 0)
(-0.221067565312 0 0)
(-0.443686626429 0 0)
(0.737897283057 0 0)
(-0.00509531387807 0 0)
(-0.398996847559 0 0)
(-0.432031507904 0 0)
(0.196759172256 0 0)
(0.398291985674 0 0)
(0.545347738666 0 0)
(-0.112036523154 0 0)
(0.349348257762 0 0)
(0.7069023265 0 0)
(-0.167994417438 0 0)
(0.265165065658 0 0)
(0.270924094996 0 0)
(-0.299841763654 0 0)
(0.476729030403 0 0)
(-0.129554720187 0 0)
(0.791791324254 0 0)
(-0.607076148265 0 0)
(-0.694358698002 0 0)
(-0.279821216588 0 0)
(0.209334666018 0 0)
(-0.022011719119 0 0)
(0.320313647464 0 0)
(-0.0996346988183 0 0)
(0.06429308551 0 0)
(0.435343502741 0 0)
(-0.449757782226 0 0)
(0.0716639664808 0 0)
(-0.282247965277 0 0)
(-0.524682510302 0 0)
(0.515631899787 0 0)
(0.0831302120555 0 0)
(0.093694393793 0 0)
(0.334115214523 0 0)
(0.526858296711 0 0)
(0.380737735635 0 0)
(0.265000195915 0 0)
(-0.133515650008 0 0)
(0.281312495493 0 0)
(0.0917209354204 0 0)
(0.426093585978 0 0)
(0.658718596504 0 0)
(-0.750784676617 0 0)
(0.205107265068 0 0)
(0.385689439617 0 0)
(0.31526492167 0 0)
(0.441081487579 0 0)
(-0.183772512196 0 0)
(0.127529686402 0 0)
(-0.327199216026 0 0)
(0.0256364109689 0 0)
(0.249082261026 0 0)
(-0.262463119289 0 0)
(-0.0491039956157 0 0)
(-0.0643462497232 0 0)
(0.0976514203751 0 0)
(-0.567927095681 0 0)
(0.0612299131549 0 0)
(0.137466033121 0 0)
(0.685020523937 0 0)
(-0.492616031953 0 0)
(-0.545500618871 0 0)
(-0.216576787346 0 0)
(0.252613982858 0 0)
(-0.721645365577 0 0)
(0.303721738466 0 0)
(-0.565862412127 0 0)
(-0.337366905582 0 0)
(0.475388665789 0 0)
(0.830750492302 0 0)
(0.183314747307 0 0)
(0.249031921894 0 0)
(-0.456111669507 0 0)
(-0.797110067206 0 0)
(0.0828205873031 0 0)
(0.822884250424 0 0)
(-0.375458790959 0 0)
(0.380540536861 0 0)
(0.0778958449459 0 0)
(0.812530811353 0 0)
(0.172688620775 0 0)
(0.152006677235 0 0)
(0.191059076669 0 0)
(0.42551225894 0 0)
(-0.180650361112 0 0)
(0.772485126947 0 0)
(-0.0422766415962 0 0)
(0.00960709366727 0 0)
(-0.737720956178 0 0)
(-0.653171273733 0 0)
(0.0788742578447 0 0)
(0.0785727154184 0 0)
(0.0730197710788 0 0)
(-0.351405927349 0 0)
(0.311843825531 0 0)
(-0.504477156432 0 0)
(0.652282905092 0 0)
(-0.082014358007 0 0)
(-0.390386572284 0 0)
(-0.623471154375 0 0)
(-0.382256091057 0 0)
(0.389770437015 0 0)
(-0.0441949031167 0 0)
(0.451297893705 0 0)
(-0.273473264327 0 0)
(0.328533241997 0 0)
(0.594493557281 0 0)
(0.220955528766 0 0)
(0.710220511085 0 0)
(-0.663607951044 0 0)
(-0.207457841375 0 0)
(-0.78514763319 0 0)
(0.659158214277 0 0)
(-0.0120642000434 0 0)
(0.578721885235 0 0)
(-0.420931011582 0 0)
(0.42914710721 0 0)
(0.493581419895 0 0)
(-0.414550034909 0 0)
(0.10035427088 0 0)
(0.798600101147 0 0)
(-0.124550297167 0 0)
(0.626243247688 0 0)
(0.656813493851 0 0)
(-0.479302282617 0 0)
(-0.819059863169 0 0)
(-0.111614423813 0 0)
(0.283973078313 0 0)
(0.0626637523099 0 0)
(-0.792372832306 0 0)
(0.0507536598168 0 0)
(0.191016319357 0 0)
(-0.530837990592 0 0)
(0.479284385962 0 0)
(0.354364541567 0 0)
(-0.657616813197 0 0)
(-0.479231982885 0 0)
(-0.456621235922 0 0)
(0.194368147667 0 0)
(0.577432035551 0 0)
(-0.74717143109 0 0)
(0.132345652755 0 0)
(-0.436899497463 0 0)
(-0.526849168944 0 0)
(0.229947031257 0 0)
(-0.0464895061002 0 0)
(0.511451256731 0 0)
(0.430826641038 0 0)
(0.246645361884 0 0)
(0.0720208633148 0 0)
(-0.141785310515 0 0)
(0.22324438103 0 0)
(-0.344640341532 0 0)
(-0.335199271101 0 0)
(-0.783543312624 0 0)
(0.258110211595 0 0)
(0.137361814234 0 0)
(-0.582932231791 0 0)
(-0.302130521248 0 0)
(-0.538346646885 0 0)
(-0.449258233584 0 0)
(-0.221610016968 0 0)
(0.777598280035 0 0)
(-0.25067543591 0 0)
(-0.347546318952 0 0)
(0.453845841514 0 0)
(0.269703189614 0 0)
(0.0633454855006 0 0)
(0.091723564095 0 0)
(-0.124608941818 0 0)
(-0.571424597221 0 0)
(0.0358604207303 0 0)
(-0.737130124586 0 0)
(0.317976413833 0 0)
(0.27371307342 0 0)
(-0.433973336009 0 0)
(-0.499174600839 0 0)
(0.304383776361 0 0)
(-0.0359926704382 0 0)
(0.0103113389947 0 0)
(-0.322570267449 0 0)
(-0.466610390462 0 0)
(0.551453471405 0 0)
(0.481328400407 0 0)
(-0.414585583014 0 0)
(-0.273527551945 0 0)
(0.0215756117304 0 0)
(-0.151281856655 0 0)
(0.819407759398 0 0)
(0.300200486332 0 0)
(-0.740114008366 0 0)
(0.608529236268 0 0)
(-0.483639671005 0 0)
(0.884772127156 0 0)
(-0.427952324886 0 0)
(-0.846462529959 0 0)
(-0.569016997414 0 0)
(-0.0999033773097 0 0)
(-0.474663786229 0 0)
(-0.367118501561 0 0)
(0.762977066848 0 0)
(0.416502435871 0 0)
(-0.409562440326 0 0)
(-0.182382549162 0 0)
(-0.670118430553 0 0)
(0.705929136473 0 0)
(0.567394003553 0 0)
(0.217757448138 0 0)
(-0.239572095352 0 0)
(0.0363948486237 0 0)
(-0.397878578206 0 0)
(-0.293018162149 0 0)
(0.000500112014295 0 0)
(-0.116903511586 0 0)
(0.157257203234 0 0)
(-0.225491210399 0 0)
(-0.647312316206 0 0)
(0.678758660235 0 0)
(0.267605676755 0 0)
(0.168664654187 0 0)
(-0.812515362189 0 0)
(0.256261278841 0 0)
(-0.717049721428 0 0)
(0.548949149722 0 0)
(-0.221178801112 0 0)
(-0.247954040573 0 0)
(-0.557436203912 0 0)
(0.453411367178 0 0)
(-0.361920420721 0 0)
(-0.269581418576 0 0)
(-0.704483286984 0 0)
(0.862069666078 0 0)
(-0.127992100389 0 0)
(-0.637720337799 0 0)
(0.128404895932 0 0)
(0.342318569314 0 0)
(0.658647925788 0 0)
(-0.883319732799 0 0)
(-0.452927745487 0 0)
(-0.765543241624 0 0)
(0.0434728330946 0 0)
(-0.490714200765 0 0)
(-0.43406796469 0 0)
(0.575420684623 0 0)
(-0.323073769073 0 0)
(0.70065981356 0 0)
(0.294693780089 0 0)
(0.452826104722 0 0)
(-0.097450282175 0 0)
(-0.0707834970427 0 0)
(0.549939597675 0 0)
(0.826101203687 0 0)
(0.0755164060561 0 0)
(-0.786734525913 0 0)
(-0.691213745476 0 0)
(0.289428344911 0 0)
(-0.252774183543 0 0)
(0.443842475344 0 0)
(0.151186503048 0 0)
(-0.843251151414 0 0)
(-0.170714851118 0 0)
(-0.373655418988 0 0)
(0.358849125413 0 0)
(-0.481554703395 0 0)
(-0.612456748037 0 0)
(0.70081659772 0 0)
(-0.663688927236 0 0)
(-0.713043569199 0 0)
(0.210893976343 0 0)
(-0.485238735738 0 0)
(0.0249458846076 0 0)
(0.409771597472 0 0)
(0.743469086699 0 0)
(0.824756820003 0 0)
(0.185008285951 0 0)
(-0.517354693144 0 0)
(-0.757361161091 0 0)
(-0.133899376404 0 0)
(-0.538199838579 0 0)
(-0.812946216277 0 0)
(0.213984933986 0 0)
(0.256786274404 0 0)
(0.179147935292 0 0)
(0.453709345575 0 0)
(-0.43491377995 0 0)
(0.456551393309 0 0)
(0.402577569011 0 0)
(0.136363843798 0 0)
(0.477712646521 0 0)
(-0.176987817845 0 0)
(-0.250192616353 0 0)
(0.549037734887 0 0)
(-0.677100093456 0 0)
(0.526343133211 0 0)
(-0.339000530245 0 0)
(0.389136635 0 0)
(0.329690109231 0 0)
(-0.255347433134 0 0)
(-0.419181213395 0 0)
(-0.358344515366 0 0)
(0.431901094 0 0)
(-0.827841350731 0 0)
(-0.296533097278 0 0)
(-0.402843710099 0 0)
(-0.15634222796 0 0)
(0.790270819525 0 0)
(0.54763816874 0 0)
(-0.237511801196 0 0)
(-0.196545404782 0 0)
(-0.338147389579 0 0)
(0.341565910764 0 0)
(0.678088477071 0 0)
(-0.476787413011 0 0)
(-0.213248606272 0 0)
(0.339001649217 0 0)
(-0.668770551465 0 0)
(0.746304977665 0 0)
(0.0822911155404 0 0)
(0.570086047908 0 0)
(0.662985240347 0 0)
(-0.379546657742 0 0)
(0.462452434015 0 0)
(0.326897546061 0 0)
(0.915711480541 0 0)
(-0.706495840355 0 0)
(-0.371119269478 0 0)
(0.280023750835 0 0)
(0.130698626167 0 0)
(0.0699733101022 0 0)
(-0.732522889386 0 0)
(0.589380900308 0 0)
(0.56771774053 0 0)
(-0.236790256925 0 0)
(0.553682261481 0 0)
(-0.596108210383 0 0)
(-0.392165579887 0 0)
(-0.428612561852 0 0)
(-0.49276259096 0 0)
(-0.600825095862 0 0)
(0.770126843144 0 0)
(0.30491351903 0 0)
(0.288067953793 0 0)
(-0.459206396633 0 0)
(-0.247663567743 0 0)
(0.635126945206 0 0)
(0.173300938078 0 0)
(-0.390696194537 0 0)
(0.257385332781 0 0)
(-0.466014980598 0 0)
(-0.00409369290578 0 0)
(0.876096717908 0 0)
(0.429016745798 0 0)
(0.5722033279 0 0)
(0.451717916769 0 0)
(0.173905369144 0 0)
(-0.750113506302 0 0)
(0.599954591467 0 0)
(-0.554011769617 0 0)
(-0.151103390434 0 0)
(0.90328027509 0 0)
(0.235923761936 0 0)
(-0.292897511076 0 0)
(-0.6195399085 0 0)
(-0.0311505438289 0 0)
(-0.845595351477 0 0)
(0.391090457418 0 0)
(-0.599017294545 0 0)
(-0.218279824015 0 0)
(-0.355025671747 0 0)
(-0.310709301562 0 0)
(0.399689481891 0 0)
(0.308575637232 0 0)
(-0.506404681388 0 0)
(-0.343415005311 0 0)
(0.358023072422 0 0)
(0.753187154965 0 0)
(0.0306335733422 0 0)
(0.558597600801 0 0)
(-0.47534849987 0 0)
(-0.231040631684 0 0)
(-0.677714194915 0 0)
(-0.934222531588 0 0)
(-0.206864242871 0 0)
(-0.891318898882 0 0)
(-0.86220510273 0 0)
(0.279316815331 0 0)
(-0.172232447666 0 0)
(-0.674586860157 0 0)
(-0.149457693384 0 0)
(0.111883217485 0 0)
(-0.817650020872 0 0)
(-0.901552747029 0 0)
(-0.349788840135 0 0)
(-0.375828073916 0 0)
(0.417698144902 0 0)
(0.652280196314 0 0)
(0.531752313045 0 0)
(-0.770152636553 0 0)
(-0.660931112554 0 0)
(-0.553944323592 0 0)
(0.202248420113 0 0)
(0.808725213392 0 0)
(0.20573717138 0 0)
(0.55711985119 0 0)
(0.754925455141 0 0)
(-0.226531106374 0 0)
(-0.534955765356 0 0)
(0.181225115293 0 0)
(0.946993156406 0 0)
(-0.0135802191498 0 0)
(-0.290295091963 0 0)
(-0.30834890152 0 0)
(0.557318619794 0 0)
(-0.502037544372 0 0)
(-0.0613377738738 0 0)
(-0.438518446232 0 0)
(-0.456883719346 0 0)
(0.384188888477 0 0)
(0.330547736811 0 0)
(-0.685553909694 0 0)
(-0.332383805807 0 0)
(0.508640558676 0 0)
(0.146874361956 0 0)
(-0.220908172236 0 0)
(-0.466778068977 0 0)
(-0.36236397867 0 0)
(-0.931056695883 0 0)
(-0.598935835248 0 0)
(0.316237213307 0 0)
(-0.931718820124 0 0)
(-0.685802415637 0 0)
(-0.865392287006 0 0)
(0.477022696443 0 0)
(0.186823217206 0 0)
(0.370072834713 0 0)
(-0.432581490705 0 0)
(0.728619033372 0 0)
(-0.00106153952419 0 0)
(-0.468315397266 0 0)
(0.117181809464 0 0)
(-0.0353023972279 0 0)
(-0.441606458672 0 0)
(0.274133684525 0 0)
(0.498218700688 0 0)
(-0.0617534570071 0 0)
(0.746757145296 0 0)
(-0.519645816474 0 0)
(-0.568784399116 0 0)
(-0.762178434302 0 0)
(0.687353392922 0 0)
(-0.474360836058 0 0)
(0.594838768105 0 0)
(0.324511080047 0 0)
(-0.589289865512 0 0)
(-0.529480848986 0 0)
(-0.408258671441 0 0)
(-0.445299469592 0 0)
(0.47762953581 0 0)
(0.670365257835 0 0)
(-0.461162702244 0 0)
(-0.562249048605 0 0)
(0.160172417961 0 0)
(-0.588842769372 0 0)
(-0.558937581224 0 0)
(0.217947239318 0 0)
(-0.155353536669 0 0)
(-0.929300363485 0 0)
(0.368029742153 0 0)
(0.570598676139 0 0)
(-0.777981705172 0 0)
(0.345154619566 0 0)
(0.137339857359 0 0)
(-0.88869944871 0 0)
(-0.416979321333 0 0)
(0.554036697449 0 0)
(-0.440979636151 0 0)
(0.433597422507 0 0)
(0.530384369055 0 0)
(-0.379017168768 0 0)
(0.256073182777 0 0)
(-0.215676230927 0 0)
(0.941962460449 0 0)
(-0.502999085105 0 0)
(0.974340803882 0 0)
(0.314929733354 0 0)
(-0.212198228623 0 0)
(0.605050191815 0 0)
(0.237315541881 0 0)
(-0.75333537939 0 0)
(-0.360431569145 0 0)
(0.535669007947 0 0)
(-0.344637699293 0 0)
(-0.495658421888 0 0)
(0.205447812353 0 0)
(-0.00987442897888 0 0)
(-0.302402956591 0 0)
(-0.819157560682 0 0)
(-0.87226271033 0 0)
(-0.0281720769641 0 0)
(0.300771046379 0 0)
(0.125244722429 0 0)
(-0.230706305959 0 0)
(0.85446278057 0 0)
(-0.39262884498 0 0)
(0.736879984466 0 0)
(0.334326734206 0 0)
(0.900452139848 0 0)
(0.418988235348 0 0)
(0.66049535972 0 0)
(0.835359022135 0 0)
(0.0299453196905 0 0)
(0.11026451214 0 0)
(-0.392678152345 0 0)
(-0.750217968612 0 0)
(0.0292583199398 0 0)
(0.428534072044 0 0)
(-0.114644642101 0 0)
(-0.675049803901 0 0)
(-0.260662235366 0 0)
(0.000279372353651 0 0)
(-0.358860642112 0 0)
(-0.306019455787 0 0)
(0.568849127742 0 0)
(0.466533988343 0 0)
(0.561708760534 0 0)
(-0.439911136123 0 0)
(-0.913116365136 0 0)
(0.909887538561 0 0)
(-0.307124359171 0 0)
(0.62040607982 0 0)
(-0.519184917968 0 0)
(-0.628542342621 0 0)
(0.372158495389 0 0)
(0.0411949574744 0 0)
(0.933429920462 0 0)
(-0.09937762286 0 0)
(-0.237114164946 0 0)
(-0.26999432267 0 0)
(0.288763786403 0 0)
(-0.418389584092 0 0)
(0.572855563615 0 0)
(-0.861987483423 0 0)
(-0.387353202054 0 0)
(-0.392852263753 0 0)
(-0.437620180218 0 0)
(-0.491820384353 0 0)
(-0.806288300664 0 0)
(-0.430191020528 0 0)
(-0.55643377495 0 0)
(-0.986667552947 0 0)
(0.1622729972 0 0)
(-0.526117515155 0 0)
(-0.763474904719 0 0)
(0.255428160015 0 0)
(-0.266719317559 0 0)
(-0.490800458653 0 0)
(0.597041113236 0 0)
(0.738010669761 0 0)
(0.132383159269 0 0)
(-0.363756267044 0 0)
(0.131686826745 0 0)
(-0.551258884697 0 0)
(-0.742619554848 0 0)
(0.244455592801 0 0)
(-0.46514683259 0 0)
(1.00052775653 0 0)
(-0.0245865497637 0 0)
(0.118833850402 0 0)
(0.451664713402 0 0)
(-0.783634070005 0 0)
(0.353304681815 0 0)
(-0.858415172021 0 0)
(0.241513755602 0 0)
(-0.187294215892 0 0)
(0.574763250863 0 0)
(-0.823656438109 0 0)
(0.742032388592 0 0)
(-0.289790029391 0 0)
(-0.242878128795 0 0)
(0.806158596686 0 0)
(0.76186443266 0 0)
(0.858978146977 0 0)
(0.506063139328 0 0)
(-0.920918637933 0 0)
(-0.463107903918 0 0)
(0.398437605847 0 0)
(-0.48168526993 0 0)
(-0.392130820088 0 0)
(0.581727524769 0 0)
(0.331908095962 0 0)
(-0.758417427493 0 0)
(0.882719286273 0 0)
(-0.645868522795 0 0)
(0.117148270873 0 0)
(-0.280719096981 0 0)
(0.819804427324 0 0)
(-0.32372828434 0 0)
(-0.983440575493 0 0)
(-0.342332610449 0 0)
(0.86348579402 0 0)
(-0.482307827278 0 0)
(-0.711441896727 0 0)
(0.224231918985 0 0)
(0.216809171436 0 0)
(-0.827006328188 0 0)
(0.831746976231 0 0)
(0.413236614973 0 0)
(0.326094793013 0 0)
(-0.74308770682 0 0)
(-0.49786513634 0 0)
(-0.895184796836 0 0)
(0.176068385486 0 0)
(-0.255152422207 0 0)
(-0.338725177497 0 0)
(0.207460768336 0 0)
(-0.234220028698 0 0)
(0.346775191525 0 0)
(0.324031767018 0 0)
(-0.277243622529 0 0)
(0.286905791722 0 0)
(0.0496394605373 0 0)
(-0.354778443413 0 0)
(-0.606395757846 0 0)
(0.316429594635 0 0)
(-0.642654640612 0 0)
(0.0573179234369 0 0)
(-0.486719490424 0 0)
(0.067721229455 0 0)
(0.241858179289 0 0)
(-0.574452797064 0 0)
(-0.732758955791 0 0)
(1.02444087808 0 0)
(0.730822820105 0 0)
(0.49143622763 0 0)
(0.507056834342 0 0)
(-0.379558869807 0 0)
(0.541194523308 0 0)
(0.984794939626 0 0)
(-0.882796157558 0 0)
(0.140744401431 0 0)
(-0.341369508517 0 0)
(-0.114663475151 0 0)
(0.773220839861 0 0)
(-0.732235027367 0 0)
(-0.556477313845 0 0)
(-0.778785002227 0 0)
(-0.476754339151 0 0)
(-0.782161764659 0 0)
(-0.413063906141 0 0)
(0.416002023813 0 0)
(0.357468074678 0 0)
(-0.580783201731 0 0)
(-0.692013960072 0 0)
(-0.511054231448 0 0)
(0.100352845356 0 0)
(-0.604413675591 0 0)
(-0.517309440334 0 0)