/*--------------------------------*- C++ -*----------------------------------*\
| =========                 |                                                 |
| \\      /  F ield         | OpenFOAM: The Open Source CFD Toolbox           |
|  \\    /   O peration     | Version:  v1706                                 |
|   \\  /    A nd           | Web:      www.OpenFOAM.com                      |
|    \\/     M anipulation  |                                                 |
\*---------------------------------------------------------------------------*/
FoamFile
{
    version     2.0;
    format      ascii;
    class       volScalarField;
    location    "0.1";
    object      meanCollisionTime_Ar;
}
// * * * * * * * * * * * * * * * * * * * * * * * * * * * * * * * * * * * * * //

dimensions      [0 0 1 0 0 0 0];


internalField   nonuniform List<scalar> 
1000
(
2.437385866e-05
2.437275059e-05
2.43255463e-05
2.404369369e-05
2.403489451e-05
2.417095389e-05
2.44727303e-05
2.452829553e-05
2.438382155e-05
2.426616902e-05
2.434637909e-05
2.42291811e-05
2.422992867e-05
2.42883098e-05
2.42796538e-05
2.426925215e-05
2.433506241e-05
2.430390549e-05
2.43980488e-05
2.446033691e-05
2.436553804e-05
2.433331045e-05
2.440215079e-05
2.438690384e-05
2.442305616e-05
2.417419876e-05
2.416669899e-05
2.437364064e-05
2.431464565e-05
2.427035023e-05
2.44203373e-05
2.444600247e-05
2.439022074e-05
2.445500541e-05
2.422645571e-05
2.425472122e-05
2.421612063e-05
2.422642484e-05
2.416713946e-05
2.418478629e-05
2.430749358e-05
2.425497942e-05
2.437073766e-05
2.432700908e-05
2.449639195e-05
2.439318089e-05
2.442496816e-05
2.421733773e-05
2.444108554e-05
2.423842473e-05
2.416418565e-05
2.416911207e-05
2.436686011e-05
2.430399832e-05
2.438678611e-05
2.432535725e-05
2.441168219e-05
2.429949803e-05
2.421351009e-05
2.438555686e-05
2.426568091e-05
2.456512185e-05
2.446485601e-05
2.456223804e-05
2.428965533e-05
2.451130737e-05
2.44339527e-05
2.442703801e-05
2.433118794e-05
2.432158257e-05
2.459062298e-05
2.445115508e-05
2.4465084e-05
2.447122109e-05
2.446011965e-05
2.431430704e-05
2.447504192e-05
2.434378365e-05
2.440609458e-05
2.443892789e-05
2.416481246e-05
2.421850016e-05
2.430520337e-05
2.429619726e-05
2.43430779e-05
2.436298606e-05
2.413009629e-05
2.414989981e-05
2.409492541e-05
2.404535633e-05
2.410512487e-05
2.411691396e-05
2.4188903e-05
2.44059663e-05
2.43686277e-05
2.45119167e-05
2.436418288e-05
2.458897847e-05
2.445377393e-05
2.446185101e-05
2.462725836e-05
2.447425834e-05
2.438333171e-05
2.439153158e-05
2.445893584e-05
2.435932406e-05
2.441532057e-05
2.445559205e-05
2.429385142e-05
2.418666359e-05
2.434938963e-05
2.439805537e-05
2.436030779e-05
2.440117628e-05
2.440176306e-05
2.441728968e-05
2.421908805e-05
2.430770805e-05
2.438924051e-05
2.440406556e-05
2.427755617e-05
2.422316403e-05
2.427937165e-05
2.409523345e-05
2.441117205e-05
2.42516068e-05
2.43119175e-05
2.410219912e-05
2.428538825e-05
2.416682601e-05
2.427154253e-05
2.437186123e-05
2.405684925e-05
2.396631134e-05
2.41430907e-05
2.416921238e-05
2.428062221e-05
2.427855695e-05
2.432672145e-05
2.443608576e-05
2.43184962e-05
2.41673532e-05
2.432342149e-05
2.430401703e-05
2.41623862e-05
2.434477808e-05
2.418169705e-05
2.429624082e-05
2.425837189e-05
2.4350994e-05
2.420811176e-05
2.441445532e-05
2.430768033e-05
2.439393797e-05
2.44759577e-05
2.455592945e-05
2.432185791e-05
2.44115469e-05
2.441502767e-05
2.427477501e-05
2.431527572e-05
2.446665791e-05
2.437557025e-05
2.4351933e-05
2.445135131e-05
2.424482948e-05
2.423087919e-05
2.427707982e-05
2.424802641e-05
2.420384507e-05
2.415840814e-05
2.427595131e-05
2.434934949e-05
2.445118747e-05
2.440840648e-05
2.425820469e-05
2.426665514e-05
2.433592774e-05
2.424001559e-05
2.446274065e-05
2.43194283e-05
2.413920945e-05
2.42568352e-05
2.443125565e-05
2.43180462e-05
2.439796381e-05
2.436930979e-05
2.433135476e-05
2.433711142e-05
2.431932663e-05
2.425210196e-05
2.435171474e-05
2.452415498e-05
2.445376762e-05
2.422586296e-05
2.437127864e-05
2.429681608e-05
2.43467305e-05
2.437723232e-05
2.423134815e-05
2.414681981e-05
2.415330865e-05
2.429638184e-05
2.427959784e-05
2.434910291e-05
2.424636661e-05
2.432761599e-05
2.446518533e-05
2.427159252e-05
2.424047708e-05
2.449454704e-05
2.411613896e-05
2.403398397e-05
2.425509117e-05
2.419900937e-05
2.428490639e-05
2.419088452e-05
2.440779656e-05
2.420473641e-05
2.435934052e-05
2.421037382e-05
2.426224886e-05
2.433504214e-05
2.43442958e-05
2.435025753e-05
2.42377826e-05
2.42910806e-05
2.427721273e-05
2.426223522e-05
2.425002986e-05
2.431516554e-05
2.435252839e-05
2.437943627e-05
2.441848376e-05
2.446915409e-05
2.420026564e-05
2.426983268e-05
2.409113557e-05
2.432845695e-05
2.423309984e-05
2.428877626e-05
2.432508009e-05
2.429407947e-05
2.434652809e-05
2.438574071e-05
2.446074758e-05
2.424507877e-05
2.413907876e-05
2.454539195e-05
2.436775961e-05
2.443453109e-05
2.421108249e-05
2.428382133e-05
2.439679968e-05
2.454067778e-05
2.433116292e-05
2.436510218e-05
2.445320248e-05
2.426840415e-05
2.432444902e-05
2.449231894e-05
2.441274487e-05
2.4524848e-05
2.43816735e-05
2.451717228e-05
2.45411846e-05
2.430792918e-05
2.421590807e-05
2.452908654e-05
2.437250728e-05
2.430174242e-05
2.451662883e-05
2.430427506e-05
2.427991777e-05
2.424427122e-05
2.432535178e-05
2.430321339e-05
2.422171028e-05
2.417675268e-05
2.430425567e-05
2.426353168e-05
2.42312328e-05
2.435464051e-05
2.407834667e-05
2.429472431e-05
2.437508807e-05
2.409843173e-05
2.416882124e-05
2.406573652e-05
2.414417396e-05
2.442572325e-05
2.433704001e-05
2.406403002e-05
2.427755357e-05
2.449505717e-05
2.445293139e-05
2.434508593e-05
2.430717788e-05
2.434606906e-05
2.448765941e-05
2.442566078e-05
2.460452178e-05
2.448421808e-05
2.431180993e-05
2.437686426e-05
2.430254318e-05
2.437749213e-05
2.43695856e-05
2.43827445e-05
2.444048085e-05
2.445008541e-05
2.453018556e-05
2.429450439e-05
2.453063581e-05
2.421251467e-05
2.41378232e-05
2.414515328e-05
2.440020573e-05
2.443717955e-05
2.414046161e-05
2.416870304e-05
2.443071447e-05
2.430532395e-05
2.422954098e-05
2.421798284e-05
2.416922809e-05
2.419250936e-05
2.431891467e-05
2.420460649e-05
2.445639423e-05
2.427385788e-05
2.413059383e-05
2.41389334e-05
2.417002818e-05
2.416677848e-05
2.424239053e-05
2.420770433e-05
2.441579151e-05
2.450973282e-05
2.465573712e-05
2.419446521e-05
2.424097167e-05
2.42199903e-05
2.439080564e-05
2.441853472e-05
2.433066548e-05
2.427153787e-05
2.433759646e-05
2.441468744e-05
2.429628426e-05
2.431341201e-05
2.444761277e-05
2.447590197e-05
2.442643876e-05
2.432215824e-05
2.446460029e-05
2.447641592e-05
2.445371637e-05
2.439757451e-05
2.415959933e-05
2.417915912e-05
2.431035004e-05
2.442070826e-05
2.443394648e-05
2.430333322e-05
2.399322107e-05
2.421425402e-05
2.425290155e-05
2.421340215e-05
2.425182074e-05
2.449546182e-05
2.413749987e-05
2.437176294e-05
2.446227349e-05
2.428748643e-05
2.438459182e-05
2.421961673e-05
2.43841269e-05
2.455271626e-05
2.461372606e-05
2.436702041e-05
2.446636632e-05
2.430424651e-05
2.431162119e-05
2.431464697e-05
2.415002964e-05
2.438139748e-05
2.464292968e-05
2.434462675e-05
2.425598446e-05
2.439007189e-05
2.434894752e-05
2.442523351e-05
2.433816262e-05
2.444152548e-05
2.428046671e-05
2.426622325e-05
2.446477184e-05
2.439507528e-05
2.450259065e-05
2.428076603e-05
2.426839215e-05
2.416476495e-05
2.422751201e-05
2.431501454e-05
2.421500668e-05
2.438548937e-05
2.426437018e-05
2.431506699e-05
2.431006278e-05
2.426693818e-05
2.416330482e-05
2.421454384e-05
2.440065252e-05
2.424438377e-05
2.431824135e-05
2.417024221e-05
2.418271757e-05
2.431234538e-05
2.431555958e-05
2.424858154e-05
2.405130294e-05
2.431885406e-05
2.404983973e-05
2.418896886e-05
2.415458123e-05
2.419360313e-05
2.435451373e-05
2.443220572e-05
2.438516085e-05
2.430506895e-05
2.417599572e-05
2.426744788e-05
2.442906748e-05
2.447286007e-05
2.426870281e-05
2.420273188e-05
2.427132975e-05
2.435738715e-05
2.424951056e-05
2.425543152e-05
2.439036366e-05
2.431765954e-05
2.448080127e-05
2.432831924e-05
2.437304046e-05
2.441620709e-05
2.430975481e-05
2.453807353e-05
2.444594787e-05
2.423394972e-05
2.445076424e-05
2.444228347e-05
2.42970889e-05
2.432883727e-05
2.449959741e-05
2.454412485e-05
2.447710162e-05
2.458468605e-05
2.439156513e-05
2.439942268e-05
2.451330005e-05
2.454834522e-05
2.461031697e-05
2.442255548e-05
2.435925074e-05
2.414925074e-05
2.453331848e-05
2.452921847e-05
2.451204656e-05
2.450317629e-05
2.439718503e-05
2.435931429e-05
2.432146474e-05
2.418030844e-05
2.433227606e-05
2.414649193e-05
2.420598776e-05
2.409459545e-05
2.423705951e-05
2.427390977e-05
2.42088258e-05
2.425315719e-05
2.434856814e-05
2.438913843e-05
2.435201072e-05
2.427205026e-05
2.418286403e-05
2.423405579e-05
2.428732781e-05
2.42822989e-05
2.431981465e-05
2.419079586e-05
2.439184473e-05
2.454238555e-05
2.427070303e-05
2.430574075e-05
2.449250056e-05
2.434874772e-05
2.447370376e-05
2.449621448e-05
2.453919039e-05
2.451460806e-05
2.426981614e-05
2.436546141e-05
2.426237977e-05
2.43238e-05
2.4154883e-05
2.438469821e-05
2.443818261e-05
2.426249898e-05
2.428880657e-05
2.452252987e-05
2.438053472e-05
2.418342258e-05
2.447642797e-05
2.459948376e-05
2.441560714e-05
2.457140015e-05
2.412114917e-05
2.435103412e-05
2.431150257e-05
2.434990292e-05
2.414580718e-05
2.428680645e-05
2.412489035e-05
2.422137714e-05
2.432776273e-05
2.416465658e-05
2.449317587e-05
2.413416654e-05
2.42767476e-05
2.433474807e-05
2.427335011e-05
2.420457337e-05
2.429251191e-05
2.407619862e-05
2.425588006e-05
2.423967664e-05
2.439733736e-05
2.422810982e-05
2.4187896e-05
2.423355618e-05
2.401411731e-05
2.447803035e-05
2.439755021e-05
2.435455553e-05
2.442959285e-05
2.43624088e-05
2.428226344e-05
2.442943037e-05
2.445757132e-05
2.443720726e-05
2.448488806e-05
2.43938733e-05
2.420921166e-05
2.423605951e-05
2.436143434e-05
2.422343609e-05
2.430325099e-05
2.431207874e-05
2.438876028e-05
2.461217354e-05
2.427952287e-05
2.431492092e-05
2.43805335e-05
2.441677864e-05
2.443828687e-05
2.42695638e-05
2.422198103e-05
2.416675916e-05
2.43034429e-05
2.435460532e-05
2.447417258e-05
2.437140426e-05
2.439988661e-05
2.42545926e-05
2.428628899e-05
2.450300818e-05
2.433408299e-05
2.432179576e-05
2.439289665e-05
2.433590379e-05
2.429740359e-05
2.432883493e-05
2.443593761e-05
2.440528142e-05
2.436024922e-05
2.435020564e-05
2.418665419e-05
2.422462895e-05
2.439507983e-05
2.436494826e-05
2.42310708e-05
2.431334385e-05
2.428389593e-05
2.41807877e-05
2.42355499e-05
2.43682213e-05
2.423366534e-05
2.441004615e-05
2.417824982e-05
2.424205911e-05
2.421505183e-05
2.417385323e-05
2.431183651e-05
2.416070238e-05
2.430342168e-05
2.427154017e-05
2.446889888e-05
2.413701199e-05
2.421050004e-05
2.436989455e-05
2.436462384e-05
2.427276485e-05
2.428947114e-05
2.434025217e-05
2.442902546e-05
2.424234889e-05
2.434632642e-05
2.440877642e-05
2.419705008e-05
2.400009823e-05
2.413753745e-05
2.419105396e-05
2.429428852e-05
2.431272635e-05
2.435010789e-05
2.432245379e-05
2.416017523e-05
2.4278471e-05
2.419517707e-05
2.428064812e-05
2.445162307e-05
2.446765814e-05
2.454253606e-05
2.438826614e-05
2.423270895e-05
2.418915713e-05
2.433355734e-05
2.432270959e-05
2.406708954e-05
2.419994121e-05
2.433257158e-05
2.431139921e-05
2.455062636e-05
2.462603554e-05
2.447962404e-05
2.448886338e-05
2.443610201e-05
2.437453283e-05
2.443812143e-05
2.433721354e-05
2.432866773e-05
2.438216753e-05
2.432705831e-05
2.439462917e-05
2.47044227e-05
2.456819976e-05
2.431751405e-05
2.455839298e-05
2.445136737e-05
2.450470586e-05
2.452352032e-05
2.458670516e-05
2.435299055e-05
2.436375276e-05
2.433396161e-05
2.436724957e-05
2.439792752e-05
2.438462832e-05
2.431790731e-05
2.432408696e-05
2.434564927e-05
2.407733265e-05
2.43805623e-05
2.435006018e-05
2.426934991e-05
2.427999674e-05
2.440139608e-05
2.426071165e-05
2.438015853e-05
2.414881611e-05
2.416773993e-05
2.42220077e-05
2.419492397e-05
2.420701678e-05
2.42300067e-05
2.424810317e-05
2.416567558e-05
2.421142699e-05
2.43299074e-05
2.440636778e-05
2.443445599e-05
2.440934284e-05
2.43703546e-05
2.441871083e-05
2.438801381e-05
2.439387236e-05
2.441639887e-05
2.434224109e-05
2.440715706e-05
2.439901743e-05
2.422226509e-05
2.427432215e-05
2.420589814e-05
2.426711311e-05
2.437069649e-05
2.434667196e-05
2.445094163e-05
2.454290726e-05
2.446887269e-05
2.433977773e-05
2.44267766e-05
2.424920454e-05
2.430525258e-05
2.413626878e-05
2.437170876e-05
2.433691041e-05
2.42509394e-05
2.437996853e-05
2.442086057e-05
2.419154545e-05
2.412129541e-05
2.417029473e-05
2.417300915e-05
2.437875351e-05
2.424639463e-05
2.417110204e-05
2.430800661e-05
2.42949614e-05
2.413113188e-05
2.436980058e-05
2.432653324e-05
2.422283296e-05
2.406899398e-05
2.415965743e-05
2.425058008e-05
2.416815397e-05
2.423622988e-05
2.421681809e-05
2.436041628e-05
2.425748815e-05
2.413445703e-05
2.440405928e-05
2.427984084e-05
2.432860076e-05
2.433449978e-05
2.418182791e-05
2.449613819e-05
2.449715509e-05
2.44478527e-05
2.439350726e-05
2.446323158e-05
2.443937546e-05
2.404325979e-05
2.433863324e-05
2.423146277e-05
2.420313685e-05
2.426915666e-05
2.435647568e-05
2.414149604e-05
2.422773273e-05
2.422085302e-05
2.432952174e-05
2.408116071e-05
2.446088107e-05
2.447183014e-05
2.442102075e-05
2.429801056e-05
2.442109161e-05
2.409256774e-05
2.438758816e-05
2.414937616e-05
2.42312695e-05
2.424876204e-05
2.440201198e-05
2.432054223e-05
2.421217202e-05
2.417624933e-05
2.409966041e-05
2.436584574e-05
2.441674751e-05
2.418384081e-05
2.436302904e-05
2.429049648e-05
2.422664948e-05
2.432474953e-05
2.435473269e-05
2.427317207e-05
2.428421761e-05
2.422892707e-05
2.429687609e-05
2.417203163e-05
2.439579516e-05
2.409412004e-05
2.426511094e-05
2.424695716e-05
2.430124926e-05
2.430525246e-05
2.439510025e-05
2.427125081e-05
2.423194446e-05
2.423520307e-05
2.430917026e-05
2.443871067e-05
2.440678871e-05
2.439816022e-05
2.440373728e-05
2.426489211e-05
2.432502655e-05
2.435413474e-05
2.43119583e-05
2.425140375e-05
2.425518019e-05
2.445144298e-05
2.447808887e-05
2.440072167e-05
2.425044903e-05
2.414244936e-05
2.429750246e-05
2.435050741e-05
2.40921293e-05
2.408905196e-05
2.42006576e-05
2.417833333e-05
2.420876716e-05
2.424785245e-05
2.426860729e-05
2.430080901e-05
2.402706859e-05
2.421018422e-05
2.444696711e-05
2.446475788e-05
2.456176284e-05
2.4518115e-05
2.438489985e-05
2.430608618e-05
2.428373323e-05
2.416204642e-05
2.424504761e-05
2.419922571e-05
2.428718099e-05
2.429092438e-05
2.460594267e-05
2.464388403e-05
2.444079302e-05
2.458771228e-05
2.441476284e-05
2.443734465e-05
2.461076279e-05
2.440914842e-05
2.441767855e-05
2.458423805e-05
2.457766387e-05
2.447091067e-05
2.448122411e-05
2.450733481e-05
2.439320066e-05
2.437790217e-05
2.444952405e-05
2.426483422e-05
2.441746806e-05
2.437695735e-05
2.43907948e-05
2.423498822e-05
2.441405354e-05
2.434823978e-05
2.419540866e-05
2.439814976e-05
2.441328612e-05
2.432877601e-05
2.433397783e-05
2.431607069e-05
2.408699882e-05
2.44278043e-05
2.449082966e-05
2.438960932e-05
2.436628489e-05
2.429646162e-05
2.438501023e-05
2.445047612e-05
2.429441873e-05
2.434515225e-05
2.434974429e-05
2.423170238e-05
2.444191062e-05
2.434241104e-05
2.445142296e-05
2.442383852e-05
2.443250555e-05
2.453623001e-05
2.452738551e-05
2.431034959e-05
2.451572852e-05
2.456444378e-05
2.449510418e-05
2.427200687e-05
2.441253856e-05
2.437123179e-05
2.455671005e-05
2.427449076e-05
2.42330498e-05
2.428488898e-05
2.432240846e-05
2.447377642e-05
2.427075806e-05
2.430913843e-05
2.441988013e-05
2.43057637e-05
2.440365316e-05
2.430550826e-05
2.441630452e-05
2.448636289e-05
2.430651338e-05
2.409912111e-05
2.430694151e-05
2.423180927e-05
2.418444848e-05
2.420067893e-05
2.423816779e-05
2.415717634e-05
2.407129713e-05
2.406196545e-05
2.422331272e-05
2.426395006e-05
2.437845103e-05
2.421936406e-05
2.411617872e-05
2.427601617e-05
2.422936538e-05
2.416598439e-05
2.432565305e-05
2.423852071e-05
2.43324577e-05
2.436213818e-05
2.42899223e-05
2.423127898e-05
2.423262366e-05
2.40621964e-05
2.419729353e-05
2.428682998e-05
2.440836798e-05
2.436875064e-05
2.440317577e-05
2.418276292e-05
2.425342343e-05
2.43127793e-05
2.438291483e-05
2.434871562e-05
2.458150428e-05
2.449532459e-05
2.432594865e-05
2.427539193e-05
2.425067868e-05
2.427290789e-05
2.432617636e-05
2.419643108e-05
2.426409864e-05
2.433589952e-05
2.425191472e-05
2.433589998e-05
2.411304018e-05
2.415834533e-05
2.408397483e-05
2.418794978e-05
2.445020958e-05
2.44654638e-05
2.447995261e-05
2.435267108e-05
2.427195458e-05
2.432605292e-05
2.442290382e-05
2.453095315e-05
2.450092185e-05
2.436751689e-05
2.434256713e-05
2.42307134e-05
2.412184168e-05
2.41209186e-05
2.413194265e-05
2.423301328e-05
2.425164171e-05
2.443932294e-05
2.444961446e-05
2.438146519e-05
2.441779346e-05
2.422932611e-05
2.433494353e-05
2.412373409e-05
2.399252324e-05
2.422083912e-05
2.411642606e-05
2.435930231e-05
2.428232007e-05
2.424988958e-05
2.416469845e-05
2.435705225e-05
2.438035265e-05
2.428639284e-05
)
;

boundaryField
{
    bottom
    {
        type            calculated;
        value           nonuniform List<scalar> 
200
(
2.437385866e-05
2.437275059e-05
2.43255463e-05
2.404369369e-05
2.403489451e-05
2.417095389e-05
2.44727303e-05
2.452829553e-05
2.438382155e-05
2.426616902e-05
2.434637909e-05
2.42291811e-05
2.422992867e-05
2.42883098e-05
2.42796538e-05
2.426925215e-05
2.433506241e-05
2.430390549e-05
2.43980488e-05
2.446033691e-05
2.436553804e-05
2.433331045e-05
2.440215079e-05
2.438690384e-05
2.442305616e-05
2.417419876e-05
2.416669899e-05
2.437364064e-05
2.431464565e-05
2.427035023e-05
2.44203373e-05
2.444600247e-05
2.439022074e-05
2.445500541e-05
2.422645571e-05
2.425472122e-05
2.421612063e-05
2.422642484e-05
2.416713946e-05
2.418478629e-05
2.430749358e-05
2.425497942e-05
2.437073766e-05
2.432700908e-05
2.449639195e-05
2.439318089e-05
2.442496816e-05
2.421733773e-05
2.444108554e-05
2.423842473e-05
2.416418565e-05
2.416911207e-05
2.436686011e-05
2.430399832e-05
2.438678611e-05
2.432535725e-05
2.441168219e-05
2.429949803e-05
2.421351009e-05
2.438555686e-05
2.426568091e-05
2.456512185e-05
2.446485601e-05
2.456223804e-05
2.428965533e-05
2.451130737e-05
2.44339527e-05
2.442703801e-05
2.433118794e-05
2.432158257e-05
2.459062298e-05
2.445115508e-05
2.4465084e-05
2.447122109e-05
2.446011965e-05
2.431430704e-05
2.447504192e-05
2.434378365e-05
2.440609458e-05
2.443892789e-05
2.416481246e-05
2.421850016e-05
2.430520337e-05
2.429619726e-05
2.43430779e-05
2.436298606e-05
2.413009629e-05
2.414989981e-05
2.409492541e-05
2.404535633e-05
2.410512487e-05
2.411691396e-05
2.4188903e-05
2.44059663e-05
2.43686277e-05
2.45119167e-05
2.436418288e-05
2.458897847e-05
2.445377393e-05
2.446185101e-05
2.462725836e-05
2.447425834e-05
2.438333171e-05
2.439153158e-05
2.445893584e-05
2.435932406e-05
2.441532057e-05
2.445559205e-05
2.429385142e-05
2.418666359e-05
2.434938963e-05
2.439805537e-05
2.436030779e-05
2.440117628e-05
2.440176306e-05
2.441728968e-05
2.421908805e-05
2.430770805e-05
2.438924051e-05
2.440406556e-05
2.427755617e-05
2.422316403e-05
2.427937165e-05
2.409523345e-05
2.441117205e-05
2.42516068e-05
2.43119175e-05
2.410219912e-05
2.428538825e-05
2.416682601e-05
2.427154253e-05
2.437186123e-05
2.405684925e-05
2.396631134e-05
2.41430907e-05
2.416921238e-05
2.428062221e-05
2.427855695e-05
2.432672145e-05
2.443608576e-05
2.43184962e-05
2.41673532e-05
2.432342149e-05
2.430401703e-05
2.41623862e-05
2.434477808e-05
2.418169705e-05
2.429624082e-05
2.425837189e-05
2.4350994e-05
2.420811176e-05
2.441445532e-05
2.430768033e-05
2.439393797e-05
2.44759577e-05
2.455592945e-05
2.432185791e-05
2.44115469e-05
2.441502767e-05
2.427477501e-05
2.431527572e-05
2.446665791e-05
2.437557025e-05
2.4351933e-05
2.445135131e-05
2.424482948e-05
2.423087919e-05
2.427707982e-05
2.424802641e-05
2.420384507e-05
2.415840814e-05
2.427595131e-05
2.434934949e-05
2.445118747e-05
2.440840648e-05
2.425820469e-05
2.426665514e-05
2.433592774e-05
2.424001559e-05
2.446274065e-05
2.43194283e-05
2.413920945e-05
2.42568352e-05
2.443125565e-05
2.43180462e-05
2.439796381e-05
2.436930979e-05
2.433135476e-05
2.433711142e-05
2.431932663e-05
2.425210196e-05
2.435171474e-05
2.452415498e-05
2.445376762e-05
2.422586296e-05
2.437127864e-05
2.429681608e-05
2.43467305e-05
2.437723232e-05
2.423134815e-05
)
;
    }
    top
    {
        type            calculated;
        value           nonuniform List<scalar> 
200
(
2.439510025e-05
2.427125081e-05
2.423194446e-05
2.423520307e-05
2.430917026e-05
2.443871067e-05
2.440678871e-05
2.439816022e-05
2.440373728e-05
2.426489211e-05
2.432502655e-05
2.435413474e-05
2.43119583e-05
2.425140375e-05
2.425518019e-05
2.445144298e-05
2.447808887e-05
2.440072167e-05
2.425044903e-05
2.414244936e-05
2.429750246e-05
2.435050741e-05
2.40921293e-05
2.408905196e-05
2.42006576e-05
2.417833333e-05
2.420876716e-05
2.424785245e-05
2.426860729e-05
2.430080901e-05
2.402706859e-05
2.421018422e-05
2.444696711e-05
2.446475788e-05
2.456176284e-05
2.4518115e-05
2.438489985e-05
2.430608618e-05
2.428373323e-05
2.416204642e-05
2.424504761e-05
2.419922571e-05
2.428718099e-05
2.429092438e-05
2.460594267e-05
2.464388403e-05
2.444079302e-05
2.458771228e-05
2.441476284e-05
2.443734465e-05
2.461076279e-05
2.440914842e-05
2.441767855e-05
2.458423805e-05
2.457766387e-05
2.447091067e-05
2.448122411e-05
2.450733481e-05
2.439320066e-05
2.437790217e-05
2.444952405e-05
2.426483422e-05
2.441746806e-05
2.437695735e-05
2.43907948e-05
2.423498822e-05
2.441405354e-05
2.434823978e-05
2.419540866e-05
2.439814976e-05
2.441328612e-05
2.432877601e-05
2.433397783e-05
2.431607069e-05
2.408699882e-05
2.44278043e-05
2.449082966e-05
2.438960932e-05
2.436628489e-05
2.429646162e-05
2.438501023e-05
2.445047612e-05
2.429441873e-05
2.434515225e-05
2.434974429e-05
2.423170238e-05
2.444191062e-05
2.434241104e-05
2.445142296e-05
2.442383852e-05
2.443250555e-05
2.453623001e-05
2.452738551e-05
2.431034959e-05
2.451572852e-05
2.456444378e-05
2.449510418e-05
2.427200687e-05
2.441253856e-05
2.437123179e-05
2.455671005e-05
2.427449076e-05
2.42330498e-05
2.428488898e-05
2.432240846e-05
2.447377642e-05
2.427075806e-05
2.430913843e-05
2.441988013e-05
2.43057637e-05
2.440365316e-05
2.430550826e-05
2.441630452e-05
2.448636289e-05
2.430651338e-05
2.409912111e-05
2.430694151e-05
2.423180927e-05
2.418444848e-05
2.420067893e-05
2.423816779e-05
2.415717634e-05
2.407129713e-05
2.406196545e-05
2.422331272e-05
2.426395006e-05
2.437845103e-05
2.421936406e-05
2.411617872e-05
2.427601617e-05
2.422936538e-05
2.416598439e-05
2.432565305e-05
2.423852071e-05
2.43324577e-05
2.436213818e-05
2.42899223e-05
2.423127898e-05
2.423262366e-05
2.40621964e-05
2.419729353e-05
2.428682998e-05
2.440836798e-05
2.436875064e-05
2.440317577e-05
2.418276292e-05
2.425342343e-05
2.43127793e-05
2.438291483e-05
2.434871562e-05
2.458150428e-05
2.449532459e-05
2.432594865e-05
2.427539193e-05
2.425067868e-05
2.427290789e-05
2.432617636e-05
2.419643108e-05
2.426409864e-05
2.433589952e-05
2.425191472e-05
2.433589998e-05
2.411304018e-05
2.415834533e-05
2.408397483e-05
2.418794978e-05
2.445020958e-05
2.44654638e-05
2.447995261e-05
2.435267108e-05
2.427195458e-05
2.432605292e-05
2.442290382e-05
2.453095315e-05
2.450092185e-05
2.436751689e-05
2.434256713e-05
2.42307134e-05
2.412184168e-05
2.41209186e-05
2.413194265e-05
2.423301328e-05
2.425164171e-05
2.443932294e-05
2.444961446e-05
2.438146519e-05
2.441779346e-05
2.422932611e-05
2.433494353e-05
2.412373409e-05
2.399252324e-05
2.422083912e-05
2.411642606e-05
2.435930231e-05
2.428232007e-05
2.424988958e-05
2.416469845e-05
2.435705225e-05
2.438035265e-05
2.428639284e-05
)
;
    }
    inlet
    {
        type            calculated;
        value           nonuniform List<scalar> 5(2.437385866e-05 2.414681981e-05 2.428076603e-05 2.441004615e-05 2.439510025e-05);
    }
    outlet
    {
        type            calculated;
        value           nonuniform List<scalar> 5(2.423134815e-05 2.450259065e-05 2.423366534e-05 2.430525246e-05 2.428639284e-05);
    }
    back
    {
        type            symmetry;
    }
    front
    {
        type            symmetry;
    }
}


// ************************************************************************* //
