/*--------------------------------*- C++ -*----------------------------------*\
| =========                 |                                                 |
| \\      /  F ield         | OpenFOAM: The Open Source CFD Toolbox           |
|  \\    /   O peration     | Version:  v1706                                 |
|   \\  /    A nd           | Web:      www.OpenFOAM.com                      |
|    \\/     M anipulation  |                                                 |
\*---------------------------------------------------------------------------*/
FoamFile
{
    version     2.0;
    format      ascii;
    class       volScalarField;
    location    "0.1";
    object      mfpCellRatio_Ar;
}
// * * * * * * * * * * * * * * * * * * * * * * * * * * * * * * * * * * * * * //

dimensions      [0 0 0 0 0 0 0];


internalField   nonuniform List<scalar> 
1000
(
1.852905532
1.857223682
1.85101595
1.834944712
1.830146611
1.841639459
1.86964259
1.868138589
1.863735233
1.846879323
1.855211052
1.834967566
1.839331531
1.845130607
1.845505344
1.848194708
1.849484291
1.845793172
1.853478485
1.859438723
1.848514878
1.851657514
1.855791408
1.853350228
1.855418099
1.836829236
1.828395208
1.854341396
1.850013134
1.846559885
1.862076751
1.866653002
1.851129074
1.863448016
1.841499218
1.842717525
1.839058738
1.843839774
1.839436873
1.836901315
1.850450266
1.847670253
1.855356524
1.853746243
1.872263402
1.864901716
1.86545929
1.848958015
1.862792764
1.841306901
1.842630056
1.84191806
1.856896849
1.84878097
1.855278411
1.85606442
1.863965812
1.847938716
1.840572674
1.856741977
1.845841999
1.871540527
1.865628824
1.868418886
1.848460259
1.864029643
1.859118563
1.862358595
1.850967672
1.855225794
1.87792203
1.865909491
1.857837915
1.864277796
1.866981966
1.853215514
1.865633982
1.857397942
1.855806443
1.864533728
1.83749891
1.843430934
1.847231021
1.853359525
1.856729714
1.858135469
1.832036615
1.834064904
1.831921424
1.822349863
1.828987955
1.824053812
1.829832439
1.864170504
1.855719408
1.870584676
1.857633333
1.875245175
1.865430877
1.86605366
1.873725952
1.863595391
1.858078396
1.852022174
1.859916437
1.853854263
1.863258959
1.867851637
1.856214851
1.842069014
1.855793409
1.862113524
1.855997596
1.862282261
1.862057187
1.864485567
1.844452519
1.850423627
1.856587086
1.858026982
1.846015028
1.847234429
1.847837337
1.831539203
1.854067888
1.840071377
1.849850822
1.832002408
1.845941939
1.837496349
1.846162338
1.851494609
1.826639527
1.820556075
1.835747697
1.843096913
1.853642137
1.851692293
1.853731744
1.866972692
1.852644471
1.842037542
1.855500064
1.854395356
1.849871993
1.861212221
1.848409614
1.8531031
1.85109874
1.858669353
1.846315412
1.857242
1.8509784
1.855297974
1.867659278
1.873247797
1.854286307
1.858512567
1.849215471
1.834977844
1.8481825
1.857339452
1.856822735
1.856383899
1.863191385
1.8411094
1.845029034
1.844727262
1.839918853
1.839440225
1.831976806
1.848112177
1.85313171
1.861740113
1.854461042
1.837915527
1.844275282
1.851834507
1.842750079
1.868133048
1.856047515
1.84658723
1.848938485
1.868899322
1.852599992
1.865219007
1.859065167
1.858542605
1.850834508
1.851336887
1.838769379
1.852486294
1.871618705
1.868741658
1.848445671
1.854433245
1.848321554
1.855167363
1.853996308
1.844273621
1.836865044
1.841304454
1.853236146
1.848209126
1.851805836
1.84166434
1.851360939
1.868389225
1.851105871
1.848674563
1.861991335
1.830913642
1.824537577
1.850656117
1.844261377
1.849650556
1.840651584
1.855998827
1.836705311
1.856017068
1.841855415
1.844024538
1.848334761
1.852854641
1.848603183
1.846015139
1.848883551
1.852611664
1.850017269
1.845141998
1.853611056
1.855000395
1.856191078
1.857701743
1.863467386
1.839884148
1.845526338
1.833473699
1.853415491
1.843608192
1.850671777
1.853734789
1.846112308
1.854236435
1.861216338
1.865326009
1.845108835
1.842232468
1.871432962
1.855273101
1.858743221
1.842313875
1.849735347
1.859031006
1.870739613
1.853782733
1.853790884
1.856630255
1.843211707
1.851051874
1.872924995
1.862514632
1.861944141
1.85616527
1.863861766
1.868580177
1.850346053
1.845744155
1.872284604
1.860486553
1.854125788
1.865813241
1.846896296
1.847119996
1.845757408
1.85450534
1.851934742
1.850261982
1.847281374
1.849199497
1.843516851
1.847777373
1.856702307
1.834127474
1.84963215
1.856680926
1.828149237
1.831328914
1.830730367
1.833443649
1.856551001
1.854610927
1.830255303
1.85036435
1.874017303
1.865128899
1.854315042
1.853600042
1.856307156
1.869262809
1.863037178
1.875162688
1.86754865
1.845163522
1.858630225
1.845662403
1.860017539
1.861710635
1.861437646
1.866170565
1.864466351
1.868823004
1.851312633
1.872245321
1.846913895
1.839169075
1.843113137
1.863772118
1.858971002
1.832327582
1.832574686
1.861242439
1.854433684
1.845145483
1.843495181
1.83517284
1.841094737
1.854753047
1.842323106
1.862818394
1.85297928
1.833698058
1.828388014
1.839821086
1.839481701
1.852889686
1.847512725
1.859805825
1.867026737
1.884377633
1.846818336
1.849362596
1.844937807
1.855434688
1.868296642
1.862619718
1.848210596
1.859026155
1.861259398
1.854353175
1.857350947
1.86325005
1.862375342
1.855402428
1.855003241
1.862712624
1.864954296
1.860462843
1.854796412
1.829173673
1.830740397
1.849594606
1.861726494
1.860688787
1.849814743
1.824761867
1.841969863
1.844885215
1.8325219
1.836920475
1.864012359
1.840793439
1.850703307
1.860110334
1.843238521
1.85474464
1.844137988
1.861366701
1.869652405
1.874121521
1.863296539
1.868752004
1.857335017
1.854755686
1.849111401
1.840919255
1.858217909
1.876771784
1.850955689
1.846197726
1.85210246
1.856200998
1.866697416
1.85865282
1.869044971
1.846752197
1.850972702
1.865181428
1.855408874
1.864551789
1.849664617
1.842765147
1.838939545
1.846643703
1.851922773
1.838354286
1.853475304
1.846603503
1.854980466
1.8521368
1.844140533
1.835956274
1.843275794
1.859512585
1.84604259
1.85142153
1.838507107
1.838543224
1.848545963
1.848147297
1.842632911
1.826202011
1.843892475
1.826481078
1.83811451
1.837235927
1.835611563
1.855357804
1.860702456
1.851353803
1.846548034
1.839327806
1.848768847
1.86281621
1.865243788
1.845666528
1.841761238
1.850187184
1.855504252
1.844309622
1.843027564
1.858567823
1.853451596
1.867005459
1.851925973
1.856733694
1.863757436
1.852626766
1.870807678
1.8575293
1.846441664
1.864737665
1.862085772
1.855660439
1.856890163
1.862888984
1.867755307
1.861059209
1.878662003
1.861301022
1.859109311
1.869185995
1.863509864
1.876088197
1.859016076
1.857137181
1.837502158
1.870631716
1.876320272
1.867555218
1.868862595
1.85585291
1.856121104
1.852325745
1.835479225
1.851936534
1.835375166
1.84349341
1.837380192
1.836764228
1.841534568
1.844633028
1.850696683
1.859728952
1.864898401
1.858239949
1.846448699
1.840556435
1.842892577
1.846300458
1.846474919
1.852028852
1.843940052
1.860507057
1.874575473
1.843474595
1.850066729
1.865958004
1.860464445
1.867990907
1.869167517
1.873896204
1.8736278
1.849374622
1.855256399
1.854158772
1.847075843
1.832314552
1.862510888
1.861479928
1.849884386
1.847965581
1.874280442
1.867445891
1.849092368
1.868569539
1.876355273
1.865253945
1.877177203
1.830931966
1.851064235
1.854066746
1.855880681
1.846112207
1.855634571
1.834454704
1.842675946
1.850139167
1.839299552
1.869699084
1.835177351
1.846814269
1.848621569
1.849085379
1.850149352
1.855677642
1.832181435
1.846709654
1.840655057
1.857297204
1.847616936
1.841568445
1.840470018
1.82602397
1.868318967
1.861923124
1.863737567
1.863613514
1.852717088
1.850730168
1.866072503
1.867554068
1.861854651
1.861615538
1.854499786
1.839369723
1.836739346
1.847570065
1.838945622
1.845275192
1.845579576
1.856142356
1.874314408
1.844923017
1.847176124
1.857265275
1.858216631
1.862329007
1.844363109
1.839869773
1.83973174
1.852759206
1.856757091
1.861625584
1.852355236
1.855568082
1.840645358
1.846828843
1.875177786
1.855230243
1.85328895
1.860123215
1.856312675
1.84874889
1.853469008
1.861758968
1.856260461
1.850072378
1.847157588
1.836126092
1.844510785
1.862484114
1.856731166
1.849645641
1.855597399
1.851178427
1.841012678
1.844598312
1.854812872
1.84468295
1.860823838
1.838750939
1.842297732
1.841870848
1.834353263
1.856288368
1.839147027
1.850805769
1.849710599
1.8667547
1.833395087
1.842336505
1.863596733
1.854605149
1.845461855
1.846633864
1.851749475
1.85983164
1.844202393
1.849190437
1.854667154
1.835283749
1.818655804
1.833576279
1.842367564
1.845886679
1.851906088
1.855150226
1.855318605
1.842285334
1.850951385
1.840862762
1.847279114
1.866767262
1.867775311
1.870917907
1.856657663
1.842114971
1.840370111
1.858369013
1.85181975
1.830366196
1.848479804
1.850244342
1.852071034
1.876321536
1.879079307
1.868783619
1.86947023
1.861130279
1.854230653
1.857337159
1.85167488
1.850528196
1.857617311
1.851630891
1.857482162
1.885887479
1.871875322
1.854122928
1.877409838
1.862428003
1.863322762
1.868170423
1.875168231
1.851775433
1.852801675
1.850573304
1.850961358
1.857678305
1.861000587
1.851412864
1.852803237
1.8574178
1.832974512
1.858069294
1.852641424
1.844489306
1.84910974
1.852963016
1.848006776
1.857463273
1.833262741
1.843131142
1.842945691
1.840695751
1.835285911
1.843992199
1.843737297
1.833540767
1.837212976
1.856353961
1.862852308
1.866666953
1.866848492
1.855656015
1.860354003
1.857647856
1.858687396
1.858971581
1.856833857
1.863058255
1.859968809
1.849143402
1.850616028
1.84410135
1.845614381
1.852392743
1.859056267
1.87006332
1.8654574
1.861775997
1.859259067
1.864014863
1.848638052
1.854040568
1.836544955
1.861749691
1.853571049
1.84687432
1.856780533
1.86312729
1.841462545
1.836528544
1.83914413
1.836037733
1.854864864
1.843600787
1.832425728
1.850987995
1.852559705
1.835800596
1.853358678
1.84678725
1.844584565
1.835438186
1.836704961
1.848067315
1.844122863
1.848353885
1.847176167
1.848447393
1.841926957
1.841023492
1.860201816
1.850781004
1.859743868
1.85804985
1.843663649
1.868309333
1.867213757
1.870755128
1.859440413
1.868428733
1.867071626
1.831902742
1.848440544
1.844807115
1.838636065
1.844712647
1.855970162
1.834366969
1.844921875
1.841002178
1.850221677
1.824804062
1.855931971
1.864507156
1.856023628
1.847573273
1.863250732
1.837336376
1.857650272
1.841149214
1.842392941
1.844053882
1.852232668
1.852842061
1.848253504
1.842618858
1.83403944
1.856569167
1.856907042
1.843661761
1.858231065
1.853416499
1.842419315
1.848509187
1.849552298
1.841874598
1.843194982
1.842981929
1.846115128
1.83991907
1.859762642
1.834776833
1.852614434
1.843282147
1.851226116
1.84827509
1.855607426
1.843605936
1.844996317
1.844093671
1.847789104
1.860603502
1.858396075
1.860075432
1.855241627
1.841457468
1.84637398
1.85721896
1.85748177
1.848064803
1.848844388
1.868674635
1.873574948
1.864164446
1.841506411
1.837061751
1.853046496
1.85047723
1.826333149
1.828134187
1.844056444
1.837701266
1.840515909
1.840238282
1.845329242
1.846526577
1.825150347
1.84770272
1.865820509
1.865437517
1.875344622
1.869404366
1.857227252
1.850374532
1.843254968
1.829657632
1.844863567
1.844483205
1.851972787
1.851807966
1.874728954
1.880161784
1.863336697
1.871091139
1.854429116
1.861786868
1.878917782
1.868450251
1.863472705
1.872855969
1.881240179
1.862131991
1.865577802
1.868447305
1.852117085
1.856432092
1.85936232
1.847045088
1.850571363
1.853778784
1.851359467
1.842776893
1.86230105
1.857145795
1.847398618
1.861139498
1.858953737
1.852321043
1.851675035
1.84963586
1.828878639
1.860844195
1.864536742
1.851908395
1.851080924
1.850818737
1.851774478
1.86675741
1.843277033
1.846982494
1.84911772
1.841792522
1.862385749
1.852887712
1.86226887
1.857542429
1.858387688
1.866591793
1.86565002
1.852803803
1.87000793
1.874599834
1.870991785
1.846504003
1.857732493
1.854892217
1.868082925
1.841711347
1.841873895
1.850604054
1.861729158
1.864366929
1.844813153
1.849444532
1.858943739
1.848762053
1.859392373
1.849094069
1.86577679
1.86616083
1.844871115
1.831499355
1.849917617
1.844664475
1.8423443
1.846243983
1.849961658
1.840030747
1.828863677
1.827865052
1.835791839
1.844112479
1.854046422
1.838062344
1.832728182
1.843563348
1.841684838
1.836266218
1.853462548
1.848868055
1.850007816
1.849587569
1.849027405
1.842640355
1.844513533
1.827297987
1.84109619
1.844017452
1.859868437
1.860195994
1.862083979
1.84027152
1.848213325
1.861567238
1.864051167
1.860518986
1.876072703
1.870146598
1.855688779
1.85228675
1.849754405
1.846392171
1.848983176
1.838823392
1.842898944
1.851938414
1.844310161
1.854802991
1.829431112
1.837213676
1.831461918
1.839033165
1.85846751
1.860525412
1.862532625
1.850760862
1.842075092
1.852257685
1.858871661
1.869391857
1.86786724
1.856462253
1.853421151
1.842064266
1.835819239
1.839193851
1.84024687
1.848654298
1.850334875
1.862758236
1.86401683
1.858411489
1.859202937
1.843529312
1.841704504
1.834696744
1.824360942
1.846825442
1.838170811
1.855820289
1.84722146
1.843963783
1.838403406
1.854136389
1.862748535
1.848965469
)
;

boundaryField
{
    bottom
    {
        type            calculated;
        value           nonuniform List<scalar> 
200
(
1.852905532
1.857223682
1.85101595
1.834944712
1.830146611
1.841639459
1.86964259
1.868138589
1.863735233
1.846879323
1.855211052
1.834967566
1.839331531
1.845130607
1.845505344
1.848194708
1.849484291
1.845793172
1.853478485
1.859438723
1.848514878
1.851657514
1.855791408
1.853350228
1.855418099
1.836829236
1.828395208
1.854341396
1.850013134
1.846559885
1.862076751
1.866653002
1.851129074
1.863448016
1.841499218
1.842717525
1.839058738
1.843839774
1.839436873
1.836901315
1.850450266
1.847670253
1.855356524
1.853746243
1.872263402
1.864901716
1.86545929
1.848958015
1.862792764
1.841306901
1.842630056
1.84191806
1.856896849
1.84878097
1.855278411
1.85606442
1.863965812
1.847938716
1.840572674
1.856741977
1.845841999
1.871540527
1.865628824
1.868418886
1.848460259
1.864029643
1.859118563
1.862358595
1.850967672
1.855225794
1.87792203
1.865909491
1.857837915
1.864277796
1.866981966
1.853215514
1.865633982
1.857397942
1.855806443
1.864533728
1.83749891
1.843430934
1.847231021
1.853359525
1.856729714
1.858135469
1.832036615
1.834064904
1.831921424
1.822349863
1.828987955
1.824053812
1.829832439
1.864170504
1.855719408
1.870584676
1.857633333
1.875245175
1.865430877
1.86605366
1.873725952
1.863595391
1.858078396
1.852022174
1.859916437
1.853854263
1.863258959
1.867851637
1.856214851
1.842069014
1.855793409
1.862113524
1.855997596
1.862282261
1.862057187
1.864485567
1.844452519
1.850423627
1.856587086
1.858026982
1.846015028
1.847234429
1.847837337
1.831539203
1.854067888
1.840071377
1.849850822
1.832002408
1.845941939
1.837496349
1.846162338
1.851494609
1.826639527
1.820556075
1.835747697
1.843096913
1.853642137
1.851692293
1.853731744
1.866972692
1.852644471
1.842037542
1.855500064
1.854395356
1.849871993
1.861212221
1.848409614
1.8531031
1.85109874
1.858669353
1.846315412
1.857242
1.8509784
1.855297974
1.867659278
1.873247797
1.854286307
1.858512567
1.849215471
1.834977844
1.8481825
1.857339452
1.856822735
1.856383899
1.863191385
1.8411094
1.845029034
1.844727262
1.839918853
1.839440225
1.831976806
1.848112177
1.85313171
1.861740113
1.854461042
1.837915527
1.844275282
1.851834507
1.842750079
1.868133048
1.856047515
1.84658723
1.848938485
1.868899322
1.852599992
1.865219007
1.859065167
1.858542605
1.850834508
1.851336887
1.838769379
1.852486294
1.871618705
1.868741658
1.848445671
1.854433245
1.848321554
1.855167363
1.853996308
1.844273621
)
;
    }
    top
    {
        type            calculated;
        value           nonuniform List<scalar> 
200
(
1.855607426
1.843605936
1.844996317
1.844093671
1.847789104
1.860603502
1.858396075
1.860075432
1.855241627
1.841457468
1.84637398
1.85721896
1.85748177
1.848064803
1.848844388
1.868674635
1.873574948
1.864164446
1.841506411
1.837061751
1.853046496
1.85047723
1.826333149
1.828134187
1.844056444
1.837701266
1.840515909
1.840238282
1.845329242
1.846526577
1.825150347
1.84770272
1.865820509
1.865437517
1.875344622
1.869404366
1.857227252
1.850374532
1.843254968
1.829657632
1.844863567
1.844483205
1.851972787
1.851807966
1.874728954
1.880161784
1.863336697
1.871091139
1.854429116
1.861786868
1.878917782
1.868450251
1.863472705
1.872855969
1.881240179
1.862131991
1.865577802
1.868447305
1.852117085
1.856432092
1.85936232
1.847045088
1.850571363
1.853778784
1.851359467
1.842776893
1.86230105
1.857145795
1.847398618
1.861139498
1.858953737
1.852321043
1.851675035
1.84963586
1.828878639
1.860844195
1.864536742
1.851908395
1.851080924
1.850818737
1.851774478
1.86675741
1.843277033
1.846982494
1.84911772
1.841792522
1.862385749
1.852887712
1.86226887
1.857542429
1.858387688
1.866591793
1.86565002
1.852803803
1.87000793
1.874599834
1.870991785
1.846504003
1.857732493
1.854892217
1.868082925
1.841711347
1.841873895
1.850604054
1.861729158
1.864366929
1.844813153
1.849444532
1.858943739
1.848762053
1.859392373
1.849094069
1.86577679
1.86616083
1.844871115
1.831499355
1.849917617
1.844664475
1.8423443
1.846243983
1.849961658
1.840030747
1.828863677
1.827865052
1.835791839
1.844112479
1.854046422
1.838062344
1.832728182
1.843563348
1.841684838
1.836266218
1.853462548
1.848868055
1.850007816
1.849587569
1.849027405
1.842640355
1.844513533
1.827297987
1.84109619
1.844017452
1.859868437
1.860195994
1.862083979
1.84027152
1.848213325
1.861567238
1.864051167
1.860518986
1.876072703
1.870146598
1.855688779
1.85228675
1.849754405
1.846392171
1.848983176
1.838823392
1.842898944
1.851938414
1.844310161
1.854802991
1.829431112
1.837213676
1.831461918
1.839033165
1.85846751
1.860525412
1.862532625
1.850760862
1.842075092
1.852257685
1.858871661
1.869391857
1.86786724
1.856462253
1.853421151
1.842064266
1.835819239
1.839193851
1.84024687
1.848654298
1.850334875
1.862758236
1.86401683
1.858411489
1.859202937
1.843529312
1.841704504
1.834696744
1.824360942
1.846825442
1.838170811
1.855820289
1.84722146
1.843963783
1.838403406
1.854136389
1.862748535
1.848965469
)
;
    }
    inlet
    {
        type            calculated;
        value           nonuniform List<scalar> 5(1.852905532 1.836865044 1.849664617 1.860823838 1.855607426);
    }
    outlet
    {
        type            calculated;
        value           nonuniform List<scalar> 5(1.844273621 1.864551789 1.84468295 1.84827509 1.848965469);
    }
    back
    {
        type            symmetry;
    }
    front
    {
        type            symmetry;
    }
}


// ************************************************************************* //
