/*--------------------------------*- C++ -*----------------------------------*\
| =========                 |                                                 |
| \\      /  F ield         | OpenFOAM: The Open Source CFD Toolbox           |
|  \\    /   O peration     | Version:  v1706                                 |
|   \\  /    A nd           | Web:      www.OpenFOAM.com                      |
|    \\/     M anipulation  |                                                 |
\*---------------------------------------------------------------------------*/
FoamFile
{
    version     2.0;
    format      ascii;
    class       scalarField;
    location    "0.02/lagrangian/dsmc";
    object      ERot;
}
// * * * * * * * * * * * * * * * * * * * * * * * * * * * * * * * * * * * * * //


127861
(
1.258000062e-20
6.284855262e-21
9.635565962e-22
5.181896393e-21
4.880227996e-22
7.451872796e-21
2.343103197e-21
6.252844811e-22
2.136992968e-21
2.281327131e-21
2.709001091e-22
3.230062335e-21
5.105076477e-21
1.446256322e-21
8.303788427e-21
7.300951846e-22
2.291842734e-21
1.035961444e-20
3.822191369e-21
1.43470588e-21
4.395155175e-22
1.763571704e-21
1.632398624e-21
3.511312782e-21
1.014014894e-20
1.558472876e-22
2.404276332e-22
4.724068683e-21
2.198534018e-21
7.371713274e-21
3.235955779e-21
4.139173721e-21
8.372350076e-21
6.488978967e-21
1.72348535e-21
8.186938373e-21
2.842697743e-21
1.240753394e-21
2.996970695e-23
8.193492666e-21
2.366894378e-21
1.905499961e-21
7.356131037e-21
1.170890357e-20
1.736818965e-22
9.439010093e-21
6.757740638e-22
5.968959706e-21
4.509266256e-22
1.228655722e-20
1.513494114e-21
5.326622305e-21
4.6896062e-21
3.495221124e-21
1.471018488e-21
8.225050083e-21
7.776939264e-21
5.235090601e-21
2.860723797e-21
9.667499937e-22
4.233245527e-21
1.532920476e-20
2.936956493e-22
3.709028207e-21
1.771267362e-21
9.235038481e-22
3.78461825e-22
1.021909838e-21
1.546621443e-21
9.596284294e-21
3.316730278e-21
4.124722684e-21
1.564892231e-21
1.565780992e-20
1.079478063e-20
5.765118328e-22
6.270667905e-21
6.620532788e-22
8.294317856e-23
3.431311736e-22
3.982673931e-21
1.995034791e-21
1.557483058e-20
4.980690107e-21
8.789330141e-22
1.488007816e-22
8.281990669e-21
1.416920352e-21
2.010401612e-21
4.169713294e-22
1.281222029e-21
4.730531395e-21
4.024929839e-21
2.991943997e-21
1.300277157e-21
1.905845581e-21
2.826128133e-21
6.693364031e-22
5.896083305e-21
7.320291676e-21
1.421736996e-20
1.051901457e-21
1.687082566e-21
9.362938116e-21
4.254355144e-21
3.874266413e-21
2.897198455e-21
7.229048004e-22
4.553823917e-21
2.143377956e-21
8.740575449e-22
3.03143998e-22
1.446287729e-20
2.406561917e-21
6.869308861e-21
5.400233301e-21
7.901248005e-23
2.107950425e-21
2.327341956e-21
3.335494138e-22
8.339096786e-22
6.182657075e-22
5.168532913e-21
4.219613582e-21
8.477130784e-21
3.412489033e-21
8.451046785e-21
3.641725384e-21
6.374773142e-21
2.956082809e-21
6.045346592e-22
4.865471687e-22
3.113552857e-22
5.562687177e-21
3.998103204e-21
4.67192371e-23
2.788031595e-21
7.331225083e-22
7.70810182e-21
3.808530595e-21
4.268230618e-21
1.03882979e-21
1.67053806e-20
3.028543152e-21
5.49393011e-21
3.670191198e-21
3.081611247e-21
3.066506359e-21
8.310066229e-21
3.750871723e-21
6.823697735e-21
8.995339123e-21
4.959478688e-21
4.051588745e-21
1.002734716e-21
2.028270443e-21
3.13169143e-21
4.918553052e-21
1.039557845e-22
1.892569305e-21
5.977334817e-21
6.243323231e-21
5.866202366e-21
8.402032891e-21
2.981652051e-21
3.359875887e-21
2.533827857e-20
5.303676072e-22
6.073121453e-21
2.336363156e-21
5.452443645e-21
2.515090217e-21
1.259613618e-21
1.125464106e-21
5.745555395e-22
1.718301674e-22
2.916085003e-21
8.930660969e-21
7.138123111e-21
4.417240757e-21
1.683054492e-21
3.294750013e-21
8.624557361e-21
1.523883631e-21
7.726960737e-21
2.096736359e-21
2.396009442e-21
1.704996068e-21
7.985080913e-22
3.435186785e-21
8.834455413e-21
1.0513928e-20
2.195431173e-21
9.27148707e-22
1.453551915e-21
7.096432324e-21
1.051408806e-20
4.517958808e-21
5.894157752e-21
2.279386729e-21
2.026260553e-21
1.315650307e-20
2.805957935e-22
1.100568236e-20
6.424965433e-21
1.500627228e-21
7.11689119e-22
6.875222882e-21
8.421884528e-21
1.090154758e-21
2.683666634e-21
4.285213089e-21
1.208482969e-21
1.983955377e-21
1.181563263e-21
9.804554089e-21
2.687246209e-21
1.330477805e-21
3.507110464e-21
1.445696619e-21
2.085232955e-22
2.710121326e-20
1.81041386e-20
6.60545682e-22
2.443854094e-22
8.32838092e-21
1.316728463e-21
3.67390347e-21
6.612364345e-22
3.844192795e-21
4.914587737e-21
6.327803036e-22
7.486013324e-22
1.106171972e-20
2.075624495e-20
1.90361188e-21
4.967617929e-21
3.186256217e-21
8.525205508e-21
2.716984775e-21
1.066194856e-20
1.469785643e-21
4.629611729e-21
3.122043439e-22
6.389317392e-22
7.594334741e-21
3.54604959e-21
4.790545895e-21
1.274756708e-21
1.040550025e-21
9.074034658e-22
2.243100401e-21
4.474078357e-22
7.56499525e-22
1.312995276e-21
5.684796207e-22
2.808799199e-21
4.760636797e-21
1.607866857e-21
9.502265476e-23
3.772396608e-23
2.237543805e-21
5.134222839e-21
1.451637337e-21
1.105844973e-20
3.051829632e-21
4.839091421e-21
4.13658821e-21
4.296861722e-22
8.251684035e-22
1.292381103e-20
3.717830387e-21
8.096516436e-21
9.513222934e-22
1.711678744e-21
3.399161546e-22
2.951712082e-21
4.724212888e-21
1.41257455e-21
4.434077041e-21
1.543736256e-22
2.49882696e-21
3.003289702e-21
2.057503402e-21
1.658335579e-21
2.914656084e-21
2.607466232e-21
7.667951376e-21
9.367423952e-22
1.46390753e-21
1.355449043e-22
3.866341285e-21
1.554676181e-20
3.877033546e-21
2.499999926e-23
5.998998715e-22
9.275578746e-21
8.956578247e-21
6.763597843e-22
1.456688955e-21
1.097690154e-21
8.096831379e-21
7.11345751e-22
3.956365092e-21
1.674561496e-20
1.581462488e-22
6.008263327e-21
9.041430769e-21
7.809617831e-22
2.450095684e-21
9.756108096e-22
8.243914365e-22
5.753144532e-21
9.723656343e-21
1.305509703e-22
2.230832071e-21
5.882473164e-21
3.719395305e-21
1.160215998e-21
4.696060123e-21
3.417540012e-21
5.921889893e-22
8.885810881e-21
4.110717612e-21
8.756126882e-22
9.52764796e-21
5.433596031e-22
4.428253426e-21
5.770559071e-22
6.042343571e-22
2.63244265e-21
4.386003567e-21
3.939412766e-21
8.398478908e-22
1.319778724e-20
3.048673023e-21
1.020092456e-21
4.354498517e-22
1.363968957e-21
1.260931171e-21
3.754518182e-22
1.623785175e-22
2.457371429e-21
2.151437366e-21
1.506535921e-20
1.600172607e-22
5.315664519e-21
3.077498393e-23
7.154339027e-21
1.712503086e-21
2.809781195e-21
2.955528868e-21
9.812817228e-21
9.586607488e-22
4.176327403e-21
5.58617624e-21
1.20330565e-21
1.827371603e-21
1.088660279e-21
3.597892141e-21
8.901749713e-22
8.55258867e-21
3.651657774e-21
1.090803832e-20
5.354998084e-21
5.14605564e-22
8.589707856e-22
2.661086077e-22
4.103735587e-21
2.06273814e-21
1.134082634e-21
7.476897806e-22
3.329124165e-21
1.271055496e-21
3.98998522e-22
2.169576603e-21
2.466767678e-21
5.417731094e-21
2.495814092e-22
7.328541779e-21
2.838328231e-21
2.364185321e-21
9.092090714e-22
2.283083127e-23
8.54706244e-21
1.906937084e-21
1.817924893e-21
1.014770501e-20
8.373651477e-22
8.211170861e-21
2.069219426e-21
2.046446143e-21
7.83583265e-22
1.51694912e-21
1.462708665e-21
3.479094001e-21
1.513623665e-21
1.560324255e-21
5.998672194e-21
4.895752327e-21
1.797327128e-21
3.536228247e-21
2.775384711e-22
2.023860516e-21
4.239079378e-21
8.41198022e-21
1.882040783e-22
3.372435684e-22
3.432392919e-21
7.384914214e-21
7.299013863e-21
2.739921525e-21
1.449485155e-21
4.250748244e-21
7.237307387e-22
3.308066133e-22
2.495101239e-21
2.52807384e-21
1.103513824e-21
3.355236775e-21
4.109234936e-21
2.05171551e-21
6.070847361e-21
8.73293133e-21
1.635197545e-22
4.176400124e-21
3.003462598e-21
5.903407758e-21
4.160857786e-21
5.028777362e-21
8.001047179e-22
6.042525193e-21
4.96119675e-22
6.976886877e-21
6.935811805e-22
1.005344056e-20
2.21333487e-21
2.86621886e-21
5.534390378e-21
6.141661662e-21
1.147626636e-20
1.3475681e-21
1.392872843e-21
7.251439883e-21
1.637393795e-21
2.329185855e-21
8.257965441e-21
2.26747565e-21
6.948363695e-21
8.667786783e-21
5.614811523e-21
1.103830788e-20
2.405118373e-22
7.210459263e-22
1.185512613e-20
5.25159469e-21
2.356630511e-21
9.309380383e-22
2.0797565e-21
2.723070614e-21
6.595262048e-22
2.228887288e-21
4.487733695e-22
3.158571218e-21
3.035094536e-21
1.356416242e-21
6.543911543e-23
6.591196608e-21
2.548714267e-22
5.37521754e-21
9.782703763e-22
4.452280296e-21
5.391050448e-21
6.796453049e-22
3.919260715e-21
6.878553023e-21
6.952299048e-22
7.919950007e-21
6.99741838e-22
6.994793998e-21
2.495031914e-21
3.120060725e-21
3.830631377e-22
3.629865163e-21
6.016729865e-21
5.244133694e-23
1.08896665e-21
9.707639832e-21
2.423964105e-21
8.326336286e-21
5.834271608e-21
3.658993976e-21
1.595418127e-20
7.46618341e-21
2.333089568e-21
1.022728256e-21
4.282516459e-21
5.341903424e-21
1.361911441e-22
1.141583865e-20
1.272013905e-21
5.760005264e-21
6.747153931e-21
2.215000812e-21
1.157830555e-21
1.466693082e-20
1.996032674e-22
6.160257697e-22
4.245191854e-22
1.095840381e-21
1.865009402e-21
2.149996364e-21
4.544730299e-21
3.458639471e-22
1.449533281e-20
1.527587926e-20
2.584913037e-21
5.271452245e-21
6.822081589e-22
1.945921361e-21
2.00119471e-21
8.534816068e-21
5.35395431e-21
7.220605567e-21
3.981484609e-21
1.687047873e-21
9.41735541e-22
6.923991505e-21
2.291999045e-21
2.424601846e-22
6.918794425e-22
3.24074806e-21
5.47065913e-22
8.340273326e-22
4.276997142e-21
1.320604649e-21
1.951266019e-20
4.068817976e-21
4.237949819e-21
6.735900196e-21
1.970622806e-21
1.446670436e-21
4.561019988e-21
3.843903734e-21
5.779804565e-21
6.240072489e-21
7.124710991e-21
7.49188431e-21
3.891751918e-21
5.309139756e-21
2.879842605e-21
5.121936995e-21
1.975458682e-20
7.131962706e-21
5.261993016e-21
9.595516245e-21
3.347618529e-21
2.105515665e-21
3.789933823e-22
9.835396404e-21
1.034459253e-20
1.918998361e-21
1.086263728e-20
6.627009632e-21
1.833659802e-21
5.490247955e-21
1.153399895e-21
2.761855725e-21
1.577940205e-21
5.374774087e-22
3.656826934e-21
2.178194051e-21
7.024727522e-21
1.047115878e-21
7.270452733e-22
8.473051987e-21
1.039431782e-21
2.871830487e-21
1.681947763e-21
3.174044943e-22
4.922377865e-23
9.990678151e-22
9.946179753e-21
2.605291695e-21
2.955541847e-21
3.657742403e-21
1.835101489e-21
6.889050588e-22
1.505766606e-21
1.422292337e-21
3.6548536e-21
3.46959937e-21
1.246151026e-20
5.794636939e-22
2.887193512e-23
5.52484097e-21
1.585673885e-22
4.988580046e-23
5.962357835e-21
6.812860583e-21
1.346898325e-21
3.133403867e-21
9.722093753e-22
5.321080404e-21
2.160218568e-21
3.970443334e-21
1.28070201e-20
8.868862764e-21
2.304932182e-21
2.337751427e-21
9.9544867e-21
2.641599758e-20
5.876570506e-23
3.610131646e-22
5.532798062e-22
2.036036032e-21
4.943955384e-21
3.772815969e-21
4.879161545e-21
1.803773377e-21
8.554589743e-21
5.750348812e-21
1.223192774e-20
9.443403182e-21
1.159230022e-21
4.939883741e-23
2.160117963e-21
1.865524141e-22
6.75234524e-22
2.210835701e-22
1.600664676e-20
3.643315025e-21
8.084785294e-21
6.606183448e-21
1.286003287e-20
4.488231296e-21
5.979111086e-21
1.368910234e-21
5.513406508e-21
9.68945922e-22
2.141562313e-22
5.176389186e-22
4.20630017e-21
9.536695256e-21
2.428733562e-20
1.186196069e-20
8.328701733e-21
4.579844738e-21
1.219036339e-20
9.369051429e-21
1.804805064e-21
5.767475146e-21
1.425798184e-22
1.48396036e-21
2.351227425e-22
1.211940517e-20
1.407743809e-21
5.246745859e-21
4.795940612e-21
8.050656859e-21
1.653039775e-21
4.854512816e-22
1.195264787e-21
1.945000794e-21
3.608020195e-22
3.855142106e-22
3.126331155e-21
5.347594055e-21
5.398533205e-21
2.092247974e-21
5.476958279e-21
4.826529297e-21
8.302626537e-21
5.024825636e-22
1.738864129e-21
1.637550525e-21
7.886406333e-22
8.362668046e-22
1.165633233e-21
1.814898077e-21
2.450519198e-21
1.651382283e-21
8.853747932e-21
7.876367172e-22
1.167073462e-21
2.306506401e-22
4.254595486e-21
2.511358485e-21
8.32361104e-21
3.375979035e-21
2.153481981e-21
3.116713943e-21
3.95569763e-21
3.492705238e-21
2.013818263e-21
6.929602205e-21
4.455618478e-21
1.002344792e-22
2.203328557e-21
5.981151818e-21
3.273041106e-21
1.416794909e-21
9.679176555e-21
1.207657857e-21
2.871566838e-21
4.415102932e-21
1.028264876e-20
3.986837216e-21
1.341158956e-20
4.561585697e-21
1.069545724e-21
7.8482933e-22
1.910129843e-21
5.666895643e-21
5.969618611e-22
5.227230593e-21
7.643819015e-21
1.059494151e-20
6.44849889e-21
2.352393273e-22
8.265320635e-21
3.56315487e-21
1.904781325e-20
9.441063823e-21
7.948213683e-21
2.599338167e-21
7.312128937e-22
3.228116772e-21
1.049895174e-20
2.243825635e-21
1.515194879e-21
2.229211323e-22
4.32401914e-21
1.442310302e-20
4.070551078e-21
1.489197149e-21
2.926027643e-21
2.306849863e-22
6.732803908e-21
4.284317136e-21
1.261084712e-20
1.04889759e-20
3.353625597e-22
2.279405692e-21
4.494245312e-21
1.206140716e-21
8.054239362e-21
2.140270734e-21
3.688148496e-21
3.049736702e-21
3.921647498e-21
9.430772215e-22
4.119295224e-21
2.59171223e-21
4.487981506e-21
5.722029475e-22
1.383506549e-21
3.688403571e-22
4.333952037e-22
5.39031656e-21
9.79001731e-21
1.202961169e-21
6.606776713e-21
5.259029834e-21
2.628846341e-22
2.718308121e-21
1.117815888e-20
2.269482844e-21
1.469115896e-21
4.071203562e-21
4.808210187e-21
9.812562117e-22
5.771221654e-21
4.809641411e-21
5.016239927e-21
3.230358814e-21
2.951766875e-21
9.101131355e-22
7.350527765e-22
5.777573188e-21
3.77543287e-21
5.050880343e-21
1.758992403e-21
4.303064788e-22
1.816631017e-21
1.068089919e-20
4.769304651e-21
4.014760995e-22
1.370910411e-20
6.901456898e-21
9.040781659e-22
8.803812994e-22
6.656906259e-21
1.489029678e-21
5.430256112e-23
5.992089817e-21
8.257784216e-21
4.340319277e-22
5.553558992e-21
9.517181802e-21
2.815307603e-21
1.211935031e-20
2.378389233e-20
3.815605257e-21
2.542333548e-21
8.584054983e-21
9.80655318e-22
5.613796717e-21
7.868814312e-21
1.253999259e-20
1.222493728e-21
1.097285041e-21
5.119256975e-21
4.573139262e-22
4.905176208e-22
2.966241937e-21
4.800300897e-22
1.102794538e-21
9.835552603e-21
3.320451829e-21
2.073513919e-22
1.166162225e-21
1.054351819e-20
5.82478094e-21
2.8441506e-21
1.304340578e-21
3.591223964e-21
4.6808937e-21
3.179296691e-21
4.719167067e-21
2.562041481e-21
3.08351096e-21
3.179133967e-21
1.479877427e-21
2.836808216e-21
4.178439945e-21
2.830340224e-21
7.721504008e-22
4.759418104e-21
8.370951903e-22
5.62187483e-21
2.890572406e-21
1.602034268e-20
5.890897547e-22
7.271127056e-21
2.161411941e-21
3.952273793e-21
5.737867134e-21
1.161365125e-21
3.136164214e-22
5.50327308e-21
6.166585527e-21
1.072289872e-21
4.888177987e-22
4.508822367e-21
7.066844526e-21
1.105449454e-20
5.044781839e-23
1.622501219e-22
2.242211883e-21
3.015580304e-21
2.840845928e-21
6.328157755e-21
1.696964725e-20
1.117994842e-21
5.720807324e-22
6.259669217e-21
7.296576355e-22
3.127029227e-21
1.799758918e-20
4.96713559e-21
1.979702424e-21
7.745386819e-22
5.472975241e-21
2.349425116e-21
2.531907833e-21
2.435387722e-21
1.543863208e-22
2.950338332e-21
9.422969617e-22
1.293897259e-21
3.2424403e-22
2.054366628e-21
1.704405912e-20
5.737943906e-21
6.457567019e-21
4.080067454e-21
1.328523759e-21
1.570512175e-21
1.546395242e-21
3.998360351e-21
2.09280607e-21
6.659370641e-21
2.173836654e-21
4.368344166e-21
2.70745277e-21
2.15559283e-21
4.839199213e-22
3.590619088e-21
4.765278264e-21
1.222979843e-20
1.03046791e-20
4.460365007e-22
1.594265709e-21
2.145226673e-21
2.028689186e-21
9.590797891e-22
2.202895711e-21
6.941518853e-22
1.040863171e-22
8.908090669e-22
8.614459777e-22
5.666668178e-21
3.088430603e-21
8.971084043e-21
2.823753555e-22
2.136546331e-21
3.724512483e-21
3.83692665e-22
1.33729044e-21
4.824159634e-21
6.99783915e-21
7.130846842e-22
1.543218656e-20
5.719797624e-22
3.113643717e-21
5.010146369e-22
9.032472353e-21
2.148555873e-21
7.838817999e-22
9.031511131e-21
9.840534148e-22
7.730001516e-21
1.129477061e-22
2.864117158e-21
5.317814606e-22
4.810770867e-22
6.191824549e-21
5.697323134e-22
1.9530577e-21
4.622024683e-21
7.187987907e-21
8.183757433e-21
1.435907008e-21
1.314505684e-20
5.04711152e-21
4.701521898e-21
1.374935378e-21
1.179739624e-20
4.646368219e-21
7.230694518e-21
7.329063908e-21
6.166831583e-21
1.588654799e-20
6.122964266e-22
5.121926931e-22
5.571042706e-21
9.434305182e-21
2.061993931e-22
4.15912863e-22
7.386318837e-21
1.092284211e-21
1.100861848e-21
7.244975454e-22
1.401792735e-21
7.178207886e-21
6.802188205e-21
7.201100801e-21
7.97720636e-21
5.363603092e-21
1.4400901e-21
3.555993588e-21
3.84942127e-21
8.005981194e-22
1.651649681e-22
8.79001774e-21
2.725516569e-22
3.021314565e-21
9.146685794e-21
1.625137371e-21
1.167503684e-20
1.984378282e-20
1.249194035e-20
4.60190495e-21
1.393527124e-21
1.004034544e-20
1.025362095e-22
1.844475654e-20
1.895641991e-21
3.324932796e-21
4.017922165e-21
2.744405047e-21
2.333791484e-21
1.067883758e-20
3.242685541e-21
3.843073329e-21
5.248821631e-21
2.478814878e-22
6.466613023e-22
6.752322664e-22
2.235445178e-21
4.195632561e-21
5.83277741e-21
3.448436381e-21
2.756363285e-21
5.697810832e-22
3.068672864e-21
1.844983973e-21
1.258561415e-20
3.324637465e-21
3.109584746e-21
7.759356727e-21
2.117890634e-21
3.509130345e-21
7.796086579e-23
3.642384395e-21
7.556229326e-21
1.014747967e-20
9.790183847e-22
7.054431692e-21
1.066581374e-20
8.770613517e-21
2.471516652e-21
3.188009563e-21
3.697252326e-21
7.653005075e-21
5.823367044e-21
7.504242355e-21
3.024367761e-22
1.509698838e-21
2.430627069e-21
2.068100773e-21
3.335405066e-21
5.894644217e-21
5.27696076e-21
9.612509992e-22
2.456633577e-21
7.358159972e-22
1.351841034e-21
7.384394189e-21
3.578359526e-21
3.608316793e-22
1.24740723e-21
3.737732798e-21
2.07914404e-21
4.993726719e-21
1.191083797e-21
5.426840666e-22
4.574771375e-21
3.022028336e-21
1.782815172e-21
1.115159574e-21
4.810587242e-22
1.184602019e-21
4.447613503e-22
1.872208179e-21
5.546645254e-21
3.466209153e-21
5.789176002e-21
3.123671027e-22
2.256792285e-21
1.339870277e-21
9.023783773e-21
1.412239539e-20
1.36444759e-21
6.055489821e-21
2.697172563e-21
4.428458271e-21
3.076772794e-21
2.331540347e-22
7.474555723e-21
6.02468614e-21
3.027911596e-21
1.420393044e-21
1.143348835e-21
2.256960373e-21
8.765863336e-24
2.093259743e-20
5.422451732e-22
4.023844268e-21
5.553150795e-21
7.294053799e-21
9.550026157e-22
3.496930795e-21
2.279818936e-21
3.867658721e-21
1.199622709e-20
1.793812352e-21
1.265126829e-21
6.563265266e-22
7.231944874e-21
1.165802801e-20
4.521738376e-21
3.035371116e-21
5.062594204e-21
2.974331546e-22
5.196063385e-21
1.404317598e-20
2.382121379e-21
1.929876118e-21
6.313627118e-21
2.414659415e-20
4.300702569e-21
7.731989912e-21
4.862780022e-21
5.646031634e-22
9.534583003e-21
7.476086733e-21
5.303260483e-21
5.767917353e-21
4.203636453e-21
1.208230795e-20
6.625727782e-21
1.072600055e-20
4.156002134e-21
3.646052918e-22
1.708626795e-21
5.979934983e-21
1.531634699e-21
3.317770693e-21
3.306803194e-21
1.687775272e-21
9.008699701e-21
4.115965222e-21
7.244903965e-21
2.325447932e-21
1.45952367e-20
8.028282858e-22
6.561688177e-21
1.773558643e-21
2.992888992e-22
7.966126277e-21
1.117250406e-20
9.693956057e-21
1.452155978e-23
7.745192543e-22
4.074238874e-21
1.160337314e-20
4.123495467e-21
8.255935e-21
1.409872549e-20
1.126391233e-21
8.197889833e-21
4.184112484e-21
6.065653807e-21
8.915643073e-22
8.313689982e-22
1.443529633e-21
9.063399151e-21
3.082754508e-21
2.426027378e-21
7.611502966e-21
2.199697304e-21
3.207051527e-21
2.269325627e-21
1.856912495e-21
7.089535329e-21
6.014045252e-22
4.457767398e-21
1.811151714e-21
4.701220807e-21
2.911861889e-21
1.058226709e-20
4.419851205e-22
1.396580162e-21
5.416389613e-21
1.456077484e-21
1.127004839e-21
6.053596878e-21
4.055685139e-21
2.118356584e-21
3.619692735e-22
8.434363542e-21
2.063289786e-21
4.759771985e-21
6.12572891e-21
1.895353617e-21
1.302799263e-22
2.975891984e-21
3.757812041e-21
2.372847625e-21
2.242069908e-22
7.077172575e-21
7.654789593e-22
1.020922019e-21
9.205621593e-22
2.824035054e-21
3.781876358e-21
6.527088045e-21
1.002353548e-20
6.429274697e-21
1.583898751e-22
2.978937369e-21
2.956079207e-22
1.540056447e-20
1.023599445e-20
8.98937177e-22
1.119931268e-20
3.847128661e-21
2.142542885e-22
2.503262196e-22
1.393816164e-20
1.840704577e-20
2.520284082e-21
2.901768237e-21
1.209546093e-20
3.303911459e-21
3.792229931e-21
9.113462052e-22
3.274500494e-21
4.886052276e-21
1.91314791e-21
1.007134337e-21
3.744898879e-21
7.138912872e-21
1.203533462e-20
4.35773029e-21
1.717349217e-21
6.883749035e-22
1.396189084e-21
1.751341452e-21
4.932664481e-21
1.697346253e-21
2.14345558e-21
2.934411983e-21
4.519961834e-21
4.171029864e-21
4.344794207e-21
1.863648181e-20
4.951982213e-22
1.10724788e-21
3.168966056e-21
2.923336677e-21
2.135926272e-21
8.132766677e-21
2.043378635e-21
1.979954926e-21
3.075796708e-21
4.330284869e-21
5.290533034e-21
2.595741263e-21
1.990414571e-20
2.73849564e-21
5.157186197e-21
6.192579341e-21
5.677839708e-21
1.181602945e-21
1.550476739e-21
1.079915739e-20
7.194738995e-21
3.585017026e-21
4.721834996e-22
1.361231798e-21
3.233562853e-22
3.771842887e-21
5.191856028e-22
3.654043789e-21
1.033537944e-21
2.573630416e-21
7.762297361e-21
5.573486551e-21
1.640853754e-20
7.343217762e-21
4.248308865e-23
3.968015055e-21
1.019762187e-20
2.436970205e-21
1.52404529e-20
1.070481805e-21
2.020689068e-21
8.129728863e-22
1.693888052e-21
6.834909615e-22
1.005037585e-21
3.739561918e-21
4.392999774e-21
4.395904206e-21
2.260765014e-21
4.870813714e-21
4.163337393e-21
1.929560544e-23
1.413867103e-21
7.14752116e-21
7.111539009e-21
2.769000457e-21
5.974505044e-21
8.966754673e-22
3.322417576e-21
4.395962775e-21
5.432151208e-21
2.217841359e-21
9.341765609e-23
7.647826175e-21
3.747677422e-21
2.336913788e-22
1.458738201e-20
2.575269586e-21
4.362497403e-21
4.381023253e-21
3.581116485e-21
2.39812009e-20
3.491838251e-21
3.351783499e-22
4.097751523e-21
2.821674441e-21
3.187245465e-21
1.78867522e-20
2.517002495e-22
6.138987665e-21
1.751773057e-21
5.672921275e-21
1.504109445e-22
5.333198973e-21
3.945483457e-21
1.16533345e-22
4.644446169e-22
1.114887101e-22
1.329680254e-22
7.096148498e-21
5.854473597e-21
1.479472728e-21
6.514602908e-21
5.997837517e-22
5.852691841e-22
1.089900261e-20
1.02952415e-20
2.096910397e-21
4.414027377e-21
1.518772514e-21
3.822717215e-21
4.393306253e-21
2.16008752e-21
3.707051954e-21
9.560108084e-21
2.936065199e-21
1.380567634e-22
6.615926823e-21
2.231495988e-21
3.957146614e-21
5.638565901e-21
2.366534797e-23
1.454880244e-20
1.577129678e-21
7.898010244e-21
4.008581257e-21
5.681077e-21
1.041573605e-20
6.004507096e-21
4.25337779e-21
5.22944519e-21
1.604379786e-21
3.612513021e-21
3.212406495e-21
1.318385975e-21
4.399251227e-21
6.163492958e-22
2.109594289e-21
4.092867372e-21
1.675595017e-21
2.710495899e-22
7.829643044e-21
1.627310707e-21
3.626829547e-21
3.223807939e-21
5.635255791e-21
7.570561259e-21
1.265701197e-20
1.896195372e-21
2.435762158e-21
7.287531237e-21
6.437441682e-21
2.080500128e-21
1.291517766e-21
4.855476455e-21
6.99281495e-21
3.121551663e-21
3.299633131e-22
3.327185658e-21
2.406797128e-21
1.469313371e-20
9.631001574e-21
7.340955389e-22
2.046590374e-21
2.994795874e-21
8.550849575e-21
6.893299158e-22
5.265654574e-21
4.300657793e-21
2.507996386e-21
5.577742425e-21
6.243155678e-22
3.431569268e-21
1.516523121e-20
1.518406411e-22
1.871518137e-21
2.754317232e-21
1.664269626e-21
1.41891529e-20
4.207822622e-21
5.843469821e-21
3.759521982e-21
8.626571976e-22
3.675886037e-21
1.368963255e-21
1.271865909e-20
7.25985684e-21
7.087359466e-21
3.45428965e-21
2.248414947e-21
5.278831606e-22
3.891656908e-21
4.677643566e-21
6.1658641e-21
1.23331591e-21
3.403267178e-21
1.606413843e-21
4.086352139e-21
6.056496229e-22
8.148079701e-22
4.0761916e-21
7.707973238e-21
1.337381917e-21
3.599047064e-21
7.953235572e-21
6.179279146e-21
6.463054253e-22
3.6393105e-21
2.808596089e-21
5.494769469e-21
2.186009422e-21
1.780998491e-21
3.105818863e-21
7.005968526e-22
1.761730301e-21
9.789069104e-22
1.573866009e-21
1.542592093e-21
4.463894449e-21
1.629006239e-21
8.974797457e-21
2.77644396e-21
6.631347552e-22
1.241806297e-20
3.429030743e-21
1.51812902e-20
6.401110285e-22
8.238396977e-21
3.156382448e-23
1.309531494e-21
4.142654254e-21
2.639274293e-21
7.04756759e-21
3.093900082e-21
4.532884013e-21
4.391121461e-21
7.323708773e-21
2.996491309e-23
4.721279746e-21
7.428593477e-23
6.47727131e-21
1.582631276e-21
1.597512794e-21
6.995266576e-21
1.068990397e-20
2.726212036e-21
3.661092826e-21
1.685339525e-21
1.682212433e-21
7.913437628e-22
6.277650972e-22
4.598984302e-21
3.866765635e-21
3.75806712e-21
1.935029113e-20
1.972627904e-21
3.992690577e-21
1.656698812e-21
3.611825123e-22
3.313854668e-21
5.683526278e-22
1.390714137e-21
4.622794554e-22
6.173285615e-22
9.420124728e-21
2.280530013e-21
2.26221418e-21
1.663529657e-22
5.570921986e-21
3.622496305e-21
9.354333117e-21
2.058237199e-21
5.726048814e-22
1.986162208e-21
6.431801601e-21
1.6563303e-22
3.861924087e-21
3.287019573e-22
3.539207994e-21
2.566102786e-22
6.229736945e-21
1.748956429e-21
1.327125947e-20
2.241815964e-21
6.445347577e-21
2.779835913e-22
3.016267518e-21
3.586024707e-21
6.838720201e-21
2.060778934e-21
3.50218613e-21
3.488550745e-21
7.225526857e-22
8.839255601e-22
4.731949435e-21
3.327767681e-21
4.791109532e-23
2.599889068e-21
8.944760601e-22
3.579188642e-21
3.403302991e-22
2.187216057e-21
6.220913816e-22
4.929098402e-21
5.026369903e-21
3.055359334e-21
1.226619466e-21
9.256032002e-21
8.403216062e-21
8.517972083e-22
4.865665225e-21
6.138109279e-21
2.822611303e-21
2.611906756e-21
3.736226053e-21
3.996126695e-21
5.123507854e-21
1.409896356e-20
1.057985499e-20
6.484151536e-21
9.536330221e-22
9.63409678e-21
1.80188591e-21
7.893637329e-22
3.00370117e-21
4.567011117e-22
2.632768916e-22
2.325190284e-21
5.298157111e-21
1.002509449e-20
5.860525378e-21
2.144546443e-20
3.076529263e-21
2.672397e-21
1.19505402e-21
7.464316167e-21
7.379387719e-21
3.160713672e-22
2.062558513e-21
1.196318689e-21
9.051747812e-21
2.066502071e-21
9.464298342e-22
2.552774199e-22
5.700155068e-23
4.649052828e-21
1.632521142e-21
3.54081203e-22
3.429759195e-21
4.504303766e-21
1.515794777e-21
1.809927338e-22
2.072702622e-21
1.211767932e-21
7.906722715e-21
2.48484455e-21
4.93315143e-21
2.276768788e-21
1.137149568e-20
1.807423125e-21
1.679968876e-22
6.390617658e-21
5.236577697e-21
1.606105643e-21
5.47401565e-21
1.475074557e-21
2.992421568e-21
5.7766468e-21
1.208363891e-20
2.431138525e-21
2.398734729e-22
6.997156373e-21
3.5285869e-21
6.736518725e-21
1.138904532e-21
5.944453999e-21
2.385392749e-21
3.479871147e-21
2.188763169e-21
1.24198172e-21
1.105493951e-21
1.812587122e-22
2.219102298e-21
1.364352341e-20
7.124707719e-22
3.057480921e-21
3.587057842e-21
1.772152972e-21
4.126462916e-21
7.08627698e-22
4.863446512e-22
1.46754523e-21
5.939294344e-22
9.787119592e-22
1.387911648e-20
2.224018777e-21
1.502952557e-21
1.035240627e-22
3.650928493e-22
2.944563701e-21
1.094820172e-20
3.396742308e-21
5.279222418e-21
5.05404853e-22
4.653062792e-21
6.20523336e-23
2.46566614e-21
1.773812305e-20
8.634629731e-22
4.649172018e-21
1.03125448e-20
9.840644201e-22
1.317958823e-21
3.200672466e-21
3.303726635e-21
5.107123462e-21
2.671790118e-21
6.665016579e-21
2.73173527e-21
4.005860602e-21
4.672083484e-22
5.782497405e-21
1.565371354e-21
1.228490487e-21
3.586838831e-21
7.515579057e-21
1.696847121e-22
1.226739555e-21
2.320285811e-21
6.802524645e-23
2.116965945e-22
9.09652665e-21
2.718482466e-22
9.734180528e-21
8.451693942e-22
1.919152137e-21
3.231471274e-21
1.114263511e-21
7.807872087e-22
8.4754507e-21
2.557342733e-23
5.345744213e-21
5.221018792e-22
3.023070758e-21
1.628064518e-21
2.015851238e-21
7.133653847e-22
1.011202454e-20
1.636202585e-20
3.780227131e-21
2.886689548e-21
3.906664438e-21
4.589674578e-21
4.526789926e-21
2.652442594e-21
1.322696688e-21
2.260230752e-20
5.248111567e-21
6.868922951e-23
9.818213552e-22
2.003482443e-21
2.480436469e-22
4.327048255e-21
1.085923064e-20
5.149761084e-21
8.424997794e-22
1.520088809e-20
6.673593391e-21
7.494935491e-21
2.379169309e-21
1.499709896e-21
3.094813045e-22
7.459142918e-21
9.460365281e-22
3.234814779e-21
7.168665812e-21
6.23490469e-21
1.305182362e-21
1.556575475e-21
1.147536472e-20
1.470491614e-21
2.371774153e-21
3.11838514e-21
4.099772197e-21
3.063838632e-21
8.029538187e-21
2.240101935e-20
2.847290163e-21
1.10135511e-21
1.091262075e-20
2.312048604e-21
9.977331683e-21
7.76682297e-23
1.293201014e-21
3.005715596e-21
8.226109279e-21
1.526067981e-21
9.627388894e-21
3.484106227e-21
1.348039182e-20
2.010811671e-21
2.836240661e-21
1.684378268e-21
1.066569423e-21
2.91513364e-21
1.096839217e-20
5.649456517e-21
2.241645113e-21
4.544709857e-21
3.968623763e-21
5.498276595e-21
3.68866876e-21
7.871824078e-22
1.091678474e-21
2.362872602e-20
8.544917632e-21
9.515762147e-21
7.84474951e-21
2.13886536e-21
1.51279047e-21
4.735749547e-22
1.887987956e-22
1.650131938e-21
5.557628786e-21
1.143888522e-20
9.641151178e-21
7.886999524e-22
1.03664868e-21
9.743034683e-22
1.208057156e-20
7.108763822e-22
3.384970599e-21
2.896074279e-21
3.424785503e-21
3.695171911e-21
1.290375959e-21
1.826848292e-20
2.911622052e-21
2.624720786e-21
4.97497384e-21
2.709824259e-21
1.766628929e-21
1.442919018e-21
4.956765633e-21
5.683999476e-21
4.675506541e-21
5.292754826e-21
1.884800271e-21
2.293173533e-21
6.675141682e-22
4.247822038e-21
1.360473484e-23
1.583943706e-21
2.899086071e-21
7.555581429e-22
2.465194681e-22
3.334177831e-22
8.856324357e-21
9.32224732e-22
4.664211442e-21
6.805720571e-21
1.277554572e-20
7.82599084e-21
8.282018372e-21
1.688595759e-21
1.053424425e-20
8.117928012e-21
1.652860293e-21
1.285435988e-21
2.014525947e-21
1.115626756e-20
1.253448329e-21
2.955186056e-21
2.530767885e-21
2.853519108e-21
5.90759991e-21
9.624501245e-21
8.262174619e-22
2.819844836e-22
3.129169623e-21
5.024077758e-21
1.050460551e-21
1.780248738e-21
4.097677453e-21
1.389800154e-20
6.654802506e-21
7.573770581e-21
4.593635939e-22
2.462274162e-22
3.571667276e-21
3.538597102e-21
4.418157798e-21
8.409944737e-22
7.049253708e-22
4.161344611e-21
4.698996229e-21
2.776515686e-22
1.146285078e-21
1.347664456e-20
9.546678777e-21
1.855511036e-21
1.09976111e-21
9.999817945e-22
1.216194767e-21
1.813846959e-22
1.140769311e-20
3.866392134e-21
1.800464949e-21
2.67160551e-22
1.373021128e-20
7.292890181e-21
1.79467924e-21
6.451221214e-21
5.027236595e-21
1.515412051e-21
1.335172377e-22
6.252839947e-21
7.872409628e-21