/*--------------------------------*- C++ -*----------------------------------*\
| =========                 |                                                 |
| \\      /  F ield         | OpenFOAM: The Open Source CFD Toolbox           |
|  \\    /   O peration     | Version:  v1706                                 |
|   \\  /    A nd           | Web:      www.OpenFOAM.com                      |
|    \\/     M anipulation  |                                                 |
\*---------------------------------------------------------------------------*/
FoamFile
{
    version     2.0;
    format      ascii;
    class       volVectorField;
    location    "80";
    object      momentum;
}
// * * * * * * * * * * * * * * * * * * * * * * * * * * * * * * * * * * * * * //

dimensions      [1 -2 -1 0 0 0 0];


internalField   nonuniform List<vector> 
256
(
(-1.42315988857e-14 0 0)
(6.35978098454e-14 0 0)
(2.25145399036e-14 0 0)
(1.12373838493e-13 0 0)
(-3.66269689836e-14 0 0)
(3.98044623218e-14 0 0)
(-1.83439587214e-14 0 0)
(2.58161211323e-14 0 0)
(6.70201809828e-14 0 0)
(3.77284707698e-14 0 0)
(4.18915954862e-14 0 0)
(1.83941826092e-15 0 0)
(5.3997977064e-14 0 0)
(4.57049489803e-14 0 0)
(4.73393867805e-14 0 0)
(4.85238353436e-14 0 0)
(2.31358966532e-14 0 0)
(-1.78042333179e-14 0 0)
(2.59485088422e-14 0 0)
(9.21300913751e-15 0 0)
(2.81283164503e-14 0 0)
(4.97471568151e-14 0 0)
(1.79194647781e-14 0 0)
(5.59223990074e-14 0 0)
(2.26713710477e-14 0 0)
(7.60621403659e-14 0 0)
(2.12848574035e-14 0 0)
(4.84524139007e-14 0 0)
(2.02516191357e-14 0 0)
(3.56403409913e-14 0 0)
(-6.74781959826e-15 0 0)
(1.35691721013e-14 0 0)
(-1.46821177488e-14 0 0)
(-1.31657543443e-14 0 0)
(1.8903647916e-14 0 0)
(1.64043883967e-14 0 0)
(8.45408863209e-16 0 0)
(-2.8001109955e-15 0 0)
(-4.7444783221e-15 0 0)
(1.73683472716e-14 0 0)
(4.40136443279e-14 0 0)
(2.94326521355e-14 0 0)
(5.67935573995e-16 0 0)
(2.89136692234e-14 0 0)
(-2.48223449052e-15 0 0)
(-5.32873958282e-15 0 0)
(5.57893254666e-14 0 0)
(4.22537892817e-15 0 0)
(-1.13881926006e-14 0 0)
(4.98165086109e-14 0 0)
(-1.87223803893e-14 0 0)
(-5.66934283457e-15 0 0)
(1.15749479416e-14 0 0)
(-7.69223773563e-15 0 0)
(-3.01925650219e-14 0 0)
(6.69374258441e-15 0 0)
(-4.930399061e-14 0 0)
(1.0677257696e-14 0 0)
(5.43576928548e-14 0 0)
(1.02449131305e-14 0 0)
(-5.45360818002e-14 0 0)
(-2.88278146506e-14 0 0)
(-1.46378408432e-14 0 0)
(7.63281840086e-15 0 0)
(2.48960220569e-14 0 0)
(-2.65352389376e-15 0 0)
(-6.06404976265e-15 0 0)
(-5.9721370175e-14 0 0)
(-3.91163860246e-14 0 0)
(-5.01784253918e-15 0 0)
(-3.55052202973e-15 0 0)
(-3.68516880679e-14 0 0)
(-2.23143329223e-14 0 0)
(-3.8361522424e-14 0 0)
(4.62541529781e-15 0 0)
(5.99183517218e-14 0 0)
(-7.23514167741e-14 0 0)
(-3.51553225846e-14 0 0)
(-6.42298202748e-14 0 0)
(-1.87207415238e-15 0 0)
(-8.03813597789e-15 0 0)
(-1.99787737636e-14 0 0)
(-2.39081948602e-14 0 0)
(1.41171771489e-14 0 0)
(-3.94857849842e-14 0 0)
(-1.57793183237e-15 0 0)
(-2.03239006245e-14 0 0)
(4.20743535731e-15 0 0)
(-2.32192429734e-15 0 0)
(-3.38298136033e-15 0 0)
(-5.32624189498e-14 0 0)
(-1.52301283896e-14 0 0)
(-2.42334930453e-14 0 0)
(-3.27925104261e-14 0 0)
(-6.99134330867e-14 0 0)
(-1.27979068734e-13 0 0)
(-8.18112477967e-15 0 0)
(-1.7179040453e-14 0 0)
(-3.60877125554e-14 0 0)
(-3.83722788668e-14 0 0)
(-2.60648351404e-14 0 0)
(-9.6713341412e-15 0 0)
(-9.21256078461e-14 0 0)
(-8.94076808864e-14 0 0)
(-9.26950873981e-14 0 0)
(-8.5374526733e-14 0 0)
(-3.06689050221e-14 0 0)
(-6.26375826115e-14 0 0)
(-3.94351048307e-14 0 0)
(-4.78333034476e-15 0 0)
(2.17066429603e-14 0 0)
(-8.62476872089e-14 0 0)
(-1.19966035526e-14 0 0)
(-4.06962784073e-15 0 0)
(-1.53899040786e-14 0 0)
(-1.8872707085e-14 0 0)
(-3.21763684484e-14 0 0)
(-6.32813111569e-14 0 0)
(-9.69727265956e-14 0 0)
(-6.41513388573e-14 0 0)
(-6.86957297765e-14 0 0)
(-3.38034425611e-14 0 0)
(2.91802230968e-14 0 0)
(1.52440650321e-15 0 0)
(-6.56583315357e-14 0 0)
(1.53508646794e-14 0 0)
(-4.2740917868e-14 0 0)
(1.38628966542e-14 0 0)
(-3.44954123305e-14 0 0)
(-5.31676862453e-14 0 0)
(-3.90739985928e-14 0 0)
(-1.40218410716e-14 0 0)
(-5.79869916567e-14 0 0)
(1.01412526638e-14 0 0)
(7.32560058473e-15 0 0)
(-3.59785449935e-14 0 0)
(5.22767119456e-14 0 0)
(-1.21521415532e-14 0 0)
(-2.67851910254e-14 0 0)
(3.71071410098e-14 0 0)
(9.3542456641e-15 0 0)
(-7.13441233173e-14 0 0)
(-1.35494499338e-14 0 0)
(3.05113009309e-15 0 0)
(6.89289293815e-15 0 0)
(6.57292529236e-15 0 0)
(-3.44701362796e-15 0 0)
(-7.46262669864e-14 0 0)
(-3.84422563333e-14 0 0)
(3.14455576872e-14 0 0)
(4.00166449668e-14 0 0)
(5.8007597632e-14 0 0)
(-8.0086181086e-15 0 0)
(-1.4824041779e-14 0 0)
(-2.7970664491e-14 0 0)
(-6.13220649302e-14 0 0)
(-5.88535458553e-15 0 0)
(-5.54691633505e-14 0 0)
(-2.99565312481e-14 0 0)
(-1.67629551339e-14 0 0)
(-3.59839659174e-14 0 0)
(-1.52354440911e-14 0 0)
(-5.7707429959e-14 0 0)
(1.49698718262e-14 0 0)
(2.37347868227e-14 0 0)
(1.8532318548e-14 0 0)
(8.82869935115e-14 0 0)
(3.35983636929e-14 0 0)
(-3.05761043551e-14 0 0)
(-4.30767083954e-15 0 0)
(3.08147268525e-15 0 0)
(-7.287308355e-15 0 0)
(6.39444735577e-14 0 0)
(-8.05289887084e-14 0 0)
(6.21454418123e-14 0 0)
(2.33931908649e-14 0 0)
(3.73593069723e-14 0 0)
(4.86862437973e-16 0 0)
(3.46004677655e-14 0 0)
(5.74724401118e-14 0 0)
(-2.29973335876e-14 0 0)
(-6.16248947232e-14 0 0)
(3.21239409835e-14 0 0)
(8.44846169601e-14 0 0)
(5.03867168142e-14 0 0)
(5.21151403966e-14 0 0)
(-1.63366575807e-14 0 0)
(4.68276358669e-14 0 0)
(6.78790575739e-14 0 0)
(8.22820405293e-14 0 0)
(3.38911067193e-14 0 0)
(3.92580017712e-14 0 0)
(-5.87864193992e-14 0 0)
(1.26162779948e-14 0 0)
(8.80359808176e-14 0 0)
(7.3490553172e-14 0 0)
(1.01189018684e-13 0 0)
(2.53632831352e-14 0 0)
(5.96859105157e-14 0 0)
(4.80441657703e-14 0 0)
(-3.97615277937e-14 0 0)
(1.13096255411e-14 0 0)
(3.96677038575e-14 0 0)
(-1.25712522946e-14 0 0)
(1.62099183467e-14 0 0)
(1.3189052354e-15 0 0)
(-6.51519095478e-14 0 0)
(1.95762936173e-14 0 0)
(2.8776882709e-14 0 0)
(-1.02785140126e-14 0 0)
(1.75595650611e-14 0 0)
(-4.31469250878e-15 0 0)
(-2.17809956998e-14 0 0)
(1.41148502405e-14 0 0)
(1.18015557428e-14 0 0)
(3.314442021e-14 0 0)
(-2.87484272389e-14 0 0)
(3.64430004349e-14 0 0)
(2.37111538077e-14 0 0)
(5.83649462035e-15 0 0)
(1.00990745279e-14 0 0)
(-2.03381862297e-14 0 0)
(3.89063955306e-15 0 0)
(1.18816764893e-14 0 0)
(7.44184307321e-14 0 0)
(-1.70805323189e-15 0 0)
(1.02707789588e-13 0 0)
(-6.60627283856e-14 0 0)
(8.20108618682e-14 0 0)
(2.96557251245e-14 0 0)
(-3.71851229577e-14 0 0)
(7.28198589013e-15 0 0)
(-9.37803403999e-14 0 0)
(1.12790017395e-13 0 0)
(-7.47744524244e-15 0 0)
(-1.84364732728e-14 0 0)
(-3.99064213973e-14 0 0)
(4.31873702219e-14 0 0)
(-1.8350939635e-14 0 0)
(-4.16180100062e-14 0 0)
(-1.4594453681e-14 0 0)
(-6.06893729563e-14 0 0)
(-2.93975741589e-14 0 0)
(-4.7402309515e-14 0 0)
(-2.32106789488e-14 0 0)
(3.77739354894e-14 0 0)
(5.83799380159e-15 0 0)
(2.50776437681e-14 0 0)
(6.78060142118e-14 0 0)
(7.91072348887e-14 0 0)
(-2.13398478025e-14 0 0)
(4.26768798288e-14 0 0)
(5.01678912278e-14 0 0)
(8.32245202011e-14 0 0)
(-6.11709129358e-15 0 0)
(5.66790622596e-14 0 0)
)
;

boundaryField
{
    periodic_1
    {
        type            cyclic;
    }
    bottom
    {
        type            empty;
    }
    top
    {
        type            empty;
    }
    periodic_2
    {
        type            cyclic;
    }
    front
    {
        type            empty;
    }
    back
    {
        type            empty;
    }
}


// ************************************************************************* //
