/*--------------------------------*- C++ -*----------------------------------*\
| =========                 |                                                 |
| \\      /  F ield         | OpenFOAM: The Open Source CFD Toolbox           |
|  \\    /   O peration     | Version:  v1706                                 |
|   \\  /    A nd           | Web:      www.OpenFOAM.com                      |
|    \\/     M anipulation  |                                                 |
\*---------------------------------------------------------------------------*/
FoamFile
{
    version     2.0;
    format      ascii;
    class       volScalarField;
    location    "80";
    object      phiE;
}
// * * * * * * * * * * * * * * * * * * * * * * * * * * * * * * * * * * * * * //

dimensions      [1 2 -3 0 0 -1 0];


internalField   nonuniform List<scalar> 
256
(
0.000437379601588
-0.00029709486072
-0.000920538186167
-0.00151288976818
-0.00205638529711
-0.002497731844
-0.00291686880229
-0.00335376586868
-0.00377289442388
-0.00413428477117
-0.00449567091692
-0.00482152424182
-0.00512960905552
-0.00542436643545
-0.0056747088397
-0.00593837027465
-0.00620202750805
-0.00640350545613
-0.0065472451963
-0.00666877534787
-0.00677253698824
-0.00690294089154
-0.00702001736106
-0.00714597178386
-0.00725859877288
-0.00740230910225
-0.0075193687656
-0.00767639392411
-0.0078023273392
-0.00792825655274
-0.00804529940991
-0.00814457375588
-0.00825272605514
-0.00833422768838
-0.00844237158455
-0.008559393434
-0.00871638077862
-0.00885559961205
-0.00898593208911
-0.00906740851309
-0.00911335211622
-0.00916373259522
-0.00921854995008
-0.00923783448411
-0.00925267373917
-0.00928083202493
-0.00937116119293
-0.00945260400455
-0.00952516045981
-0.00963324133282
-0.00973687692688
-0.00984050831939
-0.00996634089743
-0.0101232568158
-0.0103156971519
-0.0105258975962
-0.0107360938389
-0.0109596091123
-0.0112053255712
-0.0114243913641
-0.011639011878
-0.0118225406485
-0.0119616544434
-0.0120741175722
-0.0121688121898
-0.0122368561414
-0.0123004548141
-0.0123018742014
-0.0122766429227
-0.0122691717521
-0.0122705785348
-0.012294186503
-0.0123355545793
-0.0124213292282
-0.0124449245918
-0.0125040443731
-0.0125631599529
-0.0126045070215
-0.0126369677337
-0.0126161313155
-0.0125997317731
-0.0126055334162
-0.0125935665481
-0.0125727133237
-0.0125740612848
-0.0125176710379
-0.0124968052089
-0.0124537297912
-0.0123928858623
-0.0124030949705
-0.0124310641868
-0.0124590292015
-0.0124914310921
-0.0125193877038
-0.0125517811913
-0.0125353186258
-0.0125321750909
-0.0125245862771
-0.0124947878747
-0.0124871906578
-0.0124262963104
-0.0123032226777
-0.0121623805337
-0.011986005569
-0.0117785388608
-0.0115533036414
-0.0112969766786
-0.0110406455142
-0.0107709869161
-0.0104835598067
-0.0101828052636
-0.00984651789962
-0.00952799064376
-0.00920501810894
-0.00881542521138
-0.00841250488004
-0.00800069819234
-0.00760665161274
-0.00713710251558
-0.00660981521051
-0.00605587723943
-0.00544864213784
-0.00482807960248
-0.00418086640109
-0.00349812037886
-0.00278872369061
-0.00204379418151
-0.00126777292898
-0.000438454595769
2.34702805118e-05
0.000538692287289
0.00108944711491
0.00168461691821
0.00232864277458
0.00303040683887
0.00378102695624
0.00456273881705
0.00538442457611
0.0062372020786
0.00716104102125
0.00811153062991
0.00908422982718
0.0100613743034
0.0110385229812
0.0120289990927
0.0130461258703
0.0140277282301
0.0150226580237
0.0160486795607
0.0170747052993
0.0181229406265
0.0191756212326
0.0202416292725
0.0213387290559
0.022449156273
0.0235729109239
0.0247055519312
0.0258293149852
0.0269797287053
0.0281834395558
0.0294004778401
0.0306352846356
0.0318834188648
0.033113792986
0.0343219659217
0.0354901733621
0.0365962099204
0.0376889274479
0.03875944379
0.0397633481724
0.0407272870596
0.0416246139871
0.0424686521873
0.0433082535116
0.0441123304181
0.0448586775198
0.045636116365
0.0463558254053
0.0470266867956
0.0476797880778
0.0483018060197
0.0488705352341
0.0493815346438
0.0498570096357
0.0502925191324
0.0506747399017
0.0510169951758
0.0513414903418
0.0516437843223
0.0519016717303
0.0521373579527
0.0523419608347
0.0525199214538
0.0526801219648
0.0528270034452
0.0529205961981
0.0530230753074
0.0531122353859
0.0531703121242
0.0532061876769
0.0531932155796
0.0531669244517
0.0530784624415
0.0529766814006
0.0528749045612
0.0527376033041
0.0525914240937
0.0523919561559
0.0521836102648
0.0519752685753
0.0517047560035
0.0513987190139
0.0510260700648
0.0505734859237
0.0500898184423
0.0496105962398
0.0491047317744
0.0485500196591
0.0479509009711
0.0472940524783
0.0465705920259
0.0458338125427
0.0450348621774
0.0441915052394
0.0432948595741
0.042384894878
0.0414260825319
0.0404273046907
0.0393707970447
0.0382743239035
0.0371245620348
0.0359170703614
0.0346385256509
0.0333111332904
0.0319526575896
0.0305675396258
0.0291557793991
0.0277173769094
0.0262745375439
0.0248183791477
0.0233311374112
0.0218039301794
0.0202767271492
0.0187717337077
0.0172756266225
0.0157795237388
0.0142923072115
0.0127917716535
0.0112867992197
0.00981291852926
0.00833460096298
0.00690513944977
0.00552009291224
0.00419722566002
0.00294097877054
0.00168473608261
)
;

boundaryField
{
    periodic_1
    {
        type            cyclic;
    }
    bottom
    {
        type            empty;
    }
    top
    {
        type            empty;
    }
    periodic_2
    {
        type            cyclic;
    }
    front
    {
        type            empty;
    }
    back
    {
        type            empty;
    }
}


// ************************************************************************* //
