/*--------------------------------*- C++ -*----------------------------------*\
| =========                 |                                                 |
| \\      /  F ield         | OpenFOAM: The Open Source CFD Toolbox           |
|  \\    /   O peration     | Version:  v1706                                 |
|   \\  /    A nd           | Web:      www.OpenFOAM.com                      |
|    \\/     M anipulation  |                                                 |
\*---------------------------------------------------------------------------*/
FoamFile
{
    version     2.0;
    format      ascii;
    class       volScalarField;
    location    "80";
    object      rhoM;
}
// * * * * * * * * * * * * * * * * * * * * * * * * * * * * * * * * * * * * * //

dimensions      [1 -3 0 0 0 0 0];


internalField   nonuniform List<scalar> 
256
(
3.19874994748e-13
3.72099483686e-13
2.48066322457e-13
2.87234689161e-13
3.72099483686e-13
2.35010200223e-13
2.02369894636e-13
2.15426016871e-13
2.93762750279e-13
2.08897955754e-13
2.61122444692e-13
2.4153826134e-13
2.21954077988e-13
2.67650505809e-13
1.89313772402e-13
2.08897955754e-13
3.00290811396e-13
2.93762750279e-13
2.28482139106e-13
2.54594383575e-13
1.76257650167e-13
2.21954077988e-13
1.89313772402e-13
2.35010200223e-13
1.6972958905e-13
2.4153826134e-13
1.43617344581e-13
2.61122444692e-13
2.08897955754e-13
2.28482139106e-13
2.35010200223e-13
1.89313772402e-13
2.48066322457e-13
1.82785711284e-13
1.82785711284e-13
1.50145405698e-13
2.28482139106e-13
2.21954077988e-13
2.87234689161e-13
2.61122444692e-13
2.02369894636e-13
1.95841833519e-13
2.61122444692e-13
2.21954077988e-13
1.89313772402e-13
1.17505100111e-13
2.21954077988e-13
2.15426016871e-13
1.63201527933e-13
2.15426016871e-13
2.15426016871e-13
1.63201527933e-13
1.63201527933e-13
1.63201527933e-13
1.82785711284e-13
2.08897955754e-13
1.89313772402e-13
1.6972958905e-13
2.4153826134e-13
2.28482139106e-13
2.4153826134e-13
2.87234689161e-13
2.48066322457e-13
2.35010200223e-13
2.54594383575e-13
2.15426016871e-13
3.06818872513e-13
2.28482139106e-13
1.89313772402e-13
1.95841833519e-13
1.76257650167e-13
1.82785711284e-13
1.43617344581e-13
3.00290811396e-13
1.56673466815e-13
2.15426016871e-13
2.28482139106e-13
2.21954077988e-13
2.87234689161e-13
2.02369894636e-13
1.76257650167e-13
2.35010200223e-13
2.21954077988e-13
1.89313772402e-13
2.80706628044e-13
1.50145405698e-13
2.54594383575e-13
2.28482139106e-13
1.10977038994e-13
1.76257650167e-13
2.08897955754e-13
2.02369894636e-13
2.15426016871e-13
2.02369894636e-13
2.74178566927e-13
1.95841833519e-13
2.15426016871e-13
2.4153826134e-13
1.76257650167e-13
2.80706628044e-13
3.06818872513e-13
2.35010200223e-13
2.67650505809e-13
2.48066322457e-13
2.35010200223e-13
2.54594383575e-13
1.95841833519e-13
2.48066322457e-13
2.28482139106e-13
2.28482139106e-13
2.67650505809e-13
1.89313772402e-13
2.02369894636e-13
3.06818872513e-13
2.35010200223e-13
2.21954077988e-13
1.82785711284e-13
3.1334693363e-13
2.93762750279e-13
2.54594383575e-13
2.80706628044e-13
2.28482139106e-13
2.48066322457e-13
2.67650505809e-13
2.4153826134e-13
2.48066322457e-13
2.67650505809e-13
2.87234689161e-13
3.06818872513e-13
2.87234689161e-13
2.80706628044e-13
2.61122444692e-13
2.87234689161e-13
2.87234689161e-13
2.80706628044e-13
2.54594383575e-13
2.54594383575e-13
2.67650505809e-13
3.19874994748e-13
2.4153826134e-13
2.48066322457e-13
2.08897955754e-13
2.08897955754e-13
2.21954077988e-13
2.54594383575e-13
1.56673466815e-13
2.28482139106e-13
2.54594383575e-13
2.02369894636e-13
2.54594383575e-13
1.95841833519e-13
2.35010200223e-13
2.61122444692e-13
2.15426016871e-13
2.4153826134e-13
2.15426016871e-13
2.02369894636e-13
2.4153826134e-13
2.93762750279e-13
2.28482139106e-13
2.48066322457e-13
2.21954077988e-13
1.6972958905e-13
1.76257650167e-13
1.43617344581e-13
1.37089283463e-13
1.82785711284e-13
1.76257650167e-13
1.10977038994e-13
1.43617344581e-13
1.17505100111e-13
1.37089283463e-13
1.95841833519e-13
1.50145405698e-13
1.30561222346e-13
2.48066322457e-13
1.30561222346e-13
1.43617344581e-13
1.82785711284e-13
1.50145405698e-13
1.37089283463e-13
1.30561222346e-13
1.50145405698e-13
1.56673466815e-13
1.17505100111e-13
1.50145405698e-13
1.95841833519e-13
1.63201527933e-13
1.50145405698e-13
1.6972958905e-13
1.82785711284e-13
1.56673466815e-13
1.82785711284e-13
1.89313772402e-13
1.30561222346e-13
2.08897955754e-13
1.95841833519e-13
1.6972958905e-13
1.89313772402e-13
1.30561222346e-13
1.6972958905e-13
1.30561222346e-13
1.89313772402e-13
2.08897955754e-13
1.56673466815e-13
1.95841833519e-13
1.30561222346e-13
2.02369894636e-13
2.02369894636e-13
1.17505100111e-13
1.50145405698e-13
1.24033161229e-13
8.48647945249e-14
1.6972958905e-13
2.15426016871e-13
1.63201527933e-13
1.37089283463e-13
1.37089283463e-13
1.30561222346e-13
1.04448977877e-13
1.95841833519e-13
1.17505100111e-13
1.43617344581e-13
1.37089283463e-13
1.89313772402e-13
1.24033161229e-13
1.56673466815e-13
1.37089283463e-13
1.37089283463e-13
1.30561222346e-13
1.17505100111e-13
1.10977038994e-13
1.37089283463e-13
1.50145405698e-13
1.82785711284e-13
1.56673466815e-13
1.6972958905e-13
2.28482139106e-13
1.76257650167e-13
1.6972958905e-13
1.50145405698e-13
2.08897955754e-13
2.35010200223e-13
2.21954077988e-13
2.21954077988e-13
1.89313772402e-13
2.02369894636e-13
2.08897955754e-13
2.4153826134e-13
2.21954077988e-13
2.80706628044e-13
2.61122444692e-13
3.06818872513e-13
3.06818872513e-13
2.08897955754e-13
2.15426016871e-13
)
;

boundaryField
{
    periodic_1
    {
        type            cyclic;
    }
    bottom
    {
        type            empty;
    }
    top
    {
        type            empty;
    }
    periodic_2
    {
        type            cyclic;
    }
    front
    {
        type            empty;
    }
    back
    {
        type            empty;
    }
}


// ************************************************************************* //
