/*--------------------------------*- C++ -*----------------------------------*\
| =========                 |                                                 |
| \\      /  F ield         | OpenFOAM: The Open Source CFD Toolbox           |
|  \\    /   O peration     | Version:  v1706                                 |
|   \\  /    A nd           | Web:      www.OpenFOAM.com                      |
|    \\/     M anipulation  |                                                 |
\*---------------------------------------------------------------------------*/
FoamFile
{
    version     2.0;
    format      ascii;
    class       volScalarField;
    location    "80";
    object      rhoN;
}
// * * * * * * * * * * * * * * * * * * * * * * * * * * * * * * * * * * * * * //

dimensions      [0 -3 0 0 0 0 0];


internalField   nonuniform List<scalar> 
256
(
19964984.8798
23224574.248
15483049.4986
17927741.5247
23224574.248
14668152.1566
12630908.8015
13445806.1436
18335190.1958
13038357.4725
16297946.8407
15075600.8276
13853254.8146
16705395.5117
11816011.4595
13038357.4725
18742638.8668
18335190.1958
14260703.4856
15890498.1697
11001114.1175
13853254.8146
11816011.4595
14668152.1566
10593665.4464
15075600.8276
8963870.76237
16297946.8407
13038357.4725
14260703.4856
14668152.1566
11816011.4595
15483049.4986
11408562.7885
11408562.7885
9371319.43339
14260703.4856
13853254.8146
17927741.5247
16297946.8407
12630908.8015
12223460.1305
16297946.8407
13853254.8146
11816011.4595
7334076.07831
13853254.8146
13445806.1436
10186216.7754
13445806.1436
13445806.1436
10186216.7754
10186216.7754
10186216.7754
11408562.7885
13038357.4725
11816011.4595
10593665.4464
15075600.8276
14260703.4856
15075600.8276
17927741.5247
15483049.4986
14668152.1566
15890498.1697
13445806.1436
19150087.5378
14260703.4856
11816011.4595
12223460.1305
11001114.1175
11408562.7885
8963870.76237
18742638.8668
9778768.10441
13445806.1436
14260703.4856
13853254.8146
17927741.5247
12630908.8015
11001114.1175
14668152.1566
13853254.8146
11816011.4595
17520292.8537
9371319.43339
15890498.1697
14260703.4856
6926627.40729
11001114.1175
13038357.4725
12630908.8015
13445806.1436
12630908.8015
17112844.1827
12223460.1305
13445806.1436
15075600.8276
11001114.1175
17520292.8537
19150087.5378
14668152.1566
16705395.5117
15483049.4986
14668152.1566
15890498.1697
12223460.1305
15483049.4986
14260703.4856
14260703.4856
16705395.5117
11816011.4595
12630908.8015
19150087.5378
14668152.1566
13853254.8146
11408562.7885
19557536.2088
18335190.1958
15890498.1697
17520292.8537
14260703.4856
15483049.4986
16705395.5117
15075600.8276
15483049.4986
16705395.5117
17927741.5247
19150087.5378
17927741.5247
17520292.8537
16297946.8407
17927741.5247
17927741.5247
17520292.8537
15890498.1697
15890498.1697
16705395.5117
19964984.8798
15075600.8276
15483049.4986
13038357.4725
13038357.4725
13853254.8146
15890498.1697
9778768.10441
14260703.4856
15890498.1697
12630908.8015
15890498.1697
12223460.1305
14668152.1566
16297946.8407
13445806.1436
15075600.8276
13445806.1436
12630908.8015
15075600.8276
18335190.1958
14260703.4856
15483049.4986
13853254.8146
10593665.4464
11001114.1175
8963870.76237
8556422.09136
11408562.7885
11001114.1175
6926627.40729
8963870.76237
7334076.07831
8556422.09136
12223460.1305
9371319.43339
8148973.42034
15483049.4986
8148973.42034
8963870.76237
11408562.7885
9371319.43339
8556422.09136
8148973.42034
9371319.43339
9778768.10441
7334076.07831
9371319.43339
12223460.1305
10186216.7754
9371319.43339
10593665.4464
11408562.7885
9778768.10441
11408562.7885
11816011.4595
8148973.42034
13038357.4725
12223460.1305
10593665.4464
11816011.4595
8148973.42034
10593665.4464
8148973.42034
11816011.4595
13038357.4725
9778768.10441
12223460.1305
8148973.42034
12630908.8015
12630908.8015
7334076.07831
9371319.43339
7741524.74932
5296832.72322
10593665.4464
13445806.1436
10186216.7754
8556422.09136
8556422.09136
8148973.42034
6519178.73627
12223460.1305
7334076.07831
8963870.76237
8556422.09136
11816011.4595
7741524.74932
9778768.10441
8556422.09136
8556422.09136
8148973.42034
7334076.07831
6926627.40729
8556422.09136
9371319.43339
11408562.7885
9778768.10441
10593665.4464
14260703.4856
11001114.1175
10593665.4464
9371319.43339
13038357.4725
14668152.1566
13853254.8146
13853254.8146
11816011.4595
12630908.8015
13038357.4725
15075600.8276
13853254.8146
17520292.8537
16297946.8407
19150087.5378
19150087.5378
13038357.4725
13445806.1436
)
;

boundaryField
{
    periodic_1
    {
        type            cyclic;
    }
    bottom
    {
        type            empty;
    }
    top
    {
        type            empty;
    }
    periodic_2
    {
        type            cyclic;
    }
    front
    {
        type            empty;
    }
    back
    {
        type            empty;
    }
}


// ************************************************************************* //
