/*--------------------------------*- C++ -*----------------------------------*\
| =========                 |                                                 |
| \\      /  F ield         | OpenFOAM: The Open Source CFD Toolbox           |
|  \\    /   O peration     | Version:  v1706                                 |
|   \\  /    A nd           | Web:      www.OpenFOAM.com                      |
|    \\/     M anipulation  |                                                 |
\*---------------------------------------------------------------------------*/
FoamFile
{
    version     2.0;
    format      ascii;
    class       volScalarField;
    location    "80";
    object      rhoQ;
}
// * * * * * * * * * * * * * * * * * * * * * * * * * * * * * * * * * * * * * //

dimensions      [0 -3 1 0 0 1 0];


internalField   nonuniform List<scalar> 
256
(
-3.19874994748e-12
-3.72099483686e-12
-2.54594383575e-12
-2.80706628044e-12
-3.59043361452e-12
-2.4153826134e-12
-1.82785711284e-12
-2.35010200223e-12
-2.93762750279e-12
-2.08897955754e-12
-2.61122444692e-12
-2.35010200223e-12
-2.28482139106e-12
-2.74178566927e-12
-1.89313772402e-12
-2.08897955754e-12
-3.00290811396e-12
-2.93762750279e-12
-2.4153826134e-12
-2.35010200223e-12
-1.6972958905e-12
-2.28482139106e-12
-1.95841833519e-12
-2.28482139106e-12
-1.63201527933e-12
-2.48066322457e-12
-1.50145405698e-12
-2.54594383575e-12
-2.08897955754e-12
-2.21954077988e-12
-2.35010200223e-12
-1.95841833519e-12
-2.48066322457e-12
-1.6972958905e-12
-1.95841833519e-12
-1.50145405698e-12
-2.35010200223e-12
-2.21954077988e-12
-2.80706628044e-12
-2.61122444692e-12
-2.02369894636e-12
-2.02369894636e-12
-2.61122444692e-12
-2.15426016871e-12
-1.89313772402e-12
-1.17505100111e-12
-2.21954077988e-12
-2.21954077988e-12
-1.56673466815e-12
-2.15426016871e-12
-2.08897955754e-12
-1.76257650167e-12
-1.63201527933e-12
-1.56673466815e-12
-1.82785711284e-12
-2.08897955754e-12
-1.89313772402e-12
-1.76257650167e-12
-2.48066322457e-12
-2.15426016871e-12
-2.54594383575e-12
-2.74178566927e-12
-2.48066322457e-12
-2.35010200223e-12
-2.48066322457e-12
-2.15426016871e-12
-3.00290811396e-12
-2.48066322457e-12
-1.82785711284e-12
-1.95841833519e-12
-1.76257650167e-12
-1.82785711284e-12
-1.43617344581e-12
-3.00290811396e-12
-1.56673466815e-12
-2.08897955754e-12
-2.35010200223e-12
-2.21954077988e-12
-2.87234689161e-12
-2.02369894636e-12
-1.76257650167e-12
-2.35010200223e-12
-2.21954077988e-12
-1.76257650167e-12
-2.93762750279e-12
-1.56673466815e-12
-2.4153826134e-12
-2.35010200223e-12
-1.04448977877e-12
-1.82785711284e-12
-2.08897955754e-12
-2.02369894636e-12
-2.15426016871e-12
-2.02369894636e-12
-2.80706628044e-12
-1.89313772402e-12
-2.15426016871e-12
-2.4153826134e-12
-1.76257650167e-12
-2.87234689161e-12
-3.00290811396e-12
-2.35010200223e-12
-2.61122444692e-12
-2.54594383575e-12
-2.35010200223e-12
-2.54594383575e-12
-2.08897955754e-12
-2.28482139106e-12
-2.35010200223e-12
-2.28482139106e-12
-2.61122444692e-12
-1.82785711284e-12
-2.15426016871e-12
-3.06818872513e-12
-2.28482139106e-12
-2.21954077988e-12
-1.82785711284e-12
-3.19874994748e-12
-2.93762750279e-12
-2.48066322457e-12
-2.87234689161e-12
-2.28482139106e-12
-2.48066322457e-12
-2.61122444692e-12
-2.48066322457e-12
-2.61122444692e-12
-2.54594383575e-12
-2.87234689161e-12
-3.1334693363e-12
-2.87234689161e-12
-2.61122444692e-12
-2.74178566927e-12
-2.80706628044e-12
-2.93762750279e-12
-2.80706628044e-12
-2.54594383575e-12
-2.67650505809e-12
-2.54594383575e-12
-3.1334693363e-12
-2.48066322457e-12
-2.4153826134e-12
-2.15426016871e-12
-2.08897955754e-12
-2.28482139106e-12
-2.48066322457e-12
-1.56673466815e-12
-2.28482139106e-12
-2.54594383575e-12
-2.08897955754e-12
-2.4153826134e-12
-2.15426016871e-12
-2.28482139106e-12
-2.54594383575e-12
-2.28482139106e-12
-2.28482139106e-12
-2.21954077988e-12
-1.95841833519e-12
-2.48066322457e-12
-2.87234689161e-12
-2.28482139106e-12
-2.35010200223e-12
-2.28482139106e-12
-1.82785711284e-12
-1.76257650167e-12
-1.50145405698e-12
-1.17505100111e-12
-1.89313772402e-12
-1.76257650167e-12
-1.10977038994e-12
-1.50145405698e-12
-1.10977038994e-12
-1.30561222346e-12
-2.02369894636e-12
-1.56673466815e-12
-1.24033161229e-12
-2.54594383575e-12
-1.24033161229e-12
-1.37089283463e-12
-1.82785711284e-12
-1.63201527933e-12
-1.30561222346e-12
-1.24033161229e-12
-1.56673466815e-12
-1.50145405698e-12
-1.30561222346e-12
-1.50145405698e-12
-1.82785711284e-12
-1.76257650167e-12
-1.43617344581e-12
-1.76257650167e-12
-1.63201527933e-12
-1.6972958905e-12
-1.82785711284e-12
-1.89313772402e-12
-1.30561222346e-12
-2.21954077988e-12
-1.89313772402e-12
-1.63201527933e-12
-1.76257650167e-12
-1.37089283463e-12
-1.89313772402e-12
-1.17505100111e-12
-1.89313772402e-12
-2.08897955754e-12
-1.56673466815e-12
-1.95841833519e-12
-1.30561222346e-12
-1.95841833519e-12
-2.08897955754e-12
-1.17505100111e-12
-1.56673466815e-12
-1.10977038994e-12
-9.13928556422e-13
-1.63201527933e-12
-2.15426016871e-12
-1.6972958905e-12
-1.37089283463e-12
-1.43617344581e-12
-1.24033161229e-12
-1.10977038994e-12
-1.89313772402e-12
-1.17505100111e-12
-1.43617344581e-12
-1.30561222346e-12
-1.89313772402e-12
-1.37089283463e-12
-1.50145405698e-12
-1.24033161229e-12
-1.50145405698e-12
-1.30561222346e-12
-1.24033161229e-12
-1.04448977877e-12
-1.37089283463e-12
-1.63201527933e-12
-1.6972958905e-12
-1.6972958905e-12
-1.6972958905e-12
-2.02369894636e-12
-1.89313772402e-12
-1.63201527933e-12
-1.50145405698e-12
-2.08897955754e-12
-2.4153826134e-12
-2.21954077988e-12
-2.08897955754e-12
-2.21954077988e-12
-1.89313772402e-12
-2.02369894636e-12
-2.54594383575e-12
-2.02369894636e-12
-2.80706628044e-12
-2.74178566927e-12
-3.00290811396e-12
-3.06818872513e-12
-2.08897955754e-12
-2.21954077988e-12
)
;

boundaryField
{
    periodic_1
    {
        type            cyclic;
    }
    bottom
    {
        type            empty;
    }
    top
    {
        type            empty;
    }
    periodic_2
    {
        type            cyclic;
    }
    front
    {
        type            empty;
    }
    back
    {
        type            empty;
    }
}


// ************************************************************************* //
