/*--------------------------------*- C++ -*----------------------------------*\
| =========                 |                                                 |
| \\      /  F ield         | OpenFOAM: The Open Source CFD Toolbox           |
|  \\    /   O peration     | Version:  v1706                                 |
|   \\  /    A nd           | Web:      www.OpenFOAM.com                      |
|    \\/     M anipulation  |                                                 |
\*---------------------------------------------------------------------------*/
FoamFile
{
    version     2.0;
    format      ascii;
    class       scalarField;
    location    "2.095e-05/lagrangian/dsmc";
    object      ERot;
}
// * * * * * * * * * * * * * * * * * * * * * * * * * * * * * * * * * * * * * //


99998
(
2.796845295e-20
2.157910297e-19
1.198236877e-19
4.654293023e-20
7.513642512e-20
9.000475216e-20
9.777283876e-20
1.994361437e-19
5.046844208e-20
5.224796968e-19
1.804286858e-19
1.331211918e-19
2.480116571e-20
1.199820421e-20
1.209619434e-19
1.21035338e-20
1.948835204e-20
1.670477891e-19
4.751166031e-20
1.342959495e-20
4.820241858e-20
1.850645944e-21
1.584748023e-19
5.067785814e-19
1.475452352e-19
1.600880661e-19
4.594649798e-20
1.781280018e-20
1.612211429e-20
5.41788897e-20
2.735995443e-19
2.383507878e-20
4.587338869e-20
2.425006557e-19
5.541831022e-20
4.312634206e-20
8.686102632e-20
3.118905707e-20
9.782422181e-21
1.187135146e-20
5.513706007e-20
2.87429128e-20
5.378476822e-22
1.960661406e-19
1.468764089e-19
1.656031347e-21
3.530358476e-19
7.089830506e-21
8.693734864e-20
2.13740722e-21
5.555881771e-20
1.22764821e-19
1.5944007e-19
1.021028434e-20
5.81068036e-20
1.066817424e-19
6.402507304e-21
2.141740264e-20
3.507275272e-19
4.923660195e-21
1.980031854e-20
2.62774273e-19
4.789928474e-22
4.628406046e-20
2.479648493e-20
3.376637052e-19
2.535115927e-20
6.891434005e-20
7.165861843e-20
3.310496873e-20
4.823741569e-20
8.549229778e-20
5.719048478e-20
1.561923506e-19
1.685587499e-20
5.427960983e-20
1.347612385e-19
1.480731265e-19
1.338366209e-19
1.632900235e-20
1.426375444e-20
1.39388897e-19
7.935257436e-20
1.073117745e-19
1.289393222e-19
8.286672794e-20
1.234624934e-19
2.441672548e-19
2.039626432e-21
3.184772292e-19
1.670512295e-19
6.905135258e-20
2.502795325e-20
3.729043895e-20
2.264542396e-19
1.978523408e-19
2.60140589e-20
9.931995868e-20
1.270975126e-22
9.378872481e-20
1.257169919e-19
7.208966848e-20
9.457838872e-20
8.227934212e-21
4.693459292e-20
1.455357043e-19
3.104806656e-19
1.71703448e-21
3.565602669e-21
5.903012368e-20
2.195722582e-20
2.792498861e-20
2.49353814e-19
2.118204429e-19
4.88901534e-20
3.029091386e-19
5.442302045e-20
1.718072667e-20
1.275748823e-20
4.651853307e-20
2.993057531e-19
1.728156465e-20
6.832888825e-20
3.487845711e-19
4.615917185e-20
1.771117706e-19
5.050930658e-20
2.10758408e-19
1.7111469e-19
5.097006516e-20
6.426241336e-20
1.406633495e-19
1.982844294e-20
1.126065986e-19
6.54685531e-20
3.312997471e-20
2.939378906e-20
6.915237813e-20
2.049599387e-19
8.728925922e-20
9.514133852e-20
2.151283653e-19
1.566971322e-20
1.792929409e-20
2.174930004e-19
6.675273817e-21
2.662645758e-19
1.437558521e-20
8.876427773e-20
6.611119809e-20
3.141869734e-19
2.788336522e-19
9.04647297e-20
1.106082884e-20
1.694798526e-19
1.31542993e-19
2.261259278e-20
2.002153285e-19
5.756949772e-20
2.119191623e-20
1.012346935e-19
4.472676165e-20
4.434257764e-20
3.304211674e-20
1.212767854e-20
1.616212699e-20
8.798877516e-20
2.572789438e-22
1.155563413e-19
1.843240298e-19
5.984725546e-21
6.186053886e-20
6.830662374e-20
7.875944595e-20
6.414041805e-20
3.045455734e-20
9.970589538e-20
2.673321129e-20
3.217971591e-20
8.974751092e-21
1.813749981e-19
6.609577423e-20
8.737119051e-20
5.313251701e-20
1.043020903e-19
3.636533222e-19
2.046822669e-19
3.125522001e-20
6.945390242e-20
1.524544176e-19
6.840257252e-20
2.668604446e-19
4.067448069e-21
2.681903585e-19
2.221689304e-21
4.876368959e-20
2.390103485e-19
2.517236365e-20
1.375193297e-19
1.248186329e-19
9.099023459e-20
4.540788987e-19
6.118789341e-20
2.08223573e-19
1.189895172e-20
1.932723359e-20
2.043145795e-19
2.933365533e-20
1.526893879e-19
8.528522194e-20
9.004614669e-20
5.983402224e-21
4.897866572e-19
1.618452411e-19
1.189249377e-20
2.212347568e-19
9.479643014e-21
6.990824129e-21
1.582645496e-19
2.786622051e-20
1.510932422e-19
7.467003054e-21
2.761885037e-20
2.32444732e-20
7.430236442e-20
2.803221639e-19
1.93399413e-20
2.610126367e-19
1.712570342e-20
4.169098547e-20
4.77014899e-20
4.70560055e-20
1.546118095e-19
5.048977177e-20
1.356199009e-19
3.929543941e-21
2.868139238e-20
5.09318449e-19
2.397611665e-19
1.106540472e-19
1.219850714e-20
2.398224146e-19
6.293873222e-20
5.565008171e-21
7.000430419e-20
5.645898316e-19
1.808222818e-19
1.140227123e-20
2.082786629e-19
6.675693887e-20
4.64904018e-20
6.388371832e-20
6.353917453e-20
1.007791716e-19
2.072491938e-20
4.304523247e-20
6.650370178e-21
5.62895195e-20
1.114605376e-19
9.945885913e-20
3.086321619e-20
4.819920933e-20
5.904913881e-20
1.824126829e-19
1.574583481e-19
1.029884316e-19
9.223005304e-20
9.209097961e-20
7.281946884e-20
2.608066265e-19
2.530715723e-19
3.8151321e-20
1.289579847e-19
9.23687642e-20
1.231951677e-19
1.659847747e-20
5.358794211e-21
3.046396222e-19
4.702138089e-20
7.896189019e-21
1.876669209e-19
1.482107572e-19
2.033939046e-19
2.095088011e-20
2.297930928e-19
8.414833175e-20
1.122169163e-19
4.959046193e-20
1.32879231e-19
5.444341079e-21
1.902742458e-19
1.878294889e-19
7.819907758e-20
4.133053031e-21
2.81220985e-20
1.786880151e-19
1.198093075e-19
7.108124137e-20
9.089666392e-21
1.021856772e-20
2.196364057e-20
4.612759862e-20
3.021741322e-20
1.873200452e-19
2.316366445e-19
1.293161529e-20
8.260408931e-20
1.462149673e-20
1.094444396e-19
1.135843624e-19
6.138258175e-20
4.119604592e-21
3.906370798e-19
1.201983716e-19
8.345423448e-20
1.560232949e-19
8.176759043e-20
2.032494318e-19
2.102407125e-19
1.069824245e-19
2.036180076e-19
1.873666617e-19
1.949008364e-19
1.379985298e-20
3.644887434e-20
3.623149448e-19
3.632879423e-19
1.891026389e-19
9.0883648e-20
6.525716863e-20
6.399207604e-20
5.549828109e-21
3.925025928e-20
3.607972489e-19
1.133019872e-19
1.122694544e-19
6.642104985e-20
9.48451932e-20
7.156609757e-20
2.187455845e-20
7.841286655e-20
1.280183392e-19
1.572739791e-19
1.229360613e-19
9.930452302e-20
2.119648897e-20
1.82469653e-19
4.402731677e-20
1.392253527e-20
1.348518129e-19
7.07477036e-20
1.798898066e-19
3.603497246e-19
3.36581375e-19
5.401917896e-20
1.070299159e-20
8.803153801e-20
6.70278643e-20
2.523920238e-21
3.524494898e-20
3.168788184e-19
3.689097699e-20
2.863505199e-20
6.76391292e-20
4.181294183e-19
3.651450555e-20
3.74643059e-20
9.814560916e-20
1.174511338e-19
7.844234296e-21
1.012013881e-19
2.751188006e-19
1.583439458e-19
3.798410291e-19
5.124117573e-20
7.880708791e-20
7.140294371e-20
1.84486966e-19
1.348066861e-19
7.297548003e-20
2.300450318e-19
3.842230336e-20
1.718915643e-19
6.717111988e-20
7.675186871e-20
1.213408167e-19
4.927456009e-21
6.542368581e-20
1.449996038e-19
9.597255325e-21
2.317450202e-21
2.884731799e-19
1.595668093e-19
1.808821144e-19
2.740565196e-20
3.120392064e-20
2.965958164e-19
3.578320623e-20
1.690396432e-19
1.586921029e-19
3.539568921e-19
2.997122795e-20
1.574980577e-19
6.559286354e-20
1.987060853e-19
6.458968311e-20
6.090747513e-21
2.982342702e-19
9.500857187e-20
1.754720198e-19
9.076051698e-20
1.811667758e-19
1.804577881e-19
4.7630824e-20
3.414922591e-20
1.247547676e-19
8.830098262e-20
3.93847899e-20
1.114881381e-19
4.99895523e-20
1.862329699e-20
1.22738575e-20
4.8600027e-19
2.357919205e-19
1.86078353e-19
3.717364306e-20
8.884571136e-20
9.26912672e-20
1.978981835e-20
3.220493248e-19
6.315718478e-20
3.151309951e-20
1.774885676e-20
1.32847789e-19
1.972686991e-20
2.445762964e-20
4.254589322e-20
2.169401363e-20
1.08426568e-19
5.662957878e-20
1.801282417e-20
1.262615322e-20
2.420898202e-19
5.09744442e-20
2.984385463e-19
3.234500251e-20
8.775584793e-20
7.902987808e-20
1.298429219e-20
1.579669839e-19
1.004347524e-19
1.987531279e-20
7.194738008e-20
2.893909127e-20
3.183518442e-20
4.200929178e-19
3.810919036e-20
2.858021501e-20
8.51059737e-20
1.109974685e-20
3.185599819e-20
3.768606002e-20
3.735102337e-20
3.189763913e-21
1.333836741e-20
1.72548418e-20
2.07162067e-19
7.071533336e-20
8.882807792e-21
3.048502151e-20
1.320266392e-19
3.775549866e-20
2.01109097e-19
1.213693576e-19
7.262684016e-20
6.917270424e-20
9.27289214e-21
1.516182056e-19
3.262928834e-19
2.363713437e-19
5.670431135e-21
8.85800255e-20
1.911916796e-19
2.65959783e-19
6.758237075e-20
9.533159162e-20
1.374350434e-20
2.257079091e-19
6.429398037e-21
5.737777086e-20
9.188658692e-20
6.677940926e-20
9.898469522e-20
4.768690582e-20
2.34517942e-22
3.419537103e-19
9.219025835e-20
1.453329996e-19
1.722609471e-19
1.550786344e-19
1.381780087e-20
5.900537571e-19
1.37784388e-19
1.228635981e-19
2.629464824e-20
1.816793384e-19
8.977141365e-20
1.50169758e-19
1.880141778e-19
8.354237144e-20
9.503927185e-22
2.688389879e-20
8.068670451e-20
1.182002008e-19
5.107727841e-20
2.718296514e-19
2.757683511e-20
3.846105439e-20
6.053064771e-20
1.45297422e-19
3.510999095e-21
2.288821891e-20
5.135637903e-20
6.377152164e-20
2.556591431e-19
3.578037606e-19
3.475139385e-20
1.146737407e-19
9.195188141e-20
7.15799861e-20
8.695188388e-20
2.856197297e-20
5.697194097e-20
4.64179029e-20
5.269660105e-21
4.961565103e-20
1.23428267e-19
3.709016008e-21
2.251267357e-20
2.075434871e-19
5.965706771e-20
3.125204488e-20
2.869127203e-20
9.70963556e-20
2.121098883e-19
8.033719259e-20
1.086074861e-19
4.811875971e-20
4.204306094e-21
3.526765732e-20
3.608422764e-20
1.737617316e-20
1.682767591e-19
2.408524021e-20
4.203133539e-19
6.777291133e-20
2.501290165e-20
4.294692439e-19
9.087518641e-20
1.035816553e-19
5.427816373e-21
4.379446304e-20
1.046115203e-19
2.400689284e-20
1.891531319e-19
1.670824479e-20
2.574347388e-20
1.774254842e-20
1.52568481e-19
1.294430129e-20
4.171866938e-21
6.147366734e-20
5.571997054e-20
1.247036048e-19
1.006075632e-19
4.41936419e-21
1.034869323e-19
4.479523915e-19
1.281871203e-19
3.622920883e-20
1.628309559e-19
1.084290305e-20
1.721862256e-19
2.47228836e-20
1.648555376e-19
1.165717825e-20
2.310039106e-19
1.230378628e-20
1.181109763e-19
5.56050704e-20
6.90781258e-20
3.052546406e-20
2.01953159e-19
1.310583681e-20
8.398050606e-20
1.467073382e-20
1.541898971e-19
5.682295513e-20
2.839866217e-20
1.806064269e-20
4.245575022e-20
2.313209157e-20
4.288885919e-20
9.126020961e-20
9.865027166e-20
1.30554123e-20
5.516580396e-20
7.645842522e-20
7.265884731e-20
6.140400952e-20
2.272674577e-20
1.570641541e-19
5.334212117e-19
5.602767268e-20
5.464558352e-20
1.102913585e-19
1.128890057e-19
7.082988705e-20
3.598428104e-19
7.784457376e-21
1.574114932e-19
2.777423691e-20
2.878130375e-20
1.345789345e-20
1.71148165e-19
1.071009258e-20
3.815572734e-20
4.246170603e-20
5.730154687e-20
2.999717591e-20
2.686335e-20
1.741202771e-20
1.836380222e-21
1.962690686e-19
1.210744286e-22
3.119822901e-20
3.391031946e-19
4.363404431e-20
3.870108465e-21
1.57007273e-19
1.209335564e-20
4.03526851e-20
1.552235876e-19
1.58513075e-21
1.580566558e-19
1.817489847e-19
2.29812237e-19
5.203824164e-20
1.215856164e-19
3.0327996e-19
5.688545217e-19
7.851588764e-20
5.198915389e-20
1.452186634e-19
2.906241952e-19
7.175620998e-20
1.063668714e-20
1.12528683e-19
1.547212235e-20
7.39403913e-21
1.238305961e-19
1.329486505e-19
1.319852813e-19
3.696626802e-20
2.587487275e-19
2.916881764e-20
3.251054637e-19
2.35681054e-20
5.781871476e-21
1.045508429e-19
3.316109223e-20
2.822922752e-19
2.146278923e-20
6.48050371e-21
3.366520887e-20
6.772904905e-20
2.657470275e-20
1.387085355e-19
9.590035017e-20
1.463708653e-19
7.924514026e-20
3.694849666e-20
2.151548944e-20
1.043870536e-19
3.447131668e-20
4.876095785e-20
1.31785906e-19
1.827981852e-19
6.5996917e-19
8.80697932e-21
1.871029669e-20
2.839108186e-21
3.921383983e-20
1.037205327e-20
1.295810535e-19
1.629988518e-19
2.968715163e-19
1.357020897e-19
7.037876351e-20
4.940531667e-20
1.854577182e-19
1.444787327e-19
1.693580993e-20
1.102329187e-19
9.779490973e-21
7.906991422e-20
1.687292484e-19
4.289708818e-20
1.015736903e-20
1.421794684e-19
6.054452569e-20
3.833039002e-21
1.99900414e-20
7.421562889e-20
1.704583523e-19
4.840715347e-20
2.213678269e-19
3.369724579e-19
4.856887216e-20
1.996247109e-20
8.131722014e-20
2.376345403e-20
3.542518824e-20
2.267700014e-20
4.127735777e-20
1.850152617e-20
2.718108063e-20
8.029206565e-20
6.154370597e-20
1.526555289e-19
9.21019442e-20
6.609500743e-20
1.727570081e-20
5.070103953e-20
1.904480772e-19
1.818780768e-19
3.376632016e-20
1.254989542e-19
9.188080225e-20
1.078715058e-19
2.438437873e-20
1.022540723e-19
7.303304745e-20
1.866331407e-19
2.411557402e-20
2.845015882e-20
1.741828374e-19
2.333582243e-19
2.664443351e-19
1.131484209e-20
6.144507395e-20
3.786253468e-20
2.180117233e-20
2.184757118e-20
9.485423035e-20
3.3416333e-20
1.47411206e-19
4.160149679e-20
1.727852823e-19
8.544941952e-20
4.7661393e-20
4.593128236e-20
1.504564642e-20
1.562629697e-19
2.615168057e-20
8.936165001e-21
5.725389738e-20
2.674802101e-20
6.810844461e-20
1.197211395e-19
5.185840955e-20
1.00339707e-19
6.624038547e-20
1.770364168e-19
4.218291348e-20
5.293690125e-21
4.349382831e-20
1.359667723e-19
4.892058751e-20
4.579045077e-20
7.173983106e-20
2.224986845e-19
8.529995124e-20
2.779581734e-19
1.514110018e-19
1.515040331e-19
1.489470568e-19
1.035209888e-19
1.085557206e-19
1.286433526e-19
1.511045242e-19
2.977522162e-19
2.304372672e-20
3.380198329e-19
3.711604316e-20
5.53332859e-20
7.421325413e-20
1.382337402e-20
2.804949667e-20
3.129186203e-19
2.689321155e-19
2.098011161e-19
1.420908805e-19
1.323002449e-19
1.142997867e-20
3.287236012e-19
1.49433215e-20
2.004506542e-20
3.205957717e-19
2.008310133e-20
1.446812348e-19
6.123270333e-20
1.02469109e-19
7.472208938e-20
2.538457713e-20
2.603598535e-19
5.817046848e-20
4.359189255e-20
2.676736248e-20
2.981482566e-19
1.310115911e-19
7.797001095e-20
1.674991018e-19
7.974510801e-20
6.55826654e-20
1.932019744e-19
7.767875271e-20
2.046621974e-20
3.527007001e-20
4.592876528e-20
2.431598169e-20
1.166997735e-19
3.359900502e-20
8.439131794e-20
3.423291269e-21
2.769032947e-20
3.828090736e-20
3.108093755e-19
2.068924452e-20
1.645180059e-20
1.037870594e-19
9.859286302e-21
6.780961592e-20
3.832987008e-21
2.292581837e-19
5.189460369e-20
6.19311893e-21
2.58786924e-21
1.975150194e-19
1.961399926e-20
6.666358417e-21
1.514749582e-20
8.663273318e-22
1.184349641e-19
3.528897091e-20
3.756182797e-21
1.06055414e-19
8.449827261e-21
1.833546393e-19
1.266758968e-20
1.552587069e-19
9.65633468e-20
7.496103781e-20
4.871810007e-20
1.537850733e-20
1.948524538e-19
5.173199685e-20
3.799808233e-20
8.276348344e-20
7.268541046e-20
7.360506342e-20
1.441333239e-19
2.525618173e-19
2.673873191e-19
3.034502219e-19
2.392583463e-19
4.209501197e-20
2.593813048e-20
1.034458021e-19
7.64906542e-20
1.830474535e-19
1.2961042e-20
4.193125436e-20
3.25356028e-20
3.395594618e-20
2.877124829e-19
3.10364418e-19
4.570438201e-20
1.02918462e-19
2.163687826e-21
3.152544857e-20
4.343434942e-20
2.332251505e-19
1.578689436e-19
3.901824646e-20
3.386675619e-20
1.700131006e-19
3.424010602e-20
3.424605296e-19
3.175188623e-19
5.535053329e-20
1.151622369e-19
4.59622459e-20
7.025097074e-20
5.793859922e-20
1.544481132e-19
7.0033442e-21
1.181584317e-21
1.161376498e-20
1.023931673e-19
6.762361652e-20
1.38028993e-19
1.120171742e-19
7.719696109e-20
5.365415823e-20
9.974866867e-20
2.385223343e-20
1.247535787e-19
2.70869963e-20
1.395335378e-20
7.128616026e-20
6.469040308e-21
1.05610054e-19
3.87921887e-20
5.170801636e-19
1.57168134e-20
3.181666579e-19
1.988287901e-19
1.743973323e-19
6.443639575e-20
4.126236323e-20
2.168193571e-20
1.289447552e-19
5.707356957e-20
1.518729696e-19
6.643217123e-22
1.753025411e-20
3.195205086e-19
1.365554841e-19
1.457631795e-19
2.596535524e-20
2.404731161e-20
1.694662112e-20
1.021351062e-20
6.019978991e-20
1.93021631e-19
1.092807542e-19
1.780680674e-19
1.288384719e-21
6.954763803e-20
2.907012497e-20
1.035699979e-19
2.283822358e-20
1.130502841e-19
5.469236617e-20
7.043575682e-20
1.911915679e-20
1.031079387e-19
5.445704475e-19
3.603561325e-19
6.005787405e-20
1.789935704e-19
4.530447987e-20
2.122891893e-19
3.261233293e-20
8.012714443e-20
9.546792448e-20
4.365527057e-21
8.741551065e-20
2.441887348e-19
8.376688859e-20
4.127401449e-20
7.08621949e-20
5.283666619e-21
9.121380664e-20
9.913745994e-20
5.206900693e-20
1.981923001e-19
1.79929964e-19
1.797288211e-19
1.771074234e-19
1.968854034e-19
4.062849441e-20
7.368250236e-20
2.705500788e-20
5.333696147e-19
2.898725217e-19
8.056708533e-20
2.173580788e-19
2.804482217e-19
1.525185296e-19
3.671213697e-20
1.193517156e-19
3.3341576e-19
2.637514542e-20
9.895196863e-20
8.50902294e-20
2.64151889e-19
8.667721047e-20
6.199711995e-20
2.165329474e-19
1.456541709e-20
1.162308748e-19
9.87091645e-20
4.939804551e-20
3.484841329e-20
2.221242183e-20
8.113701789e-20
6.745616725e-20
7.531997825e-20
5.130535374e-20
1.44002605e-19
2.056512099e-19
3.681571309e-21
2.599843423e-19
7.502705609e-20
1.126537732e-19
2.121544664e-19
3.819527336e-19
3.389631661e-19
7.54684991e-20
3.842073845e-20
8.728112059e-20
1.730907219e-19
8.542128189e-20
3.501004541e-20
1.029459774e-19
2.793827941e-20
2.198998469e-20
1.065220479e-19
6.193482309e-20
1.155870785e-19
2.407317154e-19
2.514610588e-20
4.08136974e-20
4.976594129e-20
2.397534825e-20
3.449602356e-19
2.133849606e-20
1.585941201e-19
1.620864792e-20
5.267320886e-20
2.268713179e-20
7.974521138e-20
1.224250681e-19
4.403380471e-20
8.651178771e-20
4.445280671e-20
1.13361104e-19
1.308424197e-19
5.299186077e-20
6.402617213e-20
7.196660928e-20
2.415240563e-21
3.719859519e-20
9.30917307e-20
3.53018438e-21
2.394225187e-19
8.644874887e-20
2.041903526e-19
1.32334543e-19
3.680114611e-20
3.323606606e-20
8.073848517e-20
9.039778228e-19
8.445842687e-20
3.691702549e-21
3.699039948e-20
6.710555803e-20
1.897271128e-19
3.30931252e-20
6.556455138e-20
1.564704623e-20
6.983195652e-20
1.065711619e-19
1.336507866e-20
5.157863815e-20
1.566479614e-19
2.330716822e-19
4.549495385e-19
2.642665058e-20
2.597924395e-19
8.279608438e-20
1.138752565e-19
8.459827763e-20
1.177718352e-19
1.897610684e-19
2.487936479e-19
1.370312256e-20
2.02318308e-19
1.684624025e-19
1.754650237e-19
2.482283548e-20
3.632128339e-20
7.824582107e-20
3.670289816e-20
5.063618374e-20
1.357655742e-19
1.587819143e-21
8.580353631e-21
3.558595045e-20
4.61433324e-21
2.257449637e-19
1.629733642e-19
1.859426013e-19
1.629076652e-19
5.993912079e-20
1.472307892e-19
1.189704352e-19
4.883371741e-20
9.210748708e-20
9.615353817e-20
1.392757283e-19
6.428552634e-20
5.916628782e-20
3.875739143e-21
4.558597901e-20
7.113055653e-20
3.247189639e-20
6.070854239e-20
2.897269821e-20
2.874939931e-20
1.754173921e-19
9.452336704e-20
4.813115779e-20
9.650719633e-20
7.679308033e-20
2.443580646e-19
5.886472585e-20
1.369210841e-19
7.767799583e-20
2.26952282e-20
2.344666634e-21
1.381859503e-19
1.109642244e-19
2.16448499e-19
1.378281685e-19
1.137033717e-20
9.843011639e-20
5.675248053e-21
2.36720619e-20
3.81298236e-19
1.221095629e-19
5.420199229e-19
7.095119499e-20
4.370682376e-20
4.729523916e-20
7.664610028e-20
1.326112333e-19
1.471639761e-20
1.053400177e-21
5.888375243e-20
9.797172317e-20
1.290206401e-19
1.059192851e-20
5.566683491e-20
9.542805369e-20
6.596693314e-20
1.038417483e-19
8.107257794e-20
5.198601697e-20
2.643677353e-19
1.985514333e-19
1.531600897e-21
2.144568235e-19
1.574970225e-19
4.084332252e-20
6.53393249e-20
5.222910509e-20
4.926256995e-20
3.999933682e-19
2.51583042e-19
2.861799568e-20
9.138942238e-20
3.048579462e-19
7.144251562e-20
2.838468343e-19
2.215947286e-19
1.793869978e-20
8.73351541e-20
4.331688393e-20
5.505001041e-20
2.81222243e-20
1.401702514e-19
3.333193735e-19
1.755544321e-20
8.542028849e-20
9.473280465e-21
2.802200196e-19
8.966210176e-20
1.019538999e-19
2.141430701e-19
7.140783768e-20
2.012443379e-19
6.953036647e-21
1.317349519e-19
2.507601468e-19
5.145960321e-20
2.561494018e-20
5.922806744e-20
1.9046717e-19
4.513112054e-20
3.942882211e-21
1.184818971e-19
4.314606658e-20
1.463418933e-19
3.930125147e-21
2.64893637e-20
2.692020207e-19
2.449192627e-19
2.71076436e-20
2.918206928e-20
3.588542036e-20
3.770293201e-19
1.581526513e-19
6.969911938e-20
8.429477951e-20
1.256853235e-19
9.640023874e-20
1.333291974e-21
1.150089387e-20
1.003604618e-20
3.044087361e-20
3.847012668e-21
6.19350914e-20
1.809405207e-19
2.605370189e-19
1.432440085e-19
2.553861971e-19
2.286404083e-20
1.494000852e-19
1.273059857e-20
6.041170896e-20
6.078745579e-20
8.480483529e-20
4.302342772e-20
2.652952507e-19
1.45470162e-19
6.064805849e-20
5.328107519e-20
9.252359661e-20
2.029527878e-19
5.638513403e-20
1.289459907e-19
2.497657983e-21
4.58411308e-20
1.696783836e-21
1.44158297e-20
2.723016598e-19
1.615856903e-19
1.52293945e-19
8.837883851e-20
5.860998307e-20
1.628144955e-19
4.122520323e-20
2.138322374e-19
9.797704775e-20
1.457637292e-19
1.002314969e-19
2.227843895e-19
6.178938137e-20
9.160538855e-20
2.550704107e-19
6.522440609e-20
7.435774014e-20
1.145070532e-19
3.0229646e-20
2.325182959e-19
2.817131441e-19
1.566512223e-19
2.853718677e-20
5.35787274e-20
1.907055611e-19
4.075333467e-20
6.074141218e-20
4.434724892e-20
1.101261087e-19
6.746542979e-20
3.052278427e-20
3.780287876e-20
1.091847105e-19
1.856656689e-19
1.951027893e-19
7.933548679e-21
2.267123006e-19
1.757474449e-19
3.514783924e-20
4.117249696e-20
9.994119547e-21
5.864017974e-21
6.288875726e-20
1.153999603e-19
2.892097745e-19
8.380333954e-20
8.991923828e-20
1.247915229e-19
2.458357031e-19
1.965153665e-19
7.521304151e-21
3.566360348e-20
4.922505158e-21
2.326143767e-19
3.617044578e-20
2.638842288e-19
8.024265883e-20
1.269540567e-19
1.550495186e-19
1.19872881e-19
1.415970806e-19
7.367053455e-21
8.619793182e-20
1.178519847e-19
2.798497791e-20
3.592937412e-20
2.984083244e-20
2.017099818e-19
4.401300659e-19
8.155572538e-20
2.651928353e-20
2.840783906e-20
3.039296118e-20
2.235031648e-19
2.466363647e-20
1.021057312e-19
1.121440854e-19
7.562999853e-20
1.721723264e-19
2.210606504e-20
1.91661962e-19
7.691405283e-20
6.177055799e-20
1.304607139e-19
3.241895721e-19
5.16914886e-20
6.776226686e-20
1.036563238e-19
8.144426394e-20
7.75819688e-20
1.315865847e-20
8.688316358e-20
8.8957105e-20
5.991382037e-20
1.543882429e-19
7.247160907e-20
1.398132058e-20
1.441149961e-19
3.154217524e-20
1.056557397e-19
3.264207714e-19
5.843527969e-21
9.355287282e-20
4.442667149e-20
5.289941044e-20
1.46539258e-19
1.230420701e-20
3.2173215e-20
2.933560036e-20
1.278073826e-19
6.391277604e-20
2.209036641e-20
7.699560877e-20
7.808279976e-20
1.501163451e-19
4.283114032e-20
7.743567072e-20
6.908040732e-20
2.664841503e-20
7.097870617e-20
6.7592316e-19
1.698008029e-20
7.016666614e-20
4.040887728e-20
1.534241811e-19
1.382175492e-19
6.549647688e-20
3.161593847e-19
6.55384339e-20
1.047090338e-19
7.374504712e-20
3.258654858e-19
2.050079152e-19
3.178790162e-20
3.68321906e-20
2.650741187e-19
8.326325331e-20
5.349980153e-20
8.86274019e-20
1.230073628e-19
4.23829194e-20
8.476606915e-21
4.869879847e-20
1.211926174e-20
1.064341149e-19
7.153752841e-20
1.058790675e-20
1.058987432e-19
9.717432892e-21
8.874267237e-20
2.936989035e-20
2.461870786e-19
2.816304231e-19
1.518938072e-19
6.729457918e-21
1.149890909e-20
1.174688173e-19
1.157556133e-19
7.244508011e-20
2.296646171e-20
2.302017816e-19
1.884272897e-20
8.977717161e-20
3.454887756e-21
2.76645704e-20
3.048871543e-20
3.241247118e-19
1.017969076e-19
4.550371359e-20
1.02248455e-19
3.668943804e-20
8.103046806e-20
1.562171474e-19
1.300640643e-19
1.460051222e-20
2.074655826e-19
5.17055663e-21
3.087819048e-20
2.716520602e-19
1.249887248e-19
7.168514842e-20
2.214620546e-20
1.79048193e-19
1.329828118e-20
1.422293148e-19
9.31080908e-20
1.111667052e-19
4.023239552e-20
3.907479865e-19
8.976954905e-21
3.556212587e-20
2.872620483e-19
3.537566453e-19
5.014005311e-19
2.621925532e-20
2.069438066e-19
9.496875231e-20
3.408354742e-21
3.766828899e-19
1.059104391e-19
1.242911056e-19
3.709797054e-21
2.411670718e-20
9.317064087e-20
2.762251359e-20
2.615611073e-20
9.593653859e-20
8.976344162e-21
6.522731159e-21
1.307374837e-19
4.970286529e-21
7.576058251e-20
4.375398755e-20
1.334135265e-19
4.76050296e-20
2.002045422e-19
2.152885668e-19
3.29173933e-20
1.875685924e-20
1.682614781e-19
7.244063656e-20
4.434478082e-20
1.631563291e-19
1.718130775e-20
1.616411912e-19
7.220759054e-20
2.394393978e-22
7.473512135e-20
9.038867658e-20
2.988333352e-20
1.003189006e-19
1.407117639e-19
6.602972311e-20
1.144286528e-19
8.059899472e-20
1.280203252e-19
4.173010969e-19
3.332860151e-19
1.469097116e-19
4.097760163e-22
1.9174836e-19
3.892116683e-20
1.853254033e-20
1.907960775e-19
7.298859883e-20
6.377727594e-21
7.02010337e-20
1.781870136e-19
4.073635373e-21
1.043310986e-20
1.241469845e-19
6.111423912e-20
4.976048782e-19
7.013763946e-20
1.514977761e-19
1.249554474e-19
7.950190149e-20
5.566611435e-19
6.02426103e-21
7.545448111e-21
8.407393777e-21
2.796821817e-19
3.235500392e-19
3.530027244e-20
3.431658557e-19
6.833967231e-20
5.102912827e-20
1.529328342e-19
5.228020427e-21
1.8703403e-19
1.144532196e-19
5.295149785e-20
1.701945183e-19
1.341046086e-19
7.003565186e-20
2.717313496e-19
1.011004863e-19
1.182922812e-20
2.489949564e-19
2.607218059e-20
2.821899589e-20
6.817328016e-20
2.434642508e-19
1.375916881e-19
8.338039072e-20
3.375285353e-20
3.02737777e-20
1.363248375e-19
9.662128151e-20
1.867872517e-19
2.650534012e-19
1.569430339e-19
2.104599638e-20
2.769780839e-19
2.424245333e-20
1.786672359e-20
1.73227769e-19
2.769117245e-21
5.286502861e-20
9.053570229e-20
2.945925676e-20
1.592993857e-19
9.530277155e-21
7.364302323e-20
1.798822741e-20
2.269548338e-20
7.366065404e-21
6.844653052e-21
3.546696877e-19
1.977815216e-19
4.362934945e-20
1.226931386e-20
2.567644522e-20
1.644814421e-19
2.711862111e-20
2.847030161e-19
1.999937633e-19
4.30034561e-20
1.462495655e-19
1.723196806e-19
8.625411583e-20
5.115711595e-21
8.74464475e-20
6.450846716e-20
4.400941461e-20
1.35544617e-20
2.546707271e-20
1.038482858e-22
2.24836077e-19
4.366380452e-21
8.948458776e-20
1.118470483e-19
9.501843985e-22
2.688459899e-19
7.334820792e-20
3.587868759e-20
1.609178828e-19
9.596713876e-20
2.20927172e-19
9.361806884e-21
2.11174783e-19
8.187822492e-20
3.272344037e-21
4.004621122e-19
5.142505362e-20
4.488856584e-20
4.533258088e-20
1.265942989e-20
3.024841455e-19
4.452133818e-20
1.54158178e-19
1.74314275e-19
2.620345033e-19
4.913653518e-20
2.793612691e-19
3.69323218e-20
4.504515766e-20
3.618272272e-19
1.248751669e-19
1.176965563e-19
7.455459679e-20
4.386579162e-20
7.414595484e-20
2.552680909e-19
1.021776905e-20
1.518659165e-20
7.764761421e-20
2.410390509e-19
3.668866865e-20
3.781721773e-20
8.600629889e-20
7.643369041e-20
1.314496553e-20
1.777943923e-20
9.241115899e-19
4.557388464e-20
2.996578496e-21
1.22514862e-19
2.562998091e-20
5.733617835e-21
2.484111925e-19
6.527652455e-20
4.561293299e-20
1.138779792e-19
1.078135731e-20
1.395495434e-19
1.397584552e-19
7.289834236e-20
2.452769506e-20
9.956531256e-20
3.458179763e-19
1.269027265e-19
9.539394006e-20
1.796795588e-19
3.046472647e-19
1.592672415e-19
4.763676646e-20
2.809244929e-19
9.988804222e-20
2.988572691e-19
1.227181224e-19
9.416780936e-20
3.727892918e-20
9.730463537e-20
7.225673058e-20
5.116293734e-20
3.688312352e-20
6.746236277e-20
2.471782838e-19
1.548007241e-20
1.286928109e-19
2.523156319e-19
5.254953435e-20
2.513790916e-19
8.578444201e-20
1.957511822e-19
2.617573035e-20
1.657730138e-20
8.570052268e-20
4.541198632e-19
3.145866463e-20
1.527339908e-19
2.19709673e-19
2.383679995e-19
7.522950191e-20
2.172447833e-19
9.006252464e-21
1.852121179e-19
2.656622578e-19
8.516127575e-20
4.911210139e-20
1.206279309e-20
2.112555998e-20
1.714100729e-19
1.567304721e-19
1.067835068e-19
2.761845488e-20
4.790419578e-19
2.295250663e-19
1.205933469e-20
1.826307853e-19
1.120695681e-19
9.261673189e-21
8.561697555e-21
1.095822115e-20
1.120763385e-19
7.471180615e-20
3.504739732e-21
2.073348236e-19
7.607011623e-20
2.924898775e-19
4.900986222e-20
3.331474556e-20
3.540074574e-20
1.835449947e-19
1.020720272e-19
1.40325899e-19
1.559818935e-19
4.371915263e-20
9.579125462e-20
1.144965698e-19
1.191528012e-20
7.162317215e-21
2.338691981e-19
7.37216212e-20
8.099313587e-20
8.424105359e-20
2.194083554e-20
3.635895588e-21
2.441282225e-19
1.935133662e-19
2.811097963e-19
4.906469585e-20
1.311167705e-19
1.395935812e-20
2.572061296e-20
1.565843213e-19
6.599353459e-21
1.194140872e-20
1.779471668e-19
1.385359672e-20
4.674072371e-19
1.030990388e-19
1.118502295e-19
5.274800606e-20
2.452833016e-20
8.62181986e-20
1.768697638e-19
6.655716144e-20
5.105973055e-20
8.673132748e-20
7.653696334e-20
5.32626244e-20
1.312673146e-19
1.393758514e-20
3.195547128e-20
1.544502389e-19
3.824303227e-19
6.140295681e-20
2.427009875e-20
6.692658641e-20
3.568179483e-20
1.787988088e-19
4.469248738e-20
4.857185843e-20
1.099658408e-19
5.701970729e-20
8.573892951e-20
6.030222074e-20
2.53266602e-19
3.150018605e-20
5.225990082e-21
3.119706762e-19
1.359916666e-20
1.555066493e-20
7.945556653e-20
1.116705163e-19
8.668782576e-20
1.820099443e-19
1.079965747e-20
4.004298176e-21
4.284364627e-20
1.443484778e-19
1.41884883e-20
2.198446745e-19
6.883737533e-20
4.999778312e-20
5.450815493e-19
1.657217985e-20
1.297269002e-19
1.565538071e-19
8.408666966e-20
1.100927464e-21
2.993925405e-20
1.477287783e-19
1.666472615e-20
6.886581421e-20
3.730773638e-19
4.052293573e-20
6.442087272e-21
5.381608346e-20
2.222348758e-20
1.105979438e-20
3.309843062e-20
3.21341355e-19
4.808665866e-21
1.647232969e-19
1.172341093e-19
1.571385307e-19
8.044989884e-21
5.450877833e-21
5.859351738e-20
1.937062718e-20
1.64561307e-20
9.684138344e-20
7.792393651e-20
8.466673862e-20
1.135794018e-19
3.790914888e-20
6.940668468e-21
1.389986218e-19
5.081269577e-20
6.197730512e-20
3.640183016e-20
6.432912476e-21
2.870002377e-21
8.493076422e-19
4.173323949e-21
8.425994502e-20
3.211914912e-19
1.292170574e-19
4.211005637e-20
2.924553236e-19
5.038860825e-20
2.047583853e-19
2.389739735e-19
1.088048515e-19
6.521027854e-20
2.013247317e-19
6.394878766e-20
5.267781109e-20
1.233711578e-19
7.581381394e-20
4.694733513e-20
3.827489278e-20
2.959942349e-20
6.110886072e-20
4.832876091e-20
5.233113508e-20
1.315325108e-20