/*--------------------------------*- C++ -*----------------------------------*\
| =========                 |                                                 |
| \\      /  F ield         | OpenFOAM: The Open Source CFD Toolbox           |
|  \\    /   O peration     | Version:  v1706                                 |
|   \\  /    A nd           | Web:      www.OpenFOAM.com                      |
|    \\/     M anipulation  |                                                 |
\*---------------------------------------------------------------------------*/
FoamFile
{
    version     2.0;
    format      ascii;
    class       vectorField;
    location    "2.095e-05/lagrangian/dsmc";
    object      U;
}
// * * * * * * * * * * * * * * * * * * * * * * * * * * * * * * * * * * * * * //


99998
(
(154.575179 -317.0762964 428.5590684)
(1210.454843 1255.282389 303.2793014)
(-772.7970963 -1767.245367 -836.9484288)
(913.5205214 -1885.107628 -621.5999889)
(-1021.391233 -1313.268018 -1421.128381)
(1108.683149 -67.29945845 2228.596788)
(-60.71870918 1342.113836 -2174.944957)
(-2551.705317 1600.498865 -220.6735768)
(426.2784425 171.7247378 -4213.196914)
(1784.936279 -2532.44702 450.5149111)
(145.1206929 779.5119009 -1655.913016)
(-623.4583599 1967.036134 -227.4188499)
(-1294.380013 -261.3939176 -48.87115675)
(1544.101768 928.7686022 2002.547984)
(915.3537047 -576.9064552 182.5801695)
(-884.9534709 591.5590384 451.9393201)
(-1452.057357 1261.194238 2321.071717)
(-250.0489532 -743.65853 -253.6326425)
(853.1812038 -3138.030789 1232.398156)
(846.0771602 223.8508988 3044.005559)
(4085.249163 -958.7493266 1128.22747)
(1181.670965 -2705.065911 692.1486965)
(-1674.588311 111.5117095 -762.1206991)
(8.88171009 -506.2670217 1039.201885)
(2827.445359 2282.291785 420.1289332)
(1972.798867 1400.563329 1598.412573)
(-125.2127708 -366.337844 2231.163762)
(381.5677286 -1302.267642 1333.718841)
(-779.0442828 1219.065228 -1961.413102)
(1027.596946 -452.2317864 -3781.943712)
(-311.4519345 -870.4201531 321.8209726)
(-213.6293184 -92.42214633 -1018.397113)
(-473.4386535 2305.564003 -1687.676366)
(-210.8298701 934.7690199 3262.308764)
(307.3315564 -157.3662231 1364.13685)
(-642.4063134 634.2981275 2754.266549)
(-1016.271201 -752.1297566 838.7507152)
(-678.6315586 100.9219546 291.8949455)
(-783.1028054 266.7318403 -1022.852988)
(104.6278011 -875.9605959 -1006.213799)
(687.977453 2128.337064 -99.22642416)
(-1216.187716 2084.928252 1162.170759)
(-385.4417887 832.5099825 -386.4970194)
(-321.1047404 -1982.979626 559.7790828)
(-41.36262759 971.6875642 517.3540882)
(-1213.686242 684.2722226 -2801.831749)
(1312.982307 -1794.673069 1314.427513)
(1433.654132 -603.5361809 636.6002379)
(-1022.623584 -2465.809367 525.3399476)
(-531.7793151 -705.4444666 -1227.418959)
(-464.4675383 -1644.434634 1326.748739)
(-2199.570703 -2175.916174 904.1708248)
(-1690.323918 492.3608437 -1810.166105)
(-169.2873357 -954.2537787 1565.126363)
(-199.8373826 -1832.328501 1415.672725)
(-801.9737549 -2049.740521 -1645.838526)
(-2912.473666 1100.967909 932.280278)
(-2136.513168 2311.422158 528.2400478)
(-1163.57219 1174.728775 429.3347066)
(552.6213205 436.0715628 -525.5922247)
(-2048.626116 347.6779918 -723.6726599)
(-778.8700031 -1825.968841 -317.251928)
(-26.99241319 1053.65746 -936.426396)
(2531.919073 -1887.14902 -1703.816963)
(-2988.424388 1630.911288 -783.1090791)
(14.48437501 -233.9126508 586.2358605)
(-1570.258565 1280.361914 776.9640903)
(233.9119281 1829.03489 -1733.74201)
(-782.6075974 -272.2716383 -149.1103374)
(180.9392661 -1492.602762 -1294.955911)
(-94.99829875 -13.01088738 -190.9850679)
(-324.8020721 1839.881588 405.0292528)
(-278.2914141 -446.7341764 449.2505059)
(706.6726221 -854.5821327 829.1572135)
(-1368.78653 -402.4997398 2559.538034)
(715.1616914 -235.2815357 -42.53620673)
(-67.39527406 -2608.092102 -1242.774751)
(1383.612729 1956.980724 1255.929021)
(3351.1475 -1115.616124 -248.0455795)
(-677.9289747 1639.778707 -1003.751015)
(1362.977911 -1695.285882 -1991.022633)
(-1905.536771 -357.4804543 -551.1026887)
(-559.9121573 -154.5441505 1226.125138)
(-693.5949754 -1856.721691 -358.9344655)
(-1494.552964 76.85480544 -880.5865024)
(-580.0641465 154.1639774 1637.219728)
(1388.832214 -2091.256168 -1714.904115)
(2097.233929 1975.242436 1791.339325)
(-289.9573002 -834.446677 219.1623037)
(-165.1673609 3373.202419 -1653.926849)
(-3631.830357 384.1973072 -15.51199567)
(552.7997917 86.41044101 -2039.590463)
(-991.4087448 -170.7086466 -1041.057831)
(958.3967822 -915.4748001 -389.9137055)
(-2165.721096 1043.388616 2257.208709)
(1763.205801 49.15463955 -1352.715895)
(-2145.008426 2088.274423 -170.7729576)
(366.9632264 947.9290133 -566.7075847)
(1376.958748 -1564.317265 -2487.556701)
(405.1709687 -307.4657213 -611.7735938)
(2412.248422 -1338.366454 750.4176815)
(507.0127101 -2601.595384 -1330.463556)
(-1270.050126 1173.979722 1001.648271)
(414.060083 -1379.934929 -569.9545853)
(-1516.563933 -2088.22411 -2814.731842)
(-33.32476949 103.9557187 -823.4177459)
(-1876.421478 -2723.516242 601.9014666)
(1535.50897 -454.0710973 1898.714211)
(961.8063516 -394.5858237 -804.1210896)
(1656.354974 -675.4479288 -2678.474837)
(-3377.575308 429.9955244 -22.60024085)
(-286.9642048 -910.502449 259.6340025)
(1214.315049 1768.882376 296.3721816)
(1816.721061 -54.00268029 -1065.929896)
(-238.0981566 -1932.428916 -418.8948076)
(-496.8043973 -1826.696792 -1254.991118)
(1682.17869 1347.835417 688.850075)
(-129.0368965 821.0340869 -103.7907953)
(-1562.55454 2253.392743 -1237.612627)
(1644.309256 -1020.787687 -2071.775117)
(536.2884396 -2006.185181 1626.72501)
(-1980.331775 560.1024244 440.8930719)
(-1390.533778 1051.976741 -1738.9112)
(-54.34766135 -521.6094759 508.2960802)
(2703.227444 1222.129844 -1745.536643)
(-1073.062089 -662.4309367 970.8354841)
(1424.323577 -843.18299 1874.45363)
(-546.9671473 -637.4764372 -1223.32001)
(813.6440893 -523.5275633 -215.8817797)
(-1316.361699 -1766.529428 -2404.58937)
(-425.0472291 2967.93581 1063.904763)
(638.6305771 -1701.405149 1189.470893)
(3310.671855 -670.0355426 1225.964226)
(1800.341352 545.078325 90.91864121)
(839.1700002 -1432.923302 1445.504139)
(-681.1233297 -1983.005867 -899.6999763)
(-1209.368873 185.6010109 -1086.091465)
(1187.676236 2656.793175 -1505.808413)
(-99.13460996 702.8690702 -372.6089937)
(210.4343023 925.1555153 -191.4525775)
(-601.1408118 484.459188 -1157.049479)
(1257.15888 -1446.661622 692.2206426)
(662.6512476 -444.371812 310.9986926)
(577.7351343 -1554.789442 -235.4473065)
(-560.248751 -144.1467155 -2081.8847)
(-852.5969065 269.4813817 -197.3738643)
(-1555.406659 46.73375768 766.399256)
(1760.837117 -549.888033 1437.812046)
(1492.421706 -3166.269434 1748.789029)
(829.3286266 -3807.750177 1713.733769)
(475.6597477 -272.8406368 -1734.991154)
(-426.6603656 1455.672391 -2088.214383)
(1052.509538 -1595.325672 1030.749266)
(1313.562899 -1620.404045 -426.5705179)
(987.5501731 290.4550713 -413.5733667)
(-1212.798181 2560.971452 -1019.924904)
(288.8006165 190.2413949 -723.2476198)
(-433.8966275 1030.669395 -26.0662171)
(-850.7990839 643.4929108 543.6947661)
(542.8899952 725.3246942 130.7195766)
(-1283.246229 -633.0556575 433.1755293)
(-931.2930347 -681.7644255 38.62476869)
(-549.8063968 637.7342374 8.921263174)
(-890.0637668 2754.888943 -2550.075617)
(3623.341195 818.4246857 1315.367922)
(-386.9981808 -1862.141793 -1032.612484)
(-1302.518033 -291.6769105 -1190.597843)
(983.3956392 -396.9313176 -1373.832338)
(-815.693539 -53.82637379 -76.90165727)
(-722.4167232 -1897.081836 1422.00593)
(539.8169951 -185.5564749 651.3929999)
(234.2354342 -829.0494574 1403.60754)
(83.40295778 -2047.037696 1733.909244)
(-73.04189881 -747.0409194 129.4565143)
(555.2382239 1790.585865 330.6189401)
(1000.864103 -1049.568574 -227.3138459)
(169.1234073 282.2710198 -1881.741487)
(-1347.621952 1604.974974 -1082.928009)
(-329.1321282 1546.559817 308.3474473)
(41.47556563 1490.738638 1029.584223)
(1348.550755 -815.971979 -45.40416127)
(-565.8788993 -1598.629933 899.5130308)
(860.2636419 1582.801903 557.6703019)
(1928.109836 -804.7777799 1407.295728)
(764.0579696 2140.986726 211.3819439)
(200.0986571 -1289.376904 207.448214)
(1337.552877 -2312.161511 650.4597981)
(-1724.601976 240.6115379 -318.3892233)
(739.5268098 761.447056 -2366.27581)
(198.9390227 780.2830456 -1876.100767)
(609.6307556 -1326.90235 1422.435285)
(-189.300868 -1481.767898 1166.318132)
(-102.1071378 -2360.257465 2995.540923)
(962.1730507 901.0149977 -1419.962247)
(1603.055559 2738.953425 232.7413637)
(-579.4108025 160.3037181 2399.403281)
(1832.783626 -88.92078676 529.4370751)
(-65.22972131 1640.453611 409.1469399)
(666.1350761 19.42500809 978.0379881)
(304.1754247 -539.4022631 -1338.422943)
(-1039.805579 303.9234487 1872.453894)
(935.0090464 -278.9843599 -129.6707717)
(-731.3392748 1259.594323 1366.016188)
(-2415.179532 71.49361989 -2873.094374)
(-158.3239091 -693.8742311 -104.3254595)
(2269.319265 -698.7218043 -922.5714072)
(-632.8154222 242.4475087 -2196.858936)
(893.3677135 1142.620173 1131.897448)
(-1494.335492 -1682.052529 2155.410458)
(-441.6356095 471.4887925 1777.068847)
(634.5123586 1081.626759 -2164.446718)
(159.0894121 -969.1240697 273.0909382)
(-521.3629383 583.9021948 1987.497962)
(153.0628106 -3018.274928 -254.2096626)
(341.3272569 869.6984438 -1163.842708)
(-1170.692463 146.9218647 1804.199175)
(1589.218149 38.19757925 1267.840134)
(249.6255668 359.2404059 144.6677397)
(1071.483807 -155.3677526 -738.5812683)
(-577.5194475 -514.9814479 -980.0398096)
(904.6397322 1892.523968 788.3367989)
(803.9559437 -2029.807732 -1292.973828)
(-1629.167326 -1041.194806 -19.98149023)
(-889.5164367 576.4221597 -431.9400815)
(573.2684219 -3034.558801 -616.9225223)
(298.0646178 -910.6518086 -388.1443569)
(-1579.549765 1667.029512 1223.368604)
(-492.4107962 -241.6249264 81.28364512)
(-1893.11698 176.2221453 1107.111155)
(-3696.098968 145.946132 -704.0861705)
(-1623.648431 207.8425191 220.7114883)
(-1895.317088 -652.5548425 334.0819987)
(1825.983474 825.5195368 916.8423344)
(2360.863519 3006.236084 1171.068278)
(1307.603798 620.462629 102.3573032)
(1970.439071 473.1642844 1191.523877)
(-583.5686659 -408.7783259 333.8993891)
(837.9016048 -958.2826904 -1038.609905)
(-2193.559332 -3005.061194 1098.569512)
(-896.3797651 -1078.054258 -263.8368664)
(-2271.475126 88.47641999 1073.766092)
(752.0776329 2383.596847 1442.111839)
(1019.351275 -557.3963729 -1201.359129)
(1095.699719 1194.20097 -3429.89014)
(-953.3924369 132.0764435 2187.226323)
(57.03630086 -1306.045955 -266.3914059)
(-516.4181039 389.6546031 1740.965882)
(771.1814282 -256.2210922 -206.5871666)
(-544.4277866 613.4243945 2637.619748)
(1340.603584 -704.6083753 1698.899493)
(837.0793348 -255.9002988 546.7220937)
(-675.1988223 -2459.011603 -1049.994825)
(1617.151519 1033.079959 -830.1841024)
(-187.1046611 -1424.107549 2410.513008)
(-917.6313265 827.6922791 902.239612)
(1813.143264 1459.244085 1040.086441)
(650.5805703 214.346613 754.0534548)
(-1269.390739 -465.5189286 969.9704713)
(885.8183012 327.245596 -618.0589651)
(2443.885333 744.4849383 -1477.296866)
(1577.629618 2189.39502 -1891.620281)
(674.3343275 1894.673747 291.0622454)
(555.6638055 1701.688394 -46.50202288)
(2382.938877 2096.288046 514.3110183)
(797.8869788 567.1917786 587.8647825)
(-518.3195406 -1443.564146 804.8712563)
(345.4039082 1215.797971 -307.8398919)
(-700.7553056 -486.535069 -2255.734604)
(117.6855955 676.2834437 244.1730861)
(-807.4175832 2284.038013 -140.8815381)
(-1199.919374 333.9966752 2952.008565)
(-33.50238023 1639.556017 104.3115981)
(-1483.560193 144.7925366 1262.079271)
(-893.4531583 810.4689286 807.1434998)
(50.37695599 -1828.496438 761.366766)
(1445.505962 52.34516397 198.5700827)
(-352.4638349 2599.130852 451.8049427)
(832.7164816 -1667.03777 1355.049411)
(-22.7734898 1561.930958 422.5268636)
(938.875043 192.3777021 -452.6922358)
(1478.8564 -384.6868085 559.4400145)
(-1363.684787 -2067.317255 -132.7108181)
(2338.706285 -2269.062381 -87.55775023)
(-1179.392337 -2763.126033 -1075.15574)
(-2512.581933 2438.674851 1034.115651)
(-76.22138749 -421.5727841 -641.6362885)
(2224.352433 1323.983035 1986.82663)
(501.9292457 -1432.151646 -687.5506838)
(1142.349183 452.030199 1263.953822)
(-221.7577436 -2370.255374 3148.239055)
(-1460.031699 -622.7487244 -1147.096933)
(-717.6793213 -519.2384171 -656.1246283)
(-2.142772534 -953.9996631 3550.30726)
(268.635297 -302.5691012 166.4978574)
(1312.748145 -373.3094989 -625.6363269)
(-142.6110675 2747.366508 -33.65954325)
(4703.315909 -818.4075305 -1306.363658)
(-605.6751866 647.0033678 363.254317)
(-419.8167419 -371.5211846 -1166.056121)
(1238.606519 -1110.476391 1025.924752)
(908.0596081 -945.440596 -272.866739)
(579.6645811 702.5055093 -214.1074804)
(-2097.686737 474.9251388 -2519.158364)
(830.564624 -1764.049976 -735.9786541)
(-2492.413064 -1401.122989 1260.557617)
(616.344372 -12.83408699 1469.4885)
(1.999840058 264.0673113 3415.710983)
(-1451.138559 -268.5371762 526.4187583)
(1601.379678 212.3625833 379.0327468)
(-1042.154153 1797.062651 1558.397982)
(-1047.113354 -1621.281509 1707.903518)
(-2023.258801 227.238001 -118.0569596)
(2286.050739 956.3005428 -191.4080364)
(1491.487416 -826.7784258 -1548.195371)
(-2636.160773 -234.7482639 -894.8920229)
(-9.119619128 1694.128896 -1858.970493)
(1032.309055 1770.662108 -841.199973)
(1893.596977 -1710.430769 -1941.941934)
(1783.33169 -1503.264325 -2550.120668)
(2784.888033 -872.6317368 -2245.376716)
(162.9710249 1396.422056 1504.592352)
(3060.102041 -1024.941166 -1752.677834)
(1783.128329 1643.70064 -131.1449235)
(436.5122934 435.3635958 -1914.135868)
(898.7502576 531.9167956 -571.1562825)
(-835.2081959 -14.37497208 218.4483682)
(784.3339497 491.8530582 -2282.859443)
(1242.895587 1958.752918 -1326.844549)
(1037.709974 -1277.163649 2585.220238)
(-1728.173796 -1595.994887 769.0381611)
(-1176.34652 2357.609428 -2764.426431)
(1608.700116 -284.978376 451.5959043)
(-316.0612187 -171.5113893 -867.1600075)
(863.309143 494.2791886 394.9319088)
(337.2948434 -2456.960824 1103.318864)
(2066.53681 -558.100067 -85.29589516)
(-385.3610016 204.2016189 -1192.676474)
(715.330028 366.2428235 1219.587687)
(-478.2683076 -1333.613227 1539.715863)
(1838.619587 -1069.285028 -1466.676913)
(-414.1063036 -328.8023141 -20.76016936)
(1457.674245 687.4029123 741.3742159)
(-763.7780633 -696.6105748 -1380.144177)
(-1119.224943 -2078.880683 -3166.010279)
(-451.5627472 -42.45418933 -3504.170326)
(987.388985 1691.970999 -993.0531906)
(864.5025489 -1079.776514 1179.56743)
(475.1287231 -62.64527453 740.9974802)
(-1431.859646 386.1484879 72.31139185)
(153.4369239 395.0513178 48.28216557)
(578.0329901 -2471.53272 -74.01930703)
(-816.3356689 156.2016965 2767.227743)
(-617.4025433 1871.725069 -595.817415)
(1939.651099 1330.067283 -2393.475469)
(-1626.06164 663.6172222 -855.8098682)
(-1229.178673 572.422415 -29.94724931)
(-165.4033202 721.7121855 -13.5295545)
(392.7722972 -1296.674728 583.4325381)
(197.9753192 934.2905344 231.906429)
(499.4164246 1846.406608 -1881.01976)
(1981.254401 631.1642802 -3623.341743)
(-960.579405 -2099.61906 -726.6124265)
(-51.4287992 1267.05545 -1012.363038)
(1710.959982 -990.3211096 -493.923998)
(707.1542435 -144.9922958 -1254.680706)
(-186.7445271 3208.82701 -1160.623753)
(805.6754439 389.9499754 915.7008142)
(371.6067313 -1321.03004 -1267.707169)
(-375.6100376 730.7212317 -644.7492189)
(517.8064266 -996.6524842 3115.659174)
(-1652.169678 -864.5717931 -2448.198547)
(853.9058384 1367.132543 3535.404959)
(-1108.759671 1000.786666 2787.636014)
(251.1020855 -1083.32348 860.2628289)
(-473.368472 691.2596183 94.47898583)
(-3740.067452 999.9841019 586.2395978)
(1534.438614 -1336.237263 -2532.015043)
(1799.695736 283.6662041 -735.0648872)
(1240.278887 -1186.250265 1601.544756)
(-267.5991267 1023.950316 1302.054181)
(-2587.930983 -2028.582655 -3504.554976)
(61.74039421 -857.8989748 -2467.793698)
(1178.497617 -234.281701 599.9343861)
(2023.867707 -506.4394552 -692.9468865)
(476.5806792 -4171.218045 1465.151238)
(-41.70504409 -1044.004874 1059.335095)
(1722.110033 376.1743823 3205.470301)
(-476.7405186 -2718.974247 449.8542437)
(1241.55912 3120.300356 -418.8347169)
(104.2067531 -198.2999528 526.403356)
(931.1615652 2645.256224 -1134.750485)
(942.8700606 -1404.517121 1898.222426)
(33.44825021 690.0256133 -1491.230715)
(-99.68915412 60.31418623 729.3945601)
(654.5965988 710.663586 -2029.977716)
(-2572.367533 370.7366702 -2343.178388)
(-1074.028996 -139.8011004 -618.4618352)
(2338.335097 -1373.008161 3028.184384)
(-949.3773898 -2550.960093 15.43370792)
(-383.3287019 692.8438021 1198.907325)
(2218.807358 -296.6649591 1311.875093)
(2783.443311 313.9019945 1357.444462)
(1315.757406 -1155.147055 723.9030781)
(260.9398452 -740.3436084 850.3843187)
(-2783.959775 -101.6369206 -6.217543286)
(1679.826365 1696.483231 2004.027367)
(-1332.531339 -291.470116 2681.024283)
(261.1153518 975.6205983 -257.5156978)
(-1190.470875 -693.2248442 -821.2908926)
(1739.48543 -1093.680541 -150.2295074)
(624.5735242 336.346972 1035.317334)
(-1724.301136 -2358.761528 -1805.188496)
(-293.5516741 1086.801339 352.3758972)
(-1593.621557 -680.0633619 -2757.900536)
(-1902.18272 -479.724184 -413.3903579)
(780.502144 -776.6309081 2515.640447)
(2930.892513 2238.732739 -3013.789555)
(919.2644385 297.2405486 52.80258224)
(2799.336716 376.808661 1571.391322)
(907.8432605 745.6293121 570.1087641)
(1489.15094 3232.722505 382.8145558)
(748.6773484 -753.8309964 -1643.343978)
(661.815125 -1813.077545 1822.694851)
(72.83232415 -1707.320838 -2212.906438)
(-840.4460097 622.7877493 -2949.038209)
(70.92800355 547.1242329 -2783.432437)
(-95.85911241 330.9743886 832.6304355)
(-1323.516793 749.3422739 -36.7115516)
(-1817.395321 -63.91270635 -110.2570439)
(737.2134888 3473.854774 1088.479601)
(1255.675469 629.4348657 490.3093073)
(1903.539701 998.2869972 847.837908)
(2515.506135 186.1515491 -1563.432286)
(-655.9636004 1867.301258 3108.051477)
(-1753.987819 1801.730459 794.2767969)
(-876.2880117 -1575.288674 -1090.586393)
(-455.0471123 -573.4724369 -231.5288858)
(-3913.485634 -104.2160742 -1127.624897)
(1792.818169 -802.8246013 -2163.158511)
(-2102.854259 424.7440756 1192.604603)
(2657.833718 -1382.047403 -503.2786719)
(1628.860917 1935.824093 25.18729357)
(1322.789036 -1690.746723 -94.07891002)
(-1015.23972 -1926.780025 -1691.572841)
(-359.4355442 126.3390938 -2030.319833)
(-981.5413652 -1851.187106 -604.6450193)
(-577.6875766 -2066.718712 -1093.730509)
(-2363.452395 -1713.83179 -531.7894884)
(-2218.522693 2226.927215 -2849.613999)
(-3211.834593 317.1036318 1497.671484)
(996.8946102 414.9285148 288.4609603)
(559.4849406 -162.56491 -1104.859718)
(-38.00561295 1940.765668 100.9997928)
(-1108.29034 1884.743803 -1894.225323)
(-932.1806088 1102.810816 -3831.750868)
(1264.323828 1097.250023 -73.55563539)
(-2057.004278 679.1433791 1652.701745)
(-875.7147394 -157.7476888 -262.668016)
(-19.32924985 640.2865885 -2055.509955)
(1440.601485 1065.943542 -1808.149034)
(1540.546297 -220.4290046 1509.775064)
(1510.741603 -1262.264091 -2115.018926)
(-3334.619173 1819.320072 -2319.242055)
(-343.378536 323.7703217 -327.8856796)
(-1459.099724 346.0426769 -424.3212677)
(753.6173856 -55.89801114 -2182.509579)
(-1106.232907 -623.8890529 1387.345333)
(1416.6134 550.5876899 390.3617058)
(1185.924838 -810.6389578 535.037489)
(477.9256126 -1759.503216 -2914.355051)
(-1866.627025 -797.6015369 1486.458106)
(-1472.567442 -2466.298834 1630.629473)
(1084.87171 323.5596659 -1078.105709)
(-350.0554843 678.8474168 738.5778122)
(-815.011697 -479.345453 -1288.660625)
(-448.0971827 873.7409347 966.8846699)
(1450.454419 -1035.84376 -234.3532168)
(-713.7783083 745.3985021 68.2665128)
(-881.1596271 335.1739102 34.0739431)
(-1744.302399 -2233.334234 -2051.222352)
(-1033.448447 -95.18596005 806.928906)
(-175.2126253 1985.020633 246.5481307)
(-822.5762201 178.2754709 284.6687894)
(3424.568894 494.8862919 -980.9965429)
(-1390.935551 3118.104854 400.1528551)
(-922.4954241 1527.886554 415.6233653)
(408.2263779 225.5319814 455.3531085)
(1092.039975 537.6624611 2005.816063)
(986.8361498 -2356.945601 -1395.496317)
(-1103.352712 526.2954319 -2057.206502)
(2284.557573 2086.505965 -468.2531678)
(826.016742 -341.3272595 -588.1993636)
(1204.173526 3195.935149 1464.668117)
(-1505.282169 666.3265031 208.9624488)
(2094.335856 216.5149832 -1341.238725)
(2234.511781 -1137.579624 -483.467331)
(-1633.67103 -593.7908236 -1218.504615)
(-301.3031169 -339.9092432 -1185.092678)
(1356.890105 -1730.338043 860.016858)
(-745.8471644 -694.5346619 -2670.452471)
(1423.610064 -265.672294 2343.746691)
(-588.3337373 4069.316363 553.2270978)
(254.905894 2214.90155 1437.894329)
(-3003.421385 -533.9698697 1299.73727)
(-776.55548 -1879.587375 2254.089925)
(2017.247069 308.0675542 -2793.269814)
(-1118.524617 -2001.459863 -739.0409887)
(1910.315266 -166.5094468 -307.9427236)
(-1134.770698 886.1736791 2879.807477)
(193.8193201 2593.001577 -71.29341522)
(1433.962099 612.550469 -2518.547918)
(82.89037722 531.7762213 243.8724006)
(-1652.543168 1413.00132 1194.783352)
(1664.767344 2834.050324 309.0573858)
(1487.981995 1210.756094 -763.5240243)
(1133.457091 -1211.894046 -126.3600381)
(70.510099 2256.212971 -225.0525115)
(1582.180369 840.8345117 150.9551491)
(-181.874958 -502.5339124 -241.2599612)
(-144.9915335 1737.336399 49.84419785)
(129.6803665 -1349.486948 -101.3637336)
(1196.508156 -1576.480606 -1093.313612)
(527.1118954 97.15782992 10.88195311)
(161.2996146 -2183.082223 -1912.71764)
(-1869.60602 387.615997 -301.899352)
(1157.097459 208.4357785 -1701.440043)
(-594.6249817 204.5920922 121.435577)
(881.4985547 81.64120067 1199.535689)
(1643.352292 -465.6703478 34.41435729)
(-323.123101 -237.1432666 1101.073104)
(151.5033577 2182.502002 -107.9874265)
(-1935.716936 -617.1688192 720.4932264)
(-452.3796796 659.6450896 -1485.462434)
(2727.065822 2910.121703 -897.9823391)
(1309.400498 -2198.825303 1285.836558)
(348.4077404 639.6578055 175.638691)
(551.390284 246.1965112 -837.4709669)
(1489.81224 132.7636745 -536.7171379)
(-1700.446223 -1438.234903 213.4016122)
(294.000013 1337.579957 1025.455525)
(-2003.749317 -2107.250822 -1594.961989)
(1293.083549 -795.2233565 -1409.360025)
(-281.7703639 2276.305847 3879.817801)
(-1298.400401 1518.040579 -1566.643363)
(-31.17163579 208.699255 -98.09429515)
(-648.142967 1761.847428 -653.4000761)
(3461.040295 -479.2661085 142.346346)
(-259.943624 -2371.626519 293.789819)
(1313.06558 821.419214 1311.46975)
(-1304.320318 -1867.794092 -898.8407498)
(-1624.185359 565.5483668 1180.446291)
(-757.2041115 1749.106629 2287.507973)
(-3045.500008 2097.558512 1307.674248)
(2729.405495 -148.1575763 -1762.921218)
(-861.1981406 533.8482225 -1931.576408)
(351.0047097 1101.794021 -2002.007448)
(-641.9868356 -234.1365118 -1186.389952)
(-1163.501149 -1271.011147 148.9577437)
(2944.035301 -139.4190399 1017.495038)
(924.9548589 -2890.155232 1710.716982)
(2910.826159 -1284.150847 -1607.456647)
(103.6475598 -12.28270613 452.5463882)
(666.5574485 679.4233276 322.1254403)
(468.5709037 -216.5025962 922.4147947)
(-112.0334349 -291.7879445 1842.086074)
(-1266.41385 -1257.119529 1259.610982)
(947.4019216 140.6457909 1188.050909)
(313.9254764 837.8082834 365.8945473)
(496.4628264 -298.5399992 2029.211117)
(-76.84008958 -320.5608283 -3628.920883)
(-487.7923505 -361.1807415 1567.496374)
(-448.2902922 906.9051681 -2348.109007)
(1468.479625 -1613.31243 -1799.155726)
(2057.432929 2362.171886 -340.8040288)
(1672.668427 867.1616508 -595.8008096)
(-668.7942834 -724.11372 2328.702311)
(-272.4979274 2454.884748 -939.9115598)
(-87.42529646 -1115.860186 1331.469032)
(1001.820211 -1466.198912 108.8852898)
(-511.537999 1580.582827 -988.1687192)
(-2416.622797 1792.825331 -1018.006339)
(592.3344921 -369.7395671 491.2070983)
(2114.971004 102.0610994 1716.386103)
(-1325.740729 857.5309572 1256.369073)
(761.9260818 1364.704744 399.8310246)
(771.4991694 -392.0521393 366.1315277)
(-1978.013062 1078.709649 -1562.94226)
(1494.796178 -695.7875181 85.39046941)
(1147.67991 1519.099925 1323.335257)
(-2609.333166 -1723.174842 -504.7185121)
(-1423.328561 -1231.383336 76.2185827)
(1844.631948 561.492063 -960.5169996)
(-1012.55251 -2744.346813 1018.053099)
(1317.992124 -193.1514162 963.381508)
(-591.8827502 321.5846287 -2225.430647)
(-320.0073032 3966.92627 683.5166384)
(-2414.548542 -233.5388854 1023.738132)
(-1274.778953 -71.42243759 -212.4306687)
(-3373.798077 80.37328452 -2161.956814)
(562.5973296 95.50675462 3557.515512)
(-109.382662 1208.083498 -429.4141697)
(-1085.513424 451.5229731 -948.9683293)
(623.3360145 -1749.107007 1991.504886)
(179.0764036 19.74453347 -376.1289695)
(1516.469104 815.1690111 1718.150431)
(-335.6646092 1131.250273 1343.491568)
(798.6927521 -227.1504689 -1030.394741)
(-1559.898302 -846.0621315 107.9105504)
(896.8311654 -1836.329729 17.21058664)
(-621.1336365 2136.497268 1712.666191)
(497.8164461 1535.683919 -495.9409006)
(-371.8085135 -768.487645 1470.317253)
(741.3240426 -1726.758983 1320.691027)
(-740.385584 -1117.526269 711.8692965)
(426.8343962 -445.7121278 1372.910637)
(-1121.806478 -164.4153588 107.3732866)
(-863.0700044 -728.8697532 -788.3278547)
(-635.0614963 368.300164 135.6980453)
(-63.55639462 2293.352182 -517.4545134)
(727.9423756 -1723.086614 -2572.119627)
(-2145.344397 -1140.037388 76.39935982)
(932.4350982 1649.498109 -1517.574509)
(-299.8356802 60.30481863 1539.113684)
(322.241742 -1234.05462 -988.5170239)
(-78.52803433 -2114.701296 3030.516882)
(-1811.515592 1924.361169 -475.3803612)
(1619.613304 1550.039119 -3514.701916)
(2781.175705 -2635.21858 62.65321727)
(929.9606091 -202.848556 -1715.139281)
(1447.515576 116.6567878 -1544.816108)
(499.216868 -405.0327779 647.580519)
(2361.890558 579.294542 1208.25051)
(-157.3988844 771.5186894 -1871.594498)
(-1709.672672 316.0331752 60.77427583)
(-257.8716335 1701.779237 -810.0576283)
(1138.909988 -686.6265784 -959.9127422)
(-320.6986882 -1305.901284 2050.473057)
(2341.574609 447.2328657 -1361.074261)
(1217.034115 2008.148452 245.1675177)
(2140.743857 -39.46716677 -1232.736495)
(1099.47548 1111.145067 771.4394933)
(743.3044562 -630.0731104 321.640142)
(-2849.176056 52.20249883 -313.1895078)
(-665.699041 1591.893534 1888.927344)
(281.3742228 -394.9738563 -585.0683198)
(433.921933 1240.001763 -54.27811237)
(-389.124787 246.0284497 -167.2906747)
(-319.7289539 -524.5101695 926.3702024)
(-621.2066586 2751.403936 1229.291814)
(-1763.653431 -98.63422456 -1240.928751)
(2482.419207 1606.473281 -1891.285389)
(859.6642791 228.8308556 1191.867308)
(1087.112169 -1025.189161 2442.398305)
(-700.5263207 842.8179324 -750.5446529)
(-1125.094322 -1202.07387 -187.4638523)
(398.1195436 402.1274621 2582.302078)
(-1162.857764 4339.547336 -2367.73825)
(1529.145581 1846.158918 -656.9478241)
(-2609.809403 -1600.866436 -2989.986362)
(989.170918 2035.767301 94.09583371)
(2392.69903 -745.6148613 64.13593409)
(-44.08042238 -2207.373773 -1013.513303)
(-638.2073157 -1321.174814 793.1423251)
(-250.5328189 -27.30905872 2231.88978)
(2876.954705 -2664.817201 -68.52661281)
(-513.3319691 -1772.488872 -3187.863685)
(39.59040595 -1297.349205 608.939675)
(-2631.745667 589.6573061 -1775.668192)
(-290.3433026 2594.255499 309.942554)
(688.0025476 131.2573496 323.0554035)
(-2967.96836 -982.9344424 -26.7994762)
(-250.2053422 466.0819406 184.4298043)
(1087.852367 -1210.668385 83.04714349)
(-1287.745416 -270.6107332 -35.31483837)
(1300.884713 -929.2362167 -459.6815817)
(3471.621885 2097.358474 -3159.033523)
(-1176.710615 -142.7704171 -819.7947705)
(2588.043859 -344.6907704 -541.7470371)
(-517.9979715 373.3243822 1130.956091)
(887.3118865 633.7008618 -63.55766821)
(1841.709992 -2052.103997 1811.351152)
(-1421.802911 816.2737688 -1311.237458)
(667.6608541 849.2070766 1743.334429)
(-2199.46954 -1272.713923 -1325.987366)
(888.9071353 -373.6039701 97.86483258)
(-451.6083163 2665.443616 1467.035201)
(1297.216549 885.1235012 636.7655084)
(725.9366229 -1256.306197 -4305.782399)
(792.2174459 1492.679644 -350.7130918)
(-994.4278964 -1228.321366 1163.994509)
(-1991.608898 -707.0401608 -2747.01537)
(437.7901558 -984.8001343 -146.1094459)
(1488.515162 537.2423604 -658.6508797)
(429.0824062 324.6941272 -923.1803096)
(1082.60335 -403.3049788 475.7118104)
(179.8603572 586.8165189 107.3928319)
(709.4012148 2053.10016 -230.4564748)
(-1226.866688 414.7745691 -446.0374506)
(-761.9768194 -348.866003 -661.4512555)
(-754.0803562 933.0577777 -2179.457836)
(-2013.630144 -1301.939122 917.573972)
(-397.5876914 -955.9978136 -1025.516661)
(-1250.448706 -2204.340983 -394.1500833)
(927.7497924 -2530.826551 -925.9345832)
(1284.376449 1115.923702 1085.117459)
(310.1767012 1391.414081 -2339.792076)
(-1222.863673 -583.4219871 -1859.063286)
(3128.661233 -1364.779349 176.9371053)
(-2211.542659 -951.5454244 -892.6220215)
(-456.2172476 -281.5557816 1571.668943)
(-952.7135371 -2472.034022 3702.273739)
(-202.6377228 -1075.981109 -2646.383807)
(1074.073622 -1724.036282 -1325.949217)
(376.2949596 -3690.381484 -3834.981882)
(-964.1015076 1149.877204 -258.3570754)
(87.38732675 -45.24085538 -819.9764926)
(-918.8949622 1221.253227 -40.91731888)
(3632.885455 316.5325248 46.27864945)
(-1304.729129 -430.2359365 236.1929048)
(-760.8394752 -1098.815455 1664.916975)
(538.4522548 -1614.618516 -766.7505024)
(-249.0509653 1112.389521 -1834.715482)
(322.7162552 -577.6344781 3308.869519)
(356.6416548 -425.8531784 221.384917)
(-249.3828687 1918.918756 -1186.702987)
(911.0079592 -232.2496688 95.43760162)
(1783.561707 -964.5752648 -1712.157887)
(872.0965095 1835.793498 -1953.098634)
(-1198.586893 1104.083361 -2738.181174)
(-993.2486012 -1986.661537 -683.614895)
(-915.8752959 -314.9912559 897.1671338)
(95.14222219 -1648.615743 1400.793786)
(1221.104447 -500.6205923 2166.858698)
(304.7092965 907.8029501 -308.8767275)
(595.5612701 -2554.175852 -1173.4047)
(2472.990169 207.0502301 -1150.613591)
(-208.055285 1249.743416 -2410.198944)
(-468.4037798 -1427.188201 556.2228808)
(-257.1188411 -1552.801165 1649.076788)
(737.0467751 -714.8464175 -1876.134975)
(-339.0076553 84.68676742 2146.805409)
(966.3574966 266.6478039 -808.4188372)
(389.5510612 319.6758072 -607.7557803)
(-489.5915961 -2381.194868 1200.928018)
(-2023.176493 592.4853774 989.7558672)