/*--------------------------------*- C++ -*----------------------------------*\
| =========                 |                                                 |
| \\      /  F ield         | OpenFOAM: The Open Source CFD Toolbox           |
|  \\    /   O peration     | Version:  v1706                                 |
|   \\  /    A nd           | Web:      www.OpenFOAM.com                      |
|    \\/     M anipulation  |                                                 |
\*---------------------------------------------------------------------------*/
FoamFile
{
    version     2.0;
    format      ascii;
    class       volScalarField;
    location    "0.29";
    object      dsmcRhoNMean_Ar;
}
// * * * * * * * * * * * * * * * * * * * * * * * * * * * * * * * * * * * * * //

dimensions      [0 -3 0 0 0 0 0];


internalField   nonuniform List<scalar> 
1000
(
97.19949153
97.09512712
97.2920339
97.21588983
97.42898305
97.36995763
97.29538136
97.41779661
97.35902542
97.45894068
97.60372881
97.51525424
97.41847458
97.29580508
97.415
97.73254237
97.4270339
97.43228814
97.33995763
97.41940678
97.53601695
97.49211864
97.36288136
97.35851695
97.34292373
97.3740678
97.26381356
97.38241525
97.49461864
97.46614407
97.26639831
97.41838983
97.42720339
97.49127119
97.47483051
97.34411017
97.48461864
97.23690678
97.3784322
97.29483051
97.42368644
97.39360169
97.27152542
97.37411017
97.2820339
97.28427966
97.35059322
97.25995763
97.26809322
97.42139831
97.27508475
97.32360169
97.15262712
97.3395339
97.35084746
97.36237288
97.21245763
97.11228814
97.11330508
97.05669492
97.15940678
97.2459322
97.08741525
97.35059322
97.10118644
97.1815678
97.47139831
97.39254237
97.1754661
97.15707627
97.16080508
97.06457627
97.08080508
97.08385593
96.88559322
97.01440678
97.15830508
97.39838983
97.05050847
97.09254237
97.19911017
97.21271186
97.26105932
97.08550847
96.93851695
97.06470339
97.1270339
97.10033898
96.96258475
97.02169492
97.04491525
97.05707627
97.16398305
97.14436441
96.80135593
96.84097458
97.0259322
96.9245339
96.84597458
97.03436441
96.98152542
97.01584746
96.97279661
96.93745763
97.1795339
97.02313559
96.9975
97.01635593
96.92995763
97.04805085
97.23457627
97.26228814
97.15211864
97.1770339
97.08745763
96.94728814
96.96279661
97.18127119
97.0065678
96.95830508
96.9240678
96.99021186
97.06838983
97.20978814
97.11347458
97.08733051
97.02771186
96.98487288
96.97016949
97.09792373
97.08224576
97.07317797
96.95385593
96.9934322
97.06788136
96.93542373
96.8715678
97.27758475
97.02783898
96.99601695
97.1734322
97.19533898
97.14822034
97.07817797
97.06254237
97.09724576
97.07483051
97.08631356
97.05538136
97.12813559
97.08241525
97.10711864
97.04567797
97.11635593
97.15580508
97.31025424
97.04694915
96.99775424
96.95427966
97.24182203
97.30521186
97.45423729
97.07144068
97.08576271
97.27521186
97.27940678
97.26898305
97.28381356
97.22449153
97.03826271
97.20110169
97.06788136
97.22084746
97.28457627
96.92978814
97.26076271
97.40194915
97.24186441
97.16012712
97.03372881
97.25351695
97.36385593
97.29148305
97.32542373
97.22809322
97.32347458
97.32190678
97.29572034
97.17677966
97.16423729
97.38220339
97.47122881
97.23559322
97.32923729
97.0759322
97.37682203
97.39228814
97.4434322
97.4540678
97.21088983
97.41966102
97.28148305
97.26483051
97.30766949
97.43855932
97.33313559
97.2740678
97.40487288
97.44440678
97.44614407
97.52072034
97.5295339
97.56788136
97.18309322
97.47478814
97.40822034
97.38165254
97.43580508
97.55415254
97.58152542
97.37872881
97.11724576
97.38995763
97.26254237
97.23610169
97.11885593
97.50864407
97.49067797
97.56411017
97.5484322
97.48148305
97.67538136
97.47538136
97.59237288
97.30652542
97.36097458
97.40012712
97.31966102
97.17889831
97.3565678
97.35830508
97.42470339
97.37944915
97.34457627
97.19283898
97.21834746
97.23851695
97.28461864
97.32313559
97.18016949
97.28618644
97.40521186
97.38177966
97.34932203
97.27525424
97.43
97.31974576
97.20161017
97.03538136
97.06271186
96.94436441
97.05826271
97.04779661
97.19491525
97.26063559
97.07322034
97.25813559
97.28597458
97.1859322
97.06652542
97.00538136
97.06724576
97.12190678
97.10576271
97.13029661
97.17076271
97.15127119
97.21224576
97.13762712
97.17665254
97.17076271
97.16491525
97.18572034
97.08690678
96.96516949
96.99618644
97.05512712
97.04021186
97.11927966
97.10063559
97.08135593
97.09677966
97.12088983
96.85508475
96.98635593
97.04898305
96.94309322
96.95436441
96.92902542
96.95088983
97.02563559
96.88788136
96.9245339
97.02
96.93733051
96.97512712
96.87978814
96.93588983
97.14957627
97.24576271
97.09326271
97.12605932
97.02050847
97.06788136
96.9129661
96.88771186
96.95474576
97.18974576
97.00978814
97.01461864
97.03677966
96.99038136
96.99860169
97.00716102
97.07411017
96.9615678
97.05338983
97.07436441
96.89940678
97.09076271
97.11881356
97.10830508
97.02538136
97.01872881
97.05631356
96.98521186
97.14983051
97.09326271
97.02427966
97.04182203
97.12495763
97.29368644
97.14788136
96.93084746
97.00135593
96.9909322
97.14618644
97.03516949
97.06940678
97.01470339
97.22635593
97.15699153
97.27322034
97.14944915
97.23466102
97.18334746
97.03580508
96.97932203
97.22538136
97.14076271
97.30317797
97.23317797
97.20309322
97.08436441
97.15940678
97.12995763
97.16694915
97.28419492
97.15682203
97.35927966
97.15224576
97.29042373
97.30559322
97.21313559
97.24737288
97.31283898
97.27110169
97.31919492
97.24961864
97.14737288
97.25525424
97.27822034
97.17766949
97.34368644
97.47741525
97.26516949
97.28338983
97.20495763
97.2654661
97.13368644
97.34864407
97.30055085
97.34216102
97.30495763
97.14275424
97.16927966
97.23016949
97.15618644
97.29639831
97.36360169
97.29275424
97.35677966
97.28944915
97.20372881
97.2515678
97.10355932
97.16190678
97.25072034
97.3965678
97.44483051
97.73466102
97.60330508
97.63889831
97.53834746
97.44004237
97.43690678
97.44915254
97.50059322
97.56033898
97.43199153
97.26927966
97.23635593
97.41470339
97.33618644
97.44237288
97.47440678
97.4104661
97.50923729
97.14699153
97.43957627
97.57029661
97.43025424
97.42042373
97.34372881
97.4365678
97.49932203
97.28432203
97.25
97.36224576
97.54228814
97.26894068
97.22347458
97.27966102
97.39686441
97.27826271
97.29114407
97.19220339
97.31432203
97.45644068
97.26165254
97.31644068
97.31902542
97.35372881
97.51690678
97.44644068
97.31885593
97.45144068
97.21207627
97.14275424
97.08372881
97.26033898
97.14050847
97.06224576
97.18055085
97.08627119
97.18902542
97.17080508
97.31826271
97.1570339
97.32847458
97.05754237
97.04118644
97.00398305
96.98398305
97.06720339
97.14292373
97.10707627
97.01690678
97.22161017
97.02305085
97.21622881
97.26432203
97.15737288
97.07330508
97.10538136
97.14610169
96.93868644
96.90271186
97.15207627
97.01877119
97.05114407
96.9159322
97.01055085
96.97059322
96.90737288
97.15309322
97.01572034
97.05241525
96.91483051
96.9175
97.03317797
97.01949153
96.97355932
96.84169492
96.8575
97.11877119
97.19385593
97.0165678
97.06627119
97.17360169
97.03639831
97.11309322
97.05419492
97.04211864
96.9675
96.97173729
96.9629661
97.12572034
96.91525424
97.05792373
96.96105932
96.92648305
97.07987288
97.09694915
97.18550847
97.11974576
97.18110169
97.03588983
96.94474576
97.20394068
97.0865678
97.09711864
97.1434322
97.10169492
97.12563559
96.99165254
97.19266949
97.21305085
97.09313559
97.09847458
97.10207627
97.25665254
97.20855932
97.20673729
97.18457627
97.32372881
97.08978814
97.01313559
97.07135593
96.93711864
97.16211864
97.20101695
97.26733051
97.24050847
97.14275424
97.10305085
97.15351695
97.12165254
97.24733051
97.24783898
97.27584746
97.26161017
96.99148305
97.28610169
97.14478814
97.16101695
97.16224576
97.06682203
97.25669492
97.3270339
97.3334322
97.2170339
97.22779661
97.29961864
97.14135593
97.14508475
96.98822034
97.18466102
97.15288136
97.32288136
97.29449153
97.23190678
97.25529661
97.2170339
97.22584746
97.36114407
97.02440678
97.13029661
97.23733051
97.23266949
97.35211864
97.21283898
97.22423729
97.07711864
97.37508475
97.39724576
97.34059322
97.07567797
97.23491525
97.46686441
97.13381356
97.17211864
97.30783898
97.26991525
97.27088983
97.27461864
97.2045339
97.31461864
97.36631356
97.50970339
97.52033898
97.44936441
97.4970339
97.44881356
97.36779661
97.36733051
97.40122881
97.26173729
97.49822034
97.46474576
97.25173729
97.46411017
97.29127119
97.31186441
97.525
97.46847458
97.47449153
97.4095339
97.36415254
97.54563559
97.29605932
97.39673729
97.36254237
97.49334746
97.5170339
97.38957627
97.26669492
97.27038136
97.46639831
97.33
97.33538136
97.24766949
97.1409322
97.12122881
97.24898305
97.25724576
97.21461864
97.31139831
97.45923729
97.48775424
97.19851695
97.19961864
97.36072034
97.6640678
97.26279661
97.03877119
97.31478814
97.3454661
97.09385593
97.09059322
97.28127119
97.24970339
97.05707627
97.06237288
97.21381356
97.17822034
97.15118644
97.33563559
97.24877119
97.23864407
96.95258475
97.19847458
97.04055085
97.09326271
97.10118644
97.19266949
97.11305085
97.17131356
97.31266949
97.25072034
97.21542373
97.04258475
97.07995763
97.04809322
97.17665254
96.89847458
97.0509322
97.01707627
97.11771186
97.04521186
96.91919492
96.92016949
96.99394068
96.91805085
96.89737288
96.86673729
96.97385593
96.97254237
96.97016949
97.06686441
96.92483051
97.02182203
97.04419492
96.88004237
97.12254237
97.01190678
97.05385593
96.92275424
97.00927966
97.01792373
97.03987288
97.13889831
96.94330508
97.00690678
97.22822034
97.05677966
97.10364407
97.00436441
97.08525424
97.1084322
96.99355932
96.96614407
96.8734322
97.09173729
97.01279661
97.03822034
97.17042373
97.00042373
96.90898305
97.11059322
97.0265678
97.26741525
97.16936441
97.05741525
97.17669492
97.26665254
97.14360169
97.17813559
97.26779661
97.14194915
97.06538136
97.23635593
97.25483051
97.15008475
97.20016949
97.25432203
96.9495339
97.10665254
97.10966102
97.10936441
97.15216102
97.18813559
97.23644068
97.245
97.0815678
96.83648305
97.14567797
97.16478814
97.19974576
97.39177966
97.41639831
97.14097458
97.20300847
97.12682203
97.10216102
97.14423729
97.23021186
97.22050847
97.25894068
97.37601695
97.50148305
97.32402542
97.25114407
97.23707627
97.34483051
97.12601695
97.09885593
97.12771186
97.20152542
97.10398305
97.28504237
97.3075
97.19233051
97.27084746
97.11461864
97.27470339
97.41682203
97.38826271
97.26317797
97.33177966
97.42432203
97.15902542
97.19902542
97.29483051
97.32042373
97.44741525
97.41165254
97.32504237
97.2325
97.27605932
97.33025424
97.19131356
97.09072034
97.36088983
97.33076271
97.51038136
97.28228814
97.18864407
97.13957627
97.31131356
97.3334322
97.43228814
97.52826271
97.60088983
97.31059322
97.43915254
97.5220339
97.31148305
97.5565678
97.46775424
97.35605932
97.29855932
97.24258475
97.36029661
97.37978814
97.49288136
97.50584746
97.46059322
97.45012712
97.57364407
97.33983051
97.40919492
97.38813559
97.30483051
97.52224576
97.32491525
97.37915254
97.27847458
97.26491525
97.16139831
97.21313559
97.27919492
97.22661017
97.41050847
97.23872881
97.30817797
97.13961864
97.19627119
97.40050847
97.28991525
97.31809322
97.18144068
97.25877119
97.32245763
97.44673729
97.14317797
97.29305085
97.32381356
97.26266949
97.16817797
97.13233051
97.10444915
97.08639831
96.95805085
97.24919492
97.05711864
97.13487288
97.24305085
97.23915254
97.22860169
97.21563559
97.05682203
97.11224576
97.10800847
97.17792373
97.06161017
97.17228814
97.12978814
97.11779661
97.36127119
97.26182203
97.13788136
97.13033898
97.34254237
97.19584746
96.96872881
96.94101695
97.05148305
97.06271186
96.91720339
97.12186441
97.01855932
96.96495763
96.98165254
96.99177966
97.06758475
96.95241525
96.97868644
96.84758475
96.99639831
96.85245763
97.00754237
96.96584746
96.93385593
97.19381356
96.96940678
97.0845339
96.99148305
96.90161017
97.05830508
97.09957627
97.07067797
96.92533898
97.05067797
96.9120339
97.00639831
97.02360169
97.28487288
97.16944915
97.17627119
97.16326271
96.98207627
96.99105932
97.08097458
96.91665254
96.91220339
96.93262712
96.89322034
96.92932203
96.95995763
97.18775424
97.17368644
97.22639831
97.04716102
97.14872881
97.10194915
97.21872881
97.24076271
97.08665254
97.25792373
97.09677966
97.03283898
97.06088983
97.08436441
97.17377119
97.16186441
97.10805085
97.03741525
96.96072034
97.17262712
96.9540678
96.82855932
97.18080508
97.15741525
97.13974576
97.25063559
97.05432203
97.07652542
97.19470339
97.41199153
97.22805085
97.24385593
97.17690678
97.1845339
97.08838983
97.14483051
97.29021186
97.14889831
97.26169492
97.09673729
97.12233051
97.19381356
97.4534322
97.33949153
97.33055085
97.21923729
97.15631356
97.32415254
97.22326271
97.14182203
97.2115678
97.32805085
97.22461864
97.25584746
97.42411017
97.36775424
97.43957627
97.29224576
97.25364407
97.20694915
97.41216102
97.15631356
97.14639831
97.2545339
97.36165254
97.23067797
97.22241525
97.36088983
97.43165254
97.32694915
)
;

boundaryField
{
    bottom
    {
        type            calculated;
        value           nonuniform List<scalar> 
200
(
97.19949153
97.09512712
97.2920339
97.21588983
97.42898305
97.36995763
97.29538136
97.41779661
97.35902542
97.45894068
97.60372881
97.51525424
97.41847458
97.29580508
97.415
97.73254237
97.4270339
97.43228814
97.33995763
97.41940678
97.53601695
97.49211864
97.36288136
97.35851695
97.34292373
97.3740678
97.26381356
97.38241525
97.49461864
97.46614407
97.26639831
97.41838983
97.42720339
97.49127119
97.47483051
97.34411017
97.48461864
97.23690678
97.3784322
97.29483051
97.42368644
97.39360169
97.27152542
97.37411017
97.2820339
97.28427966
97.35059322
97.25995763
97.26809322
97.42139831
97.27508475
97.32360169
97.15262712
97.3395339
97.35084746
97.36237288
97.21245763
97.11228814
97.11330508
97.05669492
97.15940678
97.2459322
97.08741525
97.35059322
97.10118644
97.1815678
97.47139831
97.39254237
97.1754661
97.15707627
97.16080508
97.06457627
97.08080508
97.08385593
96.88559322
97.01440678
97.15830508
97.39838983
97.05050847
97.09254237
97.19911017
97.21271186
97.26105932
97.08550847
96.93851695
97.06470339
97.1270339
97.10033898
96.96258475
97.02169492
97.04491525
97.05707627
97.16398305
97.14436441
96.80135593
96.84097458
97.0259322
96.9245339
96.84597458
97.03436441
96.98152542
97.01584746
96.97279661
96.93745763
97.1795339
97.02313559
96.9975
97.01635593
96.92995763
97.04805085
97.23457627
97.26228814
97.15211864
97.1770339
97.08745763
96.94728814
96.96279661
97.18127119
97.0065678
96.95830508
96.9240678
96.99021186
97.06838983
97.20978814
97.11347458
97.08733051
97.02771186
96.98487288
96.97016949
97.09792373
97.08224576
97.07317797
96.95385593
96.9934322
97.06788136
96.93542373
96.8715678
97.27758475
97.02783898
96.99601695
97.1734322
97.19533898
97.14822034
97.07817797
97.06254237
97.09724576
97.07483051
97.08631356
97.05538136
97.12813559
97.08241525
97.10711864
97.04567797
97.11635593
97.15580508
97.31025424
97.04694915
96.99775424
96.95427966
97.24182203
97.30521186
97.45423729
97.07144068
97.08576271
97.27521186
97.27940678
97.26898305
97.28381356
97.22449153
97.03826271
97.20110169
97.06788136
97.22084746
97.28457627
96.92978814
97.26076271
97.40194915
97.24186441
97.16012712
97.03372881
97.25351695
97.36385593
97.29148305
97.32542373
97.22809322
97.32347458
97.32190678
97.29572034
97.17677966
97.16423729
97.38220339
97.47122881
97.23559322
97.32923729
97.0759322
97.37682203
97.39228814
97.4434322
97.4540678
97.21088983
)
;
    }
    top
    {
        type            calculated;
        value           nonuniform List<scalar> 
200
(
97.33025424
97.19131356
97.09072034
97.36088983
97.33076271
97.51038136
97.28228814
97.18864407
97.13957627
97.31131356
97.3334322
97.43228814
97.52826271
97.60088983
97.31059322
97.43915254
97.5220339
97.31148305
97.5565678
97.46775424
97.35605932
97.29855932
97.24258475
97.36029661
97.37978814
97.49288136
97.50584746
97.46059322
97.45012712
97.57364407
97.33983051
97.40919492
97.38813559
97.30483051
97.52224576
97.32491525
97.37915254
97.27847458
97.26491525
97.16139831
97.21313559
97.27919492
97.22661017
97.41050847
97.23872881
97.30817797
97.13961864
97.19627119
97.40050847
97.28991525
97.31809322
97.18144068
97.25877119
97.32245763
97.44673729
97.14317797
97.29305085
97.32381356
97.26266949
97.16817797
97.13233051
97.10444915
97.08639831
96.95805085
97.24919492
97.05711864
97.13487288
97.24305085
97.23915254
97.22860169
97.21563559
97.05682203
97.11224576
97.10800847
97.17792373
97.06161017
97.17228814
97.12978814
97.11779661
97.36127119
97.26182203
97.13788136
97.13033898
97.34254237
97.19584746
96.96872881
96.94101695
97.05148305
97.06271186
96.91720339
97.12186441
97.01855932
96.96495763
96.98165254
96.99177966
97.06758475
96.95241525
96.97868644
96.84758475
96.99639831
96.85245763
97.00754237
96.96584746
96.93385593
97.19381356
96.96940678
97.0845339
96.99148305
96.90161017
97.05830508
97.09957627
97.07067797
96.92533898
97.05067797
96.9120339
97.00639831
97.02360169
97.28487288
97.16944915
97.17627119
97.16326271
96.98207627
96.99105932
97.08097458
96.91665254
96.91220339
96.93262712
96.89322034
96.92932203
96.95995763
97.18775424
97.17368644
97.22639831
97.04716102
97.14872881
97.10194915
97.21872881
97.24076271
97.08665254
97.25792373
97.09677966
97.03283898
97.06088983
97.08436441
97.17377119
97.16186441
97.10805085
97.03741525
96.96072034
97.17262712
96.9540678
96.82855932
97.18080508
97.15741525
97.13974576
97.25063559
97.05432203
97.07652542
97.19470339
97.41199153
97.22805085
97.24385593
97.17690678
97.1845339
97.08838983
97.14483051
97.29021186
97.14889831
97.26169492
97.09673729
97.12233051
97.19381356
97.4534322
97.33949153
97.33055085
97.21923729
97.15631356
97.32415254
97.22326271
97.14182203
97.2115678
97.32805085
97.22461864
97.25584746
97.42411017
97.36775424
97.43957627
97.29224576
97.25364407
97.20694915
97.41216102
97.15631356
97.14639831
97.2545339
97.36165254
97.23067797
97.22241525
97.36088983
97.43165254
97.32694915
)
;
    }
    inlet
    {
        type            cyclic;
    }
    outlet
    {
        type            cyclic;
    }
    back
    {
        type            symmetry;
    }
    front
    {
        type            symmetry;
    }
}


// ************************************************************************* //
