/*--------------------------------*- C++ -*----------------------------------*\
| =========                 |                                                 |
| \\      /  F ield         | OpenFOAM: The Open Source CFD Toolbox           |
|  \\    /   O peration     | Version:  v1706                                 |
|   \\  /    A nd           | Web:      www.OpenFOAM.com                      |
|    \\/     M anipulation  |                                                 |
\*---------------------------------------------------------------------------*/
FoamFile
{
    version     2.0;
    format      ascii;
    class       volScalarField;
    location    "0.29";
    object      rhoM_Ar;
}
// * * * * * * * * * * * * * * * * * * * * * * * * * * * * * * * * * * * * * //

dimensions      [1 -3 0 0 0 0 0];


internalField   nonuniform List<scalar> 
1000
(
9.279829855e-06
9.269865977e-06
9.288665061e-06
9.281395434e-06
9.30173987e-06
9.296104595e-06
9.288984649e-06
9.300671878e-06
9.295060876e-06
9.304599985e-06
9.318423198e-06
9.309976353e-06
9.300736605e-06
9.289025103e-06
9.30040488e-06
9.330721286e-06
9.301553781e-06
9.302055413e-06
9.293240435e-06
9.300825604e-06
9.31195861e-06
9.307767552e-06
9.295429009e-06
9.29501233e-06
9.293523615e-06
9.296497001e-06
9.285970808e-06
9.297293949e-06
9.308006232e-06
9.305287707e-06
9.286217579e-06
9.300728514e-06
9.301569962e-06
9.307686643e-06
9.306117019e-06
9.293636886e-06
9.307051512e-06
9.283401964e-06
9.29691368e-06
9.288932059e-06
9.301234192e-06
9.298361941e-06
9.286707076e-06
9.296501046e-06
9.287710341e-06
9.287924748e-06
9.294255836e-06
9.285602675e-06
9.286379396e-06
9.301015739e-06
9.287046891e-06
9.291678901e-06
9.275355617e-06
9.293199981e-06
9.294280109e-06
9.295380464e-06
9.281067755e-06
9.271504373e-06
9.271601463e-06
9.266196777e-06
9.276002884e-06
9.28426364e-06
9.269129709e-06
9.294255836e-06
9.270444472e-06
9.278118641e-06
9.305789339e-06
9.298260806e-06
9.2775361e-06
9.275780386e-06
9.276136383e-06
9.266949226e-06
9.268498623e-06
9.268789894e-06
9.249861356e-06
9.262159444e-06
9.275897703e-06
9.298819074e-06
9.265606145e-06
9.269619206e-06
9.279793446e-06
9.281092027e-06
9.285707856e-06
9.268947665e-06
9.25491409e-06
9.266961362e-06
9.272912181e-06
9.270363564e-06
9.257211891e-06
9.262855257e-06
9.265072149e-06
9.266233186e-06
9.27643979e-06
9.274566759e-06
9.241819054e-06
9.245601525e-06
9.2632598e-06
9.253579101e-06
9.246078885e-06
9.264064839e-06
9.259020196e-06
9.262296989e-06
9.258186838e-06
9.254812955e-06
9.277924461e-06
9.262992802e-06
9.26054532e-06
9.262345534e-06
9.254096915e-06
9.265371511e-06
9.283179466e-06
9.285825173e-06
9.275307072e-06
9.277685781e-06
9.269133755e-06
9.255751493e-06
9.257232118e-06
9.278090323e-06
9.261411041e-06
9.256803303e-06
9.253534601e-06
9.259849507e-06
9.267313314e-06
9.280812893e-06
9.271617645e-06
9.269121619e-06
9.263429707e-06
9.259339784e-06
9.257936022e-06
9.270132975e-06
9.268636168e-06
9.267770447e-06
9.256378534e-06
9.26015696e-06
9.267264769e-06
9.254618775e-06
9.248522321e-06
9.287285571e-06
9.263441844e-06
9.26040373e-06
9.27734192e-06
9.279433404e-06
9.274934893e-06
9.268247807e-06
9.266755046e-06
9.270068248e-06
9.267928219e-06
9.269024528e-06
9.266071369e-06
9.273017362e-06
9.268652349e-06
9.271010832e-06
9.265144967e-06
9.271892734e-06
9.275659023e-06
9.290404593e-06
9.26526633e-06
9.260569593e-06
9.256418988e-06
9.283871234e-06
9.289923187e-06
9.304150943e-06
9.267604585e-06
9.268971938e-06
9.287059027e-06
9.287459524e-06
9.28646435e-06
9.287880248e-06
9.282216655e-06
9.264437018e-06
9.279983581e-06
9.267264769e-06
9.281868749e-06
9.287953066e-06
9.254080733e-06
9.285679538e-06
9.29915889e-06
9.283875279e-06
9.276071657e-06
9.264004158e-06
9.28498777e-06
9.295522054e-06
9.28861247e-06
9.291852855e-06
9.282560516e-06
9.291666765e-06
9.291517084e-06
9.289017013e-06
9.277661508e-06
9.276464063e-06
9.297273722e-06
9.305773158e-06
9.283276556e-06
9.292216943e-06
9.2680334e-06
9.296759954e-06
9.298236533e-06
9.30311936e-06
9.304134761e-06
9.280918074e-06
9.300849877e-06
9.28765775e-06
9.286067899e-06
9.290157822e-06
9.302654136e-06
9.292589122e-06
9.286949801e-06
9.299438024e-06
9.303212404e-06
9.303378267e-06
9.310498213e-06
9.311339661e-06
9.315000769e-06
9.278264276e-06
9.306112973e-06
9.299757613e-06
9.297221132e-06
9.302391183e-06
9.313690052e-06
9.316303396e-06
9.296941998e-06
9.271977688e-06
9.298014035e-06
9.285849446e-06
9.283325101e-06
9.272131414e-06
9.309345267e-06
9.307630007e-06
9.314640726e-06
9.31314392e-06
9.30675215e-06
9.325264009e-06
9.306169609e-06
9.317339024e-06
9.290048596e-06
9.295246965e-06
9.298984937e-06
9.291302677e-06
9.277863779e-06
9.294826241e-06
9.294992103e-06
9.301331282e-06
9.29701077e-06
9.293681386e-06
9.279194724e-06
9.281630069e-06
9.28355569e-06
9.287957112e-06
9.291634402e-06
9.277985142e-06
9.288106792e-06
9.299470387e-06
9.297233268e-06
9.294134474e-06
9.287063073e-06
9.30183696e-06
9.291310768e-06
9.280032126e-06
9.264161929e-06
9.266771227e-06
9.255472359e-06
9.266346458e-06
9.265347238e-06
9.279392949e-06
9.285667402e-06
9.267774493e-06
9.285428722e-06
9.288086565e-06
9.27853532e-06
9.267135316e-06
9.261297769e-06
9.267204088e-06
9.272422684e-06
9.270881378e-06
9.273223678e-06
9.277087058e-06
9.275226163e-06
9.281047528e-06
9.273923537e-06
9.277649372e-06
9.277087058e-06
9.276528789e-06
9.278515093e-06
9.269081164e-06
9.257458662e-06
9.260419912e-06
9.266047097e-06
9.264623107e-06
9.272171868e-06
9.270391882e-06
9.268551214e-06
9.270023748e-06
9.272325594e-06
9.246948651e-06
9.259481374e-06
9.26546051e-06
9.255350996e-06
9.256427079e-06
9.254007916e-06
9.256095354e-06
9.263231482e-06
9.250079809e-06
9.253579101e-06
9.26269344e-06
9.254800819e-06
9.258409337e-06
9.249307133e-06
9.254663274e-06
9.275064346e-06
9.284247458e-06
9.269687978e-06
9.272819136e-06
9.262741985e-06
9.267264769e-06
9.2524747e-06
9.250063627e-06
9.256463488e-06
9.278899408e-06
9.261718493e-06
9.262179672e-06
9.264295428e-06
9.259865689e-06
9.260650501e-06
9.261467677e-06
9.267859446e-06
9.257114801e-06
9.265881234e-06
9.267883719e-06
9.251180164e-06
9.269449298e-06
9.272127368e-06
9.271124103e-06
9.263207209e-06
9.262572078e-06
9.266160368e-06
9.259372147e-06
9.275088619e-06
9.269687978e-06
9.263102028e-06
9.264776834e-06
9.272713955e-06
9.288822832e-06
9.274902529e-06
9.254181869e-06
9.260913454e-06
9.25991828e-06
9.274740712e-06
9.264141702e-06
9.267410404e-06
9.262187762e-06
9.282394654e-06
9.275772295e-06
9.286868893e-06
9.27505221e-06
9.283187557e-06
9.278288549e-06
9.264202383e-06
9.258809834e-06
9.282301609e-06
9.274222898e-06
9.289729007e-06
9.283045967e-06
9.280173716e-06
9.268838439e-06
9.276002884e-06
9.273191315e-06
9.27672297e-06
9.287916657e-06
9.275756114e-06
9.295085148e-06
9.275319208e-06
9.288511335e-06
9.289959596e-06
9.281132482e-06
9.284401184e-06
9.290651364e-06
9.286666621e-06
9.291258177e-06
9.284615592e-06
9.274853984e-06
9.285153633e-06
9.287346253e-06
9.277746462e-06
9.293596432e-06
9.306363789e-06
9.286100262e-06
9.287839794e-06
9.280351715e-06
9.28612858e-06
9.273547312e-06
9.294069747e-06
9.289478191e-06
9.293450797e-06
9.289898915e-06
9.274413033e-06
9.276945468e-06
9.282758742e-06
9.275695432e-06
9.289081739e-06
9.295497781e-06
9.288733833e-06
9.294846468e-06
9.28841829e-06
9.280234398e-06
9.284801681e-06
9.270671016e-06
9.276241564e-06
9.284720773e-06
9.298645121e-06
9.303252859e-06
9.330923557e-06
9.318382743e-06
9.321780899e-06
9.312181109e-06
9.302795726e-06
9.302496364e-06
9.303665492e-06
9.308576636e-06
9.314280684e-06
9.302027095e-06
9.286492668e-06
9.283349374e-06
9.300376562e-06
9.292880392e-06
9.303018224e-06
9.306076564e-06
9.29997202e-06
9.309401903e-06
9.274817575e-06
9.302751226e-06
9.315231358e-06
9.301861233e-06
9.300922695e-06
9.293600478e-06
9.302464001e-06
9.308455274e-06
9.287928794e-06
9.284652e-06
9.295368328e-06
9.312557333e-06
9.286460305e-06
9.282119565e-06
9.287483797e-06
9.298673439e-06
9.287350298e-06
9.288580107e-06
9.279134042e-06
9.290792954e-06
9.304361305e-06
9.285764492e-06
9.290995225e-06
9.291241996e-06
9.294555198e-06
9.310134124e-06
9.303406585e-06
9.291225814e-06
9.303883945e-06
9.281031346e-06
9.274413033e-06
9.268777758e-06
9.285639084e-06
9.274198625e-06
9.266726728e-06
9.278021551e-06
9.269020483e-06
9.278830636e-06
9.277091103e-06
9.291169178e-06
9.275776341e-06
9.292144125e-06
9.266277686e-06
9.264716152e-06
9.26116427e-06
9.25925483e-06
9.267200042e-06
9.274429215e-06
9.271006786e-06
9.262398124e-06
9.281941566e-06
9.262984711e-06
9.281427798e-06
9.286019354e-06
9.275808704e-06
9.267782583e-06
9.270844969e-06
9.274732621e-06
9.254930272e-06
9.251495707e-06
9.275303026e-06
9.262576123e-06
9.265666827e-06
9.25275788e-06
9.261791311e-06
9.257976476e-06
9.251940704e-06
9.275400116e-06
9.262284853e-06
9.265788189e-06
9.252652699e-06
9.25290756e-06
9.263951567e-06
9.262644895e-06
9.258259656e-06
9.245670297e-06
9.24717924e-06
9.272123323e-06
9.279291814e-06
9.262365761e-06
9.267111043e-06
9.277358101e-06
9.264259019e-06
9.271581236e-06
9.265958097e-06
9.264805152e-06
9.25768116e-06
9.258085703e-06
9.2572483e-06
9.272786773e-06
9.252693153e-06
9.266314095e-06
9.257066256e-06
9.25376519e-06
9.268409624e-06
9.27003993e-06
9.278494865e-06
9.272216368e-06
9.278074141e-06
9.264210474e-06
9.255508768e-06
9.280254625e-06
9.269048801e-06
9.270056112e-06
9.27447776e-06
9.270493017e-06
9.272778682e-06
9.259987052e-06
9.279178542e-06
9.281124391e-06
9.269675842e-06
9.270185565e-06
9.270529426e-06
9.285287132e-06
9.280695576e-06
9.280521623e-06
9.278405866e-06
9.291691038e-06
9.269356253e-06
9.262038082e-06
9.267596494e-06
9.254780592e-06
9.276261792e-06
9.27997549e-06
9.286306579e-06
9.283745825e-06
9.274413033e-06
9.270622471e-06
9.27544057e-06
9.272398412e-06
9.284397139e-06
9.284445684e-06
9.287119709e-06
9.285760446e-06
9.25997087e-06
9.288098701e-06
9.274607213e-06
9.27615661e-06
9.276273928e-06
9.267163634e-06
9.285291177e-06
9.292006581e-06
9.29261744e-06
9.281504661e-06
9.282532198e-06
9.289389192e-06
9.274279534e-06
9.274635531e-06
9.259659373e-06
9.278413957e-06
9.275379889e-06
9.291610129e-06
9.288899695e-06
9.282924604e-06
9.285157678e-06
9.281504661e-06
9.282346109e-06
9.295263147e-06
9.263114164e-06
9.273223678e-06
9.283442419e-06
9.282997422e-06
9.294401472e-06
9.281104164e-06
9.282192383e-06
9.268146672e-06
9.296594091e-06
9.298709848e-06
9.293301116e-06
9.268009127e-06
9.283211829e-06
9.305356479e-06
9.273559448e-06
9.277216512e-06
9.290174004e-06
9.286553349e-06
9.286646394e-06
9.287002392e-06
9.280311261e-06
9.290821272e-06
9.295756688e-06
9.309446402e-06
9.310461804e-06
9.303685719e-06
9.308236821e-06
9.303633128e-06
9.295898278e-06
9.295853779e-06
9.299090118e-06
9.285772583e-06
9.308350093e-06
9.305154208e-06
9.284817863e-06
9.305093526e-06
9.288592243e-06
9.290558319e-06
9.3109068e-06
9.305510205e-06
9.306084655e-06
9.299883021e-06
9.295550372e-06
9.312876922e-06
9.289049376e-06
9.298661303e-06
9.295396646e-06
9.307884869e-06
9.310146261e-06
9.297977626e-06
9.286245897e-06
9.286597849e-06
9.305311979e-06
9.29228976e-06
9.292803529e-06
9.284429502e-06
9.27423908e-06
9.272357958e-06
9.28455491e-06
9.285343768e-06
9.281274072e-06
9.290513819e-06
9.304628303e-06
9.307350873e-06
9.27973681e-06
9.279841992e-06
9.295222693e-06
9.324183881e-06
9.285873718e-06
9.264485563e-06
9.290837453e-06
9.29376634e-06
9.269744614e-06
9.269433116e-06
9.287637523e-06
9.284623682e-06
9.266233186e-06
9.266738864e-06
9.281197208e-06
9.277799053e-06
9.275218072e-06
9.292827802e-06
9.284534683e-06
9.283567827e-06
9.256257171e-06
9.279732765e-06
9.264655471e-06
9.269687978e-06
9.270444472e-06
9.279178542e-06
9.271577191e-06
9.277139648e-06
9.290635182e-06
9.284720773e-06
9.281350935e-06
9.264849651e-06
9.268417715e-06
9.265375556e-06
9.277649372e-06
9.251091165e-06
9.2656466e-06
9.262414306e-06
9.272022187e-06
9.265100467e-06
9.253069377e-06
9.253162422e-06
9.260205505e-06
9.252960151e-06
9.250985984e-06
9.248061143e-06
9.258287974e-06
9.258162566e-06
9.257936022e-06
9.267167679e-06
9.253607419e-06
9.262867394e-06
9.265003377e-06
9.249331406e-06
9.272483366e-06
9.261920764e-06
9.265925734e-06
9.253409193e-06
9.261669948e-06
9.262495215e-06
9.264590744e-06
9.274044899e-06
9.255371223e-06
9.261443404e-06
9.282572653e-06
9.266204868e-06
9.270679107e-06
9.261200679e-06
9.268923393e-06
9.27113624e-06
9.260169096e-06
9.257551707e-06
9.24870032e-06
9.269542343e-06
9.262005718e-06
9.264432973e-06
9.277054695e-06
9.260824455e-06
9.25209443e-06
9.271342556e-06
9.263320481e-06
9.286314669e-06
9.276953559e-06
9.266265549e-06
9.277653417e-06
9.286241852e-06
9.274493941e-06
9.277790962e-06
9.286351078e-06
9.27433617e-06
9.267026089e-06
9.283349374e-06
9.285113179e-06
9.275112891e-06
9.279894582e-06
9.285064634e-06
9.255965901e-06
9.270966332e-06
9.271253557e-06
9.271225239e-06
9.275311117e-06
9.278745682e-06
9.283357465e-06
9.28417464e-06
9.268571441e-06
9.24517271e-06
9.274692167e-06
9.276516653e-06
9.279854128e-06
9.298187988e-06
9.300538379e-06
9.274243125e-06
9.280165625e-06
9.272891954e-06
9.270537517e-06
9.274554623e-06
9.282762787e-06
9.281836385e-06
9.285505585e-06
9.29668309e-06
9.30866159e-06
9.291719356e-06
9.284761227e-06
9.283418146e-06
9.293705659e-06
9.27281509e-06
9.270221974e-06
9.272976907e-06
9.280024036e-06
9.27071147e-06
9.287997566e-06
9.29014164e-06
9.279146179e-06
9.286642349e-06
9.271726872e-06
9.287010482e-06
9.300578834e-06
9.297852218e-06
9.285910127e-06
9.292459668e-06
9.301294874e-06
9.275966476e-06
9.279785356e-06
9.288932059e-06
9.291375495e-06
9.303499629e-06
9.300085292e-06
9.291816446e-06
9.28298124e-06
9.287139936e-06
9.292314033e-06
9.279049088e-06
9.269445253e-06
9.295238874e-06
9.292362578e-06
9.309511129e-06
9.287734613e-06
9.278794227e-06
9.274109626e-06
9.290505728e-06
9.29261744e-06
9.302055413e-06
9.311218298e-06
9.318152154e-06
9.290436956e-06
9.302710772e-06
9.310623621e-06
9.29052191e-06
9.313920641e-06
9.305441433e-06
9.294777696e-06
9.289288056e-06
9.283944051e-06
9.295182238e-06
9.297043133e-06
9.307840369e-06
9.309078269e-06
9.304757756e-06
9.303758537e-06
9.315550947e-06
9.293228299e-06
9.299850657e-06
9.297840082e-06
9.289886779e-06
9.310643848e-06
9.291804309e-06
9.296982452e-06
9.287370525e-06
9.286075989e-06
9.276193019e-06
9.281132482e-06
9.287439297e-06
9.282418926e-06
9.299976065e-06
9.283575918e-06
9.290206367e-06
9.274113672e-06
9.279522403e-06
9.299021345e-06
9.288462789e-06
9.291152996e-06
9.278106505e-06
9.285489403e-06
9.291569675e-06
9.303434903e-06
9.274453487e-06
9.288762151e-06
9.291699128e-06
9.285861582e-06
9.276840287e-06
9.273417859e-06
9.27075597e-06
9.269032619e-06
9.256779031e-06
9.284575137e-06
9.266237232e-06
9.273660584e-06
9.283988551e-06
9.283616372e-06
9.282609061e-06
9.281371162e-06
9.266208914e-06
9.271500328e-06
9.271095785e-06
9.277770735e-06
9.266666046e-06
9.277232693e-06
9.273175133e-06
9.272030278e-06
9.295275283e-06
9.285780674e-06
9.273947809e-06
9.273227724e-06
9.293487206e-06
9.279481949e-06
9.257798478e-06
9.25515277e-06
9.26569919e-06
9.266771227e-06
9.252879242e-06
9.272418639e-06
9.262555896e-06
9.257438435e-06
9.259032332e-06
9.259999188e-06
9.267236451e-06
9.256240989e-06
9.258749152e-06
9.246232611e-06
9.260440139e-06
9.246697835e-06
9.261504086e-06
9.257523389e-06
9.254469094e-06
9.279287768e-06
9.257863204e-06
9.268854621e-06
9.25997087e-06
9.251390526e-06
9.266350503e-06
9.270290746e-06
9.267531767e-06
9.253655964e-06
9.265622327e-06
9.252385701e-06
9.261394859e-06
9.263037301e-06
9.287981384e-06
9.27696165e-06
9.277612963e-06
9.276371018e-06
9.259072786e-06
9.259930416e-06
9.268514805e-06
9.252826652e-06
9.252401882e-06
9.254351777e-06
9.250589533e-06
9.254036234e-06
9.256961075e-06
9.278709273e-06
9.277366192e-06
9.282398699e-06
9.265286557e-06
9.274983438e-06
9.27051729e-06
9.281666478e-06
9.283770098e-06
9.269056892e-06
9.285408495e-06
9.270023748e-06
9.263919204e-06
9.266597274e-06
9.268838439e-06
9.277374283e-06
9.276237519e-06
9.271099831e-06
9.264356109e-06
9.257033893e-06
9.277265057e-06
9.256398761e-06
9.244416216e-06
9.278045823e-06
9.275812749e-06
9.274125808e-06
9.284712682e-06
9.265970234e-06
9.268090036e-06
9.279372722e-06
9.300117655e-06
9.282556471e-06
9.284065414e-06
9.277673644e-06
9.278401821e-06
9.269222754e-06
9.274611259e-06
9.288491107e-06
9.274999619e-06
9.285768537e-06
9.270019703e-06
9.272463139e-06
9.279287768e-06
9.30407408e-06
9.293195935e-06
9.292342351e-06
9.281715023e-06
9.275707568e-06
9.291731492e-06
9.282099338e-06
9.274324034e-06
9.280982801e-06
9.292103671e-06
9.282228792e-06
9.285210269e-06
9.301274646e-06
9.295894233e-06
9.302751226e-06
9.288685288e-06
9.284999907e-06
9.28054185e-06
9.300133837e-06
9.275707568e-06
9.274760939e-06
9.285084861e-06
9.295311692e-06
9.282807287e-06
9.282018429e-06
9.295238874e-06
9.301994732e-06
9.29199849e-06
)
;

boundaryField
{
    bottom
    {
        type            calculated;
        value           nonuniform List<scalar> 
200
(
9.279829855e-06
9.269865977e-06
9.288665061e-06
9.281395434e-06
9.30173987e-06
9.296104595e-06
9.288984649e-06
9.300671878e-06
9.295060876e-06
9.304599985e-06
9.318423198e-06
9.309976353e-06
9.300736605e-06
9.289025103e-06
9.30040488e-06
9.330721286e-06
9.301553781e-06
9.302055413e-06
9.293240435e-06
9.300825604e-06
9.31195861e-06
9.307767552e-06
9.295429009e-06
9.29501233e-06
9.293523615e-06
9.296497001e-06
9.285970808e-06
9.297293949e-06
9.308006232e-06
9.305287707e-06
9.286217579e-06
9.300728514e-06
9.301569962e-06
9.307686643e-06
9.306117019e-06
9.293636886e-06
9.307051512e-06
9.283401964e-06
9.29691368e-06
9.288932059e-06
9.301234192e-06
9.298361941e-06
9.286707076e-06
9.296501046e-06
9.287710341e-06
9.287924748e-06
9.294255836e-06
9.285602675e-06
9.286379396e-06
9.301015739e-06
9.287046891e-06
9.291678901e-06
9.275355617e-06
9.293199981e-06
9.294280109e-06
9.295380464e-06
9.281067755e-06
9.271504373e-06
9.271601463e-06
9.266196777e-06
9.276002884e-06
9.28426364e-06
9.269129709e-06
9.294255836e-06
9.270444472e-06
9.278118641e-06
9.305789339e-06
9.298260806e-06
9.2775361e-06
9.275780386e-06
9.276136383e-06
9.266949226e-06
9.268498623e-06
9.268789894e-06
9.249861356e-06
9.262159444e-06
9.275897703e-06
9.298819074e-06
9.265606145e-06
9.269619206e-06
9.279793446e-06
9.281092027e-06
9.285707856e-06
9.268947665e-06
9.25491409e-06
9.266961362e-06
9.272912181e-06
9.270363564e-06
9.257211891e-06
9.262855257e-06
9.265072149e-06
9.266233186e-06
9.27643979e-06
9.274566759e-06
9.241819054e-06
9.245601525e-06
9.2632598e-06
9.253579101e-06
9.246078885e-06
9.264064839e-06
9.259020196e-06
9.262296989e-06
9.258186838e-06
9.254812955e-06
9.277924461e-06
9.262992802e-06
9.26054532e-06
9.262345534e-06
9.254096915e-06
9.265371511e-06
9.283179466e-06
9.285825173e-06
9.275307072e-06
9.277685781e-06
9.269133755e-06
9.255751493e-06
9.257232118e-06
9.278090323e-06
9.261411041e-06
9.256803303e-06
9.253534601e-06
9.259849507e-06
9.267313314e-06
9.280812893e-06
9.271617645e-06
9.269121619e-06
9.263429707e-06
9.259339784e-06
9.257936022e-06
9.270132975e-06
9.268636168e-06
9.267770447e-06
9.256378534e-06
9.26015696e-06
9.267264769e-06
9.254618775e-06
9.248522321e-06
9.287285571e-06
9.263441844e-06
9.26040373e-06
9.27734192e-06
9.279433404e-06
9.274934893e-06
9.268247807e-06
9.266755046e-06
9.270068248e-06
9.267928219e-06
9.269024528e-06
9.266071369e-06
9.273017362e-06
9.268652349e-06
9.271010832e-06
9.265144967e-06
9.271892734e-06
9.275659023e-06
9.290404593e-06
9.26526633e-06
9.260569593e-06
9.256418988e-06
9.283871234e-06
9.289923187e-06
9.304150943e-06
9.267604585e-06
9.268971938e-06
9.287059027e-06
9.287459524e-06
9.28646435e-06
9.287880248e-06
9.282216655e-06
9.264437018e-06
9.279983581e-06
9.267264769e-06
9.281868749e-06
9.287953066e-06
9.254080733e-06
9.285679538e-06
9.29915889e-06
9.283875279e-06
9.276071657e-06
9.264004158e-06
9.28498777e-06
9.295522054e-06
9.28861247e-06
9.291852855e-06
9.282560516e-06
9.291666765e-06
9.291517084e-06
9.289017013e-06
9.277661508e-06
9.276464063e-06
9.297273722e-06
9.305773158e-06
9.283276556e-06
9.292216943e-06
9.2680334e-06
9.296759954e-06
9.298236533e-06
9.30311936e-06
9.304134761e-06
9.280918074e-06
)
;
    }
    top
    {
        type            calculated;
        value           nonuniform List<scalar> 
200
(
9.292314033e-06
9.279049088e-06
9.269445253e-06
9.295238874e-06
9.292362578e-06
9.309511129e-06
9.287734613e-06
9.278794227e-06
9.274109626e-06
9.290505728e-06
9.29261744e-06
9.302055413e-06
9.311218298e-06
9.318152154e-06
9.290436956e-06
9.302710772e-06
9.310623621e-06
9.29052191e-06
9.313920641e-06
9.305441433e-06
9.294777696e-06
9.289288056e-06
9.283944051e-06
9.295182238e-06
9.297043133e-06
9.307840369e-06
9.309078269e-06
9.304757756e-06
9.303758537e-06
9.315550947e-06
9.293228299e-06
9.299850657e-06
9.297840082e-06
9.289886779e-06
9.310643848e-06
9.291804309e-06
9.296982452e-06
9.287370525e-06
9.286075989e-06
9.276193019e-06
9.281132482e-06
9.287439297e-06
9.282418926e-06
9.299976065e-06
9.283575918e-06
9.290206367e-06
9.274113672e-06
9.279522403e-06
9.299021345e-06
9.288462789e-06
9.291152996e-06
9.278106505e-06
9.285489403e-06
9.291569675e-06
9.303434903e-06
9.274453487e-06
9.288762151e-06
9.291699128e-06
9.285861582e-06
9.276840287e-06
9.273417859e-06
9.27075597e-06
9.269032619e-06
9.256779031e-06
9.284575137e-06
9.266237232e-06
9.273660584e-06
9.283988551e-06
9.283616372e-06
9.282609061e-06
9.281371162e-06
9.266208914e-06
9.271500328e-06
9.271095785e-06
9.277770735e-06
9.266666046e-06
9.277232693e-06
9.273175133e-06
9.272030278e-06
9.295275283e-06
9.285780674e-06
9.273947809e-06
9.273227724e-06
9.293487206e-06
9.279481949e-06
9.257798478e-06
9.25515277e-06
9.26569919e-06
9.266771227e-06
9.252879242e-06
9.272418639e-06
9.262555896e-06
9.257438435e-06
9.259032332e-06
9.259999188e-06
9.267236451e-06
9.256240989e-06
9.258749152e-06
9.246232611e-06
9.260440139e-06
9.246697835e-06
9.261504086e-06
9.257523389e-06
9.254469094e-06
9.279287768e-06
9.257863204e-06
9.268854621e-06
9.25997087e-06
9.251390526e-06
9.266350503e-06
9.270290746e-06
9.267531767e-06
9.253655964e-06
9.265622327e-06
9.252385701e-06
9.261394859e-06
9.263037301e-06
9.287981384e-06
9.27696165e-06
9.277612963e-06
9.276371018e-06
9.259072786e-06
9.259930416e-06
9.268514805e-06
9.252826652e-06
9.252401882e-06
9.254351777e-06
9.250589533e-06
9.254036234e-06
9.256961075e-06
9.278709273e-06
9.277366192e-06
9.282398699e-06
9.265286557e-06
9.274983438e-06
9.27051729e-06
9.281666478e-06
9.283770098e-06
9.269056892e-06
9.285408495e-06
9.270023748e-06
9.263919204e-06
9.266597274e-06
9.268838439e-06
9.277374283e-06
9.276237519e-06
9.271099831e-06
9.264356109e-06
9.257033893e-06
9.277265057e-06
9.256398761e-06
9.244416216e-06
9.278045823e-06
9.275812749e-06
9.274125808e-06
9.284712682e-06
9.265970234e-06
9.268090036e-06
9.279372722e-06
9.300117655e-06
9.282556471e-06
9.284065414e-06
9.277673644e-06
9.278401821e-06
9.269222754e-06
9.274611259e-06
9.288491107e-06
9.274999619e-06
9.285768537e-06
9.270019703e-06
9.272463139e-06
9.279287768e-06
9.30407408e-06
9.293195935e-06
9.292342351e-06
9.281715023e-06
9.275707568e-06
9.291731492e-06
9.282099338e-06
9.274324034e-06
9.280982801e-06
9.292103671e-06
9.282228792e-06
9.285210269e-06
9.301274646e-06
9.295894233e-06
9.302751226e-06
9.288685288e-06
9.284999907e-06
9.28054185e-06
9.300133837e-06
9.275707568e-06
9.274760939e-06
9.285084861e-06
9.295311692e-06
9.282807287e-06
9.282018429e-06
9.295238874e-06
9.301994732e-06
9.29199849e-06
)
;
    }
    inlet
    {
        type            cyclic;
    }
    outlet
    {
        type            cyclic;
    }
    back
    {
        type            symmetry;
    }
    front
    {
        type            symmetry;
    }
}


// ************************************************************************* //
