/*--------------------------------*- C++ -*----------------------------------*\
| =========                 |                                                 |
| \\      /  F ield         | OpenFOAM: The Open Source CFD Toolbox           |
|  \\    /   O peration     | Version:  v1706                                 |
|   \\  /    A nd           | Web:      www.OpenFOAM.com                      |
|    \\/     M anipulation  |                                                 |
\*---------------------------------------------------------------------------*/
FoamFile
{
    version     2.0;
    format      ascii;
    class       volVectorField;
    location    "0.29";
    object      UMean_Ar;
}
// * * * * * * * * * * * * * * * * * * * * * * * * * * * * * * * * * * * * * //

dimensions      [0 1 -1 0 0 0 0];


internalField   nonuniform List<vector> 
1000
(
(0.1191303178 0.1081535422 0.05532036142)
(-0.1047547209 0.07855008268 -0.03491160393)
(-0.1655034789 -0.01352809378 0.1330437911)
(-0.03116077056 -0.06201949183 -0.2037920133)
(-0.1757814523 -0.1644688167 0.1821742739)
(0.1210288847 -0.1555674688 0.09259289214)
(0.09539646619 0.1446630169 0.01198600867)
(-0.1333052125 0.1011358173 0.3211601033)
(-0.07957084657 -0.1018966787 -0.1610250796)
(-0.3635563447 0.04484262064 0.09333541728)
(-0.4169753909 0.08559804618 -0.1250103803)
(-0.3920565962 -0.1562719356 0.04295624732)
(-0.4292041439 -0.1901251532 -0.05291850313)
(-0.08814699125 -0.08947315388 0.04999519626)
(-0.05372086618 -0.02008594185 -0.09089954762)
(-0.062203348 0.1249747486 -0.1119009575)
(-0.06798964511 0.06222114445 0.1401059564)
(0.1225516024 -0.2303140893 -0.2021550036)
(0.02196792818 0.168344076 0.0684489927)
(-0.0219774695 -0.1647687971 0.01570652235)
(0.08201896865 0.2040041116 0.04513179356)
(-0.2575428219 0.1086278824 -0.05351799383)
(-0.2202138973 -0.3436966008 0.01309839702)
(-0.09433665692 0.0191352215 0.2575676077)
(-0.01262262897 -0.1161966503 -0.04664289229)
(0.02050701454 -0.0510310007 -0.08049302241)
(0.008804739236 -0.1026763331 -0.1156277757)
(0.09907948654 -0.008469569307 -0.005523260679)
(0.07406739072 0.05732668323 -0.0351827105)
(0.002869481225 0.0576601187 0.1947280453)
(-0.2388037292 -0.01107329495 -0.06973111338)
(-0.04488503299 0.003562967774 0.1498655328)
(-0.463849571 0.1805196939 0.008334815631)
(-0.338168533 -0.2744614565 0.08478201609)
(-0.2461423919 -0.07132962697 -0.01869098027)
(-0.1258774568 -0.03519652632 0.2922879813)
(-0.134538426 0.03599437644 -0.1874750528)
(0.08063231735 -0.05138800584 -0.152524609)
(-0.004975695651 0.02242422559 0.06746479644)
(0.0452957762 0.1423758957 -0.02372600595)
(0.01534105508 -0.03491335448 -0.1333828343)
(0.01164924059 0.197845549 0.07795943666)
(-0.2974317094 0.07651963791 -0.1206825771)
(-0.2586507469 0.0398400177 -0.005038122147)
(-0.2928266034 -0.06784583811 -0.03947431973)
(-0.2878546987 0.007719141731 0.01706592351)
(-0.08907192241 0.02044769157 -0.07704220416)
(0.09513308221 -0.0452747824 0.08277519134)
(0.1412075104 0.05710405877 -0.01485131525)
(0.1469434878 -0.1492936038 -0.07429841312)
(0.0307038385 0.1599723129 0.2468493636)
(-0.02098307089 -0.08615257409 -0.194263645)
(0.07718574807 0.1187749439 0.06245817126)
(-0.3150377624 -0.1069667828 -0.0303315743)
(-0.1470362125 0.0114554782 0.0359413172)
(-0.06177604509 -0.121457657 0.1472144859)
(0.2574496956 0.05560938787 -0.02605058027)
(0.1135609223 0.004015930632 -0.06927351301)
(0.07997171734 0.05743961997 0.04738360711)
(-0.1593471175 0.0811186611 -0.008493348477)
(-0.3352727193 -0.1881633819 -0.06264781074)
(-0.4055452953 0.008842484788 -0.1596990624)
(-0.1663731756 0.1572754067 0.01251739491)
(-0.07425721587 -0.2161819989 0.1276744042)
(0.1134963025 0.1301385928 -0.01931287647)
(-0.1225149376 0.0596386933 0.2157232642)
(-0.2961914444 0.1518169893 0.09359515187)
(-0.2576647761 -0.3354239747 -0.2371942922)
(-0.03885819325 0.0424055195 0.1423226004)
(-0.1222563933 0.09317705474 0.1072686363)
(-0.2058269503 0.08720508986 -0.004816374737)
(-0.08806901904 -0.06570291493 -0.05231904695)
(-0.1366920127 -0.1456211927 0.02480130487)
(-0.2068489381 -0.08193310692 0.09794898035)
(-0.3773152202 0.3595287217 0.03567784144)
(-0.5311015829 -0.085672755 0.1442947583)
(-0.296926433 -0.04068551661 0.2519979011)
(-0.1681019158 -0.2254044504 0.02634175082)
(-0.07756697246 -0.01041694143 0.03822057473)
(-0.159387994 0.02216782924 0.04169158985)
(-0.1975591931 0.02109496348 0.01476194433)
(-0.09566217673 -0.07987310398 -0.06351246183)
(-0.1599795073 0.1815327964 0.06818523233)
(-0.100931943 -0.08903733773 -0.07482434709)
(-0.04590099327 -0.01250840472 -0.1453351716)
(0.1171099822 -0.2394118916 -0.1184587951)
(0.3334208318 -0.003411004255 -0.2501963822)
(0.08332980456 0.1923949315 0.06276737687)
(-0.1077794188 -0.06164078255 -0.1144384202)
(-0.05615522025 0.09276117068 -0.2066704636)
(0.009573030253 0.2112517939 0.09590500277)
(-0.239177983 -0.1438207029 -0.1018988563)
(0.08849160304 -0.1902950444 -0.004219847794)
(-0.02958069401 0.1974979284 0.1965661728)
(-0.1531493975 0.06791391332 0.007619896405)
(-0.4526923084 0.1351398937 -0.08432354439)
(-0.2365090527 -0.2840677311 -0.2794287045)
(-0.101656254 0.1401377513 -0.1168233491)
(-0.4268986005 -0.05920450108 -0.05586818117)
(-0.05778583305 -0.02174656866 0.1541115008)
(-0.1096966821 -0.1744321951 0.1836811403)
(0.05367753166 -0.01819040066 0.1011261334)
(0.05136053508 -0.07542495796 -0.07585007824)
(-0.01300792887 0.04481065079 0.2250023045)
(0.09243393256 -0.05016416916 0.08246985366)
(0.09959839019 -0.08909601476 -0.1429383294)
(0.283821058 0.03855228218 -0.2809131033)
(0.1057453065 0.2481692275 0.1372847243)
(0.1378748191 -0.08417298214 -0.06973752923)
(-0.1503381546 0.1425561015 -0.04416520131)
(-0.2779022167 -0.005743828395 -0.07802974881)
(-0.1268582856 0.2019648771 0.05468397306)
(-0.3716286194 0.1469973808 0.1565772884)
(-0.1850485373 -0.0007604160242 -0.1748584764)
(-0.4184174358 -0.06045392552 0.118066327)
(-0.1004073615 -0.04603759859 0.1025385848)
(-0.03495594879 0.06465556792 -0.03879428034)
(0.07470329633 0.01361409707 -0.1743107843)
(0.0589445118 -0.1356328134 -0.05566876562)
(-0.01477401184 0.02408235832 0.1386729132)
(0.1617247413 -0.07491607554 0.04661223965)
(-0.04174570574 0.2421665468 -0.09549846165)
(-0.2588560073 0.1109725217 0.2573057881)
(-0.2369022606 -0.09565560075 -0.1316871163)
(-0.1225764033 -0.09293480375 0.1931829255)
(-0.1078688195 -0.06332680024 -0.05740778333)
(-0.2085733671 0.1912232258 0.07802031238)
(-0.4769937677 0.1197236422 -0.1249952708)
(-0.3713253162 0.04163812039 0.1424022117)
(-0.2609242414 -0.1938465159 0.0897346799)
(-0.1784607004 -0.02922102293 -0.1561977654)
(-0.1323948398 -0.1525440656 0.1618469722)
(-0.05889223673 0.1592637934 0.09717365413)
(-0.2267943132 0.02537710569 -0.1978853649)
(0.03341283298 0.05416488432 0.04461404227)
(-0.1579152847 -0.02802161691 0.04502794834)
(-0.2310912945 -0.0345034093 0.02525373968)
(0.1202995323 -0.1821840593 0.003931590485)
(0.1204469021 -0.1692595673 -0.1210975992)
(-0.01439536538 0.108409303 0.3958489128)
(0.003613525669 0.02244627042 -0.09112809492)
(-0.08924293347 -0.04261530185 0.06071690507)
(-0.06894970051 -0.2734222796 0.03225959889)
(0.158250153 0.0629357975 -0.1476518161)
(0.3398688009 0.002583679109 -0.08120813695)
(0.1968753909 0.1500555216 -0.1588103498)
(-0.07151805605 0.02615218183 0.05500277083)
(0.01673746267 0.01229280063 -0.008194724347)
(0.1014149022 -0.2074961599 -0.3184520938)
(0.09071643375 0.1684438082 0.01583071707)
(0.1489095853 -0.02023884637 0.1494779781)
(0.02274578072 -0.1040382141 -0.01070861365)
(0.08849537391 0.1755875276 0.02240161227)
(-0.07927172487 0.07027941502 0.2192257323)
(0.01401894062 -0.04010937861 -0.2295798588)
(-0.02978397947 -0.0996936889 0.1286167771)
(-0.0567262816 -0.07560233487 0.02542470122)
(-0.009815482956 0.01535214656 -0.06434521738)
(0.07724630632 0.1613943606 -0.2906622729)
(-0.07837113261 0.03836320063 0.3569661815)
(-0.1960735645 -0.1812983972 -0.07778943923)
(-0.1435359546 0.085531473 -0.06261540431)
(-0.3130400604 -0.04973181392 -0.2130638018)
(-0.291151199 -0.05724087475 -0.05603060044)
(-0.240737773 -0.190820525 0.1845003669)
(0.08576331754 -0.01485961741 0.001781041121)
(0.01019895353 0.2398486476 0.02457988057)
(-0.2515812352 -0.05125635429 -0.1041799101)
(-0.1252847078 -0.1094695671 0.1307218738)
(0.03236670176 0.1382409747 0.1111814341)
(-0.06066040908 -0.1122962988 0.1782912829)
(-0.03695988125 0.03438712058 -0.04685388169)
(-0.1397131412 0.01402436546 -0.02000910226)
(-0.2411673135 -0.02767045479 0.07987177536)
(-0.139809625 -0.05625793391 -0.1091316028)
(-0.2188952001 0.03063479712 0.1560023141)
(-0.2372425923 -0.1118471899 0.06227802333)
(0.08818967241 -0.1122303526 -0.04041550302)
(-0.1737740986 0.1977870963 0.006784410211)
(-0.4065605955 0.06057138765 -0.04546008993)
(-0.4634530891 -0.02141198018 0.118584634)
(-0.4971962035 -0.2461752645 -0.06775837077)
(-0.3800040226 0.1478182837 -0.002280736453)
(-0.08893304388 -0.2204153868 -0.1364617631)
(-0.3124076928 -0.06492423558 -0.001891226434)
(-0.2707496702 -0.07357516244 0.126651056)
(-0.1532066908 -0.1124630716 -0.08123156662)
(0.1121546904 -0.01866245061 0.07125258442)
(0.01022871946 0.1022271501 -0.08537585524)
(0.08267087088 -0.1765314109 0.1670665275)
(0.183396915 0.08189873015 -0.09317159964)
(-0.1328925694 0.1298159502 -0.07675034437)
(-0.1152257134 -0.09086245487 0.2285237882)
(-0.1112699886 -0.06626493121 -0.06926094794)
(-0.1218264997 0.01664126663 0.01658650645)
(-0.209659893 0.191133776 -0.06400262978)
(-0.4110129138 0.06615853459 -0.2041422386)
(-0.07403535678 -0.2670902611 -0.1072630985)
(0.01808201971 -0.01489759706 0.1345714553)
(0.03469893445 -0.1050753853 -0.1692700108)
(0.004931914022 0.106093681 0.1853244597)
(-0.07562640155 0.1909445314 0.06331556843)
(0.0655847763 0.1622648905 -0.1406646781)
(-0.08242463124 -0.2679187523 0.1405729596)
(-0.07914882274 0.03383128817 -0.09599109461)
(0.05608757856 -0.2903254802 -0.02162382925)
(-0.1573600935 0.1157741523 0.1054011722)
(0.1066786056 0.06235652196 0.01963685561)
(-0.02798197024 0.1360945222 0.0007501269082)
(-0.06596154153 0.3370944608 0.03285084398)
(-0.1001041134 0.03703226707 0.05265930552)
(-0.3541653002 0.07517662118 -0.01001140491)
(-0.1646181396 -0.3211331112 -0.004047136571)
(-0.02243424863 -0.385652274 -0.04571609588)
(-0.00858616344 0.2099032217 -0.06475464944)
(-0.1537543421 0.1155924407 0.1601303103)
(-0.05733377764 -0.1401988474 0.03796394619)
(-0.2208708843 -0.006871213484 0.1927960036)
(-0.0328565821 -0.04247503778 0.3409905183)
(-0.01816996769 -0.128721998 -0.1497853222)
(0.06511087354 0.1892442626 0.1880747168)
(0.3923216099 -0.0130075838 -0.09464548538)
(0.2077188794 0.2099246231 -0.3165179535)
(-0.1920114677 -0.04325243794 0.07511660204)
(-0.223747026 -0.1938059609 -0.007353384398)
(-0.2968568603 0.1914951406 -0.1997934892)
(-0.2445911077 -0.1914700099 0.2789668415)
(-0.2408722407 0.05405772663 -0.08744829203)
(-0.5581728883 0.1510236267 -0.09076533717)
(-0.1889487447 -0.1633659025 -0.09463007951)
(-0.1648884796 0.107846308 0.08295934303)
(-0.182139154 0.1393715367 -0.04961754398)
(0.06698733456 0.1352042202 -0.1586049838)
(0.05275604612 -0.3597457341 -0.2199161874)
(0.1828767594 0.1463907673 -0.1560266087)
(-0.2620748631 -0.01753075972 0.15700075)
(-0.1615719782 0.004264247131 -0.09930926204)
(-0.1134469904 -0.3995892796 0.12655706)
(-0.0566491568 0.3672513095 0.1112723871)
(-0.2765725635 0.0308900029 -0.005269727764)
(-0.1671192489 -0.1601900847 -0.0004370709823)
(-0.1033685546 0.1198320092 0.05851594683)
(-0.1996552559 0.2059331369 -0.02642399712)
(-0.2091838178 0.04813002912 0.002526209531)
(-5.85430135e-05 -0.2089383787 0.05693219559)
(0.04735682167 -0.07155820068 -0.1348665179)
(0.2542803825 -0.2601662923 0.2313130676)
(0.3557335378 0.1145704332 -0.03906440894)
(-0.1538018146 0.01132113133 -0.2306256771)
(0.03741686698 -0.01815722754 0.03572748484)
(-0.124862926 0.262670677 -0.1361074278)
(-0.1747261968 0.05839910633 -0.1915818239)
(-0.2622623369 -0.1335427929 0.1067325862)
(-0.06692418437 0.4238284128 -0.03298042549)
(-0.1381412044 -0.2310436427 0.02095832266)
(-0.180678333 -0.3062307795 0.04440078922)
(-0.07307673852 -0.2473081942 -0.06924854983)
(-0.2181122608 0.2070719886 0.07767716489)
(-0.0542459671 0.02522007154 -0.1129427253)
(0.08015521649 0.2675652599 0.1641734757)
(-0.03023648508 0.08172533512 0.1627470057)
(-0.1384383024 -0.03349405879 0.1039383055)
(0.1467346791 -0.1677178269 0.07582786568)
(-0.2134425068 -0.2152527706 -0.08794190224)
(-0.2795061507 -0.01049175995 -0.1034453981)
(0.09598759443 0.06981530671 -0.1050793112)
(0.1480895465 0.0490707493 0.0535482027)
(-0.07955002184 0.1084904947 -0.09447860784)
(-0.000903105946 -0.2467719905 -0.02123202455)
(0.009527629617 0.1651325086 0.2257082284)
(0.03490673318 -0.0002084758362 0.2447631386)
(-0.1244273502 0.09011261264 -0.2414589203)
(0.1039796122 -0.02682390767 0.07946537843)
(0.07301462498 0.08800365522 -0.1758413783)
(0.3041986804 0.4045854276 -0.04313387085)
(0.1405867927 -0.01037973786 -0.1292523349)
(-0.05346399994 -0.3133915764 -0.2779342124)
(-0.03738411021 0.1303803836 0.07734661275)
(-0.3818296454 0.1003791772 -0.005920385451)
(-0.05300421291 -0.2821812918 -0.08671291488)
(-0.1684106974 0.09837546288 -0.05188296124)
(-0.09123052369 0.01617430374 -0.2877325013)
(-0.3095469918 -0.1071384935 0.1178294895)
(-0.1885194963 -0.02281608556 -0.08625972173)
(-0.1519846071 -0.1897083811 0.1218549439)
(-0.06303305729 -0.4458700133 0.3868197078)
(-0.1385965683 0.01143337993 0.09782343963)
(-0.07523085988 0.3962202345 -0.09335319464)
(-0.07937374454 0.1658712068 0.0953060388)
(-0.2547277239 -0.06819932443 -0.1014788534)
(-0.1157811193 -0.07376813317 0.306115841)
(0.1735396204 -0.05024261845 0.03958862016)
(-0.09905297184 -0.05654152236 -0.09331172129)
(-0.1501949677 0.1576504306 0.3432324418)
(-0.2147680054 0.1471679918 -0.07404856808)
(0.1492543101 -0.07606035946 -0.02104216625)
(0.179782158 -0.22566011 -0.1475032149)
(0.03303639699 0.3770148218 0.03052887732)
(0.2934382388 -0.1162497311 0.2051469127)
(0.06032431214 -0.2471207855 -0.1474285193)
(-0.0640102007 0.1135704875 0.2021038876)
(-0.3732777604 0.06495338607 -0.06875483522)
(-0.3805120442 -0.02359686461 0.1069832029)
(-0.1166839281 -0.08420749849 0.2082627538)
(0.03581172034 -0.1544135349 -0.2991259736)
(0.135824605 -0.05081268953 0.04605579089)
(-0.329616835 -0.04256459935 -0.05473126175)
(-0.1652273739 0.09606974406 -0.0962853083)
(-0.1910120665 0.1619969052 -0.225476396)
(-0.01969165031 0.3149275054 0.2374399845)
(-0.04036270088 0.08991469137 -0.07208677761)
(-0.3529705667 -0.09683468295 -0.2209058404)
(-0.09107601012 0.1059751579 0.18802607)
(-0.1392302141 -0.07619631201 0.08473956994)
(0.05424175744 -0.1928984777 -0.07466512611)
(0.04016631728 -0.009608019181 0.03279934416)
(0.3361204319 -0.218271194 -0.1143236)
(0.2219217404 0.1736860002 0.1294934044)
(-0.0901075674 0.04857735209 0.02144399265)
(-0.2256146399 -0.1155895458 -0.237049188)
(-0.1241707028 0.01394532448 -0.1712927732)
(-0.1605332416 0.2116729928 0.1361874408)
(0.01395088827 0.1846663626 0.06602346775)
(-0.1514449223 -0.07771304663 0.01159484573)
(-0.1989073786 0.0001557487811 0.1563962297)
(-0.1408442149 0.1360144925 -0.09235665103)
(0.0217350667 0.1188946567 -0.09504983563)
(-0.03008833367 0.1750930109 0.1329855866)
(-0.2639341404 -0.132984063 -0.2577058493)
(-0.1037479247 -0.05966204224 0.2143867523)
(-0.08541303256 0.07844504042 0.007441200541)
(-0.1494214974 -0.2863356824 -0.104495625)
(-0.2573650217 0.3137716335 0.06509426677)
(0.007239204638 -0.3129882654 0.1399087365)
(0.0416284281 0.04286283974 0.1211092458)
(-0.03328062788 0.2188580674 -0.2095070641)
(-0.1887263198 0.01101564087 0.1064041698)
(-0.4318335393 -0.2139828146 0.09074443013)
(-0.4767655262 0.1022818522 0.07170552294)
(-0.3934038147 0.1430729216 -0.1186751491)
(-0.2762321493 -0.02196215991 0.124755485)
(-0.5211284422 0.159105674 0.07891833016)
(-0.2085241472 -0.548101181 0.01738085568)
(0.043495017 -0.2345246061 0.08227966945)
(0.06678660676 -0.1369838271 0.1345982228)
(-0.1282303499 0.4049330368 -0.1652914671)
(-0.1960283056 -0.08843137296 -0.049391828)
(-0.04117697772 0.09916766622 0.1606343747)
(-0.1161448438 -0.1030702023 0.1643316341)
(0.08383917214 -0.1408128449 0.1449567447)
(0.1191453735 0.08409210001 -0.1881988391)
(0.09893308824 0.1524001835 -0.2500431066)
(-0.2143315681 0.09990475534 0.09482807024)
(-0.06002009912 -0.04962387742 0.05002549833)
(0.08748904542 -0.1841549667 -0.05661093225)
(0.1832817383 0.2987082008 -0.2129843941)
(0.06970946023 -0.01320443366 -0.07631176816)
(-0.0002285643204 -0.1050848563 0.2781689239)
(0.1478701896 0.02344730498 0.1647193732)
(-0.01670317372 0.06098911941 -0.1547447924)
(0.1205394194 -0.08958891029 -0.1148571376)
(-0.02791729095 0.3353592209 0.2095431507)
(-0.1165436422 0.1840954818 0.05808242545)
(0.1021651571 0.005208292651 0.01448478164)
(-0.07024225042 -0.06733754765 -0.02711815718)
(-0.4643577713 -0.1615646286 0.1153694743)
(-0.1907403932 0.2248829223 -0.01692203631)
(-0.1650373656 0.09816285585 0.0270798219)
(-0.3445046159 -0.1577619208 -0.1729712892)
(-0.462494537 -0.0468506561 -0.04980206875)
(-0.3419028868 -0.1495954208 -0.127651001)
(0.1434700415 0.04460995012 -0.1402207419)
(-0.1724050431 0.4630731893 0.08749476427)
(-0.1323200717 0.04237738099 0.06702870437)
(0.007968411175 -0.3679107317 0.004769967295)
(0.04527183139 0.108223182 0.04470922969)
(0.05397362254 -0.03936409373 -0.05929334522)
(-0.06261646484 -0.07260726239 -0.04504687584)
(-0.2606861931 0.1793886435 0.02414884412)
(-0.083346981 0.3473894077 -0.1143193871)
(-0.2850095065 -0.0794303939 -0.1467068846)
(0.1192110679 -0.2235564455 0.0958961222)
(-0.1374680774 -0.05485282104 0.01205893597)
(-0.1352868817 0.06835443339 -0.04371033034)
(-0.07453440015 -0.1680220971 0.03088058387)
(-0.05724423345 0.2333823939 -0.1489561656)
(0.003457511278 -0.2767580108 0.1348538223)
(-0.1876986451 -0.1128214673 0.05959146641)
(-0.1656874184 -0.1092881906 -0.06971501873)
(-0.259527758 0.08659699392 -0.2341794022)
(-0.2019900113 -0.08427759565 0.1263767078)
(-0.05108435079 0.1105737383 0.1908179571)
(-0.01503395268 -0.03487990152 -0.06557283101)
(0.1626152628 -0.07309711222 -0.1812434682)
(-0.04674356414 0.08251460751 0.1277998707)
(0.1129073152 0.2301615688 0.008780404283)
(0.02477760841 -0.2191568245 -0.008077552369)
(0.07781282834 0.04564031033 0.1628191442)
(-0.1460269766 -0.4915396559 0.007747740103)
(0.2521405536 0.08350603084 0.01001539355)
(-0.1162497853 0.009460036725 0.07664561524)
(0.2984002776 0.05063468772 0.02742094725)
(0.1906319086 0.372207929 0.1275346792)
(-0.04645618164 -0.07431458761 -0.2941536937)
(-0.1542571966 0.09059811359 0.03151592879)
(-0.3933711032 0.06674556382 0.04841833251)
(-0.212518704 0.06292600061 -0.2171550318)
(-0.3557474444 -0.03465451499 -0.09896728925)
(-0.3715542823 0.3205018854 0.2279168545)
(0.0638576985 0.03157743188 0.009355320539)
(0.08022222817 0.3372070745 -0.2625496998)
(0.1306143131 -0.1923618195 0.08646431226)
(0.3743910396 -0.04399238624 0.1107939614)
(0.1524359459 -0.0671879353 0.2684625399)
(-0.1123415433 0.05240773119 -0.03172188728)
(0.03950452254 -0.0366151741 0.1007358279)
(0.002742333627 -0.1533504392 -0.1403288964)
(0.1028235071 -0.1706370622 0.02234586691)
(-0.130459437 0.1180508775 -0.2154414876)
(-0.04235074567 0.04080902805 -0.136845084)
(-0.1991357622 -0.09197865285 0.2637347145)
(-0.2635276747 0.0668664422 0.01613122031)
(-0.1857226849 0.2857114518 -0.04066601913)
(-0.2289585644 0.2260007018 0.1170716149)
(-0.2565493449 0.006446736016 0.1168050617)
(-0.1956603013 0.1308783484 -0.06733766885)
(-0.04423728429 0.009826346181 0.05162483411)
(-0.1170309587 -0.05890983952 -0.02115432998)
(0.08221038411 -0.03103122 -0.01666364244)
(0.07848346264 -0.05458398787 -0.1574699409)
(0.07621206073 0.1473010263 0.05194678839)
(-0.1869037068 0.04103091188 -0.1150049737)
(-0.164213431 0.011055185 0.1561772807)
(0.04793111613 -0.08254933897 0.1743158407)
(-0.2240765657 0.1928849202 0.08138732829)
(-0.2475322135 -0.03307322802 0.1567219203)
(-0.4145348896 -0.2006194052 0.02930120975)
(-0.3480992597 -0.2530903564 0.2660527788)
(-0.4779853912 -0.08566168837 -0.0604410678)
(0.003761186967 0.1616282054 -0.1990558211)
(0.08649805785 -0.2559598997 0.2000537855)
(0.1079680152 0.1196731137 -0.1915459336)
(-0.04392181713 0.2878414935 -0.1287457767)
(-0.05034278019 -0.06391017185 -0.1231206562)
(-0.1210556331 -0.07912533747 -0.1683067017)
(-0.2596118736 -0.2319254014 0.01062636217)
(-0.1733391476 -0.349747391 0.1677573285)
(-0.2656068902 0.1492003381 0.1674919437)
(-0.1186325774 0.002099185117 0.07195953564)
(-0.3492044921 0.06580142237 -0.1851992593)
(-0.2674442087 0.1294739333 0.0763718889)
(-0.04966970396 0.0004799044567 -0.07184071439)
(-0.04771165083 0.06426435374 0.1086214168)
(-0.02496695427 0.1652523968 0.05304199855)
(-0.08994869606 -0.1682127996 -0.07189420013)
(-0.2325442539 0.02359236402 0.2895244374)
(-0.5727714208 0.1201214547 -0.07129901854)
(-0.2539774272 0.05317082881 -0.03508363539)
(-0.2562799704 -0.1795205878 -0.02536133416)
(0.04353402138 -0.005936131385 -0.1559535838)
(0.2450044188 0.2942167778 -0.05749074982)
(0.1620987092 0.06061502959 -0.1579261667)
(-0.1018321021 0.01912808912 0.08220530596)
(-0.1876554658 -0.1777957414 -0.1129360978)
(-0.2697291867 0.02000376357 -0.05613216083)
(-0.08183470477 -0.1401871663 0.2777065439)
(-0.08343292201 0.1762631296 -0.1601399903)
(-0.09208236386 -0.02467507276 0.1356363914)
(-0.1094803881 -0.3441687587 0.03330037449)
(-0.02455895421 0.1636564478 -6.363581279e-05)
(-0.1567751012 0.07080088343 0.02066706006)
(-0.1480428331 0.08281270515 -0.07259678504)
(-0.3285696834 0.01899797564 0.1903740471)
(-0.2158289888 -0.1351895395 0.01184667978)
(-0.1072963911 0.03630892278 -0.1119899006)
(0.2854815498 -0.08962633281 -0.1389959285)
(0.2111618451 -0.05034175508 0.217985838)
(0.06013906522 0.1817490828 0.02825472573)
(0.3819800816 0.1318836059 0.1312989994)
(0.215077232 0.02314779237 0.192604837)
(-0.3165319253 0.0618517048 -0.04235892356)
(-0.2441947745 0.03519262277 0.2138741772)
(-0.06990180048 0.0948468461 0.114346674)
(-0.05150811238 -0.1322881888 0.003881673011)
(0.2149051921 -0.190337662 -0.09845949869)
(-0.07155240768 0.008646740381 -0.08283738058)
(-0.286575883 0.1401620373 -0.03202797677)
(-0.08866287217 -0.03320098325 0.1030221894)
(-0.3349227582 0.2772700782 -0.2651837399)
(-0.08383217189 -0.07588615048 -0.115915544)
(0.00793733726 -0.2285857812 -0.04831182037)
(-0.1047596858 0.06623000231 -0.09541689666)
(-0.1211347606 0.04340733414 0.1398153016)
(-0.09628562623 0.2625871426 0.039975353)
(0.095137034 -0.1325856349 0.005832943685)
(0.1772309759 -0.0661473483 -0.2355442479)
(-0.2669036025 -0.2147407558 -0.06269938358)
(-0.03368281772 0.04034989487 -0.08431044314)
(0.2136615171 -0.01425349348 0.1392848026)
(-0.1299428701 0.2064808183 -0.1255791688)
(-0.2661996082 0.02604259818 0.07030464081)
(-0.2437245729 0.2773808853 0.05200533831)
(-0.1281387309 -0.26173844 -0.001488914341)
(-0.1830113895 -0.02313241614 -0.05933403363)
(-0.3545106876 -0.1739086874 0.003500921254)
(-0.2706294184 0.1386151402 -0.01404611277)
(-0.3760121671 0.3926878878 -0.03040830681)
(-0.2519247877 -0.41189665 0.1281870774)
(0.01369662066 0.04624408184 0.1481178129)
(0.1244947474 0.1265023462 -0.2029683317)
(0.2171525189 0.0468983491 -0.08312821939)
(0.2609871263 0.2562668239 0.09630818757)
(0.1480607085 -0.125535626 -0.1527462283)
(-0.02385047412 -0.05522547417 -0.2175440106)
(0.1121831601 -0.07872432508 0.064593635)
(0.2215043879 -0.3184069956 -0.1288672574)
(-0.2077577186 -0.3134179889 0.2401792767)
(-0.07021481947 0.21181215 0.05585701585)
(0.07431448262 0.315693356 -0.03862309299)
(-0.07918950199 0.02585302552 -0.00278103488)
(-0.2178128495 -0.1178179196 0.03357294839)
(-0.1488313047 0.104503892 -0.04850837197)
(-0.009607476372 0.144137189 0.05235835634)
(0.03100451099 0.1628843217 -0.03129346219)
(-0.05778572751 -0.151849211 -0.1841205476)
(0.003399363905 -0.2831246939 0.1075413747)
(0.04745842318 0.08823673998 -0.1994332147)
(0.08255487921 0.2980768442 -0.2293334592)
(0.07290658565 0.07032626881 -0.08216279204)
(-0.1143002135 -0.2301256962 -0.004405363086)
(0.006564054483 0.08681566516 0.2659849984)
(-0.2153231235 0.0180386866 -0.06090353974)
(-0.004375824701 -0.1474122386 -0.2087760895)
(-0.08241757807 -0.229481976 0.07812978987)
(-0.1692071005 0.1413045039 0.1551473765)
(-0.04307122386 0.0781795484 0.09761049699)
(-0.0431885086 0.08786765967 0.101271447)
(-0.1996269219 -0.07345500615 0.1040353167)
(-0.2658746695 0.2054542087 0.0134008347)
(-0.2136423034 -0.1336254461 -0.1683296964)
(-0.3229712767 0.1684463682 0.06101867555)
(0.09791782306 -0.1164637045 -0.2466522233)
(-0.03250943532 -0.4411029791 0.07488682476)
(0.08158700048 -0.3593726043 0.2383542514)
(-0.2371236311 0.2992778752 -0.1033436648)
(-0.1655431706 0.2537978643 0.1054119441)
(-0.0156016737 0.1221891353 -0.1404458829)
(-0.3237839279 0.1134730129 0.0159998476)
(-0.1865214913 -0.300438514 0.008419791969)
(-0.4314506421 -0.1114586554 -0.2071639767)
(-0.5544538687 0.06800060873 0.04352786813)
(-0.5941167328 0.1567966944 0.2420611514)
(-0.4000772202 -0.04411100092 -0.1674798405)
(-0.2161977312 -0.1350786558 0.02111059467)
(-0.1137333433 -0.173175061 0.09380348661)
(-0.2535874789 0.1936986865 -0.09434527289)
(-0.1682571741 -0.3809852741 -0.0806739972)
(0.2501514753 0.009260618034 0.04691398041)
(-0.05015079287 0.06548594161 -0.01127571452)
(0.03335131067 0.2444122233 -0.03616593019)
(-0.2414527031 -0.135804537 0.001053991706)
(-0.02154894217 0.4169234494 0.005772969947)
(-0.0755683915 -0.05345089848 0.03492165928)
(-0.3930566609 -0.09201969008 0.0493428683)
(-0.1786734655 0.3870486636 -0.2180828031)
(-0.2404945069 -0.1155067846 -0.01104504993)
(-0.09277435516 -0.07256506248 -0.04098276259)
(0.0733705147 0.07295892609 0.05894405887)
(-0.06129719038 -0.06381798546 0.1794818651)
(0.124345093 0.034138826 0.1595825923)
(-0.02032153559 -0.1529224837 0.08173342253)
(-0.2045612836 -0.2274317187 -0.2732690503)
(-0.05441198972 0.09397058016 -0.2062516491)
(0.3411999302 -0.1303579076 0.1292913418)
(0.09970515054 -0.1133380052 -0.0450801079)
(0.1573991745 -0.1356729484 -0.06227641462)
(0.08015642243 0.01453710153 0.03890998564)
(0.05845602994 0.1800728834 -0.2382688282)
(0.1514646489 0.1893071174 -0.01434397338)
(0.06212424142 0.1453019739 -0.02222175673)
(0.2995676954 -0.06927093934 -0.07732239577)
(-0.1369480924 -0.1424018058 -0.07132959671)
(0.05506865536 0.2466979648 -0.03026155794)
(-0.0987403703 -0.1537390642 -0.0808464521)
(0.01524532332 -0.2506940229 0.0267469138)
(0.00375799053 -0.09462470884 0.02527305902)
(0.005280853595 0.01586045523 0.1153187121)
(-0.03285662019 0.1067670334 -0.001935755734)
(-0.1448418616 -0.2615882084 0.03413639952)
(0.02810339849 -0.009990579405 -0.1945303042)
(-0.1191188361 0.07727355808 -0.02477037278)
(0.05707417452 -0.09007865134 0.009262105081)
(0.1031123638 0.008586902045 -0.1402439165)
(-0.1577620807 0.07029264326 0.2171465365)
(0.08975836492 0.2321791807 -0.140534443)
(-0.2013894169 0.2279832079 -0.09438349088)
(-0.2194036301 -0.1627474925 0.05914392441)
(0.02107954786 -0.186041884 -0.1929443766)
(-0.3555090027 -0.08855107185 -0.263525041)
(-0.1829359615 -0.1960177962 0.08332040002)
(-0.1705805511 0.1636842673 -0.03454013358)
(-0.3919372139 -0.1216789183 0.001066744667)
(-0.2214951576 0.2149323181 -0.1324939261)
(-0.2330960588 0.3212500556 0.1264274985)
(-0.3030892185 -0.07953273068 0.067273338)
(-0.2374976067 -0.02336073619 0.1745934176)
(0.0006967857409 -0.02287026092 0.2745515893)
(-0.1754984609 0.1811300393 0.04221093983)
(-0.206405564 0.1694236547 0.04582115486)
(-0.1266733255 -0.3458659922 -0.046891545)
(0.09332987917 -0.007717829486 0.09812842988)
(-0.1167948688 -0.1452979893 0.007487575666)
(-0.1214348117 -0.237308505 -0.07897470326)
(-0.2800769257 -0.1421665906 -0.08915518293)
(-0.008223556744 0.1427058623 -0.139440438)
(-0.09088102933 0.1212183089 -0.1023321554)
(-0.2578314758 -0.03304315307 0.141225781)
(-0.3926543136 0.001954158545 -0.04425607803)
(-0.2506633459 -0.1694367809 0.01058584868)
(-0.1405720416 0.1032262299 0.05484705635)
(-0.3451227265 0.05185290937 -0.05353778951)
(-0.2659483712 -0.05052561789 0.3858761961)
(0.008989879502 -0.1324859669 -0.2807367839)
(0.2183608771 0.1329624317 0.008364806628)
(-0.06628525939 0.04105670738 -0.09131213919)
(-0.06738150188 -0.04231075307 0.04083925422)
(-0.2416485348 0.004683520861 -0.1835031217)
(-0.01479727629 -0.0677275348 -0.03296362858)
(0.02621266464 -0.3700303779 -0.07304292326)
(0.1201140753 -0.01928883862 0.0474936304)
(-0.04767882102 0.3007478428 0.08118074782)
(-0.09286119095 0.02769235481 0.03389335193)
(-0.166367464 -0.1444435299 0.08554368029)
(-0.07571447875 -0.01801064471 0.03908784523)
(-0.03080578344 0.05847633747 -0.1036756523)
(0.2235234495 0.2393935608 -0.2984546498)
(-0.1080545834 -0.07156609102 -0.08665934828)
(-0.07215546543 -0.005589975279 0.119227062)
(-0.01627898616 -0.2519938497 -0.02883112156)
(0.2086519837 -0.2422959002 -0.1563086943)
(-0.0296950379 -0.02629041997 -0.1354561417)
(-2.278898791e-05 0.09720082393 0.07963185924)
(0.1220686757 0.3798001725 -0.03826182102)
(0.2254646625 -0.2033757017 0.01534462495)
(0.2116271896 0.09488760176 0.3031255159)
(0.17538357 -0.2981111934 -0.08954043651)
(-0.2164216406 -0.1757005211 -0.0103923284)
(-7.516402787e-05 0.1150443738 0.06319776526)
(-0.1497878173 0.1268337137 -0.003888390142)
(-0.09015879825 0.03235054964 -0.1684821213)
(-0.1912570594 0.1119451009 0.09020159267)
(-0.2251929722 -0.103998983 0.222030979)
(-0.08510870222 0.1258135942 -0.1673732037)
(0.03365929816 0.1488740087 -0.03127685825)
(-0.0480608751 -0.1594559939 0.1549319668)
(-0.0145676402 0.152332212 -0.1068580885)
(0.1810700628 -0.2188660166 -0.01105679835)
(-0.148302188 0.05656330705 0.01533675375)
(-0.1764054265 -0.4131415417 0.03739725615)
(-0.3404064828 0.1294073131 0.0249825153)
(0.03147738245 0.138946226 -0.01679629388)
(-0.1000030199 0.05730341607 -0.05616933746)
(-0.05719298568 0.1051740807 0.1830965477)