/*--------------------------------*- C++ -*----------------------------------*\
| =========                 |                                                 |
| \\      /  F ield         | OpenFOAM: The Open Source CFD Toolbox           |
|  \\    /   O peration     | Version:  v1706                                 |
|   \\  /    A nd           | Web:      www.OpenFOAM.com                      |
|    \\/     M anipulation  |                                                 |
\*---------------------------------------------------------------------------*/
FoamFile
{
    version     2.0;
    format      ascii;
    class       labelField;
    location    "7.9999999999/lagrangian/dsmc";
    object      origId;
}
// * * * * * * * * * * * * * * * * * * * * * * * * * * * * * * * * * * * * * //


47648
(
5721
44345
46584
12868
3678
17884
10255
20282
45665
8026
39067
37416
36848
44130
13985
8131
35050
47317
5342
35856
32990
22689
396
26181
25907
35837
5285
5833
27350
287
6296
17678
19390
4009
6702
39628
44639
2948
8878
16192
16440
38309
30104
19802
30832
40566
26885
31957
20073
46183
5529
19237
40039
10699
24793
28805
13133
16082
45320
31158
13564
12057
34405
27064
26800
34537
16760
10102
5764
45313
29902
4575
15364
45988
14230
11847
15161
31234
24219
27776
45384
7955
1077
23761
34492
41539
37451
36333
4956
45143
46791
9907
23703
21124
20038
36715
2845
9831
12891
73
29143
1459
38057
28371
39134
19773
26272
36006
30367
41778
43377
9005
34069
46850
41605
15476
2554
40831
3793
39128
10582
13775
25947
6567
12155
39800
21896
20206
39950
35180
44691
27077
5701
32086
22709
6807
30224
31463
10314
11226
41246
3532
41334
27794
38855
2068
44696
45895
46563
38291
19604
2834
22449
15754
23360
25850
27597
39770
7981
23881
35142
9194
26990
25951
36831
3719
24673
15410
1200
1384
31447
18853
16473
21331
9432
33241
4207
31851
30599
42966
41902
4990
30652
16438
24720
29738
28829
39415
30018
42694
27492
19416
31960
17493
13983
31532
30260
1823
9786
566
43241
33571
32344
10763
30596
41559
35841
6533
14104
42641
34881
14708
7009
42975
21702
21710
859
15049
5573
32336
22936
39385
13749
6734
37261
32657
36915
32038
41540
36621
6770
28121
12240
37696
8015
26003
16332
41025
41553
12532
15898
27455
4485
45440
28928
13391
39496
22466
32032
8508
30215
20354
13022
21377
10806
19595
39876
40798
37879
7285
12324
33396
44476
4398
14480
39833
3894
24167
16054
715
23507
44632
1733
26789
24803
19187
3233
43121
6798
14897
31866
46421
18389
14639
19676
31243
41050
1173
12442
14832
19413
40152
2433
930
18402
15555
45124
20546
30409
40757
7925
15381
27004
5811
31730
1530
3252
9430
13694
32922
20021
45859
6436
45662
40610
5049
13143
46870
33059
14782
33817
27742
5570
1407
36553
43194
25630
29088
32031
19182
35476
7219
10922
37664
8561
26390
5161
2205
4217
38246
28677
38960
31003
4153
5728
9315
34240
268
6327
32872
34709
7644
5671
12072
44640
34550
4664
43635
42862
18304
42284
47095
35242
24142
31090
28860
16003
29632
29558
9917
11414
26080
33678
45929
41321
37322
21320
39416
12944
46089
9231
35333
26578
19418
11824
25044
24397
35722
8221
8352
25647
13330
3693
22524
28973
9236
14460
31154
24737
41046
44898
41720
9787
24434
34707
27338
18311
7007
17169
20972
21197
6747
33078
20210
27346
4105
38335
37670
14813
18492
11035
41995
16006
903
29781
1161
33620
39486
21276
19357
17055
15862
15671
28202
7311
26424
39091
28835
13508
10480
29677
44368
22272
19538
35029
4080
33328
6336
44464
42053
3507
38790
6250
24258
6877
7024
34380
6045
27707
13363
23139
28840
30563
35511
17011
26139
10840
19833
4376
32777
17957
45466
43610
30458
7080
30301
7542
41255
31368
46389
40433
47343
17629
44025
42604
28291
24230
37891
37358
39245
28361
45882
14745
5603
15579
2851
18055
38041
47074
25156
15207
31204
17271
15609
36996
27482
44647
31892
15328
4492
44341
28468
42373
18741
30628
34941
19685
35724
27586
4914
44004
40400
17801
39921
37097
35748
16742
46902
31658
45051
18626
39168
27677
38616
2745
14320
13536
18075
9348
8989
45896
4561
13276
5640
25642
14621
20669
37610
15819
21218
8480
39092
22946
34363
31145
15814
39830
30087
3462
15485
20426
22439
15984
32752
22853
46461
21535
33117
15093
35878
46374
14188
19842
45394
14232
8203
41266
47107
18315
13088
33346
18809
39249
29177
265
29919
44733
38078
9486
24321
45553
33973
17494
41386
43977
3945
27475
9288
17089
12959
33215
2633
20797
31390
18000
9319
12973
14966
38038
45991
12646
7672
42305
26869
30833
13188
18458
23170
18319
27932
7325
31270
8411
5853
27784
27112
8962
40993
23495
22782
216
32181
46907
36227
7209
36780
10093
23120
20786
3218
38550
8424
16914
7789
478
20479
9674
22049
6970
44334
20895
24198
23651
44734
7005
33280
41882
32949
8604
44073
21177
10747
37252
22786
1587
6754
43054
36987
7462
22921
10066
16649
12395
8594
39
44259
1218
22298
5869
26081
14610
25819
41999
15658
36955
40615
17908
43471
16931
20656
47625
20363
12675
22676
44839
1694
41459
34794
40471
34948
38813
7084
7905
28931
22699
31437
23824
3690
11352
8579
31778
25381
4669
2145
38780
44493
31925
5134
5519
41782
36503
28238
39495
3429
21099
29463
42837
34457
8809
4898
34787
26197
17699
43594
6143
14465
19575
28809
10016
40132
7575
37572
45033
35676
44662
12931
11317
6820
43550
41569
16504
47190
5450
4791
8042
27534
27220
29142
6273
1258
26584
3006
35221
2346
15726
46039
40452
18603
39244
19810
42665
6789
9217
19327
22690
11492
34577
1215
8600
44388
5338
37868
33799
39109
42771
25264
38742
43226
4205
20190
13916
3239
6081
45258
6347
2612
36011
10189
16498
23582
16025
18904
46459
3633
34939
7373
40635
31779
13272
40322
27808
39499
38756
24240
4765
11694
18199
32201
687
25000
33243
12838
37150
26764
24132
22972
10653
20385
6434
22403
4285
24492
18565
32867
23080
13379
39892
38486
5494
42034
6211
9984
2369
36368
21981
17175
15147
709
26014
30343
46253
20326
5678
20447
33955
44386
17792
12960
45878
41366
21979
32569
13132
17812
39980
16309
8333
37780
32941
46506
19439
1412
10153
11077
18984
12099
22200
38766
47456
44716
36737
16226
18198
47388
34877
4062
38349
10622
40849
2936
38260
35779
6660
22522
39337
34066
26563
14793
41603
19432
12481
24445
14681
2956
14943
7982
36502
11403
12906
33384
35429
18213
16704
21169
2641
27537
46261
29208
7239
39979
15065
23844
14108
35859
47167
38567
34241
33065
41488
32176
12472
10687
43552
32322
490
15805
31682
18485
4189
16916
2667
27221
35379
41827
5871
41427
16466
40795
17733
699
27896
32113
33377
46357
42981
27335
40014
43150
5590
20575
1184
27067
44014
30334
37414
39577
41811
6328
17376
6192
1897
7397
34050
14646
8900
43717
20840
40695
16860
28088
20321
22416
8
3267
37876
10218
11313
3469
783
11074
28773
17191
43374
26639
2351
38139
18678
15854
38404
1086
41988
27522
14384
45204
34747
6115
34919
5637
5560
35275
18890
4271
34244
16157
25615
28317
36742
12623
6369
28888
25837
16959
8972
28911
22345
4734
28990
20296
32343
2515
39294
3463
11141
32278
29018
2193
13670
13658
41668
35570
39155
31628
4019
14353
8539
44276
34611
38987
29651
20800
46379
19400
45932
943
7299
41571
12516
40
24521
44467
7489
31594
31517
19910
8897
39425
33008
1142
27967
19551
23277
31292
2050
17375
14568
16977
13361
38764
30561
24887
36520
38907
1231
20755
24101
20356
39680
8841
32776
9460
16610
7470
36301
29191
18355
28742
24599
29323
35900
46692
43470
15797
18860
6308
25853
38321
42586
26295
40928
5948
21076
10575
25728
37599
2046
25180
15129
38130
10680
17855
26334
38323
34992
47223
19300
41232
46385
1376
29544
37061
16545
31544
23468
46352
36208
40670
32364
28848
34569
34635
154
42850
12090
11616
32411
1425
37642
20215
5089
27820
41653
11094
11912
30162
31472
29737
24108
47533
3725
38998
33058
31762
8371
31895
15806
3129
16870
27097
2608
28721
8238
28229
3224
3361
333
1874
6140
6154
41675
45720
26827
10521
33020
26236
24889
39039
20583
36542
17729
37753
1577
40833
32600
16684
34443
45385
30271
6223
31698
21654
43289
2299
14008
13297
26087
29993
6487
26672
43387
21571
942
29180
39686
25668
22795
4907
17787
24238
31376
20292
8643
32683
11354
3455
26863
8043
39395
29635
39462
42033
45846
7896
29984
10516
2777
42935
42561
9567
43201
44062
13836
19261
25535
4401
47454
2383
15231
40602
2977
13158
34714
30548
24950
6352
45222
24231
27001
29576
179
9827
30955
36056
33428
41443
13964
44957
7782
43384
3030
18054
9198
714
28924
36070
6272
43383
5958
20184
20442
41116
31140
32367
22339
40840
14926
773
28044
6072
40525
13728
5361
29792
31750
22178
15569
25602
7920
3590
31290
12562
27858
29406
35078
27622
11102
24864
15208
41948
42676
45121
36595
25172
47578
29618
19823
25299
43178
28704
28712
10489
30229
563
28162
21362
40700
41385
35482
25105
8019
21840
30356
20653
7160
32678
5114
2448
13632
36675
617
13241
23847
21210
15890
4869
12450
28462
12131
32527
17365
47570
1360
7013
37792
25249
13625
11835
9200
28375
45591
33415
44121
37110
12016
32224
850
1615
31346
41351
26227
17963
8320
39573
8261
2954
20799
20115
30288
41140
42136
19474
22832
21463
23742
23257
21229
31498
23239
5143
41215
33685
39714
45304
22933
43993
6303
8410
23523
37191
29508
11635
6942
47477
39532
37366
8319
29166
13136
39066
1012
33186
40336
1368
43790
45338
40282
13962
41922
21223
24764
46069
17982
34744
5432
40977
2376
25659
5020
5630
37491
7627
46312
8377
1133
31992
17482
25146
11348
25585
29629
41931
3334
14043
19902
26365
706
1830
16382
2303
92
44981
14463
30744
2698
8337
40810
40029
25503
40044
43544
12751
40321
14991
11968
39677
7255
9934
8036
4248
36966
10107
34210
42681
30200
18669
14834
19867
14409
28728
12233
29174
39836
32353
1021
7507
26704
3988
15873
5422
47156
1035
34385
8826
10817
15199
33192
11048
25376
38061
30694
37192
3373
1819
27251
36347
3756
43438
6619
14478
28027
7253
41544
33937
17154
8947
21671
6675
38177
11311
9321
3291
31198
34455
12849
32428
22072
36120
21096
2400
2848
43729
36992
32792
22935
16304
24987
8233
7630
33150
12905
20013
2896
38133
13356
11143
21600
16323
4413
26112
25165
24820
24832
34921
23223
9205
375
1281
27218
21672
12027
35640
5170
12716
15694
29909
30193
31861
15052
37769
44812
43985
33673
43911
7601
42920
27608
39330
13302
23649
17242
8743
37169
21522
30472
41171
37060
11914
16826
19563
31998
37226
46216
937
3157
17002
1495
26866
16753
28285
34005
22314
20316
46369
44749
18280
17299
44982
23804
28681
10506
28845
39255
1954
44847
27327
25665
44986
44237
6687
8653
26829
16185
45699
40826
5397
44735
17576
13249
14092
37400
5403
32829
26785
28955
42967
1537
3572
38720
3550
17842
3986
39717
14218
1509
7858
7652
14398
43846
6977
9684
34946
27778
23074
44992
19224
28822
21537
697
20722
2252
27569
39775
39934
4473
15305
45467
23276
30711
13459
16399
19527
37811
12900
2485
24103
15436
42207
42680
9616
31232
33081
4677
27485
44385
7917
3060
28553
25005
29123
22891
38810
29710
31314
32874
17160
25676
8145
29784
39273
33717
41098
30109
43487
25420
22940
40060
17829
428
43490
43740
10113
11630
467
15276
8443
18303
32112
39838
41373
42202
2798
28384
7780
14882
40139
5981
22126
36838
29209
20854
21040
39038
27044
3277
24331
31299
15643
35279
42949
20213
3148
1855
1998
45202
34846
20133
39724
10798
9884
2616
29753
46315
4382
24914
28909
11944
38505
9791
26352
41970
43531
13800
12359
4034
28614
12514
12899
4608
46492
40354
26296
43093
37455
45203
43299
18782
7056
43697
42922
24458
19048
45704
31796
45744
21399
16584
39896
20110
28601
11130
3766
38255
13271
11487
8507
5032
45087
43391
37557
46481
14593
5936
47083
23591
6060
19
34592
45377
10432
34797
30913
41111
5240
20012
22793
2792
29410
18661
26797
4350
12117
33675
42468
7149
39025
29807
21636
21225
38888
19783
29066
4991
10932
37689
33843
27263
9371
15844
32884
11128
13621
45583
16326
35230
196
23250
853
13753
21364
1517
44558
45419
9455
32952
20778
36257
26988
11717
47017
8724
29126
19095
8745
17257
45195
318
20762
2735
7840
474
42261
6368
43699
29387
36757
21515
24307
10871
25672
29072
12870
21321
1279
13795
25375
13741
10529
35820
8363
28363
13754
12586
5394
27712
45800
12275
24661
26814
2945
44292
15841
34357
8315
37573
31623
26030
9221
23388
25508
28531
9628
1464
11921
34145
7487
7811
27559
10457
13515
4400
43161
21966
23548
13434
35638
29917
42766
46370
14385
27393
45286
26102
32881
34342
19124
39268
42857
19669
27217
29418
7665
2788
24317
6332
20329
9328
34513
22534
6021
40571
31661
26068
44651
2138
37809
32593
19014
11485
29199
18375
31934
24442
41591
12039
39528
19473
25417
40163
4964
30775
44262
29354
26237
8345
23059
7271
220
12884
43280
27149
22514
39387
46874
26521
8477
28196
39845
16193
35634
25284
41592
45994
7727
1847
25368
717
27955
4502
3790
31038
29381
42306
12632
32912
7097
25903
36586
13541
12250
18553
13073
164
3202
27710
20101
33144
14350
31539
31825
25697
37603
44544
3127
22651
6169
1366
26415
9479
32936
40426
19149
32022
4831
31785
25821
7090
39709
35125
39910
8736
45341
37293
15173
33335
7408
31040
221
3273
11819
42142
26543
39106
6269
5973
47646
9115
25945
34246
31584
18393
14649
33835
35981
33562
18886
29949
4353
36574
38977
98
37717
27532
22420
17614
19780
14361
22587
25958
38054
46327
3005
3596
47215
10471
37695
36655
31669
34152
39687
41316
26427
30633
12062
27499
38274
13821
33090
40786
38393
25234
9351
43922
19199
46436
46199
17391
6958
27909
7392
32142
11438
19920
38354
6975
16236
25227
41662
28846
29433
18807
39064
8808
30034
38326
46769
31103
7998
36942
20888
5518
35778
26425
44116
4819
31766
24876
5598
40933
1658
38451
1288
38555
1049
31922
17433
44966
24129
31621
16534
4783
9881
33452
4826
13623
29318
43927
5962
39720
10859
26978
10693
38647
31453
42170
23430
46248
11340
42072
20410
3296
41912
43771
21604
21784
8926
43710
35273
20732
21602
40526
22161
4947
29658
14590
43264
17346
10835
25181
44984
24462
22939
35083
26723
28086
43510
30764
14411
40876
4678
29944
13439
9776
30674
16358
31904
26490
36862
33255
36090
32937
2548
16099
26951
10974
27727
42257
46502
6135
7184
20166
42861
38610
40491
38546
5651
30221
44224
5034
43632
6120
43530
39914
26496
41598
26245
326
14125
20625
6985
46797
23954
10661
40428
38933
34339
40728
1454
22158
17744
33461
643
17978
11117
10878
18909
15769
21419
25266
14341
36569
19680
28380
40041
31367
26166
27219
9790
23168
16086
28339
14626
42015
22151
44460
21867
36002
42513
38663
38718
16708
17194
11683
9578
27919
33347
40866
43048
11633
11025
11644
43479
6503
32925
2415
35342
17298
29817
7439
46023
40814
12922
24900
15810
22882
33022
18071
39023
19790
31768
14947
35430
27462
14260
25677
21232
38781
15057
4160
11215
17115
38410
29041
18968
20734
40719
20938
30417
33976
36203
46326
24915
26881
39384
468
43100
40592
615
11198
22377
45531
29028
45712
23853
7152
36171
6667
18545
16088
39919
42127
42354
46675
24855
22991
19759
19223
10662
46617
19215
8190
42519
7260
28461
22329
31348
27864
41026
25129
25023
33569
19476
42687
20903
12807
42483
28138
801
26460
44609
20080
30441
16850
11741
23109
41791
40679
35016
43998
12681
19322
17909
8945
20570
43507
31573
35474
15665
3207
7218
31728
47206
41198
2248
33662
13764
38345
35823
33049
13772
19492
46858
3161
44885
45234
40276
3400
12574
12808
46382
20042
3533
24791
11785
30125
13371
33956
27656
21813
31603
36
46462
27115
38775
44204
2768
14264
18252
31995
2968
42863
42460
27290
1404
32938
41214
37567
38464
32675
4889
30783
26307
4768
6990
36504
41299
20279
11142
29423
20573
2380
13221
10960
26098
18145
26913
12198
30327
42794
30203
3794
10993
6670
33968
19200
3340
8258
41548
40437
35428
6482
9384
5901
14498
26984
7290
33160
43650
10743
20261
30774
31408
40665
40844
18571
13155
2036
42809
1534
19719
29688
23099
5181
36522
17647
9234
20465
19053
41118
1907
43253
38463
41382
38014
4320
5137
19880
11666
25765
27939
36467
30558
13384
35432
9540
2166
11795
20553
16143
32847
46410
36916
18305
8446
7102
39668
28289
37342
18340
11499
33432
30980
31631
38446
41574
41021
32608
36788
27053
14371
18487
45839
21462
26595
17503
24019
8802
45487
14251
8720
29482
33563
5611
22682
16836
15307
637
34238
5234
26805
9957
12535
18256
28743
12818
31533
39087
28387
39869
8112
2521
2271
27233
46036
33421
44700
16052
6320
6396
3265
30654
16627
44114
34188
23162
11700
31496
42389
11553
11918
7916
41127
1958
14788
15663
16744
28921
46802
10609
26408
36975
18264
23438
5864
12664
27261
35996
2607
20601
29223
23663
9046
12302
3758
31650
8915
24202
5108
24026
7608
39646
34340
39867
30080
37530
23088
44402
8795
11341
16285
22414
31147
20514
28790
15175
6722
2093
15656
44044
32414
47084
8080
32103
19847
309
25184
14883
31029
14334
17571
32537
18463
43522
26318
19944
9399
28926
5158
40397
20183
42718
4321
36652
42499
11856
20299
37248
38783
42137
6131
34984
12766
37401
22876
6794
19607
9738
27408
39082
1619
2015
4840
2599
27484
4481
32558
42655
5021
42028
44256
29921
20682
35906
1715
40934
3105
2443
32474
2733
35146
28017
44419
14546
10618
3191
41486
5337
45782
19811
10464
41805
16093
46332
13122
12582
45082
36928
984
47574
11326
26910
418
36178
41688
47387
46606
3069
7877
23013
39008
29674
7695
40983
39760
32507
30942
31771
30165
38894
17322
41311
40667
45860
46203
24509
33072
21496
29171
45112
32723
20528
40254
10723
42281
35771
46859
29237
19123
23294
35047
8651
29800
22350
12569
28340
17224
36748
16745
18712
34624
37241
39936
42943
7831
22102
35957
37515
865
6674
41305
41607
7075
32248
36488
26351
5616
32626
2048
15669
4808
26964
47382
3014
8779
45028
5160
28367
42146
46996
6454
21903
33510
16493
17649
46224
31684
29065
11958
20529
16828
18763
32890
47147
11353
46776
11462
4759
30170
9653
18131
10573
40232
1695
1474
12787
692
6050
41754
26962
18282
6806
47131
46118
30111
4696
31923
23790
9698
7815
12116
45626
23445
47585
26481
23163
3062
10853
11259
19472
13826
43216
30198
8677
639
1561
10830
1371
23879
41580
2899
25379
47239
19184
24580
19550
40569
234
19758
43147
9118
5977
31675
35563
10475
13975
12416
15627
10094
43466
8380
1034
18625
6572
6666
20322
46948
22343
28043
27110
1337
31451
26618
19713
3046
12098
5251
44577
42164
11698
19120
3433
8113
39826
13483
46796
8876
14521
45691
33998
42493
38752
45960
41856
25555
36593
30494
45037
3781
26755
22837
12496
19213
2361
35699
33505
43390
23785
45155
34038
20992
6802
1989
24942
8287
32614
5890
40335
27992
32995
12802
30232
9998
44936
11867
45170
41480
3618
20627
29435
22558
45279
33624
36157
13385
11718
3138
44884
27860
36876
7936
18431
7402
23439
17555
20657
46540
32771
17437
41617
9920
40216
42559
34473
30154
4526
19612
16331
18174
18826
35673
23062
21801
34
14048
47375
24177
31906
14592
12865
47149
9083
40716
27089
13233
17363
1341
41626
17427
47608
40613
36913
27465
19122
18155
27818
12529
33862
32354
35740
34458
37017
41511
45546
37411
12956
37250
10017
38527
25040
43159
46635
24433
14854
38609
18380
41167
13410
10208
19745
30523
22173
4194
22176
32724
16544
42508
24360
18781
21146
9713
12988
35263
27539
19081
46447
12285
32370
40885
30280
33816
8028
18219
41263
12501
16244
9798
17339
31624
34518
32649
11364
22546
43864
20251
42445
27449
21433
5123
599
26279
3293
23354
33107
44085
45013
29648
33681
41018
43743
3848
33642
13388
1498
39978
25189
41942
21116
38904
44974
34642
34900
25441
22364
8578
33253
43897
6074
29279
21060
19179
38261
20810
9044
17761
42352
27625
5708
28633
41739
24057
12652
41178
44220
31828
18065
31696
18614
36400
44000
16508
24604
3785
26076
47538
35076
32398
46187
15765
27635
26479
28444
30992
42691
4846
11513
2951
23688
22331
33476
42625
8459
24340
35834
29867
20252
18774
22773
7360
18085
30877
8207
806
26167
25975
12445
26806
23463
7753
7144
42039
45156
5209
19154
17005
11807
26573
47194
5690
23931
25174
40078
35217
36354
4616
7367
7232
40842
19641
41690
35162
36172
12112
4613
2766
33288
15326
46661
41921
31308
36450
6547
27116
18721
30488
2810
13028
7640
5792
985
27979
37035
39445
19265
30671
9065
20871
41962
8963
11573
23504
46395
33240
35667
21181
1584
45768
35708
42597
17719
2031
13245
20640
8089
34872
28669
14014
13664
33166
27692
31890
35448
30978
43994
16588
11428
41825
41081
4591
27405
22104
45996
44894
963
24180
10596
23685
33750
31547
19886
24203
34277
19960
38444
34267
26781
14447
41655
24010
36321
9528
36370
15046
34716
46387
10381
10695
46196
37166
30607
3968
38666
42800
9363
5115
40547
33227
14539
41157
23714
32393
3487
30266
6934
14920
9821
33714
16248
8780
25911
18116
41974
11568
28422
24255
21753
19520
9251
289
5550
25809
27575
23857
5645
43952
921
10184
28281
17353
23724
2279
13042
25925
34099
12907
41560
33849
1581
34016
23386
5380
25311
8510
1816
32229
32682
6225
33474
20852
16001
15293
36481
24763
31208
44012
27206
14698
3289
8939
41230
32893
5831
1063
40753
43799
14550
1109
8286
5737
32080
6790
732
34048
25320
21138
20137
45331
33946
19103
26383
22500
21150
39148
26218
31366
44052
25721
20751
14853
42512
4778
15347
39545
12588
41302
30688
18818
3422
37997
41899
32050
23377
3193
16741
24283
35285
17529
13634
6792
3897
21105
41034
19144
12550
28600
17341
26215
24683
26175
13697
47394
18958
24280
40611
31312
41532
45533
16675
3444
11716
38474
33407
17721
40697
29159
43367
10524
35104
17037
36162
3874
18921
15124
32406
35456
33890
40016
46986
35805
34506
44380
31350
16241
19659
35649
31589
21204
33611
10598
17201
42353
22234
4367
15553
21017
7262
31578
44607
32812
16551
9261
7295
21003
45594
30209
38786
20842
5481
8936
3831
24140
34917
45748
21307
31416
2523
15130
6697
19782
43244
22274
1446
12273
13590
45217
36334
45639
30456
3817
12933
46061
29134
31095
23452
26160
28603
43868
484
5447
11419
20659
2782
3592
19878
6342
20477
39396
36667
34193
22542
3235
45980
32199
35074
5735
38863
18044
10393
14764
8593
35410
7778
25061
14559
40075
31465
33941
4774
21353
24454
7848
33628
21180
23173
15878
28891
40861
7465
45164
10037
32271
35612
24658
298
40280
30570
33157
3931
44403
40945
26667
8467
12351
38224
26338
7922
28260
1565
19647
23878
37121
28566
20209
26950
384
45021
27326
45787
6628
32131
18245
32118
26943
17324
37693
24947
19197
7636
34331
44705
32889
8751
32773
831
42473
2242
6055
39401
35551
21755
14023
31943
18074
16630
29051
10558
1461
934
87
23950
12339
35136
31515
46007
43219
10044
23628
35965
25089
13867
21193
17079
31184
30396
34810
25631
26077
24364
42313
11474
15150
36326
46330
43691
9835
29615
11869
21035
41109
35616
38374
29885
32677
37859
45216
41354
17839
26477
26513
28276
34039
20023
43826
24962
35604
25492
22798
12500
38001
7167
39843
30121
30120
14664
15371
22401
47287
5821
43414
19653
8661
23587
12630
33945
16640
41848
29233
28
11522
10333
30426
570
17230
25938
44745
27853
1912
19798
10872
22623
14268
40445
35977
33363
42428
20103
12402
13398
3167
39564
12730
3723
36180
34365
31224
982
14356
9855
41621
4822
41242
502
9725
16537
31563
5827
46933
37475
39711
18858
33106
15891
32882
9211
8264
16164
4040
43779
20671
12680
17276
38361
35335
23206
17991
35904
2771
13120
15914
3789
13481
40221
9341
24892
22048
14313
10673
6512
7263
37373
44661
32789
7021
31489
35257
28171
45816
10500
29638
9943
17730
39522
39086
8239
22198
31057
18919
26611
6235
41843
7189
39911
11138
31360
43477
32442
45059
3303
248
42612
9541
40429
44667
787
32563
45012
33934
25868
46237
871
13902
25037
43974
27928
20927
34561
1194
13009
879
23740
32635
40460
22824
30113
14368
13799
12010
42382
18664
27486
15980
6341
33653
35920
13465
18775
40343
41877
11429
26944
38490
27925
42905
44525
43958
9912
42293
46292
835
46141
46929
22660
38073
13589
16215
34669
26977
37585
42542
19007
28234
26094
29477
38967
18170
38460
42183
44939
38739
7625
17805
13818
40562
17282
24371
12282
8230
3460
6229
5446
32992
27014
25752
35409
38681
25733
45437
13852
39348
28843
26103
16199
33587
45668
15271
3149
34386
44129
43239
37183
38154
43730
40486
46188
46434
33536
44908
35984
34633
37272
17686
43166
37202
20891
37357
7114
16553
4259
44474
30348
47283
6579
27007
39471
22034
13103
14918
24869
14827
9636
36761
28174
13484
23055
44685
483
47453
43260
20604
40879
34770
7823
22890
31
33639
40948
34735
18814
28295
7169
14868
13640
26428
20192
4436
31229
28155
11396
41455
9322
46817
14357
29
3061
19961
4796
792
28588
9372
6515
44040
46781
3837
38277
15717
35292
23910
10435
26055
25176
35346
15971
14879
13390
7442
16677
2661
39314
8950
4933
15929
16095
26683
35240
44598
23512
17042
12413
30133
12861
38002
41412
26546
25730
25738
261
18584
20540
5786
46861
4929
10810
40127
23949
30625
14852
31907
2947
28495
5976
22398
40827
46272
25035
10867
9898
7250
41588
15188
40416
10146
43449
9067
13967
14586
26717
39891
19834
29369
26809
43960
7172
16387
34683
24722
45469
15349
34899
33435
32532
44618
10267
47498
6968
8888
6394
37587
16191
18336
11415
10378
42834
33281
2924
46057
47269
42185
11110
12449
13819
19950
31843
12438
17150
20037
22457
36468
21397
18171
22224
26157
29430
31484
46328
30953
40499
7945
1251
8904
9099
47340
44619
35742
17658
15428
11456
1348
42907
39997
27868
35706
34904
1570
44092
19343
37737
37230
10324
8220
26875
15153
23453
2949
246
14085
27051
44455
16111
28707
42461
35515
38787
26659
29003
7706
46614
38686
39561
30792
25443
45706
33034
37469
36704
26023
22208
1183
26271
47333
11888
7365
40457
24457
15240
11509
38916
25561
227
46133
34286
42899
43113
14107
27468
17145
45060
1571
5111
17279
31240
3197
25082
15746
16076
855
18961
24367
46477
31654
26455
13783
43026
32494
15853
19700
29875
34096
43255
45254
17416
46626
43116
37687
11272
15059
30210
36695
23392
31247
4390
36847
15596
21372
32126
15840
7620
33318
15816
33738
3477
31411
45997
21507
21025
7467
7471
40331
25461
21499
40413
2126
14644
8599
415
41022
34531
24596
11175
19948
26301
15512
36821
45503
21703
34083
747
12203
5718
2856
24974
44163
12502
32750
23218
4620
2923
793
25367
22372
46111
26911
1443
32895
26763
25153
39593
34092
33173
33229
16812
36730
272
17670
42663
4250
42043
8978
45981
41467
40981
41275
338
16434
24053
6729
16549
38467
40269
28865
7089
16101
40442
34449
39239
1772
511
46384
26393
6724
17599
38243
34482
38144
47432
14602
32794
39098
45810
30592
4657
4522
9678
12701
19222
25928
39895
33551
1653
37299
14683
41108
17166
33975
23039
14598
42032
17980
47054
1702
35438
14068
30382
24186
4286
12179
19480
44007
15606
20496
2861
35270
30211
22528
36918
23819
9637
37862
34737
16367
22737
18087
40379
25874
41047
46190
37894
20933
11086
39011
13343
45578
46562
22983
7390
13984
45728
21983
3465
24328
32533
4922
29361
7598
26243
24873
42856
21568
36969
45790
7328
15698
46926
34959
36812
14363
10842
10854
39652
44652
39019
17333
3983
6603
18109
33733
9638
25283
3182
39862
34254
4553
4800
20312
37751
11007
8423
6377
30529
44363
29470
2821
7410
13857
44843
3481
46745
12659
6718
42846
18127
43584
25578
18751
21256
36013
12874
14402
34239
38067
22277
29831
38314
46469
9472
11814
5744
40567
18360
26616
17657
20458
21029
4456
13333
45035
24896
31585
33362
41465
2628
3801
8481
9968
23022
46557
5188
47235
18141
18382
39981
22169
24424
31316
7046
43482
46022
29868
36132
8605
262
30146
31622
36550
4574
46093
45238
12258
9580
12178
34706
24463
5978
18590
41735
4088
40952
23818
21996
44107
23420
43408
14696
18708
44033
4619
11366
15753
42149
33374
4555
28116
22311
39184
513
41278
26488
43731
7148
6096
9218
38079
38578
20554
7702
24391
11723
17110
8035
34452
45064
29060
26886
37102
22241
36798
1605
10654
29978
38104
45584
4126
22659
24611
46653
4892
8517
24742
12633
36932
274
3257
559
6386
21385
35698
38276
15536
12492
13339
27029
3294
8741
26643
29193
20474
38941
1313
47106
22512
47494
17117
21337
12169
5891
37677
17883
3549
37432
10778
28547
16758
33232
36879
34603
15958
23501
6042
41530
17793
4452
343
42695
17432
39818
6717
26673
27118
38868
5183
4239
10051
8819
320
44068
37615
37806
7736
37167
20550
46790
17924
32947
13177
6424
24573
42984
35465
77
27798
10749
43936
7379
14826
7552
35531
36285
31614
31286
13489
2255
6725
35605
19201
32121
39759
26512
27507
19506
39179
17082
21262
16131
34646
19198
387
4546
24387
29929
2450
45770
9487
24583
30825
43802
23332
42052
24487
305
27323
18698
42983
4935
10495
21877
12610
36129
24410
17401
18982
31733
33546
41775
44071
16687
22568
20262
41327
25196
1002
11362
35331
24293
39366
31251
46116
29203
2451
4812
22191
35485
32296
27307
39943
23666
37502
20967
16322
5789
22055
33313
26461
31920
41790
28034
31510
37295
39012
33935
47558
8633
29287
18388
23593
45459
42069
22110
25946
1860
41595
36167
18465
47406
23115
314
9157
41656
35101
30386
5177
26381
22493
32350
37476
33378
6961
31505
34020
5692
45278
42005
2636
34108
25810
7872
19643
28469
30603
27520
24703
44672
1334
22488
47408
17362
28599
11116
5956
17862
11440
4557
27631
5331
27126
41682
26834
47616
46451
35449
2282
4636
22637
46407
10006
14932
29862
26263
40854
8177
42883
12115
37370
37219
173
21246
10692
27440
42386
14067
65
35989
41871
3079
15559
32062
30273
45409
3621
24526
21482
23090
8511
11877
5053
20331
40636
13203
39321
31440
34851
40974
12713
5459
6358
23393
8742
23021
2172
31492
40595
29114
27015
35394
23060
32109
7532
1467
43140
4234
24316
16656
42797
9184
31611
3436
27589
808
35179
20461
3661
7019
46092
32205
1017
45342
14279
24022
6984
14518
11827
34938
26871
29214
2850
25833
34937
24029
47571
5385
43672
15192
36672
29332
30152
15168
39088
35715
40048
28943
38862
17085
37460
9018
41702
43618
29371
15532
43082
23735
9038
6155
44876
16978
6032
1657
2326
21140
2934
30261
15768
2814
2186
41927
5979
36559
30236
8585
12545
32666
32141
2025
42827
32104
24059
26640
36864
13928
29069
24037
1650
13051
36687
47440
13045
16981
2304
33960
17485
41578
44037
26430
5009
19333
39422
19828
38190
47026
41336
32795
21189
45888
33751
18440
6125
34925
24025
25789
26729
12235
39140
38791
3307
9878
46348
18539
1621
33575
26384
38191
8854
45470
33877
13201
29269
6821
40631
3272
33753
42397
43005
3378
20650
27213
34372
20599
13478
14139
17966
24664
20293
2187
3404
8092
16337
33706
7187
14379
16521
44485
37278
36995
35332
19393
19973
19277
20375
41531
34720
47481
29501
21024
26017
16316
12836
14686
15125
40049
19711
29952
13721
24826
6574
12268
21536
39159
1948
38649
46059
30490
45738
8744
30173
30722
5944
28049
39679
11909
34955
1336
3760
7447
21681
31551
29702
33859
24931
9134
40637
31363
31646
43914
7457
25567
14756
2997
12013
23315
15407
37078
34321
38955
27469
26617
30844
351
12128
4228
42291
32888
10115
8611
15051
22753
14348
21359
1881
27374
41250
27461
15522
16445
43220
34884
26836
29675
38050
36811
22212
24850
4900
10436
45461
6188
15947
3222
20838
12271
22365
5436
7574
6584
11193
41497
44766
9939
38238
4280
26959
12576
39793
43902
6234
43112
38727
25343
24286
21344
26726
22094
14794
15554
23969
23536
44576
12452
15594
17329
19763
35330
28147
27151
2178
40963
46906
38945
17479
20309
30195
40105
26446
46432
23114
20652
42970
39951
47393
5211
1391