/*--------------------------------*- C++ -*----------------------------------*\
| =========                 |                                                 |
| \\      /  F ield         | OpenFOAM: The Open Source CFD Toolbox           |
|  \\    /   O peration     | Version:  v1706                                 |
|   \\  /    A nd           | Web:      www.OpenFOAM.com                      |
|    \\/     M anipulation  |                                                 |
\*---------------------------------------------------------------------------*/
FoamFile
{
    version     2.0;
    format      ascii;
    class       volScalarField;
    location    "0.0025";
    object      dQ;
}
// * * * * * * * * * * * * * * * * * * * * * * * * * * * * * * * * * * * * * //

dimensions      [1 2 -3 0 0 0 0];


internalField   nonuniform List<scalar> 
11682
(
1.788313491e-50
9.833136479e-50
8.435288673e-50
1.079848738e-49
1.754577881e-49
1.218139739e-49
1.923946867e-49
1.528097851e-49
1.377499817e-49
2.948449398e-50
1.070741324e-49
9.597734003e-50
6.67262136e-50
3.221498205e-50
-4.117198942e-53
1.402440164e-50
-3.719274591e-51
5.417675085e-52
8.924020231e-51
-4.644337813e-51
5.426859784e-51
-2.250057622e-51
-1.180191054e-52
2.711703087e-51
-1.382706154e-51
2.690382753e-52
-7.829238006e-52
-5.436198309e-52
-7.416610237e-52
1.150198165e-52
5.744285288e-53
7.258504492e-53
-5.456898433e-52
4.921008443e-53
4.383078596e-53
1.939796949e-53
9.031084076e-53
8.29852229e-53
1.318701454e-53
-1.28404177e-52
1.606971829e-53
1.050803126e-53
1.538495691e-53
-6.427092749e-53
1.013233892e-53
1.290899811e-53
9.97834887e-54
-7.614584457e-53
1.117316416e-53
-7.417313317e-53
1.781183028e-53
1.284255168e-53
1.457911357e-53
2.356262142e-53
7.240955528e-53
2.516128324e-53
-1.725720708e-52
-1.734083841e-52
7.085197017e-53
8.006363912e-53
-3.339551072e-52
1.619606252e-52
-6.200891998e-52
3.947054623e-52
6.233560662e-52
-3.119669252e-51
3.256902847e-51
-9.488778126e-51
2.849856707e-51
-5.859724086e-51
-8.292416981e-51
-7.582310395e-51
-4.811579078e-50
-1.17878442e-49
5.719202997e-50
3.020395626e-49
1.04584022e-49
1.586092448e-48
2.087902189e-48
2.705802443e-48
7.561742538e-48
6.50470663e-48
8.765565176e-48
4.833962028e-48
2.6364228e-48
7.595920778e-48
-1.178925795e-49
2.075761595e-48
-2.947562262e-48
-1.811329754e-48
-2.683119796e-48
3.191325942e-48
2.58381746e-48
-1.434316902e-48
2.282565068e-48
-1.060771102e-48
1.488898141e-48
1.167645055e-48
1.105941446e-48
7.798410819e-48
2.362252279e-47
2.883331625e-47
2.070619446e-47
3.214795424e-47
3.639088836e-47
3.09168571e-47
2.617215743e-47
2.760967362e-47
2.195562837e-47
2.087145314e-47
1.613990259e-47
1.332127711e-47
8.738329024e-48
1.254404815e-48
-3.606929747e-49
9.450004996e-49
8.496625108e-49
6.925323011e-49
3.365866049e-49
4.691095896e-49
1.521725607e-49
6.773699311e-50
1.551224265e-49
1.274082362e-49
1.450687357e-49
-1.019850214e-50
1.819037463e-50
1.745431909e-50
-5.863639457e-52
-1.01333722e-50
1.68464929e-50
-2.159109633e-51
1.379220548e-50
-9.42099349e-51
1.100902725e-50
6.562430734e-51
-3.854581962e-51
4.546114532e-51
4.590916377e-51
3.860295327e-52
3.811879323e-51
-1.330351625e-51
-1.621823215e-51
-3.358424168e-51
2.965680079e-51
3.19002437e-51
3.175976975e-51
-3.364256248e-51
-3.475446968e-51
-3.342993261e-51
3.962955e-51
4.053742844e-51
-7.801833306e-52
5.908646749e-51
1.303224655e-51
-6.800334788e-51
-3.599557168e-51
2.490802062e-51
-1.236511993e-50
2.585030384e-50
-2.524464032e-50
-1.329805366e-50
-5.888491546e-50
3.451289176e-51
2.815926392e-51
1.039361469e-49
6.711333884e-49
7.385747655e-49
1.546227974e-48
1.514492386e-48
4.554583969e-48
1.039416962e-48
1.393862151e-47
1.172910603e-47
2.745564819e-47
7.226702957e-47
1.680651103e-46
3.301824173e-46
7.180477879e-46
9.887123823e-46
1.348874776e-45
1.411875932e-45
1.470996028e-45
1.232165598e-45
5.392099736e-46
4.650198723e-46
2.4884904e-46
1.602725395e-46
2.494496021e-46
2.303530876e-46
2.059984808e-47
-8.371971729e-48
-7.573294101e-48
1.665419405e-47
-1.963860718e-47
1.402554851e-46
1.235639833e-47
9.948596938e-47
1.812136798e-45
5.505163851e-45
6.670824615e-45
5.983349525e-45
7.529021924e-45
8.621467439e-45
7.330917668e-45
6.467633478e-45
6.656702924e-45
5.615342057e-45
5.162741728e-45
3.693289896e-45
2.753624788e-45
1.939939648e-45
4.757114954e-46
2.284521059e-46
2.231353822e-46
1.838736414e-46
1.363606615e-46
7.922968793e-47
8.619380552e-47
6.300676529e-47
3.654411537e-47
3.817957018e-47
2.618105529e-47
2.690455311e-47
1.332462179e-47
4.752537031e-48
2.056242443e-48
1.795442833e-48
5.642788869e-49
2.286833651e-49
3.284225648e-49
-2.415994117e-50
3.377824337e-49
3.703980642e-49
1.479684484e-49
-1.438022786e-51
3.497609965e-49
-6.908501797e-51
-2.620034351e-49
1.660132864e-49
4.380806068e-49
1.444360726e-49
7.917446845e-50
1.535191106e-50
5.280173388e-50
2.099689161e-49
9.944757837e-50
-1.041063685e-49
1.805828678e-49
1.423152635e-49
2.105900816e-49
1.372462184e-49
3.0524892e-49
5.978395266e-49
3.644315838e-49
4.646059208e-49
1.448689058e-49
2.361264468e-48
6.47751639e-49
2.714105593e-48
2.930666278e-48
2.606095456e-48
3.205973889e-48
1.144248771e-47
3.66396265e-47
1.002122169e-46
2.590362052e-46
3.63644101e-46
5.036265359e-46
9.172960479e-46
1.221237438e-45
2.202953133e-45
4.096861944e-45
7.548933185e-45
1.506687732e-44
3.368604658e-44
7.445548762e-44
1.464644706e-43
2.257764146e-43
2.901255221e-43
2.777707303e-43
2.484554928e-43
2.037823652e-43
1.38544601e-43
8.670955729e-44
6.639113018e-44
6.80449825e-44
4.820624709e-44
2.907539357e-44
2.870103846e-44
2.304587574e-44
2.024953167e-44
2.46161763e-44
1.299628894e-44
1.133349196e-44
1.345072925e-44
7.236241652e-45
4.102318898e-43
1.24322779e-42
1.496175736e-42
1.396715761e-42
1.883681627e-42
1.924150201e-42
1.640215685e-42
1.431998095e-42
1.527851282e-42
1.398559876e-42
1.191472866e-42
8.508154122e-43
6.25422609e-43
4.542541167e-43
1.207374004e-43
4.747257652e-44
5.046858082e-44
4.124799222e-44
2.912667212e-44
2.405666144e-44
1.868787454e-44
1.527815284e-44
1.023794295e-44
9.015438375e-45
7.269198163e-45
5.695911059e-45
3.82294013e-45
1.406074918e-45
3.121298367e-46
4.327992351e-46
2.574376946e-46
2.576965708e-46
1.456763102e-46
2.16143582e-46
1.429084818e-46
1.182054618e-46
9.622664498e-47
4.488785833e-47
4.896868166e-47
6.05804837e-47
7.387607585e-47
5.600554962e-47
4.220161079e-47
5.547851317e-47
4.329341768e-47
3.939486416e-47
5.137565037e-47
4.533150022e-47
6.12242331e-47
4.057969549e-47
6.650018672e-47
5.788934498e-47
5.541951482e-47
5.583118615e-47
8.797159238e-47
8.542432048e-47
1.234482965e-46
1.13838795e-46
1.631551392e-46
2.766290161e-46
3.942691694e-46
6.528352273e-46
5.816650035e-46
1.151757856e-45
1.790988829e-45
3.097774242e-45
9.18562543e-45
2.384678008e-44
5.656579264e-44
8.199834969e-44
1.131159793e-43
1.933431537e-43
2.713259737e-43
4.881905512e-43
8.752934667e-43
1.561644809e-42
2.953968438e-42
6.26974184e-42
1.469240444e-41
2.78356468e-41
4.490828946e-41
5.580781648e-41
5.486295167e-41
4.777090428e-41
4.154431796e-41
2.72281326e-41
1.714219153e-41
1.352115218e-41
1.152997761e-41
9.391919071e-42
6.77910798e-42
5.607933776e-42
4.908723608e-42
4.261970763e-42
3.988512734e-42
3.301975858e-42
2.552120511e-42
2.172900404e-42
1.985016413e-42
1.009974162e-40
2.761153065e-40
3.337076285e-40
3.107236513e-40
4.212511323e-40
4.282363882e-40
3.669510327e-40
3.224044896e-40
3.426824817e-40
3.146438986e-40
2.689816825e-40
1.91145933e-40
1.414720945e-40
1.032771394e-40
3.16393676e-41
1.091511297e-41
1.161074591e-41
9.37475044e-42
6.839902216e-42
5.488688926e-42
4.275562876e-42
3.482651114e-42
2.361665154e-42
2.137089578e-42
1.638407553e-42
1.346738892e-42
8.978141216e-43
3.497468011e-43
7.401577682e-44
9.043380718e-44
6.120861031e-44
5.820241644e-44
4.678987874e-44
4.63938133e-44
3.510353893e-44
2.390698137e-44
2.333482656e-44
1.630255586e-44
1.567364975e-44
1.660554512e-44
1.750403352e-44
1.309028752e-44
1.171960961e-44
1.20018493e-44
1.086833511e-44
9.918683008e-45
1.047366918e-44
1.009210935e-44
1.133794823e-44
1.151298846e-44
1.32236573e-44
1.249436693e-44
1.602156651e-44
1.833438878e-44
1.982874024e-44
2.362462835e-44
2.750971497e-44
2.839156719e-44
4.735988928e-44
6.869943775e-44
8.572062269e-44
1.292757783e-43
1.821208075e-43
2.495739117e-43
4.002840025e-43
7.34057969e-43
1.881647981e-42
4.960421982e-42
1.207149028e-41
1.932346187e-41
2.382039676e-41
4.025201925e-41
6.195031177e-41
1.010168987e-40
1.76295522e-40
3.098657299e-40
5.764248319e-40
1.217858632e-39
2.839460856e-39
5.362465786e-39
8.824652132e-39
1.09041331e-38
1.05165841e-38
9.091002886e-39
8.147265006e-39
5.273845483e-39
3.344784572e-39
2.634211643e-39
2.161865062e-39
1.761709997e-39
1.287221376e-39
1.084611647e-39
9.135915896e-40
8.210544288e-40
7.66618507e-40
6.380326982e-40
4.916873004e-40
4.100603188e-40
3.840421788e-40
2.24283539e-38
6.14111932e-38
7.426547699e-38
7.780738895e-38
9.405354952e-38
9.566665157e-38
8.198746828e-38
8.10923678e-38
7.701927186e-38
7.069403388e-38
6.046007026e-38
4.305459428e-38
3.199633141e-38
2.638914231e-38
7.371550068e-39
2.764660172e-39
2.63670526e-39
2.123149592e-39
1.56852678e-39
1.254256605e-39
9.758197183e-40
7.97895779e-40
5.381675949e-40
4.892032197e-40
3.738434663e-40
3.10462682e-40
2.085894181e-40
8.361836661e-41
1.738797562e-41
2.101648639e-41
1.435983043e-41
1.332131188e-41
1.076645824e-41
1.078665578e-41
8.070139075e-42
5.841321817e-42
5.62988903e-42
3.759039491e-42
3.606061439e-42
3.820281133e-42
4.156669827e-42
3.552619881e-42
2.778460979e-42
2.694215848e-42
2.511192108e-42
2.512742722e-42
2.454353165e-42
2.426644805e-42
2.70309499e-42
2.964841416e-42
3.011216077e-42
2.947262217e-42
3.536036678e-42
4.288632899e-42
4.42936614e-42
5.225946959e-42
6.158073211e-42
7.142133711e-42
1.067769375e-41
1.511563494e-41
1.862020584e-41
2.799594875e-41
3.993114147e-41
5.569079462e-41
8.801601731e-41
1.525458595e-40
3.795705869e-40
1.025954112e-39
2.553625858e-39
4.024936886e-39
5.500202649e-39
8.347933932e-39
1.269609543e-38
2.263769544e-38
3.542773773e-38
6.183797353e-38
1.121574704e-37
2.334193523e-37
5.467630071e-37
1.027025282e-36
1.712279294e-36
2.116688646e-36
2.013894412e-36
1.982884669e-36
1.588163133e-36
1.017749411e-36
6.356672392e-37
5.016516518e-37
4.092134381e-37
3.299478241e-37
2.424466236e-37
2.045411782e-37
1.706115213e-37
1.492761789e-37
1.388104442e-37
1.164742821e-37
9.22451498e-38
7.81757711e-38
7.27455748e-38
4.981196188e-36
1.365225284e-35
1.652296823e-35
1.733531888e-35
2.100458594e-35
2.135958243e-35
1.831049423e-35
1.816828409e-35
1.728352557e-35
1.587677688e-35
1.359575576e-35
9.688738317e-36
7.232322937e-36
6.726492588e-36
1.705980552e-36
6.326761635e-37
5.974083214e-37
4.813424876e-37
3.587454155e-37
2.865435547e-37
2.228205056e-37
1.824453293e-37
1.222971561e-37
1.123781343e-37
9.574489994e-38
7.125608568e-38
5.414487288e-38
1.981514969e-38
3.973957557e-39
4.838068882e-39
3.330544608e-39
3.082192529e-39
2.474143576e-39
2.493066748e-39
2.080615484e-39
1.358578243e-39
1.311191118e-39
8.59428108e-40
8.319513856e-40
9.786099507e-40
9.611814129e-40
8.199373913e-40
7.037843831e-40
6.229711761e-40
5.754604323e-40
5.763275507e-40
5.630420101e-40
5.578735795e-40
6.226806837e-40
6.731117683e-40
6.831551687e-40
6.66463121e-40
8.063110132e-40
9.644522738e-40
9.978798014e-40
1.158742175e-39
1.36035855e-39
1.589347168e-39
2.359382996e-39
3.347716736e-39
4.082937291e-39
6.102896242e-39
8.694898073e-39
1.197493875e-38
1.875850285e-38
3.179718542e-38
7.704544888e-38
2.112533025e-37
5.378740719e-37
8.387605435e-37
1.140405486e-36
1.72532575e-36
2.601132732e-36
4.630261943e-36
7.115316346e-36
1.235139143e-35
2.174556828e-35
4.48137886e-35
1.053362101e-34
1.940790147e-34
3.317503662e-34
4.090857324e-34
3.846689504e-34
3.835933255e-34
3.069933089e-34
1.962009757e-34
1.204493795e-34
9.560924923e-35
7.628339187e-35
6.135924959e-35
4.550254857e-35
3.869489722e-35
3.165227586e-35
2.718199751e-35
2.532992209e-35
2.147681291e-35
1.709639116e-35
1.467377658e-35
1.352467893e-35
1.10621514e-33
3.035231185e-33
3.676205958e-33
4.339244178e-33
4.690456463e-33
4.768663707e-33
4.089020606e-33
4.072307079e-33
3.8786853e-33
3.565712236e-33
3.056841917e-33
2.444593508e-33
1.832002999e-33
1.530589229e-33
3.938080542e-34
1.446801914e-34
1.354480424e-34
1.091699759e-34
8.194090055e-35
6.543364815e-35
5.07887258e-35
4.16657761e-35
2.784951205e-35
2.581595585e-35
2.191401416e-35
1.631801388e-35
1.25726758e-35
4.677290791e-36
9.126537009e-37
1.115286692e-36
7.695524176e-37
7.099049121e-37
5.671573835e-37
5.736535125e-37
4.801647758e-37
3.144807982e-37
3.04180367e-37
2.201424683e-37
1.921715801e-37
2.243531832e-37
2.21499131e-37
1.888811694e-37
1.61358389e-37
1.438996544e-37
1.325997629e-37
1.318478035e-37
1.286212912e-37
1.276246053e-37
1.425636207e-37
1.535630298e-37
1.546491209e-37
1.505720195e-37
1.830969731e-37
2.181167672e-37
2.242238554e-37
2.569817418e-37
3.015283173e-37
3.536214922e-37
5.213121566e-37
7.41681888e-37
8.930882795e-37
1.326001619e-36
1.891358958e-36
2.572835718e-36
4.000799302e-36
6.604644315e-36
1.562582979e-35
4.339084793e-35
1.131471546e-34
1.746760276e-34
2.362508003e-34
3.563836466e-34
5.290809983e-34
9.47206982e-34
1.427615692e-33
2.464071744e-33
4.209337091e-33
8.843948366e-33
1.999511257e-32
3.651429893e-32
6.42171967e-32
7.897548216e-32
7.328930152e-32
7.418438374e-32
5.92122452e-32
3.779749886e-32
2.283602699e-32
1.802220219e-32
1.491522734e-32
1.155331733e-32
8.562517566e-33
7.332467415e-33
5.869170399e-33
4.948456923e-33
4.620208354e-33
3.937295471e-33
3.164630089e-33
2.739342125e-33
2.493349447e-33
2.456654103e-31
6.747883059e-31
8.178731723e-31
9.66904905e-31
1.046753352e-30
1.064498107e-30
9.138686258e-31
9.127592287e-31
8.704049945e-31
8.007830782e-31
6.872966509e-31
5.500034106e-31
4.137059817e-31
3.481346378e-31
9.085948084e-32
3.308182971e-32
3.069938795e-32
2.772057058e-32
2.094424183e-32
1.494270631e-32
1.157637198e-32
9.514831742e-33
7.088847854e-33
5.930288993e-33
5.01650365e-33
3.736173957e-33
2.920685481e-33
1.103437042e-33
2.10118529e-34
2.571658057e-34
1.778113798e-34
1.635578238e-34
1.300122232e-34
1.320468929e-34
1.109023023e-34
7.259003619e-35
7.052556612e-35
5.081388635e-35
4.42993717e-35
5.140275061e-35
5.101291516e-35
4.351689499e-35
3.701150624e-35
3.3210591e-35
3.050787038e-35
3.01631969e-35
2.940040278e-35
2.922227875e-35
3.265806723e-35
3.498631151e-35
3.502027822e-35
3.399034477e-35
4.152368584e-35
4.929200852e-35
5.033124541e-35
5.694544095e-35
7.446605179e-35
7.859676488e-35
1.286497685e-34
1.640689031e-34
1.950155225e-34
2.880871127e-34
4.112907357e-34
5.521887847e-34
8.533911807e-34
1.374527015e-33
3.168477558e-33
8.880575296e-33
2.372567169e-32
3.634675329e-32
5.461659238e-32
7.362260753e-32
1.074866036e-31
1.924403344e-31
3.14653533e-31
4.92871255e-31
8.142670316e-31
1.685995202e-30
3.835534271e-30
6.853578642e-30
1.242559932e-29
1.523071108e-29
1.391742546e-29
1.433943779e-29
1.139714552e-29
7.279060633e-30
4.328518281e-30
3.392452841e-30
2.77729147e-30
2.162347864e-30
1.848871449e-30
1.393466496e-30
1.087482848e-30
8.995613956e-31
8.407242514e-31
7.199419137e-31
5.877768485e-31
5.089461025e-31
4.543495572e-31
5.455650923e-29
1.499830323e-28
2.000318198e-28
2.1563442e-28
2.336860277e-28
2.376240291e-28
2.042412586e-28
2.045811181e-28
1.95320858e-28
1.798383648e-28
1.545261163e-28
1.237888483e-28
9.34573838e-29
7.918087403e-29
2.095693817e-29
8.46683836e-30
6.957837204e-30
6.287327361e-30
4.776169029e-30
3.408038319e-30
2.638531933e-30
2.17276028e-30
1.614831894e-30
1.360682105e-30
1.148101952e-30
8.552754971e-31
6.779580975e-31
2.601900991e-31
4.869942692e-32
6.496706518e-32
4.600013148e-32
3.769004439e-32
2.978654297e-32
3.03971409e-32
2.561782689e-32
1.862327638e-32
1.635012923e-32
1.177920862e-32
1.020780546e-32
1.177409882e-32
1.174993134e-32
1.002450033e-32
8.486272115e-33
7.662411465e-33
7.020014742e-33
6.898555739e-33
6.715191525e-33
6.692855496e-33
7.477350928e-33
7.96694452e-33
7.931694581e-33
7.670360333e-33
9.418252761e-33
1.113481578e-32
1.129393695e-32
1.406402105e-32
1.655699956e-32
1.742790953e-32
2.854767045e-32
3.604556169e-32
4.255331662e-32
6.271415044e-32
8.940369148e-32
1.184063555e-31
1.821376434e-31
2.867752733e-31
6.426239888e-31
1.786782304e-30
5.007278728e-30
7.538675014e-30
1.137918636e-29
1.51775645e-29
2.181323452e-29
3.905953645e-29
6.354968054e-29
9.84615581e-29
1.574207419e-28
3.213149763e-28
7.35966194e-28
1.279883153e-27
2.403663869e-27
2.934026519e-27
2.633141551e-27
2.771267312e-27
2.188881818e-27
1.401357673e-27
8.205075022e-28
6.378587227e-28
5.156178964e-28
4.63875126e-28
3.538327483e-28
2.605125534e-28
2.013894146e-28
1.634007738e-28
1.528724449e-28
1.311710872e-28
1.087864603e-28
9.388922152e-29
8.218034136e-29
1.211572449e-26
3.33353083e-26
4.447952048e-26
4.808207738e-26
5.216916861e-26
5.304360658e-26
5.121673016e-26
4.585322972e-26
4.382934432e-26
4.038746674e-26
3.474137249e-26
2.786033172e-26
2.364750095e-26
1.8007934e-26
4.832257317e-27
1.93409455e-27
1.575484846e-27
1.426533903e-27
1.089573443e-27
7.772805875e-28
6.013716232e-28
4.961498747e-28
4.112142599e-28
3.122220121e-28
2.627227706e-28
1.957545425e-28
1.572354246e-28
6.13201385e-29
1.141640971e-29
1.499705878e-29
1.064421445e-29
8.65369211e-30
6.822205028e-30
7.01306884e-30
5.917305005e-30
4.314301251e-30
3.783686065e-30
2.724374179e-30
2.571375138e-30
2.702564477e-30
2.706452918e-30
2.308943863e-30
1.94484495e-30
1.767630715e-30
1.615437803e-30
1.577240042e-30
1.5333032e-30
1.533221458e-30
1.711266331e-30
1.812760007e-30
1.796804429e-30
1.730052923e-30
2.136479254e-30
2.514660214e-30
2.53299636e-30
3.128017392e-30
3.673857835e-30
3.863905312e-30
6.327934268e-30
7.912595628e-30
9.281255657e-30
1.364721269e-29
1.942625738e-29
2.537467322e-29
3.88949429e-29
5.998658833e-29
1.287597639e-28
3.946043476e-28
1.050128947e-27
1.569347104e-27
2.370503952e-27
3.128893643e-27
4.421593126e-27
7.920906375e-27
1.28436522e-26
1.967162319e-26
3.042983285e-26
6.123169713e-26
1.412958894e-25
2.376495298e-25
4.649488057e-25
5.615273597e-25
5.706494257e-25
5.356555609e-25
4.193430215e-25
2.697001758e-25
1.555579602e-25
1.198028442e-25
9.537246324e-26
8.80407173e-26
6.675177217e-26
4.8615763e-26
3.74085325e-26
2.963474905e-26
2.772060573e-26
2.380817163e-26
2.013552106e-26
1.714089476e-26
1.473424175e-26
2.690616827e-24
7.408785269e-24
9.89408761e-24
1.072121044e-23
1.164630519e-23
1.184032148e-23
1.144504901e-23
1.027284993e-23
9.834911906e-24
9.070013003e-24
7.810802674e-24
6.270065397e-24
5.340763148e-24
4.091878659e-24
1.113970203e-24
4.420824868e-25
3.567303945e-25
3.236578788e-25
2.485569904e-25
1.772750785e-25
1.370614716e-25
1.132895199e-25
9.373711658e-26
7.155127711e-26
6.010495664e-26
4.479629159e-26
3.643252559e-26
1.444500003e-26
3.013766063e-27
3.458721901e-27
2.463705944e-27
1.992266184e-27
1.562150361e-27
1.618086822e-27
1.363697365e-27
9.933863739e-28
8.788462175e-28
6.287764383e-28
5.931174591e-28
6.208085846e-28
6.234055864e-28
5.317481526e-28
4.455381295e-28
4.077255575e-28
3.716990879e-28
3.604908729e-28
3.500110793e-28
3.513501861e-28
3.911964374e-28
4.123269416e-28
4.069057828e-28
3.900317427e-28
4.847559264e-28
5.677475818e-28
5.677913341e-28
6.957305414e-28
8.148147211e-28
8.517987557e-28
1.402240596e-27
1.740128305e-27
2.023944243e-27
2.968975077e-27
4.218915319e-27
5.434438398e-27
8.30981727e-27
1.258387671e-26
2.575974749e-26
7.929454608e-26
2.198879562e-25
3.26448237e-25
4.934419219e-25
6.450681074e-25
8.953794024e-25
1.604791795e-24
2.596397892e-24
3.919919567e-24
5.88214948e-24
1.166713719e-23
2.704122215e-23
4.384138039e-23
8.907238537e-23
1.072972939e-22
1.094173013e-22
1.028282465e-22
8.011382824e-23
5.188925269e-23
2.949955368e-23
2.247916246e-23
2.020308404e-23
1.673445594e-23
1.257536433e-23
9.074707731e-24
6.979610937e-24
5.322006478e-24
5.004767808e-24
4.315243636e-24
3.638303934e-24
3.1078041e-24
2.708327599e-24
5.975222358e-22
1.646661217e-21
2.200777689e-21
2.390560824e-21
2.599893717e-21
2.642959741e-21
2.558568627e-21
2.301475752e-21
2.206814461e-21
2.03543738e-21
1.755880658e-21
1.413049672e-21
1.206620785e-21
9.297245632e-22
2.567488704e-22
1.00960646e-22
8.076776318e-23
7.356364238e-23
5.670071705e-23
4.043274425e-23
3.120072983e-23
2.58657593e-23
2.138784983e-23
1.637180856e-23
1.378081326e-23
1.027695005e-23
8.440346533e-24
3.401531904e-24
7.136009129e-25
7.968067936e-25
5.70271872e-25
4.585387187e-25
3.575769255e-25
3.73350731e-25
3.142388064e-25
2.548131333e-25
2.041390062e-25
1.450872855e-25
1.368548278e-25
1.426006689e-25
1.435871928e-25
1.223126221e-25
1.021585254e-25
9.403702244e-26
8.551798017e-26
8.232140547e-26
7.987604566e-26
8.028465508e-26
8.938552619e-26
9.400317713e-26
9.214035372e-26
8.788863026e-26
1.100175848e-25
1.279958785e-25
1.270223814e-25
1.546962814e-25
1.806291579e-25
2.091680494e-25
3.106978412e-25
3.824593056e-25
4.921502834e-25
6.456809272e-25
9.158192032e-25
1.298179564e-24
1.776101473e-24
2.64785045e-24
5.144861476e-24
1.585335454e-23
4.6013554e-23
6.78366625e-23
1.026274741e-22
1.485902258e-22
1.811412534e-22
3.248073731e-22
5.215513464e-22
7.809340732e-22
1.140864378e-21
2.192072385e-21
5.178890481e-21
8.057303891e-21
1.70438183e-20
2.047077802e-20
2.0965032e-20
1.971686913e-20
1.526571741e-20
9.980326654e-21
5.596094395e-21
4.213092742e-21
3.77614195e-21
3.138263287e-21
2.364164499e-21
1.694403291e-21
1.283874375e-21
1.072539072e-21
9.234653885e-22
7.836055964e-22
6.55911637e-22
5.630271401e-22
4.976060511e-22
1.326795932e-19
3.659439943e-19
4.896538175e-19
5.330302362e-19
5.803849983e-19
5.899484944e-19
5.71974213e-19
5.156037867e-19
4.951662838e-19
4.567754293e-19
3.947195233e-19
3.184435703e-19
2.725903308e-19
2.112308477e-19
5.913521035e-20
2.306126427e-20
1.831954687e-20
1.671992682e-20
1.292105749e-20
9.221368307e-21
7.116646526e-21
5.905533956e-21
4.879821867e-21
3.74619129e-21
3.159432612e-21
2.357263837e-21
1.9549282e-21
8.006437564e-22
1.690944471e-22
1.836016145e-22
1.317817239e-22
1.055025003e-22
8.205788159e-23
8.615169271e-23
7.240026764e-23
6.539260334e-23
4.732997359e-23
3.347407416e-23
3.1574815e-23
3.27506326e-23
3.307209263e-23
2.815733135e-23
2.33903649e-23
2.168760089e-23
1.96219282e-23
2.060444743e-23
2.033783736e-23
2.043172962e-23
2.041645579e-23
2.142476395e-23
2.086046537e-23
1.979464077e-23
2.487805346e-23
2.873554495e-23
2.849748196e-23
3.450096688e-23
4.002212012e-23
5.160317377e-23
6.871990682e-23
8.40058262e-23
1.078667609e-22
1.400863518e-22
1.986767584e-22
2.795755749e-22
3.789383543e-22
5.576458035e-22
1.028119624e-21
3.150649462e-21
9.621937315e-21
1.4082459e-20
2.132447313e-20
3.08744842e-20
3.640515937e-20
6.566996093e-20
1.0469653e-19
1.55557923e-19
2.215300599e-19
4.104663353e-19
9.926565721e-19
1.470455977e-18
3.258527292e-18
3.897967257e-18
4.011550221e-18
3.776970105e-18
2.901348319e-18
1.919435272e-18
1.062249139e-18
7.891202943e-19
7.051144665e-19
5.876458515e-19
4.442098221e-19
3.166193934e-19
2.362547184e-19
1.950948578e-19
1.678106133e-19
1.418526122e-19
1.183445157e-19
1.0153186e-19
9.080307076e-20
2.94610872e-17
8.131663632e-17
1.089509173e-16
1.188500375e-16
1.295600953e-16
1.31684438e-16
1.278653236e-16
1.155099856e-16
1.111037718e-16
1.025042758e-16
8.873120407e-17
7.176276484e-17
6.15776112e-17
4.798792752e-17
1.361747202e-17
5.26889799e-18
4.155316632e-18
3.800047565e-18
2.944410718e-18
2.10321138e-18
1.623207873e-18
1.348239121e-18
1.113328836e-18
8.572274485e-19
7.242950171e-19
5.406013691e-19
4.526900654e-19
1.88371649e-19
4.008261972e-20
4.231463798e-20
3.039181915e-20
2.427119163e-20
2.105658748e-20
1.987982165e-20
1.667856117e-20
1.508132588e-20
1.095073291e-20
7.72240257e-21
7.284783005e-21
7.520645684e-21
7.616251736e-21
6.482470177e-21
5.35298147e-21
5.001724385e-21
4.50123542e-21
4.71092511e-21
4.65732773e-21
4.670759086e-21
4.651882137e-21
4.881580343e-21
4.721931504e-21
4.959300821e-21
5.626340196e-21
6.447608611e-21
7.113088042e-21
7.694525101e-21
8.862093387e-21
1.147769242e-20
1.516721761e-20
1.84403519e-20
2.364878834e-20
3.036730737e-20
4.308772028e-20
6.022404382e-20
8.08302861e-20
1.177760307e-19
2.053303168e-19
6.219179053e-19
2.006861875e-18
2.914051332e-18
4.42595528e-18
6.387671248e-18
8.030720777e-18
1.330108819e-17
2.115703801e-17
3.082634848e-17
4.623069671e-17
7.648806478e-17
1.90515113e-16
2.744516039e-16
6.145335896e-16
7.405782047e-16
7.672468325e-16
7.20291184e-16
5.472140419e-16
3.671563079e-16
2.006348776e-16
1.469370156e-16
1.308100615e-16
1.092940474e-16
8.295565475e-17
5.888138487e-17
4.327838926e-17
3.530611281e-17
3.030045127e-17
2.560490846e-17
2.135837384e-17
1.798681816e-17
1.630755877e-17
6.541736154e-15
1.806937127e-14
2.424222804e-14
2.650060476e-14
2.892164746e-14
2.939367483e-14
2.858514226e-14
2.587858464e-14
2.492876132e-14
2.3002501e-14
1.994666974e-14
1.617298835e-14
1.390944037e-14
1.090121029e-14
3.135177827e-15
1.204109704e-15
1.054150572e-15
8.636534315e-16
6.703261803e-16
4.796472672e-16
3.704291855e-16
3.077802957e-16
2.545637504e-16
1.96162339e-16
1.660329204e-16
1.383271666e-16
1.048023992e-16
4.430032296e-17
9.50425191e-18
9.738468824e-18
7.666717307e-18
5.59000547e-18
4.849893185e-18
4.591729608e-18
3.840578702e-18
3.478798514e-18
2.533771879e-18
1.781030582e-18
1.680048884e-18
1.725972201e-18
1.753643986e-18
1.491926726e-18
1.22470743e-18
1.15352453e-18
1.031722423e-18
1.077093696e-18
1.066820735e-18
1.068132704e-18
1.05847539e-18
1.112007819e-18
1.06777831e-18
1.120209589e-18
1.268794873e-18
1.445677264e-18
1.601350104e-18
1.71238654e-18
1.963639244e-18
2.546772209e-18
3.346254367e-18
4.045503932e-18
5.184555688e-18
6.579031051e-18
9.340332544e-18
1.296980661e-17
1.723760038e-17
2.486048617e-17
4.111197699e-17
1.203880323e-16
4.473031724e-16
6.27765792e-16
9.202410483e-16
1.320105283e-15
1.617180038e-15
2.680135692e-15
4.263078226e-15
6.089076754e-15
9.026700171e-15
1.458252743e-14
3.610191915e-14
5.095772436e-14
1.148581732e-13
1.398400916e-13
1.448719867e-13
1.355106739e-13
1.156687289e-13
7.915218375e-14
4.291989238e-14
3.081636568e-14
2.723034508e-14
2.281675153e-14
1.742864164e-14
1.230461761e-14
8.961440431e-15
7.209170561e-15
6.164010714e-15
5.212839127e-15
4.338653723e-15
3.6512747e-15
3.020439873e-15
1.600714613e-12
4.424788935e-12
5.942997019e-12
6.510082044e-12
7.11159568e-12
7.227224538e-12
7.038641849e-12
6.385185805e-12
6.158222706e-12
5.683142759e-12
4.936522049e-12
4.01236641e-12
3.457154103e-12
2.720937216e-12
7.969433179e-13
2.815105707e-13
2.391972393e-13
1.960855026e-13
1.524076748e-13
1.09584915e-13
8.4530869e-14
7.025898849e-14
5.820672759e-14
4.488863427e-14
3.80538391e-14
3.171964128e-14
2.421716989e-14
1.041371742e-14
2.253863299e-15
2.241683488e-15
1.768068606e-15
1.285307823e-15
1.117361702e-15
1.058324359e-15
9.675451247e-16
8.048053079e-16
5.852776713e-16
4.492985474e-16
4.247445043e-16
4.350801706e-16
4.043432461e-16
3.433499284e-16
2.80631795e-16
2.652658047e-16
2.584140455e-16
2.470159877e-16
2.443523581e-16
2.434924468e-16
2.407262228e-16
2.533207402e-16
2.646323482e-16
2.814831991e-16
3.136061121e-16
3.248837401e-16
3.606293298e-16
3.810474198e-16
4.817613715e-16
6.18336696e-16
7.395681754e-16
8.885866827e-16
1.133696086e-15
1.422425821e-15
2.020428126e-15
2.787661268e-15
3.667860833e-15
5.24769242e-15
8.250154245e-15
2.296461643e-14
9.285882824e-14
1.29790427e-13
1.904788819e-13
2.758558989e-13
3.591275794e-13
5.919881617e-13
9.341549414e-13
1.325665829e-12
1.922599339e-12
3.036343925e-12
7.666782098e-12
1.047707062e-11
2.424812557e-11
2.962631193e-11
3.07203017e-11
2.873943444e-11
2.46954734e-11
1.713680295e-11
9.235755307e-12
6.495678028e-12
5.68659365e-12
4.775718333e-12
3.674022813e-12
2.594920931e-12
1.868227754e-12
1.479384509e-12
1.258241083e-12
1.065229092e-12
8.840856836e-13
7.450634596e-13
6.185820586e-13
3.553169128e-10
9.829609193e-10
1.321788696e-09
1.451061685e-09
1.586938065e-09
1.612637381e-09
1.57296593e-09
1.429949738e-09
1.381225722e-09
1.274864299e-09
1.109290177e-09
9.038559119e-10
7.805672047e-10
6.178184231e-10
1.833224139e-10
7.073507526e-11
5.969866643e-11
4.895280987e-11
3.810784545e-11
2.752130742e-11
2.1200824e-11
1.762524313e-11
1.46112545e-11
1.130112693e-11
9.578764459e-12
7.988905182e-12
6.141756677e-12
2.686902437e-12
5.891347183e-13
5.164513895e-13
4.269673723e-13
3.120266617e-13
2.578048774e-13
2.438527942e-13
2.228024009e-13
1.855218572e-13
1.354833045e-13
1.034313754e-13
9.790493384e-14
1.000114223e-13
9.302979731e-14
7.891767953e-14
6.431436885e-14
6.0959814e-14
5.928016232e-14
5.651443e-14
5.591429733e-14
5.545294624e-14
5.468215469e-14
5.765466781e-14
5.991991805e-14
6.358890982e-14
7.068732333e-14
7.275896239e-14
8.11042892e-14
8.466954593e-14
1.06681911e-13
1.365719469e-13
1.62758027e-13
1.964056457e-13
2.603419285e-13
3.377416744e-13
4.780476999e-13
6.553576799e-13
8.504568313e-13
1.221030643e-12
1.852788577e-12
4.909175617e-12
2.099427868e-11
2.948047185e-11
4.314933761e-11
6.207538897e-11
7.974776271e-11
1.309080544e-10
2.049345215e-10
2.890042188e-10
4.14041046e-10
6.368164757e-10
1.46049798e-09
1.937407663e-09
4.566406646e-09
5.563327713e-09
5.805264438e-09
5.408746051e-09
4.674271621e-09
3.278706999e-09
1.747591152e-09
1.210184587e-09
1.053840621e-09
8.864180796e-10
6.862911268e-10
4.84640013e-10
3.450332381e-10
2.688317286e-10
2.2724404e-10
1.927126694e-10
1.591293678e-10
1.342223107e-10
1.117189479e-10
8.691643606e-08
2.406070886e-07
3.239539305e-07
3.563497178e-07
3.900876063e-07
3.964282491e-07
3.775859896e-07
3.317894654e-07
3.105574475e-07
2.860799219e-07
2.493497466e-07
2.036737847e-07
1.762877901e-07
1.401641166e-07
4.224172163e-08
1.625707481e-08
1.354676535e-08
1.111026337e-08
8.660984325e-09
6.285232245e-09
4.836320031e-09
4.022100203e-09
3.33536145e-09
2.589235034e-09
2.194749726e-09
1.831754851e-09
1.418273623e-09
6.309498934e-10
1.397448771e-10
1.301467895e-10
1.078013565e-10
7.907078424e-11
6.520066529e-11
6.160148721e-11
5.628080071e-11
4.690452341e-11
3.438081364e-11
2.612841618e-11
2.473116017e-11
2.519429255e-11
2.345367642e-11
1.988923506e-11
1.615613845e-11
1.534526094e-11
1.48999383e-11
1.416526015e-11
1.400669207e-11
1.383038509e-11
1.360153809e-11