/*--------------------------------*- C++ -*----------------------------------*\
| =========                 |                                                 |
| \\      /  F ield         | OpenFOAM: The Open Source CFD Toolbox           |
|  \\    /   O peration     | Version:  v1706                                 |
|   \\  /    A nd           | Web:      www.OpenFOAM.com                      |
|    \\/     M anipulation  |                                                 |
\*---------------------------------------------------------------------------*/
FoamFile
{
    version     2.0;
    format      ascii;
    class       volScalarField;
    location    "0.0025";
    object      Mach;
}
// * * * * * * * * * * * * * * * * * * * * * * * * * * * * * * * * * * * * * //

dimensions      [0 0 0 0 0 0 0];


internalField   nonuniform List<scalar> 
11682
(
38.85522006
38.85522006
38.85522006
38.85522006
38.85522006
38.85522006
38.85522006
38.85522006
38.85522006
38.85522006
38.85522006
38.85522006
38.85522006
38.85522006
38.85522006
38.85522006
38.85522006
38.85522006
38.85522006
38.85522006
38.85522006
38.85522006
38.85522006
38.85522006
38.85522006
38.85522006
38.85522006
38.85522006
38.85522006
38.85522006
38.85522006
38.85522006
38.85522006
38.85522006
38.85522006
38.85522006
38.85522006
38.85522006
38.85522006
38.85522006
38.85522006
38.85522006
38.85522006
38.85522006
38.85522006
38.85522006
38.85522006
38.85522006
38.85522006
38.85522006
38.85522006
38.85522006
38.85522006
38.85522006
38.85522006
38.85522006
38.85522006
38.85522006
38.85522006
38.85522006
38.85522006
38.85522006
38.85522006
38.85522006
38.85522006
38.85522006
38.85522006
38.85522006
38.85522006
38.85522006
38.85522006
38.85522006
38.85522006
38.85522006
38.85522006
38.85522006
38.85522006
38.85522006
38.85522006
38.85522006
38.85522006
38.85522006
38.85522006
38.85522006
38.85522006
38.85522006
38.85522006
38.85522006
38.85522006
38.85522006
38.85522006
38.85522006
38.85522006
38.85522006
38.85522006
38.85522006
38.85522006
38.85522006
38.85522006
38.85522006
38.85522006
38.85522006
38.85522006
38.85522006
38.85522006
38.85522006
38.85522006
38.85522006
38.85522006
38.85522006
38.85522006
38.85522006
38.85522006
38.85522006
38.85522006
38.85522006
38.85522006
38.85522006
38.85522006
38.85522006
38.85522006
38.85522006
38.85522006
38.85522006
38.85522006
38.85522006
38.85522006
38.85522006
38.85522006
38.85522006
38.85522006
38.85522006
38.85522006
38.85522006
38.85522006
38.85522006
38.85522006
38.85522006
38.85522006
38.85522006
38.85522006
38.85522006
38.85522006
38.85522006
38.85522006
38.85522006
38.85522006
38.85522006
38.85522006
38.85522006
38.85522006
38.85522006
38.85522006
38.85522006
38.85522006
38.85522006
38.85522006
38.85522006
38.85522006
38.85522006
38.85522006
38.85522006
38.85522006
38.85522006
38.85522006
38.85522006
38.85522006
38.85522006
38.85522006
38.85522006
38.85522006
38.85522006
38.85522006
38.85522006
38.85522006
38.85522006
38.85522006
38.85522006
38.85522006
38.85522006
38.85522006
38.85522006
38.85522006
38.85522006
38.85522006
38.85522006
38.85522006
38.85522006
38.85522006
38.85522006
38.85522006
38.85522006
38.85522006
38.85522006
38.85522006
38.85522006
38.85522006
38.85522006
38.85522006
38.85522006
38.85522006
38.85522006
38.85522006
38.85522006
38.85522006
38.85522006
38.85522006
38.85522006
38.85522006
38.85522006
38.85522006
38.85522006
38.85522006
38.85522006
38.85522006
38.85522006
38.85522006
38.85522006
38.85522006
38.85522006
38.85522006
38.85522006
38.85522006
38.85522006
38.85522006
38.85522006
38.85522006
38.85522006
38.85522006
38.85522006
38.85522006
38.85522006
38.85522006
38.85522006
38.85522006
38.85522006
38.85522006
38.85522006
38.85522006
38.85522006
38.85522006
38.85522006
38.85522006
38.85522006
38.85522006
38.85522006
38.85522006
38.85522006
38.85522006
38.85522006
38.85522006
38.85522006
38.85522006
38.85522006
38.85522006
38.85522006
38.85522006
38.85522006
38.85522006
38.85522006
38.85522006
38.85522006
38.85522006
38.85522006
38.85522006
38.85522006
38.85522006
38.85522006
38.85522006
38.85522006
38.85522006
38.85522006
38.85522006
38.85522006
38.85522006
38.85522006
38.85522006
38.85522006
38.85522006
38.85522006
38.85522006
38.85522006
38.85522006
38.85522006
38.85522006
38.85522006
38.85522006
38.85522006
38.85522006
38.85522006
38.85522006
38.85522006
38.85522006
38.85522006
38.85522006
38.85522006
38.85522006
38.85522006
38.85522006
38.85522006
38.85522006
38.85522006
38.85522006
38.85522006
38.85522006
38.85522006
38.85522006
38.85522006
38.85522006
38.85522006
38.85522006
38.85522006
38.85522006
38.85522006
38.85522006
38.85522006
38.85522006
38.85522006
38.85522006
38.85522006
38.85522006
38.85522006
38.85522006
38.85522006
38.85522006
38.85522006
38.85522006
38.85522006
38.85522006
38.85522006
38.85522006
38.85522006
38.85522006
38.85522006
38.85522006
38.85522006
38.85522006
38.85522006
38.85522006
38.85522006
38.85522006
38.85522006
38.85522006
38.85522006
38.85522006
38.85522006
38.85522006
38.85522006
38.85522006
38.85522006
38.85522006
38.85522006
38.85522006
38.85522006
38.85522006
38.85522006
38.85522006
38.85522006
38.85522006
38.85522006
38.85522006
38.85522006
38.85522006
38.85522006
38.85522006
38.85522006
38.85522006
38.85522006
38.85522006
38.85522006
38.85522006
38.85522006
38.85522006
38.85522006
38.85522006
38.85522006
38.85522006
38.85522006
38.85522006
38.85522006
38.85522006
38.85522006
38.85522006
38.85522006
38.85522006
38.85522006
38.85522006
38.85522006
38.85522006
38.85522006
38.85522006
38.85522006
38.85522006
38.85522006
38.85522006
38.85522006
38.85522006
38.85522006
38.85522006
38.85522006
38.85522006
38.85522006
38.85522006
38.85522006
38.85522006
38.85522006
38.85522006
38.85522006
38.85522006
38.85522006
38.85522006
38.85522006
38.85522006
38.85522006
38.85522006
38.85522006
38.85522006
38.85522006
38.85522006
38.85522006
38.85522006
38.85522006
38.85522006
38.85522006
38.85522006
38.85522006
38.85522006
38.85522006
38.85522006
38.85522006
38.85522006
38.85522006
38.85522006
38.85522006
38.85522006
38.85522006
38.85522006
38.85522006
38.85522006
38.85522006
38.85522006
38.85522006
38.85522006
38.85522006
38.85522006
38.85522006
38.85522006
38.85522006
38.85522006
38.85522006
38.85522006
38.85522006
38.85522006
38.85522006
38.85522006
38.85522006
38.85522006
38.85522006
38.85522006
38.85522006
38.85522006
38.85522006
38.85522006
38.85522006
38.85522006
38.85522006
38.85522006
38.85522006
38.85522006
38.85522006
38.85522006
38.85522006
38.85522006
38.85522006
38.85522006
38.85522006
38.85522006
38.85522006
38.85522006
38.85522006
38.85522006
38.85522006
38.85522006
38.85522006
38.85522006
38.85522006
38.85522006
38.85522006
38.85522006
38.85522006
38.85522006
38.85522006
38.85522006
38.85522006
38.85522006
38.85522006
38.85522006
38.85522006
38.85522006
38.85522006
38.85522006
38.85522006
38.85522006
38.85522006
38.85522006
38.85522006
38.85522006
38.85522006
38.85522006
38.85522006
38.85522006
38.85522006
38.85522006
38.85522006
38.85522006
38.85522006
38.85522006
38.85522006
38.85522006
38.85522006
38.85522006
38.85522006
38.85522006
38.85522006
38.85522006
38.85522006
38.85522006
38.85522006
38.85522006
38.85522006
38.85522006
38.85522006
38.85522006
38.85522006
38.85522006
38.85522006
38.85522006
38.85522006
38.85522006
38.85522006
38.85522006
38.85522006
38.85522006
38.85522006
38.85522006
38.85522006
38.85522006
38.85522006
38.85522006
38.85522006
38.85522006
38.85522006
38.85522006
38.85522006
38.85522006
38.85522006
38.85522006
38.85522006
38.85522006
38.85522006
38.85522006
38.85522006
38.85522006
38.85522006
38.85522006
38.85522006
38.85522006
38.85522006
38.85522006
38.85522006
38.85522006
38.85522006
38.85522006
38.85522006
38.85522006
38.85522006
38.85522006
38.85522006
38.85522006
38.85522006
38.85522006
38.85522006
38.85522006
38.85522006
38.85522006
38.85522006
38.85522006
38.85522006
38.85522006
38.85522006
38.85522006
38.85522006
38.85522006
38.85522006
38.85522006
38.85522006
38.85522006
38.85522006
38.85522006
38.85522006
38.85522006
38.85522006
38.85522006
38.85522006
38.85522006
38.85522006
38.85522006
38.85522006
38.85522006
38.85522006
38.85522006
38.85522006
38.85522006
38.85522006
38.85522006
38.85522006
38.85522006
38.85522006
38.85522006
38.85522006
38.85522006
38.85522006
38.85522006
38.85522006
38.85522006
38.85522006
38.85522006
38.85522006
38.85522006
38.85522006
38.85522006
38.85522006
38.85522006
38.85522006
38.85522006
38.85522006
38.85522006
38.85522006
38.85522006
38.85522006
38.85522006
38.85522006
38.85522006
38.85522006
38.85522006
38.85522006
38.85522006
38.85522006
38.85522006
38.85522006
38.85522006
38.85522006
38.85522006
38.85522006
38.85522006
38.85522006
38.85522006
38.85522006
38.85522006
38.85522006
38.85522006
38.85522006
38.85522006
38.85522006
38.85522006
38.85522006
38.85522006
38.85522006
38.85522006
38.85522006
38.85522006
38.85522006
38.85522006
38.85522006
38.85522006
38.85522006
38.85522006
38.85522006
38.85522006
38.85522006
38.85522006
38.85522006
38.85522006
38.85522006
38.85522006
38.85522006
38.85522006
38.85522006
38.85522006
38.85522006
38.85522006
38.85522006
38.85522006
38.85522006
38.85522006
38.85522006
38.85522006
38.85522006
38.85522006
38.85522006
38.85522006
38.85522006
38.85522006
38.85522006
38.85522006
38.85522006
38.85522006
38.85522006
38.85522006
38.85522006
38.85522006
38.85522006
38.85522006
38.85522006
38.85522006
38.85522006
38.85522006
38.85522006
38.85522006
38.85522006
38.85522006
38.85522006
38.85522006
38.85522006
38.85522006
38.85522006
38.85522006
38.85522006
38.85522006
38.85522006
38.85522006
38.85522006
38.85522006
38.85522006
38.85522006
38.85522006
38.85522006
38.85522006
38.85522006
38.85522006
38.85522006
38.85522006
38.85522006
38.85522006
38.85522006
38.85522006
38.85522006
38.85522006
38.85522006
38.85522006
38.85522006
38.85522006
38.85522006
38.85522006
38.85522006
38.85522006
38.85522006
38.85522006
38.85522006
38.85522006
38.85522006
38.85522006
38.85522006
38.85522006
38.85522006
38.85522006
38.85522006
38.85522006
38.85522006
38.85522006
38.85522006
38.85522006
38.85522006
38.85522006
38.85522006
38.85522006
38.85522006
38.85522006
38.85522006
38.85522006
38.85522006
38.85522006
38.85522006
38.85522006
38.85522006
38.85522006
38.85522006
38.85522006
38.85522006
38.85522006
38.85522006
38.85522006
38.85522006
38.85522006
38.85522006
38.85522006
38.85522006
38.85522006
38.85522006
38.85522006
38.85522006
38.85522006
38.85522006
38.85522006
38.85522006
38.85522006
38.85522006
38.85522006
38.85522006
38.85522006
38.85522006
38.85522006
38.85522006
38.85522006
38.85522006
38.85522006
38.85522006
38.85522006
38.85522006
38.85522006
38.85522006
38.85522006
38.85522006
38.85522006
38.85522006
38.85522006
38.85522006
38.85522006
38.85522006
38.85522006
38.85522006
38.85522006
38.85522006
38.85522006
38.85522006
38.85522006
38.85522006
38.85522006
38.85522006
38.85522006
38.85522006
38.85522006
38.85522006
38.85522006
38.85522006
38.85522006
38.85522006
38.85522006
38.85522006
38.85522006
38.85522006
38.85522006
38.85522006
38.85522006
38.85522006
38.85522006
38.85522006
38.85522006
38.85522006
38.85522006
38.85522006
38.85522006
38.85522006
38.85522006
38.85522006
38.85522006
38.85522006
38.85522006
38.85522006
38.85522006
38.85522006
38.85522006
38.85522006
38.85522006
38.85522006
38.85522006
38.85522006
38.85522006
38.85522006
38.85522006
38.85522006
38.85522006
38.85522006
38.85522006
38.85522006
38.85522006
38.85522006
38.85522006
38.85522006
38.85522006
38.85522006
38.85522005
38.85522006
38.85522006
38.85522006
38.85522006
38.85522006
38.85522006
38.85522006
38.85522006
38.85522006
38.85522006
38.85522006
38.85522006
38.85522006
38.85522006
38.85522006
38.85522006
38.85522006
38.85522006
38.85522006
38.85522006
38.85522006
38.85522006
38.85522006
38.85522006
38.85522006
38.85522006
38.85522006
38.85522006
38.85522006
38.85522006
38.85522006
38.85522006
38.85522006
38.85522006
38.85522006
38.85522006
38.85522006
38.85522006
38.85522006
38.85522006
38.85522006
38.85522006
38.85522006
38.85522006
38.85522006
38.85522006
38.85522006
38.85522006
38.85522006
38.85522006
38.85522006
38.85522006
38.85522006
38.85522006
38.85522006
38.85522006
38.85522006
38.85522006
38.85522006
38.85522006
38.85522006
38.85522006
38.85522006
38.85522006
38.85522006
38.85522006
38.85522006
38.85522006
38.85522006
38.85522006
38.85522006
38.85522006
38.85522006
38.85522006
38.85522006
38.85522006
38.85522006
38.85522006
38.85522006
38.85522006
38.85522006
38.85522006
38.85522006
38.85522006
38.85522006
38.85522006
38.85522006
38.85522006
38.85522006
38.85522006
38.85522006
38.85522006
38.85522006
38.85522006
38.85522006
38.85522006
38.85522006
38.85522006
38.85522005
38.85522006
38.85522006
38.85522006
38.85522006
38.85522006
38.85522006
38.85522006
38.85522006
38.85522006
38.85522006
38.85522006
38.85522006
38.85522006
38.85522006
38.85522006
38.85522006
38.85522006
38.85522006
38.85522006
38.85522006
38.85522006
38.85522006
38.85522006
38.85522006
38.85522006
38.85522006
38.85522006
38.85522006
38.85522006
38.85522006
38.85522006
38.85522006
38.85522006
38.85522006
38.85522006
38.85522006
38.85522006
38.85522006
38.85522006
38.85522006
38.85522006
38.85522006
38.85522006
38.85522006
38.85522006
38.85522006
38.85522006
38.85522006
38.85522006
38.85522006
38.85522006
38.85522006
38.85522006
38.85522006
38.85522006
38.85522006
38.85522006
38.85522006
38.85522006
38.85522006
38.85522006
38.85522006
38.85522006
38.85522006
38.85522006
38.85522006
38.85522006
38.85522006
38.85522006
38.85522006
38.85522006
38.85522006
38.85522006
38.85522006
38.85522006
38.85522006
38.85522006
38.85522006
38.85522006
38.85522006
38.85522006
38.85522006
38.85522006
38.85522006
38.85522006
38.85522006
38.85522006
38.85522006
38.85522006
38.85522006
38.85522006
38.85522006
38.85522006
38.85522006
38.85522006
38.85522006
38.85522006
38.85522006
38.85522005
38.85522006
38.85522006
38.85522006
38.85522006
38.85522006
38.85522006
38.85522006
38.85522006
38.85522006
38.85522006
38.85522006
38.85522006
38.85522006
38.85522006
38.85522006
38.85522006
38.85522006
38.85522006
38.85522006
38.85522006
38.85522006
38.85522006
38.85522006
38.85522006
38.85522006
38.85522006
38.85522006
38.85522006
38.85522006
38.85522006
38.85522006
38.85522006
38.85522006
38.85522006
38.85522006
38.85522006
38.85522006
38.85522006
38.85522006
38.85522006
38.85522006
38.85522006
38.85522006
38.85522006
38.85522006
38.85522006
38.85522006
38.85522006
38.85522006
38.85522006
38.85522006
38.85522006
38.85522006
38.85522006
38.85522006
38.85522006
38.85522006
38.85522006
38.85522006
38.85522006
38.85522006
38.85522006
38.85522006
38.85522006
38.85522006
38.85522006
38.85522006
38.85522006
38.85522006
38.85522006
38.85522006
38.85522006
38.85522006
38.85522006
38.85522006
38.85522006
38.85522006
38.85522006
38.85522006
38.85522006
38.85522006
38.85522006
38.85522006
38.85522006
38.85522006
38.85522006
38.85522006
38.85522006
38.85522006
38.85522006
38.85522006
38.85522006
38.85522006
38.85522006
38.85522006
38.85522006
38.85522006
38.85522006
38.85522005
38.85522006
38.85522006
38.85522006
38.85522006
38.85522006
38.85522006
38.85522006
38.85522006
38.85522006
38.85522006
38.85522006
38.85522006
38.85522006
38.85522006
38.85522006
38.85522006
38.85522006
38.85522006
38.85522006
38.85522006
38.85522006
38.85522006
38.85522006
38.85522006
38.85522006
38.85522006
38.85522006
38.85522006
38.85522006
38.85522006
38.85522006
38.85522006
38.85522006
38.85522006
38.85522006
38.85522006
38.85522006
38.85522006
38.85522006
38.85522006
38.85522006
38.85522006
38.85522006
38.85522006
38.85522006
38.85522006
38.85522006
38.85522006
38.85522006
38.85522006
38.85522006
38.85522006
38.85522006
38.85522006
38.85522006
38.85522006
38.85522006
38.85522006
38.85522006
38.85522006
38.85522006
38.85522006
38.85522006
38.85522006
38.85522006
38.85522006
38.85522006
38.85522006
38.85522006
38.85522006
38.85522006
38.85522006
38.85522006
38.85522006
38.85522006
38.85522006
38.85522006
38.85522006
38.85522006
38.85522006
38.85522006
38.85522006
38.85522006
38.85522006
38.85522006
38.85522006
38.85522006
38.85522006
38.85522006
38.85522006
38.85522006
38.85522006
38.85522006
38.85522006
38.85522006
38.85522006
38.85522006
38.85522006
38.85522005
38.85522006
38.85522006
38.85522006
38.85522006
38.85522006
38.85522006
38.85522006
38.85522006
38.85522006
38.85522006
38.85522006
38.85522006
38.85522006
38.85522006
38.85522006
38.85522006
38.85522006
38.85522006
38.85522006
38.85522006
38.85522006
38.85522006
38.85522006
38.85522006
38.85522006
38.85522006
38.85522006
38.85522006
38.85522006
38.85522006
38.85522006
38.85522006
38.85522006
38.85522006
38.85522006
38.85522006
38.85522006
38.85522006
38.85522006
38.85522006
38.85522006
38.85522006
38.85522006
38.85522006
38.85522006
38.85522006
38.85522006
38.85522006
38.85522006
38.85522006
38.85522006
38.85522006
38.85522006
38.85522006
38.85522006
38.85522006
38.85522006
38.85522006
38.85522006
38.85522006
38.85522006
38.85522006
38.85522006
38.85522006
38.85522006
38.85522006
38.85522006
38.85522006
38.85522006
38.85522006
38.85522006
38.85522006
38.85522006
38.85522006
38.85522006
38.85522006
38.85522006
38.85522006
38.85522006
38.85522006
38.85522006
38.85522006
38.85522006
38.85522006
38.85522006
38.85522006
38.85522006
38.85522006
38.85522006
38.85522006
38.85522006
38.85522006
38.85522006
38.85522006
38.85522006
38.85522006
38.85522006
38.85522006
38.85522005
38.85522006
38.85522006
38.85522006
38.85522006
38.85522006
38.85522006
38.85522006
38.85522006
38.85522006
38.85522006
38.85522006
38.85522006
38.85522006
38.85522006
38.85522006
38.85522006
38.85522006
38.85522006
38.85522006
38.85522006
38.85522006
38.85522006
38.85522006
38.85522006
38.85522006
38.85522006
38.85522006
38.85522006
38.85522006
38.85522006
38.85522006
38.85522006
38.85522006
38.85522006
38.85522006
38.85522006
38.85522006
38.85522006
38.85522006
38.85522006
38.85522006
38.85522006
38.85522006
38.85522006
38.85522006
38.85522006
38.85522006
38.85522006
38.85522006
38.85522006
38.85522006
38.85522006
38.85522006
38.85522006
38.85522006
38.85522006
38.85522006
38.85522006
38.85522006
38.85522006
38.85522006
38.85522006
38.85522006
38.85522006
38.85522006
38.85522006
38.85522006
38.85522006
38.85522006
38.85522006
38.85522006
38.85522006
38.85522006
38.85522006
38.85522006
38.85522006
38.85522006
38.85522006
38.85522006
38.85522006
38.85522006
38.85522006
38.85522006
38.85522006
38.85522006
38.85522006
38.85522006
38.85522006
38.85522006
38.85522006
38.85522006
38.85522006
38.85522006
38.85522006
38.85522006
38.85522006
38.85522006
38.85522006
38.85522006
38.85522006
38.85522006
38.85522006
38.85522006
38.85522006
38.85522006
38.85522006
38.85522006
38.85522006
38.85522006
38.85522006
38.85522006
38.85522006
38.85522006
38.85522006
38.85522006
38.85522006
38.85522006
38.85522006
38.85522006
38.85522006
38.85522006
38.85522006
38.85522006
38.85522006
38.85522006
38.85522006
38.85522006
38.85522006
38.85522006
38.85522006
38.85522006
38.85522006
38.85522006
38.85522006
38.85522006
38.85522006
38.85522006
38.85522006
38.85522006
38.85522006
38.85522006
38.85522006
38.85522006
38.85522006
38.85522006
38.85522006
38.85522006
38.85522006
38.85522006
38.85522006
38.85522006
38.85522006
38.85522006
38.85522006
38.85522006
38.85522006
38.85522006
38.85522006
38.85522006
38.85522006
38.85522006
38.85522006
38.85522006
38.85522006
38.85522006
38.85522006
38.85522006
38.85522006
38.85522006
38.85522006
38.85522006
38.85522006
38.85522006
38.85522006
38.85522006
38.85522006
38.85522006
38.85522006
38.85522006
38.85522006
38.85522006
38.85522006
38.85522006
38.85522006
38.85522006
38.85522006
38.85522006
38.85522006
38.85522006
38.85522006
38.85522006
38.85522006
38.85522006
38.85522006
38.85522006
38.85522006
38.85522006
38.85522028
38.85522026
38.85522024
38.8552202
38.85522018
38.85522017
38.85522015
38.85522014
38.85522013
38.85522012
38.85522008
38.85522007
38.85522007
38.85522007
38.85522007
38.85522006
38.85522006
38.85522006
38.85522006
38.85522006
38.85522006
38.85522006
38.85522006
38.85522006
38.85522006
38.85522006
38.85522006
38.85522006
38.85522006
38.85522006
38.85522006
38.85522006
38.85522006
38.85522006
38.85522006
38.85522006
38.85522006
38.85522006
38.85522006
38.85522006
38.85522006
38.85522006
38.85522006
38.85522006
38.85522006
38.85522006
38.85522006
38.85522006
38.85522006
38.85522006
38.85522006
38.85522006
38.85522006
38.85522006
38.85522006
38.85522006
38.85522006
38.85522006
38.85522006
38.85522006
38.85522006
38.85522006
38.85522006
38.85522006
38.85522006
38.85522006
38.85522006
38.85522006
38.85522006
38.85522006
38.85522006
38.85522006
38.85522006
38.85522006
38.85522006
38.85522007
38.85522007
38.85522008
38.85522008
38.85522008
38.85522009
38.85522009
38.85522009
38.85522008
38.85522009
38.85522009
38.85522008
38.85522008
38.85522008
38.85522008
38.85522008
38.85522008
38.85522008
38.85522007
38.85522007
38.85522008
38.85522008
38.85522007
38.85522007
38.85521423
38.85521482
38.85521617
38.85521736
38.85521799
38.85521857
38.85521899
38.85521939
38.85521961
38.85521985
38.85522001
38.85522013
38.85522021
38.85522024
38.85522025
38.85522023
38.85522022
38.8552202
38.85522017
38.85522014
38.85522013
38.85522012
38.85522011
38.8552201
38.85522009
38.85522007
38.85522007
38.85522006
38.85522006
38.85522006
38.85522006
38.85522006
38.85522006
38.85522006
38.85522006
38.85522006
38.85522006
38.85522006
38.85522006
38.85522006
38.85522006
38.85522006
38.85522006
38.85522006
38.85522006
38.85522006
38.85522006
38.85522006
38.85522006
38.85522006
38.85522006
38.85522006
38.85522006
38.85522006
38.85522006
38.85522006
38.85522006
38.85522006
38.85522006
38.85522006
38.85522006
38.85522006
38.85522006
38.85522006
38.85522007
38.85522007
38.85522007
38.85522008
38.85522008
38.85522009
38.8552201
38.85522011
38.85522013
38.85522017
38.85522032
38.85522042
38.85522052
38.8552207
38.85522054
38.85522057
38.85522053
38.85522054
38.85522024
38.85522001
38.85521985
38.85521975
38.85521971
38.85521981
38.85521998
38.85522012
38.85522017
38.85522016
38.85522011
38.85522007
38.85522001
38.85521994
38.85521989
38.85521985
38.85521984
38.85437429
38.85445148
38.85461807
38.85477685
38.85485826
38.85493219
38.85499334
38.8550542
38.85508732
38.85511634
38.85514262
38.85516624
38.85517942
38.85518936
38.85519926
38.8552066
38.85521065
38.85521349
38.85521549
38.85521742
38.85521843
38.85521899
38.85521932
38.85521965
38.85521982
38.85521996
38.85522004
38.85522009
38.85522017
38.85522019
38.85522016
38.85522014
38.85522015
38.85522017
38.85522015
38.85522013
38.8552201
38.8552201
38.85522011
38.85522011
38.85522011
38.8552201
38.85522009
38.85522009
38.85522009
38.85522007
38.85522007
38.85522007
38.85522007
38.85522007
38.85522007
38.85522007
38.85522008
38.85522008
38.85522008
38.85522008
38.85522009
38.85522009
38.85522012
38.85522011
38.85522015
38.85522017
38.85522024
38.85522028
38.85522035
38.85522041
38.85522051
38.85522063
38.8552205
38.85522068
38.85522073
38.85522015
38.85522095
38.85522005
38.85521921
38.8552171
38.85521314
38.85521022
38.85519311
38.85519451
38.85518176
38.85517423
38.85516184
38.85515838
38.85515815
38.85515951
38.85516561
38.85517222
38.85517721
38.85517936
38.85518002
38.85518046
38.85518101
38.85518175
38.85518272
38.85518395
38.85518533
38.85518679
38.85518907
38.7712233
38.77884065
38.7950316
38.81073428
38.81868038
38.82587558
38.8319613
38.83801678
38.841311
38.84425736
38.84698454
38.84944478
38.85077583
38.8518202
38.85284994
38.85365397
38.85407553
38.85438913
38.85462759
38.85485527
38.8549701
38.85503066
38.85507731
38.85512377
38.85514775
38.85516476
38.85518034
38.8551932
38.85520166
38.8552058
38.855209
38.85521297
38.85521505
38.85521592
38.8552165
38.8552171
38.85521809
38.85521886
38.85521924
38.85521938
38.8552194
38.85521945
38.85521964
38.85521979
38.85521991
38.85521997
38.85522
38.85522003
38.85522009
38.8552201
38.85522011
38.85522015
38.85522006
38.85522014
38.85521998
38.85522016
38.85522043
38.85522004
38.8552198
38.85521998
38.85521933
38.85521979
38.85521879
38.85521717
38.85521653
38.85521272
38.85520963
38.85520344
38.85518514
38.85518059
38.85515076
38.8551013
38.85509891
38.85496189
38.85481721
38.8545323
38.85408451
38.85357034
38.85221411
38.85226267
38.85114829
38.85045065
38.84967712
38.8496309
38.84978289
38.85015838
38.85085127
38.8512464
38.85142956
38.8515076
38.85156939
38.851658
38.85177152
38.85191582
38.85208414
38.85226276
38.85244801
38.85263842
38.85288542
33.13334175
33.52236945
34.40775851
35.37267579
35.90543483
36.41395729
36.87103874
37.34500082
37.61563356
37.86578835
38.10377176
38.32319071
38.4425952
38.53843595
38.63010528
38.70578527
38.74518722
38.77499295
38.79811443
38.8195929
38.83059572
38.83628123
38.84086043
38.84538635
38.84778899
38.84949684
38.85108787
38.85241422
38.85320814
38.85361593
38.85398543
38.85441035
38.85460019
38.85467257
38.854748
38.85484482
38.85497141
38.85504917
38.85507092
38.85508131
38.8550915
38.85510962
38.85514001
38.85515268
38.85515882
38.85516488
38.85516712
38.85517032
38.85517427
38.85517135
38.85517201
38.85517099
38.8551644
38.85516808
38.85515713
38.85516468
38.85515638
38.85512383
38.85510663
38.85509322
38.85503001
38.85501359
38.85486577
38.85467044
38.85452587
38.85408362
38.85365831
38.85288866
38.85127906
38.85052344
38.84753832
38.84330177
38.8416941
38.82923634
38.81495015
38.78986249
38.75209595
38.70464269
38.60477911
38.60215032
38.52240856
38.46974082
38.42384267
38.42624211
38.44388517
38.47986882
38.53685878
38.56031965
38.56835765
38.57250136
38.57813866
38.58686128
38.59771421
38.61134942
38.62667553
38.64209923
38.65783386
38.67398223
38.69323678
10.77148391
11.07187045
11.85592466
12.95222126
13.72472283
14.63116993
15.66749671
17.08679579
18.16913764
19.44874865
21.07267882
23.16842205
24.73179383
26.35414354
28.20916775
30.43513338
31.95530117
33.34743856
34.63322972
35.98899798
36.79588669
37.22874981
37.59723991
37.97209115
38.18379244
38.33573097
38.47733178
38.59754373
38.66678507
38.7041522
38.73961136
38.77894619
38.79618531
38.80242085
38.80978584
38.81958187
38.83166441
38.83886941
38.8403631
38.84119806
38.84235681
38.8443872
38.84737696
38.84841511
38.84892405
38.84953584
38.84972745
38.85005871
38.85040063
38.8500794
38.85015122
38.8499765
38.84941394
38.84971819
38.84876563
38.84935511
38.84805075
38.8451586
38.84358587
38.84186213
38.83615257
38.83332444
38.81947318
38.80160218
38.78689991
38.7480537
38.70736218
38.63795057
38.51241475
38.43754107
38.19681038
37.87559667
37.70062798
36.82597476
35.83366401
34.43308331
32.71028494
30.89564514
28.40217438
28.22199183
26.9028705
26.09845382
25.57466043
25.65940652
25.99250839
26.6277272
27.67477473
27.98829049
28.07337554
28.14603281
28.28030042
28.49114625
28.74958321
29.0959029
29.50699715
29.95354746
30.4207387
30.90258847
31.45440634
3.521613763
3.594750303
3.781227877
4.038874957
4.221853511
4.434647092
4.676803109
5.007562329
5.26661446
5.576297849
5.983835769
6.536927716
6.990261842
7.50177715
8.205496709
9.176019324
10.00448817
10.94820633
12.10571043
13.86473581
15.50836598
16.72961683
18.11495066
20.11245642
21.77367869
23.36251685
25.30683871
27.55652258
29.21359573
30.40536904
31.77549273
33.58142654
34.53082486
34.88543074
35.35342864
36.0290177
36.90423135
37.46934495
37.56645715
37.62966057
37.73267798
37.91181892
38.16549409
38.24953652
38.29119662
38.34645742
38.36218566
38.3929309
38.42164942
38.3937427
38.40026557
38.38336661
38.33936666
38.36316477
38.28778471
38.33314987
38.20586044
37.97902164
37.8506522
37.6975586
37.27052124
37.00034665
36.0481502
34.93003036
34.07053232
32.30412568
30.69395298
28.64364764
26.31547468
25.02981845
22.36544566
20.05425406
18.95929024
16.03889085
14.0073958
12.29889681
10.89527143
9.810848408
8.717851034
8.647596949
8.146174941
7.877516336
7.743073217
7.792727379
7.936510723
8.213132976
8.661352874
8.782859726
8.808017724
8.846418321
8.921922648
9.03854619
9.185174088
9.366216909
9.57634748
9.812246559
10.07240168
10.35577562
10.65708367
1.449196093
1.47637489
1.544385373
1.634617627
1.695538795
1.766840498
1.845129214
1.950592139
2.03076292
2.1256378
2.247622449
2.408110244
2.534746338
2.675351357
2.864662056
3.114999894
3.322080443
3.55338925
3.833781502
4.253016754
4.645478473
4.929135536
5.258529054
5.740859322
6.173635143
6.604764698
7.175628349
7.949954411
8.641526554
9.186797293
9.918354041
11.14976982
12.02009164
12.38799637
12.96327158
13.99529577
15.82832451
17.69172224
18.01816195
18.28653073
18.80841045
19.84832676
21.7169139
22.4880089
22.90907391
23.56734056
23.74836238
24.17036718
24.55836096
24.18372278
24.27534182
24.04397739
23.54319516
23.81551144
23.00152855
23.48168723
22.06307694
20.38487083
19.58555958
18.74429034
17.0847199
16.14939546
14.15952147
12.60290058
11.71738404
10.41806241
9.490290209
8.581119618
7.701074107
7.275481699
6.529857611
5.939281792
5.667915038
4.967508342
4.486002173
4.091360469
3.762515118
3.506317688
3.241561347
3.23875359
3.119115039
3.060958734
3.039538558
3.064931659
3.117543481
3.206079372
3.334776075
3.372278826
3.380885372
3.397793801
3.425604252
3.464299027
3.509980633
3.56346969
3.623670642
3.689774296
3.761301561
3.837619618
3.913074414
0.6488654634
0.6559344093
0.6739523739
0.6992370802
0.7162851039
0.7384926733
0.772128714
0.8187837145
0.8556941066
0.8972872505
0.950034719
1.018195312
1.072302256
1.129728289
1.20336903
1.300083236
1.378207438
1.462047837
1.561238748
1.702138749
1.830327813
1.919791219
2.022348905
2.168770416
2.296613002
2.420606151
2.581412854
2.792132791
2.974942535
3.115003583
3.301146484
3.604468162
3.816160955
3.903055483
4.04212413
4.293881479
4.73667148
5.174593327
5.249308126
5.313300428
5.446356144
5.711357656
6.189101194
6.393456681
6.505991228
6.696408297
6.746421394
6.875147537
6.990443933
6.884297291
6.914015268
6.848035221
6.716240444
6.794227614
6.578452289
6.710723436
6.301734926
5.897000572