/*--------------------------------*- C++ -*----------------------------------*\
| =========                 |                                                 |
| \\      /  F ield         | OpenFOAM: The Open Source CFD Toolbox           |
|  \\    /   O peration     | Version:  v1706                                 |
|   \\  /    A nd           | Web:      www.OpenFOAM.com                      |
|    \\/     M anipulation  |                                                 |
\*---------------------------------------------------------------------------*/
FoamFile
{
    version     2.0;
    format      ascii;
    class       volScalarField;
    location    "0.0025";
    object      NO;
}
// * * * * * * * * * * * * * * * * * * * * * * * * * * * * * * * * * * * * * //

dimensions      [0 0 0 0 0 0 0];


internalField   nonuniform List<scalar> 
11682
(
3.392425219e-37
3.084358628e-37
2.422472563e-37
1.981521597e-37
1.764311645e-37
1.247841942e-37
1.170127774e-37
9.392240393e-38
7.985953681e-38
6.303366284e-38
5.441134276e-38
4.242335366e-38
3.178644445e-38
2.177325298e-38
1.827130432e-38
1.18980075e-38
8.039586409e-39
6.947170593e-39
5.384183418e-39
3.434138049e-39
2.80753158e-39
2.08776336e-39
1.650631583e-39
1.269427169e-39
1.017039565e-39
8.62996884e-40
6.239882134e-40
4.769267037e-40
3.597216404e-40
2.660591508e-40
2.080526131e-40
1.535163592e-40
1.250678989e-40
9.419224277e-41
9.190728794e-41
8.038752103e-41
6.833667269e-41
5.628640205e-41
4.604899828e-41
4.173451107e-41
3.829773659e-41
3.474876037e-41
2.972482892e-41
2.78938668e-41
2.326407601e-41
2.373696378e-41
2.207391443e-41
2.296405816e-41
2.318595276e-41
2.438653146e-41
2.393185242e-41
2.559053711e-41
2.880969079e-41
3.131767677e-41
3.443066158e-41
3.866791017e-41
4.078134603e-41
5.002328866e-41
6.671047829e-41
8.494476231e-41
1.079097156e-40
1.417801436e-40
1.949769108e-40
2.597533614e-40
3.896511021e-40
5.690005001e-40
7.897071608e-40
1.282496207e-39
2.208434134e-39
3.573191193e-39
5.565924593e-39
8.626618446e-39
1.381425729e-38
2.134253945e-38
3.193085444e-38
5.472760264e-38
8.860169827e-38
1.443612035e-37
2.29945325e-37
3.187830918e-37
5.163953984e-37
7.37941867e-37
9.783834795e-37
1.180411335e-36
1.483294404e-36
1.721367822e-36
1.900626518e-36
2.010016621e-36
2.211171329e-36
2.424705862e-36
2.505293697e-36
2.560895135e-36
2.822762518e-36
2.9388973e-36
3.042906051e-36
3.094273671e-36
3.160780501e-36
3.232134937e-36
3.14821191e-36
1.650009274e-35
1.554664577e-35
1.287677435e-35
9.527566654e-36
8.780447594e-36
7.40460731e-36
5.919575089e-36
4.970582325e-36
4.064316592e-36
3.470330897e-36
2.817432127e-36
2.098786487e-36
1.694808392e-36
1.285817764e-36
9.090723202e-37
5.952108665e-37
4.415005298e-37
3.431146321e-37
2.682971743e-37
1.817542771e-37
1.414354826e-37
1.076767244e-37
8.722055945e-38
6.670683627e-38
5.296500784e-38
4.296340488e-38
3.37780942e-38
2.476484369e-38
1.80913119e-38
1.300749828e-38
1.02562898e-38
7.989093088e-39
6.142791131e-39
5.260462367e-39
4.617251094e-39
3.956305734e-39
3.374233668e-39
2.761776314e-39
2.248514705e-39
2.063443986e-39
1.880511576e-39
1.714567537e-39
1.521851139e-39
1.374709101e-39
1.266892318e-39
1.178739365e-39
1.122001756e-39
1.126203587e-39
1.127869992e-39
1.186649565e-39
1.240981027e-39
1.307367657e-39
1.402907404e-39
1.520295511e-39
1.662462665e-39
1.875975187e-39
2.152028903e-39
2.60800291e-39
3.21659698e-39
4.047330236e-39
5.061961215e-39
6.751693972e-39
9.228032408e-39
1.297828835e-38
1.855132238e-38
2.668574323e-38
3.813416355e-38
5.923209374e-38
1.008539638e-37
1.642396263e-37
2.583624803e-37
3.981279189e-37
6.275362437e-37
9.616575129e-37
1.525640458e-36
2.442019873e-36
3.910203844e-36
6.358100774e-36
1.004151359e-35
1.512149105e-35
2.243190497e-35
3.1594424e-35
4.145178883e-35
5.185991369e-35
6.172839215e-35
7.149064223e-35
7.844582455e-35
8.53567948e-35
9.139432265e-35
9.818903407e-35
1.034376623e-34
1.086325172e-34
1.133068624e-34
1.168462941e-34
1.208102918e-34
1.235167807e-34
1.255873428e-34
1.255093136e-34
1.294853643e-34
7.901377798e-34
7.336404529e-34
6.195798607e-34
4.77208195e-34
4.12943993e-34
3.499847878e-34
2.777262967e-34
2.360547646e-34
1.982072086e-34
1.63263873e-34
1.331737937e-34
1.008324217e-34
8.034087079e-35
6.113015633e-35
4.316015873e-35
2.845950035e-35
2.12700144e-35
1.618226287e-35
1.282448942e-35
8.871855305e-36
6.718087318e-36
5.313079213e-36
4.142159028e-36
3.153489627e-36
2.506149829e-36
2.033178302e-36
1.604420469e-36
1.182615836e-36
8.466545547e-37
6.131174175e-37
4.948162824e-37
3.776081553e-37
2.916768378e-37
2.512186935e-37
2.163248221e-37
1.92458461e-37
1.600238243e-37
1.29882447e-37
1.058175887e-37
9.683176994e-38
8.861016211e-38
8.175128127e-38
7.133204919e-38
6.470440595e-38
5.997178873e-38
5.588309609e-38
5.314082512e-38
5.286527971e-38
5.321537283e-38
5.536430073e-38
5.822803234e-38
6.122867873e-38
6.51777096e-38
7.067853778e-38
7.903062598e-38
8.755420615e-38
9.949798596e-38
1.201274214e-37
1.458557468e-37
1.876267721e-37
2.370625726e-37
3.100483757e-37
4.168516508e-37
5.839926764e-37
8.375752498e-37
1.198873213e-36
1.742906701e-36
2.644227944e-36
4.593933141e-36
7.272289987e-36
1.137268728e-35
1.797825703e-35
2.71341473e-35
4.164523015e-35
6.485050685e-35
1.055018552e-34
1.661150752e-34
2.671861805e-34
4.185091524e-34
6.318408946e-34
9.299980279e-34
1.292071957e-33
1.66262809e-33
2.149173563e-33
2.523128419e-33
2.804268983e-33
3.081389646e-33
3.330664819e-33
3.556058621e-33
3.774217764e-33
3.988362575e-33
4.137752342e-33
4.273542584e-33
4.383236698e-33
4.535894423e-33
4.632863544e-33
4.695331252e-33
4.771931877e-33
4.828262472e-33
3.632080918e-32
3.531169491e-32
2.946508268e-32
2.358373338e-32
1.990589475e-32
1.654029402e-32
1.357808446e-32
1.117108509e-32
9.822829702e-33
8.048298589e-33
6.351499967e-33
4.782676129e-33
3.842384569e-33
2.963391237e-33
2.038569825e-33
1.341800049e-33
9.977779091e-34
7.614668512e-34
6.100448518e-34
4.129354516e-34
3.200838999e-34
2.499491722e-34
1.999729791e-34
1.491042994e-34
1.180024275e-34
9.636721136e-35
7.629187682e-35
5.701555657e-35
3.951475118e-35
2.981054917e-35
2.345703116e-35
1.778180502e-35
1.377319043e-35
1.188063227e-35
1.044718847e-35
9.250596508e-36
7.642986522e-36
6.103620756e-36
4.918551374e-36
4.545731894e-36
4.260062717e-36
3.882452403e-36
3.317593635e-36
3.042580332e-36
2.820525665e-36
2.623548342e-36
2.51089188e-36
2.481861231e-36
2.495738287e-36
2.566629121e-36
2.72819207e-36
2.867676935e-36
3.009642536e-36
3.253409913e-36
3.697189951e-36
4.082162606e-36
4.607019243e-36
5.52284936e-36
6.845335671e-36
8.584905074e-36
1.090358762e-35
1.420990057e-35
1.871841699e-35
2.705479118e-35
3.790198944e-35
5.38358222e-35
7.815370073e-35
1.19220747e-34
2.057186481e-34
3.18747182e-34
5.047487152e-34
7.815823995e-34
1.157476177e-33
1.780191476e-33
2.836909305e-33
4.486458975e-33
7.045168162e-33
1.123465967e-32
1.721289333e-32
2.629215689e-32
3.830973366e-32
5.232380379e-32
6.952501138e-32
8.613829099e-32
1.018122714e-31
1.143490444e-31
1.220031207e-31
1.290340824e-31
1.344413947e-31
1.422485368e-31
1.524427409e-31
1.577460571e-31
1.606500705e-31
1.662861548e-31
1.702210129e-31
1.725441719e-31
1.756301283e-31
1.77905313e-31
1.795358597e-31
1.866955654e-30
1.682678595e-30
1.467163311e-30
1.110455286e-30
9.250496512e-31
7.807856492e-31
6.50369815e-31
5.251025018e-31
4.686860096e-31
3.902512168e-31
3.011962271e-31
2.248833217e-31
1.821055505e-31
1.393805104e-31
9.833424429e-32
6.178480539e-32
4.685503907e-32
3.590881658e-32
2.897311163e-32
1.961331746e-32
1.511651783e-32
1.196128439e-32
9.599727621e-33
7.100555452e-33
5.660368776e-33
4.679344677e-33
3.6337435e-33
2.713281963e-33
1.927118053e-33
1.402195238e-33
1.108819779e-33
8.345453512e-34
6.718569707e-34
5.621456757e-34
4.935460492e-34
4.402592185e-34
3.615616408e-34
2.858999787e-34
2.374724608e-34
2.154891416e-34
2.010216114e-34
1.812451846e-34
1.597425336e-34
1.430744411e-34
1.323857902e-34
1.220478674e-34
1.185138328e-34
1.167419867e-34
1.177212185e-34
1.180381485e-34
1.273416542e-34
1.340323784e-34
1.432517327e-34
1.535119799e-34
1.720898768e-34
1.899627905e-34
2.132202059e-34
2.526227486e-34
3.221294088e-34
3.877057955e-34
5.056626733e-34
6.533490935e-34
8.890528048e-34
1.225043437e-33
1.71442673e-33
2.420294706e-33
3.484278516e-33
5.380192778e-33
9.239521291e-33
1.442244308e-32
2.197452628e-32
3.412326464e-32
5.075446443e-32
7.534643807e-32
1.212205911e-31
1.875556329e-31
3.003766404e-31
4.72318216e-31
7.436193589e-31
1.076677094e-30
1.581418243e-30
2.112051e-30
2.789402087e-30
3.348966119e-30
4.070601583e-30
4.533787263e-30
4.763912829e-30
5.066930226e-30
5.359871716e-30
5.613701056e-30
5.819847701e-30
5.93791315e-30
6.04697516e-30
6.238811884e-30
6.242433756e-30
6.456899903e-30
6.548065873e-30
6.583668668e-30
6.625223905e-30
9.086213112e-29
7.929215593e-29
6.9232878e-29
5.376412894e-29
4.489794758e-29
3.69469978e-29
3.133431882e-29
2.558926399e-29
2.228051404e-29
1.858349925e-29
1.478026718e-29
1.046930778e-29
8.585793123e-30
6.723938698e-30
4.645248709e-30
3.116649222e-30
2.233279076e-30
1.703590243e-30
1.373603102e-30
9.704635489e-31
7.040069673e-31
5.541033834e-31
4.566958529e-31
3.398446605e-31
2.667952869e-31
2.221257767e-31
1.741185894e-31
1.28562815e-31
9.107974454e-32
6.595753082e-32
5.239996572e-32
3.863553438e-32
3.219784105e-32
2.636574567e-32
2.34173511e-32
2.099829847e-32
1.705981635e-32
1.332247933e-32
1.137792129e-32
1.010997033e-32
9.517368304e-33
8.702123537e-33
7.376645529e-33
6.702377647e-33
6.188947505e-33
5.736327891e-33
5.588683195e-33
5.502082703e-33
5.502566051e-33
5.583487155e-33
5.936900693e-33
6.250299931e-33
6.709369171e-33
7.124804835e-33
7.991927214e-33
8.822090391e-33
9.81826642e-33
1.187334481e-32
1.484000844e-32
1.821387856e-32
2.325611081e-32
3.008375801e-32
4.066250785e-32
5.54736942e-32
7.704823176e-32
1.086327262e-31
1.550384071e-31
2.390553552e-31
4.150123068e-31
6.457420324e-31
9.838972892e-31
1.502331565e-30
2.187759451e-30
3.298329685e-30
5.200777504e-30
8.165810033e-30
1.270896318e-29
1.969612709e-29
3.120325075e-29
4.336244667e-29
6.448903527e-29
8.807308371e-29
1.122066405e-28
1.399339454e-28
1.630089385e-28
1.796067144e-28
1.88225326e-28
1.96851092e-28
2.048288402e-28
2.141978162e-28
2.212405011e-28
2.23908925e-28
2.263653546e-28
2.330299903e-28
2.379758748e-28
2.40057482e-28
2.424277532e-28
2.422869629e-28
2.43259387e-28
4.339023912e-27
3.972081542e-27
3.212051907e-27
2.525767251e-27
2.138209848e-27
1.758830653e-27
1.501857113e-27
1.237272988e-27
1.057550452e-27
8.882323834e-28
7.039600592e-28
4.88044654e-28
4.012129551e-28
3.290902684e-28
2.196458059e-28
1.472108764e-28
1.092441496e-28
8.115880389e-29
6.485862766e-29
4.663854793e-29
3.378456846e-29
2.663858128e-29
2.166419486e-29
1.649251956e-29
1.297456678e-29
1.069930833e-29
8.454237269e-30
6.062001933e-30
4.301511186e-30
3.102219841e-30
2.474956743e-30
1.890309303e-30
1.53139659e-30
1.296440529e-30
1.131820376e-30
1.000011369e-30
7.994962201e-31
6.098614275e-31
5.231422071e-31
4.892974406e-31
4.527762746e-31
4.093834705e-31
3.553791202e-31
3.133392084e-31
2.887896736e-31
2.715527118e-31
2.581929251e-31
2.581395583e-31
2.574995048e-31
2.622790466e-31
2.761543394e-31
2.871041799e-31
3.115428272e-31
3.313862752e-31
3.712293067e-31
4.085008414e-31
4.457747821e-31
5.495476845e-31
6.81456462e-31
8.392663728e-31
1.060664669e-30
1.376312001e-30
1.858455926e-30
2.525867317e-30
3.463980106e-30
4.875365527e-30
6.874555809e-30
1.061261334e-29
1.850719273e-29
2.896615497e-29
4.312010173e-29
6.579362678e-29
9.418648445e-29
1.401818018e-28
2.25052034e-28
3.496696224e-28
5.381820047e-28
8.184863005e-28
1.31424571e-27
1.876585785e-27
2.706331098e-27
3.680347203e-27
4.650292498e-27
5.651979144e-27
6.50770551e-27
7.096721413e-27
7.38112916e-27
7.642508824e-27
7.742208642e-27
8.099697915e-27
8.33337128e-27
8.561227218e-27
8.725462222e-27
8.844272099e-27
8.917452903e-27
8.8992822e-27
8.94139059e-27
8.979083808e-27
8.964426063e-27
2.127554887e-25
1.901562648e-25
1.534785575e-25
1.211078369e-25
1.042741727e-25
8.375510291e-26
7.112382339e-26
5.911698388e-26
5.016275343e-26
4.236561968e-26
3.34204014e-26
2.417282646e-26
1.929063339e-26
1.567546768e-26
1.039112027e-26
7.0009427e-27
5.095361377e-27
3.831604345e-27
3.035119423e-27
2.225486948e-27
1.642721324e-27
1.278189231e-27
1.021672678e-27
7.821565304e-28
6.210437895e-28
5.106137558e-28
4.001290357e-28
2.846492105e-28
2.00488284e-28
1.449418113e-28
1.167458558e-28
8.96822566e-29
7.266117357e-29
6.252676694e-29
5.328678071e-29
4.736920245e-29
3.726510855e-29
2.965438706e-29
2.487538939e-29
2.296987681e-29
2.145043205e-29
1.923724378e-29
1.662439487e-29
1.462582684e-29
1.366158742e-29
1.307588473e-29
1.253575937e-29
1.214466813e-29
1.207802931e-29
1.240969943e-29
1.286971679e-29
1.363742468e-29
1.470868429e-29
1.554667019e-29
1.722592041e-29
1.88483077e-29
2.08654661e-29
2.559744099e-29
3.115049197e-29
3.852224482e-29
4.909546082e-29
6.268398615e-29
8.461665254e-29
1.144126806e-28
1.557716342e-28
2.188800923e-28
3.052348846e-28
4.621373275e-28
8.221395935e-28
1.287556833e-27
1.857187133e-27
2.881854869e-27
4.041721512e-27
6.155893777e-27
9.515871913e-27
1.497268503e-26
2.286237269e-26
3.438318139e-26
5.458164198e-26
7.746024296e-26
1.115601064e-25
1.520164613e-25
1.896052812e-25
2.298362597e-25
2.596696779e-25
2.789569068e-25
2.875912648e-25
2.951462966e-25
3.00816825e-25
3.074602861e-25
3.113225728e-25
3.207092412e-25
3.271583956e-25
3.305231022e-25
3.31124287e-25
3.315546029e-25
3.305312583e-25
3.305816963e-25
3.283010519e-25
1.01257383e-23
9.371688278e-24
7.300039732e-24
5.671551833e-24
5.070511549e-24
4.123670328e-24
3.349877607e-24
2.815265769e-24
2.377870836e-24
2.018702612e-24
1.586918643e-24
1.168683061e-24
9.070516175e-25
7.435907441e-25
4.917133814e-25
3.308905011e-25
2.472779718e-25
1.878845041e-25
1.461857217e-25
1.053269399e-25
8.001153509e-26
6.045694285e-26
4.931806866e-26
3.715768579e-26
2.972763587e-26
2.440850344e-26
1.895481623e-26
1.326934284e-26
9.722822992e-27
6.755923111e-27
5.476015663e-27
4.217736782e-27
3.422464138e-27
2.976161746e-27
2.615397485e-27
2.222538363e-27
1.767705296e-27
1.380153779e-27
1.147060127e-27
1.076079836e-27
1.004507218e-27
9.027628265e-28
7.777315807e-28
6.85080914e-28
6.404711306e-28
6.126692041e-28
5.889045895e-28
5.701447695e-28
5.686880046e-28
5.807838226e-28
6.037916307e-28
6.402210018e-28
6.827752071e-28
7.303406953e-28
7.986877066e-28
8.628486835e-28
9.796547636e-28
1.193924748e-27
1.466076744e-27
1.76141512e-27
2.231268258e-27
2.800330635e-27
3.843838461e-27
5.17331747e-27
6.989311927e-27
9.84985598e-27
1.385821502e-26
2.023628737e-26
3.612351108e-26
5.730937739e-26
8.507306355e-26
1.269006163e-25
1.726525377e-25
2.602652984e-25
4.185354285e-25
6.423116591e-25
9.727417321e-25
1.435824388e-24
2.332338988e-24
3.238558087e-24
4.605675647e-24
6.234121934e-24
7.765742589e-24
9.261671219e-24
1.030167545e-23
1.091475015e-23
1.114815873e-23
1.135384455e-23
1.143751366e-23
1.156249873e-23
1.196397575e-23
1.185763627e-23
1.223425815e-23
1.232743516e-23
1.227842564e-23
1.224231206e-23
1.211795836e-23
1.209339047e-23
1.204197759e-23
4.817885816e-22
4.454349444e-22
3.601291528e-22
2.764157174e-22
2.410520216e-22
1.983496074e-22
1.577286533e-22
1.331618017e-22
1.123590279e-22
9.639451749e-23
7.635472126e-23
5.71267388e-23
4.251410293e-23
3.532454846e-23
2.295924987e-23
1.61080493e-23
1.168069954e-23
9.069832688e-24
6.934028295e-24
4.982869772e-24
3.803038154e-24
2.85665098e-24
2.300562296e-24
1.763538758e-24
1.422286914e-24
1.165268406e-24
9.152774415e-25
6.29821047e-25
4.597569343e-25
3.31642804e-25
2.637204628e-25
1.98725733e-25
1.582243818e-25
1.412491621e-25
1.240274198e-25
1.067518172e-25
8.44480478e-26
6.369492842e-26
5.246459851e-26
5.06684639e-26
4.712155876e-26
4.247639424e-26
3.646392097e-26
3.235117957e-26
3.010213674e-26
2.861044232e-26
2.780707471e-26
2.642099423e-26
2.691912576e-26
2.722596682e-26
2.801399237e-26
2.974717904e-26
3.166526835e-26
3.372697711e-26
3.688282053e-26
4.046026979e-26
4.518652725e-26
5.561692819e-26
6.765539615e-26
8.056791616e-26
1.032629515e-25
1.320831289e-25
1.747560273e-25
2.35875814e-25
3.230053127e-25
4.403216055e-25
6.274429438e-25
9.045949967e-25
1.666002054e-24
2.537838502e-24
3.748575998e-24
5.588741611e-24
7.613170995e-24
1.143189465e-23
1.782297498e-23
2.717757438e-23
4.117826554e-23
6.016988585e-23
9.822844909e-23
1.34207694e-22
1.888857616e-22
2.521106247e-22
3.11183129e-22
3.702570703e-22
4.065472617e-22
4.254177845e-22
4.304304188e-22
4.341490404e-22
4.38567712e-22
4.472818145e-22
4.527555555e-22
4.467232842e-22
4.5727659e-22
4.575076569e-22
4.567436003e-22
4.542099476e-22
4.50046023e-22
4.44675709e-22
4.394708276e-22
2.30450808e-20
2.103373655e-20
1.700556836e-20
1.331872881e-20
1.122210993e-20
9.536020569e-21
7.694908018e-21
6.312105984e-21
5.305167639e-21
4.560195084e-21
3.609220711e-21
2.716573644e-21
2.064737471e-21
1.706087159e-21
1.115371139e-21
7.624957278e-22
5.475299909e-22
4.330050252e-22
3.340843758e-22
2.360249551e-22
1.802742698e-22
1.341582597e-22
1.119799148e-22
8.358644049e-23
6.778335243e-23
5.562002354e-23
4.346872903e-23
3.005354091e-23
2.143586484e-23
1.584726315e-23
1.234731479e-23
9.385700851e-24
7.757892907e-24
6.692956976e-24
5.841982818e-24
5.016648279e-24
3.972446688e-24
3.104089372e-24
2.518769442e-24
2.413732264e-24
2.251177302e-24
2.014477808e-24
1.716611184e-24
1.538568357e-24
1.416892327e-24
1.330682987e-24
1.30322278e-24
1.267496448e-24
1.263463574e-24
1.278112605e-24
1.302296278e-24
1.38371962e-24
1.476324149e-24
1.559974353e-24
1.693525641e-24
1.856571585e-24
2.070544142e-24
2.584923289e-24
3.127807169e-24
3.705660717e-24
4.712321908e-24
6.014954759e-24
7.946687342e-24
1.069297411e-23
1.458268739e-23
1.993834464e-23
2.820265738e-23
4.215195509e-23
7.421686064e-23
1.117770188e-22
1.643692568e-22
2.452262668e-22
3.312079479e-22
4.918264233e-22
7.563838384e-22
1.141567499e-21
1.742818175e-21
2.479950976e-21
4.153732058e-21
5.567064926e-21
7.741612408e-21
1.015189979e-20
1.280271954e-20
1.475653261e-20
1.598294185e-20
1.655510382e-20
1.655385322e-20
1.651345684e-20
1.639872875e-20
1.681554469e-20
1.699673989e-20
1.709788813e-20
1.708285285e-20
1.687313811e-20
1.680712305e-20
1.674137495e-20
1.661084758e-20
1.625821052e-20
1.573014809e-20
1.121652645e-18
9.847152846e-19
7.891510044e-19
6.3652119e-19
5.455599921e-19
4.567531808e-19
3.654462726e-19
3.004658548e-19
2.514429649e-19
2.160958752e-19
1.699912741e-19
1.294589514e-19
9.968124213e-20
8.136978886e-20
5.298934516e-20
3.595713541e-20
2.582562997e-20
2.071532249e-20
1.598621042e-20
1.115201802e-20
8.546905546e-21
6.288039491e-21
5.294608202e-21
3.932273291e-21
3.213052785e-21
2.648324664e-21
2.075004718e-21
1.446932734e-21
1.027024207e-21
7.517175282e-22
5.880578037e-22
4.4175947e-22
3.663303506e-22
3.157412978e-22
2.747307854e-22
2.383612534e-22
1.875928886e-22
1.459386106e-22
1.20961273e-22
1.144075306e-22
1.066576081e-22
9.651926056e-23
8.180812455e-23
7.260517958e-23
6.741368436e-23
6.16261817e-23
6.100448921e-23
5.900444162e-23
5.894566863e-23
6.001477061e-23
6.175167949e-23
6.453330791e-23
6.923026222e-23
7.247711243e-23
7.75409532e-23
8.532675586e-23
9.356522474e-23
1.184663984e-22
1.475946736e-22
1.70310245e-22
2.154516149e-22
2.695343674e-22
3.627668208e-22
4.855487526e-22
6.583944888e-22
8.931337398e-22
1.25384057e-21
1.852377679e-21
3.284864417e-21
4.903076593e-21
7.208707277e-21
1.061082309e-20
1.425514693e-20
2.11582166e-20
3.222289246e-20
4.774741859e-20
7.365311747e-20
1.042885929e-19
1.776876496e-19
2.290756378e-19
3.176892276e-19
4.234911798e-19
5.170889174e-19
5.8664347e-19
6.27940609e-19
6.435061318e-19
6.348727515e-19
6.253400021e-19
6.275866134e-19
6.315303878e-19
6.348012102e-19
6.36408666e-19
6.351103695e-19
6.150393635e-19
6.157340628e-19
6.140536213e-19
6.084724443e-19
5.990849559e-19
5.86685941e-19
5.321321457e-17
4.529653429e-17
3.804207821e-17
3.028373504e-17
2.59883648e-17
2.172899948e-17
1.759595418e-17
1.43561052e-17
1.202613095e-17
1.026004596e-17
8.176291962e-18
6.168111635e-18
4.776773885e-18
3.874923146e-18
2.509438885e-18
1.689322057e-18
1.236478889e-18
9.993229583e-19
7.759009261e-19
5.254923878e-19
4.051084934e-19
3.00685427e-19
2.504852567e-19
1.855587748e-19
1.550514989e-19
1.256096486e-19
9.853439153e-20
6.81242669e-20
4.826127149e-20
3.563879651e-20
2.767164084e-20
2.085877271e-20
1.727441173e-20
1.485255164e-20
1.306122447e-20
1.127830806e-20
8.869131676e-21
6.824136243e-21
5.638442413e-21
5.424801375e-21
5.060533603e-21
4.574137234e-21
3.842369525e-21
3.391174539e-21
3.163989779e-21
2.842404294e-21
2.82297866e-21
2.737896841e-21
2.797376009e-21
2.81910286e-21
2.861701849e-21
2.974113773e-21
3.205659599e-21
3.366813039e-21
3.560423429e-21
3.93545171e-21
4.427637675e-21
5.502848382e-21
6.820381169e-21
7.831794923e-21
1.001116709e-20
1.252338039e-20
1.663212549e-20
2.251418317e-20
2.970008503e-20
4.012259477e-20
5.580058823e-20
8.122145003e-20
1.448292733e-19
2.168386048e-19
3.081196917e-19
4.70082116e-19
6.045758649e-19
9.062878104e-19
1.369306231e-18
2.047864095e-18
3.117182843e-18
4.264322911e-18
7.757152221e-18
9.456209913e-18
1.334249818e-17
1.736278766e-17
2.0899763e-17
2.329265126e-17
2.465599003e-17
2.489256642e-17
2.419609164e-17
2.357921243e-17
2.348343308e-17
2.352125751e-17
2.356087123e-17
2.355091161e-17
2.344211972e-17
2.324299139e-17
2.294981016e-17
2.266691484e-17
2.23356679e-17
2.187371729e-17
2.128454036e-17
2.520456969e-15
2.265157215e-15
1.788967365e-15
1.444639677e-15
1.229651049e-15
1.029316856e-15
8.329683914e-16
6.833038881e-16
5.78838308e-16
4.870530604e-16
3.871469327e-16
2.921643337e-16
2.305281456e-16
1.842898534e-16
1.187175181e-16
8.101743497e-17
5.881374174e-17
4.796678579e-17
3.718211492e-17
2.511438333e-17
1.9205153e-17
1.415362653e-17
1.19608985e-17
8.967382542e-18
7.341877633e-18
5.906761069e-18
4.67805201e-18
3.257762067e-18
2.272026571e-18
1.684973006e-18
1.319772649e-18
9.940800285e-19
8.083778483e-19
6.979252598e-19
6.326192609e-19
5.617896542e-19
4.196235727e-19
3.155113545e-19
2.669005276e-19
2.600740288e-19
2.405734641e-19
2.155298196e-19
1.799612786e-19
1.581142553e-19
1.474182983e-19
1.386840438e-19
1.347608149e-19
1.327840868e-19
1.308944357e-19
1.320821658e-19
1.316869377e-19
1.362719839e-19
1.462448068e-19
1.579307364e-19
1.687426172e-19
1.825094977e-19
2.035602123e-19
2.56908438e-19
3.138937815e-19
3.604199414e-19
4.551046079e-19
5.668484203e-19
7.433989838e-19
1.021969e-18
1.33416212e-18
1.808619621e-18
2.496486017e-18
3.588222877e-18
6.391311068e-18
9.4316569e-18
1.376370894e-17
2.044577713e-17
2.515388727e-17
3.879407001e-17
5.861946008e-17
8.813795569e-17
1.313072764e-16
1.703421036e-16
3.367898111e-16
3.877810028e-16
5.630188946e-16
7.219129978e-16
8.578013734e-16
9.308849001e-16
9.641022142e-16
9.580963661e-16
9.168265308e-16
8.871531138e-16
8.77330722e-16
8.735986701e-16
8.707107384e-16
8.668228773e-16
8.583712763e-16
8.476328853e-16
8.351227871e-16
8.238058774e-16
8.136173947e-16
7.984707601e-16
7.748151199e-16
1.186433292e-13
1.068886857e-13
8.648584761e-14
6.830764496e-14
5.816638943e-14
4.869425997e-14
4.058634025e-14
3.246792056e-14
2.773862511e-14
2.30695762e-14
1.832268184e-14
1.382468042e-14
1.100794398e-14
8.747949114e-15
5.716292124e-15
3.835458146e-15
2.789371351e-15
2.307334267e-15
1.752859361e-15
1.177776342e-15
9.092119872e-16
6.779986075e-16
5.757916097e-16
4.239267843e-16
3.423468319e-16
2.728911346e-16
2.218367659e-16
1.54175947e-16
1.069366029e-16
7.941674349e-17
6.183222759e-17
4.752260275e-17
3.885413018e-17
3.307583475e-17
2.978705942e-17
2.675864698e-17
1.982783938e-17
1.446203047e-17
1.258240893e-17
1.214344089e-17
1.155930058e-17
1.014038483e-17
8.390954776e-18
7.406854757e-18
6.808565705e-18
6.491807214e-18
6.33238965e-18
6.213602074e-18
6.081939133e-18
6.189393856e-18
6.023094637e-18
6.325294295e-18
6.893533476e-18
7.30411257e-18
7.997642984e-18
8.44774343e-18
9.326419062e-18
1.170499858e-17
1.430054742e-17
1.659141947e-17
2.034823637e-17
2.550049067e-17
3.44860279e-17
4.567715416e-17
5.997925479e-17
8.130175594e-17
1.095032438e-16
1.57643248e-16
2.86656528e-16
4.074295349e-16
6.058266488e-16
8.969892226e-16
1.086604041e-15
1.659582097e-15
2.564046705e-15
3.822767648e-15
5.664496765e-15
6.614153251e-15
1.476957618e-14
1.596617901e-14
2.425790048e-14
3.043198e-14
3.612589842e-14
3.813692541e-14
3.766502768e-14
3.675104996e-14
3.45646462e-14
3.312607873e-14
3.263376516e-14
3.237548473e-14
3.212413397e-14
3.196133931e-14
3.126818314e-14
3.063014247e-14
2.999110406e-14
2.938277892e-14
2.924808243e-14
2.888149447e-14
2.801476341e-14
5.532049486e-12
5.044337406e-12
4.085432867e-12
3.228605646e-12
2.751247881e-12
2.301476838e-12
1.919186427e-12
1.535946809e-12
1.314372749e-12
1.091837811e-12
8.669246061e-13
6.538512112e-13
5.215088596e-13
4.14296471e-13
2.696483141e-13
1.812861127e-13
1.415833553e-13
1.105274657e-13
8.529285556e-14
5.70692053e-14
4.303920867e-14
3.386696763e-14
2.783908688e-14
2.003414972e-14
1.65938286e-14
1.348076169e-14
1.051938488e-14
7.290776416e-15
5.028475318e-15
3.77103484e-15
3.017976932e-15
2.232857471e-15
1.86939406e-15
1.600248249e-15
1.385090033e-15
1.271947923e-15
9.337643965e-16
6.608477557e-16
5.781830039e-16
5.550605625e-16
5.462079475e-16
4.753618306e-16
3.859560464e-16
3.513428695e-16
3.122331986e-16
3.067199629e-16
2.991099358e-16
2.917662883e-16
2.818120146e-16
2.901536098e-16
2.776177285e-16
2.870971149e-16
3.127868386e-16
3.380839839e-16
3.724970373e-16
3.907588735e-16
4.258572688e-16
5.246274988e-16
6.371909079e-16
7.565020737e-16
9.441884086e-16
1.139390055e-15
1.55151899e-15
2.121126002e-15
2.685025084e-15
3.650150891e-15
5.044835406e-15
6.891738316e-15
1.391934828e-14
1.954592936e-14
2.708029224e-14
4.013989952e-14
4.559379223e-14
7.035939455e-14
1.119456204e-13
1.593517511e-13
2.408299146e-13
2.837334045e-13
6.186210765e-13
6.531535414e-13
9.984726243e-13
1.259038889e-12
1.529437156e-12
1.642938717e-12
1.683375752e-12
1.617920754e-12
1.495640597e-12
1.424482723e-12
1.402082217e-12
1.386103668e-12
1.368148044e-12
1.344734461e-12
1.315387394e-12
1.281163702e-12
1.244203181e-12
1.20421316e-12
1.160008084e-12
1.116786496e-12
1.072274559e-12
2.890389041e-10
2.67367664e-10
2.1657074e-10
1.71274459e-10
1.460254197e-10
1.220555071e-10
1.018216671e-10
8.150365602e-11
6.982502422e-11
5.79490853e-11
4.599600713e-11
3.467261146e-11
2.768223054e-11
2.191790531e-11
1.422952358e-11
8.763160634e-12
6.706428558e-12
5.231415297e-12
4.007879839e-12
2.713857453e-12
2.034633339e-12
1.601606451e-12
1.321125627e-12
9.435397982e-13
7.867532392e-13
6.380151473e-13
4.976283483e-13
3.426124157e-13
2.357243364e-13
1.810483963e-13
1.438137473e-13
1.040013363e-13
8.866406113e-14
7.875769602e-14
7.037944133e-14
6.052501571e-14
4.360498189e-14
3.377325556e-14
2.930039766e-14
2.80039646e-14
2.58608508e-14
2.24776795e-14
1.846543429e-14
1.678805494e-14
1.570907506e-14
1.46814135e-14
1.413574593e-14
1.369240406e-14
1.330965529e-14
1.356751114e-14
1.38089886e-14
1.424413013e-14
1.548287916e-14
1.577499895e-14
1.731085512e-14
1.799293166e-14
1.990305472e-14
2.54197706e-14
2.969335919e-14
3.464633134e-14
4.307020729e-14
5.070062333e-14
6.938043244e-14
9.539070509e-14
1.201204221e-13
1.629321964e-13
2.247143845e-13
2.980598673e-13
6.287018592e-13
8.789777331e-13
1.203094955e-12
1.856001753e-12
2.224774895e-12
3.415341324e-12
5.40461791e-12
7.642974056e-12
1.111694638e-11
1.404023705e-11
2.913766268e-11
3.125924226e-11
4.745917017e-11
5.877473254e-11
6.941710907e-11
7.459836231e-11
7.55855464e-11
7.105920921e-11
6.437719044e-11
6.113472255e-11
6.035573532e-11
5.947517889e-11
5.839478838e-11
5.710325975e-11
5.562672436e-11
5.399829572e-11
5.223549439e-11
5.030462514e-11
4.810993928e-11
4.609504153e-11
4.405262313e-11
1.36166331e-08
1.260470383e-08
1.021223025e-08
8.083180924e-09
6.896633436e-09
5.759908901e-09
4.807671978e-09
3.849493965e-09
3.302884579e-09
2.73856829e-09
2.173158379e-09
1.637429856e-09
1.309420792e-09
1.037547506e-09
6.697122149e-10
4.59700959e-10
3.553454971e-10
2.771546004e-10
2.108426034e-10
1.445282447e-10
1.076085917e-10
8.472898013e-11
6.96820614e-11
5.011870211e-11
4.174109838e-11
3.376788671e-11
2.628797804e-11
1.792823324e-11
1.22883584e-11
8.872559309e-12
7.309600586e-12
5.186363349e-12
4.213386955e-12
3.729967172e-12
3.325142537e-12
2.837242681e-12
2.058458567e-12
1.577748085e-12
1.375273414e-12
1.32188335e-12
1.218844031e-12
1.051388737e-12
8.613243932e-13
7.86788267e-13
7.356805436e-13
6.866125599e-13
6.612361411e-13
6.389449482e-13
6.19157444e-13
6.327668128e-13
6.416503806e-13
6.600855778e-13
7.199574507e-13
7.273091075e-13
8.012943141e-13
8.231763319e-13
9.139701591e-13
1.17978779e-12
1.418898568e-12
1.614684177e-12
2.095125008e-12
2.59132501e-12
3.496842766e-12
4.776235409e-12
5.976043233e-12
8.246971517e-12
1.128503792e-11
1.545930047e-11
3.156235084e-11
4.344920135e-11
5.943813662e-11
9.005334871e-11
1.081572605e-10
1.665402397e-10
2.603135657e-10
3.653541174e-10
5.216072212e-10
6.932553167e-10
1.204992787e-09
1.303205258e-09
1.955841449e-09
2.304095647e-09
2.781620443e-09
2.936457314e-09
2.93737534e-09
2.693064689e-09
2.380911209e-09
2.266083062e-09
2.255303296e-09
2.21277926e-09
2.161803014e-09
2.102976072e-09
2.037239078e-09
1.966225795e-09
1.890987602e-09
1.812069971e-09
1.711596903e-09
1.633520151e-09
1.554212609e-09
7.158755342e-07
6.626968747e-07
5.374693376e-07
4.255798436e-07
3.633024423e-07
3.032226812e-07
2.45644196e-07
1.884552208e-07
1.557410659e-07
1.286851907e-07
1.020939005e-07
7.689165689e-08
6.159569646e-08
4.871379477e-08
3.138882482e-08
2.181299363e-08
1.679819657e-08
1.309636397e-08
9.888722264e-09
6.868609744e-09
5.077135748e-09
4.000922704e-09
3.275325275e-09
2.380899164e-09
1.978151026e-09
1.596665026e-09
1.242110011e-09
8.408914329e-10
5.749180397e-10
4.63294221e-10
3.824022234e-10
2.747732769e-10
2.217968683e-10
1.969134284e-10
1.754941952e-10
1.484105652e-10
1.083247305e-10
8.225724856e-11
7.204412378e-11
6.963440613e-11
6.405556266e-11
5.483925156e-11
4.481427001e-11
4.111844758e-11
3.842471858e-11
3.578946308e-11
3.445301057e-11
3.322182999e-11
3.20953923e-11
3.287872149e-11