/*--------------------------------*- C++ -*----------------------------------*\
| =========                 |                                                 |
| \\      /  F ield         | OpenFOAM: The Open Source CFD Toolbox           |
|  \\    /   O peration     | Version:  v1706                                 |
|   \\  /    A nd           | Web:      www.OpenFOAM.com                      |
|    \\/     M anipulation  |                                                 |
\*---------------------------------------------------------------------------*/
FoamFile
{
    version     2.0;
    format      ascii;
    class       volScalarField;
    location    "0.0025";
    object      O;
}
// * * * * * * * * * * * * * * * * * * * * * * * * * * * * * * * * * * * * * //

dimensions      [0 0 0 0 0 0 0];


internalField   nonuniform List<scalar> 
11682
(
1.431690283e-36
1.298883994e-36
1.01527415e-36
8.235582131e-37
7.280995011e-37
5.203922451e-37
4.812440564e-37
3.835922149e-37
3.239923929e-37
2.557603949e-37
2.185082485e-37
1.691960659e-37
1.269400338e-37
8.903863374e-38
7.812766487e-38
5.323095966e-38
3.666537592e-38
3.137102057e-38
2.41273234e-38
1.538679266e-38
1.239810812e-38
9.199013416e-39
7.242401216e-39
5.527031393e-39
4.392411666e-39
3.699111404e-39
2.702262507e-39
2.109672947e-39
1.648733667e-39
1.261786493e-39
1.00404353e-39
7.450455471e-40
6.033023067e-40
4.557313034e-40
4.392909326e-40
3.823508047e-40
3.227371502e-40
2.640159426e-40
2.154363032e-40
1.945038786e-40
1.781006521e-40
1.612805207e-40
1.378749947e-40
1.284055541e-40
1.07484917e-40
1.087252048e-40
1.011766768e-40
1.047500731e-40
1.055989538e-40
1.108083926e-40
1.091668125e-40
1.166560609e-40
1.310517472e-40
1.425342046e-40
1.568406788e-40
1.763183793e-40
1.874355051e-40
2.303267429e-40
3.065258481e-40
3.911967246e-40
4.994731128e-40
6.593031158e-40
9.116757002e-40
1.22890993e-39
1.850952259e-39
2.720814045e-39
3.802761872e-39
6.073940316e-39
1.009743209e-38
1.584758349e-38
2.425004856e-38
3.731111384e-38
5.952296128e-38
9.248499478e-38
1.401370483e-37
2.414097158e-37
3.947785167e-37
6.474863978e-37
1.032159303e-36
1.429699139e-36
2.265445816e-36
3.174543263e-36
4.13794216e-36
4.940001649e-36
6.132271585e-36
7.074400894e-36
7.79461117e-36
8.267613975e-36
9.112022075e-36
1.001704885e-35
1.041914629e-35
1.0729226e-35
1.185156245e-35
1.24074215e-35
1.291535235e-35
1.321268822e-35
1.356626868e-35
1.393295092e-35
1.366590155e-35
6.523312439e-35
6.11911863e-35
5.02546552e-35
3.713555385e-35
3.389449696e-35
2.851013979e-35
2.274740027e-35
1.891164628e-35
1.540248341e-35
1.307547393e-35
1.055318308e-35
7.834005191e-36
6.301395709e-36
4.85590502e-36
3.639667587e-36
2.493001604e-36
1.871553432e-36
1.450351537e-36
1.124519064e-36
7.582822975e-37
5.836159259e-37
4.427934231e-37
3.565622434e-37
2.70618077e-37
2.132568615e-37
1.722525965e-37
1.359973514e-37
1.022319863e-37
7.762358763e-38
5.786790246e-38
4.637739681e-38
3.616180598e-38
2.773855007e-38
2.361039062e-38
2.062787666e-38
1.761451327e-38
1.490950711e-38
1.212359453e-38
9.848798729e-39
8.996125316e-39
8.185899944e-39
7.446169812e-39
6.586612357e-39
5.919919711e-39
5.436577336e-39
5.047784404e-39
4.800364811e-39
4.807064655e-39
4.809278596e-39
5.047647141e-39
5.276122257e-39
5.559860935e-39
5.972392715e-39
6.476031568e-39
7.089755103e-39
8.003436925e-39
9.196521669e-39
1.117367161e-38
1.383066155e-38
1.745344533e-38
2.196066219e-38
2.938737778e-38
4.039575478e-38
5.726218601e-38
8.243932178e-38
1.194897042e-37
1.716466344e-37
2.630153967e-37
4.320288515e-37
6.814798222e-37
1.051976183e-36
1.609849168e-36
2.529805161e-36
3.900237469e-36
6.239475116e-36
1.008382445e-35
1.631720265e-35
2.67057201e-35
4.223178701e-35
6.315238743e-35
9.208648155e-35
1.271411304e-34
1.639663008e-34
2.024021701e-34
2.388064595e-34
2.749128259e-34
3.011592126e-34
3.279756873e-34
3.52527873e-34
3.803130252e-34
4.029079749e-34
4.255991924e-34
4.464961357e-34
4.633328305e-34
4.81702111e-34
4.952720935e-34
5.062942174e-34
5.089684359e-34
5.267705194e-34
2.91358761e-33
2.696042162e-33
2.254280765e-33
1.729290237e-33
1.488800677e-33
1.257919258e-33
9.968885657e-34
8.381421016e-34
6.9978872e-34
5.745089226e-34
4.657177064e-34
3.509503685e-34
2.787983068e-34
2.154185805e-34
1.614884273e-34
1.11330196e-34
8.409937748e-35
6.387330324e-35
5.013521381e-35
3.446343738e-35
2.586513124e-35
2.033129584e-35
1.58039415e-35
1.193968877e-35
9.41821972e-36
7.608601652e-36
6.0276167e-36
4.556960697e-36
3.399154003e-36
2.551240309e-36
2.087805147e-36
1.595613974e-36
1.228750996e-36
1.05142786e-36
9.026553645e-37
7.982030223e-37
6.596081435e-37
5.32072926e-37
4.325363936e-37
3.941308362e-37
3.600551982e-37
3.31109933e-37
2.881969543e-37
2.599925185e-37
2.400187212e-37
2.231906085e-37
2.120637069e-37
2.106012891e-37
2.11687317e-37
2.198660055e-37
2.310027819e-37
2.429900801e-37
2.590712635e-37
2.810466432e-37
3.14085694e-37
3.484649353e-37
3.968495303e-37
4.805358161e-37
5.861380524e-37
7.548409484e-37
9.586740274e-37
1.25929928e-36
1.704494382e-36
2.407206958e-36
3.475683775e-36
5.013978097e-36
7.320153381e-36
1.097297778e-35
1.833587514e-35
2.814133616e-35
4.318265501e-35
6.767404334e-35
1.021111904e-34
1.576193764e-34
2.477907259e-34
4.064261348e-34
6.472228174e-34
1.048402218e-33
1.645133713e-33
2.464101569e-33
3.562092039e-33
4.849032358e-33
6.135452055e-33
7.802304667e-33
9.086099131e-33
1.006591829e-32
1.104081161e-32
1.195019349e-32
1.281232254e-32
1.366943768e-32
1.452646468e-32
1.517211461e-32
1.577514695e-32
1.629074646e-32
1.69507206e-32
1.741156258e-32
1.774503641e-32
1.811979725e-32
1.841183635e-32
1.252536846e-31
1.209648048e-31
1.000173602e-31
7.951695385e-32
6.689946673e-32
5.54900121e-32
4.538619063e-32
3.702033603e-32
3.226408687e-32
2.635951491e-32
2.072061612e-32
1.553299582e-32
1.24351864e-32
9.729288258e-33
7.129253977e-33
4.906243558e-33
3.685950449e-33
2.806497028e-33
2.224779408e-33
1.498355775e-33
1.149304022e-33
8.929242211e-34
7.111268248e-34
5.267758019e-34
4.13971785e-34
3.365043292e-34
2.673732861e-34
2.049081074e-34
1.484611235e-34
1.157442298e-34
9.244248138e-35
7.01474209e-35
5.414001302e-35
4.63957707e-35
4.061995321e-35
3.576127168e-35
2.936748406e-35
2.333004653e-35
1.877461907e-35
1.727045917e-35
1.613209935e-35
1.466650834e-35
1.251678625e-35
1.140605528e-35
1.05313559e-35
9.777310713e-36
9.345852564e-36
9.22594884e-36
9.263916452e-36
9.518441521e-36
1.009912314e-35
1.061860512e-35
1.117234663e-35
1.208269755e-35
1.370587906e-35
1.515498467e-35
1.714528506e-35
2.062539003e-35
2.564520642e-35
3.224481083e-35
4.114459704e-35
5.385506599e-35
7.151442137e-35
1.039590251e-34
1.468158939e-34
2.102614354e-34
3.066318598e-34
4.619735628e-34
7.657469904e-34
1.150805002e-33
1.785949082e-33
2.745569302e-33
4.069202801e-33
6.291949901e-33
1.01051014e-32
1.613869593e-32
2.562923787e-32
4.117150894e-32
6.329471323e-32
9.577061645e-32
1.369301394e-31
1.831911856e-31
2.38558424e-31
2.914951006e-31
3.414846684e-31
3.819931513e-31
4.076696991e-31
4.324405213e-31
4.533243511e-31
4.823591398e-31
5.194343188e-31
5.412901846e-31
5.555411927e-31
5.787614902e-31
5.961356457e-31
6.080219938e-31
6.220985154e-31
6.331520532e-31
6.417233963e-31
5.973002845e-30
5.377097626e-30
4.631191348e-30
3.495536648e-30
2.905364144e-30
2.445217853e-30
2.027211796e-30
1.624938806e-30
1.436068723e-30
1.190910551e-30
9.169597281e-31
6.819525815e-31
5.499818712e-31
4.272431483e-31
3.209918881e-31
2.115279706e-31
1.617135994e-31
1.235590424e-31
9.85798684e-32
6.638136263e-32
5.065234941e-32
3.984518857e-32
3.183100425e-32
2.339490399e-32
1.851276347e-32
1.522069205e-32
1.187803365e-32
9.103099144e-33
6.75575718e-33
5.091437919e-33
4.082251113e-33
3.07403501e-33
2.458471674e-33
2.048263398e-33
1.790845073e-33
1.587521075e-33
1.295888336e-33
1.019850875e-33
8.442077222e-34
7.636975096e-34
7.103418773e-34
6.393711308e-34
5.614364589e-34
5.003964778e-34
4.612216913e-34
4.246881259e-34
4.114746532e-34
4.048947907e-34
4.075774751e-34
4.090237201e-34
4.399651488e-34
4.631387763e-34
4.955813301e-34
5.315629584e-34
5.953065744e-34
6.5792163e-34
7.404168053e-34
8.811056516e-34
1.12478637e-33
1.360762404e-33
1.779449381e-33
2.30996057e-33
3.160999091e-33
4.395047136e-33
6.199167978e-33
8.826286863e-33
1.277587222e-32
1.946875267e-32
3.206418847e-32
4.846752828e-32
7.255082052e-32
1.118363839e-31
1.663711094e-31
2.488522771e-31
4.032014239e-31
6.307623954e-31
1.01990488e-30
1.616440166e-30
2.549476427e-30
3.667642274e-30
5.272845006e-30
6.898557078e-30
8.92404544e-30
1.058588861e-29
1.27238562e-29
1.412183846e-29
1.485973515e-29
1.58472315e-29
1.685311671e-29
1.776794443e-29
1.855584722e-29
1.908845213e-29
1.959085287e-29
2.035191685e-29
2.052157651e-29
2.132741589e-29
2.174198343e-29
2.197080271e-29
2.220785014e-29
2.707379165e-28
2.365505243e-28
2.039878533e-28
1.576998079e-28
1.313888792e-28
1.079976495e-28
9.104245426e-29
7.375635499e-29
6.370183801e-29
5.290893357e-29
4.1890332e-29
2.96652775e-29
2.420681138e-29
1.920947169e-29
1.417382525e-29
9.926729271e-30
7.19337977e-30
5.470211176e-30
4.360916007e-30
3.054718358e-30
2.203535253e-30
1.725076741e-30
1.412959135e-30
1.043796524e-30
8.144798906e-31
6.741164834e-31
5.3063209e-31
4.027923287e-31
2.986012183e-31
2.239875087e-31
1.802189425e-31
1.330034728e-31
1.098071639e-31
8.969005921e-32
7.927361087e-32
7.061571808e-32
5.704467417e-32
4.436604547e-32
3.76925715e-32
3.344385954e-32
3.137935418e-32
2.861073382e-32
2.422161887e-32
2.187490282e-32
2.012439583e-32
1.862377622e-32
1.810059961e-32
1.780166219e-32
1.778141498e-32
1.804322086e-32
1.914662571e-32
2.015681618e-32
2.165485656e-32
2.302771709e-32
2.58009057e-32
2.850849188e-32
3.182412939e-32
3.860516622e-32
4.836462139e-32
5.95722187e-32
7.636522588e-32
9.921170322e-32
1.348975946e-31
1.858265034e-31
2.601815329e-31
3.699411002e-31
5.313481838e-31
8.087814976e-31
1.342619356e-30
2.021137279e-30
3.024996257e-30
4.591348935e-30
6.694713094e-30
1.015578295e-29
1.614895726e-29
2.560300397e-29
4.02986011e-29
6.297879941e-29
9.995522183e-29
1.383206255e-28
2.00732229e-28
2.676684796e-28
3.34630688e-28
4.109983823e-28
4.747964553e-28
5.216670406e-28
5.476291484e-28
5.750097643e-28
6.023439913e-28
6.343260305e-28
6.603712994e-28
6.74404044e-28
6.877291778e-28
7.127147494e-28
7.324709605e-28
7.435423303e-28
7.549588477e-28
7.583937485e-28
7.649090519e-28
1.205819185e-26
1.101437954e-26
8.844455198e-27
6.917713177e-27
5.837553559e-27
4.79636055e-27
4.069095941e-27
3.323349282e-27
2.821699444e-27
2.358731748e-27
1.861257304e-27
1.292069314e-27
1.056670012e-27
8.752924471e-28
6.264461314e-28
4.381946237e-28
3.277664461e-28
2.431087532e-28
1.921914272e-28
1.368033818e-28
9.857454861e-29
7.731379918e-29
6.255278113e-29
4.717703172e-29
3.689029992e-29
3.02637645e-29
2.399793715e-29
1.774285254e-29
1.319115087e-29
9.852777283e-30
7.951809367e-30
6.057896811e-30
4.87013751e-30
4.10370067e-30
3.570079755e-30
3.136745693e-30
2.4952461e-30
1.898373623e-30
1.61959747e-30
1.507616112e-30
1.392331701e-30
1.256226107e-30
1.086928386e-30
9.544673619e-31
8.765758239e-31
8.22208785e-31
7.812264482e-31
7.793764078e-31
7.765703093e-31
7.90759705e-31
8.314439254e-31
8.6504821e-31
9.387106003e-31
9.995648297e-31
1.118480816e-30
1.231904231e-30
1.349965697e-30
1.667518909e-30
2.07342932e-30
2.561264157e-30
3.251866139e-30
4.235559062e-30
5.752996391e-30
7.897208966e-30
1.092371497e-29
1.550336512e-29
2.202700175e-29
3.35756525e-29
5.58443523e-29
8.442082956e-29
1.236326861e-28
1.875815363e-28
2.690949351e-28
4.032546621e-28
6.519294557e-28
1.023228317e-27
1.593540164e-27
2.44574291e-27
3.932768236e-27
5.57808201e-27
7.848210419e-27
1.040424722e-26
1.289839733e-26
1.546080928e-26
1.766580649e-26
1.922406802e-26
2.004162129e-26
2.085532868e-26
2.131283282e-26
2.246131951e-26
2.330555751e-26
2.414055573e-26
2.480368602e-26
2.533373543e-26
2.572550958e-26
2.585367713e-26
2.612183551e-26
2.635709039e-26
2.642767812e-26
5.503992858e-25
4.916870052e-25
3.94185014e-25
3.092963757e-25
2.651387605e-25
2.130796515e-25
1.798471238e-25
1.4810296e-25
1.249090325e-25
1.049506134e-25
8.245356857e-26
5.953450205e-26
4.73654125e-26
3.888974964e-26
2.770481361e-26
1.94672734e-26
1.428776987e-26
1.071377591e-26
8.399875706e-27
6.086471836e-27
4.463614148e-27
3.458581293e-27
2.754251421e-27
2.086958146e-27
1.646369474e-27
1.347023929e-27
1.059796048e-27
7.786048832e-28
5.756819473e-28
4.307424471e-28
3.504206018e-28
2.680903828e-28
2.155104045e-28
1.844077097e-28
1.569029767e-28
1.386419701e-28
1.085952107e-28
8.591557105e-29
7.180475124e-29
6.606740442e-29
6.154055483e-29
5.510124913e-29
4.745541887e-29
4.158435658e-29
3.867148744e-29
3.687779111e-29
3.531206642e-29
3.420959382e-29
3.398809e-29
3.488924485e-29
3.616946645e-29
3.830179201e-29
4.132637962e-29
4.37375829e-29
4.844008571e-29
5.305607385e-29
5.890757493e-29
7.245855517e-29
8.851711462e-29
1.097225838e-28
1.403934135e-28
1.800679323e-28
2.444753257e-28
3.340105998e-28
4.58737799e-28
6.499160299e-28
9.142834405e-28
1.369434817e-27
2.314064326e-27
3.495991049e-27
4.971564261e-27
7.66554749e-27
1.078260344e-26
1.650905857e-26
2.575765027e-26
4.089368379e-26
6.320020015e-26
9.601159045e-26
1.526546121e-25
2.152790165e-25
3.017293008e-25
4.000053184e-25
4.895975168e-25
5.852369021e-25
6.569721884e-25
7.05024378e-25
7.291358771e-25
7.527379211e-25
7.738902208e-25
7.983621398e-25
8.1640062e-25
8.479115557e-25
8.719715376e-25
8.878010413e-25
8.959793512e-25
9.031725246e-25
9.056772297e-25
9.10134816e-25
9.078109851e-25
2.443645856e-23
2.255142184e-23
1.749187079e-23
1.352874296e-23
1.201046896e-23
9.763946796e-24
7.908757161e-24
6.57983915e-24
5.526130898e-24
4.665428365e-24
3.653330624e-24
2.682108471e-24
2.079506047e-24
1.721297349e-24
1.225663428e-24
8.598721714e-25
6.462587241e-25
4.890752874e-25
3.771144498e-25
2.68733217e-25
2.024458427e-25
1.52665445e-25
1.23930339e-25
9.246929925e-26
7.347921541e-26
6.004661187e-26
4.684275134e-26
3.394005512e-26
2.607383878e-26
1.879059735e-26
1.536106108e-26
1.176760009e-26
9.471774006e-27
8.185844644e-27
7.168563051e-27
6.074049152e-27
4.803748589e-27
3.732942635e-27
3.093709036e-27
2.889661075e-27
2.691011842e-27
2.413897122e-27
2.072012958e-27
1.817585373e-27
1.6917764e-27
1.612544787e-27
1.547910773e-27
1.498576006e-27
1.492822819e-27
1.523810298e-27
1.583216649e-27
1.677332749e-27
1.790954289e-27
1.916106483e-27
2.096312546e-27
2.268345648e-27
2.578289599e-27
3.151995057e-27
3.882841407e-27
4.683557237e-27
5.959039679e-27
7.519100111e-27
1.036668251e-26
1.410467154e-26
1.922399098e-26
2.730368541e-26
3.874364756e-26
5.616311137e-26
9.493652982e-26
1.449408867e-25
2.116684889e-25
3.148269458e-25
4.302156156e-25
6.523834257e-25
1.055705711e-24
1.637099097e-24
2.5103544e-24
3.745811108e-24
6.086787912e-24
8.410464311e-24
1.161531359e-23
1.527467234e-23
1.865932302e-23
2.196596726e-23
2.430037759e-23
2.574532777e-23
2.640218655e-23
2.707390856e-23
2.754543956e-23
2.813879427e-23
2.936852686e-23
2.942243829e-23
3.058202137e-23
3.105729214e-23
3.117245165e-23
3.128654449e-23
3.115844743e-23
3.123869316e-23
3.122419096e-23
1.084666505e-21
1.000039527e-21
8.029644454e-22
6.141195639e-22
5.327529527e-22
4.378172993e-22
3.476883724e-22
2.904916786e-22
2.437603328e-22
2.078017082e-22
1.638704716e-22
1.220730629e-22
9.102940382e-23
7.628802542e-23
5.355694105e-23
3.903741858e-23
2.85048522e-23
2.20023962e-23
1.669112912e-23
1.186011066e-23
8.975453823e-24
6.732603437e-24
5.40160807e-24
4.093357027e-24
3.278041911e-24
2.673505064e-24
2.107552144e-24
1.504568559e-24
1.153407554e-24
8.602045586e-25
6.900723343e-25
5.173704778e-25
4.091361296e-25
3.624033583e-25
3.171923368e-25
2.719758637e-25
2.138801708e-25
1.609274527e-25
1.322939308e-25
1.269874989e-25
1.178609459e-25
1.060047883e-25
9.065201362e-26
8.00431626e-26
7.418514424e-26
7.029416343e-26
6.817750032e-26
6.485904244e-26
6.589100506e-26
6.665465811e-26
6.858801912e-26
7.275427215e-26
7.754991983e-26
8.261711535e-26
9.0381684e-26
9.917044596e-26
1.1098042e-25
1.369702629e-25
1.672336732e-25
1.999755416e-25
2.572399191e-25
3.302295743e-25
4.39895248e-25
6.002771635e-25
8.280777961e-25
1.1400083e-24
1.6375069e-24
2.349022413e-24
4.07067245e-24
5.979798596e-24
8.691506946e-24
1.293258191e-23
1.767998555e-23
2.671293273e-23
4.198595511e-23
6.47060727e-23
9.925442375e-23
1.465945424e-22
2.394924489e-22
3.259151065e-22
4.442856246e-22
5.756177474e-22
6.967023032e-22
8.182911867e-22
8.944141557e-22
9.367789472e-22
9.525605777e-22
9.684753477e-22
9.883693084e-22
1.018381935e-21
1.041531226e-21
1.039288157e-21
1.072171263e-21
1.081538768e-21
1.087626419e-21
1.088624607e-21
1.084805892e-21
1.077116706e-21
1.068662443e-21
4.838057356e-20
4.407919861e-20
3.539044076e-20
2.758152732e-20
2.317617962e-20
1.962335614e-20
1.579562664e-20
1.285061975e-20
1.074493957e-20
9.175985359e-21
7.230186384e-21
5.415909747e-21
4.118602734e-21
3.433381822e-21
2.428418979e-21
1.72657027e-21
1.248314774e-21
9.797087079e-22
7.495613237e-22
5.240064813e-22
3.96943316e-22
2.952227845e-22
2.449437306e-22
1.809779459e-22
1.457165033e-22
1.190145356e-22
9.336954114e-23
6.703641385e-23
5.036363114e-23
3.840166931e-23
3.019294157e-23
2.279845412e-23
1.866549404e-23
1.602116472e-23
1.394736088e-23
1.193315116e-23
9.386314561e-24
7.297548466e-24
5.91804573e-24
5.641318917e-24
5.250375939e-24
4.689130512e-24
3.981423084e-24
3.548239763e-24
3.25755578e-24
3.052836079e-24
2.982097716e-24
2.899063599e-24
2.885487205e-24
2.919550771e-24
2.976705952e-24
3.158966092e-24
3.37453264e-24
3.567401531e-24
3.876238636e-24
4.248991109e-24
4.747854616e-24
5.939605366e-24
7.215240703e-24
8.582007783e-24
1.095993049e-23
1.403626014e-23
1.866862298e-23
2.541280865e-23
3.490069514e-23
4.817011464e-23
6.873689113e-23
1.021578703e-22
1.690987872e-22
2.454268078e-22
3.552712913e-22
5.294878518e-22
7.174444768e-22
1.072825504e-21
1.66447853e-21
2.54019537e-21
3.923750017e-21
5.648569364e-21
9.459023299e-21
1.264413945e-20
1.697766756e-20
2.159898396e-20
2.665352278e-20
3.039484419e-20
3.280270124e-20
3.403618988e-20
3.424488361e-20
3.447972557e-20
3.465080106e-20
3.589716013e-20
3.667033162e-20
3.725918292e-20
3.757204201e-20
3.744029861e-20
3.756385181e-20
3.764389748e-20
3.754440272e-20
3.693499967e-20
3.59103914e-20
2.193314757e-18
1.927395519e-18
1.534808543e-18
1.229383063e-18
1.049685396e-18
8.764956124e-19
7.000117803e-19
5.706976617e-19
4.753086112e-19
4.058181316e-19
3.179444623e-19
2.407538838e-19
1.853100885e-19
1.527219047e-19
1.07848645e-19
7.609375554e-20
5.498255511e-20
4.370782321e-20
3.344742517e-20
2.309671526e-20
1.755760294e-20
1.292199109e-20
1.081067688e-20
7.946247421e-21
6.445362075e-21
5.286059685e-21
4.15596455e-21
3.011672334e-21
2.255844201e-21
1.702636024e-21
1.342306814e-21
1.001243812e-21
8.222229232e-22
7.053720493e-22
6.123808928e-22
5.289658429e-22
4.133950452e-22
3.200411529e-22
2.64793629e-22
2.494456721e-22
2.320881364e-22
2.094186324e-22
1.768377809e-22
1.56159086e-22
1.444801209e-22
1.320565031e-22
1.302913095e-22
1.260033803e-22
1.25656328e-22
1.279057414e-22
1.315883855e-22
1.374910615e-22
1.476345841e-22
1.546762731e-22
1.658079475e-22
1.82316402e-22
2.00503324e-22
2.54237327e-22
3.172881925e-22
3.680114474e-22
4.679163788e-22
5.87610832e-22
7.950693446e-22
1.077621436e-21
1.471037078e-21
2.014973426e-21
2.855704345e-21
4.208876274e-21
6.979705318e-21
1.003324602e-20
1.45229995e-20
2.140217997e-20
2.882257766e-20
4.309023964e-20
6.621259308e-20
9.93387923e-20
1.548959436e-19
2.217199528e-19
3.776839254e-19
4.8694645e-19
6.491691357e-19
8.37120116e-19
1.002237738e-18
1.126279587e-18
1.202277592e-18
1.235338078e-18
1.228046115e-18
1.222754291e-18
1.241789938e-18
1.264435283e-18
1.28515446e-18
1.301518435e-18
1.310836986e-18
1.282095863e-18
1.291997022e-18
1.295636554e-18
1.290055084e-18
1.275515247e-18
1.253614972e-18
9.708745413e-17
8.291630061e-17
6.896433261e-17
5.456913056e-17
4.664789889e-17
3.890286998e-17
3.142130516e-17
2.543226201e-17
2.120309358e-17
1.797999688e-17
1.42569976e-17
1.070014368e-17
8.280306844e-18
6.783522861e-18
4.776122203e-18
3.342062444e-18
2.455591302e-18
1.965053911e-18
1.512360265e-18
1.015427871e-18
7.764244871e-19
5.762352758e-19
4.774005258e-19
3.498932488e-19
2.898799312e-19
2.339378707e-19
1.840839075e-19
1.325349775e-19
9.925164779e-20
7.544999589e-20
5.900522112e-20
4.409887321e-20
3.617390885e-20
3.097428224e-20
2.716088202e-20
2.335868413e-20
1.822531866e-20
1.396525258e-20
1.152465829e-20
1.103391073e-20
1.027304231e-20
9.257616863e-21
7.749087707e-21
6.807196262e-21
6.327279855e-21
5.690898329e-21
5.632170245e-21
5.460252967e-21
5.559480117e-21
5.605559322e-21
5.694286147e-21
5.918386337e-21
6.383611108e-21
6.705348317e-21
7.111447769e-21
7.848378388e-21
8.837598588e-21
1.102043249e-20
1.368404911e-20
1.578803927e-20
2.027777011e-20
2.544419507e-20
3.399433646e-20
4.659873095e-20
6.194997338e-20
8.450775327e-20
1.187329634e-19
1.731693859e-19
2.869993378e-19
4.132265807e-19
5.795077277e-19
8.845602797e-19
1.141974059e-18
1.723628915e-18
2.627339659e-18
3.977323635e-18
6.123392257e-18
8.476175897e-18
1.536702318e-17
1.881845979e-17
2.53433184e-17
3.191956688e-17
3.770452917e-17
4.168387715e-17
4.404042981e-17
4.46360006e-17
4.378920318e-17
4.320285787e-17
4.359031757e-17
4.42070818e-17
4.478640919e-17
4.522473744e-17
4.542770391e-17
4.54066487e-17
4.514873975e-17
4.48480938e-17
4.440055616e-17
4.365863457e-17
4.263038561e-17
4.29127048e-15
3.854784986e-15
3.028036787e-15
2.428161918e-15
2.060119077e-15
1.71986707e-15
1.388247722e-15
1.129324645e-15
9.514074156e-16
7.964869564e-16
6.300362188e-16
4.72982517e-16
3.724290986e-16
3.00937748e-16
2.113400459e-16
1.496255878e-16
1.089954259e-16
8.793421286e-17
6.757845513e-17
4.523197398e-17
3.434135335e-17
2.532225989e-17
2.126439248e-17
1.575199078e-17
1.280980391e-17
1.027089333e-17
8.151866601e-18
5.917968181e-18
4.374670358e-18
3.334662921e-18
2.626214378e-18
1.95909621e-18
1.58022661e-18
1.358853822e-18
1.225659609e-18
1.081943055e-18
8.039830816e-19
6.030224962e-19
5.088347144e-19
4.931065746e-19
4.555564053e-19
4.070587877e-19
3.386714614e-19
2.962495841e-19
2.752285786e-19
2.583942715e-19
2.506158672e-19
2.465338502e-19
2.42758371e-19
2.450822305e-19
2.448096837e-19
2.53381584e-19
2.722348309e-19
2.933249008e-19
3.141115542e-19
3.395722414e-19
3.791631594e-19
4.7996408e-19
5.879539614e-19
6.777336104e-19
8.610654211e-19
1.075135537e-18
1.419679826e-18
1.97552357e-18
2.598130307e-18
3.555943369e-18
4.961903121e-18
7.17771507e-18
1.180789253e-17
1.675602803e-17
2.409800546e-17
3.59396146e-17
4.443394415e-17
6.890142459e-17
1.049281853e-16
1.597881213e-16
2.41074429e-16
3.167678834e-16
6.222434334e-16
7.235877589e-16
9.931075542e-16
1.232573291e-15
1.438593957e-15
1.552045182e-15
1.607038439e-15
1.605382191e-15
1.553331393e-15
1.523885797e-15
1.528449929e-15
1.541971327e-15
1.554803617e-15
1.563741924e-15
1.562721523e-15
1.555444452e-15
1.542748099e-15
1.529830837e-15
1.516843004e-15
1.493511762e-15
1.453701168e-15
1.885885037e-13
1.697928607e-13
1.364144776e-13
1.071625888e-13
9.09597476e-14
7.593967786e-14
6.300255231e-14
5.006935128e-14
4.251856048e-14
3.521091729e-14
2.783035141e-14
2.088738374e-14
1.658719726e-14
1.332621675e-14
9.507643157e-15
6.618234702e-15
4.824934179e-15
3.942823819e-15
2.973994732e-15
1.979774155e-15
1.516994734e-15
1.130962196e-15
9.543257616e-16
6.947095165e-16
5.580489095e-16
4.435905965e-16
3.605866102e-16
2.617216418e-16
1.928134977e-16
1.469482031e-16
1.149707082e-16
8.726218047e-17
7.076931728e-17
6.008705517e-17
5.387872266e-17
4.807172506e-17
3.542001933e-17
2.583089121e-17
2.238082398e-17
2.150382997e-17
2.040307964e-17
1.787474383e-17
1.473788407e-17
1.294890118e-17
1.187537149e-17
1.128885003e-17
1.098881649e-17
1.076714946e-17
1.053111947e-17
1.071700671e-17
1.046591383e-17
1.097994891e-17
1.196917862e-17
1.266299028e-17
1.387527974e-17
1.466534249e-17
1.621324507e-17
2.043559366e-17
2.502533326e-17
2.909739656e-17
3.600914213e-17
4.516698179e-17
6.141114644e-17
8.253694942e-17
1.090704324e-16
1.492181805e-16
2.034560541e-16
2.961918559e-16
4.928880864e-16
6.750644113e-16
9.88253142e-16
1.472603377e-15
1.789812372e-15
2.75234628e-15
4.279824483e-15
6.461163228e-15
9.707159258e-15
1.151853341e-14
2.544135297e-14
2.790156759e-14
3.968063583e-14
4.821252699e-14
5.621925253e-14
5.913436863e-14
5.859746561e-14
5.756352691e-14
5.486034172e-14
5.33992232e-14
5.340194276e-14
5.369409176e-14
5.390377671e-14
5.416555283e-14
5.350618132e-14
5.283934703e-14
5.207717409e-14
5.127874982e-14
5.117544438e-14
5.063951484e-14
4.923451401e-14
8.215924993e-12
7.47977359e-12
6.015190857e-12
4.727901013e-12
4.015966868e-12
3.350307176e-12
2.780847984e-12
2.210832572e-12
1.880491179e-12
1.555486599e-12
1.229057789e-12
9.22027237e-13
7.333966722e-13
5.889247503e-13
4.195577007e-13
2.923098558e-13
2.274683272e-13
1.761112363e-13
1.347765708e-13
8.934616268e-14
6.7007919e-14
5.251429018e-14
4.300609876e-14
3.06273876e-14
2.520392731e-14
2.038868422e-14
1.594898368e-14
1.156727443e-14
8.492288703e-15
6.519853934e-15
5.228945401e-15
3.823997357e-15
3.172222243e-15
2.708351755e-15
2.34120261e-15
2.131975401e-15
1.555461653e-15
1.103327639e-15
9.613541986e-16
9.194829404e-16
8.997281845e-16
7.822956228e-16
6.332285322e-16
5.725823889e-16
5.090483856e-16
4.974714726e-16
4.841704563e-16
4.717508157e-16
4.556712298e-16
4.688218533e-16
4.506550356e-16
4.659808511e-16
5.079295898e-16
5.470813448e-16
6.030518314e-16
6.32945382e-16
6.9112329e-16
8.569877244e-16
1.043406233e-15
1.237734601e-15
1.559600019e-15
1.88524859e-15
2.580762672e-15
3.574651568e-15
4.5589087e-15
6.256324238e-15
8.728542004e-15
1.218062018e-14
2.213632163e-14
2.997792592e-14
4.113133319e-14
6.145895997e-14
7.015079638e-14
1.090226532e-13
1.746234589e-13
2.515197369e-13
3.856987055e-13
4.620694569e-13
9.939493805e-13
1.067971054e-12
1.51988204e-12
1.853251168e-12
2.208436122e-12
2.361204828e-12
2.420114333e-12
2.344421858e-12
2.201054734e-12
2.132533452e-12
2.132041968e-12
2.136465728e-12
2.133617505e-12
2.119114246e-12
2.09233481e-12
2.054399108e-12
2.008347594e-12
1.954079973e-12
1.890375417e-12
1.825772687e-12
1.757201393e-12
3.978135752e-10
3.670123632e-10
2.951798736e-10
2.32174565e-10
1.973185393e-10
1.644819547e-10
1.365783702e-10
1.085983056e-10
9.247784256e-11
7.64256389e-11
6.036553402e-11
4.525907839e-11
3.603446355e-11
2.884589554e-11
2.052995891e-11
1.318003732e-11
1.005692787e-11
7.779211961e-12
5.909419151e-12
3.965582381e-12
2.956311765e-12
2.317826999e-12
1.90497189e-12
1.345822267e-12
1.115164878e-12
9.005067891e-13
7.038490861e-13
5.08331007e-13
3.730503364e-13
2.92211022e-13
2.325670207e-13
1.661897407e-13
1.403163412e-13
1.240331537e-13
1.104615432e-13
9.465091129e-14
6.776805024e-14
5.227664786e-14
4.522250589e-14
4.309081133e-14
3.974972922e-14
3.451554132e-14
2.82193603e-14
2.549143152e-14
2.378055603e-14
2.218890655e-14
2.134324407e-14
2.065826749e-14
2.006909484e-14
2.046109409e-14
2.082516309e-14
2.147837125e-14
2.337139055e-14
2.381217773e-14
2.615669466e-14
2.720147897e-14
3.010058379e-14
3.864511389e-14
4.536527767e-14
5.29041387e-14
6.645873954e-14
7.837488859e-14
1.078463371e-13
1.502964735e-13
1.904913142e-13
2.608831719e-13
3.627264641e-13
4.968106087e-13
9.297636362e-13
1.253882051e-12
1.705186471e-12
2.641289257e-12
3.173668587e-12
4.906649509e-12
7.817931198e-12
1.119257306e-11
1.648605712e-11
2.119027503e-11
4.331733487e-11
4.708770964e-11
6.643439727e-11
7.970023311e-11
9.258328415e-11
9.899564818e-11
1.003794249e-10
9.526597858e-11
8.789866005e-11
8.504243823e-11
8.529336565e-11
8.51815488e-11
8.460597923e-11
8.359891244e-11
8.219388743e-11
8.04125899e-11
7.827170638e-11
7.574309976e-11
7.272369992e-11
6.986832718e-11
6.690197457e-11
1.751049273e-08
1.616635081e-08
1.30046736e-08
1.023717676e-08
8.706713862e-09
7.251960503e-09
6.024829563e-09
4.791705698e-09
4.086522432e-09
3.374102871e-09
2.664339395e-09
1.996546398e-09
1.592079506e-09
1.274936883e-09
9.046755428e-10
6.413493115e-10
4.933891253e-10
3.815161414e-10
2.877234643e-10
1.955299755e-10
1.447429095e-10
1.135201123e-10
9.301532595e-11
6.618313566e-11
5.477296352e-11
4.412252079e-11
3.440713436e-11
2.467847766e-11
1.808220215e-11
1.33466127e-11
1.097122554e-11
7.704821517e-12
6.218522195e-12
5.481780898e-12
4.870871322e-12
4.14080273e-12
2.985837562e-12
2.279077556e-12
1.98110515e-12
1.898448714e-12
1.748772735e-12
1.507120449e-12
1.228607148e-12
1.114742673e-12
1.039423214e-12
9.686340394e-13
9.320031597e-13
8.999290994e-13
8.715459253e-13
8.908950764e-13
9.034036654e-13
9.291914246e-13
1.014751566e-12
1.024990431e-12
1.130514923e-12
1.161942005e-12
1.2903081e-12
1.673910185e-12
2.019079411e-12
2.301135555e-12
3.003357588e-12
3.712931161e-12
5.043721418e-12
6.981362253e-12
8.781280836e-12
1.2243648e-11
1.69043947e-11
2.36807716e-11
4.306891828e-11
5.733666941e-11
7.806362328e-11
1.187748363e-10
1.430154064e-10
2.218392378e-10
3.492218723e-10
4.963403313e-10
7.178223823e-10
9.674327488e-10
1.672004468e-09
1.827152091e-09
2.543358742e-09
2.919288728e-09
3.458117731e-09
3.637920413e-09
3.644218234e-09
3.379615495e-09
3.054354417e-09
2.965183391e-09
2.996100577e-09
2.977968743e-09
2.942124273e-09
2.89173155e-09
2.827399317e-09
2.749788813e-09
2.659948104e-09
2.559703603e-09
2.426965536e-09
2.320983938e-09
2.211313757e-09
8.558744003e-07
7.901904615e-07
6.36291747e-07
5.010346106e-07
4.263582865e-07
3.548778593e-07
2.867954122e-07
2.192163135e-07
1.805597082e-07
1.485924175e-07
1.173021796e-07
8.785238754e-08
7.016992885e-08
5.608303503e-08
3.973286788e-08
2.844248965e-08
2.178947805e-08
1.683902889e-08
1.260201926e-08
8.680662231e-09
6.378577058e-09
5.007118275e-09
4.083342659e-09
2.936901382e-09
2.42431658e-09
1.948471428e-09
1.517598061e-09
1.083312869e-09
7.932604044e-10
6.466365403e-10
5.314360923e-10
3.779859993e-10
3.030461643e-10
2.679642888e-10
2.380569531e-10
2.00545347e-10
1.455011574e-10
1.100092114e-10
9.610900117e-11
9.26106124e-11
8.512086399e-11
7.281005028e-11
5.919658462e-11
5.393536264e-11
5.027591812e-11
4.676086466e-11
4.498173181e-11
4.334225628e-11
4.184693813e-11
4.288220582e-11
4.34069631e-11
4.463828655e-11