/*--------------------------------*- C++ -*----------------------------------*\
| =========                 |                                                 |
| \\      /  F ield         | OpenFOAM: The Open Source CFD Toolbox           |
|  \\    /   O peration     | Version:  v1706                                 |
|   \\  /    A nd           | Web:      www.OpenFOAM.com                      |
|    \\/     M anipulation  |                                                 |
\*---------------------------------------------------------------------------*/
FoamFile
{
    version     2.0;
    format      ascii;
    class       volScalarField;
    location    "0.0025";
    object      O2;
}
// * * * * * * * * * * * * * * * * * * * * * * * * * * * * * * * * * * * * * //

dimensions      [0 0 0 0 0 0 0];


internalField   nonuniform List<scalar> 
11682
(
0.233
0.233
0.233
0.233
0.233
0.233
0.233
0.233
0.233
0.233
0.233
0.233
0.233
0.233
0.233
0.233
0.233
0.233
0.233
0.233
0.233
0.233
0.233
0.233
0.233
0.233
0.233
0.233
0.233
0.233
0.233
0.233
0.233
0.233
0.233
0.233
0.233
0.233
0.233
0.233
0.233
0.233
0.233
0.233
0.233
0.233
0.233
0.233
0.233
0.233
0.233
0.233
0.233
0.233
0.233
0.233
0.233
0.233
0.233
0.233
0.233
0.233
0.233
0.233
0.233
0.233
0.233
0.233
0.233
0.233
0.233
0.233
0.233
0.233
0.233
0.233
0.233
0.233
0.233
0.233
0.233
0.233
0.233
0.233
0.233
0.233
0.233
0.233
0.233
0.233
0.233
0.233
0.233
0.233
0.233
0.233
0.233
0.233
0.233
0.233
0.233
0.233
0.233
0.233
0.233
0.233
0.233
0.233
0.233
0.233
0.233
0.233
0.233
0.233
0.233
0.233
0.233
0.233
0.233
0.233
0.233
0.233
0.233
0.233
0.233
0.233
0.233
0.233
0.233
0.233
0.233
0.233
0.233
0.233
0.233
0.233
0.233
0.233
0.233
0.233
0.233
0.233
0.233
0.233
0.233
0.233
0.233
0.233
0.233
0.233
0.233
0.233
0.233
0.233
0.233
0.233
0.233
0.233
0.233
0.233
0.233
0.233
0.233
0.233
0.233
0.233
0.233
0.233
0.233
0.233
0.233
0.233
0.233
0.233
0.233
0.233
0.233
0.233
0.233
0.233
0.233
0.233
0.233
0.233
0.233
0.233
0.233
0.233
0.233
0.233
0.233
0.233
0.233
0.233
0.233
0.233
0.233
0.233
0.233
0.233
0.233
0.233
0.233
0.233
0.233
0.233
0.233
0.233
0.233
0.233
0.233
0.233
0.233
0.233
0.233
0.233
0.233
0.233
0.233
0.233
0.233
0.233
0.233
0.233
0.233
0.233
0.233
0.233
0.233
0.233
0.233
0.233
0.233
0.233
0.233
0.233
0.233
0.233
0.233
0.233
0.233
0.233
0.233
0.233
0.233
0.233
0.233
0.233
0.233
0.233
0.233
0.233
0.233
0.233
0.233
0.233
0.233
0.233
0.233
0.233
0.233
0.233
0.233
0.233
0.233
0.233
0.233
0.233
0.233
0.233
0.233
0.233
0.233
0.233
0.233
0.233
0.233
0.233
0.233
0.233
0.233
0.233
0.233
0.233
0.233
0.233
0.233
0.233
0.233
0.233
0.233
0.233
0.233
0.233
0.233
0.233
0.233
0.233
0.233
0.233
0.233
0.233
0.233
0.233
0.233
0.233
0.233
0.233
0.233
0.233
0.233
0.233
0.233
0.233
0.233
0.233
0.233
0.233
0.233
0.233
0.233
0.233
0.233
0.233
0.233
0.233
0.233
0.233
0.233
0.233
0.233
0.233
0.233
0.233
0.233
0.233
0.233
0.233
0.233
0.233
0.233
0.233
0.233
0.233
0.233
0.233
0.233
0.233
0.233
0.233
0.233
0.233
0.233
0.233
0.233
0.233
0.233
0.233
0.233
0.233
0.233
0.233
0.233
0.233
0.233
0.233
0.233
0.233
0.233
0.233
0.233
0.233
0.233
0.233
0.233
0.233
0.233
0.233
0.233
0.233
0.233
0.233
0.233
0.233
0.233
0.233
0.233
0.233
0.233
0.233
0.233
0.233
0.233
0.233
0.233
0.233
0.233
0.233
0.233
0.233
0.233
0.233
0.233
0.233
0.233
0.233
0.233
0.233
0.233
0.233
0.233
0.233
0.233
0.233
0.233
0.233
0.233
0.233
0.233
0.233
0.233
0.233
0.233
0.233
0.233
0.233
0.233
0.233
0.233
0.233
0.233
0.233
0.233
0.233
0.233
0.233
0.233
0.233
0.233
0.233
0.233
0.233
0.233
0.233
0.233
0.233
0.233
0.233
0.233
0.233
0.233
0.233
0.233
0.233
0.233
0.233
0.233
0.233
0.233
0.233
0.233
0.233
0.233
0.233
0.233
0.233
0.233
0.233
0.233
0.233
0.233
0.233
0.233
0.233
0.233
0.233
0.233
0.233
0.233
0.233
0.233
0.233
0.233
0.233
0.233
0.233
0.233
0.233
0.233
0.233
0.233
0.233
0.233
0.233
0.233
0.233
0.233
0.233
0.233
0.233
0.233
0.233
0.233
0.233
0.233
0.233
0.233
0.233
0.233
0.233
0.233
0.233
0.233
0.233
0.233
0.233
0.233
0.233
0.233
0.233
0.233
0.233
0.233
0.233
0.233
0.233
0.233
0.233
0.233
0.233
0.233
0.233
0.233
0.233
0.233
0.233
0.233
0.233
0.233
0.233
0.233
0.233
0.233
0.233
0.233
0.233
0.233
0.233
0.233
0.233
0.233
0.233
0.233
0.233
0.233
0.233
0.233
0.233
0.233
0.233
0.233
0.233
0.233
0.233
0.233
0.233
0.233
0.233
0.233
0.233
0.233
0.233
0.233
0.233
0.233
0.233
0.233
0.233
0.233
0.233
0.233
0.233
0.233
0.233
0.233
0.233
0.233
0.233
0.233
0.233
0.233
0.233
0.233
0.233
0.233
0.233
0.233
0.233
0.233
0.233
0.233
0.233
0.233
0.233
0.233
0.233
0.233
0.233
0.233
0.233
0.233
0.233
0.233
0.233
0.233
0.233
0.233
0.233
0.233
0.233
0.233
0.233
0.233
0.233
0.233
0.233
0.233
0.233
0.233
0.233
0.233
0.233
0.233
0.233
0.233
0.233
0.233
0.233
0.233
0.233
0.233
0.233
0.233
0.233
0.233
0.233
0.233
0.233
0.233
0.233
0.233
0.233
0.233
0.233
0.233
0.233
0.233
0.233
0.233
0.233
0.233
0.233
0.233
0.233
0.233
0.233
0.233
0.233
0.233
0.233
0.233
0.233
0.233
0.233
0.233
0.233
0.233
0.233
0.233
0.233
0.233
0.233
0.233
0.233
0.233
0.233
0.233
0.233
0.233
0.233
0.233
0.233
0.233
0.233
0.233
0.233
0.233
0.233
0.233
0.233
0.233
0.233
0.233
0.233
0.233
0.233
0.233
0.233
0.233
0.233
0.233
0.233
0.233
0.233
0.233
0.233
0.233
0.233
0.233
0.233
0.233
0.233
0.233
0.233
0.233
0.233
0.233
0.233
0.233
0.233
0.233
0.233
0.233
0.233
0.233
0.233
0.233
0.233
0.233
0.233
0.233
0.233
0.233
0.233
0.233
0.233
0.233
0.233
0.233
0.233
0.233
0.233
0.233
0.233
0.233
0.233
0.233
0.233
0.233
0.233
0.233
0.233
0.233
0.233
0.233
0.233
0.233
0.233
0.233
0.233
0.233
0.233
0.233
0.233
0.233
0.233
0.233
0.233
0.233
0.233
0.233
0.233
0.233
0.233
0.233
0.233
0.233
0.233
0.233
0.233
0.233
0.233
0.233
0.233
0.233
0.233
0.233
0.233
0.233
0.233
0.233
0.233
0.233
0.233
0.233
0.233
0.233
0.233
0.233
0.233
0.233
0.233
0.233
0.233
0.233
0.233
0.233
0.233
0.233
0.233
0.233
0.233
0.233
0.233
0.233
0.233
0.233
0.233
0.233
0.233
0.233
0.233
0.233
0.233
0.233
0.233
0.233
0.233
0.233
0.233
0.233
0.233
0.233
0.233
0.233
0.233
0.233
0.233
0.233
0.233
0.233
0.233
0.233
0.233
0.233
0.233
0.233
0.233
0.233
0.233
0.233
0.233
0.233
0.233
0.233
0.233
0.233
0.233
0.233
0.233
0.233
0.233
0.233
0.233
0.233
0.233
0.233
0.233
0.233
0.233
0.233
0.233
0.233
0.233
0.233
0.233
0.233
0.233
0.233
0.233
0.233
0.233
0.233
0.233
0.233
0.233
0.233
0.233
0.233
0.233
0.233
0.233
0.233
0.233
0.233
0.233
0.233
0.233
0.233
0.233
0.233
0.233
0.233
0.233
0.233
0.233
0.233
0.233
0.233
0.233
0.233
0.233
0.233
0.233
0.233
0.233
0.233
0.233
0.233
0.233
0.233
0.233
0.233
0.233
0.233
0.233
0.233
0.233
0.233
0.233
0.233
0.233
0.233
0.233
0.233
0.233
0.233
0.233
0.233
0.233
0.233
0.233
0.233
0.233
0.233
0.233
0.233
0.233
0.233
0.233
0.233
0.233
0.233
0.233
0.233
0.233
0.233
0.233
0.233
0.233
0.233
0.233
0.233
0.233
0.233
0.233
0.233
0.233
0.233
0.233
0.233
0.233
0.233
0.233
0.233
0.233
0.233
0.233
0.233
0.233
0.233
0.233
0.233
0.233
0.233
0.233
0.233
0.233
0.233
0.233
0.233
0.233
0.233
0.233
0.233
0.233
0.233
0.233
0.233
0.233
0.233
0.233
0.233
0.233
0.233
0.233
0.233
0.233
0.233
0.233
0.233
0.233
0.233
0.233
0.233
0.233
0.233
0.233
0.233
0.233
0.233
0.233
0.233
0.233
0.233
0.233
0.233
0.233
0.233
0.233
0.233
0.233
0.233
0.233
0.233
0.233
0.233
0.233
0.233
0.233
0.233
0.233
0.233
0.233
0.233
0.233
0.233
0.233
0.233
0.233
0.233
0.233
0.233
0.233
0.233
0.233
0.233
0.233
0.233
0.233
0.233
0.233
0.233
0.233
0.233
0.233
0.233
0.233
0.233
0.233
0.233
0.233
0.233
0.233
0.233
0.233
0.233
0.233
0.233
0.233
0.233
0.233
0.233
0.233
0.233
0.233
0.233
0.233
0.233
0.233
0.233
0.233
0.233
0.233
0.233
0.233
0.233
0.233
0.233
0.233
0.233
0.233
0.233
0.233
0.233
0.233
0.233
0.233
0.233
0.233
0.233
0.233
0.233
0.233
0.233
0.233
0.233
0.233
0.233
0.233
0.233
0.233
0.233
0.233
0.233
0.233
0.233
0.233
0.233
0.233
0.233
0.233
0.233
0.233
0.233
0.233
0.233
0.233
0.233
0.233
0.233
0.233
0.233
0.233
0.233
0.233
0.233
0.233
0.233
0.233
0.233
0.233
0.233
0.233
0.233
0.233
0.233
0.233
0.233
0.233
0.233
0.233
0.233
0.233
0.233
0.233
0.233
0.233
0.233
0.233
0.233
0.233
0.233
0.233
0.233
0.233
0.233
0.233
0.233
0.233
0.233
0.233
0.233
0.233
0.233
0.233
0.233
0.233
0.233
0.233
0.233
0.233
0.233
0.233
0.233
0.233
0.233
0.233
0.233
0.233
0.233
0.233
0.233
0.233
0.233
0.233
0.233
0.233
0.233
0.233
0.233
0.233
0.233
0.233
0.233
0.233
0.233
0.233
0.233
0.233
0.233
0.233
0.233
0.233
0.233
0.233
0.233
0.233
0.233
0.233
0.233
0.233
0.233
0.233
0.233
0.233
0.233
0.233
0.233
0.233
0.233
0.233
0.233
0.233
0.233
0.233
0.233
0.233
0.233
0.233
0.233
0.233
0.233
0.233
0.233
0.233
0.233
0.233
0.233
0.233
0.233
0.233
0.233
0.233
0.233
0.233
0.233
0.233
0.233
0.233
0.233
0.233
0.233
0.233
0.233
0.233
0.233
0.233
0.233
0.233
0.233
0.233
0.233
0.233
0.233
0.233
0.233
0.233
0.233
0.233
0.233
0.233
0.233
0.233
0.233
0.233
0.233
0.233
0.233
0.233
0.233
0.233
0.233
0.233
0.233
0.233
0.233
0.233
0.233
0.233
0.233
0.233
0.233
0.233
0.233
0.233
0.233
0.233
0.233
0.233
0.233
0.233
0.233
0.233
0.233
0.233
0.233
0.233
0.233
0.233
0.233
0.233
0.233
0.233
0.233
0.233
0.233
0.233
0.233
0.233
0.233
0.233
0.233
0.233
0.233
0.233
0.233
0.233
0.233
0.233
0.233
0.233
0.233
0.233
0.233
0.233
0.233
0.233
0.233
0.233
0.233
0.233
0.233
0.233
0.233
0.233
0.233
0.233
0.233
0.233
0.233
0.233
0.233
0.233
0.233
0.233
0.233
0.233
0.233
0.233
0.233
0.233
0.233
0.233
0.233
0.233
0.233
0.233
0.233
0.233
0.233
0.233
0.233
0.233
0.233
0.233
0.233
0.233
0.233
0.233
0.233
0.233
0.233
0.233
0.233
0.233
0.233
0.233
0.233
0.233
0.233
0.233
0.233
0.233
0.233
0.233
0.233
0.233
0.233
0.233
0.233
0.233
0.233
0.233
0.233
0.233
0.233
0.233
0.233
0.233
0.233
0.233
0.233
0.233
0.233
0.233
0.233
0.233
0.233
0.233
0.233
0.233
0.233
0.233
0.233
0.233
0.233
0.233
0.233
0.233
0.233
0.233
0.233
0.233
0.233
0.233
0.233
0.233
0.233
0.233
0.233
0.233
0.233
0.233
0.233
0.233
0.233
0.233
0.233
0.233
0.233
0.233
0.233
0.233
0.233
0.233
0.233
0.233
0.233
0.233
0.233
0.233
0.233
0.233
0.233
0.233
0.233
0.233
0.233
0.233
0.233
0.233
0.233
0.233
0.233
0.233
0.233
0.233
0.233
0.233
0.233
0.233
0.233
0.233
0.233
0.233
0.233
0.233
0.233
0.233
0.233
0.233
0.233
0.233
0.233
0.233
0.233
0.233
0.233
0.233
0.233
0.233
0.233
0.233
0.233
0.233
0.233
0.233
0.233
0.233
0.233
0.233
0.233
0.233
0.233
0.233
0.233
0.233
0.233
0.233
0.233
0.233
0.233
0.233
0.233
0.233
0.233
0.233
0.233
0.233
0.233
0.233
0.233
0.233
0.233
0.233
0.233
0.233
0.233
0.233
0.233
0.233
0.233
0.233
0.233
0.233
0.233
0.233
0.233
0.233
0.233
0.233
0.233
0.233
0.2329999993
0.2329999993
0.2329999995
0.2329999996
0.2329999996
0.2329999997
0.2329999998
0.2329999998
0.2329999998
0.2329999999
0.2329999999
0.2329999999
0.2329999999
0.2329999999
0.233
0.233
0.233
0.233
0.233
0.233
0.233
0.233
0.233
0.233
0.233
0.233
0.233
0.233
0.233
0.233
0.233
0.233
0.233
0.233
0.233
0.233
0.233
0.233
0.233
0.233
0.233
0.233
0.233
0.233
0.233
0.233
0.233
0.233
0.233
0.233
0.233
0.233
0.233
0.233
0.233
0.233
0.233
0.233
0.233
0.233
0.233
0.233
0.233
0.233
0.233
0.233
0.233
0.233
0.233
0.233
0.233
0.233
0.233
0.233
0.233
0.233
0.233
0.233
0.2329999999
0.2329999999
0.2329999999
0.2329999999
0.2329999998
0.2329999998
0.2329999998
0.2329999998
0.2329999998
0.2329999998
0.2329999998
0.2329999998
0.2329999998
0.2329999998
0.2329999998
0.2329999999
0.2329999999
0.2329999999
0.2329999999
0.2329999999
0.2329999999
0.2329999716
0.2329999737
0.2329999787
0.2329999831
0.2329999856
0.232999988
0.23299999
0.2329999921
0.2329999932
0.2329999944
0.2329999955
0.2329999966
0.2329999973
0.2329999978
0.2329999985
0.2329999989
0.2329999991
0.2329999993
0.2329999995
0.2329999996
0.2329999997
0.2329999998
0.2329999998
0.2329999999
0.2329999999
0.2329999999
0.2329999999
0.233
0.233
0.233
0.233
0.233
0.233
0.233
0.233
0.233
0.233
0.233
0.233
0.233
0.233
0.233
0.233
0.233
0.233
0.233
0.233
0.233
0.233
0.233
0.233
0.233
0.233
0.233
0.233
0.233
0.233
0.233
0.233
0.233
0.233
0.233
0.233
0.233
0.233
0.233
0.233
0.233
0.2329999999
0.2329999999
0.2329999999
0.2329999998
0.2329999997
0.2329999996
0.2329999994
0.2329999991
0.2329999987
0.2329999983
0.2329999972
0.2329999969
0.2329999957
0.2329999951
0.2329999942
0.2329999939
0.2329999939
0.2329999943
0.2329999948
0.232999995
0.232999995
0.232999995
0.2329999951
0.2329999951
0.2329999952
0.2329999954
0.2329999955
0.2329999957
0.2329999959
0.232999996
0.2329999962
0.2329987398
0.2329988331
0.2329990551
0.2329992502
0.2329993592
0.232999465
0.2329995667
0.232999668
0.2329997258
0.2329997735
0.2329998204
0.2329998647
0.2329998916
0.2329999132
0.2329999378
0.2329999549
0.232999965
0.2329999727
0.2329999794
0.2329999856
0.2329999894
0.2329999916
0.2329999932
0.2329999951
0.2329999959
0.2329999967
0.2329999974
0.2329999982
0.2329999986
0.2329999989
0.2329999991
0.2329999993
0.2329999995
0.2329999995
0.2329999996
0.2329999996
0.2329999997
0.2329999998
0.2329999998
0.2329999998
0.2329999998
0.2329999999
0.2329999999
0.2329999999
0.2329999999
0.2329999999
0.2329999999
0.2329999999
0.2329999999
0.2329999999
0.2329999999
0.2329999999
0.2329999999
0.2329999999
0.2329999999
0.2329999999
0.2329999999
0.2329999999
0.2329999998
0.2329999998
0.2329999997
0.2329999997
0.2329999996
0.2329999994
0.2329999993
0.232999999
0.2329999986
0.2329999982
0.2329999968
0.2329999961
0.2329999947
0.2329999919
0.2329999906
0.2329999854
0.2329999771
0.2329999681
0.2329999544
0.2329999412
0.2329998964
0.2329998899
0.2329998545
0.2329998293
0.2329998033
0.2329997973
0.2329997978
0.2329998056
0.2329998194
0.2329998303
0.2329998364
0.2329998399
0.232999843
0.2329998464
0.2329998506
0.2329998554
0.2329998608
0.2329998666
0.2329998728
0.2329998793
0.232999886
0.2329499147
0.2329536163
0.2329623919
0.2329701417
0.2329744608
0.2329786869
0.2329827328
0.2329867656
0.2329890579
0.232990965
0.232992835
0.2329946077
0.2329956701
0.2329965117
0.2329972584
0.2329979991
0.2329984452
0.2329987861
0.2329990906
0.2329993583
0.2329995289
0.2329996284
0.2329997029
0.2329997944
0.2329998356
0.2329998678
0.2329998967
0.232999926
0.2329999453
0.2329999548
0.2329999628
0.2329999728
0.2329999782
0.2329999806
0.2329999827
0.2329999855
0.2329999893
0.232999992
0.2329999929
0.2329999932
0.2329999937
0.2329999947
0.2329999957
0.232999996
0.2329999963
0.2329999966
0.2329999967
0.2329999968
0.2329999969
0.2329999969
0.2329999968
0.2329999968
0.2329999965
0.2329999965
0.2329999961
0.232999996
0.2329999956
0.2329999942
0.2329999932
0.2329999923
0.2329999897
0.2329999879
0.2329999834
0.2329999773
0.2329999721
0.2329999609
0.2329999482
0.2329999277
0.2329998822
0.2329998569
0.2329997954
0.2329997019
0.2329996483
0.2329994533
0.2329991606
0.2329987661
0.2329982014
0.2329976184
0.2329961767
0.2329959346
0.2329949717
0.2329942015
0.2329934594
0.2329933097
0.2329933912
0.2329937185
0.2329942394
0.2329945834
0.2329947431
0.2329948291
0.232994905
0.2329949983
0.2329951155
0.2329952571
0.232995419
0.2329955947
0.2329957785
0.2329959661
0.232996158
0.231342019
0.2314543257
0.2317274341
0.2319737148
0.2321142597
0.232255696
0.2323928443
0.232531522
0.2326107213
0.2326776351
0.2327435685
0.2328065222
0.232843998
0.2328731099
0.2328931953
0.2329204103
0.2329379846
0.2329515813
0.2329637529
0.2329744696
0.2329812444
0.2329851739
0.2329882206
0.2329917499
0.2329934334
0.2329947213
0.2329958827
0.232996871
0.2329976017
0.2329979955
0.232998367
0.232998789
0.2329990391
0.2329991395
0.2329992334
0.2329993643
0.2329995261
0.2329996493
0.2329996884
0.2329997052
0.2329997288
0.2329997679
0.2329998164
0.2329998411
0.2329998524
0.2329998633
0.2329998682
0.2329998736
0.2329998787
0.2329998748
0.2329998743
0.2329998708
0.2329998599
0.2329998614
0.2329998455
0.2329998456
0.2329998249
0.2329997731
0.2329997355
0.2329996981
0.2329995953
0.2329995231
0.2329993338
0.2329990391
0.2329988193
0.2329983506
0.232997816
0.2329969531
0.2329955726
0.2329946702
0.2329923619
0.2329890836
0.2329870742
0.2329798632
0.2329693975
0.232955369
0.2329358835
0.2329145741
0.2328695805
0.2328620921
0.232839285
0.2328201457
0.2328020692
0.2327990719
0.2328031554
0.2328136341
0.2328270231
0.2328352437
0.2328390036
0.232840993
0.2328428851
0.23284537
0.232848934
0.2328537382
0.2328595496
0.2328658243
0.2328722996
0.232878804
0.2328852864
0.2261633369
0.2264750642
0.2273385027
0.2280479504
0.2284907427
0.228996291
0.2295445447
0.2301461051
0.2305078022
0.2308202864
0.2311536003
0.2314994866
0.2317028302
0.2316710013
0.2302710286
0.2304947855
0.2309810473
0.2313847204
0.2317661599
0.2321144102
0.2323408728
0.2324745822
0.2325831197
0.2327031229
0.2327640279
0.2328099816
0.2328514143
0.2328820161
0.2329049461
0.2329200817
0.2329349178
0.2329520457
0.2329618758
0.2329656376
0.2329693888
0.2329747035
0.2329812952
0.2329862305
0.2329876234
0.2329882599
0.2329892116
0.2329908119
0.2329928016
0.2329937379
0.2329941657
0.2329946094
0.2329947927
0.232995022
0.2329952344
0.2329950735
0.2329950635
0.2329949249
0.2329945192
0.232994592
0.2329939803
0.2329940069
0.2329931618
0.2329911638
0.232989781
0.232988296
0.2329843928
0.2329815976
0.232974215
0.2329632485
0.232954953
0.2329373144
0.232917349
0.2328854919
0.2328476998
0.2328201394
0.2327431618
0.232640841
0.2325733196
0.2323436555
0.2320247562
0.2316168781
0.2310917183
0.2305182684
0.2298575455
0.2298129999
0.2308449965
0.2312651244
0.2313818431
0.2314028232
0.2313934436
0.2312596249
0.2304114095
0.2299719471
0.2298422974
0.2297798134
0.2297021836
0.2295773354
0.2295023996
0.2295206116
0.2296337949
0.2297754863
0.2299251062
0.2300765731
0.2302251062
0.2089481243
0.2095517952
0.2116794011
0.2129380493
0.2138028533
0.2150503801
0.21662682
0.2184899936
0.2195951791
0.2204977465
0.2215352409
0.2227347519
0.2235699995
0.224103631
0.2229945608
0.2240353356
0.2251871837
0.2262422201
0.227406499
0.2284721944
0.2292784006
0.2298346118
0.2303468051
0.2309326807
0.2312587163
0.2315162927
0.2317126224
0.230793882
0.2301052889
0.2304720348
0.2308876799
0.2314052505
0.2317082657
0.2318210538
0.2319425822
0.2321201415
0.2323466823
0.2325176329
0.2325602594
0.2325817487
0.2326156687
0.2326734323
0.2327459044
0.2327773721
0.2327917697
0.2328080519
0.2328140988
0.232822832
0.2328305957
0.2328247634
0.2328247539
0.2328198472
0.2328063057
0.2328093245
0.2327882812
0.2327901399
0.2327590935
0.2326907606
0.2326455066
0.2325935103
0.2324637633
0.2323696451
0.2321258988
0.2317883304
0.2315364962
0.231029536
0.2304837188
0.2297704943
0.2312035105
0.2314296149
0.2310987147
0.2306375386
0.2303249404
0.229328796
0.2282309636
0.2270207441
0.2256657146
0.2242927858
0.2224319243
0.222125935
0.2223578395
0.2224750497
0.2224821538
0.2225559256
0.2227354821
0.2229506582
0.2227911998
0.2225030572
0.2222985749
0.2222051511
0.2221790913
0.2221794282
0.2222295748
0.2223571928
0.2225674098
0.2228300828
0.2231224979
0.2234308945
0.2237390023
0.1790226357
0.179883954
0.1838931308
0.1853118626
0.1863667815
0.1885218761
0.1915350041
0.1952982928
0.197276751
0.1987347823
0.2004366422
0.2024936321
0.2039598681
0.2050252022
0.2029893733
0.2049520089
0.2069394177
0.2088778499
0.2115533484
0.2136076901
0.2154404033
0.21705574
0.2187998401
0.2207101343
0.2218071304
0.2227366804
0.2236222297
0.2231266819
0.2232757322
0.2239470513
0.2249088545
0.2262818901
0.2271963899
0.2275281499
0.2278933628
0.2284705193
0.2292891235
0.2300059916
0.2301877926
0.2302894164
0.2304611639
0.230770313
0.2311640589
0.2313334323
0.2314114872
0.2315051008
0.2315372423
0.2315866969
0.2316275717
0.2315955461
0.2315959289
0.2315710355
0.2314968277
0.231513312
0.2313868673
0.2313914779
0.2311978776
0.2308504498
0.2306285841
0.2303582082
0.2297661907
0.2293828212
0.2284960846
0.2274370968
0.2267297752
0.2253757099
0.2240581364
0.2223166262
0.2224301657
0.2222668369
0.2207084645
0.2193492073
0.2183458468
0.2154637152
0.2130255742
0.2105928925
0.2081725567
0.2058019793
0.2024855366
0.2018633714
0.2013119575
0.2011324494
0.2010240824
0.2011730592
0.2016018028
0.2022318854
0.2027491121
0.2026976812
0.202493635
0.2024146183
0.2024754349
0.2026327377
0.2028609204
0.2031641
0.2035396579
0.2039692883
0.2044338029
0.2049337482
0.2054525297
0.137268526
0.1382202509
0.1400494165
0.1429001264
0.1446474566
0.1491427991
0.1543531204
0.1612018374
0.1641152358
0.16617667
0.1685690232
0.1715242374
0.173570265
0.1751978801
0.1702202722
0.1730356326
0.1757343078
0.1784149578
0.1831297485
0.1856563779
0.1882771808
0.1913546166
0.1950531037
0.1986749793
0.2005935305
0.2022278092
0.2037638703
0.2024338207
0.2038498248
0.2045939402
0.2061490319
0.2088427845
0.2108879944
0.211504428
0.2121886351
0.2133799921
0.2152689185
0.2173165317
0.217826061
0.2181584517
0.2187711757
0.219953214
0.2213971487
0.2219837815
0.2222559142
0.2226173561
0.2227349906
0.2229475835
0.2231440347
0.222974841
0.2229931056
0.2228690767
0.2225792382
0.2225981553
0.2220716297
0.2218799088
0.2212255638
0.2201311578
0.2193650794
0.2183813869
0.2163930526
0.2153726362
0.2133336095
0.211147452
0.2098197966
0.2072084227
0.2048605614
0.2019210144
0.2005244462
0.2000369882
0.1972841961
0.1949029632
0.1932721208
0.1882217533
0.1846614576
0.1811547684
0.1778804553
0.1745749921
0.1696792856
0.1687908827
0.1673974596
0.1670906981
0.166815531
0.167032205
0.167734413
0.1688187503
0.1700715877
0.1701629581
0.1700224419
0.1700286335
0.1702174211
0.1705685681
0.1710134391
0.171539665
0.1721246037
0.1727572997
0.1733819377
0.1740635141
0.1749442631
0.09313278916
0.09395254622
0.09565187791
0.09822761652
0.09977972116
0.1007722091
0.1029539998
0.1056148753
0.1080696921
0.1105519712
0.1135375145
0.1172817033
0.1199256495
0.1223724905
0.126209355
0.1297895621
0.1328186094
0.1357769038
0.1388168075
0.1430623001
0.1470309625
0.152478686
0.1593888143
0.1654844682
0.1682880759
0.1706656762
0.1729143039
0.1685896539
0.1718194122
0.1720299109
0.1740988839
0.1779491961
0.1816077962
0.1823478937
0.1831598702
0.1847196157
0.1874301617
0.1912390389
0.1920882826
0.1927333449
0.1940268939
0.1966008988
0.1995738251
0.2005938952
0.2010629637
0.2017234243
0.2019152084
0.2023155455
0.2026972278
0.2023653806
0.2024104802
0.2021697848
0.2016396865
0.2015152747
0.2004476472
0.1996981167
0.1985989897
0.1967251544
0.1952567529
0.1931253416
0.1891395953
0.1875506396
0.1845725149
0.181454254
0.179704296
0.1757606217
0.1724033855
0.1684314501
0.1652423071
0.1647796848
0.1610036753
0.1571104768
0.1549791319
0.1468947457
0.1422797949
0.1376575191
0.1337080909
0.1305377722
0.1247481308
0.123773247
0.1218085271
0.1204804095
0.1199669011
0.1202445643
0.1211892839
0.1226435725
0.1245461227
0.125192879
0.1252616465
0.125425781
0.1257061685
0.1262469329
0.1268900878
0.1276275144
0.1284073132
0.1291691061
0.1299025014
0.1307709135
0.1318160474
0.05756904632
0.0581558715
0.05944148193
0.06131435843
0.06243212613
0.06353857517
0.06505643995
0.06715104566
0.06875598895
0.07065297292
0.07295582161
0.07587095591
0.07793355505
0.07995535206
0.08309797209
0.08630770197
0.08898862589
0.09131114715
0.09397208299
0.09788410234
0.1008492401
0.1027291476
0.1051967262
0.1089047205
0.1121752914
0.1152157912
0.1183758683
0.123285003
0.1251827488
0.1276893815
0.1300661986
0.1345326182
0.1367263762
0.1377647491
0.1390646791
0.1413793692
0.1450826176
0.1517981539
0.152919819
0.1539134237
0.1567401269
0.1613544093
0.1662816817
0.1677341048
0.1683831584
0.1693691794
0.1695785147
0.1701908728
0.1707792341
0.1702274302
0.1703288132
0.1699400046
0.1691681916
0.1686819256
0.1669388335
0.1652488866
0.1637132348
0.1609095439
0.1585326855
0.1546947901
0.1475684884
0.1454444527
0.1414368147
0.1373631864
0.1352019209
0.1312673015
0.1273570308
0.1228576445
0.1188716524
0.1158080854
0.1112581401
0.1065181814
0.1049767916
0.09935211625
0.09517971674
0.09110429845
0.08736463676
0.08480315391
0.08005544124
0.07938307141
0.0775899645
0.07662892155
0.07614815271
0.07646773303
0.07729258911
0.07853728664
0.08034911828
0.08071749377
0.08077299205
0.08096215031
0.08130614559
0.08194557067
0.08237024475
0.08307303958
0.08384179547
0.08461476975
0.08536139519
0.08623294667
0.08703395853
0.03324339081
0.0336196809
0.03449108053
0.03569307559
0.03639414768
0.0371719308
0.03820013254
0.03963131151
0.04061236084
0.04190682499
0.04333526064
0.04516451585
0.04647973346
0.04790172131
0.05009716289
0.05243083432
0.05393103806
0.05586532723
0.05775276475
0.06071411653
0.06266799102
0.0641044005
0.06601197971
0.06896452487
0.07134793633
0.07358959118
0.07609288088
0.07993423298
0.0817488578
0.08369402596
0.08570400821
0.08955075265
0.09142876825
0.09221835533
0.09339922143
0.09542954916
0.09873651523
0.1015984874
0.1021537955
0.1027793031
0.1032763923
0.1050561309
0.1087351509
0.1102934757
0.1110332804
0.1122968492
0.1124531123
0.1132351074
0.114035345
0.1131952744
0.1133369847
0.1127508271
0.1117597378
0.1124949212
0.1108601031
0.1098283488
0.1083979098
0.1059665347
0.1041999066
0.1030967745
0.09999331102
0.09817861067
0.09438820987
0.09080010034
0.08885855685
0.0854340408
0.08193718228
0.07849275554
0.07519977399
0.07290688383
0.06877389279
0.06544612849
0.06437527793
0.05986454286
0.05675973314
0.05401523749
0.05127276269
0.04943279387
0.0465825692
0.04616111582
0.0445833009
0.0440417606
0.04382821405
0.04409069982
0.04460591285
0.04554138656
0.04714805493
0.04720827837
0.04717796224
0.04730203251
0.04758653423
0.04806049088
0.04847769442
0.04898321173
0.04955285707
0.05014975087
0.05073808017
0.0513422991
0.05200048004
0.01743622163
0.01765960656
0.01819714291
0.0188898159
0.0192834475
0.01977244662
0.02041185133
0.02127035234
0.02181346442
0.02261707321
0.02372939087
0.02514639831
0.02590334743
0.02681704089
0.02822936298
0.02974699651
0.0306311891
0.03185623097
0.03309913957
0.03507386472
0.0362577936
0.03717929619
0.03845162972
0.04051943304
0.04198780895
0.04325464048
0.04483633068
0.04747176322
0.04874205804
0.0499865279
0.05136151602
0.05418140967
0.05537930598
0.05587578341
0.05674506223
0.05816708997
0.06063932137
0.06273597915
0.06291091191
0.06329946332
0.06404617491
0.06525634419
0.06799761744
0.06902539714
0.06955799437
0.07052818265
0.07056547043
0.07118377492
0.07177041399
0.0710444294
0.07114880093
0.07061514905
0.0698701529
0.07039731223
0.06899686303
0.06802482715
0.06702301247
0.06516718856
0.06388519857
0.06302032742
0.06048526181
0.05913166444
0.05640710962
0.05392920846
0.05267651939
0.05004766625
0.04775637898
0.04536160127
0.04293358736
0.04189130393
0.03934359548
0.03700340233
0.03651834864
0.03350310072
0.03160861189
0.02988149754
0.02813340224
0.02701143312
0.02524967445
0.02521857434
0.02408653676
0.02389082873
0.02383121521
0.02406982404
0.0244251315
0.02505791339
0.02627617101
0.02627279057
0.02622265891
0.02630065444
0.02650828128
0.02684814029
0.0271772203
0.02754599938
0.02795004721
0.02837507874
0.02880235247
0.02922231951
0.02969152978
0.008372164355
0.008494100917
0.008796184452
0.009158057992
0.009358656983
0.009640929495
0.01000711786
0.0104760417
0.01074918716
0.01120438928
0.01183184611
0.01262414304
0.01301240057
0.0135390235
0.01436743596
0.0152596496
0.01572933471
0.01643853222
0.01718034331
0.01836465238
0.01901113384
0.01953545169
0.0203020675
0.02158521187
0.02239343044
0.02335421295
0.0246225256
0.02632667039
0.02709857163
0.02781592511
0.02867856614
0.03052551196
0.0312176431
0.03147905583
0.03204939504
0.03292926347
0.03459084217
0.03596293915
0.03590110376
0.03615806519
0.0366917393
0.03746473281
0.03933886101
0.03984805304
0.04019003311
0.04084717866
0.04080486831
0.0412351247
0.04161014111
0.04105711804
0.0411598077
0.04069244471
0.04023934576
0.04066733733
0.03949213758
0.03882173148
0.03828801614
0.03694031741
0.03611117603
0.03558628739
0.03382146912
0.03311258044
0.03125729578
0.02970201993
0.0290009066
0.02727806293
0.02591428143
0.02445547269
0.0226346902
0.02205646258
0.01985345176
0.01832305137
0.01810488984
0.01630413512
0.01525976728
0.01428683078
0.01328595378
0.01265665842
0.01167645103
0.0117228836
0.01103847108
0.01094410446
0.01091230005
0.01103915857
0.01122439538
0.01155066522
0.01226577365
0.01227356045
0.01221554463
0.01222952109
0.01230913261
0.01246924245
0.0126483394
0.01285027608
0.01307111806
0.01330486986
0.01354574473
0.0137790047
0.01404980079
0.00363838333
0.003698628667
0.003851204002
0.004021004837
0.004112901545
0.004259982963
0.004449911941
0.004681280783
0.004804713655
0.00503752136
0.005360881396
0.00576403146
0.005944373543
0.006218807483
0.006661095124
0.007136608961
0.007364140085
0.007736922985
0.00814040153
0.008785568692
0.009108539047
0.009378622359
0.009798678035
0.01052488517
0.01093001995
0.01142167671
0.01212290651
0.01310444775
0.01353307424
0.01390369609
0.01438996943
0.01547601242
0.01583343885
0.01594654909
0.01627592892
0.01677074504
0.0177429773
0.01858928361
0.018412733
0.01856192041
0.01888426297
0.01932809651
0.02047135603
0.02065935037
0.02083925937
0.02122568191
0.02115021899
0.02140494886
0.02163162155
0.02120974491
0.02129547658
0.02094675847
0.02068232972
0.02097898575
0.02014129726
0.01969461403
0.01945269352
0.0185941257
0.01811391916
0.01777943255
0.01667597203
0.01638476894
0.01525954632
0.01436316252
0.01400472091
0.01299686409
0.01225908813
0.01147471593
0.01041479647
0.01017042626
0.009008504765
0.008123750746
0.008017306079
0.007070715871
0.006545514237
0.006055182239
0.00554499146
0.005205341736
0.004698049589
0.004719637647
0.004363263552
0.004296349447
0.004263858749
0.004306203654
0.004376434317
0.004506800394
0.004845475503
0.004862047631
0.004840090859
0.004848901825
0.004886240616
0.004957285376
0.005038924155
0.005133878828
0.005238413036
0.005348783527
0.00546421393
0.005574650608
0.005703373001
0.001417489892
0.001444051324
0.001512442253
0.001583153598
0.001620550469
0.00168863776
0.001776518727
0.00187833585
0.001927805806
0.002033073849
0.002182282844
0.002365969567
0.00244076395
0.002568053284
0.002779805238
0.003006073906
0.003106757754
0.003281453305
0.003478207146
0.003792594672
0.003941198868
0.004064084984
0.004269759773
0.004637227287
0.004826839364
0.00505241742
0.005399644492
0.00590747708
0.006128412951
0.006299728617
0.006546254587
0.007122217325
0.007290798314
0.007329047837
0.007499077066
0.00775346065
0.00826299666
0.008744288609
0.008573977776
0.008646525102
0.008822179943
0.009059349231
0.009686532366
0.009732988093
0.009810947362
0.01001790757
0.009950671957
0.01008530964