/*--------------------------------*- C++ -*----------------------------------*\
| =========                 |                                                 |
| \\      /  F ield         | OpenFOAM: The Open Source CFD Toolbox           |
|  \\    /   O peration     | Version:  v1706                                 |
|   \\  /    A nd           | Web:      www.OpenFOAM.com                      |
|    \\/     M anipulation  |                                                 |
\*---------------------------------------------------------------------------*/
FoamFile
{
    version     2.0;
    format      ascii;
    class       volScalarField;
    location    "0.0025";
    object      p;
}
// * * * * * * * * * * * * * * * * * * * * * * * * * * * * * * * * * * * * * //

dimensions      [1 -1 -2 0 0 0 0];


internalField   nonuniform List<scalar> 
11682
(
5.18655
5.18655
5.18655
5.18655
5.18655
5.18655
5.18655
5.18655
5.18655
5.18655
5.18655
5.18655
5.18655
5.18655
5.18655
5.18655
5.18655
5.18655
5.18655
5.18655
5.18655
5.18655
5.18655
5.18655
5.18655
5.18655
5.18655
5.18655
5.18655
5.18655
5.18655
5.18655
5.18655
5.18655
5.18655
5.18655
5.18655
5.18655
5.18655
5.18655
5.18655
5.18655
5.18655
5.18655
5.18655
5.18655
5.18655
5.18655
5.18655
5.18655
5.18655
5.18655
5.18655
5.18655
5.18655
5.18655
5.18655
5.18655
5.18655
5.18655
5.18655
5.18655
5.18655
5.18655
5.18655
5.18655
5.18655
5.18655
5.18655
5.18655
5.18655
5.18655
5.18655
5.18655
5.18655
5.18655
5.18655
5.18655
5.18655
5.18655
5.18655
5.18655
5.18655
5.18655
5.18655
5.18655
5.18655
5.18655
5.18655
5.18655
5.18655
5.18655
5.18655
5.18655
5.18655
5.18655
5.18655
5.18655
5.18655
5.18655
5.18655
5.18655
5.18655
5.18655
5.18655
5.18655
5.18655
5.18655
5.18655
5.18655
5.18655
5.18655
5.18655
5.18655
5.18655
5.18655
5.18655
5.18655
5.18655
5.18655
5.18655
5.18655
5.18655
5.18655
5.18655
5.18655
5.18655
5.18655
5.18655
5.18655
5.18655
5.18655
5.18655
5.18655
5.18655
5.18655
5.18655
5.18655
5.18655
5.18655
5.18655
5.18655
5.18655
5.18655
5.18655
5.18655
5.18655
5.18655
5.18655
5.18655
5.18655
5.18655
5.18655
5.18655
5.18655
5.18655
5.18655
5.18655
5.18655
5.18655
5.18655
5.18655
5.18655
5.18655
5.18655
5.18655
5.18655
5.18655
5.18655
5.18655
5.18655
5.18655
5.18655
5.18655
5.18655
5.18655
5.18655
5.18655
5.18655
5.18655
5.18655
5.18655
5.18655
5.18655
5.18655
5.18655
5.18655
5.18655
5.18655
5.18655
5.18655
5.18655
5.18655
5.18655
5.18655
5.18655
5.18655
5.18655
5.18655
5.18655
5.18655
5.18655
5.18655
5.18655
5.18655
5.18655
5.18655
5.18655
5.18655
5.18655
5.18655
5.18655
5.18655
5.18655
5.18655
5.18655
5.18655
5.18655
5.18655
5.18655
5.18655
5.18655
5.18655
5.18655
5.18655
5.18655
5.18655
5.18655
5.18655
5.18655
5.18655
5.18655
5.18655
5.18655
5.18655
5.18655
5.18655
5.18655
5.18655
5.18655
5.18655
5.18655
5.18655
5.18655
5.18655
5.18655
5.18655
5.18655
5.18655
5.18655
5.18655
5.18655
5.18655
5.18655
5.18655
5.18655
5.18655
5.18655
5.18655
5.18655
5.18655
5.18655
5.18655
5.18655
5.18655
5.18655
5.18655
5.18655
5.18655
5.18655
5.18655
5.18655
5.18655
5.18655
5.18655
5.18655
5.18655
5.18655
5.18655
5.18655
5.18655
5.18655
5.18655
5.18655
5.18655
5.18655
5.18655
5.18655
5.18655
5.18655
5.18655
5.18655
5.18655
5.18655
5.18655
5.18655
5.18655
5.18655
5.18655
5.18655
5.18655
5.18655
5.18655
5.18655
5.18655
5.18655
5.18655
5.18655
5.18655
5.18655
5.18655
5.18655
5.18655
5.18655
5.18655
5.18655
5.18655
5.18655
5.18655
5.18655
5.18655
5.18655
5.18655
5.18655
5.18655
5.18655
5.18655
5.18655
5.18655
5.18655
5.18655
5.18655
5.18655
5.18655
5.18655
5.18655
5.18655
5.18655
5.18655
5.18655
5.18655
5.18655
5.18655
5.18655
5.18655
5.18655
5.18655
5.18655
5.18655
5.18655
5.18655
5.18655
5.18655
5.18655
5.18655
5.18655
5.18655
5.18655
5.18655
5.18655
5.18655
5.18655
5.18655
5.18655
5.18655
5.18655
5.18655
5.18655
5.18655
5.18655
5.18655
5.18655
5.18655
5.18655
5.18655
5.18655
5.18655
5.18655
5.18655
5.18655
5.18655
5.18655
5.18655
5.18655
5.18655
5.18655
5.18655
5.18655
5.18655
5.18655
5.18655
5.18655
5.18655
5.18655
5.18655
5.18655
5.186550001
5.18655
5.18655
5.18655
5.18655
5.18655
5.18655
5.18655
5.18655
5.18655
5.18655
5.18655
5.18655
5.18655
5.18655
5.18655
5.18655
5.18655
5.18655
5.18655
5.18655
5.18655
5.18655
5.18655
5.18655
5.18655
5.18655
5.18655
5.18655
5.18655
5.18655
5.18655
5.18655
5.18655
5.18655
5.18655
5.18655
5.18655
5.18655
5.18655
5.18655
5.18655
5.18655
5.18655
5.18655
5.18655
5.18655
5.18655
5.18655
5.18655
5.18655
5.18655
5.18655
5.18655
5.18655
5.18655
5.18655
5.18655
5.18655
5.18655
5.18655
5.18655
5.18655
5.18655
5.18655
5.18655
5.18655
5.18655
5.18655
5.18655
5.18655
5.18655
5.18655
5.18655
5.18655
5.18655
5.18655
5.18655
5.18655
5.18655
5.18655
5.18655
5.18655
5.18655
5.18655
5.18655
5.18655
5.18655
5.18655
5.18655
5.18655
5.18655
5.18655
5.18655
5.18655
5.18655
5.18655
5.18655
5.18655
5.186550001
5.18655
5.18655
5.18655
5.18655
5.18655
5.18655
5.18655
5.18655
5.18655
5.18655
5.18655
5.18655
5.18655
5.18655
5.18655
5.18655
5.18655
5.18655
5.18655
5.18655
5.18655
5.18655
5.18655
5.18655
5.18655
5.18655
5.18655
5.18655
5.18655
5.18655
5.18655
5.18655
5.18655
5.18655
5.18655
5.18655
5.18655
5.18655
5.18655
5.18655
5.18655
5.18655
5.18655
5.18655
5.18655
5.18655
5.18655
5.18655
5.18655
5.18655
5.18655
5.18655
5.18655
5.18655
5.18655
5.18655
5.18655
5.18655
5.18655
5.18655
5.18655
5.18655
5.18655
5.18655
5.18655
5.18655
5.18655
5.18655
5.18655
5.18655
5.18655
5.18655
5.18655
5.18655
5.18655
5.18655
5.18655
5.18655
5.18655
5.18655
5.18655
5.18655
5.18655
5.18655
5.18655
5.18655
5.18655
5.18655
5.18655
5.18655
5.18655
5.18655
5.18655
5.18655
5.18655
5.18655
5.18655
5.18655
5.186550001
5.18655
5.18655
5.18655
5.18655
5.18655
5.18655
5.18655
5.18655
5.18655
5.18655
5.18655
5.18655
5.18655
5.18655
5.18655
5.18655
5.18655
5.18655
5.18655
5.18655
5.18655
5.18655
5.18655
5.18655
5.18655
5.18655
5.18655
5.18655
5.18655
5.18655
5.18655
5.18655
5.18655
5.18655
5.18655
5.18655
5.18655
5.18655
5.18655
5.18655
5.18655
5.18655
5.18655
5.18655
5.18655
5.18655
5.18655
5.18655
5.18655
5.18655
5.18655
5.18655
5.18655
5.18655
5.18655
5.18655
5.18655
5.18655
5.18655
5.18655
5.18655
5.18655
5.18655
5.18655
5.18655
5.18655
5.18655
5.18655
5.18655
5.18655
5.18655
5.18655
5.18655
5.18655
5.18655
5.18655
5.18655
5.18655
5.18655
5.18655
5.18655
5.18655
5.18655
5.18655
5.18655
5.18655
5.18655
5.18655
5.18655
5.18655
5.18655
5.18655
5.18655
5.18655
5.18655
5.18655
5.18655
5.18655
5.186550001
5.18655
5.18655
5.18655
5.18655
5.18655
5.18655
5.18655
5.18655
5.18655
5.18655
5.18655
5.18655
5.18655
5.18655
5.18655
5.18655
5.18655
5.18655
5.18655
5.18655
5.18655
5.18655
5.18655
5.18655
5.18655
5.18655
5.18655
5.18655
5.18655
5.18655
5.18655
5.18655
5.18655
5.18655
5.18655
5.18655
5.18655
5.18655
5.18655
5.18655
5.18655
5.18655
5.18655
5.18655
5.18655
5.18655
5.18655
5.18655
5.18655
5.18655
5.18655
5.18655
5.18655
5.18655
5.18655
5.18655
5.18655
5.18655
5.18655
5.18655
5.18655
5.18655
5.18655
5.18655
5.18655
5.18655
5.18655
5.18655
5.18655
5.18655
5.18655
5.18655
5.18655
5.18655
5.18655
5.18655
5.18655
5.18655
5.18655
5.18655
5.18655
5.18655
5.18655
5.18655
5.18655
5.18655
5.18655
5.18655
5.18655
5.18655
5.18655
5.18655
5.18655
5.18655
5.18655
5.18655
5.18655
5.18655
5.186550001
5.18655
5.18655
5.18655
5.18655
5.18655
5.18655
5.18655
5.18655
5.18655
5.18655
5.18655
5.18655
5.18655
5.18655
5.18655
5.18655
5.18655
5.18655
5.18655
5.18655
5.18655
5.18655
5.18655
5.18655
5.18655
5.18655
5.18655
5.18655
5.18655
5.18655
5.18655
5.18655
5.18655
5.18655
5.18655
5.18655
5.18655
5.18655
5.18655
5.18655
5.18655
5.18655
5.18655
5.18655
5.18655
5.18655
5.18655
5.18655
5.18655
5.18655
5.18655
5.18655
5.18655
5.18655
5.18655
5.18655
5.18655
5.18655
5.18655
5.18655
5.18655
5.18655
5.18655
5.18655
5.18655
5.18655
5.18655
5.18655
5.18655
5.18655
5.18655
5.18655
5.18655
5.18655
5.18655
5.18655
5.18655
5.18655
5.18655
5.18655
5.18655
5.18655
5.18655
5.18655
5.18655
5.18655
5.18655
5.18655
5.18655
5.18655
5.18655
5.18655
5.18655
5.18655
5.18655
5.18655
5.18655
5.18655
5.186550001
5.18655
5.18655
5.18655
5.18655
5.18655
5.18655
5.18655
5.18655
5.18655
5.18655
5.18655
5.18655
5.18655
5.18655
5.18655
5.18655
5.18655
5.18655
5.18655
5.18655
5.18655
5.18655
5.18655
5.18655
5.18655
5.18655
5.18655
5.18655
5.18655
5.18655
5.18655
5.18655
5.18655
5.18655
5.18655
5.18655
5.18655
5.18655
5.18655
5.18655
5.18655
5.18655
5.18655
5.18655
5.18655
5.18655
5.18655
5.18655
5.18655
5.18655
5.18655
5.18655
5.18655
5.18655
5.18655
5.18655
5.18655
5.18655
5.18655
5.18655
5.18655
5.18655
5.18655
5.18655
5.18655
5.18655
5.18655
5.18655
5.18655
5.18655
5.18655
5.18655
5.18655
5.18655
5.18655
5.18655
5.18655
5.18655
5.18655
5.18655
5.18655
5.18655
5.18655
5.18655
5.18655
5.18655
5.18655
5.18655
5.18655
5.18655
5.18655
5.18655
5.18655
5.18655
5.18655
5.18655
5.18655
5.18655
5.186550001
5.186550001
5.18655
5.18655
5.18655
5.18655
5.18655
5.18655
5.18655
5.18655
5.18655
5.18655
5.18655
5.18655
5.18655
5.18655
5.18655
5.18655
5.18655
5.18655
5.18655
5.18655
5.18655
5.18655
5.18655
5.18655
5.18655
5.18655
5.18655
5.18655
5.18655
5.18655
5.18655
5.18655
5.18655
5.18655
5.18655
5.18655
5.18655
5.18655
5.18655
5.18655
5.18655
5.18655
5.18655
5.18655
5.18655
5.18655
5.18655
5.18655
5.18655
5.18655
5.18655
5.18655
5.18655
5.18655
5.18655
5.18655
5.18655
5.18655
5.18655
5.18655
5.18655
5.18655
5.18655
5.18655
5.18655
5.18655
5.18655
5.18655
5.18655
5.18655
5.18655
5.18655
5.18655
5.18655
5.18655
5.18655
5.18655
5.18655
5.18655
5.18655
5.18655
5.18655
5.18655
5.18655
5.18655
5.18655
5.18655
5.18655
5.18655
5.18655
5.18655
5.18655
5.18655
5.18655
5.18655
5.18655
5.18655
5.186550002
5.186550001
5.18655
5.18655
5.18655
5.18655
5.18655
5.18655
5.18655
5.18655
5.18655
5.18655
5.18655
5.18655
5.18655
5.18655
5.18655
5.18655
5.18655
5.18655
5.18655
5.18655
5.18655
5.18655
5.18655
5.18655
5.18655
5.18655
5.18655
5.18655
5.18655
5.18655
5.18655
5.18655
5.18655
5.18655
5.18655
5.18655
5.18655
5.18655
5.18655
5.18655
5.18655
5.18655
5.18655
5.18655
5.18655
5.18655
5.18655
5.18655
5.18655
5.18655
5.18655
5.18655
5.18655
5.18655
5.18655
5.18655
5.18655
5.18655
5.18655
5.18655
5.18655
5.18655
5.18655
5.18655
5.18655
5.18655
5.18655
5.18655
5.18655
5.18655
5.18655
5.18655
5.18655
5.18655
5.18655
5.18655
5.18655
5.18655
5.18655
5.18655
5.18655
5.18655
5.18655
5.18655
5.18655
5.18655
5.18655
5.18655
5.18655
5.18655
5.18655
5.18655
5.18655
5.18655
5.18655
5.18655
5.18655
5.186550002
5.186550001
5.18655
5.18655
5.18655
5.18655
5.18655
5.18655
5.18655
5.18655
5.18655
5.18655
5.18655
5.18655
5.18655
5.18655
5.18655
5.18655
5.18655
5.18655
5.18655
5.18655
5.18655
5.18655
5.18655
5.18655
5.18655
5.18655
5.18655
5.18655
5.18655
5.18655
5.18655
5.18655
5.18655
5.18655
5.18655
5.18655
5.18655
5.18655
5.18655
5.18655
5.18655
5.18655
5.18655
5.18655
5.18655
5.18655
5.18655
5.18655
5.18655
5.18655
5.18655
5.18655
5.18655
5.18655
5.18655
5.18655
5.18655
5.18655
5.18655
5.18655
5.18655
5.18655
5.18655
5.18655
5.18655
5.18655
5.18655
5.18655
5.18655
5.18655
5.18655
5.18655
5.18655
5.18655
5.18655
5.18655
5.18655
5.18655
5.18655
5.18655
5.18655
5.18655
5.18655
5.18655
5.18655
5.18655
5.18655
5.18655
5.18655
5.18655
5.18655
5.18655
5.18655
5.18655
5.18655
5.18655
5.18655
5.186550002
5.186550001
5.18655
5.18655
5.18655
5.18655
5.18655
5.18655
5.18655
5.18655
5.18655
5.18655
5.18655
5.18655
5.18655
5.18655
5.18655
5.18655
5.18655
5.18655
5.18655
5.18655
5.18655
5.18655
5.18655
5.18655
5.18655
5.18655
5.18655
5.18655
5.18655
5.18655
5.18655
5.18655
5.18655
5.18655
5.18655
5.18655
5.18655
5.18655
5.18655
5.18655
5.18655
5.18655
5.18655
5.18655
5.18655
5.18655
5.18655
5.18655
5.18655
5.18655
5.18655
5.18655
5.18655
5.18655
5.18655
5.18655
5.18655
5.18655
5.18655
5.18655
5.18655
5.18655
5.18655
5.18655
5.18655
5.18655
5.18655
5.18655
5.18655
5.18655
5.18655
5.18655
5.18655
5.18655
5.18655
5.18655
5.18655
5.18655
5.18655
5.18655
5.18655
5.18655
5.18655
5.18655
5.18655
5.18655
5.18655
5.18655
5.18655
5.18655
5.18655
5.18655
5.18655
5.18655
5.18655
5.18655
5.18655
5.186550002
5.186550001
5.18655
5.18655
5.18655
5.18655
5.18655
5.18655
5.18655
5.18655
5.18655
5.18655
5.18655
5.18655
5.18655
5.18655
5.18655
5.18655
5.18655
5.18655
5.18655
5.18655
5.18655
5.18655
5.18655
5.18655
5.18655
5.18655
5.18655
5.18655
5.18655
5.18655
5.18655
5.18655
5.18655
5.18655
5.18655
5.18655
5.18655
5.18655
5.18655
5.18655
5.18655
5.18655
5.18655
5.18655
5.18655
5.18655
5.18655
5.18655
5.18655
5.18655
5.18655
5.18655
5.18655
5.18655
5.18655
5.18655
5.18655
5.18655
5.18655
5.18655
5.18655
5.18655
5.18655
5.18655
5.18655
5.18655
5.18655
5.18655
5.18655
5.18655
5.18655
5.18655
5.18655
5.18655
5.18655
5.18655
5.18655
5.18655
5.18655
5.18655
5.18655
5.18655
5.18655
5.18655
5.18655
5.18655
5.18655
5.18655
5.18655
5.18655
5.18655
5.18655
5.18655
5.18655
5.18655
5.18655
5.18655
5.18655
5.186549999
5.186549999
5.186549999
5.186549999
5.186549999
5.186549999
5.186549999
5.18655
5.18655
5.18655
5.18655
5.18655
5.18655
5.18655
5.18655
5.18655
5.18655
5.18655
5.18655
5.18655
5.18655
5.18655
5.18655
5.18655
5.18655
5.18655
5.18655
5.18655
5.18655
5.18655
5.18655
5.18655
5.18655
5.18655
5.18655
5.18655
5.18655
5.18655
5.18655
5.18655
5.18655
5.18655
5.18655
5.18655
5.18655
5.18655
5.18655
5.18655
5.18655
5.18655
5.18655
5.18655
5.18655
5.18655
5.18655
5.18655
5.18655
5.18655
5.18655
5.18655
5.18655
5.18655
5.18655
5.18655
5.18655
5.18655
5.18655
5.18655
5.18655
5.18655
5.18655
5.18655
5.18655
5.18655
5.18655
5.18655
5.18655
5.18655
5.18655
5.18655
5.18655
5.18655
5.18655
5.18655
5.18655
5.18655
5.18655
5.18655
5.18655
5.18655
5.18655
5.18655
5.18655
5.18655
5.18655
5.18655
5.18655
5.18655
5.186549936
5.186549939
5.186549947
5.186549957
5.186549962
5.186549967
5.186549972
5.186549977
5.18654998
5.186549982
5.186549992
5.186549994
5.186549995
5.186549996
5.186549997
5.186549998
5.186549998
5.186549998
5.186549999
5.186549999
5.186549999
5.186549999
5.18655
5.18655
5.18655
5.18655
5.18655
5.18655
5.18655
5.18655
5.18655
5.18655
5.18655
5.18655
5.18655
5.18655
5.18655
5.18655
5.18655
5.18655
5.18655
5.18655
5.18655
5.18655
5.18655
5.18655
5.18655
5.18655
5.18655
5.18655
5.18655
5.18655
5.18655
5.18655
5.18655
5.18655
5.18655
5.18655
5.18655
5.18655
5.18655
5.18655
5.18655
5.18655
5.18655
5.18655
5.18655
5.18655
5.18655
5.18655
5.186549999
5.186549999
5.186549999
5.186549999
5.186549998
5.186549997
5.186549995
5.186549993
5.186549993
5.186549993
5.186549991
5.18654999
5.186549991
5.186549992
5.186549989
5.18654999
5.186549993
5.186549993
5.186549993
5.186549993
5.186549994
5.186549994
5.186549994
5.186549995
5.186549995
5.186549994
5.186549994
5.186549995
5.186549995
5.186551323
5.186551181
5.186550856
5.186550576
5.186550427
5.186550293
5.186550196
5.186550107
5.186550059
5.186550005
5.186549971
5.186549949
5.186549933
5.186549931
5.186549932
5.186549943
5.186549946
5.186549954
5.186549964
5.186549974
5.186549978
5.18654998
5.186549984
5.186549988
5.186549989
5.186549995
5.186549996
5.186549997
5.186549998
5.186549998
5.186549998
5.186549999
5.186549999
5.186549999
5.186549999
5.186549999
5.18655
5.18655
5.18655
5.18655
5.18655
5.18655
5.18655
5.18655
5.18655
5.18655
5.18655
5.18655
5.18655
5.18655
5.18655
5.18655
5.18655
5.18655
5.18655
5.18655
5.18655
5.18655
5.186549999
5.186549999
5.186549999
5.186549999
5.186549998
5.186549998
5.186549997
5.186549996
5.186549995
5.186549994
5.186549993
5.186549991
5.186549987
5.186549985
5.186549979
5.186549967
5.186549926
5.186549896
5.186549868
5.186549817
5.186549852
5.186549843
5.18654985
5.186549846
5.18654992
5.186549983
5.186550025
5.186550055
5.186550067
5.186550041
5.186549998
5.18654996
5.186549948
5.186549952
5.186549964
5.186549978
5.186549994
5.186550012
5.186550026
5.186550038
5.186550043
5.186767436
5.186747431
5.186704271
5.186663239
5.186642265
5.186623243
5.186607533
5.186591923
5.186583454
5.186576056
5.186569376
5.186563392
5.186560055
5.186557557
5.186555068
5.186553241
5.186552233
5.186551536
5.186551052
5.186550586
5.186550341
5.186550209
5.186550134
5.186550063
5.186550026
5.186549995
5.18654998
5.186549973
5.186549957
5.186549953
5.186549962
5.18654997
5.186549968
5.186549966
5.18654997
5.186549978
5.186549986
5.186549987
5.186549984
5.186549984
5.186549985
5.186549988
5.186549991
5.186549991
5.18654999
5.186549994
5.186549995
5.186549995
5.186549995
5.186549995
5.186549995
5.186549994
5.186549994
5.186549994
5.186549994
5.186549993
5.186549991
5.18654999
5.186549981
5.186549985
5.186549973
5.186549966
5.186549947
5.186549935
5.186549916
5.186549897
5.186549867
5.186549831
5.186549858
5.186549807
5.186549784
5.186549924
5.186549702
5.186549911
5.186550102
5.186550622
5.186551617
5.186552317
5.18655675
5.186556363
5.186559673
5.186561606
5.186564859
5.186565787
5.186565866
5.186565551
5.186563994
5.186562276
5.186560956
5.186560387
5.186560218
5.186560113
5.18655998
5.186559803
5.186559563
5.186559257
5.186558917
5.186558553
5.186557973
5.208791105
5.206763443
5.202458139
5.198289032
5.196181769
5.194276183
5.192666617
5.191067178
5.190197855
5.189421524
5.188703771
5.188057291
5.187707877
5.187434353
5.187164644
5.186954867
5.18684508
5.186763673
5.186701976
5.186643219
5.18661372
5.186598136
5.186586166
5.186574273
5.186568162
5.186563839
5.186559893
5.186556649
5.186554505
5.186553464
5.186552675
5.186551692
5.18655117
5.186550951
5.186550813
5.186550674
5.186550438
5.18655025
5.186550155
5.18655012
5.186550118
5.186550113
5.186550072
5.186550035
5.186550006
5.186549993
5.186549985
5.186549979
5.186549963
5.18654996
5.186549958
5.186549945
5.186549967
5.186549949
5.186549987
5.186549941
5.186549865
5.186549958
5.186550017
5.186549962
5.186550119
5.186549989
5.186550226
5.186550623
5.186550765
5.186551719
5.186552474
5.186554017
5.186558732
5.186559826
5.186567491
5.186580296
5.186580702
5.186616226
5.186653397
5.186727401
5.186844189
5.186978263
5.18733464
5.187320937
5.187614901
5.187798506
5.188002803
5.188015383
5.187975541
5.187877009
5.187694779
5.187590758
5.187542587
5.187521986
5.187505779
5.187482565
5.187452826
5.187415023
5.187370911
5.18732412
5.187275571
5.187225695
5.187160813
7.119540828
6.956151735
6.604649106
6.251111748
6.068024844
5.900668621
5.756065811
5.611659094
5.531676946
5.459244168
5.391658307
5.330465293
5.297610655
5.271467852
5.24664005
5.226290122
5.215747709
5.207797465
5.20164685
5.195942532
5.193027411
5.191525126
5.190316735
5.189124261
5.188492209
5.188043615
5.187626224
5.187278932
5.187071165
5.186964809
5.18686875
5.186758328
5.186709133
5.186690374
5.186670927
5.186646062
5.186613542
5.186593559
5.186587918
5.186585228
5.186582635
5.186578029
5.186570248
5.18656699
5.186565413
5.186563867
5.1865633
5.186562487
5.186561472
5.186562221
5.186562051
5.186562304
5.186564006
5.186563048
5.186565884
5.186563905
5.186565959
5.186574378
5.186578799
5.186582193
5.186598547
5.186602525
5.186640702
5.186691185
5.186728444
5.186843698
5.186954281
5.187155358
5.187578363
5.187776039
5.188562292
5.189680594
5.190101249
5.193402916
5.197193828
5.203873179
5.213960933
5.226678311
5.253629702
5.254329035
5.276014489
5.290419371
5.303021647
5.302369945
5.297532225
5.287681877
5.272130711
5.265747253
5.263561774
5.262436184
5.260906988
5.258542658
5.255602793
5.251910958
5.247765981
5.243601107
5.239356593
5.23500466
5.229817323
65.21855181
61.83518436
54.14255387
45.56141308
40.66912826
35.87394425
31.36187882
26.44097758
23.42501256
20.48021699
17.47681576
14.48539333
12.72615829
11.21908312
9.801942921
8.429049431
7.650660372
7.028731298
6.519352257
6.040079615
5.779577744
5.646691629
5.537133737
5.428952075
5.369265697
5.327043428
5.28814324
5.255460665
5.236778727
5.22674344
5.217251805
5.206753233
5.202164805
5.200507291
5.198551373
5.195951652
5.192748311
5.190843214
5.190448678
5.190228402
5.189923188
5.189388562
5.188601317
5.188328345
5.188194591
5.188033854
5.187983758
5.187896791
5.1878069
5.187891488
5.18787254
5.187918452
5.188066547
5.187986246
5.188237331
5.188081322
5.188423898
5.189186803
5.189601247
5.190055286
5.191565332
5.192310983
5.195986815
5.200737215
5.204649917
5.215024928
5.225921945
5.244599267
5.278667439
5.29913942
5.365813651
5.456782852
5.507262706
5.770722651
6.092945914
6.596090725
7.305488836
8.183955236
9.675495082
9.798185893
10.77735231
11.44750291
11.91907362
11.84164604
11.54223646
11.00201072
10.19032254
9.964930887
9.905060797
9.85436957
9.761653797
9.618652834
9.447602631
9.225416003
8.971596949
8.707518969
8.443468605
8.183559095
7.900146573
510.7589413
493.1288913
452.0217459
403.2317131
373.6662155
343.1026593
312.2648246
276.190805
252.1844389
227.2744266
199.616725
169.3809341
149.39153
130.7863624
110.2817944
89.02322244
75.35976813
63.28438808
52.03069852
39.87990348
31.992141
27.56130745
23.5614799
19.16423929
16.379611
14.24701774
12.15861491
10.26787884
9.143835477
8.44542197
7.737011004
6.931686003
6.557906661
6.426011387
6.257952318
6.026796896
5.745921565
5.574887011
5.546239354
5.527735456
5.497758547
5.446224736
5.374448435
5.350993826
5.339423985
5.324133352
5.319800181
5.311332861
5.303438504
5.311117894
5.309321265
5.313973638
5.326119749
5.319539728
5.34041449
5.327818573
5.363180155
5.427133868
5.46381506
5.508051843
5.634353819
5.716400519
6.020754842
6.410173494
6.735787483
7.488430496
8.289731788
9.510859849
11.25576926
12.43174895
15.54321636
19.2953332
21.55882078
30.01791256
39.21987167
50.68485103
64.33234498
79.01281639
99.55699704
101.2046156
113.7356279
121.4384029
125.6818523
124.2232679
119.954295
112.3261401
101.3154626
98.63857304
98.11700389
97.3007122
95.71649935
93.34756409
90.48940912
87.1268327
83.44496295
79.57692765
75.6105483
71.61689601
67.69956164
2006.179238
1952.546444
1827.491376
1678.528932
1586.473201
1491.678467
1401.764109
1294.032029
1218.748165
1139.523119
1047.727982
943.3077733
870.0264697
799.3599089
716.0193979
624.4753437
560.8070627
501.2578826
440.9524413
369.6146727
317.2663082
285.4150762
253.908828
216.1786682
188.9785231
166.6688489
142.6070618
117.3801203
100.0794254
88.98063484
76.74909291
61.14489158
52.79730667
49.77496313
45.54165627
39.18347932
30.74803438
24.68877997
23.81417842
23.13046258
21.88068872
19.6752486
16.46607542
15.36720963
14.8127621
14.00390761
13.79354458
13.32014234
12.90589305
13.30603874
13.20647949
13.45990332
14.03402838
13.71709628
14.69737296
14.1058929
15.96003712
18.66901696
20.20668477
22.03842252
26.47086705
29.57889119
38.34248287
48.22235348
55.63788368
70.03772674
84.00381254
102.131432
125.901726
140.443884
172.6629714
206.6908029
225.9761989
287.7004383
345.6256473
407.9655899
474.4327575
539.0681061
622.0172681
624.5764897
671.940397
697.0538175
709.2082163
700.8555937
680.9990093
649.1345527
605.0859304
594.3386587
593.6636327
589.0502322
580.8970695
569.8190631
557.1152495
542.5920562
526.7557032
510.0635316
492.7876038
475.3738399
458.7275024
5394.365943
5328.514261
5190.844443
4988.728928
4870.431686
4717.113115
4509.878745
4233.378107
4053.474521
3852.295535
3608.104911
3318.100308
3113.259106
2912.918405
2672.846478
2393.29803
2197.108583
2012.965282
1820.828282
1590.041404
1417.163601
1322.882968
1225.833406
1104.604033
1012.352868
934.3334035
845.2758109
745.9416963
673.2301097
624.6377016
567.7786388
490.3737021
445.2640335
428.6342687
403.857347
364.1747642
307.3576633
262.3243308
255.8537583
250.2950286
239.2651592
219.3133677
188.9349234
177.8813088
172.1904873
163.1075825
160.9289102
155.300532
150.5106071
155.0089322
153.7610736
156.6295143
162.5548749
159.0432223
169.1650132
162.7143441
183.287403
207.7764345
221.2788593
236.8647131
271.2861811
294.4353736
351.5239115
409.1276099
448.1560848
519.1241252
582.3137184
658.0292064
751.1611538
802.4897565
916.0768786
1027.64083
1080.409666
1292.560011
1479.916102
1679.037573
1894.485507
2094.104899
2376.789932
2363.285021
2515.183427
2582.812474
2627.594337
2592.994315
2523.107856
2422.573552
2268.027799
2234.753623
2238.212466
2222.661703
2192.900731
2154.452269
2113.078459
2067.298085
2018.422438
1967.730361
1916.186912
1865.02498
1812.196559
7857.449624
7828.524895
7769.340605
7664.773975
7603.340015
7541.596612
7444.031399
7288.282576
7169.273222
7047.14421
6886.43313
6666.599185
6503.794577
6346.320892
6125.553624
5856.828763
5661.040066
5464.23218
5248.955346
4946.958789
4696.281826
4470.363263
4209.357963
3869.583989
3604.910434
3384.66823
3120.685718
2823.855083
2594.045265
2444.970347
2264.293089
2011.278291
1860.531633
1811.383709
1730.034296
1596.648733
1399.722911
1253.036732
1234.870531
1217.441108
1180.280079
1113.634714
1009.963049
971.4722888
951.9090463
917.9526322
910.7097592
888.9264696
869.4215611
887.0095855
880.7469184
891.0669851
912.0178375
896.363845
933.6938173
930.4673514
985.7841081
1062.590669
1104.921364
1152.602738
1270.169485
1342.659289
1540.214636
1733.180918
1852.27009
2092.536373
2296.134833
2535.378144
2844.701834
2987.130131
3332.300964
3668.548134
3790.231632
4164.044439
4393.959067
4598.084979
4800.207838
4957.41442
5190.565852
5149.050953
5241.051786
5263.123833
5268.567347
5236.988472
5160.89584
5066.278087
4916.563347
4864.347396
4849.183702
4827.207501
4793.975583
4747.205897
4699.648598
4650.290191
4599.876342
4549.83316
4498.335086
4448.817533
4393.443803
8746.102926
8738.166581
8724.613471
8684.084565
8662.607917
8647.739656
8619.927805
8561.215625
8514.286628
8479.954233
8428.027749
8343.009524
8274.33322
8223.941046
8139.940034
8013.274853
7914.746766
7834.748864
7747.184658
7596.523366
7459.218064
7357.881912
7231.159061
7024.751917
6840.936101
6693.451784
6498.201758
6235.294671
6033.078692
5895.493404
5724.678684
5455.807469
5277.119032
5226.456821
5126.773615
4955.465018
4681.278086
4361.272429
4327.85197
4285.897183
4176.46614
3985.685475
3680.230586
3563.409652
3515.283478
3407.498515
3397.047214
3326.63051
3254.90833
3324.783509
3295.697501
3328.817422
3404.174948
3337.707696
3460.76942
3500.957327
3631.095585
3834.387452
3952.231375
4079.067573
4340.623849
4429.76507
4672.015056
4897.404203
4999.787258
5224.715769
5405.631002
5588.709567
5815.249273
5897.851614
6099.31708
6277.770867
6308.933793
6474.606775
6554.339572
6613.619642
6663.393515
6667.360441
6706.163673
6642.131125
6630.619637
6592.989418
6550.229426
6510.696562
6454.872759
6399.915288
6302.413621
6253.19322
6222.778129
6196.246773
6166.998794
6132.157843
6097.071237
6059.683349
6023.419729
5989.578134
5956.639494
5925.980788
5896.248072
8953.90105
8952.679055
8952.081123
8934.059874
8925.966292
8926.506892
8921.975941
8899.327605
8881.85703
8877.636471
8864.145542
8833.342622
8807.051754
8798.226174
8776.714872
8737.207078
8707.642846
8686.875292
8662.42699
8607.583417
8552.861589
8523.033608
8487.260305
8408.78811
8334.006436
8285.6813
8222.057252
8119.659321
8028.854187
7965.778741
7898.899411
7760.548744
7665.283657
7643.881689
7594.491067
7512.72942
7377.535404
7208.471894
7173.097702
7153.751688
7094.968926
6990.707846
6796.215633
6698.620051
6674.968352
6585.798209
6571.101709
6518.165112
6448.296514
6489.0978
6459.333993
6463.593
6515.031738
6447.148144
6501.851987
6538.071613
6613.808555
6684.165193
6737.773827
6773.882907
6888.967485
6921.925568
7002.760568
7087.059331
7110.656266
7185.579073
7230.810718
7255.754627
7302.030906
7293.600968
7322.329458
7342.377204
7305.756973
7325.576296
7310.555007
7282.942976
7247.670826
7191.358123
7152.614764
7085.381918
7033.324051
6973.90983
6914.356812
6869.54197
6823.324496
6777.657118
6715.223413
6667.25645
6626.325601
6594.273516
6565.76063
6537.026987
6508.639728
6479.62437
6451.460372
6425.227538
6400.981304
6379.102011
6358.798993
9043.799697
9042.589322
9041.417411
9027.10639
9021.504954
9021.677567
9018.315808
9002.483771
8991.962989
8989.572438
8979.19958
8957.259454
8940.967897
8936.861483
8929.650148
8912.390752
8898.765432
8893.354717
8885.996616
8861.326387
8834.483767
8826.443263
8819.12646
8786.653462
8753.313985
8739.102449
8721.176742
8680.920656
8643.396993
8621.874157
8609.879754
8563.230781
8517.052082
8506.06396
8483.023343
8450.688124
8406.410419
8338.720336
8305.431921
8297.766007
8266.780293
8232.386428
8152.140287
8094.742307
8088.60766
8042.380943
8020.596749
7995.273611
7950.596205
7947.85632
7924.340138
7902.153673
7910.468919
7868.519149
7853.769106
7865.273514
7883.481367
7853.523735
7854.187167
7832.416274
7851.733226
7842.693983
7829.360471
7835.257299
7805.116469
7790.914829
7778.860849
7745.953362
7725.802716
7685.507706
7655.191149
7624.287134
7565.362782
7537.544507
7491.417497
7439.476128
7384.800995
7318.440463
7267.0552
7200.610765
7140.969296
7077.027135
7014.639353
6967.68261
6921.760853
6875.484757
6821.986214
6774.619079
6729.912291
6693.819677
6662.858584
6633.741392
6606.502861
6579.547831
6553.29101
6528.525167
6505.510193
6484.788305
6465.851818
9112.708677
9111.443716
9109.620183
9097.313275
9093.06684
9092.047636
9088.2881
9074.814144
9067.426161
9064.977642
9058.65547
9044.586544
9034.643715
9032.767489
9023.618909
9005.390877
8992.469741
8985.131575
8976.784498
8955.811346
8934.399094
8927.751323
8921.841813
8897.948312
8873.684174
8860.847536
8846.852737
8818.887887
8794.468941
8782.392408
8779.321978
8755.657747
8725.793636
8715.900371
8699.999884
8682.485564
8663.905773
8630.312648
8601.164458
8593.032087
8572.921597
8559.007161
8520.932669
8480.761966
8474.653008
8445.09361
8422.013414
8404.890991
8371.157601
8352.726258
8331.151085
8302.446643
8292.281462
8260.98577
8226.906869
8222.414922
8221.88872
8165.34299
8147.447728
8107.18915
8094.977598
8071.083733
8031.536265
8012.390089
7969.329527
7935.664505
7912.671588
7870.906958
7841.480653
7799.0157
7767.484205
7729.451578
7670.327924
7638.195937
7591.132792
7540.196146
7480.46354
7408.873752
7349.855375
7284.077061
7220.870603
7155.496907
7091.760367
7042.357322
6995.494552
6948.12484
6897.557403
6850.185415
6804.500176
6765.714253
6732.408326
6702.194998
6674.616005
6648.425594
6623.124949
6599.102504
6576.5773
6556.25322
6537.585476
9183.501473
9182.253595
9179.771334
9168.624365
9165.035549
9162.795069
9158.354597
9145.661502
9139.666222
9135.89297
9128.179387
9114.335443