/*--------------------------------*- C++ -*----------------------------------*\
| =========                 |                                                 |
| \\      /  F ield         | OpenFOAM: The Open Source CFD Toolbox           |
|  \\    /   O peration     | Version:  v1706                                 |
|   \\  /    A nd           | Web:      www.OpenFOAM.com                      |
|    \\/     M anipulation  |                                                 |
\*---------------------------------------------------------------------------*/
FoamFile
{
    version     2.0;
    format      ascii;
    class       volScalarField;
    location    "0.0025";
    object      Tt;
}
// * * * * * * * * * * * * * * * * * * * * * * * * * * * * * * * * * * * * * //

dimensions      [0 0 0 1 0 0 0];


internalField   nonuniform List<scalar> 
11682
(
210
210
210
210
210
210
210
210
210
210
210
210
210
210
210
210
210
210
210
210
210
210
210
210
210
210
210
210
210
210
210
210
210
210
210
210
210
210
210
210
210
210
210
210
210
210
210
210
210
210
210
210
210
210
210
210
210
210
210
210
210
210
210
210
210
210
210
210
210
210
210
210
210
210
210
210
210
210
210
210
210
210
210
210
210
210
210
210
210
210
210
210
210
210
210
210
210
210
210
210
210
210
210
210
210
210
210
210
210
210
210
210
210
210
210
210
210
210
210
210
210
210
210
210
210
210
210
210
210
210
210
210
210
210
210
210
210
210
210
210
210
210
210
210
210
210
210
210
210
210
210
210
210
210
210
210
210
210
210
210
210
210
210
210
210
210
210
210
210
210
210
210
210
210
210
210
210
210
210
210
210
210
210
210
210
210
210
210
210
210
210
210
210
210
210
210
210
210
210
210
210
210
210
210
210
210
210
210
210
210
210
210
210
210
210
210
210
210
210
210
210
210
210
210
210
210
210
210
210
210
210
210
210
210
210
210
210
210
210
210
210
210
210
210
210
210
210
210
210
210
210
210
210
210
210
210
210
210
210
210
210
210
210
210
210
210
210
210
210
210
210
210
210
210
210
210
210
210
210
210
210
210
210
210
210
210
210
210
210
210
210
210
210
210
210
210
210
210
210
210
210
210
210
210
210
210
210
210
210
210
210
210
210
210
210
210
210
210
210
210
210
210
210
210
210
210
210
210
210
210
210
210
210
210
210
210
210
210
210
210
210
210
210
210
210
210
210
210
210
210
210
210
210
210
210
210
210
210
210
210
210
210
210
210
210
210
210
210
210
210
210
210
210
210
210
210
210
210
210
210
210
210
210
210
210
210
210
210
210
210
210
210
210
210
210
210
210
210
210
210
210
210
210
210
210
210
210
210
210
210
210
210
210
210
210
210
210
210
210
210
210
210
210
210
210
210
210
210
210
210
210
210
210
210
210
210
210
210
210
210
210
210
210
210
210
210
210
210
210
210
210
210
210
210
210
210
210
210
210
210
210
210
210
210
210
210
210
210
210
210
210
210
210
210
210
210
210
210
210
210
210
210
210
210
210
210
210
210
210
210
210
210
210
210
210
210
210
210
210
210
210
210
210
210
210
210
210
210
210
210
210
210
210
210
210
210
210
210
210
210
210
210
210
210
210
210
210
210
210
210
210
210
210
210
210
210
210
210
210
210
210
210
210
210
210
210
210
210
210
210
210
210
210
210
210
210
210
210
210
210
210
210
210
210
210
210
210
210
210
210
210
210
210
210
210
210
210
210
210
210
210
210
210
210
210
210
210
210
210
210
210
210
210
210
210
210
210
210
210
210
210
210
210
210
210
210
210
210
210
210
210
210
210
210
210
210
210
210
210
210
210
210
210
210
210
210
210
210
210
210
210
210
210
210
210
210
210
210
210
210
210
210
210
210
210
210
210
210
210
210
210
210
210
210
210
210
210
210
210
210
210
210
210
210
210
210
210
210
210
210
210
210
210
210
210
210
210
210
210
210
210
210
210
210
210
210
210
210
210
210
210
210
210
210
210
210
210
210
210
210
210
210
210
210
210
210
210
210
210
210
210
210
210
210
210
210
210
210
210
210
210
210
210
210
210
210
210
210
210
210
210
210
210
210
210
210
210
210
210
210
210
210
210
210
210
210
210
210
210
210
210
210
210
210
210
210
210
210
210
210
210
210
210
210
210
210
210
210
210
210
210
210
210
210
210
210
210
210
210
210
210
210
210
210
210
210
210
210
210
210
210
210
210
210
210
210
210
210
210
210
210
210
210
210
210
210
210
210
210
210
210
210
210
210
210
210
210
210
210
210
210
210
210
210
210
210
210
210
210
210
210
210
210
210
210
210
210
210
210
210
210
210
210
210
210
210
210
210
210
210
210
210
210
210
210
210
210
210
210
210
210
210
210
210
210
210
210
210
210
210
210
210
210
210
210
210
210
210
210
210
210
210
210
210
210
210
210
210
210
210
210
210
210
210
210
210
210
210
210
210
210
210
210
210
210
210
210
210
210
210
210
210
210
210
210
210
210
210
210
210
210
210
210
210
210
210
210
210
210
210
210
210
210
210
210
210
210
210
210
210
210
210
210
210
210
210
210
210
210
210
210
210
210
210
210
210
210
210
210
210
210
210
210
210
210
210
210
210
210
210
210
210
210
210
210
210
210
210
210
210
210
210
210
210
210
210
210
210
210
210
210
210
210
210
210
210
210
210
210
210
210
210
210
210
210
210
210
210
210
210
210
210
210
210
210
210
210
210
210
210
210
210
210
210
210
210
210
210
210
210
210
210
210
210
210
210
210
210
210
210
210
210
210
210
210
210
210
210
210
210
210
210
210
210
210
210
210
210
210
210
210
210
210
210
210
210
210
210
210
210
210
210
210
210
210
210
210
210
210
210
210
210
210
210
210
210
210
210
210
210
210
210
210
210
210
210
210
210
210
210
210
210
210
210
210
210
210
210
210
210
210
210
210
210
210
210
210
210
210
210
210
210
210
210
210
210
210
210
210
210
210
210
210
210
210
210
210
210
210
210
210
210
210
210
210
210
210
210
210
210
210
210
210
210
210
210
210
210
210
210
210
210
210
210
210
210
210
210
210
210
210
210
210
210
210
210
210
210
210
210
210
210
210
210
210
210
210
210
210
210
210
210
210
210
210
210
210
210
210
210
210
210
210
210
210
210
210
210
210
210
210
210
210
210
210
210
210
210
210
210
210
210
210
210
210
210
210
210
210
210
210
210
210
210
210
210
210
210
210
210
210
210
210
210
210
210
210
210
210
210
210
210
210
210
210
210
210
210
210
210
210
210
210
210
210
210
210
210
210
210
210
210
210
210
210
210
210
210
210
210
210
210
210
210
210
210
210
210
210
210
210
210
210
210
210
210
210
210
210
210
210
210
210
210
210
210
210
210
210
210
210
210
210
210
210
210
210
210
210
210
210
210
210
210
210
210
210
210
210
210
210
210
210
210
210
210
210
210
210
210
210
210
210
210
210
210
210
210
210
210
210
210
210
210
210
210
210
210
210
210
210
210
210
210
210
210
210
210
210
210
210
210
210
210
210
210
210
210
210
210
210
210
210
210
210
210
210
210
210
210
210
210
210
210
210
210
210
210
210
210
210
210
210
210
210
210
210
210
210
210
210
210
210
210
210
210
210
210
210
210
210
210
210
210
210
210
210
210
210
210
210
210
210
210
210
210
210
210
210
210
210
210
210
210
210
210
210
210
210
210
210
210
210
210
210
210
210
210
210
210
210
210
210
210
210
210
210
210
210
210
210
210
210
210
210
210
210
210
210
210
210
210
210
210
210
209.9999999
209.9999999
209.9999999
209.9999999
210
210
210
210
210
210
210
210
210
210
210
210
210
210
210
210
210
210
210
210
210
210
210
210
210
210
210
210
210
210
210
210
210
210
210
210
210
210
210
210
210
210
210
210
210
210
210
210
210
210
210
210
210
210
210
210
210
210
210
210
210
210
210
210
210
210
210
210
210
210
210
210
210
210
210
210
210
210
210
210
210
210
210
210
210
210
210
210
210
210
210
210
210
210
210
209.999997
209.9999972
209.9999976
209.999998
209.9999983
209.9999985
209.9999987
209.999999
209.9999991
209.9999992
209.9999996
209.9999997
209.9999998
209.9999998
209.9999998
209.9999999
209.9999999
209.9999999
209.9999999
210
210
210
210
210
210
210
210
210
210
210
210
210
210
210
210
210
210
210
210
210
210
210
210
210
210
210
210
210
210
210
210
210
210
210
210
210
210
210
210
210
210
210
210
210
210
210
210
210
210
210
210
210
210
209.9999999
209.9999999
209.9999999
209.9999998
209.9999997
209.9999997
209.9999997
209.9999996
209.9999995
209.9999996
209.9999996
209.9999995
209.9999995
209.9999996
209.9999996
209.9999997
209.9999997
209.9999997
209.9999997
209.9999997
209.9999997
209.9999997
209.9999997
209.9999997
209.9999997
209.9999998
210.0000414
210.0000365
210.0000253
210.000016
210.0000109
210.0000065
210.0000034
210.0000007
209.9999993
209.9999976
209.9999968
209.9999964
209.999996
209.9999962
209.9999965
209.9999971
209.9999974
209.9999978
209.9999983
209.9999988
209.999999
209.9999991
209.9999993
209.9999994
209.9999995
209.9999997
209.9999998
209.9999999
209.9999999
209.9999999
209.9999999
209.9999999
209.9999999
209.9999999
210
210
210
210
210
210
210
210
210
210
210
210
210
210
210
210
210
210
210
210
210
210
210
210
210
210
210
210
209.9999999
209.9999999
209.9999999
209.9999998
209.9999998
209.9999997
209.9999997
209.9999996
209.9999994
209.9999993
209.999999
209.9999985
209.9999967
209.9999954
209.999994
209.9999917
209.9999927
209.9999922
209.9999921
209.9999917
209.9999944
209.9999969
209.9999986
209.9999999
210.0000006
209.9999997
209.9999979
209.9999964
209.9999959
209.9999961
209.9999966
209.9999972
209.9999979
209.9999988
209.9999994
210
210.0000003
210.0083396
210.0075637
210.005892
210.0043059
210.0034977
210.0027661
210.002165
210.001569
210.0012467
210.0009659
210.0007138
210.0004891
210.000364
210.0002712
210.0001791
210.0001123
210.0000756
210.0000505
210.0000337
210.0000175
210.0000091
210.0000046
210.0000023
210.0000002
209.9999991
209.9999982
209.999998
209.999998
209.9999975
209.9999975
209.999998
209.9999985
209.9999984
209.9999984
209.9999985
209.9999989
209.9999993
209.9999994
209.9999993
209.9999992
209.9999993
209.9999995
209.9999996
209.9999996
209.9999996
209.9999997
209.9999997
209.9999998
209.9999998
209.9999997
209.9999997
209.9999997
209.9999997
209.9999997
209.9999997
209.9999997
209.9999996
209.9999995
209.9999991
209.9999993
209.9999988
209.9999985
209.9999976
209.9999971
209.9999962
209.9999953
209.9999939
209.9999922
209.9999928
209.9999905
209.9999888
209.9999934
209.999984
209.99999
209.9999949
210.0000119
210.0000464
210.0000682
210.0002319
210.0002155
210.0003369
210.0004072
210.0005304
210.000567
210.0005714
210.0005621
210.0005049
210.0004386
210.0003863
210.0003639
210.0003578
210.0003545
210.0003504
210.0003449
210.0003371
210.0003268
210.0003153
210.000303
210.0002826
210.8847579
210.8038093
210.6320583
210.4657358
210.3817505
210.3058753
210.2418874
210.1783476
210.1438503
210.1130574
210.0846303
210.0590717
210.045282
210.0345071
210.0238757
210.0156584
210.0113711
210.0082016
210.0058131
210.0035399
210.0024072
210.0018097
210.0013527
210.0009019
210.0006707
210.0005078
210.0003599
210.0002396
210.0001594
210.000121
210.0000926
210.0000572
210.0000381
210.00003
210.0000254
210.000021
210.0000131
210.0000066
210.000003
210.0000017
210.0000018
210.000002
210.0000009
209.9999996
209.9999985
209.9999981
209.9999978
209.9999976
209.9999971
209.9999969
209.9999968
209.9999962
209.999997
209.9999963
209.9999976
209.9999958
209.9999925
209.9999956
209.9999977
209.9999951
210.0000004
209.9999945
210.000002
210.0000154
210.0000191
210.0000526
210.0000781
210.0001323
210.0003077
210.000344
210.0006291
210.0011134
210.0011136
210.0024681
210.0038729
210.006719
210.0112348
210.0164213
210.0303454
210.0297455
210.0412777
210.0484622
210.0564915
210.0569814
210.0554162
210.0515536
210.0443873
210.0402752
210.0383584
210.0375417
210.0369068
210.0359996
210.0348381
210.0333605
210.031636
210.0298117
210.0279211
210.0259785
210.023445
287.4596152
280.9183256
266.8430498
252.6710678
245.3302759
238.6202353
232.8234318
227.0332652
223.8262111
220.9209961
218.2107658
215.757438
214.4408792
213.3934561
212.3984245
211.5841124
211.1627084
210.8450676
210.5996972
210.3721712
210.2561755
210.1964872
210.1485065
210.1012813
210.0762615
210.0585332
210.042056
210.0283776
210.0202105
210.0160457
210.0122988
210.0079947
210.0060868
210.0053595
210.0046085
210.0036527
210.0024022
210.0016368
210.0014187
210.0013151
210.001218
210.0010453
210.0007501
210.0006259
210.0005658
210.0005076
210.0004861
210.0004555
210.0004168
210.0004446
210.000438
210.0004467
210.0005111
210.0004742
210.0005817
210.0005036
210.0005776
210.0008978
210.0010646
210.0011887
210.0018124
210.0019516
210.0034161
210.0053551
210.0067826
210.0112585
210.0155417
210.0233721
210.0400008
210.0477147
210.0787073
210.1228926
210.1393312
210.2704194
210.4207847
210.6866869
211.0887613
211.5962064
212.6721109
212.6989368
213.565711
214.1413124
214.644701
214.6180522
214.4242591
214.0301611
213.4077616
213.152418
213.0649279
213.0199219
212.9587801
212.8642295
212.7467079
212.599088
212.4333312
212.2669562
212.0974559
211.9236262
211.7163115
2522.712181
2396.860422
2109.156725
1784.435795
1598.048881
1414.402758
1240.665464
1049.907127
932.3509614
816.9821188
698.8538361
580.6845917
510.9610289
451.0689892
394.6116654
339.8238634
308.7097461
283.8186662
263.4197195
244.2052783
233.760628
228.4336799
224.0410902
219.7052773
217.3122185
215.6198504
214.0607939
212.7512173
212.0035458
211.602113
211.2226584
210.8031553
210.6201701
210.5541057
210.4761055
210.3725293
210.2449758
210.169318
210.153672
210.1449292
210.1328516
210.1116957
210.0805129
210.0697314
210.0644446
210.0580952
210.0561179
210.0526819
210.0491283
210.0524654
210.0517108
210.0535124
210.059359
210.0561692
210.0660872
210.059836
210.0733787
210.1035738
210.1199423
210.1378609
210.1977519
210.2271729
210.3734442
210.5624707
210.718318
211.1323977
211.5673003
212.3131315
213.6760773
214.4948298
217.1640846
220.806897
222.8264722
233.3844075
246.2855659
266.4267984
294.7922044
329.8697984
389.241213
394.0844161
432.938976
459.4824508
478.1205548
475.0223587
463.1455984
441.7191055
409.4978079
400.5551622
398.1794474
396.1660434
392.4796876
386.7928977
379.9889982
371.144758
361.0364282
350.516641
339.9946645
329.6327346
318.3252899
16116.76367
15670.27485
14608.80624
13280.6691
12449.26358
11578.54543
10685.70031
9611.104773
8872.869101
8087.832489
7196.69938
6196.985184
5520.150579
4878.122698
4154.048286
3392.985791
2895.155452
2449.006977
2028.459337
1567.360289
1264.475457
1093.011691
937.357615
765.197383
655.5019982
571.1964985
488.3703626
413.1366897
368.3520323
340.4647492
312.1487622
279.9209005
264.9551211
259.6727003
252.9363544
243.6690778
232.4053768
225.5490801
224.402522
223.66092
222.4597201
220.3945374
217.5169366
216.5777246
216.1142087
215.5013511
215.3278276
214.9883869
214.671961
214.9797604
214.9075131
215.0937959
215.580246
215.3160929
216.1523
215.6449246
217.0634686
219.6260786
221.0949164
222.8664355
227.9271327
231.2132094
243.4134899
259.0096224
272.0458953
302.1528667
334.1556656
382.8038953
452.1603825
498.7516714
621.633473
768.9984521
857.4430195
1184.968413
1536.343386
1967.47409
2471.312798
3002.717248
3726.561087
3781.880405
4212.088998
4472.545329
4611.801689
4561.006552
4414.216844
4151.714497
3770.709742
3676.822012
3657.950004
3629.251267
3573.368269
3489.721536
3388.644488
3269.635295
3138.990351
3001.221559
2859.316506
2715.70609
2574.353626
39148.61226
38705.49026
37624.60971
36109.92065
35090.18356
34013.5832
32888.85846
31434.61466
30324.42966
29066.82003
27524.1999
25645.45879
24237.30526
22803.28338
20953.77086
18880.81622
17357.62716
15858.97273
14289.89604
12311.96639
10794.51636
9852.31015
8898.49698
7717.405587
6834.390417
6093.686539
5277.771595
4398.395199
3786.709803
3387.465272
2942.925789
2367.604
2055.779549
1942.066088
1781.874011
1539.793256
1215.700953
980.7362116
946.7531326
920.0898432
871.2850139
784.935571
658.678754
615.3387301
593.4314996
561.4201104
553.0929513
534.32723
517.9039441
533.7585866
529.8026511
539.8363538
562.5434117
549.9838122
588.7081816
565.1665403
638.5059248
745.0664383
805.3060361
876.8379527
1049.094374
1169.304254
1505.310692
1879.057099
2156.446481
2686.821588
3192.135327
3833.611161
4656.411173
5148.195159
6206.727867
7289.575672
7882.890599
9719.649386
11361.14667
13021.14837
14678.32815
16180.88216
17944.64162
17975.67149
18880.496
19343.58404
19512.70324
19330.81087
18905.18483
18230.22952
17299.89046
17049.60264
17006.05287
16900.55366
16712.61428
16458.25646
16165.71193
15833.20319
15469.46833
15082.65507
14677.84514
14263.92705
13871.1838
52448.47814
52381.31847
52180.98849
51832.9035
51591.00263
51366.02925
50983.87658
50371.60559
49865.90521
49206.62768
48335.62571
47164.30466
46230.5687
45213.59993
43660.10625
41900.21784
40507.32464
39008.71333
37334.35
34937.832
32915.54756
31664.1486
30294.10436
28415.08956
26820.2313
25389.95547
23661.23071
21538.50253
19954.3958
18823.1537
17466.69329
15540.33606
14362.04269
13913.35743
13233.85617
12118.5834
10465.0384
9116.676141
8918.045148
8747.219978
8406.994097
7783.353045
6807.931934
6445.625064
6256.763904
5953.48384
5879.655082
5689.518756
5527.891128
5677.11274
5634.852491
5729.430367
5924.966243
5807.105751
6137.51423
5906.519802
6596.820437
7380.775165
7802.070335
8278.405235
9312.151265
10001.6821
11636.9124
13208.71532
14227.41276
15972.22276
17445.91188
19083.71457
20956.48572
21941.02883
23899.32726
25661.74118
26444.25619
29020.37628
30977.65054
32695.84218
34204.49385
35344.37985
36583.11059
36373.31971
36844.77372
36945.73215
36863.33293
36585.18502
36113.23482
35483.85585
34612.20813
34311.10608
34200.17395
34032.58377
33786.18922
33494.3035
33186.24531
32855.11132
32504.67471
32139.57455
31762.05079
31378.11841
30997.31893
52351.50726
52421.29626
52530.85467
52624.93651
52665.65964
52746.52088
52853.36377
52915.5575
52942.22679
52994.50628
53032.99343
53011.55086
52961.21357
52921.79539
52834.32899
52643.38032
52475.93063
52214.49916
51888.73501
51344.22778
50836.39552
50368.73997
49789.82963
48821.62364
47856.05083
46956.36578
45758.98725
44039.64768
42760.86297
41758.80604
40504.68233
38575.4415
37280.16787
36778.92055
35953.30097
34533.47993
32250.71032
30348.15041
30054.4843
29787.9102
29230.30297
28208.36146
26500.33325
25809.7302
25440.99369
24807.87412
24652.44228
24224.46183
23856.55333
24143.12722
24025.37822
24188.99477
24536.55117
24248.4011
24842.69388
24686.00205
25716.4
26927.21542
27553.08446
28200.89795
29665.19847
30566.47091
32652.827
34438.19207
35404.70367
37026.92508
38224.00578
39393.61873
40638.27162
41118.9858
42141.58806
42915.42599
43035.45365
43488.16959
43664.02713
43672.68807
43520.16657
43271.36697
42886.25587
42536.85181
42177.42833
41809.01418
41428.74098
41176.27505
40901.76296
40657.22145
40387.27294
40150.58778
39946.8515
39779.74926
39612.46569
39445.49935
39292.9966
39152.6482
39022.39661
38899.80532
38780.48836
38671.10938
38557.57135
50060.79713
50136.93757
50274.18936
50396.01844
50459.66467
50571.90393
50708.59575
50832.39829
50903.1922
51034.34695
51177.59827
51304.00515
51363.27803
51466.42342
51599.21733
51661.81855
51681.95653
51784.06869
51924.14245
52067.03959
52120.38398
52184.2241
52269.00064
52319.64863
52290.99029
52280.03672
52229.08115
52128.45586
51967.66166
51858.39043
51708.91234
51432.59588
51101.98565
50953.42849
50730.89881
50381.65338
49803.03019
49125.95564
48943.53164
48782.25136
48481.10631
47963.97114
46983.72589
46505.95925
46253.42124
45767.24135
45638.87564
45273.2203
44945.68747
45071.27609
44918.67954
44935.84425
45077.75354
44774.17296
45016.47594
44839.48575
45384.53498
45842.88613
46037.40061
46138.05999
46415.68497
46500.04282
46702.86543
46891.32188
46841.95788
46744.21499
46613.21074
46380.15403
46091.63848
45763.0719
45364.02312
44890.51727
44490.98516
43921.72139
43404.11223
42901.17306
42453.07986
41993.67604
41398.74089
41032.21037
40570.67099
40169.17687
39775.12842
39507.25367
39277.56663
39098.89613
38933.5813
38717.81831
38508.77468
38338.2353
38191.71414
38058.79351
37931.82005
37822.94024
37729.29432
37647.26222
37573.20396
37511.4049
37455.913
47199.88456
47273.47702
47411.65227
47527.71359
47590.93723
47709.02294
47854.69837
47992.95404
48070.39203
48220.58179
48389.318
48555.32682
48644.29458
48797.21206
49011.04135
49200.94618
49307.98864
49463.30378
49632.50958
49829.70303
49920.78159
50015.16367
50152.49376
50306.5459
50375.08231
50456.12563
50557.01776
50683.37922
50689.95695
50703.67008
50731.76798
50768.06425
50746.12637
50710.42521
50693.51234
50729.62053
50818.3224
50847.79037
50720.8233
50657.63535
50589.29343
50583.58686
50569.91402
50449.07751
50386.95273
50247.45843
50130.3112
50009.60338
49878.94939
49703.49826
49581.32393
49409.86113
49237.65349
49100.15003
48840.03544
48449.30592
48503.32524
48205.96761
47971.82649
47677.38812
47306.28573
47059.16529
46619.25837
46226.36685
45974.65161
45619.08059
45272.56863
44853.44344
44369.81045
43957.71899
43393.35505
42815.80358
42370.21008
41714.79838
41147.93993
40587.64587
39998.1681
39451.53388
38830.26372
38468.02348
37979.4315
37593.34481
37227.73574
36961.2197
36754.29046
36602.33069
36505.83172
36300.29986
36089.53288
35919.68945
35784.50702
35670.82462
35566.05545
35475.41968
35399.57005
35336.76325
35284.52414
35243.31839
35215.23205
44419.965
44487.50707
44613.16734
44709.45044
44762.61417
44874.06907
45012.12545
45135.83747
45200.00753
45339.10204
45515.07499
45688.28439
45766.33512
45914.27117
46128.23554
46327.66179
46432.97892
46584.99458
46755.09602
46954.13737
47043.7306
47136.41053
47285.19689
47467.64642
47553.99658
47646.35173
47791.56464
47985.64404
48063.79559
48125.87815
48241.25571
48413.4447
48409.33753
48374.07379
48370.59925
48428.21458
48572.0998
48655.81389
48522.18156
48461.82259
48419.21176
48452.69145
48534.6148
48444.49411
48397.32735
48308.71076
48179.82401
48095.22794
47987.59665
47777.80954
47655.81358
47461.63535
47262.452
47150.93554
46828.92463
46414.64816
46404.8121
46056.48485
45795.88384
45473.46083
45057.15625
44773.92857
44297.82539
43879.4809
43543.13537
43058.09244
42635.36761
42160.01492
41623.60836
41216.70711
40632.89627
40045.33221
39601.55475
38945.93319
38393.05796
37848.53288
37269.69776
36726.49845
36147.01232
35809.10033
35340.15062
34986.00064
34657.85721
34408.84266
34214.34791
34068.82698
33998.25645
33807.18015
33604.98322
33439.05151
33308.42457
33201.60843
33107.733
33026.55409
32957.65083
32900.26191
32852.83225
32815.38421
32791.54015
41825.92264
41889.57939
42004.411
42085.09045
42130.07807
42236.89234
42369.86438
42479.68223
42530.63507
42658.45773
42829.44724
42991.87062
43057.03005
43193.70832
43390.55435
43570.10752
43655.97763
43787.96748
43945.26993
44124.53616
44195.09252
44269.94817
44406.23289
44578.0949
44648.5604
44736.98424
44891.72533
45081.03082
45162.80837
45219.17905
45338.56146
45521.49684
45516.41514
45472.42032
45468.79282
45522.77435
45671.72341
45769.19
45623.70021
45559.32931
45524.76163
45567.06351
45676.59495
45582.81366
45533.07709
45466.8442
45327.63132
45256.33683
45153.75215
44938.56597
44813.03869
44608.44898
44411.26895
44314.99973
43970.0308
43561.28714
43513.6207
43161.16835
42907.51911
42586.53271
42169.71251
41891.26147
41424.51649
41021.98154
40688.01035
40206.32639
39792.56258
39334.75226
38810.92355
38427.72895
37849.26687
37290.45614
36869.18068
36251.15843
35735.53751
35228.70385
34687.32703
34161.77055
33617.57837
33299.48592
32856.21366
32526.16181
32226.26726
31995.27046
31813.28641
31672.32056
31611.70762
31438.72011
31250.69211
31092.80249
30965.61157
30862.38248
30774.10765
30699.27847
30635.49317
30581.66166
30536.58281
30500.31552
30476.77011
39395.29547
39455.46343
39559.71471
39627.35403
39665.51759
39768.40125
39897.41032
39995.55247
40035.23862
40151.57788
40312.44294
40458.63874
40510.1441
40632.64032
40818.32672
40985.14526
41057.99055
41175.59294
41324.12231
41488.69134
41544.53644
41604.86253
41728.64267
41888.61199
41944.81313
42018.87369
42162.05974
42338.8389
42412.33478
42453.18231
42555.95698
42719.77876
42707.09104
42652.97044
42642.03482
42683.79593
42813.50608
42905.39122
42748.48705
42673.77668
42638.90408
42673.63624
42775.89899
42669.91005
42608.16716
42547.49661
42403.99472
42331.84535
42230.13109
42020.12219
41891.87633
41684.39461
41495.9899
41410.8689
41072.18789
40684.91232
40593.03351
40253.26493
40017.3824
39711.70743
39314.68428
39068.92606
38637.41638
38266.37384
37958.13334
37507.10292
37109.74833
36675.31071
36177.71777
35816.67877
35273.40446
34744.98212
34343.50402
33756.4754
33268.26754
32789.64728
32283.17659
31782.99432
31272.01493
30969.23063
30553.82781
30242.84226
29964.12888
29749.473
29577.8306
29443.65923
29385.64024
29234.25673
29065.45558
28919.44113
28800.30477
28703.39906
28620.84698
28551.73445
28493.14542
28443.42413
28401.22523
28366.48118
28342.93227
37109.71168
37165.85231
37259.11265
37315.17075
37347.48512
37445.98862
37570.59911
37658.61719
37689.15616
37794.06397
37946.09497
38079.39019
38120.19876
38229.53697
38405.30255
38560.62376
38623.711
38728.85613
38869.03698
39021.46936
39066.58279
39114.44304
39225.85669
39374.92209
39420.88861
39477.34287
39600.50012
39761.90932
39827.52477
39857.85577
39948.01863
40099.8211
40083.59364
40021.55057
40004.50032
40038.38692
40153.11905
40242.37109
40077.75706
39991.33234
39955.13917
39984.71325
40079.53779
39966.93644
39892.30781
39834.43166
39690.28815
39615.56095
39516.50727
39311.66066
39182.4165
38973.40676
38789.22067
38714.66372
38391.40776
38031.75349
37868.43437
37533.87922
37306.76335
37016.24386
36633.23176
36434.42397
36041.00234
35695.03275
35410.85258
34986.22944
34608.34807
34197.03038
33727.52427
33388.18661
32886.69891
32389.42973
32008.84481
31451.81174
30990.82456
30535.25022
30058.72099
29596.49417
29129.80923
28843.1722
28468.05315
28180.49589
27924.45254
27727.39071
27568.44155
27445.32197
27389.89453
27258.4153
27109.20492
26977.12655
26868.84422
26780.54461
26704.88402
26641.79663
26588.63161
26543.54259
26505.0046
26472.71935
26450.32488
34970.71053
35021.93359
35103.5215
35148.80241
35175.87842
35268.74996
35387.36615
35465.79144
35488.89328
35582.82669
35724.65188
35845.70798
35877.83712
35974.19363
36139.32304
36283.19287
36338.50946
36432.39384
36562.74088
36703.94287
36740.00111
36777.13083
36875.54726
37013.61878
37052.34282
37095.47538
37200.72458
37347.91519
37405.05158
37427.68514
37506.04412
37647.45576
37629.01563
37561.43462
37538.76795
37566.30211
37668.99121
37755.43776
37588.36086
37490.57984
37451.33698
37477.00869
37565.91028
37451.7659
37365.1513
37308.143
37165.72843
37088.26368
36993.36548
36793.73135
36665.49909
36457.04265
36273.9512
36207.82205
35905.88933
35577.97218
35327.76202
34996.30356
34771.80002
34497.9727
34124.81861
33989.81635
33629.67565
33304.87125
33042.39332
32644.03336
32284.99362
31894.36577
31452.36662
31131.48033
30665.2207
30206.06325
29853.43737
29340.57669
28924.45907
28496.67546
28069.56483
27648.55926
27222.00708
26958.17111
26620.25742
26358.71631
26125.05244
25941.38454
25797.27262
25685.08187
25633.0575
25514.48232
25383.07366
25266.08033
25168.89757
25088.62351
25019.5979
24962.2072
24914.09162
24873.41895
24838.56667
24809.00177
24788.45855
32992.55515
33037.98928
33107.24486
33142.4135
33164.72844
33250.32636
33360.70444
33429.59837
33446.57116
33528.71925
33658.10242
33766.54777
33791.39311
33874.62295
34026.42876
34157.97011
34206.32443
34289.23328
34407.50844
34536.66475
34564.39056
34592.00112
34676.21459
34801.73981
34833.956
34867.08095
34955.60017
35086.21671
35134.20624
35150.4778
35217.72014
35348.25667
35327.96266
35257.16838
35229.01798
35250.23546
35341.51367
35423.08597
35259.34447
35151.95293
35106.76154
35128.24127
35211.11418
35099.59459
35003.6076
34945.33426
34805.78946
34725.80937
34634.74679
34440.849
34314.94041
34109.3233
33926.77494
33863.59874
33586.09355
33291.53828
33165.25363
32857.86451
32635.73719
32376.20001
32008.9976
31747.78526
31390.77958
31082.33453
30838.25139
30474.89433
30143.59205
29783.81593
29383.72773
29085.21784
28664.42642
28254.68056
27931.52318
27473.25262
27099.77735
26710.63194
26330.016
25948.3005
25563.36499
25321.8795
25016.24168
24779.82272
24564.72116
24392.36335
24261.15514
24156.73923
24107.21703
23999.06783
23881.38017
23777.60351
23690.10404
23616.79398
23553.40864
23500.72172
23456.71729
23419.67857
23387.99488
23360.88387
23342.07046
31227.02891
31264.87189
31319.6221
31344.00419
31361.45602
31436.24009
31533.63529
31591.13406
31602.43931
31669.97879
31781.27437
31873.4851
31891.13753
31959.44171
32090.25912
32205.06523
32245.6852
32315.3458
32418.55963
32533.72518
32554.1024
32572.96523
32642.04129
32753.03021
32778.04243
32802.97945
32876.10727
32985.65784
33025.11262
33034.67639
33091.02035
33208.5068
33186.41979
33114.67835
33080.92474
33094.89688
33173.54113
33247.03932
33091.76308
32977.90062
32923.94723
32939.81736
33013.80778
32907.98725
32806.52316
32744.79075
32608.89183
32526.75041
32437.69825
32251.19983
32128.53243
31928.74675
31748.40211
31682.092
31429.86809
31165.92666
31023.75051
30749.7082
30544.56836
30305.98062
29967.79823
29731.7994
29382.41565
29094.82327
28867.67609
28544.7879
28242.81721
27919.59075
27567.38499
27288.3129
26914.89247
26559.29499
26261.68802
25860.97018
25523.69452
25178.27573
24836.09967
24490.70889
24146.14032
23923.87728
23648.38719
23434.50329
23234.71839
23072.96698
22949.87496
22850.45936
22801.20087
22702.3806
22595.67961
22501.756
22421.8941
22354.10874
22294.98485
22245.62368
22204.39094
22169.7819
22140.28936
22115.07139
22096.87454
29704.16808
29734.07005
29774.61698
29788.83151
29802.04683
29864.6257
29947.0235
29992.98845
29999.56548
30052.5231
30143.58535
30218.40338
30229.32205
30283.23534
30390.11594
30486.19421
30518.94814
30575.06177
30660.00291
30756.14128
30768.69483
30778.47523
30830.89325
30922.26062
30937.59376
30954.5091
31008.35834
31095.02518
31122.87461
31123.73201
31167.65654
31265.84192
31242.15802
31173.01679
31133.60776
31138.11086
31201.03315
31260.02372
31120.87393
31006.50919
30943.01943
30949.79692
31009.01082
30912.69254
30812.42532
30746.3423
30617.2834
30534.90113
30447.27338
30274.69262
30157.63309
29972.3745
29800.18433
29727.67128
29504.8763
29276.06129
29130.44959
28888.12381
28703.95688
28488.58867
28186.76797
27970.22057
27643.79444
27378.63179
27161.30298
26876.6024
26607.61167
26317.10884
26008.42706
25752.67569
25420.8471
25109.9705
24841.32412
24490.58265
24189.90471
23883.59114
23575.34682
23262.75289
22954.21782
22748.24875
22499.30655
22304.06224
22117.65151
21964.52266
21846.80977
21750.06314
21698.26675
21606.81011
21508.94054
21422.45634