/*--------------------------------*- C++ -*----------------------------------*\
| =========                 |                                                 |
| \\      /  F ield         | OpenFOAM: The Open Source CFD Toolbox           |
|  \\    /   O peration     | Version:  v1706                                 |
|   \\  /    A nd           | Web:      www.OpenFOAM.com                      |
|    \\/     M anipulation  |                                                 |
\*---------------------------------------------------------------------------*/
FoamFile
{
    version     2.0;
    format      ascii;
    class       volScalarField;
    location    "0.0025";
    object      Tv;
}
// * * * * * * * * * * * * * * * * * * * * * * * * * * * * * * * * * * * * * //

dimensions      [0 0 0 1 0 0 0];


internalField   nonuniform List<scalar> 
11682
(
210
210
210
210
210
210
210
210
210
210
210
210
210
210
210
210
210
210
210
210
210
210
210
210
210
210
210
210
210
210
210
210
210
210
210
210
210
210
210
210
210
210
210
210
210
210
210
210
210
210
210
210
210
210
210
210
210
210
210
210
210
210
210
210
210
210
210
210
210
210
210
210
210
210
210
210
210
210
210
210
210
210
210
210
210
210
210
210
210
210
210
210
210
210
210
210
210
210
210
210
210
210
210
210
210
210
210
210
210
210
210
210
210
210
210
210
210
210
210
210
210
210
210
210
210
210
210
210
210
210
210
210
210
210
210
210
210
210
210
210
210
210
210
210
210
210
210
210
210
210
210
210
210
210
210
210
210
210
210
210
210
210
210
210
210
210
210
210
210
210
210
210
210
210
210
210
210
210
210
210
210
210
210
210
210
210
210
210
210
210
210
210
210
210
210
210
210
210
210
210
210
210
210
210
210
210
210
210
210
210
210
210
210
210
210
210
210
210
210
210
210
210
210
210
210
210
210
210
210
210
210
210
210
210
210
210
210
210
210
210
210
210
210
210
210
210
210
210
210
210
210
210
210
210
210
210
210
210
210
210
210
210
210
210
210
210
210
210
210
210
210
210
210
210
210
210
210
210
210
210
210
210
210
210
210
210
210
210
210
210
210
210
210
210
210
210
210
210
210
210
210
210
210
210
210
210
210
210
210
210
210
210
210
210
210
210
210
210
210
210
210
210
210
210
210
210
210
210
210
210
210
210
210
210
210
210
210
210
210
210
210
210
210
210
210
210
210
210
210
210
210
210
210
210
210
210
210
210
210
210
210
210
210
210
210
210
210
210
210
210
210
210
210
210
210
210
210
210
210
210
210
210
210
210
210
210
210
210
210
210
210
210
210
210
210
210
210
210
210
210
210
210
210
210
210
210
210
210
210
210
210
210
210
210
210
210
210
210
210
210
210
210
210
210
210
210
210
210
210
210
210
210
210
210
210
210
210
210
210
210
210
210
210
210
210
210
210
210
210
210
210
210
210
210
210
210
210
210
210
210
210
210
210
210
210
210
210
210
210
210
210
210
210
210
210
210
210
210
210
210
210
210
210
210
210
210
210
210
210
210
210
210
210
210
210
210
210
210
210
210
210
210
210
210
210
210
210
210
210
210
210
210
210
210
210
210
210
210
210
210
210
210
210
210
210
210
210
210
210
210
210
210
210
210
210
210
210
210
210
210
210
210
210
210
210
210
210
210
210
210
210
210
210
210
210
210
210
210
210
210
210
210
210
210
210
210
210
210
210
210
210
210
210
210
210
210
210
210
210
210
210
210
210
210
210
210
210
210
210
210
210
210
210
210
210
210
210
210
210
210
210
210
210
210
210
210
210
210
210
210
210
210
210
210
210
210
210
210
210
210
210
210
210
210
210
210
210
210
210
210
210
210
210
210
210
210
210
210
210
210
210
210
210
210
210
210
210
210
210
210
210
210
210
210
210
210
210
210
210
210
210
210
210
210
210
210
210
210
210
210
210
210
210
210
210
210
210
210
210
210
210
210
210
210
210
210
210
210
210
210
210
210
210
210
210
210
210
210
210
210
210
210
210
210
210
210
210
210
210
210
210
210
210
210
210
210
210
210
210
210
210
210
210
210
210
210
210
210
210
210
210
210
210
210
210
210
210
210
210
210
210
210
210
210
210
210
210
210
210
210
210
210
210
210
210
210
210
210
210
210
210
210
210
210
210
210
210
210
210
210
210
210
210
210
210
210
210
210
210
210
210
210
210
210
210
210
210
210
210
210
210
210
210
210
210
210
210
210
210
210
210
210
210
210
210
210
210
210
210
210
210
210
210
210
210
210
210
210
210
210
210
210
210
210
209.9999999
210
210
210
210
210
210
210
210
210
210
210
210
210
210
210
210
210
210
210
210
210
210
210
210
210
210
210
210
210
210
210
210
210
210
210
210
210
210
210
210
210
210
210
210
210
210
210
210
210
210
210
210
210
210
210
210
210
210
210
210
210
210
210
210
210
210
210
210
210
210
210
210
210
210
210
210
209.9999999
210
210
210
210
210
210
210
210
210
210
210
210
210
210
210
210
210
210
210
210
210
210
210
210
210
210
210
210
210
210
210
210
210
210
210
210
210
210
210
210
210
210
210
210
210
210
210
210
210
210
210
210
210
210
210
210
210
210
210
210
210
210
210
210
210
210
210
210
210
210
210
210
210
210
210
210
210
210
210
210
210
210
210
210
210
210
210
210
210
210
210
209.9999999
210
210
210
210
210
210
210
210
210
210
210
210
210
210
210
210
210
210
210
210
210
210
210
210
210
210
210
210
210
210
210
210
210
210
210
210
210
210
210
210
210
210
210
210
210
210
210
210
210
210
210
210
210
210
210
210
210
210
210
210
210
210
210
210
210
210
210
210
210
210
210
210
210
210
210
210
210
210
210
210
210
210
210
210
210
210
210
210
210
210
210
210
210
210
210
210
210
210
210
209.9999999
210
210
210
210
210
210
210
210
210
210
210
210
210
210
210
210
210
210
210
210
210
210
210
210
210
210
209.9999999
210
210
210
210
210
209.9999999
209.9999999
210
210
210
210
210
210
210
210
210
210
210
210
210
210
210
210
210
210
209.9999999
210
210
210
210
210
210
209.9999999
209.9999999
209.9999999
210
210
210
210
210
210
210
210
210
210
210
210
210
210
210
210
210
210
210
210
210
210
210
210
210
210
210
210
210
210
210
210
210
210
210
210
210
210
210
210
210
210
209.9999999
210
210
210
210
210
209.9999999
210
210
210
210
210
210
210
210
210
210
210
210
210
210
210
210
210
210
210
210
210
209.9999999
210
210
210
210
210
210
210
210
210
210
210
210
210
210
210
210
210
210
210
210
210
210
210
210
210
210
210
209.9999999
210
210
210
210
210
210
210
210
210
210
210
210
210
210
210
210
210
210
210
210
210
210
210
210
210
210
209.9999999
210
210
210
210
210
210
210
210
210
210
210
210
210
210
210
209.9999999
210
210
210
210
210
210
210
210
210
210
210
210
210
210
210
209.9999999
210
210
210
210
210
210
210
210
210
210
210
210
209.9999999
210
209.9999999
210
210
210
210
210
210
210
210
210
210
210
210
210
210
210
210
210
210
210
210
210
209.9999999
210
210
210
210
210
210
210
210
210
210
210
210
210
210
210
210
210
210
210
210
210
210
210
210
210
210
209.9999999
209.9999999
209.9999999
210
210
210
210
210
210
210.0000003
210.0000003
210.0000002
210.0000002
210.0000001
210.0000001
210.0000001
210.0000001
210.0000001
210.0000001
210
210
210
210
210
210
210
210
210
210
210
210
210
210
210
210
210
210
210
210
210
210
210
210
210
210
210
210
209.9999999
210
210
210
210
210
210
210
210
210
210
210
210
210
209.9999999
210
210
209.9999999
210
210
210
210
210
210
210
209.9999999
210
209.9999999
210
210
210
210
210
210
210
210
210
210
210
210
210
210
210
210
210.0000001
210.0000001
210.0000001
210.0000001
210.0000001
210.0000001
210.0000001
210.0000001
210
210
210
210
210
210.0000001
210
210
210
210.0000164
210.0000151
210.0000122
210.0000096
210.0000082
210.0000068
210.0000056
210.0000043
210.0000036
210.000003
210.0000024
210.0000017
210.0000014
210.0000011
210.0000008
210.0000006
210.0000004
210.0000003
210.0000002
210.0000001
210.0000001
210.0000001
210.0000001
210.0000001
210
210
210
210
210
210
210
210
210
210
210
210
210
210
210
210
210
210
210
210
210
210
210
210
210
210
210
210
209.9999999
210
210
209.9999999
210
210
210
210
210
210
210
210
210
210
210
210
210
210
210.0000001
210.0000001
210.0000001
210.0000002
210.0000003
210.0000005
210.0000007
210.000001
210.0000017
210.0000018
210.0000026
210.000003
210.0000036
210.0000039
210.0000039
210.0000037
210.0000034
210.0000033
210.0000032
210.0000032
210.0000031
210.0000031
210.000003
210.000003
210.0000029
210.0000028
210.0000027
210.0000026
210.0000024
210.0007977
210.0007369
210.0005946
210.0004683
210.0003992
210.000332
210.0002685
210.0002039
210.0001682
210.0001384
210.0001094
210.0000816
210.0000654
210.0000522
210.0000371
210.0000263
210.0000203
210.0000158
210.0000118
210.0000081
210.000006
210.0000047
210.0000037
210.0000027
210.0000021
210.0000017
210.0000013
210.0000009
210.0000007
210.0000005
210.0000004
210.0000003
210.0000002
210.0000002
210.0000002
210.0000001
210.0000001
210.0000001
210.0000001
210
210.0000001
210.0000001
210
210
210
210
210
210
210
210
210
210
210
210
210
210
210
210
210.0000001
210
210.0000001
210.0000001
210.0000002
210.0000003
210.0000003
210.0000005
210.0000007
210.000001
210.0000018
210.0000021
210.0000032
210.0000048
210.0000055
210.0000091
210.0000138
210.0000204
210.0000306
210.0000401
210.0000714
210.0000733
210.0001035
210.0001224
210.0001442
210.000151
210.0001498
210.0001438
210.0001326
210.0001242
210.0001194
210.0001165
210.0001143
210.0001119
210.0001091
210.000106
210.0001025
210.0000987
210.000095
210.0000909
210.0000856
210.0388137
210.0358856
210.0290341
210.0229161
210.0195664
210.0162743
210.0131667
210.0100026
210.0082612
210.0068019
210.0053767
210.0040172
210.00322
210.0025597
210.0018272
210.0012721
210.0009858
210.000766
210.0005709
210.000394
210.0002902
210.0002295
210.0001808
210.0001253
210.0000996
210.0000804
210.0000619
210.000044
210.0000321
210.0000267
210.0000215
210.0000155
210.0000124
210.0000111
210.0000098
210.0000082
210.000006
210.0000045
210.000004
210.0000038
210.0000035
210.000003
210.0000024
210.0000021
210.0000019
210.0000018
210.0000017
210.0000017
210.0000016
210.0000017
210.0000017
210.0000018
210.0000019
210.0000018
210.0000022
210.0000021
210.0000024
210.0000032
210.0000037
210.0000042
210.0000058
210.0000067
210.0000097
210.0000137
210.0000167
210.0000247
210.0000323
210.0000463
210.0000781
210.0000935
210.0001414
210.0002067
210.0002364
210.0003974
210.0005884
210.0008945
210.0013444
210.0017969
210.0030525
210.003141
210.004426
210.005272
210.0061147
210.0063372
210.0062297
210.0058682
210.0052303
210.0048097
210.0045926
210.0044746
210.0043778
210.0042678
210.0041438
210.0040101
210.0038688
210.0037224
210.0035803
210.0034214
210.0032203
211.9288269
211.7913729
211.4657406
211.1688076
211.0039757
210.8393139
210.6832088
210.5230994
210.4347013
210.3591327
210.2848358
210.2135814
210.1715912
210.1349206
210.0901174
210.0613028
210.0478141
210.0372261
210.0278372
210.0191906
210.0141719
210.0112411
210.0088085
210.0061699
210.0048924
210.0039479
210.0030269
210.0021497
210.0015541
210.0012897
210.0010396
210.0007544
210.0006012
210.0005398
210.0004788
210.0003965
210.0002902
210.0002162
210.0001925
210.0001813
210.0001677
210.0001442
210.0001122
210.0000976
210.0000906
210.0000841
210.0000812
210.000078
210.0000747
210.0000778
210.0000779
210.0000802
210.0000882
210.000086
210.0000989
210.0000962
210.0001096
210.0001465
210.0001692
210.0001929
210.0002663
210.0003032
210.0004466
210.0006419
210.000787
210.0011514
210.0014996
210.0021784
210.0036038
210.0043959
210.006664
210.0095241
210.0110063
210.0185155
210.0271711
210.0409767
210.0604072
210.0814258
210.1340771
210.1392069
210.2048076
210.2470924
210.2845443
210.2927618
210.2850438
210.261537
210.2212918
210.1993034
210.1893966
210.1835706
210.1781725
210.1717133
210.1648248
210.157952
210.1511653
210.1445005
210.1377048
210.1305893
210.1219024
253.0073135
251.2440433
246.7473578
242.078758
239.1968383
236.0418047
232.7140286
228.8957304
226.541031
224.3562628
222.0138347
219.5457094
217.9594712
216.4104977
214.255634
212.941572
212.3406053
211.8494489
211.4034618
210.9800319
210.7300799
210.5827454
210.4571509
210.3258018
210.2588223
210.2092101
210.1601327
210.1085065
210.0748114
210.0622343
210.0503082
210.0363428
210.0291027
210.0263295
210.0233928
210.0193261
210.0140303
210.0104154
210.0093935
210.0088793
210.0082058
210.0070249
210.0054096
210.0047341
210.004418
210.0040889
210.0039605
210.0037951
210.003627
210.0037878
210.0037852
210.0039021
210.0042712
210.0041631
210.0047703
210.0046279
210.0053468
210.0070848
210.0081184
210.0093211
210.0127492
210.0146227
210.0215488
210.0305545
210.0374505
210.054218
210.0704868
210.1024966
210.1791354
210.2249087
210.3373418
210.4736883
210.5519763
210.9136679
211.3245397
211.9366414
212.7469399
213.6215272
215.5750861
215.8117096
218.2324449
219.7400847
220.8800199
221.0820739
220.7868623
219.9228965
218.3640057
217.5948593
217.2239771
216.9918679
216.7735439
216.5113924
216.2372565
215.9610098
215.6925297
215.4267554
215.1559419
214.8813491
214.5560225
426.0043701
420.925996
407.7295661
393.5892184
384.550727
374.3660438
363.1285692
349.6986146
340.8017984
332.0763584
322.0670945
310.4593418
302.1306019
292.7113151
276.4053746
264.3597444
257.9542349
252.0003709
245.7792495
238.7603416
233.7327585
230.3629191
227.1255574
223.360378
221.1389279
219.3700724
217.4834083
215.1246279
213.5344101
212.9794497
212.4471531
211.794693
211.456386
211.3312708
211.18902
210.9856358
210.7170166
210.5327039
210.4871565
210.4633936
210.4277899
210.364692
210.2801579
210.2479068
210.2325042
210.2148965
210.2086424
210.1994763
210.1905286
210.1992536
210.1989002
210.2052058
210.2234758
210.217851
210.2481395
210.2411824
210.2814881
210.3679387
210.4195583
210.4825999
210.6515623
210.7515775
211.091186
211.508453
211.8339014
212.5756341
213.2850476
214.6130092
217.7587407
219.6325324
223.2066565
226.8980816
229.0157957
236.5334867
243.4889461
251.5625556
260.1499643
267.9120994
281.7897146
283.279283
296.9099476
305.0149425
310.2855203
311.2140973
309.870646
305.9907943
297.0787719
292.7935113
290.322201
288.7847523
287.5076485
285.9051227
284.1154318
282.1364899
280.1551474
278.1569375
276.158447
274.1692934
271.8273764
554.3274802
545.8316876
526.0199031
502.9529417
489.1267708
475.2563099
461.8798368
446.3568182
436.0379159
424.8804837
411.9278115
396.621523
387.230326
392.5739279
464.0806922
458.4894438
440.8027702
423.7385688
405.172597
383.9160463
367.0421149
355.1802044
343.318995
328.4142876
318.3642338
309.6941316
299.7459522
283.5315782
270.1204658
264.6352666
259.058931
251.2496169
246.5350403
244.7120558
242.4234542
238.8017941
233.4022016
228.9832667
227.9398574
227.3362085
226.3248999
224.4462874
221.7591584
220.7043628
220.1835245
219.5323119
219.3170367
218.9562339
218.6155801
218.9533236
218.9308557
219.1697149
219.7952755
219.5965594
220.6171728
220.4109648
221.8492138
224.4372006
225.9126117
227.6623884
231.6836198
234.0287677
240.3588839
246.8096812
251.2385056
259.5287638
266.4925433
276.5090232
297.0257528
307.7827106
323.3451762
337.8286275
346.2345428
369.9704372
392.3674976
415.3619568
438.8082716
460.1846686
478.3677506
477.9999375
432.1396931
406.4584012
403.1069703
403.5328424
405.090701
414.1875859
457.7696162
478.2149088
479.1425261
479.7039722
481.9179716
486.7492851
490.3157247
489.3892554
485.5390898
480.3257748
474.9594754
469.6616995
464.2063003
893.1142726
878.153305
844.7955505
806.7344458
784.7796883
764.6725729
747.5364689
729.0348175
716.6835474
702.7073818
685.9721257
664.9596818
649.0390371
634.019554
636.71867
609.0519241
579.8259272
551.0418045
522.0647466
488.4724788
464.4844704
450.4581583
437.1128104
419.9003199
407.3890129
396.1895987
386.298108
440.0900562
473.03111
459.4151856
444.0451393
422.1466708
407.762459
402.2499326
395.2852365
383.8271998
366.2914091
349.9656059
346.2927857
344.0473921
340.0488906
332.4673286
320.9514291
316.0187077
313.5039172
310.145497
309.1074328
307.1011271
305.2690771
306.969669
306.8172627
308.0226006
310.9203278
309.9972865
314.6723511
313.7781563
320.2793941
330.8624826
336.8818953
343.5733624
357.3775328
366.108666
385.467621
405.3084591
418.554132
440.9085365
460.6395738
481.6212117
411.3967996
396.4450553
414.9640488
435.9910184
446.8121935
480.099929
510.2584231
543.764425
580.3483949
616.5224918
656.9138112
662.6174784
662.7915551
665.4978159
671.567597
670.6505392
666.4652986
658.8939607
656.61367
664.522498
667.8207078
667.706101
666.9036637
665.9558843
664.2675414
660.4057389
654.2878175
646.6300855
638.2013067
629.429485
620.4141756
1291.061633
1280.784982
1258.489153
1234.014154
1219.691102
1206.307931
1196.802069
1186.142995
1178.310159
1167.410173
1151.924754
1128.777348
1107.977329
1081.737557
1048.131765
990.9970319
940.099979
889.9260382
840.4953534
786.0040113
750.3358194
733.0834315
717.7426166
697.3434323
681.3238767
665.5872241
645.1593044
635.828602
632.0330598
611.6315158
585.4581596
549.0713439
526.7970514
518.482437
507.3287245
489.6825661
464.1440885
443.2859703
440.3591604
438.088359
433.7189806
425.2934072
410.743029
405.2679009
402.3582637
397.9273392
396.8648599
394.3656039
392.2327147
394.7659996
394.2393297
395.9404361
399.6628866
397.6574435
404.4290074
405.2741909
411.4951245
425.3095744
432.435943
440.2670562
457.4553729
468.2313493
496.5119324
525.0934842
545.7298574
581.9013301
613.9538625
651.621031
655.3795396
666.2982173
701.4659514
733.3113837
749.0053389
797.3411136
841.0982112
891.7151721
950.7267122
1011.676342
1085.734155
1095.597413
1129.195149
1149.128042
1163.756172
1162.207312
1153.019188
1134.52938
1107.430352
1105.31096
1109.584855
1109.139777
1105.848024
1100.182659
1092.944779
1083.74345
1072.726986
1060.244939
1046.755598
1032.709287
1018.908938
1403.317279
1401.231443
1398.997942
1398.509646
1399.604504
1399.734875
1404.731515
1412.360315
1418.30188
1422.05311
1424.95032
1425.119892
1422.156584
1413.267775
1397.938503
1365.223843
1331.685883
1299.096874
1266.396666
1230.207899
1204.792848
1194.491685
1184.805291
1168.551737
1153.749976
1135.766939
1107.458626
1068.988633
1033.692472
998.7379954
953.4017325
889.7903004
852.1150997
838.9565142
820.5075113
792.015024
753.4919568
726.5379323
724.7703803
722.6839742
717.5792117
707.5608802
689.0417819
682.5079521
678.8729438
671.8487672
670.6336216
666.0969365
661.8335186
667.3499412
666.1359354
669.6025533
675.809105
672.0327792
682.4551801
692.4808942
694.5776131
713.3863289
722.5312061
732.7772232
755.6308118
770.4713619
812.919156
856.9681848
890.1249659
951.6864572
1006.55021
1069.566583
1125.563595
1154.790822
1211.87555
1257.394373
1277.538061
1339.043583
1385.168494
1434.787807
1491.821361
1550.10546
1624.563592
1638.89156
1681.589504
1709.868866
1735.503479
1742.567118
1740.117154
1729.953493
1706.601404
1708.042665
1716.778784
1720.76879
1720.224674
1717.772389
1713.673141
1707.54807
1699.678083
1690.366796
1680.00732
1668.698607
1656.465128
1428.865048
1425.732383
1421.998977
1420.162965
1420.723979
1421.09302
1423.583715
1429.98129
1434.996166
1437.320223
1440.397949
1444.243236
1446.35742
1443.351141
1432.262133
1425.620158
1423.19969
1420.752534
1419.118986
1419.604676
1422.598738
1428.602519
1435.388079
1442.728033
1448.399894
1449.067871
1443.791244
1431.022225
1409.26787
1387.620804
1358.293972
1317.026077
1292.849799
1286.009124
1274.612424
1255.402776
1225.737762
1204.316461
1206.869566
1206.242729
1202.681684
1193.953837
1174.716145
1169.184816
1165.556023
1156.02874
1155.522566
1148.867145
1142.381833
1151.88316
1149.728846
1155.622425
1165.033382
1159.054673
1175.503792
1183.527333
1192.145715
1216.135904
1226.340196
1238.694588
1264.911826
1278.394313
1320.884034
1358.134749
1384.807185
1437.3117
1480.631777
1530.740408
1585.573353
1614.521962
1663.843196
1704.531739
1725.21775
1772.772945
1805.107615
1842.148783
1888.166456
1937.615413
2005.704606
2031.975297
2080.266434
2120.895583
2160.039965
2182.669668
2195.202671
2200.541501
2192.77814
2203.423321
2218.976382
2230.473758
2238.185117
2243.216683
2246.702376
2248.294726
2248.251633
2246.915551
2244.631361
2241.056887
2235.803309
1532.963413
1527.852144
1519.784346
1513.144741
1510.629335
1506.129564
1502.180434
1500.436625
1500.452963
1496.33481
1490.135688
1484.937214
1483.214473
1477.73609
1467.327345
1463.789556
1462.524439
1458.752614
1454.627363
1452.355751
1454.633093
1459.099195
1464.401188
1471.544007
1478.435159
1481.594764
1482.642181
1475.235744
1471.396006
1469.569016
1466.801491
1464.27961
1467.151101
1471.109028
1473.855472
1475.869896
1477.312196
1481.30101
1491.76912
1497.156546
1501.588287
1506.204751
1509.157256
1516.022317
1518.889468
1516.647394
1520.257232
1519.176108
1516.888969
1527.378766
1526.94473
1533.613766
1543.015886
1540.13198
1555.144492
1569.50362
1566.40149
1581.879255
1588.242977
1598.308439
1614.32885
1619.500441
1643.525109
1662.50646
1679.056473
1713.21126
1742.235697
1777.933263
1825.970516
1863.287868
1912.835782
1962.3335
1996.157678
2052.25551
2098.47873
2147.979751
2201.865232
2257.414274
2334.451752
2375.011898
2434.680605
2486.393748
2537.369407
2572.916082
2597.277216
2613.720097
2617.605339
2639.190417
2663.893952
2683.92687
2699.292901
2710.851515
2721.860594
2729.853328
2735.821134
2740.296173
2743.612379
2745.167205
2745.330669
1747.4338
1740.307596
1727.660383
1716.294852
1710.706166
1701.075747
1689.742115
1678.883552
1672.974193
1660.810126
1647.747307
1635.627002
1629.546067
1618.725307
1602.432393
1590.655143
1584.940918
1574.889906
1564.670669
1554.135048
1551.068324
1549.479096
1546.606572
1544.060663
1544.751366
1542.946554
1537.505594
1528.14783
1526.136111
1524.79069
1522.742278
1521.138082
1525.023649
1529.609561
1532.653325
1533.532519
1533.073276
1538.020714
1549.853002
1556.659911
1564.022842
1570.071355
1575.313033
1585.211842
1590.892304
1596.767806
1604.914571
1610.794134
1616.570822
1629.519335
1635.892147
1646.537839
1659.309169
1664.349771
1682.574084
1708.419916
1704.457924
1723.094155
1737.644524
1755.230578
1778.084242
1792.293696
1824.718889
1854.310429
1876.437321
1912.781133
1946.955003
1987.9708
2041.754594
2089.071496
2153.403344
2218.272713
2267.528667
2346.725306
2414.691521
2484.694487
2561.049654
2635.431085
2728.862651
2782.99357
2860.305541
2922.207435
2981.774532
3026.817737
3059.695094
3081.9555
3087.853569
3119.074048
3153.262528
3181.470628
3203.148231
3219.731129
3234.514988
3246.438943
3255.827245
3263.176398
3268.966925
3273.05054
3274.631428
2051.428539
2042.90614
2027.409667
2014.006581
2007.083781
1994.097126
1978.215881
1962.846014
1954.607231
1937.913751
1917.398797
1897.099283
1887.899995
1872.170014
1849.742482
1830.041446
1819.977669
1804.339801
1787.65258
1768.383637
1759.90074
1752.464017
1740.477531
1725.762187
1718.764224
1710.774734
1699.306395
1683.10643
1677.534159
1673.22803
1666.003793
1655.247244
1657.059272
1661.366533
1662.773953
1659.925594
1652.295242
1650.586915
1663.295833
1670.273248
1675.773604
1677.944921
1676.485618
1685.826684
1692.298021
1700.565029
1712.209907
1720.137138
1729.132008
1746.48758
1756.870999
1772.33504
1789.638402
1798.410337
1824.694467
1861.530193
1861.618512
1888.959399
1912.374503
1940.123672
1977.526161
2003.249605
2049.923132
2093.695409
2127.776758
2180.202203
2228.165317
2284.174626
2352.272543
2407.653951
2489.299649
2573.179191
2635.922598
2740.162422
2828.488565
2918.802035
3017.472854
3112.30574
3223.781507
3286.582795
3380.666732
3450.091869
3515.258378
3565.66992
3603.681681
3629.514652
3633.569408
3670.678292
3711.855823
3746.333111
3772.896364
3793.080235
3810.201768
3824.001177
3834.95858
3843.564363
3850.314293
3855.282185
3857.190637
2410.540392
2400.931603
2383.718947
2369.976629
2362.776987
2347.402096
2328.448296
2311.332278
2302.990376
2283.988357
2259.243824
2235.052676
2225.030493
2206.315444
2179.483296
2155.150618
2143.529569
2124.989136
2104.091166
2079.665306
2069.313267
2059.520623
2042.445237
2020.507383
2010.3616
1997.540036
1978.112041
1954.990789
1946.227609
1939.670994
1927.273979
1907.276789
1907.281863
1912.107291
1911.858158
1905.541418
1890.027837
1880.627829
1895.867869
1903.120256
1906.736618
1903.953601
1893.311228
1902.757358
1909.242624
1916.269815
1931.273472
1939.330163
1949.915707
1972.656953
1986.10926
2007.4838
2029.46991
2039.328201
2076.478001
2123.821269
2129.323849
2167.944599
2199.225675
2236.416421
2288.758773
2323.672622
2385.647991
2442.413168
2487.626483
2557.363934
2619.759652
2691.158929
2777.732909
2842.214851
2950.015791
3053.345746
3128.173282
3254.888193
3360.325814
3467.223826
3583.358658
3696.289635
3822.87129
3892.551875
3998.67665
4074.426249
4143.585962
4197.306936
4238.63798
4267.578165
4271.303811
4310.079382
4354.463096
4392.516683
4422.944532
4446.423798
4465.729137
4481.096074
4493.283175
4502.907581
4510.494239
4516.261329
4518.685274
2810.406595
2799.867908
2781.505553
2768.154676
2761.080884
2743.573455
2721.887206
2703.998096
2696.366705
2675.842341
2648.179091
2622.122726
2612.595408
2592.30084
2561.913263
2534.532672
2522.816948
2502.953971
2479.144001
2451.75948
2441.734424
2431.609619
2412.109355
2386.260143
2376.077309
2362.603232
2339.5799
2311.859266
2301.438141
2294.503803
2279.5451
2254.150683
2254.157983
2260.909909
2260.546464
2252.827282
2232.987177
2218.831486
2238.876604
2247.987428
2251.082279
2245.705625
2229.255167
2241.32857
2249.286903
2255.367064
2274.069699
2282.789169
2294.862142
2323.440819
2339.880469
2367.736123
2394.375456
2404.446725
2452.237241
2509.671785
2523.389087
2574.042237
2612.068864
2658.098999
2724.141461
2763.110526
2837.429205
2904.927962
2958.710902
3043.342805
3118.693182
3203.368532
3305.947797
3377.9853
3500.096459
3618.865587
3703.342182
3845.129019
3961.71691
4078.139115
4202.982499
4326.102039
4459.340777
4533.426869
4642.254273
4720.619522
4790.758841
4845.25139
4887.991973
4918.546753
4925.36161
4960.601352
5002.62389
5039.624558
5069.644451
5093.505485
5113.467302
5129.423233
5142.135676
5152.279513
5160.394887
5166.811011
5170.134984
3247.557292
3236.360998
3217.29573
3204.719515
3197.9123
3178.364622
3154.006185
3135.593452
3128.906775
3106.881542
3076.655288
3049.288042
3040.682838
3019.610279
2985.879811
2956.00046
2944.382469
2923.958108
2897.800047
2868.296156
2859.074103
2849.60721
2829.029762
2800.619496
2791.144241
2778.63914
2754.74665
2724.160957
2712.85969
2706.633058
2690.808995
2662.219749
2663.20966
2672.826998
2673.672558
2665.802961
2644.272012
2627.161998
2653.125091
2665.924686
2669.888826
2663.582363
2644.198669
2660.334691
2671.751819
2678.470171
2701.210408
2711.96857
2726.14471
2760.729507
2780.758774
2815.558576
2847.326946
2857.891351
2914.738591
2980.861018
3013.135101
3077.158047
3122.384397
3176.306753
3255.249808
3287.819785
3368.545807
3444.618287
3503.353373
3598.958339
3684.034908
3777.670253
3891.510904
3968.548508
4095.693117
4222.670637
4312.391744
4459.850202
4579.701569
4698.63209
4824.736848
4942.810431
5065.982117
5140.361302
5237.302966
5311.081193
5376.337205
5427.206901
5467.639587
5496.562091
5506.565795
5536.646759
5573.685442
5606.802948
5633.724551
5655.637204
5674.542058
5689.971332
5702.467502
5712.598052
5720.838711
5727.569797
5731.576232
3715.520509
3704.20334
3685.129905
3673.770017
3667.375806
3646.226528
3619.644532
3600.983347
3595.40582
3573.366565
3541.215274
3512.805177
3505.307347
3484.082324
3447.306595
3415.337108
3403.761077
3383.115629
3355.30083
3323.741763
3315.631275
3307.245526
3286.597309
3256.028675
3247.300168
3235.843755
3212.486941
3179.83874
3168.266303
3163.183702
3147.304638
3116.317454
3118.606573
3131.363299
3134.21447
3126.903725
3104.857233
3085.402619
3117.27679
3135.054153
3141.023704
3134.795739
3113.55312
3133.819451
3150.092964
3158.726212
3185.539994
3199.253295
3215.812849
3256.255315
3280.108973
3321.75795
3359.003076
3370.693146
3434.055705
3505.469211
3567.151046
3641.283702
3694.033266
3752.872012
3843.481646
3859.600376
3943.044262
4025.020929
4085.472065
4186.253186
4276.638717
4374.11524
4492.528375
4571.385954
4695.943187
4819.725649
4906.346677
5044.166477
5151.382573
5264.521172
5374.366775
5481.060689
5592.045875
5660.295721
5744.752736
5810.135425
5868.447942
5915.118126
5951.155442
5977.30932
5988.932895
6016.122579
6047.349956
6075.330137
6098.389354
6117.700901
6134.655389
6148.762815
6160.403893
6170.010122
6177.950017
6184.6191
6188.778657
4200.933983
4190.131368
4171.935471
4162.196222
4156.394692
4134.587945
4106.87127
4088.489948
4084.092641
4062.814788
4029.954492
4001.174663
3994.860176
3974.238098
3935.63866
3902.34657
3890.924097
3870.438113
3842.276177
3809.282189
3802.480225
3795.666897
3776.011649
3744.187862
3736.101571
3726.950623
3704.988866
3671.624339
3660.489607
3656.569897
3641.312416
3608.518758
3611.994503
3627.65851
3632.836076
3626.59006
3604.598456
3583.546701
3619.861854
3643.019974
3651.906093
3646.469606
3623.918679
3647.256706
3668.603896
3679.85395
3710.187065
3726.955618
3745.59043
3790.846508
3817.844682
3864.963529
3906.901764
3920.441195
3986.128296
4058.864979
4088.428069
4162.090309
4219.888942
4280.857305
4378.790939
4437.390835
4527.726681
4612.403527
4672.152044
4767.725382
4854.343362
4945.466283
5053.381847
5127.990195
5238.514317
5348.375515
5428.277867
5548.403609
5642.717953
5742.616772
5837.076944
5930.56665
6026.14023
6087.345208
6160.275681
6216.987764
6268.296435
6310.117552
6341.609803
6365.195661
6377.204055
6401.571016
6428.326391
6451.656033
6471.200477
6487.753988
6502.472997
6514.91171
6525.343055
6534.097283
6541.424151
6547.744765
6551.773229
4658.68402
4649.801985
4634.75552
4627.816117
4623.242134
4603.496554
4578.04115
4562.003243
4559.180589
4541.124788
4511.645171
4485.723998
4481.183923
4463.314502
4428.284779
4397.215188
4386.948471
4368.852575
4342.564041
4309.692203
4303.887476
4299.130597
4281.584501
4250.021389
4242.7066
4235.892627
4215.420669
4184.666384
4173.719531
4171.109182
4157.176236
4123.831805
4128.182327
4145.938646
4153.433362
4148.633336
4127.579901
4106.190705
4144.446359
4172.145751
4184.437799
4180.39987
4157.799558
4182.425246
4207.696866
4221.754652
4254.372229
4273.714089
4293.801213
4341.815093
4370.750679
4420.807493
4465.624487
4481.592697
4545.504974
4615.400067
4645.142417
4712.224908
4767.603807
4825.244025
4917.431042
4975.897348
5065.516211
5144.22935
5200.474914
5284.178218
5364.182679
5444.094771
5535.953332
5606.759844
5700.981719
5792.013311
5865.943635
5965.867795
6049.445064
6133.492647
6214.876447
6295.68726
6376.548157