/*--------------------------------*- C++ -*----------------------------------*\
| =========                 |                                                 |
| \\      /  F ield         | OpenFOAM: The Open Source CFD Toolbox           |
|  \\    /   O peration     | Version:  v1706                                 |
|   \\  /    A nd           | Web:      www.OpenFOAM.com                      |
|    \\/     M anipulation  |                                                 |
\*---------------------------------------------------------------------------*/
FoamFile
{
    version     2.0;
    format      ascii;
    class       volVectorField;
    location    "0.0025";
    object      U;
}
// * * * * * * * * * * * * * * * * * * * * * * * * * * * * * * * * * * * * * //

dimensions      [0 1 -1 0 0 0 0];


internalField   nonuniform List<vector> 
11682
(
(11310 -3.694332496e-09 6.30864285e-09)
(11310 -1.834530904e-09 2.190092003e-09)
(11310 7.904513624e-10 1.344269344e-09)
(11310 7.749440887e-10 9.316552135e-10)
(11310 -3.105739327e-10 9.008562326e-10)
(11310 3.484719664e-10 -5.023019111e-10)
(11310 2.008846989e-10 -5.984190203e-10)
(11310 3.146788233e-12 -5.319780795e-10)
(11310 -2.003399688e-10 -4.338577154e-10)
(11310 -3.023779475e-10 -3.008815444e-10)
(11310 -3.474238691e-10 -1.588945506e-10)
(11310 -3.419965597e-10 -5.26371819e-11)
(11310 -3.202477358e-10 6.007771867e-11)
(11310 -2.603377626e-10 1.482626143e-10)
(11310 -1.833603046e-10 2.072155108e-10)
(11310 -1.109299288e-10 2.275289495e-10)
(11310 -3.309744826e-11 2.441768818e-10)
(11310 4.348526583e-11 2.304594052e-10)
(11310 1.094535232e-10 1.931318095e-10)
(11310 1.523397324e-10 1.451476263e-10)
(11310 1.835487272e-10 9.147740685e-11)
(11310 1.95630792e-10 2.808664141e-11)
(11310 1.855861353e-10 -3.940920761e-11)
(11310 1.515350347e-10 -8.657795677e-11)
(11310 1.154052599e-10 -1.292149719e-10)
(11310 6.214707895e-11 -1.589812472e-10)
(11310 -3.216603857e-12 -1.585630095e-10)
(11310 -5.473739267e-11 -1.322785185e-10)
(11310 -9.785567847e-11 -1.020714279e-10)
(11310 -1.266492917e-10 -5.990346126e-11)
(11310 -1.32148133e-10 7.323541863e-13)
(11310 -1.103094177e-10 5.206815975e-11)
(11310 -8.301037858e-11 9.374574356e-11)
(11310 -3.843918474e-11 1.233792538e-10)
(11310 1.908294145e-11 1.232138449e-10)
(11310 6.767327184e-11 1.009638531e-10)
(11310 9.734235243e-11 5.977728184e-11)
(11310 1.052363507e-10 1.650518131e-11)
(11310 1.082092761e-10 -2.969904688e-11)
(11310 8.061837151e-11 -7.595775379e-11)
(11310 3.2841586e-11 -1.000992985e-10)
(11310 -1.667310972e-11 -1.020930634e-10)
(11310 -5.383951236e-11 -7.8709007e-11)
(11310 -8.405587542e-11 -4.853818325e-11)
(11310 -9.841993095e-11 -2.976132935e-12)
(11310 -8.491687621e-11 4.326656497e-11)
(11310 -5.30099834e-11 7.867580318e-11)
(11310 -3.711819761e-12 8.902968929e-11)
(11310 3.865818088e-11 7.892764061e-11)
(11310 7.559380068e-11 4.953174416e-11)
(11310 8.45424325e-11 3.126065479e-12)
(11310 7.410778523e-11 -3.9425938e-11)
(11310 4.164232092e-11 -7.158310567e-11)
(11310 -4.982249964e-12 -8.118190085e-11)
(11310 -5.013358684e-11 -6.651753374e-11)
(11310 -7.400534765e-11 -3.158943575e-11)
(11310 -7.709788123e-11 1.095265805e-11)
(11310 -5.552960866e-11 5.300265531e-11)
(11310 -1.788864671e-11 7.275614387e-11)
(11310 2.230330172e-11 7.247517954e-11)
(11310 5.696286797e-11 4.643002852e-11)
(11310 7.333731227e-11 5.465978867e-12)
(11310 6.26939546e-11 -3.824149014e-11)
(11310 3.015541137e-11 -6.324036162e-11)
(11310 -1.141838477e-11 -6.813383325e-11)
(11310 -4.895112988e-11 -4.470002411e-11)
(11310 -6.63658934e-11 -1.039626433e-11)
(11310 -5.755227165e-11 3.177150204e-11)
(11310 -2.883142974e-11 6.073086579e-11)
(11310 1.269908381e-11 6.514104503e-11)
(11310 4.723990111e-11 4.52019234e-11)
(11310 6.078005303e-11 1.159430267e-11)
(11310 5.424501821e-11 -2.639485218e-11)
(11310 2.232185706e-11 -5.347738273e-11)
(11310 -1.31861125e-11 -5.862963641e-11)
(11310 -5.002907139e-11 -3.971059144e-11)
(11310 -6.36890513e-11 -6.647436483e-12)
(11310 -5.136550482e-11 3.062989481e-11)
(11310 -2.255314444e-11 5.225813001e-11)
(11310 6.926752239e-12 6.179307795e-11)
(11310 3.657452134e-11 5.055091237e-11)
(11310 4.994588173e-11 2.863941163e-11)
(11310 5.230534724e-11 5.566329377e-12)
(11310 5.022397176e-11 -1.628760323e-11)
(11310 4.77488241e-11 -3.345183361e-11)
(11310 3.851842766e-11 -4.480373372e-11)
(11310 3.321807277e-11 -5.336012954e-11)
(11310 2.241387269e-11 -5.653414043e-11)
(11310 7.922995974e-12 -5.684060893e-11)
(11310 -6.474805567e-12 -5.650171203e-11)
(11310 -1.727434206e-11 -5.442140618e-11)
(11310 -2.904975519e-11 -4.861379566e-11)
(11310 -3.552058643e-11 -4.343461493e-11)
(11310 -4.097627125e-11 -3.874099306e-11)
(11310 -4.539860674e-11 -2.998746444e-11)
(11310 -4.867675254e-11 -2.227762576e-11)
(11310 -5.195611697e-11 -1.883851525e-11)
(11310 -5.687718903e-11 -1.553566991e-11)
(11310 -5.655065953e-11 -1.164591579e-11)
(11310 -4.146474043e-09 -1.40944325e-08)
(11310 -2.350049801e-09 -6.003726073e-09)
(11310 -3.399454345e-09 3.668302988e-10)
(11310 -2.525080641e-09 5.987538149e-10)
(11310 -1.226457085e-09 -1.680219998e-09)
(11310 -1.18803758e-09 -6.997364159e-10)
(11310 -1.314933432e-09 1.827681467e-10)
(11310 -1.067525001e-09 5.129030525e-10)
(11310 -6.708858561e-10 7.95659737e-10)
(11310 -3.129269631e-10 8.861423549e-10)
(11310 1.046424606e-11 8.500332793e-10)
(11310 2.186381235e-10 7.42546791e-10)
(11310 4.305070031e-10 5.884440881e-10)
(11310 5.507618323e-10 3.923881335e-10)
(11310 5.966360102e-10 1.778529118e-10)
(11310 5.750637073e-10 2.075810881e-11)
(11310 5.278868844e-10 -1.54446755e-10)
(11310 4.309037831e-10 -2.938784381e-10)
(11310 2.937230989e-10 -3.904083576e-10)
(11310 1.506718783e-10 -4.278348065e-10)
(11310 1.223310571e-11 -4.46232124e-10)
(11310 -1.246043244e-10 -4.146044446e-10)
(11310 -2.511547692e-10 -3.282399711e-10)
(11310 -3.192316527e-10 -2.172500273e-10)
(11310 -3.685150998e-10 -9.659037692e-11)
(11310 -3.741382795e-10 3.961194517e-11)
(11310 -3.183180029e-10 1.711849801e-10)
(11310 -2.258797638e-10 2.475067125e-10)
(11310 -1.191162459e-10 3.018628691e-10)
(11310 1.939966893e-12 3.235425552e-10)
(11310 1.298713168e-10 2.865411433e-10)
(11310 2.095011554e-10 1.977432082e-10)
(11310 2.649716235e-10 9.027134972e-11)
(11310 2.805574956e-10 -3.252090284e-11)
(11310 2.321034254e-10 -1.480590969e-10)
(11310 1.437625191e-10 -2.269173827e-10)
(11310 3.186229262e-11 -2.536944983e-10)
(11310 -6.399625046e-11 -2.268606086e-10)
(11310 -1.61413336e-10 -1.855418879e-10)
(11310 -2.30171837e-10 -8.592294101e-11)
(11310 -2.394418841e-10 2.711992659e-11)
(11310 -1.927607517e-10 1.287264137e-10)
(11310 -1.114288476e-10 1.85489337e-10)
(11310 -1.640382635e-11 2.175521647e-10)
(11310 8.701889392e-11 1.998472755e-10)
(11310 1.680138122e-10 1.280510061e-10)
(11310 2.060784847e-10 2.953205068e-11)
(11310 1.859734223e-10 -7.382885674e-11)
(11310 1.234554329e-10 -1.516540677e-10)
(11310 2.852908055e-11 -1.919530846e-10)
(11310 -7.307136969e-11 -1.750107174e-10)
(11310 -1.55205186e-10 -1.094554273e-10)
(11310 -1.89591614e-10 -1.716695524e-11)
(11310 -1.630509499e-10 8.023623706e-11)
(11310 -8.635247426e-11 1.566761036e-10)
(11310 1.255498418e-11 1.786940186e-10)
(11310 1.04915061e-10 1.482865263e-10)
(11310 1.642689979e-10 6.983595385e-11)
(11310 1.645695394e-10 -2.833960143e-11)
(11310 1.176561284e-10 -1.149033647e-10)
(11310 3.454610347e-11 -1.598752697e-10)
(11310 -5.969514749e-11 -1.531812869e-10)
(11310 -1.352078482e-10 -8.669061979e-11)
(11310 -1.576531086e-10 3.127425768e-12)
(11310 -1.313157921e-10 9.212197107e-11)
(11310 -4.685819622e-11 1.475012049e-10)
(11310 4.5614876e-11 1.485746475e-10)
(11310 1.220724528e-10 9.421481507e-11)
(11310 1.448424936e-10 5.680611087e-12)
(11310 1.222335193e-10 -8.313305493e-11)
(11310 4.160387309e-11 -1.30421207e-10)
(11310 -4.024917726e-11 -1.330696014e-10)
(11310 -1.155497108e-10 -9.078401815e-11)
(11310 -1.353378734e-10 -2.772935717e-12)
(11310 -1.029137819e-10 7.716615856e-11)
(11310 -2.510501405e-11 1.273823455e-10)
(11310 5.579471213e-11 1.304374811e-10)
(11310 1.163248936e-10 7.530584136e-11)
(11310 1.262458801e-10 6.673688395e-12)
(11310 1.085280767e-10 -6.452173627e-11)
(11310 4.013453533e-11 -1.11209277e-10)
(11310 -2.379742668e-12 -1.300025783e-10)
(11310 -4.266495975e-11 -1.255493567e-10)
(11310 -7.555735553e-11 -1.020882783e-10)
(11310 -9.840992725e-11 -6.97096826e-11)
(11310 -1.09730893e-10 -3.300578477e-11)
(11310 -1.220693732e-10 -7.340895058e-12)
(11310 -1.331658346e-10 3.005573901e-11)
(11310 -1.258801799e-10 6.191198545e-11)
(11310 -1.144598086e-10 8.815435596e-11)
(11310 -9.443873329e-11 1.066491504e-10)
(11310 -6.469772811e-11 1.180952268e-10)
(11310 -4.14342407e-11 1.31602531e-10)
(11310 -2.65917835e-11 1.409451212e-10)
(11310 -1.498376794e-11 1.400227189e-10)
(11310 -4.32299081e-12 1.373384471e-10)
(11310 1.120369965e-11 1.361759343e-10)
(11310 2.203207485e-11 1.401579385e-10)
(11310 3.461972632e-11 1.353831071e-10)
(11310 2.93264799e-08 -1.180823361e-08)
(11310 1.035772762e-08 -3.849263734e-09)
(11310 5.671251266e-11 -5.659890992e-09)
(11310 -7.088590895e-10 -4.093670894e-09)
(11310 2.354636713e-09 -2.142383357e-09)
(11310 -2.992751568e-10 2.572603149e-09)
(11310 3.522818337e-10 2.172076279e-09)
(11310 9.096839891e-10 1.663672197e-09)
(11310 1.334003989e-09 1.036547038e-09)
(11310 1.446178694e-09 4.57570995e-10)
(11310 1.359877196e-09 -6.86491054e-11)
(11310 1.18779515e-09 -3.947264024e-10)
(11310 9.05777177e-10 -7.167447358e-10)
(11310 5.785452372e-10 -8.995963746e-10)
(11310 2.484287809e-10 -9.572852144e-10)
(11310 -5.344693137e-12 -9.141422661e-10)
(11310 -2.764389626e-10 -8.267301824e-10)
(11310 -4.926180612e-10 -6.632924934e-10)
(11310 -6.356599998e-10 -4.396484244e-10)
(11310 -6.927654546e-10 -2.260555259e-10)
(11310 -6.93362798e-10 6.706190292e-12)
(11310 -6.345954781e-10 2.279708472e-10)
(11310 -4.93844424e-10 4.186604511e-10)
(11310 -3.117970036e-10 5.216140896e-10)
(11310 -1.090980968e-10 5.902166543e-10)
(11310 1.026967202e-10 5.841716319e-10)
(11310 3.051593879e-10 4.827752804e-10)
(11310 4.24162927e-10 3.303415111e-10)
(11310 5.029407806e-10 1.536712892e-10)
(11310 5.170842583e-10 -3.831040938e-11)
(11310 4.448846158e-10 -2.353467602e-10)
(11310 2.987608895e-10 -3.62264046e-10)
(11310 1.261049493e-10 -4.375533509e-10)
(11310 -6.911704123e-11 -4.457021011e-10)
(11310 -2.463240278e-10 -3.585203168e-10)
(11310 -3.663294489e-10 -2.102231422e-10)
(11310 -4.030310336e-10 -3.221439905e-11)
(11310 -3.628983313e-10 1.220587481e-10)
(11310 -2.81785991e-10 2.719700354e-10)
(11310 -1.178345938e-10 3.697981311e-10)
(11310 7.446120882e-11 3.755681142e-10)
(11310 2.26181259e-10 3.00996811e-10)
(11310 3.037429385e-10 1.703037261e-10)
(11310 3.472172588e-10 9.447591413e-12)
(11310 3.088441793e-10 -1.501960941e-10)
(11310 2.027029911e-10 -2.716320138e-10)
(11310 3.26559835e-11 -3.221940041e-10)
(11310 -1.32033151e-10 -2.897918561e-10)
(11310 -2.555019022e-10 -1.849696054e-10)
(11310 -3.15404196e-10 -2.687865915e-11)
(11310 -2.793790913e-10 1.324576787e-10)
(11310 -1.607383941e-10 2.553917594e-10)
(11310 -5.312530567e-12 2.995511728e-10)
(11310 1.564006632e-10 2.590040928e-10)
(11310 2.662629588e-10 1.374251062e-10)
(11310 2.849332846e-10 -1.534301945e-11)
(11310 2.212397076e-10 -1.614177954e-10)
(11310 8.820379708e-11 -2.508470397e-10)
(11310 -5.257315118e-11 -2.607567161e-10)
(11310 -1.881361368e-10 -1.835556137e-10)
(11310 -2.52211025e-10 -4.312305275e-11)
(11310 -2.386624614e-10 1.053914548e-10)
(11310 -1.227521932e-10 2.30359642e-10)
(11310 2.590008899e-11 2.572586352e-10)
(11310 1.694291492e-10 1.944060835e-10)
(11310 2.464925954e-10 6.433645458e-11)
(11310 2.320350974e-10 -7.872483113e-11)
(11310 1.362925101e-10 -1.933510458e-10)
(11310 -7.543879802e-12 -2.290634728e-10)
(11310 -1.4461558e-10 -1.870028849e-10)
(11310 -2.224602545e-10 -6.273407004e-11)
(11310 -2.15448799e-10 7.196120458e-11)
(11310 -1.253475955e-10 1.87673194e-10)
(11310 2.00657221e-11 2.309022561e-10)
(11310 1.404660633e-10 1.797251024e-10)
(11310 2.141866998e-10 6.09246999e-11)
(11310 1.885485797e-10 -7.439616789e-11)
(11310 9.186508745e-11 -1.708792724e-10)
(11310 -2.366116775e-11 -1.956697966e-10)
(11310 -1.157924469e-10 -1.838829128e-10)
(11310 -1.803024521e-10 -9.465340797e-11)
(11310 -1.878630789e-10 1.293350291e-12)
(11310 -1.722283021e-10 9.117150615e-11)
(11310 -1.393611634e-10 1.518901581e-10)
(11310 -9.753169771e-11 2.0087545e-10)
(11310 -4.48925296e-11 2.241088533e-10)
(11310 -1.013205278e-11 2.232100778e-10)
(11310 3.011857109e-11 2.142117488e-10)
(11310 9.190384246e-11 1.906431885e-10)
(11310 1.41312719e-10 1.606337385e-10)
(11310 1.72100745e-10 1.351521689e-10)
(11310 1.951802996e-10 9.262014921e-11)
(11310 2.041705358e-10 6.785738527e-11)
(11310 2.008933509e-10 3.565968342e-11)
(11310 1.974937089e-10 4.162746671e-12)
(11310 1.991272726e-10 -2.051542201e-11)
(11310 2.033749119e-10 -3.588350533e-11)
(11310 2.046778631e-10 -4.393115414e-11)
(11310 1.97682651e-10 -6.241456452e-11)
(11310 2.275042646e-08 2.981542749e-08)
(11310 5.93422066e-09 1.257794771e-08)
(11310 7.721319569e-09 -6.005536114e-10)
(11310 5.731333478e-09 -1.351973373e-09)
(11310 2.879119292e-09 3.604609014e-09)
(11310 2.680954314e-09 1.400340653e-09)
(11310 2.922450434e-09 -3.97977192e-10)
(11310 2.389631377e-09 -1.119814692e-09)
(11310 1.541724348e-09 -1.741469921e-09)
(11310 7.465848959e-10 -1.933869961e-09)
(11310 2.985478948e-11 -1.849879631e-09)
(11310 -4.418519614e-10 -1.617513297e-09)
(11310 -8.921776359e-10 -1.271578191e-09)
(11310 -1.164309143e-09 -8.480068122e-10)
(11310 -1.26721064e-09 -3.863208024e-10)
(11310 -1.246458479e-09 -4.870089536e-11)
(11310 -1.128651339e-09 3.359610422e-10)
(11310 -9.298007447e-10 6.329979988e-10)
(11310 -6.399363636e-10 8.45761883e-10)
(11310 -3.566220637e-10 9.353187781e-10)
(11310 -2.928340114e-11 9.638764565e-10)
(11310 2.580797783e-10 8.93592813e-10)
(11310 5.24828724e-10 7.130263796e-10)
(11310 6.806861985e-10 4.826283281e-10)
(11310 7.800033931e-10 2.032418073e-10)
(11310 7.790827606e-10 -8.805320081e-11)
(11310 6.626308741e-10 -3.626880748e-10)
(11310 4.750272255e-10 -5.3425041e-10)
(11310 2.367033328e-10 -6.487894187e-10)
(11310 -2.430386391e-11 -6.832684211e-10)
(11310 -2.979638865e-10 -6.099357972e-10)
(11310 -4.70583857e-10 -4.348262714e-10)
(11310 -5.858655645e-10 -1.933348627e-10)
(11310 -6.046517692e-10 7.453828153e-11)
(11310 -5.058290529e-10 3.213474988e-10)
(11310 -3.134429269e-10 4.940512104e-10)
(11310 -7.81050248e-11 5.566569192e-10)
(11310 1.432863081e-10 5.131958821e-10)
(11310 3.603245444e-10 3.899378754e-10)
(11310 4.95056233e-10 1.840764413e-10)
(11310 5.185170072e-10 -5.521346865e-11)
(11310 4.133138037e-10 -2.67837738e-10)
(11310 2.470466362e-10 -3.975446814e-10)
(11310 3.546613627e-11 -4.588523786e-10)
(11310 -1.745117785e-10 -4.159430309e-10)
(11310 -3.467172346e-10 -2.839321527e-10)
(11310 -4.369358869e-10 -5.641838289e-11)
(11310 -4.170619387e-10 1.599955356e-10)
(11310 -2.739884067e-10 3.420738779e-10)
(11310 -5.143751097e-11 4.301801561e-10)
(11310 1.710700737e-10 3.91369776e-10)
(11310 3.486129642e-10 2.430200314e-10)
(11310 3.974143939e-10 3.591455345e-11)
(11310 3.523932526e-10 -1.717227396e-10)
(11310 1.824576924e-10 -3.181703344e-10)
(11310 -1.888122531e-11 -3.683292089e-10)
(11310 -2.120971375e-10 -3.147147991e-10)
(11310 -3.415164235e-10 -1.427084177e-10)
(11310 -3.569249433e-10 5.928631755e-11)
(11310 -2.61742359e-10 2.610279437e-10)
(11310 -7.180985259e-11 3.629862148e-10)
(11310 1.339095156e-10 3.44253781e-10)
(11310 2.916788698e-10 1.966034959e-10)
(11310 3.320505778e-10 -2.849736115e-12)
(11310 2.652150945e-10 -1.921460298e-10)
(11310 9.268424549e-11 -2.909767792e-10)
(11310 -9.402451703e-11 -3.033034237e-10)
(11310 -2.557021094e-10 -1.96847175e-10)
(11310 -3.187267733e-10 -4.928288329e-12)
(11310 -2.768485388e-10 1.837061069e-10)
(11310 -9.151481423e-11 3.098417607e-10)
(11310 1.078922368e-10 3.088801117e-10)
(11310 2.740481397e-10 1.926406091e-10)
(11310 2.963861575e-10 1.189469902e-11)
(11310 2.275337646e-10 -1.645085965e-10)
(11310 7.804585374e-11 -2.674293202e-10)
(11310 -9.896103474e-11 -2.640863235e-10)
(11310 -2.330521635e-10 -1.531716287e-10)
(11310 -2.699851383e-10 -7.229643652e-12)
(11310 -2.301139785e-10 1.4555002e-10)
(11310 -1.029525997e-10 2.723286514e-10)
(11310 5.725551116e-12 3.204635994e-10)
(11310 1.045606233e-10 2.97850922e-10)
(11310 1.742800917e-10 2.294001444e-10)
(11310 2.268538653e-10 1.543412973e-10)
(11310 2.51015329e-10 7.277152845e-11)
(11310 2.514620561e-10 9.315886328e-12)
(11310 2.664010473e-10 -5.890149618e-11)
(11310 2.607885131e-10 -1.262416645e-10)
(11310 2.21696876e-10 -1.6837883e-10)
(11310 1.707265163e-10 -2.029355177e-10)
(11310 1.184246881e-10 -2.2430928e-10)
(11310 7.150345979e-11 -2.35103136e-10)
(11310 4.566174699e-11 -2.54815217e-10)
(11310 2.587255515e-11 -2.581621823e-10)
(11310 -4.973103755e-12 -2.602134145e-10)
(11310 -2.309844853e-11 -2.597724632e-10)
(11310 -4.269717532e-11 -2.55227674e-10)
(11310 -5.281716555e-11 -2.57772032e-10)
(11310 -3.165209227e-08 2.554254035e-08)
(11310 -1.408596993e-08 8.500502839e-09)
(11310 2.042578404e-09 9.074941565e-09)
(11310 2.598759443e-09 6.833082319e-09)
(11310 -3.247670258e-09 4.2464863e-09)
(11310 1.134569953e-09 -3.970783176e-09)
(11310 3.594722378e-11 -3.768389593e-09)
(11310 -1.028812138e-09 -3.049757563e-09)
(11310 -1.948598419e-09 -2.07646797e-09)
(11310 -2.262035748e-09 -1.131238281e-09)
(11310 -2.250655282e-09 -2.323169127e-10)
(11310 -2.050655438e-09 3.512657306e-10)
(11310 -1.66306261e-09 9.587792975e-10)
(11310 -1.183090478e-09 1.338138665e-09)
(11310 -6.307728481e-10 1.530540864e-09)
(11310 -2.010886416e-10 1.531754982e-09)
(11310 2.895546401e-10 1.443983172e-09)
(11310 6.783611689e-10 1.23024959e-09)
(11310 9.860580181e-10 8.977764964e-10)
(11310 1.133359655e-09 5.612120845e-10)
(11310 1.199409415e-09 1.663432997e-10)
(11310 1.143939581e-09 -2.163647649e-10)
(11310 9.537779934e-10 -5.664690219e-10)
(11310 6.991462344e-10 -7.910394607e-10)
(11310 3.664237875e-10 -9.430058979e-10)
(11310 5.146070292e-12 -9.771086652e-10)
(11310 -3.438341709e-10 -8.728441626e-10)
(11310 -5.868933911e-10 -6.705770807e-10)
(11310 -7.664953115e-10 -3.814113296e-10)
(11310 -8.388554194e-10 -5.850232307e-11)
(11310 -7.711262299e-10 2.778026397e-10)
(11310 -5.77134733e-10 5.384831212e-10)
(11310 -3.092382306e-10 7.123875216e-10)
(11310 2.963194943e-11 7.589000164e-10)
(11310 3.382745239e-10 6.647969678e-10)
(11310 5.730909329e-10 4.529443531e-10)
(11310 6.716134855e-10 1.684044764e-10)
(11310 6.612545693e-10 -1.013765261e-10)
(11310 5.211498484e-10 -3.741089706e-10)
(11310 2.84497443e-10 -5.57208785e-10)
(11310 -4.659754666e-12 -6.167926017e-10)
(11310 -2.700441917e-10 -5.450149391e-10)
(11310 -4.607554516e-10 -3.727221466e-10)
(11310 -5.750135103e-10 -1.047511772e-10)
(11310 -5.531561675e-10 1.78642297e-10)
(11310 -4.166463268e-10 4.131621984e-10)
(11310 -1.247112622e-10 5.533855344e-10)
(11310 1.487230781e-10 5.354207865e-10)
(11310 3.929943826e-10 3.818785219e-10)
(11310 5.193575835e-10 1.278746438e-10)
(11310 4.923151558e-10 -1.462132483e-10)
(11310 3.279815904e-10 -3.6036701e-10)
(11310 7.684539863e-11 -4.655035459e-10)
(11310 -1.720859531e-10 -4.603226959e-10)
(11310 -3.910965679e-10 -2.80331448e-10)
(11310 -4.823180536e-10 -4.960453789e-11)
(11310 -4.290716574e-10 2.165862519e-10)
(11310 -2.179413987e-10 4.19975358e-10)
(11310 3.99653996e-11 4.76241373e-10)
(11310 2.932490428e-10 3.71401122e-10)
(11310 4.164545731e-10 1.371856595e-10)
(11310 4.165954557e-10 -1.137200674e-10)
(11310 2.56139663e-10 -3.130926356e-10)
(11310 3.400931688e-11 -3.947961637e-10)
(11310 -2.002181997e-10 -3.539811071e-10)
(11310 -3.666783249e-10 -1.629089284e-10)
(11310 -4.148059724e-10 7.046755723e-11)
(11310 -2.811626594e-10 3.119433517e-10)
(11310 -3.155494054e-11 4.245085989e-10)
(11310 2.144858132e-10 3.673770004e-10)
(11310 3.708460075e-10 1.691744105e-10)
(11310 3.541378339e-10 -5.931576364e-11)
(11310 2.345990374e-10 -2.526664615e-10)
(11310 1.570660078e-11 -3.378225236e-10)
(11310 -1.879282799e-10 -3.081896039e-10)
(11310 -3.35272472e-10 -1.479553669e-10)
(11310 -3.61102268e-10 8.9754042e-11)
(11310 -2.280712668e-10 2.978179404e-10)
(11310 -1.625886374e-11 3.798926138e-10)
(11310 1.769652723e-10 3.515638e-10)
(11310 2.99265712e-10 2.222352357e-10)
(11310 3.116716493e-10 5.321619878e-11)
(11310 3.000326298e-10 -9.394659833e-11)
(11310 2.528688703e-10 -1.95335666e-10)
(11310 1.967948345e-10 -2.654422904e-10)
(11310 1.203339144e-10 -3.012670898e-10)
(11310 6.166901139e-11 -3.100162262e-10)
(11310 1.895645341e-11 -3.244448775e-10)
(11310 -7.199132829e-11 -3.072786416e-10)
(11310 -1.554931286e-10 -2.684996274e-10)
(11310 -2.138613797e-10 -2.239551223e-10)
(11310 -2.515215028e-10 -1.748197e-10)
(11310 -2.843559243e-10 -1.390150413e-10)
(11310 -2.963630861e-10 -1.121670841e-10)
(11310 -3.278233508e-10 -6.045277523e-11)
(11310 -3.352209195e-10 -2.813610495e-11)
(11310 -3.330776499e-10 -6.838816725e-14)
(11310 -3.345824892e-10 3.871084763e-11)
(11310 -3.400457472e-10 5.87536026e-11)
(11310 -1.931782374e-08 -3.781412142e-08)
(11310 -1.098466945e-08 -1.610666627e-08)
(11310 -1.050683284e-08 3.153086563e-09)
(11310 -7.045035169e-09 3.7807011e-09)
(11310 -4.8335799e-09 -3.962697402e-09)
(11310 -3.67412957e-09 -2.981746335e-09)
(11310 -4.177067067e-09 -4.34011953e-10)
(11310 -3.639280117e-09 7.784028741e-10)
(11310 -2.621937359e-09 1.92505645e-09)
(11310 -1.607444455e-09 2.457494619e-09)
(11310 -5.872604405e-10 2.602392449e-09)
(11310 1.130250667e-10 2.449053504e-09)
(11310 8.891882479e-10 2.104594136e-09)
(11310 1.393901344e-09 1.613560926e-09)
(11310 1.700885945e-09 9.967908711e-10)
(11310 1.790059508e-09 5.043168072e-10)
(11310 1.738377578e-09 -9.068569923e-11)
(11310 1.551084948e-09 -5.749969281e-10)
(11310 1.204919097e-09 -9.798879532e-10)
(11310 8.191701157e-10 -1.209987405e-09)
(11310 3.670576519e-10 -1.350100392e-09)
(11310 -7.20863899e-11 -1.351710215e-09)
(11310 -5.21799881e-10 -1.189017921e-09)
(11310 -8.164911258e-10 -9.263948393e-10)
(11310 -1.059505996e-09 -5.482651803e-10)
(11310 -1.151850819e-09 -1.426057967e-10)
(11310 -1.082429295e-09 2.744305532e-10)
(11310 -8.870774214e-10 6.091342188e-10)
(11310 -5.935695911e-10 8.68848392e-10)
(11310 -2.162612363e-10 1.000546643e-09)
(11310 1.958644722e-10 9.760316947e-10)
(11310 5.320554549e-10 7.99045718e-10)
(11310 7.662753266e-10 4.801706998e-10)
(11310 8.754114395e-10 9.554937997e-11)
(11310 8.106624107e-10 -2.698459861e-10)
(11310 6.122177439e-10 -5.713542132e-10)
(11310 3.06622593e-10 -7.370445543e-10)
(11310 2.673842589e-13 -7.676735019e-10)
(11310 -3.619389705e-10 -6.47066278e-10)
(11310 -6.164519454e-10 -4.244199803e-10)
(11310 -7.455114229e-10 -1.066732078e-10)
(11310 -6.896384367e-10 2.305747333e-10)
(11310 -5.158537136e-10 4.975499223e-10)
(11310 -2.186933422e-10 6.730678129e-10)
(11310 1.187903053e-10 6.821495618e-10)
(11310 4.182800382e-10 5.454843179e-10)
(11310 6.232746704e-10 2.352890076e-10)
(11310 6.356187623e-10 -7.986850535e-11)
(11310 4.913777151e-10 -3.679665915e-10)
(11310 2.208286379e-10 -5.424733025e-10)
(11310 -7.905006878e-11 -5.781953907e-10)
(11310 -3.696472223e-10 -4.396186362e-10)
(11310 -5.47176117e-10 -1.880200584e-10)
(11310 -5.80243322e-10 1.086385686e-10)
(11310 -3.948760664e-10 4.163283998e-10)
(11310 -1.214291812e-10 5.726066218e-10)
(11310 2.090318894e-10 5.572285148e-10)
(11310 4.52954062e-10 3.291256469e-10)
(11310 5.400656568e-10 3.99307644e-11)
(11310 4.43742288e-10 -2.496846758e-10)
(11310 2.054605539e-10 -4.309718027e-10)
(11310 -5.795581769e-11 -4.905443928e-10)
(11310 -3.271483632e-10 -3.502637172e-10)
(11310 -4.850564214e-10 -1.168695537e-10)
(11310 -4.867842554e-10 1.832541665e-10)
(11310 -2.62498576e-10 4.317265225e-10)
(11310 2.495844495e-11 5.183880027e-10)
(11310 3.375151716e-10 3.837730633e-10)
(11310 4.587292991e-10 1.261546998e-10)
(11310 4.258526588e-10 -1.584314953e-10)
(11310 2.252551231e-10 -3.440204854e-10)
(11310 -3.249056698e-11 -4.015406108e-10)
(11310 -2.720700961e-10 -3.281983446e-10)
(11310 -4.137426043e-10 -1.258578803e-10)
(11310 -3.960457635e-10 1.636878107e-10)
(11310 -2.048570165e-10 3.974122858e-10)
(11310 1.027971753e-10 4.616174514e-10)
(11310 3.415544208e-10 3.214747392e-10)
(11310 3.904373031e-10 9.75237954e-11)
(11310 3.481058049e-10 -1.055058807e-10)
(11310 2.169472348e-10 -2.717264395e-10)
(11310 6.799827063e-11 -3.603924127e-10)
(11310 -4.662716625e-11 -3.758331352e-10)
(11310 -1.551529791e-10 -3.345599232e-10)
(11310 -2.48409745e-10 -2.645362199e-10)
(11310 -3.122220088e-10 -1.755504201e-10)
(11310 -3.673828604e-10 -1.197246451e-10)
(11310 -3.875896461e-10 -4.21953153e-12)
(11310 -4.102161521e-10 1.118319429e-10)
(11310 -3.858220619e-10 1.930782951e-10)
(11310 -3.259201284e-10 2.733919789e-10)
(11310 -2.716037654e-10 3.382598976e-10)
(11310 -2.307450286e-10 3.942538945e-10)
(11310 -1.776448324e-10 4.556439403e-10)
(11310 -1.469080691e-10 4.730050204e-10)
(11310 -6.896158203e-11 4.50046681e-10)
(11310 -1.428769921e-11 4.486772826e-10)
(11310 1.187635056e-11 4.550142545e-10)
(11310 2.932979725e-11 4.656127392e-10)
(11310 5.367353733e-08 -3.802082888e-08)
(11310 1.956088991e-08 -1.810471938e-08)
(11310 -5.21020996e-09 -1.17075603e-08)
(11310 -5.196477751e-09 -7.514165177e-09)
(11310 3.04939792e-09 -6.959158771e-09)
(11310 -2.494658591e-09 4.575983998e-09)
(11310 -1.217356992e-09 4.781567602e-09)
(11310 2.477477528e-10 4.22250051e-09)
(11310 1.709721677e-09 3.354621089e-09)
(11310 2.502327236e-09 2.329369276e-09)
(11310 2.84609254e-09 1.175294412e-09)
(11310 2.835236225e-09 3.424873233e-10)
(11310 2.542839265e-09 -5.872748581e-10)
(11310 2.076703232e-09 -1.268438154e-09)
(11310 1.440415371e-09 -1.728462428e-09)
(11310 9.225582592e-10 -1.901398786e-09)
(11310 2.270971382e-10 -1.968498943e-09)
(11310 -3.490195511e-10 -1.834135772e-09)
(11310 -8.599017542e-10 -1.523452378e-09)
(11310 -1.188400731e-09 -1.158267458e-09)
(11310 -1.427238181e-09 -6.692156642e-10)
(11310 -1.49977224e-09 -1.558594967e-10)
(11310 -1.406509499e-09 3.597032234e-10)
(11310 -1.156200847e-09 7.582928976e-10)
(11310 -7.766383617e-10 1.096459479e-09)
(11310 -3.178907341e-10 1.280183612e-09)
(11310 1.513587856e-10 1.282302854e-09)
(11310 5.364962047e-10 1.119823456e-09)
(11310 8.883477658e-10 7.88867115e-10)
(11310 1.107639337e-09 3.889431938e-10)
(11310 1.136933841e-09 -5.47822336e-11)
(11310 9.878887602e-10 -4.40728023e-10)
(11310 6.795651849e-10 -7.611666063e-10)
(11310 2.707363907e-10 -9.428359992e-10)
(11310 -1.39545072e-10 -9.46743482e-10)
(11310 -5.007722086e-10 -7.900390002e-10)
(11310 -7.567272119e-10 -4.821764009e-10)
(11310 -8.81187203e-10 -1.470559759e-10)
(11310 -8.301533702e-10 2.907007515e-10)
(11310 -6.01387998e-10 6.244720213e-10)
(11310 -2.497676611e-10 8.302573613e-10)
(11310 1.534303742e-10 8.41173139e-10)
(11310 4.727689721e-10 6.968335613e-10)
(11310 7.091676357e-10 3.679877811e-10)
(11310 7.631043836e-10 -8.374209736e-12)
(11310 6.773555053e-10 -3.472437303e-10)
(11310 3.683090803e-10 -6.014517288e-10)
(11310 3.24496761e-11 -6.846465942e-10)
(11310 -3.194474456e-10 -6.038673058e-10)
(11310 -5.821546522e-10 -3.622310882e-10)
(11310 -6.733096939e-10 -2.26650255e-11)
(11310 -5.857354016e-10 3.532452666e-10)
(11310 -3.1732075e-10 6.200057632e-10)
(11310 3.89791067e-11 6.998036794e-10)
(11310 4.283053484e-10 5.321787756e-10)
(11310 6.132803306e-10 2.575578496e-10)
(11310 6.197788554e-10 -9.831914079e-11)
(11310 4.119898351e-10 -4.036954515e-10)
(11310 1.559407583e-10 -5.519270461e-10)
(11310 -1.787903683e-10 -5.295076016e-10)
(11310 -4.401763363e-10 -3.236832774e-10)
(11310 -5.82977145e-10 -4.378798961e-11)
(11310 -4.75811572e-10 3.194225838e-10)
(11310 -2.059984329e-10 5.601930798e-10)
(11310 1.462765783e-10 5.997548226e-10)
(11310 4.622274711e-10 3.661881626e-10)
(11310 5.561589023e-10 6.180381761e-11)
(11310 4.514270084e-10 -2.625330112e-10)
(11310 1.895369459e-10 -4.202378569e-10)
(11310 -8.643710295e-11 -4.595183832e-10)
(11310 -3.564776264e-10 -3.280647251e-10)
(11310 -4.886187853e-10 -6.260005857e-11)
(11310 -4.652435958e-10 2.516250084e-10)
(11310 -1.888453681e-10 4.959290551e-10)
(11310 1.474430741e-10 5.43695133e-10)
(11310 4.053410799e-10 3.323698739e-10)
(11310 4.745913615e-10 1.848262007e-11)
(11310 3.44823552e-10 -2.422923877e-10)
(11310 1.163073011e-10 -3.693061588e-10)
(11310 -6.65617981e-11 -3.913543474e-10)
(11310 -2.541639467e-10 -3.453121745e-10)
(11310 -3.778302146e-10 -2.039486059e-10)
(11310 -4.129868393e-10 -5.621221394e-12)
(11310 -4.128881786e-10 1.578682905e-10)
(11310 -3.776271345e-10 3.145374817e-10)
(11310 -2.974020318e-10 4.194915486e-10)
(11310 -2.244990259e-10 4.90586511e-10)
(11310 -8.71976623e-11 5.139818528e-10)
(11310 2.755149456e-11 5.025121778e-10)
(11310 1.616948226e-10 4.85649636e-10)
(11310 2.839507859e-10 4.298649109e-10)
(11310 3.515806763e-10 3.771732223e-10)
(11310 3.868306993e-10 3.105913093e-10)
(11310 3.827739576e-10 2.548265198e-10)
(11310 3.623070986e-10 1.532752016e-10)
(11310 3.877919084e-10 7.909040905e-11)
(11310 4.050458103e-10 5.498551649e-11)
(11310 4.27296643e-10 2.748469796e-11)
(11310 4.402925388e-10 -1.768872681e-11)
(11310 6.308349762e-08 2.656363154e-08)
(11310 2.219346062e-08 1.449785294e-08)
(11310 1.246570096e-08 -7.545848629e-09)
(11310 7.388911294e-09 -7.484968602e-09)
(11310 7.644231013e-09 2.431009051e-09)
(11310 4.156608719e-09 5.006042862e-09)
(11310 4.925064144e-09 2.231821406e-09)
(11310 4.81961969e-09 5.73439362e-10)
(11310 4.144929488e-09 -1.241811263e-09)
(11310 3.126323157e-09 -2.323490076e-09)
(11310 1.885071486e-09 -2.91437429e-09)
(11310 9.625174712e-10 -3.023335866e-09)
(11310 -1.47305495e-10 -2.89978868e-09)
(11310 -9.80057189e-10 -2.507978968e-09)
(11310 -1.605797993e-09 -1.876189021e-09)
(11310 -1.907916149e-09 -1.322347158e-09)
(11310 -2.093807066e-09 -5.868033848e-10)
(11310 -2.073942047e-09 6.82882064e-11)
(11310 -1.844595453e-09 6.940980133e-10)
(11310 -1.515510367e-09 1.118957171e-09)
(11310 -1.004421201e-09 1.477924916e-09)
(11310 -4.611458608e-10 1.658144054e-09)