/*--------------------------------*- C++ -*----------------------------------*\
| =========                 |                                                 |
| \\      /  F ield         | OpenFOAM: The Open Source CFD Toolbox           |
|  \\    /   O peration     | Version:  v1706                                 |
|   \\  /    A nd           | Web:      www.OpenFOAM.com                      |
|    \\/     M anipulation  |                                                 |
\*---------------------------------------------------------------------------*/
FoamFile
{
    version     2.0;
    format      ascii;
    class       volScalarField;
    location    "0.0025";
    object      wallHeatFlux;
}
// * * * * * * * * * * * * * * * * * * * * * * * * * * * * * * * * * * * * * //

dimensions      [1 0 -3 0 0 0 0];


internalField   uniform 0;

boundaryField
{
    inlet
    {
        type            calculated;
        value           uniform 0;
    }
    outlet
    {
        type            calculated;
        value           uniform 0;
    }
    fire
    {
        type            calculated;
        value           nonuniform List<scalar> 
118
(
830311.9179
829731.2462
829078.5922
826523.8198
823812.0014
822161.61
819477.4062
815145.3844
814066.3795
814510.2153
815113.4292
809723.9083
808180.4599
808854.6608
811035.3524
810848.553
811677.3136
812517.2724
813772.4545
813099.9341
813718.5412
815256.8053
810749.0183
808436.7593
807757.9373
808185.4371
811601.1781
811833.9473
811660.3568
813910.4237
814815.7062
815378.7052
816782.2416
814479.4124
811033.4139
810853.5224
811502.8958
815658.5516
815220.3676
813020.6924
812746.619
813776.9885
816097.7995
818944.7867
816964.5454
812879.267
812751.8276
814106.4552
819940.7106
820087.5413
818449.8538
819131.3635
814938.377
815568.9854
818181.7566
820309.8625
818259.0397
819872.9657
817941.3994
820978.7859
824453.7676
822475.8371
824365.9187
819003.9656
819862.5341
827398.2411
831320.97
832412.8047
835102.784
839411.2944
838534.6899
839989.0728
847240.2829
851759.7921
856229.3229
859019.4826
865147.9135
872122.4253
881495.2983
888592.3601
894839.9913
903945.3544
909176.6931
917913.7541
923037.6333
926845.9214
930958.5418
937916.233
946855.6702
952836.4148
956082.4156
960636.8592
966098.0153
973187.2567
977574.7974
983546.8508
991553.2757
1004748.834
1035077.431
1012606.326
977331.5051
920017.2844
866372.18
884639.5955
734945.3992
772052.932
672807.6205
574664.3225
558812.3878
566516.8503
606107.6692
521209.1115
463492.2611
409894.3606
359677.7844
301529.4828
266748.0534
230560.2384
)
;
    }
    lWedge
    {
        type            wedge;
    }
    rWedge
    {
        type            wedge;
    }
}


// ************************************************************************* //
