/*--------------------------------*- C++ -*----------------------------------*\
| =========                 |                                                 |
| \\      /  F ield         | OpenFOAM: The Open Source CFD Toolbox           |
|  \\    /   O peration     | Version:  v1706                                 |
|   \\  /    A nd           | Web:      www.OpenFOAM.com                      |
|    \\/     M anipulation  |                                                 |
\*---------------------------------------------------------------------------*/
FoamFile
{
    version     2.0;
    format      ascii;
    class       volScalarField;
    location    "0.0025";
    object      X_N;
}
// * * * * * * * * * * * * * * * * * * * * * * * * * * * * * * * * * * * * * //

dimensions      [0 0 0 0 0 0 0];


internalField   nonuniform List<scalar> 
11682
(
1.648554563e-51
1.476649633e-51
8.320053706e-52
1.007478138e-51
8.286962229e-52
6.977826949e-52
4.917620523e-52
3.783725713e-52
4.361000512e-52
3.27005185e-52
2.447748141e-52
1.926639715e-52
1.072663948e-52
7.312621e-53
1.946658893e-53
7.960705438e-54
4.299870329e-54
6.045383113e-54
3.920127783e-54
2.564632002e-54
1.482616999e-54
9.245935945e-55
1.241580381e-54
7.616705709e-55
6.255901947e-55
5.042701858e-55
3.689573502e-55
1.181126156e-55
1.972427592e-56
3.189475698e-56
2.529073139e-56
1.693534582e-56
1.31549986e-56
9.27863597e-57
9.120140237e-57
7.629329947e-57
6.82806558e-57
3.820945058e-57
3.068030212e-57
4.43836733e-57
4.312623594e-57
3.574485188e-57
2.550748337e-57
2.509048469e-57
1.726616166e-57
2.040956304e-57
2.140937465e-57
2.335466701e-57
2.562835675e-57
2.542527276e-57
1.968006626e-57
2.487672616e-57
3.089770658e-57
3.757588124e-57
3.988830195e-57
4.788181799e-57
5.046156521e-57
7.501817915e-57
8.872230592e-57
1.187000141e-56
1.686526306e-56
2.259845331e-56
3.223871932e-56
5.216293068e-56
8.347891391e-56
1.705857385e-55
4.394311683e-55
1.215322509e-54
2.41652624e-54
3.768558869e-54
5.142340428e-54
8.384136663e-54
1.383233279e-53
2.32057174e-53
4.412921461e-53
7.147096744e-53
1.501629088e-52
3.703841884e-52
8.326236141e-52
1.260393483e-51
3.093137789e-51
4.219341451e-51
4.293896327e-51
3.063196078e-51
4.128763389e-51
2.671293669e-51
2.118508373e-51
1.851408004e-51
1.647268484e-51
1.488712276e-51
1.475751161e-51
1.013033469e-51
1.207322847e-51
1.276463131e-51
1.204948419e-51
1.050108081e-51
9.636753306e-52
9.628864167e-52
8.450568239e-52
3.694779852e-49
3.313191325e-49
2.606746442e-49
2.271344649e-49
1.865956205e-49
1.929998501e-49
1.111495627e-49
1.189328863e-49
9.900175522e-50
7.412379298e-50
5.550178053e-50
4.396747529e-50
3.394401231e-50
2.319023168e-50
4.529757925e-51
1.827712673e-51
1.35613014e-51
1.392754543e-51
9.010268272e-52
5.893813319e-52
3.414149312e-52
2.960231487e-52
2.87667931e-52
1.755475809e-52
1.452909486e-52
1.172397673e-52
8.640087793e-53
2.79668437e-53
4.686373416e-54
7.425365589e-54
5.884941636e-54
3.919281537e-54
3.063099756e-54
2.743868484e-54
2.148905413e-54
1.779987782e-54
1.5900067e-54
8.886270932e-55
7.12589533e-55
1.033966046e-54
1.004888208e-54
8.334812444e-55
5.884337357e-55
5.853673056e-55
5.462266076e-55
4.744540329e-55
4.967015778e-55
5.395380447e-55
5.919480827e-55
5.864434263e-55
6.136957888e-55
5.754747269e-55
7.078502309e-55
8.557767354e-55
9.078275301e-55
1.085070265e-54
1.141658865e-54
1.698130061e-54
1.958773254e-54
2.655466423e-54
3.739425738e-54
4.950229419e-54
7.129610471e-54
1.13607094e-53
1.777007022e-53
3.599794905e-53
9.098353629e-53
2.551946982e-52
5.131759789e-52
8.102530053e-52
1.092856373e-51
1.751909674e-51
2.867906228e-51
4.774906103e-51
9.016532268e-51
1.424176041e-50
2.961106585e-50
7.214878268e-50
1.601927088e-49
3.30603094e-49
6.135282017e-49
8.272021874e-49
8.356566389e-49
8.109148977e-49
8.257509332e-49
5.16164382e-49
4.117203094e-49
3.5675019e-49
3.140561925e-49
2.867671593e-49
2.857026188e-49
2.530290727e-49
2.304985673e-49
2.361404137e-49
2.2086198e-49
1.98227387e-49
1.853376134e-49
1.795024971e-49
2.018199562e-49
9.264206418e-47
7.394408566e-47
5.82585131e-47
5.605590187e-47
4.181169191e-47
4.32783465e-47
2.49692042e-47
2.675430111e-47
2.232061854e-47
1.671268103e-47
1.253371573e-47
9.980636173e-48
7.706908835e-48
5.279205707e-48
1.039990341e-48
4.176664419e-49
3.451836721e-49
3.186013795e-49
2.057512227e-49
1.347486545e-49
7.830892908e-50
7.486896386e-50
6.628718996e-50
4.023874803e-50
3.357369778e-50
2.711305247e-50
2.012106211e-50
6.585499186e-51
1.109391063e-51
1.719612094e-51
1.362225186e-51
9.024002506e-52
7.097133325e-52
6.363017503e-52
5.018227159e-52
4.609760214e-52
3.683694057e-52
2.056387523e-52
1.646667743e-52
2.39664048e-52
2.328977231e-52
1.93335687e-52
1.349951276e-52
1.358848748e-52
1.264705394e-52
1.091358816e-52
1.14625125e-52
1.239718968e-52
1.360173824e-52
1.345929439e-52
1.403507826e-52
1.316965018e-52
1.613237316e-52
1.938635377e-52
2.055858413e-52
2.446826106e-52
2.569135531e-52
3.824441326e-52
4.295980996e-52
5.88267451e-52
8.24682235e-52
1.08106245e-51
1.570419797e-51
2.457385975e-51
3.764092809e-51
7.494609153e-51
1.869582258e-50
5.327905736e-50
1.211117256e-49
1.727669592e-49
2.290622324e-49
4.001110434e-49
5.926230774e-49
9.771584605e-49
1.832848657e-48
2.821518308e-48
5.809974737e-48
1.39609402e-47
3.056314738e-47
6.310554976e-47
1.201316035e-46
1.610806957e-46
1.61622308e-46
1.796512382e-46
1.614508744e-46
9.881795795e-47
7.956787367e-47
6.83182509e-47
5.947999831e-47
5.490015439e-47
5.500010653e-47
4.68068133e-47
4.222580363e-47
4.334219902e-47
4.020796803e-47
3.719105048e-47
3.520255366e-47
3.752266751e-47
3.724509078e-47
2.065380234e-44
1.650184076e-44
1.303241315e-44
1.403620124e-44
9.367457776e-45
9.716955469e-45
6.302620882e-45
6.024545199e-45
5.029080859e-45
4.143691671e-45
2.834187377e-45
2.265563831e-45
1.751177541e-45
1.202917689e-45
2.391282319e-46
9.551757096e-47
7.848759991e-47
7.281978108e-47
4.697817556e-47
3.08117206e-47
1.796185068e-47
1.726462549e-47
1.525957386e-47
9.220676525e-48
7.759267116e-48
6.269154273e-48
4.684173506e-48
1.550612485e-48
2.630947779e-49
3.981172813e-49
3.153009071e-49
2.078055793e-49
1.644435157e-49
1.47631205e-49
1.171609422e-49
1.070036332e-49
8.519047645e-50
4.759738443e-50
3.804925161e-50
5.554934596e-50
5.396014205e-50
4.484213415e-50
3.095679306e-50
3.154636756e-50
2.931259614e-50
2.50985676e-50
2.644580435e-50
2.847397257e-50
3.124885165e-50
3.089231775e-50
3.212128223e-50
3.013142281e-50
3.672215016e-50
4.385235115e-50
4.655638364e-50
5.518012093e-50
5.780479602e-50
8.611982353e-50
1.049500028e-49
1.302855247e-49
1.818447144e-49
2.359944398e-49
3.436761281e-49
5.312251553e-49
7.993233088e-49
1.560333927e-48
3.832628113e-48
1.109768862e-47
2.576308969e-47
3.65327335e-47
4.795977264e-47
8.391683887e-47
1.218650353e-46
1.998730859e-46
3.725418969e-46
5.58541275e-46
1.140136041e-45
2.69664065e-45
5.810848785e-45
1.200319052e-44
2.347504595e-44
3.134000393e-44
3.595555221e-44
3.496097651e-44
3.123348442e-44
2.167182641e-44
1.540249029e-44
1.308481253e-44
1.124746916e-44
1.050633748e-44
1.059319242e-44
8.62077185e-45
7.725934897e-45
7.954126377e-45
7.297540558e-45
6.984210942e-45
6.652590373e-45
6.994739729e-45
6.701731533e-45
5.08514264e-42
3.683338987e-42
3.276568626e-42
3.144337082e-42
2.098109714e-42
2.181676121e-42
1.415602618e-42
1.356223922e-42
1.13307882e-42
9.34175621e-43
6.405430802e-43
5.142661928e-43
3.978735754e-43
2.740074146e-43
5.498387356e-44
2.194187447e-44
1.78559739e-44
1.664295229e-44
1.072513485e-44
7.046359227e-45
4.120129784e-45
3.982607364e-45
3.512551873e-45
2.112464583e-45
1.793413467e-45
1.449203234e-45
1.090156916e-45
3.649961392e-46
6.250912277e-47
9.229065394e-47
7.297750885e-47
4.778122407e-47
3.810482748e-47
3.432063852e-47
2.734966641e-47
2.484023764e-47
1.970262806e-47
1.101981846e-47
9.808627072e-48
1.287468763e-47
1.249786504e-47
1.039503429e-47
7.914406824e-48
7.324204595e-48
6.794427237e-48
5.766918516e-48
6.099874348e-48
6.537270336e-48
7.178156845e-48
7.085518175e-48
7.349619581e-48
6.864974873e-48
8.323245075e-48
9.943045161e-48
1.057695294e-47
1.244546935e-47
1.300350785e-47
1.93681631e-47
2.575050356e-47
2.878944494e-47
4.010306565e-47
5.123396084e-47
7.519984782e-47
1.150513785e-46
1.698077796e-46
3.251388042e-46
7.837689957e-46
2.305406919e-45
5.450449831e-45
7.725919828e-45
1.003966097e-44
1.750010716e-44
2.503304293e-44
4.087434353e-44
7.570486843e-44
1.104747836e-43
2.238031785e-43
5.198624536e-43
1.25197562e-42
2.270748313e-42
4.581399318e-42
6.09318604e-42
7.031627497e-42
6.710189923e-42
6.023109313e-42
4.191349658e-42
2.945707713e-42
2.501244938e-42
2.438479823e-42
2.311493791e-42
2.040196855e-42
1.575934111e-42
1.413737492e-42
1.461087673e-42
1.319241429e-42
1.314461071e-42
1.250676745e-42
1.295364228e-42
1.199035356e-42
1.133998692e-39
8.220806385e-40
7.32520507e-40
7.04524285e-40
5.28006505e-40
4.898448134e-40
3.178593511e-40
3.05289404e-40
2.555045646e-40
2.106767133e-40
1.624272127e-40
1.167333575e-40
9.033143484e-41
6.240638967e-41
1.270437092e-41
5.546550645e-42
4.068278022e-42
3.803645984e-42
2.448288213e-42
1.803656766e-42
9.451245991e-43
9.187783361e-43
8.084788408e-43
4.838652446e-43
4.145103807e-43
3.349160639e-43
2.536121174e-43
8.592712868e-44
1.487822181e-44
2.138771659e-44
1.68899024e-44
1.098783652e-44
8.830683903e-45
7.976837057e-45
6.381095417e-45
5.764860059e-45
4.557040384e-45
2.551922772e-45
2.533240503e-45
2.978136417e-45
2.887457829e-45
2.409375725e-45
1.823657586e-45
1.697237933e-45
1.570309465e-45
1.324675708e-45
1.411307974e-45
1.500261098e-45
1.643426016e-45
1.625105724e-45
1.686613754e-45
1.563293274e-45
1.885760907e-45
2.254290547e-45
2.403463434e-45
2.807039367e-45
2.912155738e-45
4.354470144e-45
5.70046567e-45
7.068965167e-45
8.846532776e-45
1.111089263e-44
1.645433993e-44
2.491416043e-44
3.608475819e-44
6.783595292e-44
1.598602744e-43
4.775446317e-43
1.152343548e-42
1.625289206e-42
2.099903527e-42
3.656721156e-42
5.10551765e-42
8.353210498e-42
1.541187378e-41
2.446787972e-41
4.395113084e-41
9.99937357e-41
2.400838595e-40
4.265163699e-40
8.929168249e-40
1.183542231e-39
1.365290951e-39
1.443509711e-39
1.171592759e-39
8.123285613e-40
5.630070668e-40
4.77630266e-40
4.676381426e-40
4.434730693e-40
3.859299484e-40
2.852888105e-40
2.594814968e-40
2.689903365e-40
2.73442819e-40
2.48040046e-40
2.332750275e-40
2.381444664e-40
2.142539649e-40
2.529752947e-37
2.061663018e-37
1.638325076e-37
1.578592076e-37
1.183123682e-37
1.099583618e-37
7.137179431e-38
6.872083796e-38
5.761477312e-38
4.751120069e-38
3.670276556e-38
2.648105698e-38
2.04915378e-38
1.421150097e-38
2.952307478e-39
1.274097439e-39
9.262012841e-40
8.6925652e-40
5.588335106e-40
4.125127562e-40
2.422159688e-40
2.371873367e-40
1.860712199e-40
1.236310015e-40
9.581207369e-41
7.747554856e-41
5.897801261e-41
2.035102986e-41
3.547045888e-42
4.954886925e-42
3.908833828e-42
2.821578767e-42
2.046719184e-42
2.065147816e-42
1.488351402e-42
1.341780912e-42
1.054070309e-42
5.908979385e-43
5.860205791e-43
6.879617407e-43
6.686110217e-43
5.573250635e-43
4.202150656e-43
3.943861229e-43
3.629586356e-43
3.394232803e-43
3.264972537e-43
3.441176071e-43
3.761497926e-43
3.72779533e-43
3.870327467e-43
3.557881252e-43
4.270700703e-43
5.110240657e-43
5.46293881e-43
6.331444251e-43
6.517808929e-43
9.788538638e-43
1.260980946e-42
1.565772815e-42
1.94833644e-42
2.406557706e-42
3.600337015e-42
5.394402332e-42
7.670030569e-42
1.416790019e-41
3.252108881e-41
9.861300814e-41
2.434747941e-40
3.418072469e-40
4.389277685e-40
7.639306941e-40
1.039284435e-39
1.706270821e-39
3.137569212e-39
4.885097519e-39
8.619245781e-39
1.919604276e-38
4.601646567e-38
9.177996976e-38
1.737930841e-37
2.296936357e-37
2.647786485e-37
2.780287776e-37
2.259745941e-37
1.574134806e-37
1.07485149e-37
9.123340061e-38
8.97464041e-38
8.496385581e-38
7.264127535e-38
5.119783358e-38
4.793302217e-38
4.958284548e-38
5.021545001e-38
4.575476154e-38
4.319469088e-38
4.355339973e-38
3.827840338e-38
5.643265801e-35
4.601035794e-35
4.114281698e-35
3.536889041e-35
2.653487086e-35
2.468340893e-35
1.602565281e-35
1.546897055e-35
1.299172328e-35
1.071456621e-35
8.290745472e-36
6.002320709e-36
4.654098537e-36
3.240733219e-36
6.859546088e-37
2.928520077e-37
2.108720599e-37
1.986367886e-37
1.275522396e-37
9.439021297e-38
6.20892343e-38
5.464965102e-38
4.276875948e-38
2.827179928e-38
2.212046157e-38
1.791752953e-38
1.371107882e-38
4.81958753e-39
8.462609863e-40
1.147510876e-39
9.04584939e-40
6.495950392e-40
4.735295654e-40
4.792548756e-40
3.464121185e-40
3.122399816e-40
2.433542061e-40
1.499347523e-40
1.516769102e-40
1.589068374e-40
1.547838821e-40
1.289088739e-40
9.680481422e-41
9.163349786e-41
8.388999617e-41
8.714702188e-41
8.402320354e-41
7.888756665e-41
8.606960466e-41
8.552353818e-41
8.88205544e-41
9.026751028e-41
9.665531061e-41
1.158290513e-40
1.242163436e-40
1.428165639e-40
1.625368778e-40
2.200071827e-40
2.782690922e-40
3.468502665e-40
4.291073152e-40
5.205540946e-40
7.878529889e-40
1.167854969e-39
1.630538477e-39
2.962861195e-39
6.59767964e-39
2.029604727e-38
5.141347377e-38
7.186296915e-38
9.14135437e-38
1.596111164e-37
2.111126178e-37
3.483968347e-37
6.373403531e-37
9.757749179e-37
1.686601497e-36
3.676824361e-36
8.824375486e-36
1.735025104e-35
3.367235375e-35
4.454377294e-35
5.129269145e-35
5.342754813e-35
4.354889409e-35
3.051673796e-35
2.051354435e-35
1.735681589e-35
1.722559762e-35
1.632380207e-35
1.355006893e-35
9.102482175e-36
8.940041117e-36
9.14928411e-36
9.196721143e-36
8.413507444e-36
7.963882009e-36
7.936862982e-36
6.849038666e-36
1.258889506e-32
1.153809665e-32
9.195813327e-33
7.923293178e-33
5.951158552e-33
5.540968364e-33
3.598335008e-33
3.48203703e-33
2.929526237e-33
2.416308077e-33
1.872818554e-33
1.36051433e-33
1.056968451e-33
7.389621756e-34
1.593419345e-34
6.733596623e-35
5.370238093e-35
4.533786827e-35
2.917548789e-35
2.165187342e-35
1.592180919e-35
1.256844097e-35
9.828813636e-36
6.48336677e-36
5.107828203e-36
4.142678924e-36
3.186509497e-36
1.141326065e-36
2.258487814e-37
2.656223861e-37
2.093109613e-37
1.496182614e-37
1.095648554e-37
1.112396373e-37
8.991469587e-38
7.263167186e-38
5.617022046e-38
3.475771846e-38
3.522115126e-38
3.66402452e-38
3.582370335e-38
2.981492818e-38
2.229563079e-38
2.128813641e-38
1.938848474e-38
2.010980765e-38
1.939923115e-38
1.803691337e-38
1.968916143e-38
1.962386521e-38
2.038444619e-38
2.059341456e-38
2.181505822e-38
2.625130085e-38
2.825767219e-38
3.204245789e-38
3.653022992e-38
4.916591426e-38
6.133236566e-38
7.706239851e-38
9.451303056e-38
1.124278186e-37
1.72427497e-37
2.528018697e-37
3.466152447e-37
6.2043973e-37
1.334809488e-36
4.16411716e-36
1.084885406e-35
1.501026699e-35
2.085799582e-35
3.344992194e-35
4.280646686e-35
7.065247515e-35
1.293813595e-34
1.953954065e-34
3.302446215e-34
7.025479954e-34
1.691784464e-33
3.267941226e-33
6.510397505e-33
8.63445049e-33
9.925333222e-33
1.023603712e-32
8.386868444e-33
5.917831065e-33
3.913725347e-33
3.302278307e-33
3.307835718e-33
3.077272875e-33
2.511669216e-33
1.644886953e-33
1.689070062e-33
1.688550709e-33
1.678104852e-33
1.540393693e-33
1.462357956e-33
1.446400521e-33
1.227802588e-33
2.808206995e-30
2.575136225e-30
2.055746128e-30
1.775700503e-30
1.334704839e-30
1.243857781e-30
8.079848684e-31
7.837985268e-31
6.605804264e-31
5.449154708e-31
4.230622144e-31
3.083797845e-31
2.400250335e-31
1.684917503e-31
3.698502689e-32
1.548572919e-32
1.22358493e-32
1.03385896e-32
6.673160473e-33
4.966856886e-33
3.650660418e-33
2.88725668e-33
2.258731679e-33
1.486621717e-33
1.1795609e-33
9.575789937e-34
7.403246576e-34
2.702452754e-34
5.367110777e-35
6.130314378e-35
4.854541545e-35
3.456793079e-35
2.535294673e-35
2.581384464e-35
2.089689723e-35
1.686059984e-35
1.299969667e-35
8.062181663e-36
8.180799806e-36
8.446125401e-36
8.289257213e-36
6.895585092e-36
5.133805977e-36
4.944977696e-36
4.480945756e-36
4.64224288e-36
4.479389614e-36
4.121285917e-36
4.503198778e-36
4.503504791e-36
4.678525997e-36
4.697655677e-36
4.919234154e-36
5.949336054e-36
6.405198531e-36
7.185727689e-36
8.215465513e-36
1.100208161e-35
1.350612844e-35
1.712654869e-35
2.081054118e-35
2.707832729e-35
3.774721593e-35
5.471387848e-35
8.234949346e-35
1.301035234e-34
2.697877851e-34
8.492444763e-34
2.300379489e-33
3.119419079e-33
4.36395299e-33
7.003500308e-33
9.706422861e-33
1.600903645e-32
2.625106115e-32
3.914953039e-32
6.470590682e-32
1.338579799e-31
3.244022468e-31
6.126687531e-31
1.255878025e-30
1.673815252e-30
1.909189033e-30
1.954545975e-30
1.61451117e-30
1.147708757e-30
7.464344551e-31
6.285326507e-31
6.277370185e-31
5.76868618e-31
4.723351936e-31
3.415596094e-31
3.220801844e-31
3.111168097e-31
3.049980217e-31
2.80900223e-31
2.675850165e-31
2.641873471e-31
2.199862177e-31
6.264341581e-28
5.74968227e-28
4.595688434e-28
3.979545491e-28
2.993418287e-28
2.790931903e-28
1.814047633e-28
1.765941633e-28
1.489538187e-28
1.228867586e-28
9.556949981e-29
6.983824554e-29
5.450015861e-29
3.847555733e-29
9.582974973e-30
3.562342264e-30
2.789073072e-30
2.357383004e-30
1.526284106e-30
1.139451848e-30
8.373491051e-31
6.621949445e-31
5.191739297e-31
3.418253077e-31
2.724262788e-31
2.212892382e-31
1.719467203e-31
6.397700933e-32
1.276373733e-32
1.41463239e-32
1.126082661e-32
7.987858803e-33
6.553579645e-33
5.988931591e-33
4.857830152e-33
3.913552613e-33
3.008400986e-33
2.07962364e-33
1.900317704e-33
1.950573202e-33
1.917729342e-33
1.594784579e-33
1.181827223e-33
1.148492008e-33
1.035596696e-33
1.071664445e-33
1.034026693e-33
1.047728485e-33
1.029798131e-33
1.033665766e-33
1.07383631e-33
1.071086053e-33
1.108218706e-33
1.348302604e-33
1.452122167e-33
1.610970253e-33
1.84729115e-33
2.460937483e-33
2.971439274e-33
3.807286833e-33
4.580493902e-33
5.871092522e-33
8.25019127e-33
1.183861539e-32
1.763237798e-32
2.729732823e-32
5.38746133e-32
1.724045091e-31
4.854759111e-31
6.497572354e-31
9.129268969e-31
1.467071543e-30
1.979334949e-30
3.261670529e-30
5.312400565e-30
7.84939277e-30
1.268698394e-29
2.541909631e-29
6.225648409e-29
1.142635847e-28
2.418495121e-28
3.216915845e-28
3.665599133e-28
3.752003209e-28
3.107768564e-28
2.22549546e-28
1.423123414e-28
1.197309889e-28
1.182669748e-28
1.075549322e-28
8.892470026e-29
7.225009591e-29
6.086336393e-29
5.719981159e-29
5.521448855e-29
5.098148791e-29
4.890172437e-29
4.853634211e-29
3.912530707e-29
1.569166971e-25
1.283774666e-25
1.027384155e-25
8.91861885e-26
7.532819454e-26
6.262266296e-26
4.569920012e-26
3.978754585e-26
3.358707677e-26
2.771277704e-26
2.158942881e-26
1.58160877e-26
1.237399696e-26
8.785432688e-27
2.218194354e-27
8.182844599e-28
6.357776432e-28
5.374840391e-28
3.490838785e-28
2.614198891e-28
1.92057597e-28
1.519163145e-28
1.192936488e-28
7.859143713e-29
6.292072026e-29
5.112559167e-29
3.992370987e-29
1.513513979e-29
3.036733484e-30
3.2709699e-30
2.612334379e-30
1.846083692e-30
1.517632792e-30
1.387037168e-30
1.129280753e-30
9.078948673e-31
6.96054703e-31
4.818774802e-31
4.406718853e-31
4.503791331e-31
4.435889804e-31
3.688369475e-31
2.719930738e-31
2.667012221e-31
2.393372446e-31
2.474028063e-31
2.386171132e-31
2.398047067e-31
2.349865237e-31
2.372778616e-31
2.464820721e-31
2.440856992e-31
2.494117944e-31
3.055854415e-31
3.292721697e-31
3.610524011e-31
4.153872205e-31
5.495502569e-31
6.529457443e-31
8.46629862e-31
1.006258271e-30
1.271892859e-30
1.803507775e-30
2.555639604e-30
3.776328055e-30
5.740393249e-30
1.073057489e-29
3.482610682e-29
1.023807201e-28
1.351502645e-28
1.908775874e-28
3.0669145e-28
4.032914732e-28
6.64042394e-28
1.07439545e-27
1.574996752e-27
2.489026479e-27
4.811954329e-27
1.196515064e-26
2.120314544e-26
4.648880581e-26
6.171448882e-26
7.024150733e-26
7.192906378e-26
5.97609179e-26
4.31311528e-26
2.712375277e-26
2.254248351e-26
2.222606614e-26
2.026897344e-26
1.677832539e-26
1.354210552e-26
1.135477306e-26
1.047451677e-26
9.928074045e-27
9.241381613e-27
8.938269839e-27
8.884619992e-27
7.871624099e-27
3.500153389e-23
2.866219456e-23
2.578040005e-23
1.998722389e-23
1.689167401e-23
1.404719776e-23
1.150755901e-23
8.961056495e-24
7.573370694e-24
6.249633117e-24
4.877106987e-24
3.58179945e-24
2.809314748e-24
2.005939446e-24
5.135430254e-25
1.880184962e-25
1.449309122e-25
1.225366702e-25
7.984200657e-26
5.99812902e-26
4.405003024e-26
3.485063009e-26
2.741100116e-26
1.806800725e-26
1.453187035e-26
1.180950446e-26
9.267476964e-27
3.579650287e-27
7.228377597e-28
7.564149784e-28
6.06038158e-28
4.267256393e-28
3.515537672e-28
3.211631497e-28
2.620050951e-28
2.104790885e-28
1.615666923e-28
1.11724638e-28
1.021879683e-28
1.039725301e-28
1.025905243e-28
8.529840861e-29
6.25827192e-29
6.192554153e-29
5.531529322e-29
5.708817984e-29
5.500454764e-29
5.483221291e-29
5.359984872e-29
5.447492347e-29
5.658309281e-29
5.559315359e-29
5.607755282e-29
6.927339802e-29
7.467228155e-29
8.088669276e-29
1.02478915e-28
1.224767706e-28
1.436921404e-28
1.874337987e-28
2.209319833e-28
3.083197e-28
3.919935871e-28
5.513445149e-28
8.109554352e-28
1.210155818e-27
2.132387198e-27
6.995294753e-27
2.157501484e-26
2.807023979e-26
3.962093291e-26
6.412652182e-26
8.23519683e-26
1.350822157e-25
2.171454421e-25
3.161587558e-25
4.891460352e-25
9.076755082e-25
2.303323435e-24
3.912571686e-24
8.919449359e-24
1.181756657e-23
1.34327323e-23
1.377291654e-23
1.148019907e-23
8.3522316e-24
5.168296053e-24
4.239522016e-24
4.169761808e-24
3.813271353e-24
3.16348524e-24
2.54152606e-24
2.092200723e-24
1.911871393e-24
1.809777996e-24
1.68362776e-24
1.635335361e-24
1.616355478e-24
1.409112133e-24
7.810588563e-21
7.182299433e-21
5.762420104e-21
4.478483181e-21
3.789321373e-21
3.150949043e-21
2.584138118e-21
2.017407758e-21
1.707667306e-21
1.409381265e-21
1.101749235e-21
8.111480235e-22
6.377769952e-22
4.579830619e-22
1.188691367e-22
4.321210217e-23
3.303903754e-23
2.793492974e-23
1.826170816e-23
1.376281292e-23
1.010298042e-23
7.995061913e-24
6.298479991e-24
4.641041811e-24
3.356099796e-24
2.727346681e-24
2.150727403e-24
8.464203213e-25
1.72129179e-25
1.749495805e-25
1.406013389e-25
9.864689913e-26
8.141616329e-26
7.435065539e-26
6.065317165e-26
5.336772184e-26
3.764092483e-26
2.590623865e-26
2.369601945e-26
2.399830238e-26
2.372228888e-26
1.97116317e-26
1.441044328e-26
1.43771708e-26
1.275003158e-26
1.313135018e-26
1.267033139e-26
1.257074394e-26
1.2262053e-26
1.250838226e-26
1.299102094e-26
1.264359853e-26
1.259771551e-26
1.570411153e-26
1.691032036e-26
1.81145753e-26
2.293363796e-26
2.722786922e-26
3.169092703e-26
4.148910131e-26
4.848785363e-26
6.730399371e-26
8.496880524e-26
1.188928844e-25
1.741624777e-25
2.557226677e-25
4.2296558e-25
1.396043466e-24
4.543402241e-24
5.821536657e-24
9.197638794e-24
1.339285437e-23
1.676971876e-23
2.744893624e-23
4.384732618e-23
6.34954686e-23
9.611853787e-23
1.705070668e-22
4.443719965e-22
7.166476867e-22
1.708867109e-21
2.258744001e-21
2.563241265e-21
2.634728702e-21
2.203591448e-21
1.615914825e-21
9.848603749e-22
7.96692661e-22
7.810936759e-22
7.162973351e-22
5.960750287e-22
4.774972654e-22
3.856081686e-22
3.487530133e-22
3.297242105e-22
3.067457703e-22
2.993401928e-22
2.927185016e-22
2.495662377e-22
1.742880254e-18
1.603187991e-18
1.288485901e-18
1.003483791e-18
8.500609142e-19
7.067976977e-19
5.805289195e-19
4.541795982e-19
3.850481441e-19
3.178351693e-19
2.488872267e-19
1.836943552e-19
1.447822369e-19
1.045581475e-19
2.750919934e-20
9.933829115e-21
7.531792597e-21
6.368102814e-21
4.176948562e-21
3.158004343e-21
2.317084671e-21
1.834164423e-21
1.447244518e-21
1.06689662e-21
7.739394224e-22
6.296361379e-22
4.990017499e-22
2.000889653e-22
4.100370524e-23
4.047206643e-23
3.261749861e-23
2.275787161e-23
1.885324015e-23
1.725486516e-23
1.404004486e-23
1.237488632e-23
8.753274257e-24
6.006666396e-24
5.494680705e-24
5.538149719e-24
5.484361194e-24
4.558897862e-24
3.31384429e-24
3.337529436e-24
2.938697721e-24
3.01986607e-24
2.917873315e-24
2.88122171e-24
2.804502555e-24
2.872211439e-24
2.973518277e-24
2.873866834e-24
3.157833566e-24
3.546820104e-24
3.82845594e-24
4.069067743e-24
5.131973616e-24
6.049071665e-24
6.985918168e-24
9.181236274e-24
1.063768e-23
1.469199141e-23
2.052273922e-23
2.562774758e-23
3.751741367e-23
5.405592157e-23
8.379320672e-23
2.76652799e-22
9.547800714e-22
1.204203636e-21
1.919438611e-21
2.785535533e-21
3.411307482e-21
5.582084145e-21
8.849179851e-21
1.270590752e-20
1.892464403e-20
3.190444747e-20
8.580943393e-20
1.332533339e-19
3.241151611e-19
4.307266964e-19
4.883233898e-19
5.040424163e-19
4.205959278e-19
3.105835929e-19
1.866563144e-19
1.488243051e-19
1.453656383e-19
1.336427739e-19
1.11620254e-19
8.934309028e-20
7.071077985e-20
6.32679434e-20
5.971259276e-20
5.553829038e-20
5.474653752e-20
5.262155287e-20
4.327602584e-20
3.889124315e-16
3.580026985e-16
2.881109633e-16
2.248557526e-16
1.906955686e-16
1.585452372e-16
1.304213298e-16
1.022549522e-16
8.682128646e-17
7.167612097e-17
5.622558133e-17
4.160266653e-17
3.28655876e-17
2.38471606e-17
6.385735005e-18
2.281587611e-18
1.88261605e-18
1.454257923e-18
1.068030043e-18
7.246379624e-19
5.314012573e-19
4.207772322e-19
3.325440049e-19
2.453506069e-19
1.988852975e-19
1.590921547e-19
1.160704492e-19
4.728811439e-20
9.770983371e-21
9.350936719e-21
7.566175733e-21
5.264485212e-21
4.365566929e-21
4.004236547e-21
3.24894683e-21
2.869929155e-21
2.035460747e-21
1.392330463e-21
1.273586437e-21
1.27725999e-21
1.267676263e-21
1.054414828e-21
7.618236989e-22
7.747212571e-22
6.769465911e-22
6.943163141e-22
6.717802314e-22
6.602588512e-22
6.41282285e-22
6.59536148e-22
6.800877696e-22
6.521834356e-22
7.130537208e-22
7.991630063e-22
8.666303513e-22
9.140237463e-22
1.14643611e-21
1.341264115e-21
1.53907733e-21
2.031106701e-21
2.601062152e-21
3.205954516e-21
4.470757413e-21
6.147600326e-21
8.058321603e-21
1.147511065e-20
1.877236816e-20
5.399480639e-20
1.99904239e-19
2.767052591e-19
4.008569736e-19
5.793495974e-19
6.91612612e-19
1.130989069e-18
1.786654419e-18
2.529356566e-18
3.716826208e-18
6.110184612e-18
1.633459389e-17
2.483799254e-17
6.079369172e-17
8.158399592e-17
9.248473972e-17
9.513622265e-17
8.928750718e-17
6.718014445e-17
4.005591184e-17
3.131162809e-17
3.035648539e-17
2.798833005e-17
2.352391713e-17
1.826788948e-17
1.463358408e-17
1.295202753e-17
1.218396485e-17
1.133619243e-17
1.037699548e-17
9.606576674e-18
8.750400693e-18
9.563504548e-14
8.810079729e-14
7.098008313e-14
5.551075484e-14
4.712253924e-14
3.917551793e-14
3.227301905e-14
2.535469915e-14
2.15538776e-14
1.779642435e-14
1.398386559e-14
1.037220249e-14
8.209092116e-15
5.98171369e-15
1.631263104e-15
5.388463919e-16
4.293464511e-16
3.318145934e-16
2.439379236e-16
1.66376082e-16
1.21865911e-16
9.652915287e-17
7.641311223e-17
5.642225885e-17
4.579271397e-17
3.666496299e-17
2.695426794e-17
1.117111197e-17
2.328663418e-18
2.160954013e-18
1.755057608e-18
1.217683687e-18
1.010773439e-18
9.275249044e-19
8.244307508e-19
6.672874639e-19
4.725231387e-19
3.529953385e-19
3.234472222e-19
3.235494856e-19
2.93760464e-19
2.438860563e-19
1.95045402e-19
1.793956496e-19
1.709006938e-19
1.600425006e-19
1.546521002e-19
1.512806231e-19
1.465886017e-19
1.510040513e-19
1.549809473e-19
1.616079398e-19
1.769508319e-19
1.805145431e-19
1.961729828e-19
2.044374212e-19
2.549707078e-19
3.198300514e-19
3.786958956e-19
4.507936505e-19
5.715585334e-19
6.967952512e-19
9.724535205e-19
1.32719924e-18
1.72398599e-18
2.435736336e-18
3.78473015e-18
1.035447088e-17
4.174831128e-17
5.747848796e-17
8.322790381e-17
1.19624772e-16
1.543813154e-16
2.51053881e-16
3.937625183e-16
5.537132706e-16
7.960587848e-16
1.279032428e-15
3.483865085e-15
5.12786499e-15
1.288153364e-14
1.733077419e-14
1.967409265e-14
2.023998951e-14
1.912351844e-14
1.459059878e-14
8.646471549e-15
6.621108287e-15
6.359609373e-15
5.876767781e-15
4.974641273e-15
3.865018729e-15
3.060259522e-15
2.66613697e-15
2.494798235e-15
2.323707515e-15
2.121756105e-15
1.967225804e-15
1.79686228e-15
2.133381699e-11
1.966851654e-11
1.586510557e-11
1.243438437e-11
1.05674684e-11
8.784744579e-12
7.247993593e-12
5.706265395e-12
4.858302364e-12
4.011974879e-12
3.157906182e-12
2.348088104e-12
1.862673091e-12
1.364956224e-12
3.771046864e-13
1.360643656e-13
1.076880608e-13
8.324930915e-14
6.129626513e-14
4.199098931e-14
3.071670025e-14
2.433561318e-14
1.927678807e-14
1.427504417e-14
1.158416047e-14
9.280511082e-15
6.86998025e-15
2.896632e-15
6.117274163e-16
5.177913944e-16
4.142608525e-16
2.933544885e-16
2.343289782e-16
2.14783927e-16
1.907955902e-16
1.545925352e-16
1.099301583e-16
8.166879175e-17
7.49309186e-17
7.474836696e-17
6.792755762e-17
5.633868224e-17
4.490904037e-17
4.143405179e-17
3.940220439e-17
3.68010152e-17
3.556893709e-17
3.462844373e-17
3.346845849e-17
3.454161022e-17
3.528288292e-17
3.669802613e-17
4.009067589e-17
4.063548088e-17
4.436795499e-17
4.56413367e-17
5.660520486e-17
7.117685364e-17
8.37441153e-17
9.942607941e-17
1.297165918e-16
1.6625052e-16
2.313057742e-16
3.136579317e-16
4.022178319e-16
5.689090125e-16
8.548204693e-16
2.22663517e-15
9.492077316e-15
1.312023377e-14
1.895748679e-14
2.706647602e-14
3.44683822e-14
5.582012824e-14
8.685756272e-14
1.213813546e-13
1.723924651e-13
2.696889186e-13
6.66522692e-13
9.522567757e-13
2.434414658e-12
3.263830825e-12
3.729654823e-12
3.821608873e-12
3.63115782e-12
2.800352539e-12
1.641220548e-12
1.237491265e-12
1.182321475e-12
1.094252506e-12
9.321899894e-13
7.241255248e-13
5.669470988e-13
4.859960247e-13
4.519733197e-13
4.216921468e-13
3.830863916e-13
3.554921245e-13
3.255269341e-13
5.244553815e-09
4.838353009e-09
3.907669809e-09
3.068791274e-09
2.610521948e-09
2.170256856e-09
1.748499691e-09
1.330588172e-09
1.097784269e-09
9.047671958e-10
7.13372012e-10
5.317411949e-10
4.22769626e-10
3.112079995e-10
8.732589641e-11
3.142692175e-11
2.455812193e-11
1.898828356e-11
1.400036727e-11
9.63741583e-12
7.042017531e-12
5.581048409e-12
4.422246277e-12
3.286854778e-12
2.667489655e-12
2.138548368e-12
1.594362305e-12
6.835848706e-13
1.458295803e-13
1.311215434e-13
1.05121024e-13
7.471266932e-14
5.95598396e-14
5.4530464e-14
4.84376885e-14
3.927994079e-14
2.80375845e-14
2.073446642e-14
1.902332178e-14
1.892519598e-14
1.721158741e-14
1.427052422e-14
1.133842466e-14
1.048284285e-14
9.953795488e-15
9.270876186e-15
8.955667609e-15
8.680780336e-15
8.367528072e-15
8.649868422e-15
8.800378044e-15
9.129749973e-15