/*--------------------------------*- C++ -*----------------------------------*\
| =========                 |                                                 |
| \\      /  F ield         | OpenFOAM: The Open Source CFD Toolbox           |
|  \\    /   O peration     | Version:  v1706                                 |
|   \\  /    A nd           | Web:      www.OpenFOAM.com                      |
|    \\/     M anipulation  |                                                 |
\*---------------------------------------------------------------------------*/
FoamFile
{
    version     2.0;
    format      ascii;
    class       volScalarField;
    location    "0.0025";
    object      X_N2;
}
// * * * * * * * * * * * * * * * * * * * * * * * * * * * * * * * * * * * * * //

dimensions      [0 0 0 0 0 0 0];


internalField   nonuniform List<scalar> 
11682
(
0.789923405
0.789923405
0.789923405
0.789923405
0.789923405
0.789923405
0.789923405
0.789923405
0.789923405
0.789923405
0.789923405
0.789923405
0.789923405
0.789923405
0.789923405
0.789923405
0.789923405
0.789923405
0.789923405
0.789923405
0.789923405
0.789923405
0.789923405
0.789923405
0.789923405
0.789923405
0.789923405
0.789923405
0.789923405
0.789923405
0.789923405
0.789923405
0.789923405
0.789923405
0.789923405
0.789923405
0.789923405
0.789923405
0.789923405
0.789923405
0.789923405
0.789923405
0.789923405
0.789923405
0.789923405
0.789923405
0.789923405
0.789923405
0.789923405
0.789923405
0.789923405
0.789923405
0.789923405
0.789923405
0.789923405
0.789923405
0.789923405
0.789923405
0.789923405
0.789923405
0.789923405
0.789923405
0.789923405
0.789923405
0.789923405
0.789923405
0.789923405
0.789923405
0.789923405
0.789923405
0.789923405
0.789923405
0.789923405
0.789923405
0.789923405
0.789923405
0.789923405
0.789923405
0.789923405
0.789923405
0.789923405
0.789923405
0.789923405
0.789923405
0.789923405
0.789923405
0.789923405
0.789923405
0.789923405
0.789923405
0.789923405
0.789923405
0.789923405
0.789923405
0.789923405
0.789923405
0.789923405
0.789923405
0.789923405
0.789923405
0.789923405
0.789923405
0.789923405
0.789923405
0.789923405
0.789923405
0.789923405
0.789923405
0.789923405
0.789923405
0.789923405
0.789923405
0.789923405
0.789923405
0.789923405
0.789923405
0.789923405
0.789923405
0.789923405
0.789923405
0.789923405
0.789923405
0.789923405
0.789923405
0.789923405
0.789923405
0.789923405
0.789923405
0.789923405
0.789923405
0.789923405
0.789923405
0.789923405
0.789923405
0.789923405
0.789923405
0.789923405
0.789923405
0.789923405
0.789923405
0.789923405
0.789923405
0.789923405
0.789923405
0.789923405
0.789923405
0.789923405
0.789923405
0.789923405
0.789923405
0.789923405
0.789923405
0.789923405
0.789923405
0.789923405
0.789923405
0.789923405
0.789923405
0.789923405
0.789923405
0.789923405
0.789923405
0.789923405
0.789923405
0.789923405
0.789923405
0.789923405
0.789923405
0.789923405
0.789923405
0.789923405
0.789923405
0.789923405
0.789923405
0.789923405
0.789923405
0.789923405
0.789923405
0.789923405
0.789923405
0.789923405
0.789923405
0.789923405
0.789923405
0.789923405
0.789923405
0.789923405
0.789923405
0.789923405
0.789923405
0.789923405
0.789923405
0.789923405
0.789923405
0.789923405
0.789923405
0.789923405
0.789923405
0.789923405
0.789923405
0.789923405
0.789923405
0.789923405
0.789923405
0.789923405
0.789923405
0.789923405
0.789923405
0.789923405
0.789923405
0.789923405
0.789923405
0.789923405
0.789923405
0.789923405
0.789923405
0.789923405
0.789923405
0.789923405
0.789923405
0.789923405
0.789923405
0.789923405
0.789923405
0.789923405
0.789923405
0.789923405
0.789923405
0.789923405
0.789923405
0.789923405
0.789923405
0.789923405
0.789923405
0.789923405
0.789923405
0.789923405
0.789923405
0.789923405
0.789923405
0.789923405
0.789923405
0.789923405
0.789923405
0.789923405
0.789923405
0.789923405
0.789923405
0.789923405
0.789923405
0.789923405
0.789923405
0.789923405
0.789923405
0.789923405
0.789923405
0.789923405
0.789923405
0.789923405
0.789923405
0.789923405
0.789923405
0.789923405
0.789923405
0.789923405
0.789923405
0.789923405
0.789923405
0.789923405
0.789923405
0.789923405
0.789923405
0.789923405
0.789923405
0.789923405
0.789923405
0.789923405
0.789923405
0.789923405
0.789923405
0.789923405
0.789923405
0.789923405
0.789923405
0.789923405
0.789923405
0.789923405
0.789923405
0.789923405
0.789923405
0.789923405
0.789923405
0.789923405
0.789923405
0.789923405
0.789923405
0.789923405
0.789923405
0.789923405
0.789923405
0.789923405
0.789923405
0.789923405
0.789923405
0.789923405
0.789923405
0.789923405
0.789923405
0.789923405
0.789923405
0.789923405
0.789923405
0.789923405
0.789923405
0.789923405
0.789923405
0.789923405
0.789923405
0.789923405
0.789923405
0.789923405
0.789923405
0.789923405
0.789923405
0.789923405
0.789923405
0.789923405
0.789923405
0.789923405
0.789923405
0.789923405
0.789923405
0.789923405
0.789923405
0.789923405
0.789923405
0.789923405
0.789923405
0.789923405
0.789923405
0.789923405
0.789923405
0.789923405
0.789923405
0.789923405
0.789923405
0.789923405
0.789923405
0.789923405
0.789923405
0.789923405
0.789923405
0.789923405
0.789923405
0.789923405
0.789923405
0.789923405
0.789923405
0.789923405
0.789923405
0.789923405
0.789923405
0.789923405
0.789923405
0.789923405
0.789923405
0.789923405
0.789923405
0.789923405
0.789923405
0.789923405
0.789923405
0.789923405
0.789923405
0.789923405
0.789923405
0.789923405
0.789923405
0.789923405
0.789923405
0.789923405
0.789923405
0.789923405
0.789923405
0.789923405
0.789923405
0.789923405
0.789923405
0.789923405
0.789923405
0.789923405
0.789923405
0.789923405
0.789923405
0.789923405
0.789923405
0.789923405
0.789923405
0.789923405
0.789923405
0.789923405
0.789923405
0.789923405
0.789923405
0.789923405
0.789923405
0.789923405
0.789923405
0.789923405
0.789923405
0.789923405
0.789923405
0.789923405
0.789923405
0.789923405
0.789923405
0.789923405
0.789923405
0.789923405
0.789923405
0.789923405
0.789923405
0.789923405
0.789923405
0.789923405
0.789923405
0.789923405
0.789923405
0.789923405
0.789923405
0.789923405
0.789923405
0.789923405
0.789923405
0.789923405
0.789923405
0.789923405
0.789923405
0.789923405
0.789923405
0.789923405
0.789923405
0.789923405
0.789923405
0.789923405
0.789923405
0.789923405
0.789923405
0.789923405
0.789923405
0.789923405
0.789923405
0.789923405
0.789923405
0.789923405
0.789923405
0.789923405
0.789923405
0.789923405
0.789923405
0.789923405
0.789923405
0.789923405
0.789923405
0.789923405
0.789923405
0.789923405
0.789923405
0.789923405
0.789923405
0.789923405
0.789923405
0.789923405
0.789923405
0.789923405
0.789923405
0.789923405
0.789923405
0.789923405
0.789923405
0.789923405
0.789923405
0.789923405
0.789923405
0.789923405
0.789923405
0.789923405
0.789923405
0.789923405
0.789923405
0.789923405
0.789923405
0.789923405
0.789923405
0.789923405
0.789923405
0.789923405
0.789923405
0.789923405
0.789923405
0.789923405
0.789923405
0.789923405
0.789923405
0.789923405
0.789923405
0.789923405
0.789923405
0.789923405
0.789923405
0.789923405
0.789923405
0.789923405
0.789923405
0.789923405
0.789923405
0.789923405
0.789923405
0.789923405
0.789923405
0.789923405
0.789923405
0.789923405
0.789923405
0.789923405
0.789923405
0.789923405
0.789923405
0.789923405
0.789923405
0.789923405
0.789923405
0.789923405
0.789923405
0.789923405
0.789923405
0.789923405
0.789923405
0.789923405
0.789923405
0.789923405
0.789923405
0.789923405
0.789923405
0.789923405
0.789923405
0.789923405
0.789923405
0.789923405
0.789923405
0.789923405
0.789923405
0.789923405
0.789923405
0.789923405
0.789923405
0.789923405
0.789923405
0.789923405
0.789923405
0.789923405
0.789923405
0.789923405
0.789923405
0.789923405
0.789923405
0.789923405
0.789923405
0.789923405
0.789923405
0.789923405
0.789923405
0.789923405
0.789923405
0.789923405
0.789923405
0.789923405
0.789923405
0.789923405
0.789923405
0.789923405
0.789923405
0.789923405
0.789923405
0.789923405
0.789923405
0.789923405
0.789923405
0.789923405
0.789923405
0.789923405
0.789923405
0.789923405
0.789923405
0.789923405
0.789923405
0.789923405
0.789923405
0.789923405
0.789923405
0.789923405
0.789923405
0.789923405
0.789923405
0.789923405
0.789923405
0.789923405
0.789923405
0.789923405
0.789923405
0.789923405
0.789923405
0.789923405
0.789923405
0.789923405
0.789923405
0.789923405
0.789923405
0.789923405
0.789923405
0.789923405
0.789923405
0.789923405
0.789923405
0.789923405
0.789923405
0.789923405
0.789923405
0.789923405
0.789923405
0.789923405
0.789923405
0.789923405
0.789923405
0.789923405
0.789923405
0.789923405
0.789923405
0.789923405
0.789923405
0.789923405
0.789923405
0.789923405
0.789923405
0.789923405
0.789923405
0.789923405
0.789923405
0.789923405
0.789923405
0.789923405
0.789923405
0.789923405
0.789923405
0.789923405
0.789923405
0.789923405
0.789923405
0.789923405
0.789923405
0.789923405
0.789923405
0.789923405
0.789923405
0.789923405
0.789923405
0.789923405
0.789923405
0.789923405
0.789923405
0.789923405
0.789923405
0.789923405
0.789923405
0.789923405
0.789923405
0.789923405
0.789923405
0.789923405
0.789923405
0.789923405
0.789923405
0.789923405
0.789923405
0.789923405
0.789923405
0.789923405
0.789923405
0.789923405
0.789923405
0.789923405
0.789923405
0.789923405
0.789923405
0.789923405
0.789923405
0.789923405
0.789923405
0.789923405
0.789923405
0.789923405
0.789923405
0.789923405
0.789923405
0.789923405
0.789923405
0.789923405
0.789923405
0.789923405
0.789923405
0.789923405
0.789923405
0.789923405
0.789923405
0.789923405
0.789923405
0.789923405
0.789923405
0.789923405
0.789923405
0.789923405
0.789923405
0.789923405
0.789923405
0.789923405
0.789923405
0.789923405
0.789923405
0.789923405
0.789923405
0.789923405
0.789923405
0.789923405
0.789923405
0.789923405
0.789923405
0.789923405
0.789923405
0.789923405
0.789923405
0.789923405
0.789923405
0.789923405
0.789923405
0.789923405
0.789923405
0.789923405
0.789923405
0.789923405
0.789923405
0.789923405
0.789923405
0.789923405
0.789923405
0.789923405
0.789923405
0.789923405
0.789923405
0.789923405
0.789923405
0.789923405
0.789923405
0.789923405
0.789923405
0.789923405
0.789923405
0.789923405
0.789923405
0.789923405
0.789923405
0.789923405
0.789923405
0.789923405
0.789923405
0.789923405
0.789923405
0.789923405
0.789923405
0.789923405
0.789923405
0.789923405
0.789923405
0.789923405
0.789923405
0.789923405
0.789923405
0.789923405
0.789923405
0.789923405
0.789923405
0.789923405
0.789923405
0.789923405
0.789923405
0.789923405
0.789923405
0.789923405
0.789923405
0.789923405
0.789923405
0.789923405
0.789923405
0.789923405
0.789923405
0.789923405
0.789923405
0.789923405
0.789923405
0.789923405
0.789923405
0.789923405
0.789923405
0.789923405
0.789923405
0.789923405
0.789923405
0.789923405
0.789923405
0.789923405
0.789923405
0.789923405
0.789923405
0.789923405
0.789923405
0.789923405
0.789923405
0.789923405
0.789923405
0.789923405
0.789923405
0.789923405
0.789923405
0.789923405
0.789923405
0.789923405
0.789923405
0.789923405
0.789923405
0.789923405
0.789923405
0.789923405
0.789923405
0.789923405
0.789923405
0.789923405
0.789923405
0.789923405
0.789923405
0.789923405
0.789923405
0.789923405
0.789923405
0.789923405
0.789923405
0.789923405
0.789923405
0.789923405
0.789923405
0.789923405
0.789923405
0.789923405
0.789923405
0.789923405
0.789923405
0.789923405
0.789923405
0.789923405
0.789923405
0.789923405
0.789923405
0.789923405
0.789923405
0.789923405
0.789923405
0.789923405
0.789923405
0.789923405
0.789923405
0.789923405
0.789923405
0.789923405
0.789923405
0.789923405
0.789923405
0.789923405
0.789923405
0.789923405
0.789923405
0.789923405
0.789923405
0.789923405
0.789923405
0.789923405
0.789923405
0.789923405
0.789923405
0.789923405
0.789923405
0.789923405
0.789923405
0.789923405
0.789923405
0.789923405
0.789923405
0.789923405
0.789923405
0.789923405
0.789923405
0.789923405
0.789923405
0.789923405
0.789923405
0.789923405
0.789923405
0.789923405
0.789923405
0.789923405
0.789923405
0.789923405
0.789923405
0.789923405
0.789923405
0.789923405
0.789923405
0.789923405
0.789923405
0.789923405
0.789923405
0.789923405
0.789923405
0.789923405
0.789923405
0.789923405
0.789923405
0.789923405
0.789923405
0.789923405
0.789923405
0.789923405
0.789923405
0.789923405
0.789923405
0.789923405
0.789923405
0.789923405
0.789923405
0.789923405
0.789923405
0.789923405
0.789923405
0.789923405
0.789923405
0.789923405
0.789923405
0.789923405
0.789923405
0.789923405
0.789923405
0.789923405
0.789923405
0.789923405
0.789923405
0.789923405
0.789923405
0.789923405
0.789923405
0.789923405
0.789923405
0.789923405
0.789923405
0.789923405
0.789923405
0.789923405
0.789923405
0.789923405
0.789923405
0.789923405
0.789923405
0.789923405
0.789923405
0.789923405
0.789923405
0.789923405
0.789923405
0.789923405
0.789923405
0.789923405
0.789923405
0.789923405
0.789923405
0.789923405
0.789923405
0.789923405
0.789923405
0.789923405
0.789923405
0.789923405
0.789923405
0.789923405
0.789923405
0.789923405
0.789923405
0.789923405
0.789923405
0.789923405
0.789923405
0.789923405
0.789923405
0.789923405
0.789923405
0.789923405
0.789923405
0.789923405
0.789923405
0.789923405
0.789923405
0.789923405
0.789923405
0.789923405
0.789923405
0.789923405
0.789923405
0.789923405
0.789923405
0.789923405
0.789923405
0.789923405
0.789923405
0.789923405
0.789923405
0.789923405
0.789923405
0.789923405
0.789923405
0.789923405
0.789923405
0.789923405
0.789923405
0.789923405
0.789923405
0.789923405
0.789923405
0.789923405
0.789923405
0.789923405
0.789923405
0.789923405
0.789923405
0.789923405
0.789923405
0.789923405
0.789923405
0.789923405
0.789923405
0.789923405
0.789923405
0.789923405
0.789923405
0.789923405
0.789923405
0.789923405
0.789923405
0.789923405
0.789923405
0.789923405
0.789923405
0.789923405
0.789923405
0.789923405
0.789923405
0.789923405
0.789923405
0.789923405
0.789923405
0.789923405
0.789923405
0.789923405
0.789923405
0.789923405
0.789923405
0.789923405
0.789923405
0.789923405
0.789923405
0.789923405
0.789923405
0.789923405
0.789923405
0.789923405
0.789923405
0.789923405
0.789923405
0.789923405
0.789923405
0.789923405
0.789923405
0.789923405
0.789923405
0.789923405
0.789923405
0.789923405
0.789923405
0.789923405
0.789923405
0.789923405
0.789923405
0.789923405
0.789923405
0.789923405
0.789923405
0.789923405
0.789923405
0.789923405
0.789923405
0.789923405
0.789923405
0.789923405
0.789923405
0.789923405
0.789923405
0.789923405
0.789923405
0.789923405
0.789923405
0.789923405
0.789923405
0.789923405
0.789923405
0.789923405
0.789923405
0.789923405
0.789923405
0.789923405
0.789923405
0.789923405
0.789923405
0.789923405
0.789923405
0.789923405
0.789923405
0.789923405
0.789923405
0.789923405
0.789923405
0.789923405
0.789923405
0.789923405
0.789923405
0.789923405
0.789923405
0.789923405
0.789923405
0.789923405
0.789923405
0.789923405
0.789923405
0.789923405
0.789923405
0.789923405
0.789923405
0.789923405
0.789923405
0.789923405
0.789923405
0.789923405
0.789923405
0.789923405
0.789923405
0.789923405
0.789923405
0.789923405
0.789923405
0.789923405
0.789923405
0.789923405
0.789923405
0.789923405
0.789923405
0.789923405
0.789923405
0.789923405
0.789923405
0.789923405
0.789923405
0.789923405
0.789923405
0.789923405
0.789923405
0.789923405
0.789923405
0.789923405
0.789923405
0.789923405
0.789923405
0.789923405
0.789923405
0.789923405
0.789923405
0.789923405
0.789923405
0.789923405
0.789923405
0.789923405
0.789923405
0.789923405
0.789923405
0.789923405
0.789923405
0.789923405
0.789923405
0.789923405
0.789923405
0.789923405
0.789923405
0.789923405
0.789923405
0.789923405
0.789923405
0.789923405
0.789923405
0.789923405
0.789923405
0.789923405
0.789923405
0.789923405
0.789923405
0.789923405
0.789923405
0.789923405
0.789923405
0.789923405
0.789923405
0.789923405
0.789923405
0.789923405
0.789923405
0.789923405
0.789923405
0.789923405
0.789923405
0.789923405
0.789923405
0.789923405
0.789923405
0.789923405
0.789923405
0.789923405
0.789923405
0.789923405
0.789923405
0.789923405
0.789923405
0.789923405
0.789923405
0.789923405
0.789923405
0.789923405
0.789923405
0.789923405
0.789923405
0.789923405
0.789923405
0.789923405
0.789923405
0.789923405
0.789923405
0.789923405
0.789923405
0.789923405
0.789923405
0.789923405
0.789923405
0.789923405
0.789923405
0.789923405
0.789923405
0.789923405
0.789923405
0.789923405
0.789923405
0.789923405
0.789923405
0.789923405
0.789923405
0.789923405
0.789923405
0.789923405
0.789923405
0.789923405
0.789923405
0.789923405
0.789923405
0.789923405
0.789923405
0.789923405
0.789923405
0.789923405
0.789923405
0.789923405
0.789923405
0.789923405
0.789923405
0.789923405
0.789923405
0.789923405
0.789923405
0.789923405
0.789923405
0.789923405
0.789923405
0.789923405
0.789923405
0.789923405
0.789923405
0.789923405
0.789923405
0.789923405
0.789923405
0.789923405
0.789923405
0.789923405
0.789923405
0.789923405
0.789923405
0.789923405
0.789923405
0.789923405
0.789923405
0.789923405
0.789923405
0.789923405
0.789923405
0.789923405
0.789923405
0.789923405
0.789923405
0.789923405
0.789923405
0.789923405
0.789923405
0.789923405
0.789923405
0.789923405
0.789923405
0.789923405
0.789923405
0.789923405
0.789923405
0.789923405
0.789923405
0.789923405
0.789923405
0.789923405
0.789923405
0.789923405
0.789923405
0.789923405
0.789923405
0.789923405
0.789923405
0.789923405
0.789923405
0.789923405
0.789923405
0.789923405
0.789923405
0.789923405
0.789923405
0.789923405
0.789923405
0.789923405
0.789923405
0.789923405
0.789923405
0.789923405
0.789923405
0.789923405
0.789923405
0.789923405
0.789923405
0.789923405
0.789923405
0.789923405
0.789923405
0.789923405
0.789923405
0.789923405
0.789923405
0.789923405
0.789923405
0.789923405
0.789923405
0.789923405
0.789923405
0.789923405
0.789923405
0.789923405
0.789923405
0.789923405
0.789923405
0.789923405
0.789923405
0.789923405
0.789923405
0.789923405
0.789923405
0.789923405
0.789923405
0.789923405
0.789923405
0.789923405
0.789923405
0.789923405
0.789923405
0.789923405
0.789923405
0.789923405
0.789923405
0.789923405
0.789923405
0.789923405
0.789923405
0.789923405
0.789923405
0.789923405
0.789923405
0.789923405
0.789923405
0.789923405
0.789923405
0.789923405
0.789923405
0.789923405
0.789923405
0.789923405
0.789923405
0.789923405
0.789923405
0.789923405
0.789923405
0.789923405
0.789923405
0.789923405
0.789923405
0.789923405
0.789923405
0.789923405
0.789923405
0.789923405
0.789923405
0.789923405
0.789923405
0.789923405
0.789923405
0.789923405
0.789923405
0.789923405
0.789923405
0.789923405
0.789923405
0.789923405
0.789923405
0.789923405
0.789923405
0.789923405
0.789923405
0.789923405
0.789923405
0.789923405
0.789923405
0.789923405
0.789923405
0.789923405
0.789923405
0.789923405
0.789923405
0.789923405
0.789923405
0.789923405
0.789923405
0.789923405
0.789923405
0.789923405
0.789923405
0.789923405
0.789923405
0.789923405
0.789923405
0.789923405
0.789923405
0.789923405
0.789923405
0.789923405
0.789923405
0.789923405
0.789923405
0.789923405
0.789923405
0.789923405
0.789923405
0.789923405
0.789923405
0.789923405
0.789923405
0.789923405
0.789923405
0.789923405
0.789923405
0.789923405
0.789923405
0.789923405
0.789923405
0.789923405
0.789923405
0.789923405
0.789923405
0.789923405
0.789923405
0.789923405
0.789923405
0.789923405
0.789923405
0.789923405
0.789923405
0.789923405
0.789923405
0.789923405
0.789923405
0.789923405
0.789923405
0.789923405
0.789923405
0.789923405
0.789923405
0.789923405
0.789923405
0.789923405
0.789923405
0.789923405
0.789923405
0.789923405
0.789923405
0.789923405
0.789923405
0.789923405
0.789923405
0.789923405
0.789923405
0.789923405
0.789923405
0.789923405
0.789923405
0.789923405
0.789923405
0.789923405
0.789923405
0.789923405
0.789923405
0.789923405
0.789923405
0.789923405
0.789923405
0.789923405
0.789923405
0.789923405
0.789923405
0.789923405
0.789923405
0.789923405
0.789923405
0.789923405
0.789923405
0.789923405
0.789923405
0.789923405
0.789923405
0.789923405
0.789923405
0.789923405
0.789923405
0.789923405
0.789923405
0.789923405
0.789923405
0.7899234047
0.7899234047
0.7899234048
0.7899234048
0.7899234049
0.7899234049
0.7899234049
0.7899234049
0.7899234049
0.789923405
0.789923405
0.789923405
0.789923405
0.789923405
0.789923405
0.789923405
0.789923405
0.789923405
0.789923405
0.789923405
0.789923405
0.789923405
0.789923405
0.789923405
0.789923405
0.789923405
0.789923405
0.789923405
0.789923405
0.789923405
0.789923405
0.789923405
0.789923405
0.789923405
0.789923405
0.789923405
0.789923405
0.789923405
0.789923405
0.789923405
0.789923405
0.789923405
0.789923405
0.789923405
0.789923405
0.789923405
0.789923405
0.789923405
0.789923405
0.789923405
0.789923405
0.789923405
0.789923405
0.789923405
0.789923405
0.789923405
0.789923405
0.789923405
0.789923405
0.789923405
0.789923405
0.789923405
0.789923405
0.789923405
0.789923405
0.789923405
0.789923405
0.789923405
0.789923405
0.789923405
0.789923405
0.789923405
0.789923405
0.789923405
0.789923405
0.789923405
0.789923405
0.789923405
0.789923405
0.789923405
0.789923405
0.789923405
0.7899234049
0.7899234049
0.7899234049
0.7899234049
0.7899234049
0.789923405
0.789923405
0.789923405
0.789923405
0.789923405
0.789923405
0.789923405
0.789923405
0.789923405
0.789923405
0.789923405
0.789923405
0.7899233893
0.7899233906
0.7899233934
0.789923396
0.7899233974
0.7899233987
0.7899233997
0.7899234008
0.7899234014
0.789923402
0.7899234026
0.7899234032
0.7899234036
0.7899234039
0.7899234043
0.7899234045
0.7899234047
0.7899234047
0.7899234048
0.7899234049
0.7899234049
0.7899234049
0.7899234049
0.789923405
0.789923405
0.789923405
0.789923405
0.789923405
0.789923405
0.789923405
0.789923405
0.789923405
0.789923405
0.789923405
0.789923405
0.789923405
0.789923405
0.789923405
0.789923405
0.789923405
0.789923405
0.789923405
0.789923405
0.789923405
0.789923405
0.789923405
0.789923405
0.789923405
0.789923405
0.789923405
0.789923405
0.789923405
0.789923405
0.789923405
0.789923405
0.789923405
0.789923405
0.789923405
0.789923405
0.789923405
0.789923405
0.789923405
0.789923405
0.789923405
0.789923405
0.789923405
0.789923405
0.789923405
0.789923405
0.789923405
0.789923405
0.7899234049
0.7899234049
0.7899234048
0.7899234048
0.7899234047
0.7899234045
0.7899234043
0.7899234037
0.7899234036
0.7899234029
0.7899234025
0.789923402
0.7899234018
0.7899234018
0.7899234021
0.7899234025
0.7899234026
0.7899234026
0.7899234026
0.7899234027
0.7899234027
0.7899234028
0.7899234029
0.789923403
0.7899234031
0.7899234032
0.7899234033
0.7899234034
0.7899224676
0.789922541
0.7899227104
0.7899228611
0.7899229436
0.7899230217
0.7899230955
0.7899231685
0.7899232104
0.7899232451
0.7899232791
0.789923311
0.7899233301
0.7899233458
0.7899233668
0.7899233789
0.7899233853
0.7899233899
0.7899233938
0.7899233974
0.7899233994
0.7899234007
0.7899234014
0.7899234024
0.7899234029
0.7899234033
0.7899234037
0.7899234041
0.7899234044
0.7899234045
0.7899234046
0.7899234047
0.7899234048
0.7899234048
0.7899234048
0.7899234049
0.7899234049
0.7899234049
0.7899234049
0.7899234049
0.7899234049
0.789923405
0.789923405
0.789923405
0.789923405
0.789923405
0.789923405
0.789923405
0.789923405
0.789923405
0.789923405
0.789923405
0.789923405
0.789923405
0.789923405
0.789923405
0.789923405
0.7899234049
0.7899234049
0.7899234049
0.7899234049
0.7899234049
0.7899234048
0.7899234048
0.7899234047
0.7899234046
0.7899234044
0.7899234042
0.7899234034
0.789923403
0.7899234022
0.7899234007
0.7899234
0.7899233971
0.7899233924
0.7899233875
0.7899233795
0.789923372
0.7899233413
0.7899233373
0.7899233086
0.7899232889
0.7899232698
0.7899232655
0.7899232661
0.7899232724
0.7899232842
0.7899232937
0.7899232991
0.7899233025
0.7899233053
0.7899233085
0.789923312
0.7899233159
0.78992332
0.7899233243
0.7899233288
0.7899233333
0.789923338
0.7898763261
0.7898799748
0.7898884017
0.7898959235
0.7899000466
0.7899039964
0.7899077187
0.7899114128
0.789913516
0.7899152787
0.7899169989
0.7899186169
0.78991958
0.7899203583
0.7899211859
0.7899218654
0.7899222322
0.7899225048
0.7899227396
0.7899229436
0.7899230704
0.7899231424
0.7899231955
0.7899232606
0.7899232903
0.7899233132
0.789923334
0.7899233573
0.7899233725
0.7899233789
0.789923384
0.78992339
0.7899233932
0.7899233945
0.7899233958
0.7899233973
0.7899233994
0.7899234009
0.7899234014
0.7899234015
0.7899234018
0.7899234023
0.7899234028
0.7899234029
0.7899234031
0.7899234032
0.7899234033
0.7899234033
0.7899234034
0.7899234034
0.7899234033
0.7899234033
0.7899234031
0.7899234032
0.7899234029
0.7899234029
0.7899234027
0.789923402
0.7899234014
0.7899234009
0.7899233996
0.7899233985
0.789923396
0.7899233928
0.7899233899
0.7899233832
0.7899233755
0.7899233628
0.7899233263
0.7899233073
0.7899232636
0.7899231966
0.7899231581
0.7899230159
0.7899228
0.7899225019
0.7899220606
0.7899215966
0.7899203425
0.7899201353
0.7899191217
0.7899183599
0.7899176703
0.7899175353
0.7899176192
0.7899179531
0.7899185251
0.7899189011
0.7899190779
0.7899191753
0.789919263
0.7899193699
0.7899194946
0.7899196332
0.7899197817
0.7899199377
0.7899200981
0.7899202599
0.7899204233
0.7879377551
0.7880727906
0.788396384
0.7886952518
0.7888652268
0.7890342943
0.7891972499
0.7893624491
0.7894574224
0.7895384977
0.7896183616
0.7896943599
0.7897395227
0.7897762573
0.7898138563
0.7898465478
0.7898644773
0.7898780498
0.7898898296
0.7899001122
0.7899064661
0.7899100656
0.7899128297
0.78991602
0.7899175577
0.7899187278
0.7899197869
0.7899207853
0.7899215252
0.7899218659
0.789922173
0.7899225096
0.7899227026
0.7899227791
0.7899228509
0.7899229498
0.7899230699
0.7899231591
0.7899231868
0.7899231986
0.7899232151
0.7899232427
0.7899232771
0.7899232945
0.7899233025
0.7899233103
0.7899233137
0.7899233175
0.7899233212
0.7899233184
0.7899233181
0.7899233156
0.7899233078
0.789923309
0.7899232978
0.7899232982
0.7899232834
0.7899232464
0.7899232197
0.7899231932
0.78992312
0.7899230686
0.7899229288
0.7899227078
0.7899225403
0.789922172
0.7899217427
0.7899210244
0.7899196018
0.7899187454
0.7899166578
0.7899136811
0.7899118393
0.7899051687
0.7898954021
0.7898820186
0.7898629331
0.7898414781
0.7897916395
0.7897825413
0.7897442922
0.789716489
0.7896937405
0.7896901322
0.7896957949
0.7897112205
0.7897364745
0.7897507517
0.7897565488
0.7897596585
0.7897629779
0.7897675189
0.789772929
0.7897789947
0.7897854597
0.7897922102
0.7897990914
0.7898059463
0.7898127376
0.7671319263
0.7679537083
0.7701950537
0.7722766325
0.7736208679
0.7751660545
0.7768840838
0.7788261518
0.7800477859
0.7811574764
0.7823823869
0.7837097817
0.7845984184
0.7853678704
0.7860427049
0.7869280433
0.7875126715
0.7879962615
0.7884504639
0.788870153
0.7891417606
0.7893000519
0.7894287333
0.7895706665
0.7896441028
0.7896992611
0.7897495614
0.7897959091
0.7898303463
0.7898463924
0.7898616032
0.7898786628
0.7898881534
0.7898917451
0.7898953502
0.7899004114
0.7899065956
0.7899111181
0.789912363
0.7899129266
0.7899137811
0.7899152176
0.7899170151
0.789917854
0.7899182359
0.789918637
0.7899188011
0.7899190087
0.7899192018
0.7899190537
0.7899190455
0.7899189206
0.7899185537
0.7899186249
0.7899180788
0.7899181161
0.7899173421
0.7899155318
0.7899142831
0.7899129429
0.7899094139
0.7899068715
0.7898999665
0.789889603
0.789881619
0.7898642419
0.7898441837
0.7898101602
0.7897505704
0.7897138189
0.7896213597
0.7894994537
0.7894176938
0.7891398194
0.7887575775
0.7882679781
0.7876386871
0.7869526053
0.7857590865
0.7855099723
0.7849244825
0.7844466967
0.7841427167
0.7840989962
0.784245732
0.7845651294
0.7850180257
0.7852259361
0.7852933082
0.785335492
0.7853982857
0.7854922859
0.7856127489
0.7857577257
0.785921334
0.7860964965
0.7862777916
0.7864606949
0.7866395957
0.7178055052
0.7190329496
0.7230432408
0.726060498
0.7281900646
0.7311392378
0.7349210591
0.7394652919
0.742312162
0.7448090475
0.7477913764
0.7513670009
0.7540263381
0.7564529065
0.7581424057
0.7618253846
0.7646896269
0.7673825278
0.7704748364
0.7736256351
0.776125912
0.7778918947
0.779584455
0.781587201
0.7827979854
0.7837938938
0.7847978931
0.7856790541
0.7864530781
0.7869144944
0.7874119495
0.7880300364
0.7883884072
0.7885211999
0.7886673316
0.7888814206
0.7891536249
0.7893562032
0.7894051128
0.7894297707
0.7894697832
0.7895380325
0.7896243249
0.7896613233
0.789678178
0.7896976609
0.789704815
0.7897152855
0.7897246621
0.7897174512
0.7897174861
0.7897116055
0.7896954081
0.7896992862
0.789674373
0.7896773492
0.7896389604
0.7895578176
0.789504193
0.7894423442
0.7892891947
0.7891769544
0.7888834253
0.7884809898
0.7881780507
0.7875712838
0.7869211087
0.7859087892
0.7848770238
0.7840406974
0.7823855903
0.7806556291
0.7795220064
0.7761536131
0.7727492139
0.7692620183
0.765665805
0.7622498534
0.7575603306
0.7566188113
0.7546706991
0.7532356352
0.7524729918
0.7524725443
0.7530935312
0.7542746736
0.7558157789
0.7564681265
0.7566168206
0.7567660654
0.7570520628
0.7574749913
0.7579973973
0.7586073359
0.7592880355
0.7600201996
0.7607889852
0.7615780402
0.7623474508
0.660659863
0.6618984859
0.6668596933
0.6695122014
0.6714711229
0.6750120415
0.6799229432
0.6860434564
0.6894048378
0.6921128102
0.6953885755
0.6994536913
0.7025273278
0.7052426497
0.7052652278
0.7098937422
0.7138036356
0.7176270131
0.7229077257
0.7277771241
0.7322216756
0.7361522763
0.7404614549
0.7454696763
0.7486400542
0.7514158405
0.754391488
0.7566248605
0.7597858055
0.7616163153
0.7639951756
0.7675408175
0.7699297448
0.7708118718
0.771877724
0.7736327985
0.7762157659
0.7785291078
0.7790878807
0.779412764
0.780001226
0.7810681692
0.7824855121
0.7830991827
0.7833890935
0.7837646372
0.7838927084
0.7841086092
0.7843027463
0.7841443553
0.7841505205
0.7840353701
0.7837305007
0.7838127917
0.7833174613
0.7833720603
0.7825775755
0.7813219548
0.7805399877
0.7796028937
0.7776340115
0.7763488172
0.773514827
0.7704332405
0.7684195157
0.7648558025
0.7615642934
0.757354845
0.7537912026
0.7512048442
0.7462040775
0.742298652
0.7394704887
0.7322015836
0.7263117638
0.7208719848
0.7158494393
0.7112497564
0.7052356548
0.7039116343
0.7017749845
0.7002280965
0.6995206762
0.6996653777
0.7005634556
0.7021134248
0.7040163142
0.70481062
0.7049862571
0.7052284973
0.705685207
0.7063278596
0.707083615
0.7079337308
0.7088603595
0.709841061
0.710861202
0.7119248654
0.712988302
0.6007177868
0.601899239
0.6042287997
0.6079575046