/*--------------------------------*- C++ -*----------------------------------*\
| =========                 |                                                 |
| \\      /  F ield         | OpenFOAM: The Open Source CFD Toolbox           |
|  \\    /   O peration     | Version:  v1706                                 |
|   \\  /    A nd           | Web:      www.OpenFOAM.com                      |
|    \\/     M anipulation  |                                                 |
\*---------------------------------------------------------------------------*/
FoamFile
{
    version     2.0;
    format      ascii;
    class       volScalarField;
    location    "0.0025";
    object      X_O;
}
// * * * * * * * * * * * * * * * * * * * * * * * * * * * * * * * * * * * * * //

dimensions      [0 0 0 0 0 0 0];


internalField   nonuniform List<scalar> 
11682
(
0
0
0
0
0
1.110223025e-16
0
0
0
0
0
0
1.110223025e-16
0
0
1.110223025e-16
0
0
0
0
0
0
0
0
0
0
0
1.110223025e-16
0
1.110223025e-16
0
0
0
0
0
0
0
1.110223025e-16
0
0
0
1.110223025e-16
0
0
0
0
0
1.110223025e-16
0
0
0
1.110223025e-16
0
1.110223025e-16
0
0
0
0
0
1.110223025e-16
0
0
1.110223025e-16
0
1.110223025e-16
0
1.110223025e-16
1.110223025e-16
1.110223025e-16
0
2.220446049e-16
0
0
0
1.110223025e-16
0
0
1.110223025e-16
0
1.110223025e-16
0
0
0
0
0
0
0
0
1.110223025e-16
0
1.110223025e-16
0
1.110223025e-16
1.110223025e-16
0
0
0
0
0
0
1.110223025e-16
0
1.110223025e-16
0
0
0
0
0
0
0
0
0
0
1.110223025e-16
0
1.110223025e-16
0
0
1.110223025e-16
0
0
0
0
0
0
0
0
0
0
1.110223025e-16
0
0
0
0
0
0
0
0
0
0
0
0
0
1.110223025e-16
0
0
0
0
0
0
0
0
1.110223025e-16
0
0
0
0
0
0
0
0
1.110223025e-16
0
0
0
0
0
0
0
2.220446049e-16
0
1.110223025e-16
1.110223025e-16
0
1.110223025e-16
0
1.110223025e-16
0
0
1.110223025e-16
0
0
1.110223025e-16
0
1.110223025e-16
0
1.110223025e-16
1.110223025e-16
0
0
0
0
0
0
0
0
0
0
0
0
0
1.110223025e-16
0
0
1.110223025e-16
0
0
0
0
0
1.110223025e-16
0
0
0
0
0
0
0
1.110223025e-16
0
0
0
1.110223025e-16
0
1.110223025e-16
0
0
0
0
0
0
1.110223025e-16
1.110223025e-16
1.110223025e-16
1.110223025e-16
1.110223025e-16
0
0
1.110223025e-16
0
1.110223025e-16
0
1.110223025e-16
0
1.110223025e-16
0
0
0
0
0
0
1.110223025e-16
0
0
0
0
1.110223025e-16
1.110223025e-16
0
0
0
0
0
0
0
0
0
0
1.110223025e-16
1.110223025e-16
0
0
0
1.110223025e-16
1.110223025e-16
1.110223025e-16
0
0
0
0
0
0
0
0
1.110223025e-16
1.110223025e-16
1.110223025e-16
0
0
0
0
0
0
0
1.110223025e-16
0
1.110223025e-16
0
0
0
0
0
0
0
0
1.110223025e-16
1.110223025e-16
0
0
0
0
0
0
0
1.110223025e-16
0
0
1.110223025e-16
0
0
1.110223025e-16
0
1.110223025e-16
1.110223025e-16
0
0
0
0
0
0
0
0
1.110223025e-16
0
0
0
0
1.110223025e-16
0
0
0
2.220446049e-16
0
0
0
0
0
1.110223025e-16
0
0
0
0
0
0
0
0
1.110223025e-16
0
0
0
0
0
0
0
0
0
1.110223025e-16
0
1.110223025e-16
0
0
0
0
0
0
0
1.110223025e-16
0
0
0
0
0
0
0
0
0
0
0
1.110223025e-16
0
0
1.110223025e-16
0
0
1.110223025e-16
0
0
1.110223025e-16
0
0
0
0
0
0
1.110223025e-16
0
1.110223025e-16
0
0
0
0
0
0
1.110223025e-16
1.110223025e-16
1.110223025e-16
0
1.110223025e-16
0
0
1.110223025e-16
0
0
0
1.110223025e-16
1.110223025e-16
0
0
0
1.110223025e-16
0
1.110223025e-16
1.110223025e-16
1.110223025e-16
0
0
1.110223025e-16
0
2.220446049e-16
1.110223025e-16
0
1.110223025e-16
0
0
0
0
1.110223025e-16
0
0
0
0
0
0
1.110223025e-16
0
0
0
1.110223025e-16
0
0
0
0
0
0
1.110223025e-16
0
0
1.110223025e-16
0
1.110223025e-16
0
0
1.110223025e-16
1.110223025e-16
1.110223025e-16
0
0
0
1.110223025e-16
0
1.110223025e-16
1.110223025e-16
0
0
0
0
1.110223025e-16
1.110223025e-16
0
1.110223025e-16
0
1.110223025e-16
1.110223025e-16
0
0
1.110223025e-16
1.110223025e-16
1.110223025e-16
0
0
0
1.110223025e-16
0
0
0
0
0
0
0
0
0
1.110223025e-16
0
1.110223025e-16
0
0
1.110223025e-16
0
0
1.110223025e-16
1.110223025e-16
0
1.110223025e-16
0
0
1.110223025e-16
1.110223025e-16
0
0
0
1.110223025e-16
0
0
0
0
0
0
2.220446049e-16
1.110223025e-16
0
1.110223025e-16
1.110223025e-16
0
0
0
0
0
1.110223025e-16
1.110223025e-16
0
0
0
0
0
0
0
1.110223025e-16
0
0
0
0
0
0
1.110223025e-16
1.110223025e-16
1.110223025e-16
0
2.220446049e-16
0
0
1.110223025e-16
1.110223025e-16
1.110223025e-16
1.110223025e-16
1.110223025e-16
0
0
0
1.110223025e-16
0
0
1.110223025e-16
0
0
0
0
0
0
1.110223025e-16
0
2.220446049e-16
1.110223025e-16
0
1.110223025e-16
0
1.110223025e-16
0
0
0
1.110223025e-16
0
1.110223025e-16
0
0
1.110223025e-16
0
0
0
0
0
2.220446049e-16
0
0
0
0
0
0
0
1.110223025e-16
2.220446049e-16
1.110223025e-16
0
0
0
0
0
0
1.110223025e-16
0
0
0
0
0
0
1.110223025e-16
0
0
0
1.110223025e-16
1.110223025e-16
0
1.110223025e-16
0
0
1.110223025e-16
0
1.110223025e-16
0
0
0
1.110223025e-16
0
0
0
1.110223025e-16
0
0
0
0
0
0
0
0
1.110223025e-16
0
2.220446049e-16
0
0
1.110223025e-16
1.110223025e-16
0
0
0
0
0
0
0
0
0
1.110223025e-16
0
0
0
0
0
0
1.110223025e-16
1.110223025e-16
0
1.110223025e-16
0
0
1.110223025e-16
0
1.110223025e-16
0
0
1.110223025e-16
1.110223025e-16
0
0
0
1.110223025e-16
0
0
0
0
0
0
1.110223025e-16
0
0
0
0
1.110223025e-16
1.110223025e-16
1.110223025e-16
1.110223025e-16
0
0
0
0
0
0
0
0
0
1.110223025e-16
1.110223025e-16
1.110223025e-16
0
0
1.110223025e-16
0
1.110223025e-16
1.110223025e-16
1.110223025e-16
1.110223025e-16
1.110223025e-16
1.110223025e-16
1.110223025e-16
0
0
1.110223025e-16
0
0
0
0
0
0
0
0
0
0
1.110223025e-16
1.110223025e-16
0
1.110223025e-16
0
0
0
1.110223025e-16
1.110223025e-16
1.110223025e-16
0
0
2.220446049e-16
1.110223025e-16
0
0
1.110223025e-16
0
1.110223025e-16
0
0
0
0
0
0
1.110223025e-16
0
0
0
0
0
0
0
1.110223025e-16
1.110223025e-16
0
0
0
0
0
0
0
2.220446049e-16
1.110223025e-16
0
0
0
0
1.110223025e-16
1.110223025e-16
0
0
0
1.110223025e-16
0
0
1.110223025e-16
1.110223025e-16
0
1.110223025e-16
0
1.110223025e-16
1.110223025e-16
1.110223025e-16
0
0
0
0
0
1.110223025e-16
1.110223025e-16
0
1.110223025e-16
0
2.220446049e-16
2.220446049e-16
0
2.220446049e-16
0
1.110223025e-16
0
2.220446049e-16
1.110223025e-16
1.110223025e-16
1.110223025e-16
0
0
0
0
1.110223025e-16
0
0
0
0
1.110223025e-16
0
0
0
0
0
0
0
0
0
0
1.110223025e-16
0
1.110223025e-16
2.220446049e-16
0
0
2.220446049e-16
0
0
2.220446049e-16
1.110223025e-16
0
1.110223025e-16
0
0
1.110223025e-16
0
0
0
0
0
0
0
0
1.110223025e-16
1.110223025e-16
0
1.110223025e-16
1.110223025e-16
0
1.110223025e-16
1.110223025e-16
0
0
1.110223025e-16
1.110223025e-16
1.110223025e-16
0
0
1.110223025e-16
1.110223025e-16
0
0
0
0
2.220446049e-16
1.110223025e-16
0
2.220446049e-16
0
0
1.110223025e-16
0
2.220446049e-16
0
0
1.110223025e-16
1.110223025e-16
1.110223025e-16
0
0
0
0
1.110223025e-16
0
0
0
2.220446049e-16
1.110223025e-16
1.110223025e-16
0
0
1.110223025e-16
0
1.110223025e-16
1.110223025e-16
2.220446049e-16
0
0
0
0
0
1.110223025e-16
0
1.110223025e-16
1.110223025e-16
0
0
0
1.110223025e-16
0
0
0
0
0
0
0
1.110223025e-16
0
0
1.110223025e-16
0
0
0
1.110223025e-16
1.110223025e-16
0
0
0
1.110223025e-16
0
0
0
0
0
0
0
1.110223025e-16
0
1.110223025e-16
0
0
0
0
1.110223025e-16
0
0
0
0
0
1.110223025e-16
0
1.110223025e-16
1.110223025e-16
0
0
2.220446049e-16
0
0
0
1.110223025e-16
0
0
0
0
1.110223025e-16
0
1.110223025e-16
1.110223025e-16
1.110223025e-16
1.110223025e-16
0
0
0
0
0
0
0
0
1.110223025e-16
0
0
1.110223025e-16
0
0
1.110223025e-16
2.220446049e-16
0
0
0
1.110223025e-16
0
0
1.110223025e-16
1.110223025e-16
0
1.110223025e-16
1.110223025e-16
0
1.110223025e-16
1.110223025e-16
0
1.110223025e-16
1.110223025e-16
0
1.110223025e-16
1.110223025e-16
1.110223025e-16
0
1.110223025e-16
1.110223025e-16
1.110223025e-16
0
0
0
0
0
0
0
1.110223025e-16
0
1.110223025e-16
0
0
0
2.220446049e-16
0
0
0
1.110223025e-16
0
1.110223025e-16
0
0
0
1.110223025e-16
0
1.110223025e-16
1.110223025e-16
1.110223025e-16
0
0
0
0
0
1.110223025e-16
0
1.110223025e-16
1.110223025e-16
0
0
1.110223025e-16
0
0
0
0
2.220446049e-16
1.110223025e-16
1.110223025e-16
0
0
0
0
0
0
0
0
0
1.110223025e-16
1.110223025e-16
1.110223025e-16
0
0
0
2.220446049e-16
1.110223025e-16
0
1.110223025e-16
0
0
0
0
0
0
1.110223025e-16
1.110223025e-16
0
2.220446049e-16
0
0
0
0
0
0
2.220446049e-16
0
2.220446049e-16
1.110223025e-16
0
1.110223025e-16
1.110223025e-16
1.110223025e-16
0
1.110223025e-16
0
1.110223025e-16
0
0
0
0
0
1.110223025e-16
0
0
1.110223025e-16
0
1.110223025e-16
0
0
1.110223025e-16
1.110223025e-16
1.110223025e-16
2.220446049e-16
1.110223025e-16
1.110223025e-16
1.110223025e-16
0
0
0
1.110223025e-16
0
0
1.110223025e-16
1.110223025e-16
0
0
0
0
0
0
0
0
0
1.110223025e-16
1.110223025e-16
0
0
0
0
3.330669074e-16
2.220446049e-16
3.330669074e-16
0
1.110223025e-16
0
0
0
0
1.110223025e-16
0
0
1.110223025e-16
0
0
1.110223025e-16
0
1.110223025e-16
0
0
0
1.110223025e-16
0
0
0
2.220446049e-16
1.110223025e-16
0
0
1.110223025e-16
1.110223025e-16
0
0
0
1.110223025e-16
0
0
1.110223025e-16
0
0
0
1.110223025e-16
0
0
2.220446049e-16
0
1.110223025e-16
1.110223025e-16
0
0
1.110223025e-16
0
0
1.110223025e-16
1.110223025e-16
1.110223025e-16
0
0
1.110223025e-16
1.110223025e-16
0
1.110223025e-16
0
1.110223025e-16
0
0
0
0
1.110223025e-16
1.110223025e-16
0
1.110223025e-16
0
1.110223025e-16
1.110223025e-16
0
2.220446049e-16
2.220446049e-16
1.110223025e-16
1.110223025e-16
1.110223025e-16
1.110223025e-16
0
0
0
0
0
0
1.110223025e-16
1.110223025e-16
1.110223025e-16
1.110223025e-16
0
0
1.110223025e-16
1.110223025e-16
2.220446049e-16
0
1.110223025e-16
7.771561172e-15
6.994405055e-15
5.551115123e-15
4.329869796e-15
3.774758284e-15
3.108624469e-15
2.775557562e-15
1.998401444e-15
1.887379142e-15
1.33226763e-15
1.221245327e-15
5.551115123e-16
5.551115123e-16
5.551115123e-16
5.551115123e-16
3.330669074e-16
1.110223025e-16
2.220446049e-16
2.220446049e-16
0
1.110223025e-16
0
0
0
0
2.220446049e-16
0
0
1.110223025e-16
1.110223025e-16
0
0
0
0
0
0
1.110223025e-16
2.220446049e-16
1.110223025e-16
0
0
0
0
1.110223025e-16
2.220446049e-16
0
2.220446049e-16
0
1.110223025e-16
0
1.110223025e-16
0
0
0
0
0
0
0
0
0
0
0
0
0
0
0
0
0
0
0
0
0
1.110223025e-16
1.110223025e-16
2.220446049e-16
0
5.551115123e-16
5.551115123e-16
1.221245327e-15
1.443289932e-15
1.887379142e-15
2.331468352e-15
2.775557562e-15
2.886579864e-15
2.886579864e-15
2.886579864e-15
2.664535259e-15
2.664535259e-15
2.664535259e-15
2.664535259e-15
2.664535259e-15
2.775557562e-15
2.886579864e-15
2.775557562e-15
2.775557562e-15
2.775557562e-15
2.775557562e-15
2.664535259e-15
2.553512957e-15
3.40283357e-13
3.059774656e-13
2.460254223e-13
1.929567617e-13
1.639799407e-13
1.370015212e-13
1.135758154e-13
9.02611319e-14
7.6716411e-14
6.361577931e-14
5.018208071e-14
3.752553823e-14
2.986499936e-14
2.398081733e-14
1.720845688e-14
1.187938636e-14
8.437694987e-15
7.327471963e-15
5.440092821e-15
3.774758284e-15
2.886579864e-15
1.998401444e-15
1.776356839e-15
1.221245327e-15
9.992007222e-16
7.771561172e-16
5.551115123e-16
3.330669074e-16
5.551115123e-16
2.220446049e-16
1.110223025e-16
3.330669074e-16
1.110223025e-16
3.330669074e-16
0
1.110223025e-16
1.110223025e-16
1.110223025e-16
1.110223025e-16
0
1.110223025e-16
1.110223025e-16
0
0
1.110223025e-16
0
2.220446049e-16
2.220446049e-16
1.110223025e-16
1.110223025e-16
0
0
0
0
0
0
0
1.110223025e-16
0
0
0
1.110223025e-16
3.330669074e-16
2.220446049e-16
1.110223025e-16
1.110223025e-16
6.661338148e-16
7.771561172e-16
7.771561172e-16
1.221245327e-15
1.887379142e-15
2.442490654e-15
3.108624469e-15
4.884981308e-15
7.66053887e-15
1.165734176e-14
1.731947918e-14
2.098321517e-14
4.574118861e-14
5.040412532e-14
7.172040739e-14
8.659739592e-14
1.012523398e-13
1.06803455e-13
1.056932319e-13
1.040278974e-13
9.90318938e-14
9.625633624e-14
9.625633624e-14
9.703349235e-14
9.725553696e-14
9.781064847e-14
9.647838084e-14
9.536815782e-14
9.392486788e-14
9.248157795e-14
9.214851104e-14
9.114931032e-14
8.859579737e-14
1.481492706e-11
1.348776646e-11
1.084676793e-11
8.525624651e-12
7.241762745e-12
6.041500633e-12
5.01476638e-12
3.986810881e-12
3.391176229e-12
2.804756427e-12
2.216116179e-12
1.662558979e-12
1.322719712e-12
1.062039345e-12
7.56505969e-13
5.270228698e-13
4.103384299e-13
3.177458296e-13
2.430278201e-13
1.609823386e-13
1.207922651e-13
9.492406861e-14
7.760458942e-14
5.517808432e-14
4.551914401e-14
3.674838212e-14
2.897682094e-14
2.087219286e-14
1.509903313e-14
1.187938636e-14
9.325873407e-15
6.994405055e-15
5.995204333e-15
4.773959006e-15
4.440892099e-15
3.885780586e-15
2.664535259e-15
1.998401444e-15
1.998401444e-15
1.665334537e-15
1.665334537e-15
1.443289932e-15
1.221245327e-15
1.221245327e-15
8.881784197e-16
6.661338148e-16
5.551115123e-16
7.771561172e-16
7.771561172e-16
6.661338148e-16
8.881784197e-16
6.661338148e-16
1.221245327e-15
9.992007222e-16
1.221245327e-15
1.221245327e-15
1.33226763e-15
1.776356839e-15
1.665334537e-15
2.331468352e-15
2.997602166e-15
3.108624469e-15
4.329869796e-15
6.439293543e-15
8.326672685e-15
1.132427485e-14
1.576516695e-14
2.209343819e-14
3.985700658e-14
5.40678613e-14
7.394085344e-14
1.109112802e-13
1.264544025e-13
1.968425423e-13
3.149702721e-13
4.535261056e-13
6.954437026e-13
8.3322238e-13
1.792344051e-12
1.925792859e-12
2.740585536e-12
3.34154926e-12
3.982481012e-12
4.257705299e-12
4.363953643e-12
4.227285189e-12
3.968936291e-12
3.845590513e-12
3.844369267e-12
3.852362873e-12
3.847477892e-12
3.821165606e-12
3.773092949e-12
3.704481166e-12
3.621436484e-12
3.523736858e-12
3.408828775e-12
3.29236638e-12
3.168687535e-12
7.173506233e-10
6.618084969e-10
5.322783325e-10
4.186647695e-10
3.558111583e-10
2.965994117e-10
2.462824389e-10
1.958280205e-10
1.667592731e-10
1.378133163e-10
1.088531487e-10
8.161293863e-11
6.497846705e-11
5.201583608e-11
3.702005369e-11
2.376687736e-11
1.813482697e-11
1.402777894e-11
1.065592059e-11
7.150946502e-12
5.330957897e-12
4.179434576e-12
3.43514106e-12
2.426947532e-12
2.010835942e-12
1.623590151e-12
1.269317984e-12
9.167111514e-13
6.726841306e-13
5.269118475e-13
4.194422587e-13
2.996491943e-13
2.531308496e-13
2.235989172e-13
1.990629883e-13
1.710853681e-13
1.219024881e-13
9.44799794e-14
8.149037001e-14
7.738254482e-14
7.160938509e-14
6.206146708e-14
5.084821453e-14
4.629630013e-14
4.285460875e-14
4.030109579e-14
3.852473895e-14
3.719247132e-14
3.630429291e-14
3.697042672e-14
3.752553823e-14
3.863576126e-14
4.218847494e-14
4.274358645e-14
4.707345624e-14
4.884981308e-14
5.42899059e-14
6.972200595e-14
8.204548152e-14
9.547918012e-14
1.20015109e-13
1.415534356e-13
1.944000516e-13
2.711164626e-13
3.435030038e-13
4.705125178e-13
6.538103392e-13
8.960610032e-13
1.676658812e-12
2.260858167e-12
3.074873689e-12
4.762967798e-12
5.722977647e-12
8.847811372e-12
1.409750094e-11
2.018296641e-11
2.972833091e-11
3.821087891e-11
7.811118419e-11
8.491007897e-11
1.197966171e-10
1.437182595e-10
1.669488991e-10
1.78512094e-10
1.810074313e-10
1.71786918e-10
1.585016562e-10
1.533515537e-10
1.538038585e-10
1.5360202e-10
1.525640725e-10
1.507480807e-10
1.482146628e-10
1.450025655e-10
1.41141987e-10
1.365825231e-10
1.311376563e-10
1.25988997e-10
1.206401645e-10
3.157549033e-08
2.915168995e-08
2.34504508e-08
1.84600103e-08
1.570023012e-08
1.307697128e-08
1.086416868e-08
8.640559934e-09
7.368950339e-09
6.08429207e-09
4.804423637e-09
3.600237442e-09
2.870889748e-09
2.299007762e-09
1.631340285e-09
1.156502116e-09
8.896955395e-10
6.879625758e-10
5.188323104e-10
3.525859604e-10
2.610047733e-10
2.047033654e-10
1.677282757e-10
1.19343313e-10
9.876832685e-11
7.956313386e-11
6.204425862e-11
4.450073643e-11
3.260614001e-11
2.406708166e-11
1.978373021e-11
1.389321991e-11
1.121358562e-11
9.884759677e-12
8.783307415e-12
7.46669393e-12
5.38413758e-12
4.10971257e-12
3.572142582e-12
3.423150652e-12
3.153255435e-12
2.71760392e-12
2.21567209e-12
2.010058786e-12
1.874500555e-12
1.746713885e-12
1.680544592e-12
1.62303504e-12
1.571520691e-12
1.606492717e-12
1.628919222e-12
1.675548589e-12
1.829758567e-12
1.848188269e-12
2.03870254e-12
2.095212892e-12
2.32658337e-12
3.018363337e-12
3.640865387e-12
4.14923651e-12
5.415889959e-12
6.69519995e-12
9.095169062e-12
1.258926297e-11
1.583466691e-11
2.207811711e-11
3.048250541e-11
4.270184206e-11
7.766343124e-11
1.033916286e-10
1.407667316e-10
2.141786748e-10
2.578902647e-10
4.000277887e-10
6.297282695e-10
8.950170605e-10
1.294400809e-09
1.744506095e-09
3.015012906e-09
3.294780226e-09
4.586267255e-09
5.264156444e-09
6.23579044e-09
6.56001653e-09
6.57137289e-09
6.094232785e-09
5.507711176e-09
5.346915355e-09
5.402666314e-09
5.369970246e-09
5.305334172e-09
5.214464416e-09
5.098458433e-09
4.958508826e-09
4.796505082e-09
4.615740901e-09
4.376383256e-09
4.185274238e-09
3.987512875e-09
1.543339399e-06
1.424896158e-06
1.147381342e-06
9.034815192e-07
7.688228522e-07
6.399271091e-07
5.171586946e-07
3.952979186e-07
3.255910939e-07
2.679466515e-07
2.115230892e-07
1.584182744e-07
1.265326935e-07
1.011307504e-07
7.164759919e-08
5.128842206e-08
3.929149561e-08
3.036468499e-08
2.27243715e-08
1.565325303e-08
1.150205797e-08
9.028998771e-09
7.363216481e-09
5.295916372e-09
4.37160641e-09
3.513547231e-09
2.736582072e-09
1.953465056e-09
1.430432883e-09
1.166036045e-09
9.583027705e-10
6.81596668e-10
5.46462875e-10
4.832018119e-10
4.292721734e-10
3.616299482e-10
2.623723461e-10
1.983723186e-10
1.733065913e-10
1.669987482e-10
1.53492663e-10
1.312933096e-10
1.067453903e-10
9.725809047e-11
9.065903583e-11
8.432066156e-11
8.111267213e-11
7.815625924e-11
7.546008263e-11
7.73267006e-11
7.827283266e-11
8.049316769e-11
8.746914304e-11
8.785761008e-11
9.732237238e-11
9.9645181e-11
1.111253312e-10
1.438574815e-10
1.722908483e-10
1.964615137e-10
2.557394296e-10
3.164057905e-10
4.292290967e-10
5.889598809e-10
7.398904822e-10
1.028716667e-09
1.424347196e-09
1.924388759e-09
3.368783585e-09
4.143349774e-09
5.676106918e-09
8.803102913e-09
1.015078099e-08
1.599201149e-08
2.522951659e-08
3.52337437e-08
5.091436495e-08
6.61494749e-08
1.204470087e-07
1.281412683e-07
1.706493119e-07
2.002571768e-07
2.306990714e-07
2.377202142e-07
2.370562634e-07
2.279157911e-07
2.116617848e-07
1.988436239e-07
1.918112876e-07
1.876257609e-07
1.840521336e-07
1.798895185e-07
1.748651871e-07
1.689776766e-07
1.623311456e-07
1.551000519e-07
1.474731918e-07
1.395382894e-07
1.313591882e-07
6.680267238e-05
6.168766279e-05
4.97412331e-05
3.919470914e-05
3.338293877e-05
2.777212537e-05
2.245425057e-05
1.716589805e-05
1.415737344e-05
1.16452619e-05
9.19149911e-06
6.880116843e-06
5.504890657e-06
4.427518563e-06
3.472502784e-06
2.500722231e-06
1.921705548e-06
1.484618329e-06
1.102307455e-06
7.697439127e-07
5.609799506e-07
4.409755017e-07
3.519256077e-07
2.425834849e-07
1.931591802e-07
1.547719441e-07
1.20421753e-07
8.559670162e-08
6.270155162e-08
5.138134274e-08
4.184423097e-08
3.019554784e-08
2.400935106e-08
2.132486565e-08
1.892901891e-08
1.578788089e-08
1.156932738e-08
8.631898307e-09
7.596218876e-09
7.362982779e-09
6.749947601e-09
5.716184637e-09
4.649188257e-09
4.253707386e-09
3.963207762e-09
3.677191884e-09
3.540252536e-09
3.40228945e-09
3.273588955e-09
3.366587009e-09
3.395240089e-09
3.481002042e-09
3.799883408e-09
3.766581047e-09
4.212107552e-09
4.252243335e-09
4.731419034e-09
6.2071146e-09
7.383705314e-09
8.289339992e-09
1.111242121e-08
1.315847986e-08
1.814007744e-08
2.492155193e-08
3.074133781e-08
4.36734674e-08
5.845901141e-08
8.303274379e-08
1.372481547e-07
1.66821864e-07
2.395138379e-07
3.51349541e-07
4.156260128e-07
6.517112547e-07
1.008586257e-06
1.496848387e-06
2.210004418e-06
2.959815776e-06
4.861747912e-06
5.181298548e-06
6.426038266e-06
7.407583453e-06
8.351128758e-06
8.540051093e-06
8.433295639e-06
8.01263065e-06
7.34233133e-06
6.906730596e-06
6.709595953e-06
6.605272373e-06
6.510947914e-06
6.391016062e-06
6.238218983e-06
6.051877881e-06
5.837396485e-06
5.603895904e-06
5.35928278e-06
5.109812431e-06
4.855521491e-06
0.002403211587
0.002239186725
0.00184324152
0.001483214344
0.001278331978
0.001073804121
0.0008763091854
0.0006760634806
0.0005611300717
0.0004634024022
0.0003672117962
0.0002757498035
0.0002215799714
0.0001795456612
0.0001480486224
0.0001082342139
8.342863178e-05
6.446597788e-05
4.783591391e-05
3.334688168e-05
2.432266103e-05
1.916527924e-05
1.519700721e-05
1.06043097e-05
8.405897701e-06
6.730420165e-06
5.229069134e-06
3.96313319e-06
3.020213751e-06
2.503498095e-06
2.018853786e-06
1.479077469e-06
1.164814375e-06
1.039598346e-06
9.226548208e-07
7.608958555e-07
5.630692845e-07
4.14459905e-07
3.678032161e-07
3.47877841e-07
3.199210723e-07
2.734631593e-07
2.157020369e-07
1.863654153e-07
1.728799716e-07
1.59946719e-07
1.541805013e-07
1.477475583e-07
1.416160044e-07
1.462971086e-07
1.468688938e-07
1.510112051e-07
1.639769364e-07
1.620964977e-07
1.809347636e-07
1.805848839e-07
2.05133429e-07
2.670951096e-07
3.119126862e-07
3.565288161e-07
4.793359202e-07
5.6539243e-07
7.95979079e-07
1.158982117e-06
1.431973071e-06
2.02662122e-06
2.712055185e-06
3.849918119e-06
5.62451186e-06
6.768447185e-06
9.745994177e-06
1.401571572e-05
1.664918785e-05
2.616422885e-05
4.007536767e-05
5.901440204e-05
8.582778363e-05
0.0001158053252
0.0001810944868
0.0001922444311
0.0002274324754
0.0002556759905
0.0002814650599
0.0002856539381
0.0002795431861
0.0002638640274
0.0002424979154
0.0002300579693
0.0002247742651
0.00022201673
0.0002191800192
0.000215250688
0.0002098124874
0.0002027154791
0.0001943004748
0.0001852255605
0.0001758664957
0.000166484524
0.0001571529751
0.01691262202
0.01624337889
0.01441507255
0.01279257034
0.01176077004
0.01058812137
0.009299542465
0.007847990976
0.006940733205
0.006123245181
0.005230023525
0.004277989129
0.003667770931
0.003328508551
0.004249065049
0.003634400502
0.002925665955
0.002336940098
0.001782949302
0.001275763192
0.000946867213
0.0007543288857
0.0005983101701
0.0004254989868
0.0003369986006
0.0002704239739
0.0002105522053
0.0001647739229
0.0001302139574
0.0001085814496
8.754150748e-05
6.371716418e-05
5.029693065e-05
4.519978592e-05
4.011723262e-05
3.296785535e-05
2.419160915e-05
1.771603659e-05
1.59116322e-05
1.509241368e-05
1.386077496e-05
1.178987299e-05
9.206925797e-06
7.996103813e-06
7.444044712e-06
6.86915452e-06
6.633084114e-06
6.335851993e-06
6.060210829e-06
6.270389631e-06
6.282379155e-06
6.460510722e-06
6.987098165e-06
6.887989384e-06
7.675812801e-06
7.632755496e-06
8.729079204e-06
1.13317172e-05
1.312808944e-05
1.505646818e-05
2.013492101e-05
2.37730271e-05
3.357950984e-05
4.828663044e-05
5.953177748e-05
8.390861872e-05
0.0001118332822
0.000157841111
0.0002150421765
0.0002550036832
0.0003658911484
0.0005137996452
0.000612469186
0.0009475894683
0.001411549162
0.002006204699
0.002772825374
0.003611146941
0.0047725482
0.004928515351
0.004297266241
0.004158156919
0.004204025986
0.004207698151
0.004146104718
0.004113659118
0.004644949799
0.004933223312
0.005017280241
0.005055399358
0.005097297879
0.00516522717
0.005175291255
0.005090510649
0.004912615777
0.004703881988
0.004484978723
0.004263428107
0.004046264309
0.05511368402
0.05402694172
0.05040318109
0.04790744255
0.04617694029
0.04379067561
0.0407586782
0.03709209076
0.03479755027
0.03279548804
0.0304234164
0.02761873642
0.02558381573
0.02393217892
0.02397526977
0.02130400978
0.01893183102
0.01671163917
0.0142118776
0.01176977177
0.009863857597
0.008538081559
0.007288291036
0.005810904059
0.004934400831
0.004222254402
0.003564125769
0.003954864553
0.004201309484
0.003658067431
0.003053114668
0.002301520696
0.001862809617
0.001699898618
0.001522922691
0.001264216406
0.0009351323503
0.0006889076152
0.0006284782078
0.0005981012345
0.0005494958486
0.0004666064442
0.0003620981598
0.0003169628554
0.0002963704451
0.0002728673299
0.0002642132783
0.0002516001416
0.0002403547264
0.0002489140412
0.0002488837377
0.0002559291349
0.000275533006
0.0002709548887
0.0003011645732
0.000298061304
0.0003433616384
0.0004421071781
0.0005072915119
0.0005822873462
0.0007686167825
0.000904132469
0.001258696048
0.001748289743
0.002115132645
0.002854033955
0.003646402549
0.004756525378
0.003979838227
0.00418002395
0.005276155275
0.006524601042
0.007358363243
0.009868629632
0.01247338621
0.01521515085
0.01814042067
0.02100633125
0.02492040965
0.02563139534
0.02642525836
0.02706291198
0.02746034073
0.02740984619
0.02695806088
0.02620052505
0.02556383164
0.02548252937
0.02558983363
0.02560789522
0.02550263411
0.02530533353
0.02501391439
0.02461206072
0.02410515967
0.02352823362
0.0229076984
0.02226328325
0.02162858514
0.1053964138
0.1041596455
0.09894649098
0.09657749488
0.0948529731
0.09168665521
0.08728799563
0.08170695072
0.07860699498
0.07611589928
0.07311529087
0.06943799401
0.06672869539
0.06453479394
0.0659040087
0.06211260591
0.05863980466
0.0552098693
0.05052675731
0.04651138301
0.0428721391
0.03970385617
0.03625947786
0.03226067868
0.0297605725
0.02758594335
0.02534992236
0.02459792858
0.02291301163
0.02144894442
0.01946946267
0.01658358249
0.01464149241
0.01393129627
0.01309962907
0.0117493129
0.009791864711
0.008062797525
0.007642124466
0.007402216092
0.006972714015
0.006193123217
0.005164147388
0.004719274822
0.004511399591
0.004247026129
0.004157810742
0.004009293058
0.00387838295
0.003985391451
0.003981314715
0.004058481654
0.004274085998
0.004216676343
0.004567421901
0.004535387854
0.005088669336
0.006007244351
0.006578826966
0.007266518167
0.008721538136
0.00966486711
0.01180731725
0.0142120544
0.01579836027
0.01870260879
0.02141827806
0.02493786352
0.02662163622
0.0280587101
0.03186925525
0.03494940527
0.03722224262
0.04313600407
0.04796019821
0.05255509084
0.05695659055
0.06115036847
0.06678189032
0.067887322
0.06940603916
0.07036495304
0.07085644182
0.07068764988
0.06992469933
0.06868644655
0.06734890037
0.06702148035
0.06713097476
0.06710820853
0.06686901759
0.06646147274
0.06593765482
0.06530465016
0.06457409431
0.06377217313
0.06292227984
0.06202396058
0.06111279574
0.1613558947
0.1602015594
0.1580012266
0.1544983658
0.1523007738
0.1471715294
0.1412850371
0.1334248015
0.129811115
0.1269597921
0.1235426345
0.1192956658
0.11626399
0.1137543482
0.1181108805
0.1139002059
0.1100673284
0.106257909
0.09993876217
0.09592199706
0.09187313063
0.08729483839
0.08185594249
0.07614987624
0.07280985191
0.06990072198
0.06700133118
0.06748685013
0.06424938148
0.06271434874
0.05997153695
0.05525115906
0.05168495209
0.05056360642
0.04923590074
0.04687779998
0.04310015233
0.03904788433
0.03804891693
0.03741385979
0.0361566911
0.03374380596
0.03064345817
0.02933531772
0.02872413405
0.02787707384
0.02760206486
0.02709496998
0.02661985737
0.02703603253
0.02699699545
0.02730084511
0.02798978354
0.02790128072
0.02907841732
0.02947830611
0.03099862571
0.033420036
0.0350699524
0.03711108657
0.04105683778
0.04313712484
0.04720475616
0.05134851617
0.05386606976
0.05851501309
0.06260644861
0.06757100294
0.0708466477
0.07263924214
0.07762248021
0.08166983936
0.08453117021
0.09228218864
0.09771873722
0.1028818473
0.1076243109
0.1123259403
0.1189942525
0.1202541091
0.1223401941
0.1231908163
0.1237324791
0.1234917321
0.1225104855
0.1209442971
0.1190533249
0.1186898081
0.1187581717
0.1186616065
0.1183195073
0.11775454
0.117063323
0.1162662314
0.1153941437
0.1144637701
0.1135381868
0.1125316548
0.111313208
0.2109256812
0.2100775081
0.2083541285
0.2056701664
0.204008407
0.2029714595
0.2006464149
0.1977542905
0.1950736041
0.1923968444
0.1890835473
0.1848863536
0.1818453395
0.1790619331
0.1746114138
0.1703169145
0.166680907
0.1631239792
0.15945432
0.1542651956
0.149476379
0.1432037396
0.1353145729
0.1278458567
0.123932575
0.1205436573
0.1172065677
0.1207403819
0.1161107885
0.1153077762
0.1123321782
0.1069328401
0.1020445944
0.1009427557
0.09966227729
0.0972109843
0.09301224109
0.08735633905
0.08606528019
0.08515561817
0.08316107825
0.07929287773
0.07456965613
0.07282601942
0.07203159239
0.07086816711
0.07052136437
0.06981498739
0.0691288095
0.06972624751
0.0696656907
0.07010565873
0.07105610241
0.0711640368
0.07291816843
0.07415356829
0.07602157159
0.07912265883
0.08151040493
0.08478250756
0.09066257618
0.09312039139
0.09764767925
0.1022524083
0.1048964041
0.1104008131
0.1151136188
0.1205962233
0.1251819165
0.1266773279
0.132070137
0.1372645787
0.1402764702
0.1500261092
0.1557301156
0.1612648352
0.166018427
0.1699488996
0.1766107286
0.1777440191
0.1800284318
0.1815865014
0.182212121
0.1819166099
0.1808316922
0.1791460049
0.1769279207
0.1761617557
0.1760906153
0.1759009262
0.1755525193
0.1749039223
0.1741343049
0.1732523963
0.1723207839
0.1713986453
0.1704933812
0.1694327437
0.1682098607
0.2442176228
0.2437172361
0.2426695656
0.2410585329
0.240061555
0.2391276772
0.2378025366
0.235942646
0.234432919
0.232744546
0.2306086547
0.2278632994
0.2258560091
0.2239653121
0.2210262201
0.2178643657
0.2151614274
0.2127472387
0.210026456
0.2060240206
0.2028383443
0.2007470633
0.1981243261
0.1940898192
0.1904889401
0.187147474
0.1835917479
0.1781040694
0.1756686807
0.1727266868
0.1698598414
0.1646183536
0.1619455122
0.1607097225
0.159123652
0.1562641659
0.1516662241
0.1439608213
0.142619205
0.141532819
0.1381563704
0.1328440483
0.1267432765
0.1247554822
0.1238807351
0.122495342
0.1221836971
0.1213296865
0.1204836198
0.1212664431
0.1211501972
0.1217072802
0.1228219245
0.1232346919
0.1254787704
0.1276028502
0.129641096
0.1332922282
0.1363077323
0.1408222548
0.149008845
0.1516050906
0.1565009845
0.1613748922
0.1640301311
0.1687520253
0.1733469122
0.1785692656
0.1831344225
0.186665755
0.1918700356
0.1969783242
0.1989031037
0.2049162074
0.209263572
0.2133787561
0.2170823236
0.2197945906
0.2244181436
0.2250888635
0.2267932802
0.2277043561
0.2281689254
0.2278913415
0.2271124269
0.2259290238
0.2242171967
0.2238848187
0.2238760539
0.2237261305
0.2234123596
0.2228358381
0.2224166137
0.2217387599
0.2209960889
0.2202451433
0.2195021712
0.2186430632
0.2178542241
0.2619606262
0.2617239411
0.2612315945
0.2604549797
0.2599723201
0.2595043956
0.2588534025
0.257887459
0.2571435486
0.2562778467
0.2552390248
0.2538689991
0.2528228474
0.2518045571
0.2502611255
0.2484751587
0.2471799992
0.2455883189
0.2440220477
0.2415992091
0.2398242953
0.2384932535
0.2368163717
0.234202291
0.2319922757
0.2299166302
0.2275820828
0.2240834714
0.2222565507
0.2203313422
0.2182899712
0.2145128461
0.2125725737
0.2117773001
0.2105752681
0.2084559756
0.2049974372
0.2019202579
0.2013139188
0.2007124337
0.2001511304
0.1981433688
0.19419673
0.1925019421
0.1917467002
0.1903783665
0.1902015043
0.1893596703
0.1884710771
0.1893973209
0.1892583006
0.1898885863
0.1910112986
0.1902553821
0.1920250375