/*--------------------------------*- C++ -*----------------------------------*\
| =========                 |                                                 |
| \\      /  F ield         | OpenFOAM: The Open Source CFD Toolbox           |
|  \\    /   O peration     | Version:  v1706                                 |
|   \\  /    A nd           | Web:      www.OpenFOAM.com                      |
|    \\/     M anipulation  |                                                 |
\*---------------------------------------------------------------------------*/
FoamFile
{
    version     2.0;
    format      ascii;
    class       volScalarField;
    location    "0.0025";
    object      X_O2;
}
// * * * * * * * * * * * * * * * * * * * * * * * * * * * * * * * * * * * * * //

dimensions      [0 0 0 0 0 0 0];


internalField   nonuniform List<scalar> 
11682
(
0.210076595
0.210076595
0.210076595
0.210076595
0.210076595
0.210076595
0.210076595
0.210076595
0.210076595
0.210076595
0.210076595
0.210076595
0.210076595
0.210076595
0.210076595
0.210076595
0.210076595
0.210076595
0.210076595
0.210076595
0.210076595
0.210076595
0.210076595
0.210076595
0.210076595
0.210076595
0.210076595
0.210076595
0.210076595
0.210076595
0.210076595
0.210076595
0.210076595
0.210076595
0.210076595
0.210076595
0.210076595
0.210076595
0.210076595
0.210076595
0.210076595
0.210076595
0.210076595
0.210076595
0.210076595
0.210076595
0.210076595
0.210076595
0.210076595
0.210076595
0.210076595
0.210076595
0.210076595
0.210076595
0.210076595
0.210076595
0.210076595
0.210076595
0.210076595
0.210076595
0.210076595
0.210076595
0.210076595
0.210076595
0.210076595
0.210076595
0.210076595
0.210076595
0.210076595
0.210076595
0.210076595
0.210076595
0.210076595
0.210076595
0.210076595
0.210076595
0.210076595
0.210076595
0.210076595
0.210076595
0.210076595
0.210076595
0.210076595
0.210076595
0.210076595
0.210076595
0.210076595
0.210076595
0.210076595
0.210076595
0.210076595
0.210076595
0.210076595
0.210076595
0.210076595
0.210076595
0.210076595
0.210076595
0.210076595
0.210076595
0.210076595
0.210076595
0.210076595
0.210076595
0.210076595
0.210076595
0.210076595
0.210076595
0.210076595
0.210076595
0.210076595
0.210076595
0.210076595
0.210076595
0.210076595
0.210076595
0.210076595
0.210076595
0.210076595
0.210076595
0.210076595
0.210076595
0.210076595
0.210076595
0.210076595
0.210076595
0.210076595
0.210076595
0.210076595
0.210076595
0.210076595
0.210076595
0.210076595
0.210076595
0.210076595
0.210076595
0.210076595
0.210076595
0.210076595
0.210076595
0.210076595
0.210076595
0.210076595
0.210076595
0.210076595
0.210076595
0.210076595
0.210076595
0.210076595
0.210076595
0.210076595
0.210076595
0.210076595
0.210076595
0.210076595
0.210076595
0.210076595
0.210076595
0.210076595
0.210076595
0.210076595
0.210076595
0.210076595
0.210076595
0.210076595
0.210076595
0.210076595
0.210076595
0.210076595
0.210076595
0.210076595
0.210076595
0.210076595
0.210076595
0.210076595
0.210076595
0.210076595
0.210076595
0.210076595
0.210076595
0.210076595
0.210076595
0.210076595
0.210076595
0.210076595
0.210076595
0.210076595
0.210076595
0.210076595
0.210076595
0.210076595
0.210076595
0.210076595
0.210076595
0.210076595
0.210076595
0.210076595
0.210076595
0.210076595
0.210076595
0.210076595
0.210076595
0.210076595
0.210076595
0.210076595
0.210076595
0.210076595
0.210076595
0.210076595
0.210076595
0.210076595
0.210076595
0.210076595
0.210076595
0.210076595
0.210076595
0.210076595
0.210076595
0.210076595
0.210076595
0.210076595
0.210076595
0.210076595
0.210076595
0.210076595
0.210076595
0.210076595
0.210076595
0.210076595
0.210076595
0.210076595
0.210076595
0.210076595
0.210076595
0.210076595
0.210076595
0.210076595
0.210076595
0.210076595
0.210076595
0.210076595
0.210076595
0.210076595
0.210076595
0.210076595
0.210076595
0.210076595
0.210076595
0.210076595
0.210076595
0.210076595
0.210076595
0.210076595
0.210076595
0.210076595
0.210076595
0.210076595
0.210076595
0.210076595
0.210076595
0.210076595
0.210076595
0.210076595
0.210076595
0.210076595
0.210076595
0.210076595
0.210076595
0.210076595
0.210076595
0.210076595
0.210076595
0.210076595
0.210076595
0.210076595
0.210076595
0.210076595
0.210076595
0.210076595
0.210076595
0.210076595
0.210076595
0.210076595
0.210076595
0.210076595
0.210076595
0.210076595
0.210076595
0.210076595
0.210076595
0.210076595
0.210076595
0.210076595
0.210076595
0.210076595
0.210076595
0.210076595
0.210076595
0.210076595
0.210076595
0.210076595
0.210076595
0.210076595
0.210076595
0.210076595
0.210076595
0.210076595
0.210076595
0.210076595
0.210076595
0.210076595
0.210076595
0.210076595
0.210076595
0.210076595
0.210076595
0.210076595
0.210076595
0.210076595
0.210076595
0.210076595
0.210076595
0.210076595
0.210076595
0.210076595
0.210076595
0.210076595
0.210076595
0.210076595
0.210076595
0.210076595
0.210076595
0.210076595
0.210076595
0.210076595
0.210076595
0.210076595
0.210076595
0.210076595
0.210076595
0.210076595
0.210076595
0.210076595
0.210076595
0.210076595
0.210076595
0.210076595
0.210076595
0.210076595
0.210076595
0.210076595
0.210076595
0.210076595
0.210076595
0.210076595
0.210076595
0.210076595
0.210076595
0.210076595
0.210076595
0.210076595
0.210076595
0.210076595
0.210076595
0.210076595
0.210076595
0.210076595
0.210076595
0.210076595
0.210076595
0.210076595
0.210076595
0.210076595
0.210076595
0.210076595
0.210076595
0.210076595
0.210076595
0.210076595
0.210076595
0.210076595
0.210076595
0.210076595
0.210076595
0.210076595
0.210076595
0.210076595
0.210076595
0.210076595
0.210076595
0.210076595
0.210076595
0.210076595
0.210076595
0.210076595
0.210076595
0.210076595
0.210076595
0.210076595
0.210076595
0.210076595
0.210076595
0.210076595
0.210076595
0.210076595
0.210076595
0.210076595
0.210076595
0.210076595
0.210076595
0.210076595
0.210076595
0.210076595
0.210076595
0.210076595
0.210076595
0.210076595
0.210076595
0.210076595
0.210076595
0.210076595
0.210076595
0.210076595
0.210076595
0.210076595
0.210076595
0.210076595
0.210076595
0.210076595
0.210076595
0.210076595
0.210076595
0.210076595
0.210076595
0.210076595
0.210076595
0.210076595
0.210076595
0.210076595
0.210076595
0.210076595
0.210076595
0.210076595
0.210076595
0.210076595
0.210076595
0.210076595
0.210076595
0.210076595
0.210076595
0.210076595
0.210076595
0.210076595
0.210076595
0.210076595
0.210076595
0.210076595
0.210076595
0.210076595
0.210076595
0.210076595
0.210076595
0.210076595
0.210076595
0.210076595
0.210076595
0.210076595
0.210076595
0.210076595
0.210076595
0.210076595
0.210076595
0.210076595
0.210076595
0.210076595
0.210076595
0.210076595
0.210076595
0.210076595
0.210076595
0.210076595
0.210076595
0.210076595
0.210076595
0.210076595
0.210076595
0.210076595
0.210076595
0.210076595
0.210076595
0.210076595
0.210076595
0.210076595
0.210076595
0.210076595
0.210076595
0.210076595
0.210076595
0.210076595
0.210076595
0.210076595
0.210076595
0.210076595
0.210076595
0.210076595
0.210076595
0.210076595
0.210076595
0.210076595
0.210076595
0.210076595
0.210076595
0.210076595
0.210076595
0.210076595
0.210076595
0.210076595
0.210076595
0.210076595
0.210076595
0.210076595
0.210076595
0.210076595
0.210076595
0.210076595
0.210076595
0.210076595
0.210076595
0.210076595
0.210076595
0.210076595
0.210076595
0.210076595
0.210076595
0.210076595
0.210076595
0.210076595
0.210076595
0.210076595
0.210076595
0.210076595
0.210076595
0.210076595
0.210076595
0.210076595
0.210076595
0.210076595
0.210076595
0.210076595
0.210076595
0.210076595
0.210076595
0.210076595
0.210076595
0.210076595
0.210076595
0.210076595
0.210076595
0.210076595
0.210076595
0.210076595
0.210076595
0.210076595
0.210076595
0.210076595
0.210076595
0.210076595
0.210076595
0.210076595
0.210076595
0.210076595
0.210076595
0.210076595
0.210076595
0.210076595
0.210076595
0.210076595
0.210076595
0.210076595
0.210076595
0.210076595
0.210076595
0.210076595
0.210076595
0.210076595
0.210076595
0.210076595
0.210076595
0.210076595
0.210076595
0.210076595
0.210076595
0.210076595
0.210076595
0.210076595
0.210076595
0.210076595
0.210076595
0.210076595
0.210076595
0.210076595
0.210076595
0.210076595
0.210076595
0.210076595
0.210076595
0.210076595
0.210076595
0.210076595
0.210076595
0.210076595
0.210076595
0.210076595
0.210076595
0.210076595
0.210076595
0.210076595
0.210076595
0.210076595
0.210076595
0.210076595
0.210076595
0.210076595
0.210076595
0.210076595
0.210076595
0.210076595
0.210076595
0.210076595
0.210076595
0.210076595
0.210076595
0.210076595
0.210076595
0.210076595
0.210076595
0.210076595
0.210076595
0.210076595
0.210076595
0.210076595
0.210076595
0.210076595
0.210076595
0.210076595
0.210076595
0.210076595
0.210076595
0.210076595
0.210076595
0.210076595
0.210076595
0.210076595
0.210076595
0.210076595
0.210076595
0.210076595
0.210076595
0.210076595
0.210076595
0.210076595
0.210076595
0.210076595
0.210076595
0.210076595
0.210076595
0.210076595
0.210076595
0.210076595
0.210076595
0.210076595
0.210076595
0.210076595
0.210076595
0.210076595
0.210076595
0.210076595
0.210076595
0.210076595
0.210076595
0.210076595
0.210076595
0.210076595
0.210076595
0.210076595
0.210076595
0.210076595
0.210076595
0.210076595
0.210076595
0.210076595
0.210076595
0.210076595
0.210076595
0.210076595
0.210076595
0.210076595
0.210076595
0.210076595
0.210076595
0.210076595
0.210076595
0.210076595
0.210076595
0.210076595
0.210076595
0.210076595
0.210076595
0.210076595
0.210076595
0.210076595
0.210076595
0.210076595
0.210076595
0.210076595
0.210076595
0.210076595
0.210076595
0.210076595
0.210076595
0.210076595
0.210076595
0.210076595
0.210076595
0.210076595
0.210076595
0.210076595
0.210076595
0.210076595
0.210076595
0.210076595
0.210076595
0.210076595
0.210076595
0.210076595
0.210076595
0.210076595
0.210076595
0.210076595
0.210076595
0.210076595
0.210076595
0.210076595
0.210076595
0.210076595
0.210076595
0.210076595
0.210076595
0.210076595
0.210076595
0.210076595
0.210076595
0.210076595
0.210076595
0.210076595
0.210076595
0.210076595
0.210076595
0.210076595
0.210076595
0.210076595
0.210076595
0.210076595
0.210076595
0.210076595
0.210076595
0.210076595
0.210076595
0.210076595
0.210076595
0.210076595
0.210076595
0.210076595
0.210076595
0.210076595
0.210076595
0.210076595
0.210076595
0.210076595
0.210076595
0.210076595
0.210076595
0.210076595
0.210076595
0.210076595
0.210076595
0.210076595
0.210076595
0.210076595
0.210076595
0.210076595
0.210076595
0.210076595
0.210076595
0.210076595
0.210076595
0.210076595
0.210076595
0.210076595
0.210076595
0.210076595
0.210076595
0.210076595
0.210076595
0.210076595
0.210076595
0.210076595
0.210076595
0.210076595
0.210076595
0.210076595
0.210076595
0.210076595
0.210076595
0.210076595
0.210076595
0.210076595
0.210076595
0.210076595
0.210076595
0.210076595
0.210076595
0.210076595
0.210076595
0.210076595
0.210076595
0.210076595
0.210076595
0.210076595
0.210076595
0.210076595
0.210076595
0.210076595
0.210076595
0.210076595
0.210076595
0.210076595
0.210076595
0.210076595
0.210076595
0.210076595
0.210076595
0.210076595
0.210076595
0.210076595
0.210076595
0.210076595
0.210076595
0.210076595
0.210076595
0.210076595
0.210076595
0.210076595
0.210076595
0.210076595
0.210076595
0.210076595
0.210076595
0.210076595
0.210076595
0.210076595
0.210076595
0.210076595
0.210076595
0.210076595
0.210076595
0.210076595
0.210076595
0.210076595
0.210076595
0.210076595
0.210076595
0.210076595
0.210076595
0.210076595
0.210076595
0.210076595
0.210076595
0.210076595
0.210076595
0.210076595
0.210076595
0.210076595
0.210076595
0.210076595
0.210076595
0.210076595
0.210076595
0.210076595
0.210076595
0.210076595
0.210076595
0.210076595
0.210076595
0.210076595
0.210076595
0.210076595
0.210076595
0.210076595
0.210076595
0.210076595
0.210076595
0.210076595
0.210076595
0.210076595
0.210076595
0.210076595
0.210076595
0.210076595
0.210076595
0.210076595
0.210076595
0.210076595
0.210076595
0.210076595
0.210076595
0.210076595
0.210076595
0.210076595
0.210076595
0.210076595
0.210076595
0.210076595
0.210076595
0.210076595
0.210076595
0.210076595
0.210076595
0.210076595
0.210076595
0.210076595
0.210076595
0.210076595
0.210076595
0.210076595
0.210076595
0.210076595
0.210076595
0.210076595
0.210076595
0.210076595
0.210076595
0.210076595
0.210076595
0.210076595
0.210076595
0.210076595
0.210076595
0.210076595
0.210076595
0.210076595
0.210076595
0.210076595
0.210076595
0.210076595
0.210076595
0.210076595
0.210076595
0.210076595
0.210076595
0.210076595
0.210076595
0.210076595
0.210076595
0.210076595
0.210076595
0.210076595
0.210076595
0.210076595
0.210076595
0.210076595
0.210076595
0.210076595
0.210076595
0.210076595
0.210076595
0.210076595
0.210076595
0.210076595
0.210076595
0.210076595
0.210076595
0.210076595
0.210076595
0.210076595
0.210076595
0.210076595
0.210076595
0.210076595
0.210076595
0.210076595
0.210076595
0.210076595
0.210076595
0.210076595
0.210076595
0.210076595
0.210076595
0.210076595
0.210076595
0.210076595
0.210076595
0.210076595
0.210076595
0.210076595
0.210076595
0.210076595
0.210076595
0.210076595
0.210076595
0.210076595
0.210076595
0.210076595
0.210076595
0.210076595
0.210076595
0.210076595
0.210076595
0.210076595
0.210076595
0.210076595
0.210076595
0.210076595
0.210076595
0.210076595
0.210076595
0.210076595
0.210076595
0.210076595
0.210076595
0.210076595
0.210076595
0.210076595
0.210076595
0.210076595
0.210076595
0.210076595
0.210076595
0.210076595
0.210076595
0.210076595
0.210076595
0.210076595
0.210076595
0.210076595
0.210076595
0.210076595
0.210076595
0.210076595
0.210076595
0.210076595
0.210076595
0.210076595
0.210076595
0.210076595
0.210076595
0.210076595
0.210076595
0.210076595
0.210076595
0.210076595
0.210076595
0.210076595
0.210076595
0.210076595
0.210076595
0.210076595
0.210076595
0.210076595
0.210076595
0.210076595
0.210076595
0.210076595
0.210076595
0.210076595
0.210076595
0.210076595
0.210076595
0.210076595
0.210076595
0.210076595
0.210076595
0.210076595
0.210076595
0.210076595
0.210076595
0.210076595
0.210076595
0.210076595
0.210076595
0.210076595
0.210076595
0.210076595
0.210076595
0.210076595
0.210076595
0.210076595
0.210076595
0.210076595
0.210076595
0.210076595
0.210076595
0.210076595
0.210076595
0.210076595
0.210076595
0.210076595
0.210076595
0.210076595
0.210076595
0.210076595
0.210076595
0.210076595
0.210076595
0.210076595
0.210076595
0.210076595
0.210076595
0.210076595
0.210076595
0.210076595
0.210076595
0.210076595
0.210076595
0.210076595
0.210076595
0.210076595
0.210076595
0.210076595
0.210076595
0.210076595
0.210076595
0.210076595
0.210076595
0.210076595
0.210076595
0.210076595
0.210076595
0.210076595
0.210076595
0.210076595
0.210076595
0.210076595
0.210076595
0.210076595
0.210076595
0.210076595
0.210076595
0.210076595
0.210076595
0.210076595
0.210076595
0.210076595
0.210076595
0.210076595
0.210076595
0.210076595
0.210076595
0.210076595
0.210076595
0.210076595
0.210076595
0.210076595
0.210076595
0.210076595
0.210076595
0.210076595
0.210076595
0.210076595
0.210076595
0.210076595
0.210076595
0.210076595
0.210076595
0.210076595
0.210076595
0.210076595
0.210076595
0.210076595
0.210076595
0.210076595
0.210076595
0.210076595
0.210076595
0.210076595
0.210076595
0.210076595
0.210076595
0.210076595
0.210076595
0.210076595
0.210076595
0.210076595
0.210076595
0.210076595
0.210076595
0.210076595
0.210076595
0.210076595
0.210076595
0.210076595
0.210076595
0.210076595
0.210076595
0.210076595
0.210076595
0.210076595
0.210076595
0.210076595
0.210076595
0.210076595
0.210076595
0.210076595
0.210076595
0.210076595
0.210076595
0.210076595
0.210076595
0.210076595
0.210076595
0.210076595
0.210076595
0.210076595
0.210076595
0.210076595
0.210076595
0.210076595
0.210076595
0.210076595
0.210076595
0.210076595
0.210076595
0.210076595
0.210076595
0.210076595
0.210076595
0.210076595
0.210076595
0.210076595
0.210076595
0.210076595
0.210076595
0.210076595
0.210076595
0.210076595
0.210076595
0.210076595
0.210076595
0.210076595
0.210076595
0.210076595
0.210076595
0.210076595
0.210076595
0.210076595
0.210076595
0.210076595
0.210076595
0.210076595
0.210076595
0.210076595
0.210076595
0.210076595
0.210076595
0.210076595
0.210076595
0.210076595
0.210076595
0.210076595
0.210076595
0.210076595
0.210076595
0.210076595
0.210076595
0.210076595
0.210076595
0.210076595
0.210076595
0.210076595
0.210076595
0.210076595
0.210076595
0.210076595
0.210076595
0.210076595
0.210076595
0.210076595
0.210076595
0.210076595
0.210076595
0.210076595
0.210076595
0.210076595
0.210076595
0.210076595
0.210076595
0.210076595
0.210076595
0.210076595
0.210076595
0.210076595
0.210076595
0.210076595
0.210076595
0.210076595
0.210076595
0.210076595
0.210076595
0.210076595
0.210076595
0.210076595
0.210076595
0.210076595
0.210076595
0.210076595
0.210076595
0.210076595
0.210076595
0.210076595
0.210076595
0.210076595
0.210076595
0.210076595
0.210076595
0.210076595
0.210076595
0.210076595
0.210076595
0.210076595
0.210076595
0.210076595
0.210076595
0.210076595
0.210076595
0.210076595
0.210076595
0.210076595
0.210076595
0.210076595
0.210076595
0.210076595
0.210076595
0.210076595
0.210076595
0.210076595
0.210076595
0.210076595
0.210076595
0.210076595
0.210076595
0.210076595
0.210076595
0.210076595
0.210076595
0.210076595
0.210076595
0.210076595
0.210076595
0.210076595
0.210076595
0.210076595
0.210076595
0.210076595
0.210076595
0.210076595
0.210076595
0.210076595
0.210076595
0.210076595
0.210076595
0.210076595
0.210076595
0.210076595
0.210076595
0.210076595
0.210076595
0.210076595
0.210076595
0.210076595
0.210076595
0.210076595
0.210076595
0.210076595
0.210076595
0.210076595
0.210076595
0.210076595
0.210076595
0.210076595
0.210076595
0.210076595
0.210076595
0.210076595
0.210076595
0.210076595
0.210076595
0.210076595
0.210076595
0.210076595
0.210076595
0.210076595
0.210076595
0.210076595
0.210076595
0.210076595
0.210076595
0.210076595
0.210076595
0.210076595
0.210076595
0.210076595
0.210076595
0.210076595
0.210076595
0.210076595
0.210076595
0.210076595
0.210076595
0.210076595
0.210076595
0.210076595
0.210076595
0.210076595
0.210076595
0.210076595
0.210076595
0.210076595
0.210076595
0.210076595
0.210076595
0.210076595
0.210076595
0.210076595
0.210076595
0.210076595
0.210076595
0.210076595
0.210076595
0.210076595
0.210076595
0.210076595
0.210076595
0.210076595
0.210076595
0.210076595
0.210076595
0.210076595
0.210076595
0.210076595
0.210076595
0.210076595
0.210076595
0.210076595
0.210076595
0.210076595
0.210076595
0.210076595
0.210076595
0.210076595
0.210076595
0.210076595
0.210076595
0.210076595
0.210076595
0.210076595
0.210076595
0.210076595
0.210076595
0.210076595
0.210076595
0.210076595
0.210076595
0.210076595
0.210076595
0.210076595
0.210076595
0.210076595
0.210076595
0.210076595
0.210076595
0.210076595
0.210076595
0.210076595
0.210076595
0.210076595
0.210076595
0.210076595
0.210076595
0.210076595
0.210076595
0.210076595
0.210076595
0.210076595
0.210076595
0.210076595
0.210076595
0.210076595
0.210076595
0.210076595
0.210076595
0.210076595
0.210076595
0.210076595
0.210076595
0.210076595
0.210076595
0.210076595
0.210076595
0.210076595
0.210076595
0.210076595
0.210076595
0.210076595
0.210076595
0.210076595
0.210076595
0.210076595
0.210076595
0.210076595
0.210076595
0.210076595
0.210076595
0.210076595
0.210076595
0.210076595
0.210076595
0.210076595
0.210076595
0.210076595
0.210076595
0.210076595
0.210076595
0.210076595
0.210076595
0.210076595
0.210076595
0.210076595
0.210076595
0.210076595
0.210076595
0.210076595
0.210076595
0.210076595
0.210076595
0.210076595
0.210076595
0.210076595
0.210076595
0.210076595
0.210076595
0.210076595
0.210076595
0.210076595
0.210076595
0.210076595
0.210076595
0.210076595
0.210076595
0.210076595
0.210076595
0.210076595
0.210076595
0.210076595
0.210076595
0.210076595
0.210076595
0.210076595
0.210076595
0.210076595
0.210076595
0.210076595
0.210076595
0.210076595
0.210076595
0.210076595
0.210076595
0.210076595
0.210076595
0.210076595
0.210076595
0.210076595
0.210076595
0.210076595
0.210076595
0.2100765943
0.2100765943
0.2100765945
0.2100765946
0.2100765946
0.2100765947
0.2100765947
0.2100765948
0.2100765948
0.2100765949
0.2100765949
0.2100765949
0.2100765949
0.2100765949
0.210076595
0.210076595
0.210076595
0.210076595
0.210076595
0.210076595
0.210076595
0.210076595
0.210076595
0.210076595
0.210076595
0.210076595
0.210076595
0.210076595
0.210076595
0.210076595
0.210076595
0.210076595
0.210076595
0.210076595
0.210076595
0.210076595
0.210076595
0.210076595
0.210076595
0.210076595
0.210076595
0.210076595
0.210076595
0.210076595
0.210076595
0.210076595
0.210076595
0.210076595
0.210076595
0.210076595
0.210076595
0.210076595
0.210076595
0.210076595
0.210076595
0.210076595
0.210076595
0.210076595
0.210076595
0.210076595
0.210076595
0.210076595
0.210076595
0.210076595
0.210076595
0.210076595
0.210076595
0.210076595
0.210076595
0.210076595
0.210076595
0.210076595
0.210076595
0.210076595
0.210076595
0.210076595
0.210076595
0.210076595
0.2100765949
0.2100765949
0.2100765949
0.2100765948
0.2100765948
0.2100765948
0.2100765948
0.2100765948
0.2100765948
0.2100765948
0.2100765948
0.2100765948
0.2100765948
0.2100765948
0.2100765948
0.2100765948
0.2100765949
0.2100765949
0.2100765949
0.2100765949
0.2100765949
0.210076566
0.2100765681
0.2100765733
0.2100765778
0.2100765803
0.2100765827
0.2100765848
0.2100765869
0.2100765881
0.2100765893
0.2100765905
0.2100765916
0.2100765923
0.2100765928
0.2100765934
0.2100765939
0.2100765941
0.2100765943
0.2100765945
0.2100765946
0.2100765947
0.2100765948
0.2100765948
0.2100765949
0.2100765949
0.2100765949
0.2100765949
0.210076595
0.210076595
0.210076595
0.210076595
0.210076595
0.210076595
0.210076595
0.210076595
0.210076595
0.210076595
0.210076595
0.210076595
0.210076595
0.210076595
0.210076595
0.210076595
0.210076595
0.210076595
0.210076595
0.210076595
0.210076595
0.210076595
0.210076595
0.210076595
0.210076595
0.210076595
0.210076595
0.210076595
0.210076595
0.210076595
0.210076595
0.210076595
0.210076595
0.210076595
0.210076595
0.210076595
0.210076595
0.210076595
0.210076595
0.210076595
0.210076595
0.2100765949
0.2100765949
0.2100765949
0.2100765948
0.2100765947
0.2100765946
0.2100765944
0.2100765941
0.2100765937
0.2100765933
0.2100765921
0.2100765918
0.2100765906
0.21007659
0.2100765891
0.2100765888
0.2100765888
0.2100765892
0.2100765897
0.2100765899
0.2100765899
0.2100765899
0.21007659
0.21007659
0.2100765901
0.2100765903
0.2100765904
0.2100765906
0.2100765908
0.210076591
0.2100765912
0.2100752955
0.2100753921
0.2100756215
0.2100758232
0.2100759357
0.2100760447
0.2100761494
0.2100762536
0.2100763132
0.2100763623
0.2100764105
0.2100764562
0.2100764838
0.2100765059
0.2100765313
0.2100765488
0.2100765592
0.2100765671
0.2100765739
0.2100765803
0.2100765842
0.2100765865
0.210076588
0.21007659
0.2100765909
0.2100765917
0.2100765924
0.2100765931
0.2100765936
0.2100765939
0.210076594
0.2100765943
0.2100765944
0.2100765945
0.2100765946
0.2100765946
0.2100765947
0.2100765948
0.2100765948
0.2100765948
0.2100765948
0.2100765949
0.2100765949
0.2100765949
0.2100765949
0.2100765949
0.2100765949
0.2100765949
0.2100765949
0.2100765949
0.2100765949
0.2100765949
0.2100765949
0.2100765949
0.2100765949
0.2100765949
0.2100765949
0.2100765948
0.2100765948
0.2100765948
0.2100765947
0.2100765947
0.2100765946
0.2100765944
0.2100765943
0.210076594
0.2100765936
0.2100765931
0.2100765918
0.210076591
0.2100765896
0.2100765867
0.2100765854
0.2100765801
0.2100765716
0.2100765625
0.2100765484
0.2100765349
0.2100764886
0.210076482
0.2100764456
0.2100764198
0.2100763931
0.2100763869
0.2100763875
0.2100763954
0.2100764096
0.2100764208
0.210076427
0.2100764306
0.2100764337
0.2100764373
0.2100764415
0.2100764465
0.2100764521
0.2100764581
0.2100764645
0.2100764712
0.2100764781
0.2100244155
0.210028288
0.2100374529
0.2100455456
0.2100500497
0.2100544502
0.2100586583
0.2100628517
0.2100652354
0.2100672194
0.2100691639
0.2100710059
0.2100721089
0.2100729818
0.2100737574
0.2100745274
0.2100749902
0.2100753435
0.2100756583
0.2100759348
0.2100761107
0.2100762131
0.2100762897
0.2100763838
0.2100764263
0.2100764593
0.2100764891
0.2100765191
0.210076539
0.2100765487
0.2100765569
0.2100765672
0.2100765728
0.2100765752
0.2100765773
0.2100765802
0.2100765841
0.2100765868
0.2100765878
0.210076588
0.2100765886
0.2100765896
0.2100765906
0.210076591
0.2100765912
0.2100765915
0.2100765916
0.2100765918
0.2100765919
0.2100765918
0.2100765918
0.2100765917
0.2100765914
0.2100765914
0.210076591
0.210076591
0.2100765905
0.2100765891
0.210076588
0.2100765872
0.2100765845
0.2100765827
0.2100765781
0.2100765718
0.2100765665
0.210076555
0.210076542
0.2100765209
0.2100764742
0.2100764481
0.210076385
0.2100762888
0.2100762337
0.2100760328
0.2100757312
0.2100753239
0.2100747397
0.2100741351
0.210072636
0.2100723835
0.2100713825
0.2100705838
0.2100698156
0.2100696607
0.2100697458
0.2100700863
0.2100706288
0.2100709854
0.2100711499
0.2100712383
0.2100713168
0.2100714139
0.2100715358
0.2100716829
0.2100718513
0.210072034
0.2100722252
0.2100724204
0.21007262
0.2083147704
0.2084341081
0.208724084
0.2089859776
0.2091354112
0.2092856691
0.209431325
0.2095786832
0.2096628936
0.2097341072
0.2098042783
0.2098712532
0.2099111082
0.2099421866
0.2099645778
0.209993498
0.2100119277
0.2100261664
0.2100388824
0.2100500639
0.21005712
0.2100612056
0.2100643713
0.2100680371
0.2100697867
0.2100711245
0.21007233
0.2100733559
0.2100741148
0.2100745238
0.2100749095
0.2100753467
0.2100756053
0.210075709
0.210075806
0.2100759411
0.2100761079
0.2100762347
0.2100762749
0.2100762922
0.2100763164
0.2100763566
0.2100764065
0.2100764319
0.2100764435
0.2100764547
0.2100764597
0.2100764653
0.2100764706
0.2100764665
0.210076466
0.2100764624
0.2100764512
0.2100764528
0.2100764364
0.2100764365
0.2100764153
0.210076362
0.2100763234
0.2100762849
0.2100761791
0.2100761049
0.2100759098
0.2100756057
0.2100753787
0.2100748936
0.2100743396
0.2100734418
0.2100720083
0.2100710731
0.2100686775
0.2100652723
0.2100631824
0.210055678
0.2100447793
0.2100301447
0.2100097738
0.2099874271
0.2099398983
0.2099318665
0.2099067692
0.2098860546
0.2098668233
0.2098636495
0.2098680699
0.2098794681
0.2098945197
0.2099035667
0.2099075951
0.2099097272
0.2099118089
0.2099145778
0.2099184541
0.2099235746
0.2099296976
0.2099362987
0.2099431097
0.2099499496
0.2099567647
0.2008502245
0.2012405472
0.202323425
0.2032381409
0.2038158167
0.2044794009
0.2052062386
0.206012171
0.2065033784
0.2069341077
0.2073990535
0.2078892366
0.2081920039
0.2082669873
0.2070960401
0.2074160802
0.2079324105
0.2083610117
0.2087660381
0.2091361435
0.2093767798
0.2095187098
0.2096339956
0.2097613783
0.2098261684
0.2098750214
0.2099191028
0.2099523689
0.2099772757
0.2099931695
0.2100087363
0.2100266673
0.2100369342
0.2100408586
0.2100447732
0.2100503152
0.2100571807
0.2100623117
0.2100637571
0.2100644171
0.2100654052
0.2100670667
0.2100691331
0.2100701048
0.2100705485
0.2100710092
0.2100711994
0.2100714374
0.210071658
0.2100714907
0.2100714803
0.2100713366
0.2100709153
0.2100709913
0.2100703567
0.2100703851
0.2100695069
0.2100674315
0.2100659955
0.2100644529
0.2100603984
0.210057494
0.2100498063
0.2100383762
0.2100297179
0.210011267
0.2099903507
0.209956737
0.2099154763
0.2098858897
0.2098040622
0.209695394
0.2096235007
0.2093789678
0.2090400703
0.208606717
0.208049166
0.2074408781
0.206685478
0.2066117139
0.2074607015
0.2077737656
0.2078374613
0.2078502777
0.2078616335
0.2077845157
0.2070832966
0.2067162204
0.2066086655
0.2065580983
0.2064966776
0.2063970024
0.2063457398
0.206381506
0.2065051633
0.2066560357
0.206814896
0.2069756709
0.2071333121
0.1789931016
0.1796833375
0.1821031105
0.1835972928
0.1846342825
0.1861279982
0.1880319681
0.1903020049
0.1916689299
0.1928052558
0.1941276001
0.1956765715
0.1967791852
0.1975830445
0.1968069373
0.1982313169
0.1996461179
0.2009538473
0.2024195653
0.2037989912
0.2048606097
0.2056010157
0.2062930292
0.2070925285
0.2075492959
0.2079154511
0.2082272769
0.2075174917
0.2070022078
0.2073937756
0.2078346846
0.2083839566
0.2087053804
0.2088248936
0.2089539971
0.2091427438
0.2093835246
0.2095649801
0.2096100458
0.2096327715
0.2096687771
0.2097301192
0.2098071224
0.2098404948
0.2098557514
0.2098730527
0.2098794686
0.2098887495
0.2098970083
0.2098907832
0.2098907781
0.2098855656
0.2098711741
0.209874405
0.2098520605
0.2098541015
0.2098209471
0.2097483959
0.2097003522
0.2096450876
0.2095073619
0.2094073728
0.2091481955
0.2087898459
0.208522328
0.2079840896
0.2074053919
0.2066273206
0.2077768367
0.2078673253
0.2073454325
0.2066968452
0.2062628287
0.2049102949
0.2034646431
0.2019090148
0.2002119432
0.198526463
0.196230898
0.1958310589
0.1957681147
0.1956743753
0.1955747532
0.1956390664
0.1958822624
0.1962343332
0.1963057915
0.1961411633
0.195981106
0.1959187197
0.1959342578
0.1959917623
0.196106881
0.1963024491
0.1965807724
0.196912633
0.197275964
0.1976565192
0.1980346199
0.1461445935
0.1470157588
0.1510380512
0.1525380569
0.1536575254
0.1559229586
0.1591104909
0.1631246095
0.1652609571
0.1668612786
0.1687476847
0.1710503098
0.1727182131
0.1739966265
0.172171073
0.1744739994
0.1767129945
0.1789080384
0.1819676221
0.1844065697
0.1866093232
0.1885673524
0.1907022248
0.1930800616
0.1944820698
0.1956838313
0.1968731224
0.1967170851
0.1972844832
0.1981250736
0.1993031218
0.2010104793
0.202156029
0.2025726222
0.2030432426
0.2037972613
0.2048810905
0.2058399369
0.206079649
0.2062155649
0.2064502857
0.206874318
0.2074212712
0.2076568943
0.2077663743
0.207901287
0.2079475007
0.2080211421
0.2080841571
0.2080339636
0.2080351698
0.207997287
0.207889281
0.2079149563
0.2077338112
0.2077446293
0.2074633736
0.2069807836
0.2066751272
0.2063041399
0.2055029689
0.204984623
0.2038054742
0.2024392349
0.2015352653
0.1998414979
0.1982221825
0.1961021135
0.1957109386
0.1952175235
0.1931549532
0.1914241088
0.1901586162
0.1866306551
0.183704021
0.1808522455
0.178078592
0.1754130456
0.1717398999
0.1710326527
0.1702689441
0.1699086628
0.1697176217
0.1698630456
0.1703481256
0.17109407
0.1717951457
0.1718574173
0.1717061943
0.1716699884
0.1717815355
0.1720006283
0.1722959808
0.1726685575
0.1731136619
0.1736126568
0.1741470351
0.1747185942
0.1753080608
0.1058149664