/*--------------------------------*- C++ -*----------------------------------*\
| =========                 |                                                 |
| \\      /  F ield         | OpenFOAM: The Open Source CFD Toolbox           |
|  \\    /   O peration     | Version:  v1706                                 |
|   \\  /    A nd           | Web:      www.OpenFOAM.com                      |
|    \\/     M anipulation  |                                                 |
\*---------------------------------------------------------------------------*/
FoamFile
{
    version     2.0;
    format      ascii;
    class       volVectorField;
    location    "1e-05";
    object      UMean_Ar;
}
// * * * * * * * * * * * * * * * * * * * * * * * * * * * * * * * * * * * * * //

dimensions      [0 1 -1 0 0 0 0];


internalField   uniform (-0.002441435428 0.0002313834619 -0.001472694992);

boundaryField
{
    bottom
    {
        type            calculated;
        value           uniform (-0.002441435428 0.0002313834619 -0.001472694992);
    }
    top
    {
        type            calculated;
        value           uniform (-0.002441435428 0.0002313834619 -0.001472694992);
    }
    inlet
    {
        type            calculated;
        value           uniform (-0.002441435428 0.0002313834619 -0.001472694992);
    }
    outlet
    {
        type            calculated;
        value           uniform (-0.002441435428 0.0002313834619 -0.001472694992);
    }
    back
    {
        type            calculated;
        value           uniform (-0.002441435428 0.0002313834619 -0.001472694992);
    }
    front
    {
        type            calculated;
        value           uniform (-0.002441435428 0.0002313834619 -0.001472694992);
    }
}


// ************************************************************************* //
